Protein in INSANE! Membrane UpperLeaflet>POPC=1.0 LowerLeaflet>POPC=1.0
239324
    1AU     AUC    1   1.515  13.462   7.504
    1AU     AUC    2   1.757  13.462   7.337
    1AU     AUC    3   1.773  13.468   7.645
    1AU     AUC    4   1.254  13.454   7.360
    1AU     AUC    5   1.273  13.467   7.671
    1AU     AUC    6   1.359  13.709   7.504
    1AU     AUC    7   1.665  13.714   7.489
    1AU     AUC    8   1.362  13.208   7.520
    1AU     AUC    9   1.674  13.214   7.502
    1AU     AUC   10   1.531  13.315   7.758
    1AU     AUC   11   1.527  13.625   7.751
    1AU     AUC   12   1.506  13.302   7.256
    1AU     AUC   13   1.500  13.611   7.249
    1AU     AUC   14   1.992  13.463   7.175
    1AU     AUC   15   2.013  13.464   7.479
    1AU     AUC   16   2.025  13.472   7.781
    1AU     AUC   17   1.005  13.442   7.222
    1AU     AUC   18   1.016  13.467   7.526
    1AU     AUC   19   1.038  13.474   7.833
    1AU     AUC   20   1.209  13.951   7.503
    1AU     AUC   21   1.511  13.959   7.488
    1AU     AUC   22   1.811  13.959   7.475
    1AU     AUC   23   1.216  12.966   7.534
    1AU     AUC   24   1.514  12.965   7.524
    1AU     AUC   25   1.823  12.973   7.500
    1AU     AUC   26   1.542  13.170   8.002
    1AU     AUC   27   1.540  13.470   8.002
    1AU     AUC   28   1.541  13.779   7.989
    1AU     AUC   29   1.500  13.147   7.019
    1AU     AUC   30   1.496  13.446   7.005
    1AU     AUC   31   1.487  13.752   7.002
    1AU     AUC   32   1.785  13.316   7.897
    1AU     AUC   33   1.784  13.622   7.893
    1AU     AUC   34   1.746  13.303   7.093
    1AU     AUC   35   1.746  13.611   7.088
    1AU     AUC   36   1.281  13.319   7.920
    1AU     AUC   37   1.288  13.625   7.917
    1AU     AUC   38   1.252  13.291   7.117
    1AU     AUC   39   1.242  13.594   7.106
    1AU     AUC   40   1.908  13.712   7.327
    1AU     AUC   41   1.925  13.715   7.634
    1AU     AUC   42   1.100  13.697   7.357
    1AU     AUC   43   1.123  13.718   7.672
    1AU     AUC   44   1.908  13.209   7.332
    1AU     AUC   45   1.927  13.216   7.638
    1AU     AUC   46   1.109  13.204   7.375
    1AU     AUC   47   1.116  13.219   7.677
    1AU     AUC   48   1.376  13.873   7.750
    1AU     AUC   49   1.680  13.873   7.737
    1AU     AUC   50   1.371  13.068   7.771
    1AU     AUC   51   1.685  13.067   7.757
    1AU     AUC   52   1.344  13.854   7.245
    1AU     AUC   53   1.650  13.861   7.234
    1AU     AUC   54   1.354  13.049   7.277
    1AU     AUC   55   1.660  13.052   7.259
    1AU    AUSL   56   1.966  13.439   8.068
    1AU    AUSL   57   1.842  13.045   8.051
    1AU     AUL   58   2.225  13.229   8.200
    1AU       S   59   2.152  12.740   8.309
    1AU     LIG   60   2.149  12.322   8.527
    1AU     LIG   61   2.182  11.865   8.659
    1AU     LIG   62   2.404  11.631   8.986
    1AU     LIG   63   2.647  11.404   9.314
    1AU     LIG   64   2.734  11.377   9.779
    1AU     LIG   65   2.689  11.235  10.238
    1AU       S   66   2.015  13.366   8.659
    1AU     LIG   67   2.224  13.223   9.059
    1AU     LIG   68   2.392  13.072   9.481
    1AU     LIG   69   2.702  13.071   9.839
    1AU     LIG   70   3.079  13.261  10.070
    1AU     LIG   71   3.445  13.245  10.375
    1AU     LIG   72   3.558  13.137  10.825
    1AU    AUSL   73   1.692  13.299   8.212
    1AU    AUSL   74   1.399  13.624   8.194
    1AU     AUL   75   1.484  13.447   8.513
    1AU       S   76   1.882  13.154   8.594
    1AU     LIG   77   2.056  12.791   8.830
    1AU     LIG   78   2.114  12.676   9.286
    1AU     LIG   79   2.174  12.652   9.766
    1AU     LIG   80   2.148  12.486  10.226
    1AU     LIG   81   2.302  12.473  10.681
    1AU     LIG   82   2.524  12.543  11.088
    1AU       S   83   0.984  13.670   8.628
    1AU     LIG   84   0.780  13.654   9.074
    1AU     LIG   85   0.751  13.402   9.495
    1AU     LIG   86   0.640  13.348   9.962
    1AU     LIG   87   0.652  13.595  10.389
    1AU     LIG   88   0.719  13.860  10.797
    1AU     LIG   89   0.613  14.080  11.218
    1AU    AUSL   90   1.735  13.641   8.201
    1AU    AUSL   91   2.080  13.741   7.935
    1AU     AUL   92   2.174  13.572   8.232
    1AU       S   93   1.905  13.693   8.644
    1AU     LIG   94   1.963  14.074   8.925
    1AU     LIG   95   2.062  14.237   9.366
    1AU     LIG   96   2.044  14.216   9.852
    1AU     LIG   97   2.046  14.267  10.330
    1AU     LIG   98   2.240  14.398  10.737
    1AU     LIG   99   2.593  14.227  11.024
    1AU       S  100   2.457  13.966   8.146
    1AU     LIG  101   2.824  13.892   8.380
    1AU     LIG  102   2.987  13.954   8.797
    1AU     LIG  103   3.264  14.219   9.059
    1AU     LIG  104   3.488  14.534   9.333
    1AU     LIG  105   3.842  14.598   9.636
    1AU     LIG  106   4.126  14.813   9.952
    1AU    AUSL  107   1.932  13.509   6.887
    1AU    AUSL  108   1.767  13.859   6.931
    1AU     AUL  109   1.807  13.798   6.575
    1AU       S  110   2.059  13.382   6.384
    1AU     LIG  111   2.358  13.071   6.209
    1AU     LIG  112   2.500  12.918   5.793
    1AU     LIG  113   2.670  12.973   5.347
    1AU     LIG  114   3.070  12.921   5.066
    1AU     LIG  115   3.384  12.922   4.696
    1AU     LIG  116   3.666  13.174   4.390
    1AU       S  117   2.238  14.046   6.654
    1AU     LIG  118   2.558  14.177   6.335
    1AU     LIG  119   2.812  14.374   5.975
    1AU     LIG  120   3.017  14.478   5.544
    1AU     LIG  121   3.064  14.781   5.177
    1AU     LIG  122   3.067  15.194   4.952
    1AU     LIG  123   3.255  15.446   4.606
    1AU    AUSL  124   1.705  13.271   6.800
    1AU    AUSL  125   1.988  13.195   7.022
    1AU     AUL  126   2.202  13.332   6.855
    1AU       S  127   2.162  12.871   6.637
    1AU     LIG  128   2.362  12.526   6.363
    1AU     LIG  129   2.569  12.085   6.318
    1AU     LIG  130   2.874  11.751   6.142
    1AU     LIG  131   3.208  11.536   5.863
    1AU     LIG  132   3.575  11.558   5.538
    1AU     LIG  133   3.880  11.748   5.202
    1AU       S  134   1.767  13.118   6.392
    1AU     LIG  135   1.950  12.772   6.139
    1AU     LIG  136   2.049  12.702   5.697
    1AU     LIG  137   2.222  12.719   5.259
    1AU     LIG  138   2.237  12.709   4.785
    1AU     LIG  139   2.338  12.527   4.354
    1AU     LIG  140   2.531  12.632   3.937
    1AU    AUSL  141   1.623  13.592   6.800
    1AU    AUSL  142   1.366  13.279   6.787
    1AU     AUL  143   1.496  13.552   6.517
    1AU       S  144   1.147  13.189   6.311
    1AU     LIG  145   0.907  12.945   5.994
    1AU     LIG  146   0.750  12.783   5.584
    1AU     LIG  147   0.550  12.569   5.200
    1AU     LIG  148   0.467  12.547   4.734
    1AU     LIG  149   0.427  12.340   4.299
    1AU     LIG  150   0.536  12.352   3.835
    1AU       S  151   1.883  13.256   6.427
    1AU     LIG  152   1.967  13.224   5.913
    1AU     LIG  153   2.179  13.181   5.483
    1AU     LIG  154   2.292  13.202   5.013
    1AU     LIG  155   2.323  13.495   4.612
    1AU     LIG  156   2.237  13.751   4.199
    1AU     LIG  157   2.396  13.884   3.759
    1AU    AUSL  158   1.104  13.489   8.130
    1AU    AUSL  159   1.278  13.910   8.068
    1AU     AUL  160   1.400  13.805   8.396
    1AU       S  161   0.832  13.522   8.462
    1AU     LIG  162   0.512  13.355   8.753
    1AU     LIG  163   0.422  13.174   9.172
    1AU     LIG  164   0.353  13.067   9.620
    1AU     LIG  165   0.070  13.035   9.995
    1AU     LIG  166  44.686  13.060  10.291
    1AU     LIG  167  44.458  13.172  10.690
    1AU       S  168   0.997  14.106   8.407
    1AU     LIG  169   0.926  14.147   8.858
    1AU     LIG  170   0.785  14.465   9.157
    1AU     LIG  171   0.492  14.700   9.427
    1AU     LIG  172   0.439  14.982   9.811
    1AU     LIG  173   0.230  15.285  10.115
    1AU     LIG  174  44.947  15.514  10.427
    1AU    AUSL  175   1.361  13.289   8.215
    1AU    AUSL  176   0.977  13.215   7.973
    1AU     AUL  177   1.078  13.103   8.312
    1AU       S  178   0.687  12.784   8.177
    1AU     LIG  179   0.275  12.539   8.099
    1AU     LIG  180  44.857  12.330   8.207
    1AU     LIG  181  44.609  12.062   8.507
    1AU     LIG  182  44.253  11.836   8.721
    1AU     LIG  183  43.841  11.758   8.956
    1AU     LIG  184  43.504  11.772   9.302
    1AU       S  185   1.013  13.424   8.681
    1AU     LIG  186   0.922  13.149   9.042
    1AU     LIG  187   0.804  12.888   9.417
    1AU     LIG  188   0.717  12.803   9.874
    1AU     LIG  189   0.493  12.622  10.252
    1AU     LIG  190   0.327  12.435  10.659
    1AU     LIG  191   0.181  12.468  11.119
    1AU    AUSL  192   1.068  13.374   6.920
    1AU    AUSL  193   1.220  13.041   6.984
    1AU     AUL  194   1.324  12.976   6.715
    1AU       S  195   0.854  13.239   6.540
    1AU     LIG  196   0.516  13.165   6.255
    1AU     LIG  197   0.424  13.156   5.792
    1AU     LIG  198   0.407  13.059   5.317
    1AU     LIG  199   0.112  12.876   4.984
    1AU     LIG  200  44.742  13.042   4.709
    1AU     LIG  201  44.387  13.056   4.372
    1AU       S  202   0.838  12.788   6.737
    1AU     LIG  203   0.500  12.482   6.591
    1AU     LIG  204   0.239  12.132   6.439
    1AU     LIG  205   0.002  11.966   6.071
    1AU     LIG  206  44.972  11.626   5.757
    1AU     LIG  207   0.012  11.312   5.419
    1AU     LIG  208  44.949  11.050   5.041
    1AU    AUSL  209   1.296  13.602   6.819
    1AU    AUSL  210   0.949  13.680   7.064
    1AU     AUL  211   1.018  13.693   6.710
    1AU       S  212   0.570  13.888   6.790
    1AU     LIG  213   0.389  14.045   6.378
    1AU     LIG  214   0.248  14.118   5.908
    1AU     LIG  215   0.137  14.386   5.505
    1AU     LIG  216  44.848  14.430   5.114
    1AU     LIG  217  44.375  14.457   5.011
    1AU     LIG  218  43.968  14.689   4.948
    1AU       S  219   1.063  13.329   6.391
    1AU     LIG  220   0.846  13.448   5.971
    1AU     LIG  221   0.826  13.314   5.510
    1AU     LIG  222   0.800  13.413   5.035
    1AU     LIG  223   0.905  13.649   4.613
    1AU     LIG  224   0.744  13.901   4.230
    1AU     LIG  225   0.663  14.083   3.795
    1AU    AUSL  226   2.106  13.888   7.440
    1AU    AUSL  227   2.064  13.754   7.080
    1AU     AUL  228   2.166  14.200   7.294
    1AU       S  229   2.394  13.815   6.793
    1AU     LIG  230   2.803  13.796   6.579
    1AU     LIG  231   3.046  13.973   6.215
    1AU     LIG  232   3.300  14.204   5.887
    1AU     LIG  233   3.608  14.342   5.555
    1AU     LIG  234   4.033  14.500   5.409
    1AU     LIG  235   4.350  14.557   5.060
    1AU       S  236   2.645  13.980   7.371
    1AU     LIG  237   3.159  14.006   7.474
    1AU     LIG  238   3.674  14.059   7.492
    1AU     LIG  239   4.170  14.138   7.515
    1AU     LIG  240   4.554  14.477   7.567
    1AU     LIG  241   4.740  14.956   7.616
    1AU     LIG  242   5.005  15.371   7.696
    1AU    AUSL  243   2.228  13.590   7.315
    1AU    AUSL  244   2.230  13.323   7.609
    1AU     AUL  245   2.529  13.316   7.364
    1AU       S  246   2.621  13.794   7.242
    1AU     LIG  247   3.044  13.747   7.056
    1AU     LIG  248   3.509  13.667   7.204
    1AU     LIG  249   4.007  13.665   7.242
    1AU     LIG  250   4.447  13.688   7.023
    1AU     LIG  251   4.866  13.815   6.825
    1AU     LIG  252   5.293  13.995   6.765
    1AU       S  253   2.608  12.846   7.645
    1AU     LIG  254   2.912  12.590   7.884
    1AU     LIG  255   3.347  12.403   7.884
    1AU     LIG  256   3.791  12.302   7.773
    1AU     LIG  257   4.265  12.356   7.756
    1AU     LIG  258   4.651  12.132   7.965
    1AU     LIG  259   5.049  12.185   8.213
    1AU    AUSL  260   2.225  13.653   7.652
    1AU    AUSL  261   1.959  13.978   7.734
    1AU     AUL  262   2.250  14.060   7.689
    1AU       S  263   2.288  14.090   8.184
    1AU     LIG  264   2.607  14.368   8.429
    1AU     LIG  265   2.999  14.454   8.665
    1AU     LIG  266   3.312  14.712   8.879
    1AU     LIG  267   3.524  15.037   9.127
    1AU     LIG  268   3.753  15.459   9.144
    1AU     LIG  269   3.877  15.920   9.179
    1AU       S  270   2.663  13.767   7.614
    1AU     LIG  271   3.044  13.684   7.855
    1AU     LIG  272   3.497  13.635   7.733
    1AU     LIG  273   3.962  13.709   7.760
    1AU     LIG  274   4.323  13.908   7.970
    1AU     LIG  275   4.780  13.913   7.936
    1AU     LIG  276   5.184  14.055   8.114
    1AU    AUSL  277   0.919  13.911   7.536
    1AU    AUSL  278   0.993  13.751   7.951
    1AU     AUL  279   0.824  14.159   7.783
    1AU       S  280   0.701  13.909   8.223
    1AU     LIG  281   0.524  13.895   8.663
    1AU     LIG  282   0.380  14.187   9.011
    1AU     LIG  283   0.111  14.332   9.388
    1AU     LIG  284  44.808  14.380   9.768
    1AU     LIG  285  44.467  14.627  10.010
    1AU     LIG  286  44.019  14.661  10.196
    1AU       S  287   0.376  14.030   7.540
    1AU     LIG  288   0.180  14.483   7.569
    1AU     LIG  289   0.150  14.988   7.550
    1AU     LIG  290  44.858  15.397   7.503
    1AU     LIG  291  44.482  15.669   7.655
    1AU     LIG  292  44.037  15.572   7.729
    1AU     LIG  293  43.636  15.537   7.516
    1AU    AUSL  294   0.801  13.634   7.366
    1AU    AUSL  295   1.055  13.957   7.236
    1AU     AUL  296   0.774  14.002   7.248
    1AU       S  297   0.340  13.759   7.310
    1AU     LIG  298   0.067  13.971   6.938
    1AU     LIG  299  44.672  14.146   6.666
    1AU     LIG  300  44.198  14.290   6.740
    1AU     LIG  301  43.743  14.501   6.699
    1AU     LIG  302  43.262  14.442   6.638
    1AU     LIG  303  42.896  14.791   6.654
    1AU       S  304   0.696  14.187   6.802
    1AU     LIG  305   0.664  14.616   6.619
    1AU     LIG  306   0.635  14.880   6.246
    1AU     LIG  307   0.269  15.079   6.009
    1AU     LIG  308   0.049  15.479   5.935
    1AU     LIG  309  44.915  15.848   5.696
    1AU     LIG  310  44.646  16.174   5.815
    1AU    AUSL  311   0.817  13.641   7.705
    1AU    AUSL  312   0.765  13.305   7.366
    1AU     AUL  313   0.549  13.472   7.688
    1AU       S  314   0.304  13.260   7.275
    1AU     LIG  315  44.909  13.078   7.639
    1AU     LIG  316  44.405  12.961   7.758
    1AU     LIG  317  43.909  13.065   7.767
    1AU     LIG  318  43.561  12.878   7.484
    1AU     LIG  319  43.142  12.629   7.442
    1AU     LIG  320  42.799  12.427   7.108
    1AU       S  321   0.362  13.908   7.792
    1AU     LIG  322   0.080  14.128   8.100
    1AU     LIG  323  44.629  14.129   8.326
    1AU     LIG  324  44.139  14.161   8.257
    1AU     LIG  325  43.662  14.207   8.411
    1AU     LIG  326  43.274  14.493   8.571
    1AU     LIG  327  42.787  14.543   8.432
    1AU    AUSL  328   2.128  13.020   7.503
    1AU    AUSL  329   2.084  13.192   7.875
    1AU     AUL  330   2.419  13.258   7.831
    1AU       S  331   2.350  12.642   7.473
    1AU     LIG  332   2.583  12.288   7.649
    1AU     LIG  333   3.033  12.116   7.595
    1AU     LIG  334   3.498  11.955   7.508
    1AU     LIG  335   3.922  11.702   7.423
    1AU     LIG  336   4.316  11.417   7.483
    1AU     LIG  337   4.753  11.213   7.400
    1AU       S  338   2.318  12.770   8.074
    1AU     LIG  339   2.599  12.438   8.299
    1AU     LIG  340   2.654  12.064   8.611
    1AU     LIG  341   2.894  11.745   8.914
    1AU     LIG  342   3.133  11.601   9.310
    1AU     LIG  343   3.480  11.645   9.652
    1AU     LIG  344   3.870  11.623   9.947
    1AU    AUSL  345   2.177  13.266   7.285
    1AU    AUSL  346   1.953  12.922   7.223
    1AU     AUL  347   2.315  13.053   7.111
    1AU       S  348   2.459  12.811   7.511
    1AU     LIG  349   2.899  12.573   7.356
    1AU     LIG  350   3.373  12.453   7.371
    1AU     LIG  351   3.846  12.450   7.292
    1AU     LIG  352   4.301  12.407   7.198
    1AU     LIG  353   4.667  12.184   7.020
    1AU     LIG  354   5.091  11.989   7.031
    1AU       S  355   2.186  12.634   6.854
    1AU     LIG  356   2.251  12.153   6.740
    1AU     LIG  357   2.229  11.656   6.675
    1AU     LIG  358   2.434  11.273   6.454
    1AU     LIG  359   2.876  11.090   6.359
    1AU     LIG  360   3.206  10.775   6.204
    1AU     LIG  361   3.675  10.667   6.104
    1AU    AUSL  362   0.935  13.049   7.504
    1AU    AUSL  363   0.946  13.156   7.140
    1AU     AUL  364   0.756  12.869   7.409
    1AU       S  365   0.684  12.922   6.883
    1AU     LIG  366   0.244  12.805   6.887
    1AU     LIG  367  44.967  12.424   6.774
    1AU     LIG  368  44.730  12.074   6.508
    1AU     LIG  369  44.395  11.909   6.191
    1AU     LIG  370  44.121  12.044   5.820
    1AU     LIG  371  43.768  12.018   5.484
    1AU       S  372   0.430  13.173   7.209
    1AU     LIG  373   0.178  12.715   7.390
    1AU     LIG  374  44.742  12.581   7.542
    1AU     LIG  375  44.369  12.367   7.756
    1AU     LIG  376  43.943  12.122   7.789
    1AU     LIG  377  43.589  11.795   7.788
    1AU     LIG  378  43.189  11.682   7.561
    1AU    AUSL  379   0.847  13.312   7.687
    1AU    AUSL  380   1.054  12.927   7.791
    1AU     AUL  381   0.666  13.083   7.776
    1AU       S  382   0.769  12.592   7.873
    1AU     LIG  383   0.440  12.325   7.665
    1AU     LIG  384   0.053  12.081   7.802
    1AU     LIG  385  44.874  11.792   8.153
    1AU     LIG  386  44.611  11.538   8.474
    1AU     LIG  387  44.248  11.312   8.689
    1AU     LIG  388  44.097  10.870   8.817
    1AU       S  389   0.340  13.175   7.369
    1AU     LIG  390  44.870  13.041   7.147
    1AU     LIG  391  44.423  12.892   7.249
    1AU     LIG  392  44.058  12.678   7.480
    1AU     LIG  393  43.769  12.597   7.869
    1AU     LIG  394  43.329  12.670   7.935
    1AU     LIG  395  42.899  12.544   7.947
    1AU    AUSL  396   1.531  14.082   7.924
    1AU    AUSL  397   1.129  13.999   7.780
    1AU     AUL  398   1.197  14.280   7.953
    1AU       S  399   0.875  14.096   8.291
    1AU     LIG  400   0.589  14.395   8.556
    1AU     LIG  401   0.417  14.711   8.879
    1AU     LIG  402   0.262  15.161   8.947
    1AU     LIG  403   0.072  15.557   9.145
    1AU     LIG  404  44.731  15.892   9.127
    1AU     LIG  405  44.500  16.325   9.163
    1AU       S  406   1.576  14.595   8.069
    1AU     LIG  407   1.841  14.867   8.347
    1AU     LIG  408   1.845  15.289   8.551
    1AU     LIG  409   1.850  15.672   8.821
    1AU     LIG  410   1.824  15.828   9.280
    1AU     LIG  411   1.816  16.125   9.659
    1AU     LIG  412   1.712  16.544   9.846
    1AU    AUSL  413   1.370  14.175   7.637
    1AU    AUSL  414   1.642  14.192   7.316
    1AU     AUL  415   1.204  14.415   7.456
    1AU       S  416   1.492  14.672   7.800
    1AU     LIG  417   1.541  15.119   8.019
    1AU     LIG  418   1.639  15.570   8.165
    1AU     LIG  419   1.662  15.996   8.407
    1AU     LIG  420   1.472  16.446   8.492
    1AU     LIG  421   1.223  16.870   8.591
    1AU     LIG  422   1.103  17.347   8.595
    1AU       S  423   1.716  14.606   7.217
    1AU     LIG  424   1.904  14.994   7.338
    1AU     LIG  425   2.118  15.369   7.141
    1AU     LIG  426   2.193  15.739   6.831
    1AU     LIG  427   2.258  16.175   6.631
    1AU     LIG  428   2.426  16.630   6.554
    1AU     LIG  429   2.548  17.106   6.540
    1AU    AUSL  430   1.706  14.170   7.638
    1AU    AUSL  431   1.797  13.912   8.026
    1AU     AUL  432   1.896  14.250   7.915
    1AU       S  433   2.094  14.052   8.332
    1AU     LIG  434   2.410  13.985   8.692
    1AU     LIG  435   2.640  14.282   8.993
    1AU     LIG  436   2.947  14.584   9.224
    1AU     LIG  437   3.163  14.897   9.530
    1AU     LIG  438   3.131  15.204   9.921
    1AU     LIG  439   3.202  15.395  10.364
    1AU       S  440   1.691  14.646   7.696
    1AU     LIG  441   1.988  14.939   7.852
    1AU     LIG  442   2.082  15.318   8.099
    1AU     LIG  443   2.107  15.733   8.357
    1AU     LIG  444   2.191  16.223   8.442
    1AU     LIG  445   2.407  16.690   8.496
    1AU     LIG  446   2.609  17.156   8.570
    1AU    AUSL  447   1.552  12.889   7.976
    1AU    AUSL  448   1.947  12.907   7.756
    1AU     AUL  449   1.771  12.654   8.003
    1AU       S  450   1.388  12.322   8.069
    1AU     LIG  451   1.181  11.912   8.159
    1AU     LIG  452   1.248  11.445   8.218
    1AU     LIG  453   1.229  11.005   8.406
    1AU     LIG  454   1.182  10.587   8.635
    1AU     LIG  455   1.186  10.406   9.090
    1AU     LIG  456   1.233  10.499   9.562
    1AU       S  457   2.266  12.632   7.952
    1AU     LIG  458   2.236  12.194   8.029
    1AU     LIG  459   2.411  11.817   8.199
    1AU     LIG  460   2.629  11.555   8.508
    1AU     LIG  461   2.710  11.226   8.829
    1AU     LIG  462   2.964  10.938   9.094
    1AU     LIG  463   3.269  10.556   9.048
    1AU    AUSL  464   1.339  12.765   7.735
    1AU    AUSL  465   1.264  13.046   8.013
    1AU     AUL  466   1.299  12.806   8.165
    1AU       S  467   1.193  12.367   7.850
    1AU     LIG  468   0.891  12.066   7.767
    1AU     LIG  469   0.917  11.599   7.807
    1AU     LIG  470   0.901  11.138   7.990
    1AU     LIG  471   0.893  10.670   8.161
    1AU     LIG  472   0.656  10.242   8.205
    1AU     LIG  473   0.801   9.779   8.154
    1AU       S  474   0.855  12.663   8.043
    1AU     LIG  475   0.691  12.238   8.207
    1AU     LIG  476   0.281  12.051   8.328
    1AU     LIG  477   0.043  11.808   8.664
    1AU     LIG  478   0.134  11.592   9.093
    1AU     LIG  479   0.113  11.298   9.485
    1AU     LIG  480   0.020  10.931   9.788
    1AU    AUSL  481   1.656  12.787   7.674
    1AU    AUSL  482   1.359  12.722   7.403
    1AU     AUL  483   1.727  12.527   7.607
    1AU       S  484   1.070  12.360   7.378
    1AU     LIG  485   1.043  11.857   7.334
    1AU     LIG  486   0.883  11.440   7.162
    1AU     LIG  487   0.517  11.130   7.040
    1AU     LIG  488   0.286  10.713   6.927
    1AU     LIG  489   0.297  10.223   6.816
    1AU     LIG  490   0.500   9.798   6.688
    1AU       S  491   1.331  12.373   7.832
    1AU     LIG  492   1.399  11.914   7.694
    1AU     LIG  493   1.394  11.442   7.723
    1AU     LIG  494   1.389  11.002   7.921
    1AU     LIG  495   1.405  10.565   8.131
    1AU     LIG  496   1.582  10.103   8.110
    1AU     LIG  497   1.767   9.658   8.106
    1AU    AUSL  498   1.502  14.047   7.034
    1AU    AUSL  499   1.895  14.004   7.209
    1AU     AUL  500   1.828  14.196   6.936
    1AU       S  501   1.490  14.557   6.878
    1AU     LIG  502   1.547  14.719   6.461
    1AU     LIG  503   1.728  14.998   6.142
    1AU     LIG  504   1.875  15.378   5.912
    1AU     LIG  505   1.791  15.685   5.564
    1AU     LIG  506   1.858  16.125   5.403
    1AU     LIG  507   1.738  16.555   5.224
    1AU       S  508   2.312  13.974   6.888
    1AU     LIG  509   2.718  14.216   6.849
    1AU     LIG  510   2.994  14.400   6.498
    1AU     LIG  511   3.217  14.653   6.157
    1AU     LIG  512   3.442  15.063   6.039
    1AU     LIG  513   3.580  15.517   5.934
    1AU     LIG  514   3.647  15.967   5.772
    1AU    AUSL  515   1.324  14.129   7.311
    1AU    AUSL  516   1.220  13.890   6.956
    1AU     AUL  517   1.145  14.244   7.056
    1AU       S  518   1.544  14.591   7.150
    1AU     LIG  519   1.700  15.002   6.872
    1AU     LIG  520   1.845  15.386   6.697
    1AU     LIG  521   1.679  15.821   6.635
    1AU     LIG  522   1.392  16.217   6.546
    1AU     LIG  523   1.078  16.582   6.409
    1AU     LIG  524   0.771  16.943   6.245
    1AU       S  525   0.887  14.155   6.622
    1AU     LIG  526   1.010  14.466   6.273
    1AU     LIG  527   0.875  14.640   5.849
    1AU     LIG  528   0.617  14.654   5.435
    1AU     LIG  529   0.486  14.935   5.071
    1AU     LIG  530   0.176  15.219   4.837
    1AU     LIG  531  44.863  15.573   4.810
    1AU    AUSL  532   1.468  12.862   7.120
    1AU    AUSL  533   1.106  12.887   7.262
    1AU     AUL  534   1.306  12.684   6.959
    1AU       S  535   0.795  12.625   6.976
    1AU     LIG  536   0.423  12.362   7.110
    1AU     LIG  537  44.979  12.221   7.248
    1AU     LIG  538  44.573  12.102   7.005
    1AU     LIG  539  44.366  11.774   6.697
    1AU     LIG  540  44.405  11.343   6.551
    1AU     LIG  541  44.153  11.150   6.206
    1AU       S  542   1.257  12.372   7.329
    1AU     LIG  543   1.136  12.130   6.922
    1AU     LIG  544   1.196  11.696   6.822
    1AU     LIG  545   1.246  11.270   6.677
    1AU     LIG  546   1.401  11.056   6.288
    1AU     LIG  547   1.431  10.856   5.864
    1AU     LIG  548   1.665  10.541   5.639
    1AU    AUSL  549   1.691  12.763   7.349
    1AU    AUSL  550   1.732  12.982   6.965
    1AU     AUL  551   1.731  12.608   7.069
    1AU       S  552   1.406  12.289   7.323
    1AU     LIG  553   1.534  11.856   7.192
    1AU     LIG  554   1.411  11.414   7.193
    1AU     LIG  555   1.582  11.021   6.987
    1AU     LIG  556   1.809  10.596   6.864
    1AU     LIG  557   1.883  10.090   6.869
    1AU     LIG  558   2.038   9.636   6.788
    1AU       S  559   1.955  12.757   6.648
    1AU     LIG  560   1.885  12.354   6.441
    1AU     LIG  561   2.066  11.959   6.282
    1AU     LIG  562   2.361  11.646   6.099
    1AU     LIG  563   2.654  11.444   5.786
    1AU     LIG  564   2.646  11.115   5.446
    1AU     LIG  565   2.825  10.936   5.040
    2AU     AUC  566  44.171  36.849   7.498
    2AU     AUC  567  44.419  36.846   7.340
    2AU     AUC  568  44.424  36.843   7.649
    2AU     AUC  569  43.920  36.855   7.345
    2AU     AUC  570  43.922  36.858   7.654
    2AU     AUC  571  44.023  37.103   7.500
    2AU     AUC  572  44.330  37.097   7.498
    2AU     AUC  573  44.008  36.600   7.501
    2AU     AUC  574  44.322  36.596   7.495
    2AU     AUC  575  44.171  36.694   7.749
    2AU     AUC  576  44.178  37.003   7.751
    2AU     AUC  577  44.165  36.695   7.245
    2AU     AUC  578  44.171  37.006   7.248
    2AU     AUC  579  44.658  36.843   7.184
    2AU     AUC  580  44.669  36.835   7.489
    2AU     AUC  581  44.669  36.834   7.793
    2AU     AUC  582  43.677  36.858   7.196
    2AU     AUC  583  43.673  36.868   7.496
    2AU     AUC  584  43.678  36.870   7.802
    2AU     AUC  585  43.880  37.350   7.502
    2AU     AUC  586  44.184  37.347   7.502
    2AU     AUC  587  44.484  37.336   7.498
    2AU     AUC  588  43.855  36.363   7.506
    2AU     AUC  589  44.157  36.352   7.510
    2AU     AUC  590  44.466  36.352   7.493
    2AU     AUC  591  44.167  36.544   7.989
    2AU     AUC  592  44.174  36.842   7.996
    2AU     AUC  593  44.186  37.147   7.995
    2AU     AUC  594  44.159  36.545   7.005
    2AU     AUC  595  44.165  36.846   6.999
    2AU     AUC  596  44.171  37.155   7.005
    2AU     AUC  597  44.420  36.684   7.898
    2AU     AUC  598  44.431  36.989   7.901
    2AU     AUC  599  44.409  36.694   7.090
    2AU     AUC  600  44.419  37.002   7.094
    2AU     AUC  601  43.916  36.705   7.900
    2AU     AUC  602  43.930  37.009   7.905
    2AU     AUC  603  43.917  36.696   7.098
    2AU     AUC  604  43.922  37.006   7.095
    2AU     AUC  605  44.577  37.091   7.342
    2AU     AUC  606  44.584  37.084   7.648
    2AU     AUC  607  43.774  37.109   7.343
    2AU     AUC  608  43.778  37.113   7.653
    2AU     AUC  609  44.561  36.588   7.331
    2AU     AUC  610  44.571  36.588   7.641
    2AU     AUC  611  43.764  36.606   7.348
    2AU     AUC  612  43.758  36.616   7.648
    2AU     AUC  613  44.034  37.256   7.754
    2AU     AUC  614  44.341  37.246   7.751
    2AU     AUC  615  44.003  36.453   7.747
    2AU     AUC  616  44.321  36.444   7.748
    2AU     AUC  617  44.025  37.257   7.247
    2AU     AUC  618  44.331  37.252   7.249
    2AU     AUC  619  44.007  36.445   7.259
    2AU     AUC  620  44.312  36.440   7.249
    2AU    AUSL  621  44.594  36.803   8.081
    2AU    AUSL  622  44.456  36.414   8.038
    2AU     AUL  623  44.592  36.511   8.360
    2AU       S  624  44.840  36.081   8.250
    2AU     LIG  625  44.856  35.698   8.537
    2AU     LIG  626  44.868  35.243   8.722
    2AU     LIG  627   0.025  34.921   9.024
    2AU     LIG  628   0.357  34.765   9.274
    2AU     LIG  629   0.551  34.826   9.707
    2AU     LIG  630   0.526  34.640  10.155
    2AU       S  631  44.734  36.971   8.644
    2AU     LIG  632  44.997  36.858   9.036
    2AU     LIG  633   0.130  36.486   9.342
    2AU     LIG  634   0.384  36.252   9.701
    2AU     LIG  635   0.757  36.162  10.025
    2AU     LIG  636   1.037  36.270  10.409
    2AU     LIG  637   1.225  36.429  10.817
    2AU    AUSL  638  44.308  36.672   8.206
    2AU    AUSL  639  44.043  36.987   8.207
    2AU     AUL  640  44.142  36.732   8.503
    2AU       S  641  44.558  36.816   8.755
    2AU     LIG  642  44.697  36.434   9.026
    2AU     LIG  643  44.760  36.110   9.382
    2AU     LIG  644  44.727  35.892   9.813
    2AU     LIG  645  44.778  35.858  10.290
    2AU     LIG  646  44.957  35.841  10.728
    2AU     LIG  647   0.284  35.829  11.076
    2AU       S  648  43.704  37.013   8.659
    2AU     LIG  649  43.577  37.006   9.116
    2AU     LIG  650  43.535  36.731   9.509
    2AU     LIG  651  43.437  36.583   9.948
    2AU     LIG  652  43.399  36.762  10.399
    2AU     LIG  653  43.422  37.005  10.825
    2AU     LIG  654  43.466  37.183  11.277
    2AU    AUSL  655  44.374  37.005   8.209
    2AU    AUSL  656  44.736  37.086   7.953
    2AU     AUL  657  44.823  36.791   8.200
    2AU       S  658  44.480  37.165   8.601
    2AU     LIG  659  44.631  37.432   8.968
    2AU     LIG  660  44.723  37.642   9.399
    2AU     LIG  661  44.684  37.705   9.890
    2AU     LIG  662  44.748  37.719  10.377
    2AU     LIG  663  44.919  37.793  10.816
    2AU     LIG  664   0.288  37.727  11.109
    2AU       S  665   0.122  37.198   8.147
    2AU     LIG  666   0.441  37.137   8.435
    2AU     LIG  667   0.597  37.330   8.810
    2AU     LIG  668   0.895  37.591   9.049
    2AU     LIG  669   1.150  37.883   9.320
    2AU     LIG  670   1.547  37.886   9.592
    2AU     LIG  671   1.903  38.059   9.859
    2AU    AUSL  672  44.603  36.896   6.896
    2AU    AUSL  673  44.455  37.253   6.942
    2AU     AUL  674  44.536  37.184   6.594
    2AU       S  675  44.709  36.741   6.367
    2AU     LIG  676  44.889  36.390   6.117
    2AU     LIG  677   0.068  36.293   5.689
    2AU     LIG  678   0.248  36.343   5.251
    2AU     LIG  679   0.630  36.262   4.974
    2AU     LIG  680   0.986  36.268   4.653
    2AU     LIG  681   1.150  36.457   4.250
    2AU       S  682  44.938  37.464   6.706
    2AU     LIG  683   0.221  37.586   6.363
    2AU     LIG  684   0.455  37.807   6.021
    2AU     LIG  685   0.562  37.937   5.579
    2AU     LIG  686   0.665  38.200   5.197
    2AU     LIG  687   0.867  38.546   4.951
    2AU     LIG  688   0.930  38.936   4.699
    2AU    AUSL  689  44.367  36.675   6.795
    2AU    AUSL  690  44.652  36.580   7.022
    2AU     AUL  691  44.859  36.720   6.837
    2AU       S  692  44.823  36.254   6.635
    2AU     LIG  693   0.023  35.915   6.364
    2AU     LIG  694   0.168  35.452   6.290
    2AU     LIG  695   0.464  35.155   6.055
    2AU     LIG  696   0.809  35.101   5.728
    2AU     LIG  697   1.157  35.154   5.404
    2AU     LIG  698   1.526  35.081   5.104
    2AU       S  699  44.458  36.530   6.427
    2AU     LIG  700  44.421  36.198   6.144
    2AU     LIG  701  44.565  36.169   5.705
    2AU     LIG  702  44.758  36.170   5.263
    2AU     LIG  703  44.946  36.135   4.825
    2AU     LIG  704   0.125  35.941   4.414
    2AU     LIG  705   0.179  35.978   3.936
    2AU    AUSL  706  44.297  36.997   6.806
    2AU    AUSL  707  44.023  36.682   6.777
    2AU     AUL  708  44.189  37.038   6.544
    2AU       S  709  43.981  36.460   6.394
    2AU     LIG  710  43.922  36.201   6.024
    2AU     LIG  711  43.674  36.087   5.648
    2AU     LIG  712  43.463  36.034   5.226
    2AU     LIG  713  43.240  35.904   4.820
    2AU     LIG  714  43.236  35.750   4.360
    2AU     LIG  715  43.202  35.832   3.889
    2AU       S  716  44.478  36.674   6.404
    2AU     LIG  717  44.484  36.652   5.913
    2AU     LIG  718  44.726  36.631   5.495
    2AU     LIG  719  44.862  36.635   5.029
    2AU     LIG  720  44.844  36.849   4.589
    2AU     LIG  721  44.916  37.185   4.249
    2AU     LIG  722   0.137  37.447   3.922
    2AU    AUSL  723  43.740  36.897   8.106
    2AU    AUSL  724  43.908  37.267   8.057
    2AU     AUL  725  44.028  37.234   8.356
    2AU       S  726  43.498  36.932   8.480
    2AU     LIG  727  43.202  36.787   8.844
    2AU     LIG  728  43.123  36.547   9.257
    2AU     LIG  729  43.030  36.369   9.699
    2AU     LIG  730  42.712  36.317  10.073
    2AU     LIG  731  42.346  36.453  10.369
    2AU     LIG  732  42.171  36.493  10.817
    2AU       S  733  43.564  37.411   8.385
    2AU     LIG  734  43.584  37.493   8.848
    2AU     LIG  735  43.509  37.843   9.161
    2AU     LIG  736  43.242  38.145   9.420
    2AU     LIG  737  42.985  38.177   9.831
    2AU     LIG  738  42.749  38.394  10.192
    2AU     LIG  739  42.647  38.784  10.471
    2AU    AUSL  740  43.972  36.659   8.194
    2AU    AUSL  741  43.629  36.618   7.943
    2AU     AUL  742  43.642  36.499   8.251
    2AU       S  743  43.334  36.093   8.071
    2AU     LIG  744  42.919  35.935   8.157
    2AU     LIG  745  42.528  35.761   8.344
    2AU     LIG  746  42.226  35.501   8.591
    2AU     LIG  747  42.021  35.207   8.895
    2AU     LIG  748  41.711  35.119   9.237
    2AU     LIG  749  41.394  35.262   9.566
    2AU       S  750  43.672  36.764   8.669
    2AU     LIG  751  43.595  36.483   9.047
    2AU     LIG  752  43.488  36.221   9.446
    2AU     LIG  753  43.419  36.045   9.886
    2AU     LIG  754  43.399  35.790  10.300
    2AU     LIG  755  43.232  35.702  10.749
    2AU     LIG  756  43.105  35.877  11.179
    2AU    AUSL  757  43.732  36.809   6.915
    2AU    AUSL  758  43.886  36.428   6.951
    2AU     AUL  759  43.608  36.544   6.748
    2AU       S  760  43.740  36.723   6.302
    2AU     LIG  761  43.491  36.485   5.957
    2AU     LIG  762  43.223  36.348   5.569
    2AU     LIG  763  42.983  36.243   5.163
    2AU     LIG  764  42.588  36.226   4.876
    2AU     LIG  765  42.242  36.384   4.585
    2AU     LIG  766  42.133  36.588   4.156
    2AU       S  767  43.504  36.036   6.825
    2AU     LIG  768  43.284  35.625   6.779
    2AU     LIG  769  42.884  35.562   6.508
    2AU     LIG  770  42.602  35.359   6.192
    2AU     LIG  771  42.404  35.019   5.911
    2AU     LIG  772  42.332  34.927   5.437
    2AU     LIG  773  42.164  34.917   4.990
    2AU    AUSL  774  43.963  37.014   6.806
    2AU    AUSL  775  43.647  37.119   7.031
    2AU     AUL  776  43.550  36.965   6.705
    2AU       S  777  43.439  37.446   6.673
    2AU     LIG  778  43.220  37.540   6.236
    2AU     LIG  779  42.954  37.661   5.830
    2AU     LIG  780  42.650  37.758   5.452
    2AU     LIG  781  42.265  37.960   5.211
    2AU     LIG  782  41.844  38.176   5.077
    2AU     LIG  783  41.457  38.435   4.942
    2AU       S  784  43.948  36.668   6.363
    2AU     LIG  785  43.963  36.678   5.857
    2AU     LIG  786  43.683  36.570   5.469
    2AU     LIG  787  43.430  36.549   5.052
    2AU     LIG  788  43.406  36.787   4.606
    2AU     LIG  789  43.398  37.066   4.184
    2AU     LIG  790  43.302  37.306   3.762
    2AU    AUSL  791  44.775  37.259   7.463
    2AU    AUSL  792  44.740  37.135   7.098
    2AU     AUL  793  44.843  37.574   7.334
    2AU       S  794   0.078  37.201   6.829
    2AU     LIG  795   0.459  37.180   6.565
    2AU     LIG  796   0.685  37.371   6.192
    2AU     LIG  797   0.921  37.634   5.863
    2AU     LIG  798   1.260  37.681   5.519
    2AU     LIG  799   1.663  37.802   5.272
    2AU     LIG  800   2.082  38.009   5.172
    2AU       S  801   0.308  37.347   7.390
    2AU     LIG  802   0.799  37.409   7.469
    2AU     LIG  803   1.298  37.454   7.510
    2AU     LIG  804   1.779  37.536   7.529
    2AU     LIG  805   2.094  37.918   7.560
    2AU     LIG  806   2.269  38.387   7.617
    2AU     LIG  807   2.512  38.730   7.860
    2AU    AUSL  808  44.892  36.961   7.332
    2AU    AUSL  809  44.867  36.682   7.623
    2AU     AUL  810   0.182  36.683   7.392
    2AU       S  811   0.292  37.157   7.277
    2AU     LIG  812   0.682  37.146   7.050
    2AU     LIG  813   1.132  37.073   7.202
    2AU     LIG  814   1.617  37.104   7.271
    2AU     LIG  815   2.027  37.317   7.111
    2AU     LIG  816   2.471  37.375   6.929
    2AU     LIG  817   2.915  37.434   6.767
    2AU       S  818   0.250  36.211   7.665
    2AU     LIG  819   0.634  36.013   7.863
    2AU     LIG  820   1.076  35.830   7.863
    2AU     LIG  821   1.530  35.705   7.805
    2AU     LIG  822   1.972  35.577   7.862
    2AU     LIG  823   2.390  35.752   8.026
    2AU     LIG  824   2.826  35.758   8.234
    2AU    AUSL  825  44.882  37.013   7.668
    2AU    AUSL  826  44.631  37.343   7.760
    2AU     AUL  827  44.918  37.423   7.719
    2AU       S  828  44.974  37.363   8.199
    2AU     LIG  829   0.312  37.639   8.386
    2AU     LIG  830   0.631  37.832   8.669
    2AU     LIG  831   0.957  38.090   8.882
    2AU     LIG  832   1.133  38.461   9.102
    2AU     LIG  833   1.338  38.894   9.132
    2AU     LIG  834   1.625  39.278   9.139
    2AU       S  835   0.331  37.132   7.637
    2AU     LIG  836   0.757  37.015   7.790
    2AU     LIG  837   1.228  36.991   7.714
    2AU     LIG  838   1.693  37.074   7.793
    2AU     LIG  839   2.116  37.077   8.045
    2AU     LIG  840   2.542  37.231   8.260
    2AU     LIG  841   3.006  37.374   8.257
    2AU    AUSL  842  43.586  37.316   7.523
    2AU    AUSL  843  43.621  37.142   7.902
    2AU     AUL  844  43.493  37.577   7.752
    2AU       S  845  43.321  37.263   8.172
    2AU     LIG  846  43.158  37.286   8.647
    2AU     LIG  847  43.078  37.599   9.014
    2AU     LIG  848  42.841  37.829   9.379
    2AU     LIG  849  42.520  37.986   9.712
    2AU     LIG  850  42.178  38.214   9.948
    2AU     LIG  851  41.757  38.389  10.100
    2AU       S  852  43.053  37.374   7.635
    2AU     LIG  853  42.740  37.730   7.547
    2AU     LIG  854  42.516  38.155   7.451
    2AU     LIG  855  42.269  38.541   7.299
    2AU     LIG  856  41.846  38.739   7.264
    2AU     LIG  857  41.510  38.775   7.581
    2AU     LIG  858  41.199  38.714   7.934
    2AU    AUSL  859  43.501  37.059   7.321
    2AU    AUSL  860  43.732  37.387   7.228
    2AU     AUL  861  43.377  37.373   7.209
    2AU       S  862  42.940  37.137   7.495
    2AU     LIG  863  42.568  37.307   7.303
    2AU     LIG  864  42.215  37.477   7.032
    2AU     LIG  865  41.790  37.643   6.878
    2AU     LIG  866  41.353  37.836   6.909
    2AU     LIG  867  40.892  37.833   6.834
    2AU     LIG  868  40.494  37.748   6.596
    2AU       S  869  43.478  37.668   6.800
    2AU     LIG  870  43.300  37.982   6.492
    2AU     LIG  871  43.301  38.340   6.173
    2AU     LIG  872  43.231  38.803   6.035
    2AU     LIG  873  42.979  39.218   5.997
    2AU     LIG  874  42.534  39.414   5.911
    2AU     LIG  875  42.044  39.483   5.839
    2AU    AUSL  876  43.454  37.023   7.640
    2AU    AUSL  877  43.438  36.734   7.335
    2AU     AUL  878  43.269  37.003   7.167
    2AU       S  879  42.997  36.541   7.401
    2AU     LIG  880  42.617  36.650   7.749
    2AU     LIG  881  42.137  36.617   7.835
    2AU     LIG  882  41.687  36.584   7.678
    2AU     LIG  883  41.352  36.584   7.315
    2AU     LIG  884  41.058  36.226   7.221
    2AU     LIG  885  40.737  35.965   7.002
    2AU       S  886  43.073  37.052   7.792
    2AU     LIG  887  42.590  37.165   7.851
    2AU     LIG  888  42.186  37.246   8.102
    2AU     LIG  889  41.752  37.468   8.165
    2AU     LIG  890  41.386  37.807   8.167
    2AU     LIG  891  40.937  37.886   8.331
    2AU     LIG  892  40.515  38.107   8.239
    2AU    AUSL  893  44.773  36.388   7.500
    2AU    AUSL  894  44.728  36.559   7.898
    2AU     AUL  895   0.073  36.648   7.808
    2AU       S  896  44.993  36.012   7.474
    2AU     LIG  897   0.262  35.696   7.705
    2AU     LIG  898   0.710  35.529   7.653
    2AU     LIG  899   1.179  35.380   7.599
    2AU     LIG  900   1.653  35.232   7.590
    2AU     LIG  901   1.946  34.863   7.700
    2AU     LIG  902   2.322  34.606   7.517
    2AU       S  903  44.962  36.238   8.099
    2AU     LIG  904   0.285  35.848   8.231
    2AU     LIG  905   0.288  35.416   8.463
    2AU     LIG  906   0.441  35.163   8.855
    2AU     LIG  907   0.742  35.106   9.244
    2AU     LIG  908   1.145  35.036   9.496
    2AU     LIG  909   1.563  34.957   9.721
    2AU    AUSL  910  44.834  36.640   7.294
    2AU    AUSL  911  44.600  36.305   7.216
    2AU     AUL  912  44.970  36.431   7.114
    2AU       S  913   0.105  36.179   7.513
    2AU     LIG  914   0.548  35.951   7.356
    2AU     LIG  915   1.033  35.813   7.346
    2AU     LIG  916   1.507  35.649   7.291
    2AU     LIG  917   1.957  35.460   7.220
    2AU     LIG  918   2.436  35.420   7.057
    2AU     LIG  919   2.909  35.488   6.921
    2AU       S  920  44.837  36.018   6.849
    2AU     LIG  921  44.868  35.547   6.711
    2AU     LIG  922  44.902  35.069   6.604
    2AU     LIG  923   0.112  34.686   6.435
    2AU     LIG  924   0.366  34.380   6.185
    2AU     LIG  925   0.671  34.022   6.080
    2AU     LIG  926   1.030  33.719   6.036
    2AU    AUSL  927  43.550  36.447   7.455
    2AU    AUSL  928  43.626  36.568   7.115
    2AU     AUL  929  43.343  36.653   7.029
    2AU       S  930  43.318  36.153   6.976
    2AU     LIG  931  42.941  35.987   6.787
    2AU     LIG  932  42.506  35.811   6.795
    2AU     LIG  933  42.255  35.659   6.436
    2AU     LIG  934  42.106  35.429   6.049
    2AU     LIG  935  41.945  35.173   5.681
    2AU     LIG  936  41.731  35.057   5.263
    2AU       S  937  43.161  36.343   7.411
    2AU     LIG  938  42.842  36.160   7.691
    2AU     LIG  939  42.382  36.204   7.614
    2AU     LIG  940  41.941  36.126   7.739
    2AU     LIG  941  41.611  35.788   7.609
    2AU     LIG  942  41.159  35.597   7.563
    2AU     LIG  943  40.789  35.259   7.604
    2AU    AUSL  944  43.481  36.702   7.662
    2AU    AUSL  945  43.682  36.330   7.744
    2AU     AUL  946  43.340  36.529   7.857
    2AU       S  947  43.413  35.997   7.715
    2AU     LIG  948  43.088  35.694   7.728
    2AU     LIG  949  42.705  35.538   7.903
    2AU     LIG  950  42.488  35.261   8.205
    2AU     LIG  951  42.271  34.982   8.499
    2AU     LIG  952  42.040  34.674   8.744
    2AU     LIG  953  41.717  34.400   8.942
    2AU       S  954  43.034  36.638   7.479
    2AU     LIG  955  42.532  36.627   7.260
    2AU     LIG  956  42.067  36.527   7.321
    2AU     LIG  957  41.701  36.224   7.311
    2AU     LIG  958  41.326  36.200   7.655
    2AU     LIG  959  40.871  36.102   7.812
    2AU     LIG  960  40.491  35.858   7.956
    2AU    AUSL  961  44.184  37.446   7.946
    2AU    AUSL  962  43.788  37.400   7.777
    2AU     AUL  963  43.889  37.652   8.008
    2AU       S  964  43.488  37.488   8.249
    2AU     LIG  965  43.271  37.793   8.565
    2AU     LIG  966  43.174  38.128   8.893
    2AU     LIG  967  43.216  38.583   9.053
    2AU     LIG  968  42.989  38.991   9.152
    2AU     LIG  969  42.582  39.243   9.214
    2AU     LIG  970  42.184  39.506   9.258
    2AU       S  971  44.249  37.999   8.051
    2AU     LIG  972  44.392  38.316   8.371
    2AU     LIG  973  44.362  38.733   8.601
    2AU     LIG  974  44.426  39.129   8.832
    2AU     LIG  975  44.700  39.304   9.193
    2AU     LIG  976  44.659  39.543   9.621
    2AU     LIG  977  44.310  39.778   9.865
    2AU    AUSL  978  44.046  37.565   7.654
    2AU    AUSL  979  44.332  37.582   7.352
    2AU     AUL  980  43.863  37.795   7.456
    2AU       S  981  44.161  38.057   7.773
    2AU     LIG  982  44.169  38.525   7.952
    2AU     LIG  983  44.166  38.956   8.185
    2AU     LIG  984  44.288  39.362   8.380
    2AU     LIG  985  44.066  39.666   8.655
    2AU     LIG  986  43.676  39.940   8.578
    2AU     LIG  987  43.458  40.364   8.675
    2AU       S  988  44.472  37.994   7.279
    2AU     LIG  989  44.720  38.290   7.056
    2AU     LIG  990  44.721  38.708   6.867
    2AU     LIG  991  44.722  39.132   6.664
    2AU     LIG  992  44.849  39.600   6.636
    2AU     LIG  993   0.063  40.048   6.662
    2AU     LIG  994   0.186  40.524   6.670
    2AU    AUSL  995  44.382  37.542   7.677
    2AU    AUSL  996  44.453  37.267   8.035
    2AU     AUL  997  44.538  37.595   8.013
    2AU       S  998  44.833  37.310   8.306
    2AU     LIG  999   0.069  37.349   8.723
    2AU     LIG 1000   0.270  37.675   9.009
    2AU     LIG 1001   0.592  37.965   9.223
    2AU     LIG 1002   0.804  38.303   9.491
    2AU     LIG 1003   0.734  38.627   9.856
    2AU     LIG 1004   0.749  39.021  10.141
    2AU       S 1005  44.408  37.999   7.754
    2AU     LIG 1006  44.647  38.342   7.914
    2AU     LIG 1007  44.639  38.735   8.163
    2AU     LIG 1008  44.743  39.124   8.415
    2AU     LIG 1009  44.950  39.568   8.503
    2AU     LIG 1010   0.233  39.986   8.581
    2AU     LIG 1011   0.462  40.390   8.776
    2AU    AUSL 1012  44.171  36.258   7.968
    2AU    AUSL 1013  44.586  36.282   7.752
    2AU     AUL 1014  44.409  36.033   8.001
    2AU       S 1015  44.017  35.719   8.070
    2AU     LIG 1016  43.790  35.337   8.178
    2AU     LIG 1017  43.765  34.905   8.278
    2AU     LIG 1018  43.917  34.484   8.382
    2AU     LIG 1019  43.810  34.083   8.612
    2AU     LIG 1020  43.789  33.825   9.014
    2AU     LIG 1021  43.847  33.469   9.330
    2AU       S 1022  44.905  36.004   7.953
    2AU     LIG 1023  44.919  35.521   8.061
    2AU     LIG 1024  44.918  35.064   8.245
    2AU     LIG 1025   0.115  34.754   8.551
    2AU     LIG 1026   0.373  34.462   8.836
    2AU     LIG 1027   0.732  34.139   8.901
    2AU     LIG 1028   1.082  33.834   9.046
    2AU    AUSL 1029  43.968  36.155   7.712
    2AU    AUSL 1030  43.890  36.421   7.981
    2AU     AUL 1031  43.871  36.196   8.138
    2AU       S 1032  43.829  35.741   7.851
    2AU     LIG 1033  43.563  35.433   7.730
    2AU     LIG 1034  43.638  34.997   7.745
    2AU     LIG 1035  43.674  34.554   7.912
    2AU     LIG 1036  43.514  34.208   8.194
    2AU     LIG 1037  43.455  33.766   8.362
    2AU     LIG 1038  43.492  33.287   8.347
    2AU       S 1039  43.466  36.034   7.907
    2AU     LIG 1040  43.343  35.612   8.159
    2AU     LIG 1041  42.949  35.448   8.374
    2AU     LIG 1042  42.661  35.247   8.708
    2AU     LIG 1043  42.444  34.943   9.024
    2AU     LIG 1044  42.390  34.729   9.464
    2AU     LIG 1045  42.443  34.531   9.907
    2AU    AUSL 1046  44.290  36.171   7.667
    2AU    AUSL 1047  44.004  36.113   7.381
    2AU     AUL 1048  44.361  35.910   7.598
    2AU       S 1049  43.741  35.747   7.374
    2AU     LIG 1050  43.454  35.414   7.242
    2AU     LIG 1051  43.517  34.951   7.236
    2AU     LIG 1052  43.608  34.560   6.990
    2AU     LIG 1053  43.519  34.142   6.764
    2AU     LIG 1054  43.455  33.674   6.625
    2AU     LIG 1055  43.540  33.232   6.425
    2AU       S 1056  43.959  35.768   7.816
    2AU     LIG 1057  44.081  35.301   7.759
    2AU     LIG 1058  44.107  34.852   7.896
    2AU     LIG 1059  44.273  34.421   8.018
    2AU     LIG 1060  44.448  34.042   8.235
    2AU     LIG 1061  44.452  33.572   8.343
    2AU     LIG 1062  44.591  33.169   8.556
    2AU    AUSL 1063  44.207  37.452   7.058
    2AU    AUSL 1064  44.573  37.387   7.229
    2AU     AUL 1065  44.508  37.595   6.958
    2AU       S 1066  44.259  38.022   6.979
    2AU     LIG 1067  44.371  38.370   6.675
    2AU     LIG 1068  44.460  38.747   6.411
    2AU     LIG 1069  44.479  38.933   5.988
    2AU     LIG 1070  44.371  39.230   5.650
    2AU     LIG 1071  44.305  39.681   5.531
    2AU     LIG 1072  44.362  40.117   5.365
    2AU       S 1073  44.999  37.363   6.924
    2AU     LIG 1074   0.421  37.586   6.869
    2AU     LIG 1075   0.681  37.778   6.509
    2AU     LIG 1076   0.893  38.067   6.182
    2AU     LIG 1077   1.163  38.475   6.101
    2AU     LIG 1078   1.410  38.907   6.068
    2AU     LIG 1079   1.657  39.339   6.028
    2AU    AUSL 1080  44.015  37.523   7.326
    2AU    AUSL 1081  43.927  37.306   6.957
    2AU     AUL 1082  43.898  37.674   7.059
    2AU       S 1083  44.271  37.992   7.264
    2AU     LIG 1084  44.260  38.507   7.157
    2AU     LIG 1085  44.249  38.924   6.856
    2AU     LIG 1086  44.259  39.356   6.607
    2AU     LIG 1087  43.865  39.670   6.516
    2AU     LIG 1088  43.568  40.066   6.618
    2AU     LIG 1089  43.340  40.509   6.622
    2AU       S 1090  43.738  37.492   6.604
    2AU     LIG 1091  43.680  37.768   6.227
    2AU     LIG 1092  43.396  37.920   5.870
    2AU     LIG 1093  43.142  38.014   5.448
    2AU     LIG 1094  43.014  38.294   5.047
    2AU     LIG 1095  42.888  38.662   4.723
    2AU     LIG 1096  42.603  38.994   4.492
    2AU    AUSL 1097  44.126  36.260   7.110
    2AU    AUSL 1098  43.762  36.290   7.240
    2AU     AUL 1099  43.988  36.095   6.926
    2AU       S 1100  43.456  36.033   7.123
    2AU     LIG 1101  43.100  35.796   7.240
    2AU     LIG 1102  42.829  35.494   7.029
    2AU     LIG 1103  42.503  35.297   6.726
    2AU     LIG 1104  42.236  35.062   6.411
    2AU     LIG 1105  42.027  34.656   6.264
    2AU     LIG 1106  41.892  34.265   6.030
    2AU       S 1107  43.888  35.778   7.283
    2AU     LIG 1108  43.787  35.527   6.886
    2AU     LIG 1109  43.769  35.063   6.799
    2AU     LIG 1110  43.971  34.660   6.630
    2AU     LIG 1111  44.041  34.374   6.250
    2AU     LIG 1112  44.002  34.169   5.814
    2AU     LIG 1113  44.080  33.956   5.393
    2AU    AUSL 1114  44.338  36.146   7.342
    2AU    AUSL 1115  44.389  36.379   6.952
    2AU     AUL 1116  44.378  36.001   7.055
    2AU       S 1117  44.042  35.685   7.304
    2AU     LIG 1118  43.949  35.231   7.279
    2AU     LIG 1119  44.051  34.795   7.152
    2AU     LIG 1120  44.266  34.399   6.994
    2AU     LIG 1121  44.472  33.995   6.830
    2AU     LIG 1122  44.447  33.500   6.855
    2AU     LIG 1123  44.600  33.044   6.841
    2AU       S 1124  44.608  36.127   6.629
    2AU     LIG 1125  44.541  35.745   6.368
    2AU     LIG 1126  44.675  35.316   6.217
    2AU     LIG 1127  44.975  35.000   6.030
    2AU     LIG 1128   0.159  34.697   5.712
    2AU     LIG 1129   0.376  34.559   5.304
    2AU     LIG 1130   0.482  34.523   4.837
    3AU     AUC 1131   5.420  26.579   7.508
    3AU     AUC 1132   5.663  26.580   7.341
    3AU     AUC 1133   5.678  26.584   7.649
    3AU     AUC 1134   5.161  26.574   7.364
    3AU     AUC 1135   5.178  26.583   7.675
    3AU     AUC 1136   5.265  26.828   7.509
    3AU     AUC 1137   5.572  26.831   7.497
    3AU     AUC 1138   5.267  26.326   7.520
    3AU     AUC 1139   5.578  26.331   7.503
    3AU     AUC 1140   5.435  26.429   7.760
    3AU     AUC 1141   5.432  26.740   7.756
    3AU     AUC 1142   5.411  26.422   7.258
    3AU     AUC 1143   5.407  26.732   7.254
    3AU     AUC 1144   5.897  26.582   7.178
    3AU     AUC 1145   5.918  26.579   7.483
    3AU     AUC 1146   5.929  26.585   7.786
    3AU     AUC 1147   4.913  26.565   7.224
    3AU     AUC 1148   4.921  26.591   7.527
    3AU     AUC 1149   4.942  26.590   7.834
    3AU     AUC 1150   5.116  27.071   7.508
    3AU     AUC 1151   5.419  27.078   7.500
    3AU     AUC 1152   5.720  27.075   7.487
    3AU     AUC 1153   5.120  26.085   7.532
    3AU     AUC 1154   5.418  26.082   7.522
    3AU     AUC 1155   5.727  26.089   7.498
    3AU     AUC 1156   5.446  26.282   8.003
    3AU     AUC 1157   5.443  26.582   8.005
    3AU     AUC 1158   5.444  26.891   7.996
    3AU     AUC 1159   5.403  26.270   7.019
    3AU     AUC 1160   5.399  26.570   7.009
    3AU     AUC 1161   5.395  26.876   7.009
    3AU     AUC 1162   5.689  26.429   7.900
    3AU     AUC 1163   5.689  26.736   7.900
    3AU     AUC 1164   5.650  26.424   7.095
    3AU     AUC 1165   5.649  26.732   7.093
    3AU     AUC 1166   5.185  26.430   7.920
    3AU     AUC 1167   5.191  26.737   7.922
    3AU     AUC 1168   5.158  26.413   7.120
    3AU     AUC 1169   5.152  26.719   7.112
    3AU     AUC 1170   5.815  26.829   7.335
    3AU     AUC 1171   5.831  26.829   7.641
    3AU     AUC 1172   5.010  26.822   7.357
    3AU     AUC 1173   5.027  26.836   7.674
    3AU     AUC 1174   5.812  26.327   7.332
    3AU     AUC 1175   5.831  26.331   7.640
    3AU     AUC 1176   5.013  26.326   7.376
    3AU     AUC 1177   5.020  26.338   7.677
    3AU     AUC 1178   5.279  26.987   7.758
    3AU     AUC 1179   5.587  26.987   7.746
    3AU     AUC 1180   5.275  26.182   7.769
    3AU     AUC 1181   5.589  26.181   7.757
    3AU     AUC 1182   5.259  26.979   7.253
    3AU     AUC 1183   5.562  26.981   7.245
    3AU     AUC 1184   5.258  26.170   7.276
    3AU     AUC 1185   5.564  26.172   7.258
    3AU    AUSL 1186   5.869  26.552   8.073
    3AU    AUSL 1187   5.745  26.158   8.052
    3AU     AUL 1188   6.131  26.350   8.203
    3AU       S 1189   6.048  25.864   8.312
    3AU     LIG 1190   6.116  25.534   8.607
    3AU     LIG 1191   6.142  25.107   8.773
    3AU     LIG 1192   6.261  24.709   8.980
    3AU     LIG 1193   6.338  24.531   9.408
    3AU     LIG 1194   6.461  24.544   9.870
    3AU     LIG 1195   6.601  24.296  10.231
    3AU       S 1196   5.912  26.484   8.664
    3AU     LIG 1197   6.122  26.426   9.071
    3AU     LIG 1198   6.298  26.135   9.400
    3AU     LIG 1199   6.603  25.937   9.714
    3AU     LIG 1200   7.000  26.004   9.984
    3AU     LIG 1201   7.230  26.221  10.342
    3AU     LIG 1202   7.391  26.295  10.775
    3AU    AUSL 1203   5.595  26.410   8.215
    3AU    AUSL 1204   5.298  26.732   8.196
    3AU     AUL 1205   5.381  26.536   8.521
    3AU       S 1206   5.795  26.266   8.602
    3AU     LIG 1207   5.989  25.950   8.915
    3AU     LIG 1208   6.015  25.706   9.343
    3AU     LIG 1209   6.077  25.564   9.815
    3AU     LIG 1210   6.139  25.451  10.295
    3AU     LIG 1211   6.111  25.512  10.775
    3AU     LIG 1212   6.160  25.459  11.241
    3AU       S 1213   4.883  26.760   8.642
    3AU     LIG 1214   4.669  26.737   9.081
    3AU     LIG 1215   4.660  26.512   9.495
    3AU     LIG 1216   4.600  26.449   9.948
    3AU     LIG 1217   4.662  26.680  10.363
    3AU     LIG 1218   4.633  26.941  10.759
    3AU     LIG 1219   4.476  27.219  11.109
    3AU    AUSL 1220   5.635  26.754   8.206
    3AU    AUSL 1221   5.985  26.853   7.943
    3AU     AUL 1222   6.071  26.691   8.242
    3AU       S 1223   5.792  26.809   8.650
    3AU     LIG 1224   5.768  27.269   8.827
    3AU     LIG 1225   5.886  27.515   9.225
    3AU     LIG 1226   5.889  27.545   9.711
    3AU     LIG 1227   6.015  27.517  10.171
    3AU     LIG 1228   5.986  27.460  10.632
    3AU     LIG 1229   6.194  27.512  11.036
    3AU       S 1230   6.349  27.092   8.189
    3AU     LIG 1231   6.679  26.986   8.481
    3AU     LIG 1232   6.885  27.202   8.831
    3AU     LIG 1233   7.178  27.457   9.105
    3AU     LIG 1234   7.444  27.459   9.501
    3AU     LIG 1235   7.819  27.515   9.792
    3AU     LIG 1236   8.242  27.711   9.882
    3AU    AUSL 1237   5.829  26.634   6.891
    3AU    AUSL 1238   5.677  26.979   6.935
    3AU     AUL 1239   5.733  26.912   6.585
    3AU       S 1240   5.947  26.479   6.376
    3AU     LIG 1241   6.232  26.188   6.154
    3AU     LIG 1242   6.421  25.937   5.799
    3AU     LIG 1243   6.561  25.962   5.336
    3AU     LIG 1244   6.843  25.987   4.945
    3AU     LIG 1245   7.141  25.898   4.576
    3AU     LIG 1246   7.439  26.057   4.231
    3AU       S 1247   6.147  27.190   6.669
    3AU     LIG 1248   6.422  27.426   6.367
    3AU     LIG 1249   6.691  27.621   6.028
    3AU     LIG 1250   6.869  27.702   5.592
    3AU     LIG 1251   7.020  27.966   5.233
    3AU     LIG 1252   7.233  28.322   5.005
    3AU     LIG 1253   7.302  28.661   4.688
    3AU    AUSL 1254   5.608  26.397   6.801
    3AU    AUSL 1255   5.894  26.318   7.021
    3AU     AUL 1256   6.102  26.467   6.848
    3AU       S 1257   6.067  26.006   6.628
    3AU     LIG 1258   6.255  25.706   6.308
    3AU     LIG 1259   6.520  25.349   6.188
    3AU     LIG 1260   6.777  25.002   6.022
    3AU     LIG 1261   7.091  24.959   5.672
    3AU     LIG 1262   7.503  24.912   5.455
    3AU     LIG 1263   7.796  24.926   5.083
    3AU       S 1264   5.644  26.240   6.386
    3AU     LIG 1265   5.806  25.891   6.140
    3AU     LIG 1266   5.947  25.760   5.726
    3AU     LIG 1267   6.148  25.658   5.305
    3AU     LIG 1268   6.329  25.516   4.878
    3AU     LIG 1269   6.317  25.492   4.386
    3AU     LIG 1270   6.207  25.473   3.910
    3AU    AUSL 1271   5.511  26.717   6.810
    3AU    AUSL 1272   5.272  26.417   6.789
    3AU     AUL 1273   5.423  26.698   6.532
    3AU       S 1274   5.051  26.396   6.331
    3AU     LIG 1275   5.050  26.133   5.932
    3AU     LIG 1276   4.811  25.866   5.609
    3AU     LIG 1277   4.555  25.695   5.228
    3AU     LIG 1278   4.429  25.488   4.795
    3AU     LIG 1279   4.358  25.467   4.310
    3AU     LIG 1280   4.284  25.521   3.837
    3AU       S 1281   5.768  26.365   6.431
    3AU     LIG 1282   5.814  26.340   5.906
    3AU     LIG 1283   6.089  26.219   5.519
    3AU     LIG 1284   6.246  26.302   5.071
    3AU     LIG 1285   6.231  26.585   4.671
    3AU     LIG 1286   6.266  26.883   4.294
    3AU     LIG 1287   6.368  27.062   3.867
    3AU    AUSL 1288   5.006  26.590   8.135
    3AU    AUSL 1289   5.181  27.025   8.073
    3AU     AUL 1290   5.295  26.885   8.407
    3AU       S 1291   4.709  26.616   8.453
    3AU     LIG 1292   4.414  26.417   8.768
    3AU     LIG 1293   4.319  26.272   9.203
    3AU     LIG 1294   4.233  26.177   9.659
    3AU     LIG 1295   3.845  26.131   9.942
    3AU     LIG 1296   3.553  26.209  10.308
    3AU     LIG 1297   3.223  26.332  10.608
    3AU       S 1298   5.031  27.313   8.419
    3AU     LIG 1299   5.029  27.629   8.766
    3AU     LIG 1300   4.725  27.753   9.088
    3AU     LIG 1301   4.469  27.747   9.493
    3AU     LIG 1302   4.280  27.936   9.893
    3AU     LIG 1303   4.094  28.246  10.221
    3AU     LIG 1304   3.825  28.521  10.525
    3AU    AUSL 1305   5.265  26.395   8.216
    3AU    AUSL 1306   4.880  26.324   7.968
    3AU     AUL 1307   4.982  26.207   8.309
    3AU       S 1308   4.590  25.895   8.172
    3AU     LIG 1309   4.164  25.674   8.158
    3AU     LIG 1310   3.765  25.481   8.343
    3AU     LIG 1311   3.424  25.252   8.582
    3AU     LIG 1312   3.245  24.997   8.928
    3AU     LIG 1313   2.882  24.954   9.231
    3AU     LIG 1314   2.600  25.225   9.517
    3AU       S 1315   4.906  26.515   8.685
    3AU     LIG 1316   4.819  26.237   9.064
    3AU     LIG 1317   4.682  25.990   9.457
    3AU     LIG 1318   4.496  25.730   9.817
    3AU     LIG 1319   4.494  25.431  10.204
    3AU     LIG 1320   4.421  25.423  10.676
    3AU     LIG 1321   4.433  25.447  11.150
    3AU    AUSL 1322   4.974  26.483   6.926
    3AU    AUSL 1323   5.124  26.166   6.982
    3AU     AUL 1324   5.213  26.107   6.699
    3AU       S 1325   4.797  26.370   6.490
    3AU     LIG 1326   4.584  26.131   6.151
    3AU     LIG 1327   4.398  26.152   5.709
    3AU     LIG 1328   4.138  26.001   5.329
    3AU     LIG 1329   3.775  26.014   5.015
    3AU     LIG 1330   3.534  26.054   4.618
    3AU     LIG 1331   3.251  26.246   4.294
    3AU       S 1332   4.727  25.929   6.730
    3AU     LIG 1333   4.371  25.604   6.606
    3AU     LIG 1334   4.090  25.218   6.518
    3AU     LIG 1335   3.821  24.905   6.266
    3AU     LIG 1336   3.648  24.744   5.845
    3AU     LIG 1337   3.835  24.601   5.414
    3AU     LIG 1338   4.013  24.284   5.091
    3AU    AUSL 1339   5.166  26.732   6.827
    3AU    AUSL 1340   4.896  26.811   7.061
    3AU     AUL 1341   4.686  26.662   6.892
    3AU       S 1342   4.757  27.073   6.603
    3AU     LIG 1343   4.602  27.351   6.233
    3AU     LIG 1344   4.388  27.600   5.876
    3AU     LIG 1345   4.087  27.641   5.491
    3AU     LIG 1346   3.661  27.632   5.243
    3AU     LIG 1347   3.253  27.676   4.982
    3AU     LIG 1348   2.949  27.948   4.742
    3AU       S 1349   4.944  26.636   6.430
    3AU     LIG 1350   4.773  26.573   5.955
    3AU     LIG 1351   4.824  26.387   5.505
    3AU     LIG 1352   4.859  26.450   5.012
    3AU     LIG 1353   4.884  26.636   4.545
    3AU     LIG 1354   4.762  26.828   4.104
    3AU     LIG 1355   4.469  26.985   3.747
    3AU    AUSL 1356   6.015  27.003   7.449
    3AU    AUSL 1357   5.972  26.873   7.087
    3AU     AUL 1358   6.057  27.321   7.322
    3AU       S 1359   6.292  26.957   6.815
    3AU     LIG 1360   6.689  27.047   6.618
    3AU     LIG 1361   6.952  27.302   6.328
    3AU     LIG 1362   7.166  27.405   5.903
    3AU     LIG 1363   7.505  27.486   5.563
    3AU     LIG 1364   7.883  27.614   5.294
    3AU     LIG 1365   8.111  27.945   5.048
    3AU       S 1366   6.524  27.100   7.336
    3AU     LIG 1367   6.944  27.246   7.478
    3AU     LIG 1368   7.408  27.154   7.527
    3AU     LIG 1369   7.856  27.332   7.521
    3AU     LIG 1370   8.185  27.703   7.542
    3AU     LIG 1371   8.485  28.092   7.602
    3AU     LIG 1372   8.699  28.494   7.780
    3AU    AUSL 1373   6.134  26.705   7.321
    3AU    AUSL 1374   6.132  26.435   7.611
    3AU     AUL 1375   6.432  26.426   7.370
    3AU       S 1376   6.545  26.898   7.243
    3AU     LIG 1377   7.020  26.844   7.171
    3AU     LIG 1378   7.504  26.756   7.209
    3AU     LIG 1379   7.990  26.660   7.211
    3AU     LIG 1380   8.476  26.640   7.200
    3AU     LIG 1381   8.877  26.893   7.090
    3AU     LIG 1382   9.224  27.258   7.012
    3AU       S 1383   6.506  25.955   7.649
    3AU     LIG 1384   6.828  25.749   7.898
    3AU     LIG 1385   7.278  25.623   7.869
    3AU     LIG 1386   7.718  25.550   7.764
    3AU     LIG 1387   8.142  25.597   7.952
    3AU     LIG 1388   8.593  25.678   7.834
    3AU     LIG 1389   9.015  25.584   7.931
    3AU    AUSL 1390   6.133  26.763   7.659
    3AU    AUSL 1391   5.870  27.094   7.742
    3AU     AUL 1392   6.178  27.153   7.712
    3AU       S 1393   6.180  27.214   8.208
    3AU     LIG 1394   6.515  27.478   8.480
    3AU     LIG 1395   6.836  27.713   8.752
    3AU     LIG 1396   7.097  28.019   9.009
    3AU     LIG 1397   7.402  28.394   8.954
    3AU     LIG 1398   7.612  28.832   8.975
    3AU     LIG 1399   7.749  29.279   9.011
    3AU       S 1400   6.593  26.877   7.592
    3AU     LIG 1401   7.072  26.777   7.680
    3AU     LIG 1402   7.555  26.669   7.717
    3AU     LIG 1403   8.027  26.511   7.701
    3AU     LIG 1404   8.503  26.570   7.751
    3AU     LIG 1405   8.936  26.737   7.866
    3AU     LIG 1406   9.262  27.081   7.988
    3AU    AUSL 1407   4.821  27.046   7.517
    3AU    AUSL 1408   4.897  26.854   7.970
    3AU     AUL 1409   4.684  27.183   7.838
    3AU       S 1410   4.688  27.083   8.333
    3AU     LIG 1411   4.624  27.182   8.793
    3AU     LIG 1412   4.367  27.354   9.153
    3AU     LIG 1413   4.018  27.465   9.472
    3AU     LIG 1414   3.576  27.550   9.658
    3AU     LIG 1415   3.186  27.736   9.889
    3AU     LIG 1416   2.897  27.852  10.258
    3AU       S 1417   4.335  27.234   7.472
    3AU     LIG 1418   4.114  27.648   7.485
    3AU     LIG 1419   3.933  28.077   7.612
    3AU     LIG 1420   3.579  28.281   7.831
    3AU     LIG 1421   3.275  28.598   7.731
    3AU     LIG 1422   2.817  28.673   7.768
    3AU     LIG 1423   2.372  28.741   7.864
    3AU    AUSL 1424   4.712  26.759   7.357
    3AU    AUSL 1425   4.973  27.096   7.232
    3AU     AUL 1426   4.668  27.067   7.143
    3AU       S 1427   4.238  26.891   7.317
    3AU     LIG 1428   3.879  27.159   7.213
    3AU     LIG 1429   3.618  27.349   6.876
    3AU     LIG 1430   3.192  27.311   6.683
    3AU     LIG 1431   2.723  27.407   6.692
    3AU     LIG 1432   2.246  27.470   6.787
    3AU     LIG 1433   1.818  27.609   6.579
    3AU       S 1434   4.748  27.353   6.725
    3AU     LIG 1435   4.627  27.791   6.513
    3AU     LIG 1436   4.670  28.237   6.324
    3AU     LIG 1437   4.447  28.611   6.127
    3AU     LIG 1438   3.999  28.790   6.077
    3AU     LIG 1439   3.575  29.007   6.002
    3AU     LIG 1440   3.274  29.270   5.742
    3AU    AUSL 1441   4.732  26.775   7.697
    3AU    AUSL 1442   4.670  26.433   7.370
    3AU     AUL 1443   4.460  26.620   7.696
    3AU       S 1444   4.217  26.405   7.260
    3AU     LIG 1445   3.876  26.265   7.675
    3AU     LIG 1446   3.424  26.222   7.819
    3AU     LIG 1447   2.969  26.106   7.779
    3AU     LIG 1448   2.645  25.799   7.573
    3AU     LIG 1449   2.229  25.801   7.339
    3AU     LIG 1450   1.833  25.853   7.109
    3AU       S 1451   4.212  27.040   7.680
    3AU     LIG 1452   3.922  27.089   8.044
    3AU     LIG 1453   3.486  27.046   8.232
    3AU     LIG 1454   3.065  27.229   8.233
    3AU     LIG 1455   2.750  27.579   8.167
    3AU     LIG 1456   2.311  27.720   8.114
    3AU     LIG 1457   1.905  27.606   8.312
    3AU    AUSL 1458   6.032  26.134   7.502
    3AU    AUSL 1459   5.989  26.306   7.880
    3AU     AUL 1460   6.326  26.375   7.827
    3AU       S 1461   6.248  25.757   7.481
    3AU     LIG 1462   6.497  25.426   7.687
    3AU     LIG 1463   6.948  25.278   7.669
    3AU     LIG 1464   7.403  25.124   7.643
    3AU     LIG 1465   7.738  24.802   7.488
    3AU     LIG 1466   8.051  24.425   7.428
    3AU     LIG 1467   8.433  24.142   7.363
    3AU       S 1468   6.219  25.893   8.073
    3AU     LIG 1469   6.542  25.690   8.336
    3AU     LIG 1470   6.589  25.304   8.590
    3AU     LIG 1471   6.715  24.940   8.857
    3AU     LIG 1472   7.059  24.848   9.192
    3AU     LIG 1473   7.430  24.881   9.514
    3AU     LIG 1474   7.736  24.889   9.893
    3AU    AUSL 1475   6.081  26.382   7.287
    3AU    AUSL 1476   5.857  26.042   7.221
    3AU     AUL 1477   6.220  26.173   7.111
    3AU       S 1478   6.364  25.922   7.509
    3AU     LIG 1479   6.828  25.695   7.377
    3AU     LIG 1480   7.315  25.548   7.360
    3AU     LIG 1481   7.759  25.315   7.308
    3AU     LIG 1482   8.244  25.421   7.250
    3AU     LIG 1483   8.703  25.288   7.096
    3AU     LIG 1484   9.175  25.153   6.992
    3AU       S 1485   6.087  25.767   6.838
    3AU     LIG 1486   6.271  25.346   6.672
    3AU     LIG 1487   6.423  24.931   6.474
    3AU     LIG 1488   6.586  24.539   6.258
    3AU     LIG 1489   6.733  24.073   6.219
    3AU     LIG 1490   7.092  23.777   6.083
    3AU     LIG 1491   7.556  23.675   5.995
    3AU    AUSL 1492   4.838  26.176   7.507
    3AU    AUSL 1493   4.847  26.278   7.146
    3AU     AUL 1494   4.661  25.990   7.412
    3AU       S 1495   4.583  26.066   6.879
    3AU     LIG 1496   4.134  25.961   6.894
    3AU     LIG 1497   3.845  25.634   6.733
    3AU     LIG 1498   3.589  25.345   6.444
    3AU     LIG 1499   3.328  25.034   6.191
    3AU     LIG 1500   3.093  24.877   5.827
    3AU     LIG 1501   2.924  24.956   5.393
    3AU       S 1502   4.329  26.289   7.227
    3AU     LIG 1503   4.064  25.867   7.397
    3AU     LIG 1504   3.606  25.806   7.545
    3AU     LIG 1505   3.141  25.630   7.625
    3AU     LIG 1506   2.757  25.298   7.739
    3AU     LIG 1507   2.387  24.955   7.839
    3AU     LIG 1508   1.996  24.655   7.919
    3AU    AUSL 1509   4.746  26.440   7.691
    3AU    AUSL 1510   4.958  26.039   7.786
    3AU     AUL 1511   4.570  26.197   7.774
    3AU       S 1512   4.681  25.708   7.873
    3AU     LIG 1513   4.340  25.452   7.719
    3AU     LIG 1514   3.972  25.234   7.925
    3AU     LIG 1515   3.685  24.975   8.226
    3AU     LIG 1516   3.320  24.741   8.470
    3AU     LIG 1517   3.073  24.328   8.550
    3AU     LIG 1518   2.988  23.920   8.791
    3AU       S 1519   4.255  26.324   7.370
    3AU     LIG 1520   3.747  26.213   7.194
    3AU     LIG 1521   3.270  26.140   7.326
    3AU     LIG 1522   2.791  26.256   7.335
    3AU     LIG 1523   2.401  26.238   7.643
    3AU     LIG 1524   2.017  25.958   7.783
    3AU     LIG 1525   1.594  25.820   7.976
    3AU    AUSL 1526   5.432  27.196   7.939
    3AU    AUSL 1527   5.022  27.101   7.783
    3AU     AUL 1528   5.046  27.390   7.903
    3AU       S 1529   4.878  27.215   8.332
    3AU     LIG 1530   4.608  27.601   8.488
    3AU     LIG 1531   4.620  28.050   8.661
    3AU     LIG 1532   4.514  28.477   8.846
    3AU     LIG 1533   4.233  28.833   9.003
    3AU     LIG 1534   3.815  29.032   9.088
    3AU     LIG 1535   3.342  28.982   9.173
    3AU       S 1536   5.438  27.603   8.149
    3AU     LIG 1537   5.500  27.766   8.576
    3AU     LIG 1538   5.588  28.195   8.741
    3AU     LIG 1539   5.656  28.478   9.106
    3AU     LIG 1540   5.710  28.827   9.410
    3AU     LIG 1541   5.615  29.197   9.681
    3AU     LIG 1542   5.693  29.624   9.868
    3AU    AUSL 1543   5.273  27.285   7.656
    3AU    AUSL 1544   5.563  27.317   7.337
    3AU     AUL 1545   5.134  27.544   7.478
    3AU       S 1546   5.391  27.761   7.891
    3AU     LIG 1547   5.514  28.109   8.186
    3AU     LIG 1548   5.336  28.510   8.283
    3AU     LIG 1549   5.276  28.963   8.417
    3AU     LIG 1550   4.905  29.265   8.362
    3AU     LIG 1551   4.796  29.723   8.398
    3AU     LIG 1552   4.690  30.189   8.498
    3AU       S 1553   5.663  27.735   7.264
    3AU     LIG 1554   5.887  28.014   6.954
    3AU     LIG 1555   6.064  28.307   6.623
    3AU     LIG 1556   6.286  28.732   6.593
    3AU     LIG 1557   6.304  29.234   6.569
    3AU     LIG 1558   6.295  29.739   6.539
    3AU     LIG 1559   6.259  30.242   6.511
    3AU    AUSL 1560   5.608  27.282   7.658
    3AU    AUSL 1561   5.702  27.026   8.031
    3AU     AUL 1562   5.812  27.371   7.907
    3AU       S 1563   5.972  27.171   8.339
    3AU     LIG 1564   6.243  27.116   8.723
    3AU     LIG 1565   6.451  27.423   9.006
    3AU     LIG 1566   6.749  27.685   9.260
    3AU     LIG 1567   7.106  27.856   9.513
    3AU     LIG 1568   7.178  28.127   9.898
    3AU     LIG 1569   7.244  28.508  10.172
    3AU       S 1570   5.559  27.763   7.752
    3AU     LIG 1571   5.945  28.006   7.856
    3AU     LIG 1572   6.133  28.391   8.034
    3AU     LIG 1573   6.385  28.741   8.223
    3AU     LIG 1574   6.564  29.167   8.274
    3AU     LIG 1575   6.540  29.609   8.454
    3AU     LIG 1576   6.357  30.048   8.564
    3AU    AUSL 1577   5.457  26.001   7.973
    3AU    AUSL 1578   5.850  26.024   7.756
    3AU     AUL 1579   5.679  25.765   7.994
    3AU       S 1580   5.292  25.441   8.073
    3AU     LIG 1581   5.024  25.097   8.221
    3AU     LIG 1582   5.053  24.629   8.215
    3AU     LIG 1583   4.967  24.213   8.421
    3AU     LIG 1584   5.047  23.876   8.749
    3AU     LIG 1585   4.878  23.637   9.137
    3AU     LIG 1586   4.854  23.385   9.548
    3AU       S 1587   6.175  25.729   7.967
    3AU     LIG 1588   6.270  25.291   8.167
    3AU     LIG 1589   6.395  24.862   8.402
    3AU     LIG 1590   6.561  24.463   8.629
    3AU     LIG 1591   6.733  24.000   8.696
    3AU     LIG 1592   7.099  23.667   8.764
    3AU     LIG 1593   7.589  23.629   8.842
    3AU    AUSL 1594   5.245  25.880   7.730
    3AU    AUSL 1595   5.168  26.157   8.008
    3AU     AUL 1596   5.203  25.921   8.161
    3AU       S 1597   5.107  25.489   7.841
    3AU     LIG 1598   4.800  25.202   7.777
    3AU     LIG 1599   4.803  24.756   7.778
    3AU     LIG 1600   4.821  24.289   7.894
    3AU     LIG 1601   4.703  23.870   8.114
    3AU     LIG 1602   4.453  23.444   8.168
    3AU     LIG 1603   4.190  23.030   8.221
    3AU       S 1604   4.760  25.770   8.041
    3AU     LIG 1605   4.561  25.355   8.208
    3AU     LIG 1606   4.172  25.167   8.399
    3AU     LIG 1607   3.853  25.006   8.718
    3AU     LIG 1608   3.693  24.849   9.137
    3AU     LIG 1609   3.663  24.621   9.551
    3AU     LIG 1610   3.604  24.320   9.915
    3AU    AUSL 1611   5.563  25.900   7.670
    3AU    AUSL 1612   5.260  25.842   7.397
    3AU     AUL 1613   5.628  25.638   7.589
    3AU       S 1614   4.957  25.496   7.377
    3AU     LIG 1615   4.688  25.117   7.299
    3AU     LIG 1616   4.754  24.647   7.281
    3AU     LIG 1617   4.829  24.231   7.096
    3AU     LIG 1618   4.840  23.867   6.810
    3AU     LIG 1619   4.821  23.398   6.710
    3AU     LIG 1620   4.706  22.927   6.733
    3AU       S 1621   5.242  25.481   7.829
    3AU     LIG 1622   5.281  24.999   7.796
    3AU     LIG 1623   5.271  24.530   7.749
    3AU     LIG 1624   5.301  24.156   8.040
    3AU     LIG 1625   5.539  23.762   8.120
    3AU     LIG 1626   5.717  23.383   8.326
    3AU     LIG 1627   6.153  23.202   8.353
    3AU    AUSL 1628   5.428  27.178   7.055
    3AU    AUSL 1629   5.801  27.118   7.219
    3AU     AUL 1630   5.744  27.322   6.957
    3AU       S 1631   5.434  27.699   6.904
    3AU     LIG 1632   5.558  27.970   6.550
    3AU     LIG 1633   5.687  28.273   6.229
    3AU     LIG 1634   5.820  28.624   5.980
    3AU     LIG 1635   5.787  28.892   5.593
    3AU     LIG 1636   5.912  29.252   5.311
    3AU     LIG 1637   5.697  29.637   5.119
    3AU       S 1638   6.225  27.117   6.910
    3AU     LIG 1639   6.553  27.457   6.888
    3AU     LIG 1640   6.770  27.741   6.567
    3AU     LIG 1641   6.924  28.051   6.255
    3AU     LIG 1642   7.190  28.444   6.136
    3AU     LIG 1643   7.605  28.677   6.016
    3AU     LIG 1644   7.843  29.091   6.071
    3AU    AUSL 1645   5.244  27.253   7.329
    3AU    AUSL 1646   5.154  27.027   6.962
    3AU     AUL 1647   5.079  27.391   7.089
    3AU       S 1648   5.480  27.721   7.184
    3AU     LIG 1649   5.411  28.177   7.023
    3AU     LIG 1650   5.532  28.471   6.690
    3AU     LIG 1651   5.482  28.939   6.678
    3AU     LIG 1652   5.324  29.403   6.739
    3AU     LIG 1653   5.067  29.775   6.594
    3AU     LIG 1654   4.731  30.038   6.797
    3AU       S 1655   5.032  27.205   6.595
    3AU     LIG 1656   5.064  27.611   6.340
    3AU     LIG 1657   4.829  27.858   6.000
    3AU     LIG 1658   4.640  27.984   5.563
    3AU     LIG 1659   4.550  28.224   5.137
    3AU     LIG 1660   4.295  28.514   4.833
    3AU     LIG 1661   3.994  28.836   4.649
    3AU    AUSL 1662   5.371  25.982   7.115
    3AU    AUSL 1663   5.008  26.010   7.261
    3AU     AUL 1664   5.201  25.810   6.951
    3AU       S 1665   4.690  25.766   6.968
    3AU     LIG 1666   4.341  25.510   7.123
    3AU     LIG 1667   3.977  25.229   7.026
    3AU     LIG 1668   3.679  24.950   6.763
    3AU     LIG 1669   3.355  24.654   6.541
    3AU     LIG 1670   3.102  24.276   6.370
    3AU     LIG 1671   2.898  23.926   6.142
    3AU       S 1672   5.145  25.494   7.318
    3AU     LIG 1673   5.012  25.224   6.926
    3AU     LIG 1674   5.007  24.753   6.845
    3AU     LIG 1675   5.105  24.325   6.667
    3AU     LIG 1676   5.124  23.952   6.378
    3AU     LIG 1677   5.129  23.711   5.966
    3AU     LIG 1678   4.977  23.521   5.550
    3AU    AUSL 1679   5.592  25.884   7.344
    3AU    AUSL 1680   5.635  26.106   6.964
    3AU     AUL 1681   5.635  25.727   7.066
    3AU       S 1682   5.292  25.411   7.315
    3AU     LIG 1683   5.182  24.935   7.312
    3AU     LIG 1684   5.268  24.466   7.208
    3AU     LIG 1685   5.315  24.013   7.012
    3AU     LIG 1686   5.289  23.627   6.750
    3AU     LIG 1687   5.604  23.317   6.643
    3AU     LIG 1688   6.059  23.309   6.735
    3AU       S 1689   5.856  25.892   6.645
    3AU     LIG 1690   5.817  25.485   6.463
    3AU     LIG 1691   6.040  25.176   6.213
    3AU     LIG 1692   6.286  24.862   5.959
    3AU     LIG 1693   6.372  24.557   5.590
    3AU     LIG 1694   6.479  24.296   5.185
    3AU     LIG 1695   6.760  24.051   4.862
    4AU     AUC 1696  30.554  23.646   7.503
    4AU     AUC 1697  30.798  23.646   7.339
    4AU     AUC 1698  30.811  23.650   7.647
    4AU     AUC 1699  30.295  23.640   7.357
    4AU     AUC 1700  30.310  23.650   7.668
    4AU     AUC 1701  30.398  23.894   7.503
    4AU     AUC 1702  30.706  23.898   7.493
    4AU     AUC 1703  30.400  23.392   7.514
    4AU     AUC 1704  30.712  23.397   7.501
    4AU     AUC 1705  30.566  23.496   7.756
    4AU     AUC 1706  30.564  23.806   7.752
    4AU     AUC 1707  30.546  23.489   7.253
    4AU     AUC 1708  30.542  23.798   7.250
    4AU     AUC 1709  31.035  23.646   7.179
    4AU     AUC 1710  31.052  23.644   7.484
    4AU     AUC 1711  31.060  23.651   7.786
    4AU     AUC 1712  30.047  23.631   7.216
    4AU     AUC 1713  30.055  23.654   7.521
    4AU     AUC 1714  30.074  23.657   7.827
    4AU     AUC 1715  30.250  24.137   7.503
    4AU     AUC 1716  30.553  24.144   7.492
    4AU     AUC 1717  30.854  24.141   7.483
    4AU     AUC 1718  30.253  23.151   7.525
    4AU     AUC 1719  30.551  23.149   7.519
    4AU     AUC 1720  30.860  23.155   7.497
    4AU     AUC 1721  30.575  23.349   7.999
    4AU     AUC 1722  30.572  23.649   8.001
    4AU     AUC 1723  30.575  23.958   7.991
    4AU     AUC 1724  30.542  23.337   7.015
    4AU     AUC 1725  30.539  23.637   7.004
    4AU     AUC 1726  30.532  23.942   7.004
    4AU     AUC 1727  30.819  23.496   7.898
    4AU     AUC 1728  30.819  23.802   7.897
    4AU     AUC 1729  30.787  23.490   7.093
    4AU     AUC 1730  30.790  23.797   7.092
    4AU     AUC 1731  30.314  23.498   7.914
    4AU     AUC 1732  30.323  23.804   7.916
    4AU     AUC 1733  30.294  23.482   7.111
    4AU     AUC 1734  30.285  23.787   7.105
    4AU     AUC 1735  30.951  23.894   7.334
    4AU     AUC 1736  30.964  23.895   7.640
    4AU     AUC 1737  30.141  23.887   7.355
    4AU     AUC 1738  30.161  23.904   7.670
    4AU     AUC 1739  30.947  23.392   7.332
    4AU     AUC 1740  30.963  23.397   7.640
    4AU     AUC 1741  30.149  23.392   7.366
    4AU     AUC 1742  30.152  23.403   7.668
    4AU     AUC 1743  30.414  24.055   7.752
    4AU     AUC 1744  30.719  24.054   7.741
    4AU     AUC 1745  30.406  23.249   7.764
    4AU     AUC 1746  30.720  23.248   7.754
    4AU     AUC 1747  30.389  24.043   7.247
    4AU     AUC 1748  30.697  24.046   7.239
    4AU     AUC 1749  30.393  23.237   7.270
    4AU     AUC 1750  30.698  23.237   7.256
    4AU    AUSL 1751  30.996  23.620   8.073
    4AU    AUSL 1752  30.874  23.226   8.052
    4AU     AUL 1753  31.274  23.429   8.193
    4AU       S 1754  31.150  22.951   8.333
    4AU     LIG 1755  31.221  22.536   8.538
    4AU     LIG 1756  31.284  22.151   8.812
    4AU     LIG 1757  31.444  21.808   9.096
    4AU     LIG 1758  31.378  21.571   9.508
    4AU     LIG 1759  31.555  21.354   9.890
    4AU     LIG 1760  31.680  21.057  10.225
    4AU       S 1761  31.043  23.526   8.664
    4AU     LIG 1762  31.269  23.425   9.063
    4AU     LIG 1763  31.473  23.137   9.391
    4AU     LIG 1764  31.768  22.955   9.733
    4AU     LIG 1765  32.135  23.029  10.043
    4AU     LIG 1766  32.417  23.346  10.276
    4AU     LIG 1767  32.431  23.636  10.653
    4AU    AUSL 1768  30.721  23.477   8.213
    4AU    AUSL 1769  30.425  23.797   8.191
    4AU     AUL 1770  30.509  23.608   8.514
    4AU       S 1771  30.918  23.332   8.593
    4AU     LIG 1772  31.094  22.980   8.864
    4AU     LIG 1773  31.084  22.798   9.310
    4AU     LIG 1774  31.095  22.627   9.765
    4AU     LIG 1775  31.324  22.488  10.160
    4AU     LIG 1776  31.308  22.583  10.619
    4AU     LIG 1777  31.328  22.575  11.084
    4AU       S 1778  30.013  23.841   8.622
    4AU     LIG 1779  29.885  23.807   9.095
    4AU     LIG 1780  29.907  23.533   9.491
    4AU     LIG 1781  29.801  23.428   9.938
    4AU     LIG 1782  29.763  23.671  10.357
    4AU     LIG 1783  29.663  23.983  10.716
    4AU     LIG 1784  29.442  24.228  11.067
    4AU    AUSL 1785  30.761  23.820   8.206
    4AU    AUSL 1786  31.116  23.919   7.942
    4AU     AUL 1787  31.183  23.760   8.252
    4AU       S 1788  30.920  23.866   8.665
    4AU     LIG 1789  30.999  24.238   8.958
    4AU     LIG 1790  31.206  24.395   9.360
    4AU     LIG 1791  31.227  24.461   9.834
    4AU     LIG 1792  31.227  24.713  10.237
    4AU     LIG 1793  31.256  24.777  10.702
    4AU     LIG 1794  31.336  24.538  11.105
    4AU       S 1795  31.490  24.135   8.167
    4AU     LIG 1796  31.848  24.047   8.420
    4AU     LIG 1797  32.023  24.155   8.823
    4AU     LIG 1798  32.283  24.414   9.108
    4AU     LIG 1799  32.535  24.660   9.413
    4AU     LIG 1800  32.907  24.678   9.724
    4AU     LIG 1801  33.325  24.718   9.963
    4AU    AUSL 1802  30.975  23.697   6.891
    4AU    AUSL 1803  30.819  24.043   6.937
    4AU     AUL 1804  30.868  23.988   6.585
    4AU       S 1805  31.095  23.564   6.382
    4AU     LIG 1806  31.380  23.269   6.193
    4AU     LIG 1807  31.484  23.073   5.791
    4AU     LIG 1808  31.637  23.093   5.332
    4AU     LIG 1809  31.980  22.981   4.999
    4AU     LIG 1810  32.324  23.010   4.650
    4AU     LIG 1811  32.685  23.065   4.321
    4AU       S 1812  31.295  24.241   6.674
    4AU     LIG 1813  31.622  24.386   6.366
    4AU     LIG 1814  31.900  24.604   6.038
    4AU     LIG 1815  32.131  24.764   5.648
    4AU     LIG 1816  32.128  25.117   5.324
    4AU     LIG 1817  32.223  25.377   4.933
    4AU     LIG 1818  32.170  25.657   4.563
    4AU    AUSL 1819  30.750  23.462   6.799
    4AU    AUSL 1820  31.030  23.381   7.023
    4AU     AUL 1821  31.244  23.522   6.854
    4AU       S 1822  31.198  23.065   6.632
    4AU     LIG 1823  31.397  22.766   6.327
    4AU     LIG 1824  31.651  22.381   6.246
    4AU     LIG 1825  31.939  22.063   6.057
    4AU     LIG 1826  32.300  22.057   5.732
    4AU     LIG 1827  32.688  22.032   5.443
    4AU     LIG 1828  33.026  22.040   5.095
    4AU       S 1829  30.794  23.314   6.385
    4AU     LIG 1830  30.962  22.972   6.128
    4AU     LIG 1831  31.010  22.931   5.670
    4AU     LIG 1832  31.165  22.907   5.216
    4AU     LIG 1833  31.180  22.668   4.795
    4AU     LIG 1834  31.276  22.602   4.323
    4AU     LIG 1835  31.344  22.796   3.880
    4AU    AUSL 1836  30.665  23.782   6.805
    4AU    AUSL 1837  30.413  23.480   6.782
    4AU     AUL 1838  30.558  23.769   6.524
    4AU       S 1839  30.249  23.395   6.294
    4AU     LIG 1840  30.221  23.118   5.909
    4AU     LIG 1841  30.078  22.864   5.538
    4AU     LIG 1842  29.760  22.751   5.224
    4AU     LIG 1843  29.497  22.614   4.843
    4AU     LIG 1844  29.479  22.502   4.374
    4AU     LIG 1845  29.351  22.726   3.964
    4AU       S 1846  30.915  23.442   6.428
    4AU     LIG 1847  30.984  23.426   5.907
    4AU     LIG 1848  31.197  23.373   5.472
    4AU     LIG 1849  31.318  23.431   5.008
    4AU     LIG 1850  31.339  23.738   4.604
    4AU     LIG 1851  31.454  23.954   4.171
    4AU     LIG 1852  31.691  24.088   3.758
    4AU    AUSL 1853  30.132  23.660   8.125
    4AU    AUSL 1854  30.317  24.093   8.072
    4AU     AUL 1855  30.434  23.961   8.398
    4AU       S 1856  29.834  23.678   8.461
    4AU     LIG 1857  29.566  23.492   8.836
    4AU     LIG 1858  29.514  23.280   9.276
    4AU     LIG 1859  29.356  23.139   9.721
    4AU     LIG 1860  29.053  23.096  10.108
    4AU     LIG 1861  28.806  23.297  10.455
    4AU     LIG 1862  28.526  23.475  10.792
    4AU       S 1863  30.082  24.315   8.430
    4AU     LIG 1864  30.050  24.476   8.863
    4AU     LIG 1865  29.894  24.735   9.218
    4AU     LIG 1866  29.557  25.004   9.406
    4AU     LIG 1867  29.394  25.227   9.807
    4AU     LIG 1868  29.232  25.469  10.204
    4AU     LIG 1869  29.017  25.781  10.520
    4AU    AUSL 1870  30.390  23.462   8.210
    4AU    AUSL 1871  30.008  23.391   7.957
    4AU     AUL 1872  30.103  23.276   8.297
    4AU       S 1873  29.725  22.952   8.150
    4AU     LIG 1874  29.335  22.689   8.168
    4AU     LIG 1875  28.959  22.478   8.376
    4AU     LIG 1876  28.624  22.217   8.595
    4AU     LIG 1877  28.402  21.930   8.904
    4AU     LIG 1878  28.062  21.904   9.249
    4AU     LIG 1879  27.709  22.025   9.563
    4AU       S 1880  30.035  23.588   8.671
    4AU     LIG 1881  29.999  23.289   9.036
    4AU     LIG 1882  29.942  23.018   9.418
    4AU     LIG 1883  29.805  22.905   9.845
    4AU     LIG 1884  29.737  22.684  10.249
    4AU     LIG 1885  29.513  22.591  10.654
    4AU     LIG 1886  29.594  22.722  11.099
    4AU    AUSL 1887  30.114  23.566   6.913
    4AU    AUSL 1888  30.264  23.235   6.973
    4AU     AUL 1889  30.366  23.169   6.711
    4AU       S 1890  29.934  23.416   6.497
    4AU     LIG 1891  29.775  23.115   6.187
    4AU     LIG 1892  29.633  23.081   5.719
    4AU     LIG 1893  29.345  23.037   5.315
    4AU     LIG 1894  29.021  22.939   4.959
    4AU     LIG 1895  28.633  23.110   4.739
    4AU     LIG 1896  28.511  23.370   4.362
    4AU       S 1897  29.883  22.975   6.717
    4AU     LIG 1898  29.569  22.634   6.566
    4AU     LIG 1899  29.274  22.272   6.446
    4AU     LIG 1900  28.987  22.003   6.169
    4AU     LIG 1901  28.757  21.790   5.809
    4AU     LIG 1902  28.821  21.615   5.350
    4AU     LIG 1903  28.930  21.574   4.872
    4AU    AUSL 1904  30.334  23.803   6.812
    4AU    AUSL 1905  30.005  23.873   7.066
    4AU     AUL 1906  29.990  23.869   6.729
    4AU       S 1907  29.664  24.243   6.746
    4AU     LIG 1908  29.419  24.471   6.462
    4AU     LIG 1909  29.334  24.593   6.006
    4AU     LIG 1910  29.027  24.567   5.626
    4AU     LIG 1911  28.709  24.756   5.322
    4AU     LIG 1912  28.387  25.057   5.118
    4AU     LIG 1913  28.055  25.276   4.842
    4AU       S 1914  30.138  23.550   6.379
    4AU     LIG 1915  29.926  23.540   5.934
    4AU     LIG 1916  29.986  23.378   5.492
    4AU     LIG 1917  29.857  23.367   5.036
    4AU     LIG 1918  29.735  23.628   4.639
    4AU     LIG 1919  29.543  23.834   4.242
    4AU     LIG 1920  29.342  24.119   3.910
    4AU    AUSL 1921  31.148  24.066   7.450
    4AU    AUSL 1922  31.111  23.937   7.089
    4AU     AUL 1923  31.213  24.377   7.319
    4AU       S 1924  31.439  24.006   6.813
    4AU     LIG 1925  31.828  23.965   6.585
    4AU     LIG 1926  32.117  24.203   6.304
    4AU     LIG 1927  32.359  24.385   5.936
    4AU     LIG 1928  32.695  24.538   5.642
    4AU     LIG 1929  33.080  24.580   5.368
    4AU     LIG 1930  33.333  24.766   5.009
    4AU       S 1931  31.684  24.157   7.373
    4AU     LIG 1932  32.171  24.260   7.457
    4AU     LIG 1933  32.669  24.315   7.513
    4AU     LIG 1934  33.148  24.419   7.525
    4AU     LIG 1935  33.541  24.715   7.544
    4AU     LIG 1936  33.731  25.134   7.713
    4AU     LIG 1937  33.987  25.514   7.906
    4AU    AUSL 1938  31.270  23.769   7.324
    4AU    AUSL 1939  31.265  23.498   7.614
    4AU     AUL 1940  31.568  23.489   7.378
    4AU       S 1941  31.664  23.966   7.257
    4AU     LIG 1942  32.070  23.963   7.056
    4AU     LIG 1943  32.525  23.935   7.194
    4AU     LIG 1944  33.009  24.001   7.240
    4AU     LIG 1945  33.502  24.081   7.328
    4AU     LIG 1946  33.988  24.210   7.322
    4AU     LIG 1947  34.427  24.386   7.214
    4AU       S 1948  31.647  23.006   7.632
    4AU     LIG 1949  31.949  22.713   7.856
    4AU     LIG 1950  32.399  22.522   7.818
    4AU     LIG 1951  32.858  22.408   7.714
    4AU     LIG 1952  33.343  22.416   7.746
    4AU     LIG 1953  33.787  22.403   7.905
    4AU     LIG 1954  34.120  22.649   8.132
    4AU    AUSL 1955  31.265  23.828   7.661
    4AU    AUSL 1956  30.999  24.158   7.741
    4AU     AUL 1957  31.298  24.230   7.704
    4AU       S 1958  31.324  24.269   8.199
    4AU     LIG 1959  31.654  24.530   8.458
    4AU     LIG 1960  31.982  24.674   8.773
    4AU     LIG 1961  32.280  24.962   9.020
    4AU     LIG 1962  32.463  25.419   8.982
    4AU     LIG 1963  32.655  25.878   8.961
    4AU     LIG 1964  33.015  26.197   8.868
    4AU       S 1965  31.712  23.940   7.620
    4AU     LIG 1966  32.160  23.817   7.706
    4AU     LIG 1967  32.636  23.836   7.694
    4AU     LIG 1968  33.103  23.931   7.735
    4AU     LIG 1969  33.568  23.848   7.781
    4AU     LIG 1970  33.971  24.088   7.821
    4AU     LIG 1971  34.362  24.364   7.727
    4AU    AUSL 1972  29.956  24.103   7.529
    4AU    AUSL 1973  30.033  23.932   7.958
    4AU     AUL 1974  29.873  24.339   7.810
    4AU       S 1975  29.769  24.107   8.263
    4AU     LIG 1976  29.650  24.167   8.734
    4AU     LIG 1977  29.476  24.500   9.035
    4AU     LIG 1978  29.206  24.614   9.432
    4AU     LIG 1979  28.824  24.630   9.744
    4AU     LIG 1980  28.405  24.771   9.947
    4AU     LIG 1981  28.014  24.899  10.211
    4AU       S 1982  29.458  24.288   7.523
    4AU     LIG 1983  29.316  24.724   7.395
    4AU     LIG 1984  29.094  25.095   7.579
    4AU     LIG 1985  28.780  25.402   7.414
    4AU     LIG 1986  28.297  25.454   7.367
    4AU     LIG 1987  27.858  25.642   7.490
    4AU     LIG 1988  27.422  25.676   7.672
    4AU    AUSL 1989  29.845  23.814   7.371
    4AU    AUSL 1990  30.092  24.171   7.236
    4AU     AUL 1991  29.775  24.077   7.199
    4AU       S 1992  29.326  23.987   7.382
    4AU     LIG 1993  29.199  24.355   7.041
    4AU     LIG 1994  28.803  24.572   6.823
    4AU     LIG 1995  28.349  24.802   6.858
    4AU     LIG 1996  27.857  24.931   6.816
    4AU     LIG 1997  27.386  24.928   6.645
    4AU     LIG 1998  26.909  24.885   6.552
    4AU       S 1999  29.762  24.500   6.928
    4AU     LIG 2000  29.723  24.861   6.625
    4AU     LIG 2001  29.710  25.162   6.257
    4AU     LIG 2002  29.666  25.614   6.075
    4AU     LIG 2003  29.331  25.910   5.910
    4AU     LIG 2004  28.918  26.165   5.851
    4AU     LIG 2005  28.674  26.489   5.594
    4AU    AUSL 2006  29.856  23.832   7.707
    4AU    AUSL 2007  29.804  23.491   7.352
    4AU     AUL 2008  29.579  23.651   7.679
    4AU       S 2009  29.387  23.518   7.197
    4AU     LIG 2010  28.957  23.386   7.547
    4AU     LIG 2011  28.458  23.291   7.650
    4AU     LIG 2012  28.000  23.093   7.707
    4AU     LIG 2013  27.618  22.881   7.473
    4AU     LIG 2014  27.173  22.693   7.336
    4AU     LIG 2015  26.695  22.713   7.174
    4AU       S 2016  29.419  24.098   7.805
    4AU     LIG 2017  29.111  24.218   8.140
    4AU     LIG 2018  28.675  24.342   8.299
    4AU     LIG 2019  28.205  24.431   8.300
    4AU     LIG 2020  27.742  24.472   8.222
    4AU     LIG 2021  27.286  24.528   8.274
    4AU     LIG 2022  27.008  24.904   8.294
    4AU    AUSL 2023  31.165  23.197   7.501
    4AU    AUSL 2024  31.117  23.375   7.882
    4AU     AUL 2025  31.459  23.414   7.828
    4AU       S 2026  31.372  22.813   7.481
    4AU     LIG 2027  31.614  22.439   7.585
    4AU     LIG 2028  32.054  22.248   7.557
    4AU     LIG 2029  32.517  22.059   7.514
    4AU     LIG 2030  32.821  21.667   7.561
    4AU     LIG 2031  33.287  21.545   7.614
    4AU     LIG 2032  33.672  21.389   7.854
    4AU       S 2033  31.313  22.953   8.128
    4AU     LIG 2034  31.660  22.705   8.328
    4AU     LIG 2035  31.723  22.333   8.612
    4AU     LIG 2036  31.894  22.035   8.939
    4AU     LIG 2037  32.247  21.855   9.195
    4AU     LIG 2038  32.629  21.899   9.486
    4AU     LIG 2039  32.988  21.888   9.802
    4AU    AUSL 2040  31.216  23.446   7.289
    4AU    AUSL 2041  30.989  23.106   7.220
    4AU     AUL 2042  31.355  23.240   7.112
    4AU       S 2043  31.496  22.975   7.495
    4AU     LIG 2044  31.943  22.737   7.334
    4AU     LIG 2045  32.398  22.535   7.299
    4AU     LIG 2046  32.844  22.365   7.204
    4AU     LIG 2047  33.321  22.461   7.222
    4AU     LIG 2048  33.759  22.313   7.216
    4AU     LIG 2049  34.215  22.422   7.142
    4AU       S 2050  31.217  22.833   6.845
    4AU     LIG 2051  31.377  22.413   6.706
    4AU     LIG 2052  31.520  21.988   6.552
    4AU     LIG 2053  31.743  21.635   6.339
    4AU     LIG 2054  31.937  21.195   6.354
    4AU     LIG 2055  32.314  20.944   6.263
    4AU     LIG 2056  32.520  20.666   5.966
    4AU    AUSL 2057  29.972  23.237   7.493
    4AU    AUSL 2058  29.988  23.348   7.128
    4AU     AUL 2059  29.792  23.058   7.394
    4AU       S 2060  29.741  23.124   6.858
    4AU     LIG 2061  29.317  23.020   6.805
    4AU     LIG 2062  29.042  22.665   6.703
    4AU     LIG 2063  28.774  22.428   6.378
    4AU     LIG 2064  28.511  22.218   6.035
    4AU     LIG 2065  28.150  22.306   5.723
    4AU     LIG 2066  27.789  22.208   5.410
    4AU       S 2067  29.462  23.341   7.185
    4AU     LIG 2068  29.135  22.964   7.279
    4AU     LIG 2069  28.654  22.929   7.334
    4AU     LIG 2070  28.181  22.762   7.363
    4AU     LIG 2071  27.820  22.416   7.427
    4AU     LIG 2072  27.379  22.193   7.388
    4AU     LIG 2073  27.128  21.802   7.257
    4AU    AUSL 2074  29.882  23.503   7.674
    4AU    AUSL 2075  30.090  23.106   7.776
    4AU     AUL 2076  29.699  23.260   7.754
    4AU       S 2077  29.824  22.770   7.850
    4AU     LIG 2078  29.522  22.472   7.718
    4AU     LIG 2079  29.168  22.256   7.926
    4AU     LIG 2080  28.906  21.990   8.210
    4AU     LIG 2081  28.663  21.697   8.490
    4AU     LIG 2082  28.435  21.346   8.712
    4AU     LIG 2083  28.077  21.069   8.855
    4AU       S 2084  29.398  23.393   7.314
    4AU     LIG 2085  28.926  23.368   7.054
    4AU     LIG 2086  28.431  23.359   7.137
    4AU     LIG 2087  27.964  23.282   7.239
    4AU     LIG 2088  27.585  23.385   7.506
    4AU     LIG 2089  27.178  23.148   7.634
    4AU     LIG 2090  26.796  22.829   7.672
    4AU    AUSL 2091  30.568  24.263   7.928
    4AU    AUSL 2092  30.170  24.173   7.780
    4AU     AUL 2093  30.221  24.458   7.941
    4AU       S 2094  29.954  24.270   8.318
    4AU     LIG 2095  29.691  24.634   8.530
    4AU     LIG 2096  29.625  24.984   8.856
    4AU     LIG 2097  29.568  25.424   9.052
    4AU     LIG 2098  29.304  25.816   9.153
    4AU     LIG 2099  28.927  26.099   9.256
    4AU     LIG 2100  28.506  26.308   9.296
    4AU       S 2101  30.602  24.745   8.087
    4AU     LIG 2102  30.804  24.948   8.423
    4AU     LIG 2103  30.846  25.388   8.521
    4AU     LIG 2104  30.826  25.693   8.883
    4AU     LIG 2105  30.756  25.901   9.313
    4AU     LIG 2106  30.681  26.269   9.596
    4AU     LIG 2107  30.788  26.614   9.900
    4AU    AUSL 2108  30.407  24.361   7.642
    4AU    AUSL 2109  30.694  24.378   7.325
    4AU     AUL 2110  30.237  24.595   7.439
    4AU       S 2111  30.509  24.857   7.798
    4AU     LIG 2112  30.479  25.238   8.121
    4AU     LIG 2113  30.445  25.675   8.310
    4AU     LIG 2114  30.328  26.142   8.293
    4AU     LIG 2115  30.550  26.553   8.324
    4AU     LIG 2116  30.411  26.987   8.375
    4AU     LIG 2117  30.236  27.229   8.733
    4AU       S 2118  30.837  24.787   7.258
    4AU     LIG 2119  31.080  25.113   7.031
    4AU     LIG 2120  31.145  25.533   6.811
    4AU     LIG 2121  31.443  25.932   6.793
    4AU     LIG 2122  31.609  26.388   6.736
    4AU     LIG 2123  31.803  26.824   6.654
    4AU     LIG 2124  31.708  27.241   6.459
    4AU    AUSL 2125  30.745  24.351   7.648
    4AU    AUSL 2126  30.833  24.091   8.032
    4AU     AUL 2127  30.941  24.429   7.915
    4AU       S 2128  31.122  24.240   8.345
    4AU     LIG 2129  31.431  24.152   8.710
    4AU     LIG 2130  31.640  24.399   9.059
    4AU     LIG 2131  31.911  24.709   9.298
    4AU     LIG 2132  32.164  24.983   9.589
    4AU     LIG 2133  32.202  25.226  10.005
    4AU     LIG 2134  32.271  25.504  10.393
    4AU       S 2135  30.728  24.837   7.737
    4AU     LIG 2136  30.972  25.172   7.991
    4AU     LIG 2137  31.228  25.544   8.187
    4AU     LIG 2138  31.571  25.906   8.240
    4AU     LIG 2139  31.683  26.367   8.304
    4AU     LIG 2140  31.498  26.796   8.390
    4AU     LIG 2141  31.222  27.194   8.382
    4AU    AUSL 2142  30.588  23.067   7.971
    4AU    AUSL 2143  30.984  23.092   7.757
    4AU     AUL 2144  30.814  22.825   7.984
    4AU       S 2145  30.427  22.505   8.069
    4AU     LIG 2146  30.198  22.110   8.190
    4AU     LIG 2147  29.990  21.691   8.249
    4AU     LIG 2148  29.933  21.266   8.439
    4AU     LIG 2149  30.143  20.916   8.668
    4AU     LIG 2150  30.238  20.684   9.073
    4AU     LIG 2151  30.250  20.559   9.536
    4AU       S 2152  31.315  22.853   7.968
    4AU     LIG 2153  31.351  22.425   8.031
    4AU     LIG 2154  31.393  22.078   8.307
    4AU     LIG 2155  31.604  21.789   8.597
    4AU     LIG 2156  31.872  21.493   8.859
    4AU     LIG 2157  32.086  21.043   8.875
    4AU     LIG 2158  32.458  20.739   8.934
    4AU    AUSL 2159  30.377  22.947   7.725
    4AU    AUSL 2160  30.297  23.224   8.001
    4AU     AUL 2161  30.330  22.989   8.157
    4AU       S 2162  30.235  22.525   7.853
    4AU     LIG 2163  29.957  22.196   7.754
    4AU     LIG 2164  29.786  21.765   7.779
    4AU     LIG 2165  29.744  21.304   7.952
    4AU     LIG 2166  29.496  20.897   8.130
    4AU     LIG 2167  29.470  20.424   8.274
    4AU     LIG 2168  29.430  20.021   8.514
    4AU       S 2169  29.894  22.834   8.018
    4AU     LIG 2170  29.758  22.401   8.189
    4AU     LIG 2171  29.384  22.183   8.393
    4AU     LIG 2172  29.068  21.979   8.700
    4AU     LIG 2173  28.838  21.650   8.970
    4AU     LIG 2174  28.689  21.563   9.406
    4AU     LIG 2175  28.705  21.411   9.860
    4AU    AUSL 2176  30.697  22.967   7.669
    4AU    AUSL 2177  30.390  22.908   7.393
    4AU     AUL 2178  30.751  22.696   7.582
    4AU       S 2179  30.072  22.566   7.390
    4AU     LIG 2180  29.764  22.196   7.296
    4AU     LIG 2181  29.818  21.716   7.259
    4AU     LIG 2182  29.858  21.263   7.087
    4AU     LIG 2183  29.888  20.836   6.870
    4AU     LIG 2184  29.648  20.429   6.734
    4AU     LIG 2185  29.393  20.012   6.630
    4AU       S 2186  30.356  22.570   7.824
    4AU     LIG 2187  30.453  22.091   7.737
    4AU     LIG 2188  30.288  21.651   7.826
    4AU     LIG 2189  30.291  21.224   8.072
    4AU     LIG 2190  30.510  20.830   8.297
    4AU     LIG 2191  30.683  20.393   8.453
    4AU     LIG 2192  30.781  19.917   8.451
    4AU    AUSL 2193  30.559  24.234   7.041
    4AU    AUSL 2194  30.943  24.189   7.216
    4AU     AUL 2195  30.864  24.380   6.932
    4AU       S 2196  30.610  24.801   6.949
    4AU     LIG 2197  30.759  25.123   6.634
    4AU     LIG 2198  30.899  25.461   6.333
    4AU     LIG 2199  30.992  25.624   5.886
    4AU     LIG 2200  31.024  25.855   5.469
    4AU     LIG 2201  30.981  26.290   5.288
    4AU     LIG 2202  30.892  26.749   5.292
    4AU       S 2203  31.363  24.170   6.906
    4AU     LIG 2204  31.789  24.391   6.864
    4AU     LIG 2205  32.038  24.663   6.539
    4AU     LIG 2206  32.218  25.028   6.255
    4AU     LIG 2207  32.409  25.496   6.187
    4AU     LIG 2208  32.624  25.915   6.026
    4AU     LIG 2209  32.712  26.403   5.898
    4AU    AUSL 2210  30.377  24.311   7.316
    4AU    AUSL 2211  30.268  24.086   6.963
    4AU     AUL 2212  30.256  24.448   7.033
    4AU       S 2213  30.640  24.774   7.233
    4AU     LIG 2214  30.602  25.264   7.128
    4AU     LIG 2215  30.612  25.597   6.783
    4AU     LIG 2216  30.427  25.978   6.574
    4AU     LIG 2217  30.526  26.415   6.454
    4AU     LIG 2218  30.329  26.826   6.487
    4AU     LIG 2219  30.074  27.090   6.208
    4AU       S 2220  29.946  24.373   6.642
    4AU     LIG 2221  29.855  24.613   6.198
    4AU     LIG 2222  30.013  24.822   5.771
    4AU     LIG 2223  30.031  24.995   5.300
    4AU     LIG 2224  29.767  25.290   5.018
    4AU     LIG 2225  29.318  25.411   4.919
    4AU     LIG 2226  29.018  25.760   4.812
    4AU    AUSL 2227  30.504  23.050   7.113
    4AU    AUSL 2228  30.145  23.078   7.249
    4AU     AUL 2229  30.350  22.872   6.948
    4AU       S 2230  29.839  22.829   6.954
    4AU     LIG 2231  29.473  22.587   7.076
    4AU     LIG 2232  29.185  22.239   6.960
    4AU     LIG 2233  28.862  22.019   6.677
    4AU     LIG 2234  28.552  21.795   6.369
    4AU     LIG 2235  28.276  21.398   6.286
    4AU     LIG 2236  28.195  21.018   6.015
    4AU       S 2237  30.254  22.566   7.317
    4AU     LIG 2238  30.063  22.344   6.921
    4AU     LIG 2239  30.007  21.883   6.805
    4AU     LIG 2240  30.048  21.424   6.637
    4AU     LIG 2241  29.935  21.024   6.388
    4AU     LIG 2242  29.942  20.785   5.969
    4AU     LIG 2243  30.099  20.674   5.527
    4AU    AUSL 2244  30.723  22.949   7.343
    4AU    AUSL 2245  30.771  23.171   6.962
    4AU     AUL 2246  30.764  22.790   7.067
    4AU       S 2247  30.404  22.478   7.313
    4AU     LIG 2248  30.251  22.013   7.273
    4AU     LIG 2249  30.294  21.546   7.091
    4AU     LIG 2250  30.363  21.075   6.900
    4AU     LIG 2251  30.633  20.629   6.816
    4AU     LIG 2252  30.793  20.137   6.788
    4AU     LIG 2253  30.871  19.673   6.612
    4AU       S 2254  30.986  22.957   6.646
    4AU     LIG 2255  30.941  22.565   6.456
    4AU     LIG 2256  31.160  22.230   6.259
    4AU     LIG 2257  31.431  21.934   6.033
    4AU     LIG 2258  31.466  21.661   5.651
    4AU     LIG 2259  31.557  21.442   5.241
    4AU     LIG 2260  31.778  21.199   4.902
    5AU     AUC 2261  25.701  11.852   7.503
    5AU     AUC 2262  25.946  11.848   7.340
    5AU     AUC 2263  25.958  11.853   7.648
    5AU     AUC 2264  25.442  11.849   7.356
    5AU     AUC 2265  25.457  11.860   7.667
    5AU     AUC 2266  25.549  12.102   7.502
    5AU     AUC 2267  25.856  12.102   7.492
    5AU     AUC 2268  25.544  11.600   7.515
    5AU     AUC 2269  25.856  11.601   7.502
    5AU     AUC 2270  25.711  11.703   7.757
    5AU     AUC 2271  25.712  12.013   7.751
    5AU     AUC 2272  25.693  11.694   7.254
    5AU     AUC 2273  25.693  12.002   7.249
    5AU     AUC 2274  26.183  11.845   7.182
    5AU     AUC 2275  26.199  11.844   7.486
    5AU     AUC 2276  26.207  11.852   7.788
    5AU     AUC 2277  25.195  11.843   7.214
    5AU     AUC 2278  25.202  11.867   7.518
    5AU     AUC 2279  25.220  11.870   7.825
    5AU     AUC 2280  25.402  12.346   7.499
    5AU     AUC 2281  25.706  12.349   7.491
    5AU     AUC 2282  26.007  12.344   7.482
    5AU     AUC 2283  25.394  11.361   7.526
    5AU     AUC 2284  25.692  11.355   7.520
    5AU     AUC 2285  26.001  11.357   7.501
    5AU     AUC 2286  25.717  11.557   8.000
    5AU     AUC 2287  25.718  11.857   8.001
    5AU     AUC 2288  25.724  12.166   7.990
    5AU     AUC 2289  25.687  11.541   7.016
    5AU     AUC 2290  25.688  11.839   7.004
    5AU     AUC 2291  25.686  12.145   7.002
    5AU     AUC 2292  25.963  11.700   7.899
    5AU     AUC 2293  25.967  12.007   7.897
    5AU     AUC 2294  25.935  11.691   7.095
    5AU     AUC 2295  25.941  11.998   7.092
    5AU     AUC 2296  25.459  11.708   7.914
    5AU     AUC 2297  25.471  12.015   7.915
    5AU     AUC 2298  25.440  11.689   7.112
    5AU     AUC 2299  25.437  11.993   7.102
    5AU     AUC 2300  26.102  12.095   7.334
    5AU     AUC 2301  26.114  12.098   7.640
    5AU     AUC 2302  25.292  12.097   7.350
    5AU     AUC 2303  25.310  12.114   7.666
    5AU     AUC 2304  26.092  11.592   7.335
    5AU     AUC 2305  26.107  11.598   7.643
    5AU     AUC 2306  25.292  11.603   7.367
    5AU     AUC 2307  25.296  11.615   7.669
    5AU     AUC 2308  25.564  12.263   7.750
    5AU     AUC 2309  25.869  12.259   7.740
    5AU     AUC 2310  25.548  11.458   7.765
    5AU     AUC 2311  25.861  11.453   7.756
    5AU     AUC 2312  25.543  12.249   7.244
    5AU     AUC 2313  25.850  12.249   7.238
    5AU     AUC 2314  25.536  11.444   7.271
    5AU     AUC 2315  25.842  11.441   7.258
    5AU    AUSL 2316  26.144  11.821   8.074
    5AU    AUSL 2317  26.014  11.430   8.055
    5AU     AUL 2318  26.407  11.618   8.203
    5AU       S 2319  26.300  11.138   8.326
    5AU     LIG 2320  26.247  10.754   8.574
    5AU     LIG 2321  26.212  10.329   8.742
    5AU     LIG 2322  26.485  10.035   8.965
    5AU     LIG 2323  26.645   9.867   9.359
    5AU     LIG 2324  26.886   9.843   9.757
    5AU     LIG 2325  26.902   9.523  10.092
    5AU       S 2326  26.188  11.745   8.663
    5AU     LIG 2327  26.483  11.618   9.012
    5AU     LIG 2328  26.652  11.340   9.372
    5AU     LIG 2329  26.916  11.146   9.727
    5AU     LIG 2330  27.260  11.151  10.060
    5AU     LIG 2331  27.551  11.394  10.348
    5AU     LIG 2332  27.694  11.786  10.586
    5AU    AUSL 2333  25.865  11.685   8.213
    5AU    AUSL 2334  25.576  12.008   8.190
    5AU     AUL 2335  25.657  11.826   8.512
    5AU       S 2336  26.057  11.539   8.596
    5AU     LIG 2337  26.237  11.195   8.856
    5AU     LIG 2338  26.290  10.987   9.277
    5AU     LIG 2339  26.419  10.983   9.742
    5AU     LIG 2340  26.466  10.885  10.222
    5AU     LIG 2341  26.432  10.912  10.714
    5AU     LIG 2342  26.580  10.940  11.174
    5AU       S 2343  25.166  12.053   8.623
    5AU     LIG 2344  24.997  12.026   9.083
    5AU     LIG 2345  24.989  11.768   9.494
    5AU     LIG 2346  24.914  11.673   9.954
    5AU     LIG 2347  24.929  11.944  10.373
    5AU     LIG 2348  24.992  12.252  10.752
    5AU     LIG 2349  24.899  12.363  11.207
    5AU    AUSL 2350  25.913  12.027   8.203
    5AU    AUSL 2351  26.263  12.121   7.943
    5AU     AUL 2352  26.347  11.959   8.242
    5AU       S 2353  26.074  12.076   8.652
    5AU     LIG 2354  26.072  12.508   8.867
    5AU     LIG 2355  26.296  12.710   9.243
    5AU     LIG 2356  26.301  12.769   9.734
    5AU     LIG 2357  26.303  12.814  10.223
    5AU     LIG 2358  26.326  12.779  10.706
    5AU     LIG 2359  26.604  12.802  11.108
    5AU       S 2360  26.622  12.361   8.197
    5AU     LIG 2361  26.953  12.236   8.468
    5AU     LIG 2362  27.188  12.425   8.804
    5AU     LIG 2363  27.499  12.687   9.028
    5AU     LIG 2364  27.664  12.886   9.411
    5AU     LIG 2365  27.920  12.983   9.803
    5AU     LIG 2366  28.329  13.144  10.009
    5AU    AUSL 2367  26.127  11.896   6.894
    5AU    AUSL 2368  25.972  12.244   6.936
    5AU     AUL 2369  26.015  12.186   6.582
    5AU       S 2370  26.257  11.763   6.392
    5AU     LIG 2371  26.554  11.473   6.208
    5AU     LIG 2372  26.665  11.366   5.772
    5AU     LIG 2373  26.787  11.400   5.307
    5AU     LIG 2374  27.096  11.467   4.939
    5AU     LIG 2375  27.492  11.560   4.657
    5AU     LIG 2376  27.815  11.672   4.306
    5AU       S 2377  26.443  12.435   6.672
    5AU     LIG 2378  26.736  12.566   6.334
    5AU     LIG 2379  26.961  12.783   5.972
    5AU     LIG 2380  27.199  13.020   5.641
    5AU     LIG 2381  27.302  13.253   5.265
    5AU     LIG 2382  27.328  13.535   4.912
    5AU     LIG 2383  27.601  13.785   4.610
    5AU    AUSL 2384  25.899  11.662   6.802
    5AU    AUSL 2385  26.178  11.579   7.025
    5AU     AUL 2386  26.397  11.721   6.866
    5AU       S 2387  26.349  11.265   6.641
    5AU     LIG 2388  26.574  10.964   6.364
    5AU     LIG 2389  26.745  10.528   6.261
    5AU     LIG 2390  27.057  10.260   6.010
    5AU     LIG 2391  27.440  10.214   5.712
    5AU     LIG 2392  27.858  10.300   5.480
    5AU     LIG 2393  28.195  10.219   5.162
    5AU       S 2394  25.955  11.510   6.391
    5AU     LIG 2395  26.146  11.173   6.130
    5AU     LIG 2396  26.219  11.144   5.661
    5AU     LIG 2397  26.331  11.158   5.189
    5AU     LIG 2398  26.289  11.098   4.703
    5AU     LIG 2399  26.271  10.844   4.277
    5AU     LIG 2400  26.397  10.831   3.809
    5AU    AUSL 2401  25.818  11.983   6.803
    5AU    AUSL 2402  25.561  11.679   6.783
    5AU     AUL 2403  25.704  11.957   6.520
    5AU       S 2404  25.379  11.591   6.293
    5AU     LIG 2405  25.293  11.333   5.904
    5AU     LIG 2406  25.029  11.105   5.585
    5AU     LIG 2407  24.831  11.017   5.165
    5AU     LIG 2408  24.736  10.708   4.800
    5AU     LIG 2409  24.705  10.626   4.326
    5AU     LIG 2410  24.757  10.887   3.929
    5AU       S 2411  26.077  11.644   6.430
    5AU     LIG 2412  26.165  11.630   5.911
    5AU     LIG 2413  26.330  11.614   5.449
    5AU     LIG 2414  26.433  11.621   4.963
    5AU     LIG 2415  26.440  11.828   4.512
    5AU     LIG 2416  26.583  12.096   4.116
    5AU     LIG 2417  26.773  12.189   3.680
    5AU    AUSL 2418  25.281  11.875   8.125
    5AU    AUSL 2419  25.463  12.300   8.068
    5AU     AUL 2420  25.583  12.181   8.394
    5AU       S 2421  24.995  11.896   8.467
    5AU     LIG 2422  24.700  11.716   8.797
    5AU     LIG 2423  24.616  11.532   9.227
    5AU     LIG 2424  24.510  11.375   9.666
    5AU     LIG 2425  24.223  11.305  10.054
    5AU     LIG 2426  23.938  11.409  10.440
    5AU     LIG 2427  23.569  11.521  10.744
    5AU       S 2428  25.208  12.509   8.418
    5AU     LIG 2429  25.182  12.607   8.863
    5AU     LIG 2430  25.037  12.923   9.170
    5AU     LIG 2431  24.694  13.143   9.401
    5AU     LIG 2432  24.541  13.354   9.804
    5AU     LIG 2433  24.377  13.661  10.140
    5AU     LIG 2434  24.106  13.940  10.429
    5AU    AUSL 2435  25.535  11.672   8.212
    5AU    AUSL 2436  25.153  11.606   7.960
    5AU     AUL 2437  25.245  11.488   8.298
    5AU       S 2438  24.856  11.172   8.159
    5AU     LIG 2439  24.422  10.959   8.094
    5AU     LIG 2440  24.045  10.737   8.304
    5AU     LIG 2441  23.755  10.517   8.612
    5AU     LIG 2442  23.562  10.249   8.948
    5AU     LIG 2443  23.294  10.125   9.326
    5AU     LIG 2444  23.044  10.278   9.709
    5AU       S 2445  25.188  11.793   8.680
    5AU     LIG 2446  25.111  11.505   9.055
    5AU     LIG 2447  24.995  11.252   9.456
    5AU     LIG 2448  24.884  11.113   9.901
    5AU     LIG 2449  24.709  10.817  10.239
    5AU     LIG 2450  24.579  10.685  10.675
    5AU     LIG 2451  24.683  10.730  11.129
    5AU    AUSL 2452  25.262  11.772   6.913
    5AU    AUSL 2453  25.405  11.441   6.976
    5AU     AUL 2454  25.508  11.372   6.711
    5AU       S 2455  25.070  11.616   6.511
    5AU     LIG 2456  24.870  11.353   6.203
    5AU     LIG 2457  24.656  11.406   5.777
    5AU     LIG 2458  24.533  11.423   5.303
    5AU     LIG 2459  24.195  11.376   4.930
    5AU     LIG 2460  23.931  11.485   4.508
    5AU     LIG 2461  23.664  11.681   4.137
    5AU       S 2462  25.022  11.169   6.729
    5AU     LIG 2463  24.788  10.715   6.638
    5AU     LIG 2464  24.457  10.398   6.457
    5AU     LIG 2465  24.140  10.095   6.240
    5AU     LIG 2466  23.925   9.879   5.858
    5AU     LIG 2467  23.978   9.646   5.429
    5AU     LIG 2468  24.106   9.565   4.963
    5AU    AUSL 2469  25.488  12.003   6.812
    5AU    AUSL 2470  25.155  12.086   7.058
    5AU     AUL 2471  25.163  12.074   6.719
    5AU       S 2472  24.816  12.424   6.725
    5AU     LIG 2473  24.702  12.485   6.273
    5AU     LIG 2474  24.537  12.661   5.861
    5AU     LIG 2475  24.259  12.705   5.462
    5AU     LIG 2476  23.848  12.671   5.215
    5AU     LIG 2477  23.402  12.809   5.121
    5AU     LIG 2478  23.091  13.126   4.970
    5AU       S 2479  25.280  11.741   6.377
    5AU     LIG 2480  25.035  11.771   5.949
    5AU     LIG 2481  25.024  11.613   5.491
    5AU     LIG 2482  24.989  11.563   5.016
    5AU     LIG 2483  25.082  11.769   4.571
    5AU     LIG 2484  25.034  11.982   4.127
    5AU     LIG 2485  24.773  12.182   3.766
    5AU    AUSL 2486  26.301  12.264   7.449
    5AU    AUSL 2487  26.263  12.136   7.092
    5AU     AUL 2488  26.359  12.578   7.332
    5AU       S 2489  26.588  12.209   6.814
    5AU     LIG 2490  26.995  12.198   6.596
    5AU     LIG 2491  27.216  12.381   6.214
    5AU     LIG 2492  27.460  12.662   5.915
    5AU     LIG 2493  27.733  12.918   5.613
    5AU     LIG 2494  28.188  13.031   5.449
    5AU     LIG 2495  28.558  13.173   5.148
    5AU       S 2496  26.821  12.352   7.337
    5AU     LIG 2497  27.260  12.501   7.424
    5AU     LIG 2498  27.738  12.432   7.477
    5AU     LIG 2499  28.207  12.549   7.501
    5AU     LIG 2500  28.497  12.960   7.506
    5AU     LIG 2501  28.730  13.394   7.608
    5AU     LIG 2502  28.994  13.625   7.944
    5AU    AUSL 2503  26.420  11.964   7.326
    5AU    AUSL 2504  26.410  11.697   7.618
    5AU     AUL 2505  26.713  11.680   7.383
    5AU       S 2506  26.822  12.150   7.247
    5AU     LIG 2507  27.253  12.119   7.083
    5AU     LIG 2508  27.718  12.017   7.174
    5AU     LIG 2509  28.199  12.070   7.250
    5AU     LIG 2510  28.678  11.956   7.322
    5AU     LIG 2511  29.164  12.102   7.278
    5AU     LIG 2512  29.488  12.331   6.968
    5AU       S 2513  26.782  11.211   7.660
    5AU     LIG 2514  27.218  11.042   7.757
    5AU     LIG 2515  27.667  10.862   7.771
    5AU     LIG 2516  28.112  10.672   7.798
    5AU     LIG 2517  28.533  10.700   8.029
    5AU     LIG 2518  29.011  10.702   7.974
    5AU     LIG 2519  29.423  10.951   7.922
    5AU    AUSL 2520  26.415  12.026   7.663
    5AU    AUSL 2521  26.154  12.364   7.739
    5AU     AUL 2522  26.471  12.410   7.712
    5AU       S 2523  26.461  12.485   8.208
    5AU     LIG 2524  26.816  12.742   8.469
    5AU     LIG 2525  27.152  12.942   8.743
    5AU     LIG 2526  27.466  13.232   8.962
    5AU     LIG 2527  27.660  13.694   8.940
    5AU     LIG 2528  27.911  14.103   9.029
    5AU     LIG 2529  27.962  14.572   8.927
    5AU       S 2530  26.888  12.134   7.590
    5AU     LIG 2531  27.390  12.034   7.593
    5AU     LIG 2532  27.893  11.977   7.668
    5AU     LIG 2533  28.380  12.070   7.739
    5AU     LIG 2534  28.871  12.133   7.759
    5AU     LIG 2535  29.335  12.146   7.857
    5AU     LIG 2536  29.680  12.409   8.054
    5AU    AUSL 2537  25.110  12.318   7.520
    5AU    AUSL 2538  25.178  12.142   7.954
    5AU     AUL 2539  25.006  12.536   7.795
    5AU       S 2540  24.907  12.307   8.248
    5AU     LIG 2541  24.766  12.346   8.704
    5AU     LIG 2542  24.618  12.671   9.016
    5AU     LIG 2543  24.308  12.790   9.358
    5AU     LIG 2544  23.912  12.817   9.627
    5AU     LIG 2545  23.511  12.955   9.853
    5AU     LIG 2546  23.150  13.164  10.086
    5AU       S 2547  24.576  12.475   7.520
    5AU     LIG 2548  24.331  12.898   7.494
    5AU     LIG 2549  24.032  13.291   7.424
    5AU     LIG 2550  23.725  13.639   7.559
    5AU     LIG 2551  23.439  13.943   7.744
    5AU     LIG 2552  22.964  13.877   7.749
    5AU     LIG 2553  22.636  13.939   7.427
    5AU    AUSL 2554  24.994  12.033   7.358
    5AU    AUSL 2555  25.252  12.378   7.227
    5AU     AUL 2556  24.936  12.332   7.205
    5AU       S 2557  24.481  12.180   7.333
    5AU     LIG 2558  24.221  12.250   6.922
    5AU     LIG 2559  23.814  12.444   6.748
    5AU     LIG 2560  23.347  12.402   6.813
    5AU     LIG 2561  22.980  12.675   6.952
    5AU     LIG 2562  22.559  12.904   6.971
    5AU     LIG 2563  22.107  12.960   6.787
    5AU       S 2564  24.944  12.690   6.861
    5AU     LIG 2565  24.757  12.941   6.523
    5AU     LIG 2566  24.857  13.300   6.236
    5AU     LIG 2567  24.736  13.770   6.186
    5AU     LIG 2568  24.349  13.974   6.002
    5AU     LIG 2569  23.921  14.103   5.907
    5AU     LIG 2570  23.645  14.487   5.923
    5AU    AUSL 2571  25.010  12.049   7.695
    5AU    AUSL 2572  24.949  11.709   7.356
    5AU     AUL 2573  24.741  11.902   7.675
    5AU       S 2574  24.480  11.690   7.269
    5AU     LIG 2575  24.106  11.530   7.658
    5AU     LIG 2576  23.626  11.473   7.752
    5AU     LIG 2577  23.173  11.337   7.698
    5AU     LIG 2578  22.804  11.123   7.437
    5AU     LIG 2579  22.371  11.265   7.262
    5AU     LIG 2580  21.960  11.193   7.025
    5AU       S 2581  24.528  12.322   7.787
    5AU     LIG 2582  24.095  12.353   7.980
    5AU     LIG 2583  23.660  12.367   8.185
    5AU     LIG 2584  23.372  12.724   8.182
    5AU     LIG 2585  23.008  12.905   8.370
    5AU     LIG 2586  22.592  13.073   8.287
    5AU     LIG 2587  22.185  12.931   8.376
    5AU    AUSL 2588  26.306  11.397   7.510
    5AU    AUSL 2589  26.261  11.572   7.883
    5AU     AUL 2590  26.601  11.632   7.836
    5AU       S 2591  26.515  11.010   7.500
    5AU     LIG 2592  26.798  10.711   7.749
    5AU     LIG 2593  27.232  10.536   7.660
    5AU     LIG 2594  27.678  10.394   7.555
    5AU     LIG 2595  28.119  10.204   7.541
    5AU     LIG 2596  28.483   9.867   7.513
    5AU     LIG 2597  28.884   9.578   7.554
    5AU       S 2598  26.478  11.152   8.090
    5AU     LIG 2599  26.723  10.841   8.375
    5AU     LIG 2600  26.707  10.425   8.617
    5AU     LIG 2601  26.974  10.197   8.957
    5AU     LIG 2602  27.337  10.211   9.286
    5AU     LIG 2603  27.744  10.314   9.543
    5AU     LIG 2604  28.198  10.271   9.718
    5AU    AUSL 2605  26.361  11.643   7.293
    5AU    AUSL 2606  26.134  11.306   7.226
    5AU     AUL 2607  26.503  11.429   7.124
    5AU       S 2608  26.617  11.178   7.529
    5AU     LIG 2609  26.992  10.914   7.311
    5AU     LIG 2610  27.464  10.829   7.299
    5AU     LIG 2611  27.939  10.772   7.321
    5AU     LIG 2612  28.352  10.569   7.260
    5AU     LIG 2613  28.786  10.674   7.135
    5AU     LIG 2614  28.977  10.826   6.724
    5AU       S 2615  26.363  11.025   6.852
    5AU     LIG 2616  26.515  10.584   6.730
    5AU     LIG 2617  26.656  10.135   6.626
    5AU     LIG 2618  26.697   9.687   6.468
    5AU     LIG 2619  27.009   9.331   6.309
    5AU     LIG 2620  27.432   9.219   6.095
    5AU     LIG 2621  27.666   8.828   5.930
    5AU    AUSL 2622  25.114  11.452   7.495
    5AU    AUSL 2623  25.129  11.560   7.131
    5AU     AUL 2624  24.918  11.282   7.399
    5AU       S 2625  24.868  11.328   6.871
    5AU     LIG 2626  24.486  11.063   6.846
    5AU     LIG 2627  24.166  10.756   6.685
    5AU     LIG 2628  23.873  10.502   6.405
    5AU     LIG 2629  23.618  10.187   6.155
    5AU     LIG 2630  23.368  10.041   5.806
    5AU     LIG 2631  23.037  10.190   5.500
    5AU       S 2632  24.613  11.602   7.189
    5AU     LIG 2633  24.251  11.214   7.267
    5AU     LIG 2634  23.818  11.128   7.419
    5AU     LIG 2635  23.351  10.987   7.372
    5AU     LIG 2636  22.995  10.644   7.418
    5AU     LIG 2637  22.699  10.314   7.602
    5AU     LIG 2638  22.464   9.990   7.865
    5AU    AUSL 2639  25.023  11.716   7.679
    5AU    AUSL 2640  25.229  11.318   7.779
    5AU     AUL 2641  24.845  11.476   7.763
    5AU       S 2642  24.951  10.981   7.860
    5AU     LIG 2643  24.682  10.636   7.758
    5AU     LIG 2644  24.330  10.424   8.002
    5AU     LIG 2645  23.988  10.193   8.284
    5AU     LIG 2646  23.687   9.898   8.579
    5AU     LIG 2647  23.529   9.513   8.874
    5AU     LIG 2648  23.114   9.245   8.903
    5AU       S 2649  24.512  11.607   7.374
    5AU     LIG 2650  23.984  11.668   7.199
    5AU     LIG 2651  23.517  11.497   7.229
    5AU     LIG 2652  23.032  11.565   7.266
    5AU     LIG 2653  22.720  11.584   7.614
    5AU     LIG 2654  22.418  11.239   7.773
    5AU     LIG 2655  22.054  11.046   7.964
    5AU    AUSL 2656  25.717  12.470   7.928
    5AU    AUSL 2657  25.316  12.385   7.776
    5AU     AUL 2658  25.371  12.668   7.940
    5AU       S 2659  25.082  12.490   8.303
    5AU     LIG 2660  24.836  12.840   8.560
    5AU     LIG 2661  24.708  13.196   8.869
    5AU     LIG 2662  24.633  13.678   8.977
    5AU     LIG 2663  24.440  14.137   9.039
    5AU     LIG 2664  24.037  14.368   9.173
    5AU     LIG 2665  23.909  14.836   9.262
    5AU       S 2666  25.756  12.955   8.085
    5AU     LIG 2667  25.994  13.146   8.422
    5AU     LIG 2668  25.958  13.524   8.671
    5AU     LIG 2669  26.058  13.955   8.785
    5AU     LIG 2670  25.993  14.340   9.039
    5AU     LIG 2671  25.892  14.519   9.471
    5AU     LIG 2672  25.982  14.799   9.858
    5AU    AUSL 2673  25.559  12.568   7.641
    5AU    AUSL 2674  25.850  12.583   7.324
    5AU     AUL 2675  25.394  12.804   7.437
    5AU       S 2676  25.660  13.068   7.800
    5AU     LIG 2677  25.727  13.468   8.107
    5AU     LIG 2678  25.777  13.891   8.343
    5AU     LIG 2679  25.682  14.277   8.605
    5AU     LIG 2680  25.528  14.714   8.706
    5AU     LIG 2681  25.377  15.172   8.678
    5AU     LIG 2682  25.022  15.441   8.494
    5AU       S 2683  25.992  12.988   7.257
    5AU     LIG 2684  26.192  13.343   7.054
    5AU     LIG 2685  26.191  13.753   6.823
    5AU     LIG 2686  26.503  14.098   6.685
    5AU     LIG 2687  26.832  14.460   6.643
    5AU     LIG 2688  26.888  14.915   6.550
    5AU     LIG 2689  26.835  15.355   6.404
    5AU    AUSL 2690  25.896  12.553   7.647
    5AU    AUSL 2691  25.982  12.297   8.028
    5AU     AUL 2692  26.092  12.635   7.909
    5AU       S 2693  26.254  12.440   8.345
    5AU     LIG 2694  26.545  12.406   8.733
    5AU     LIG 2695  26.801  12.681   9.029
    5AU     LIG 2696  27.130  12.845   9.351
    5AU     LIG 2697  27.321  13.022   9.769
    5AU     LIG 2698  27.383  13.398  10.056
    5AU     LIG 2699  27.275  13.845  10.206
    5AU       S 2700  25.868  13.035   7.728
    5AU     LIG 2701  26.178  13.278   7.956
    5AU     LIG 2702  26.224  13.642   8.245
    5AU     LIG 2703  26.290  14.105   8.348
    5AU     LIG 2704  26.571  14.499   8.411
    5AU     LIG 2705  26.790  14.934   8.454
    5AU     LIG 2706  26.719  15.372   8.615
    5AU    AUSL 2707  25.726  11.275   7.970
    5AU    AUSL 2708  26.119  11.291   7.762
    5AU     AUL 2709  25.941  11.038   7.998
    5AU       S 2710  25.560  10.712   8.063
    5AU     LIG 2711  25.557  10.288   8.199
    5AU     LIG 2712  25.319   9.929   8.297
    5AU     LIG 2713  25.431   9.511   8.424
    5AU     LIG 2714  25.380   9.129   8.679
    5AU     LIG 2715  25.422   8.925   9.098
    5AU     LIG 2716  25.504   8.591   9.417
    5AU       S 2717  26.433  10.988   7.982
    5AU     LIG 2718  26.408  10.507   8.148
    5AU     LIG 2719  26.394  10.047   8.359
    5AU     LIG 2720  26.612   9.687   8.605
    5AU     LIG 2721  26.804   9.252   8.703
    5AU     LIG 2722  27.172   8.998   8.863
    5AU     LIG 2723  27.579   8.754   8.934
    5AU    AUSL 2724  25.514  11.155   7.726
    5AU    AUSL 2725  25.438  11.434   8.003
    5AU     AUL 2726  25.468  11.195   8.155
    5AU       S 2727  25.371  10.752   7.849
    5AU     LIG 2728  25.109  10.423   7.963
    5AU     LIG 2729  25.089   9.991   7.814
    5AU     LIG 2730  25.171   9.542   7.970
    5AU     LIG 2731  25.073   9.154   8.252
    5AU     LIG 2732  24.912   8.722   8.431
    5AU     LIG 2733  24.820   8.276   8.624
    5AU       S 2734  25.025  11.044   8.034
    5AU     LIG 2735  24.788  10.665   8.274
    5AU     LIG 2736  24.415  10.441   8.511
    5AU     LIG 2737  24.103  10.181   8.786
    5AU     LIG 2738  23.882   9.863   9.057
    5AU     LIG 2739  23.862   9.512   9.352
    5AU     LIG 2740  23.964   9.329   9.777
    5AU    AUSL 2741  25.833  11.169   7.669
    5AU    AUSL 2742  25.531  11.116   7.394
    5AU     AUL 2743  25.893  10.905   7.585
    5AU       S 2744  25.223  10.790   7.389
    5AU     LIG 2745  25.073  10.388   7.457
    5AU     LIG 2746  24.970  10.005   7.256
    5AU     LIG 2747  25.011   9.587   7.026
    5AU     LIG 2748  25.021   9.130   6.848
    5AU     LIG 2749  24.832   8.663   6.772
    5AU     LIG 2750  24.879   8.216   6.579
    5AU       S 2751  25.501  10.763   7.821
    5AU     LIG 2752  25.523  10.294   7.697
    5AU     LIG 2753  25.575   9.853   7.865
    5AU     LIG 2754  25.781   9.459   8.054
    5AU     LIG 2755  26.067   9.064   8.156
    5AU     LIG 2756  26.226   8.617   8.209
    5AU     LIG 2757  26.172   8.156   8.328
    5AU    AUSL 2758  25.714  12.438   7.041
    5AU    AUSL 2759  26.096  12.390   7.214
    5AU     AUL 2760  26.015  12.584   6.929
    5AU       S 2761  25.769  13.011   6.949
    5AU     LIG 2762  25.866  13.371   6.653
    5AU     LIG 2763  25.958  13.716   6.344
    5AU     LIG 2764  25.979  13.863   5.879
    5AU     LIG 2765  25.988  14.159   5.503
    5AU     LIG 2766  25.878  14.578   5.310
    5AU     LIG 2767  25.927  14.983   5.081
    5AU       S 2768  26.512  12.381   6.912
    5AU     LIG 2769  26.908  12.638   6.830
    5AU     LIG 2770  27.168  12.832   6.460
    5AU     LIG 2771  27.359  13.135   6.130
    5AU     LIG 2772  27.543  13.584   6.029
    5AU     LIG 2773  27.664  14.065   5.955
    5AU     LIG 2774  27.944  14.362   5.697
    5AU    AUSL 2775  25.533  12.520   7.315
    5AU    AUSL 2776  25.426  12.291   6.955
    5AU     AUL 2777  25.415  12.656   7.034
    5AU       S 2778  25.795  12.984   7.227
    5AU     LIG 2779  25.702  13.477   7.135
    5AU     LIG 2780  25.623  13.844   6.814
    5AU     LIG 2781  25.425  14.282   6.683
    5AU     LIG 2782  25.299  14.706   6.514
    5AU     LIG 2783  25.010  15.105   6.517
    5AU     LIG 2784  24.813  15.541   6.414
    5AU       S 2785  25.131  12.568   6.623
    5AU     LIG 2786  25.117  12.787   6.198
    5AU     LIG 2787  24.951  12.979   5.805
    5AU     LIG 2788  24.958  13.146   5.357
    5AU     LIG 2789  24.878  13.509   5.071
    5AU     LIG 2790  24.604  13.754   4.775
    5AU     LIG 2791  24.177  13.824   4.580
    5AU    AUSL 2792  25.646  11.256   7.114
    5AU    AUSL 2793  25.285  11.289   7.252
    5AU     AUL 2794  25.495  11.080   6.949
    5AU       S 2795  24.990  11.035   6.973
    5AU     LIG 2796  24.748  10.717   7.172
    5AU     LIG 2797  24.453  10.438   6.983
    5AU     LIG 2798  24.085  10.223   6.778
    5AU     LIG 2799  23.768   9.940   6.571
    5AU     LIG 2800  23.617   9.656   6.216
    5AU     LIG 2801  23.233   9.385   6.140
    5AU       S 2802  25.397  10.770   7.311
    5AU     LIG 2803  25.171  10.497   6.963
    5AU     LIG 2804  25.227  10.034   6.811
    5AU     LIG 2805  25.277   9.610   6.585
    5AU     LIG 2806  25.379   9.349   6.201
    5AU     LIG 2807  25.403   9.219   5.737
    5AU     LIG 2808  25.511   8.891   5.421
    5AU    AUSL 2809  25.863  11.154   7.344
    5AU    AUSL 2810  25.916  11.371   6.966
    5AU     AUL 2811  25.907  10.994   7.069
    5AU       S 2812  25.548  10.688   7.311
    5AU     LIG 2813  25.528  10.226   7.199
    5AU     LIG 2814  25.439   9.789   7.256
    5AU     LIG 2815  25.495   9.384   7.009
    5AU     LIG 2816  25.673   8.982   6.792
    5AU     LIG 2817  25.934   8.543   6.751
    5AU     LIG 2818  26.181   8.109   6.674
    5AU       S 2819  26.137  11.145   6.647
    5AU     LIG 2820  26.120  10.739   6.436
    5AU     LIG 2821  26.273  10.308   6.331
    5AU     LIG 2822  26.584  10.052   6.096
    5AU     LIG 2823  26.651   9.804   5.693
    5AU     LIG 2824  26.871   9.597   5.305
    5AU     LIG 2825  27.099   9.435   4.913
    6AU     AUC 2826  25.331  39.064   7.501
    6AU     AUC 2827  25.576  39.065   7.338
    6AU     AUC 2828  25.587  39.069   7.646
    6AU     AUC 2829  25.075  39.059   7.352
    6AU     AUC 2830  25.084  39.068   7.664
    6AU     AUC 2831  25.176  39.312   7.500
    6AU     AUC 2832  25.483  39.316   7.491
    6AU     AUC 2833  25.178  38.811   7.511
    6AU     AUC 2834  25.490  38.816   7.499
    6AU     AUC 2835  25.342  38.915   7.754
    6AU     AUC 2836  25.339  39.225   7.749
    6AU     AUC 2837  25.325  38.907   7.251
    6AU     AUC 2838  25.322  39.216   7.247
    6AU     AUC 2839  25.814  39.065   7.179
    6AU     AUC 2840  25.829  39.065   7.484
    6AU     AUC 2841  25.836  39.073   7.787
    6AU     AUC 2842  24.829  39.052   7.208
    6AU     AUC 2843  24.832  39.074   7.515
    6AU     AUC 2844  24.845  39.073   7.818
    6AU     AUC 2845  25.027  39.556   7.499
    6AU     AUC 2846  25.330  39.562   7.490
    6AU     AUC 2847  25.630  39.560   7.482
    6AU     AUC 2848  25.031  38.570   7.522
    6AU     AUC 2849  25.330  38.567   7.516
    6AU     AUC 2850  25.640  38.575   7.497
    6AU     AUC 2851  25.351  38.767   7.996
    6AU     AUC 2852  25.345  39.067   7.998
    6AU     AUC 2853  25.347  39.376   7.989
    6AU     AUC 2854  25.321  38.754   7.013
    6AU     AUC 2855  25.319  39.053   7.002
    6AU     AUC 2856  25.314  39.360   7.001
    6AU     AUC 2857  25.594  38.917   7.897
    6AU     AUC 2858  25.592  39.223   7.896
    6AU     AUC 2859  25.568  38.907   7.093
    6AU     AUC 2860  25.569  39.215   7.090
    6AU     AUC 2861  25.088  38.914   7.909
    6AU     AUC 2862  25.094  39.222   7.911
    6AU     AUC 2863  25.073  38.901   7.108
    6AU     AUC 2864  25.068  39.205   7.099
    6AU     AUC 2865  25.729  39.314   7.333
    6AU     AUC 2866  25.739  39.316   7.640
    6AU     AUC 2867  24.924  39.308   7.348
    6AU     AUC 2868  24.936  39.320   7.665
    6AU     AUC 2869  25.726  38.811   7.332
    6AU     AUC 2870  25.741  38.818   7.640
    6AU     AUC 2871  24.925  38.811   7.365
    6AU     AUC 2872  24.927  38.822   7.665
    6AU     AUC 2873  25.188  39.472   7.750
    6AU     AUC 2874  25.492  39.473   7.740
    6AU     AUC 2875  25.186  38.666   7.760
    6AU     AUC 2876  25.499  38.668   7.753
    6AU     AUC 2877  25.169  39.462   7.243
    6AU     AUC 2878  25.476  39.465   7.237
    6AU     AUC 2879  25.169  38.656   7.268
    6AU     AUC 2880  25.477  38.656   7.255
    6AU    AUSL 2881  25.769  39.041   8.074
    6AU    AUSL 2882  25.651  38.648   8.053
    6AU     AUL 2883  26.043  38.852   8.200
    6AU       S 2884  25.936  38.371   8.335
    6AU     LIG 2885  25.992  37.968   8.564
    6AU     LIG 2886  26.046  37.585   8.839
    6AU     LIG 2887  26.233  37.248   9.107
    6AU     LIG 2888  26.202  37.055   9.534
    6AU     LIG 2889  26.390  36.918   9.940
    6AU     LIG 2890  26.639  36.712  10.279
    6AU       S 2891  25.806  38.967   8.663
    6AU     LIG 2892  26.150  38.813   8.923
    6AU     LIG 2893  26.278  38.518   9.266
    6AU     LIG 2894  26.432  38.466   9.713
    6AU     LIG 2895  26.692  38.670  10.066
    6AU     LIG 2896  27.009  38.861  10.368
    6AU     LIG 2897  27.305  39.077  10.672
    6AU    AUSL 2898  25.493  38.898   8.211
    6AU    AUSL 2899  25.197  39.213   8.187
    6AU     AUL 2900  25.276  39.015   8.514
    6AU       S 2901  25.696  38.755   8.596
    6AU     LIG 2902  25.859  38.394   8.874
    6AU     LIG 2903  25.862  38.216   9.324
    6AU     LIG 2904  25.944  38.114   9.793
    6AU     LIG 2905  26.006  37.967  10.252
    6AU     LIG 2906  25.973  37.967  10.730
    6AU     LIG 2907  26.140  37.940  11.176
    6AU       S 2908  24.777  39.242   8.624
    6AU     LIG 2909  24.610  39.178   9.096
    6AU     LIG 2910  24.619  38.897   9.508
    6AU     LIG 2911  24.564  38.793   9.974
    6AU     LIG 2912  24.595  38.930  10.429
    6AU     LIG 2913  24.666  39.199  10.824
    6AU     LIG 2914  24.688  39.356  11.275
    6AU    AUSL 2915  25.533  39.242   8.203
    6AU    AUSL 2916  25.888  39.341   7.944
    6AU     AUL 2917  25.963  39.187   8.249
    6AU       S 2918  25.681  39.295   8.653
    6AU     LIG 2919  25.698  39.714   8.898
    6AU     LIG 2920  25.896  39.886   9.307
    6AU     LIG 2921  25.892  39.899   9.805
    6AU     LIG 2922  25.858  39.948  10.291
    6AU     LIG 2923  26.099  39.943  10.704
    6AU     LIG 2924  26.315  40.068  11.113
    6AU       S 2925  26.250  39.579   8.188
    6AU     LIG 2926  26.593  39.483   8.477
    6AU     LIG 2927  26.834  39.615   8.847
    6AU     LIG 2928  27.154  39.894   9.048
    6AU     LIG 2929  27.372  40.024   9.450
    6AU     LIG 2930  27.729  40.041   9.780
    6AU     LIG 2931  28.193  40.122   9.894
    6AU    AUSL 2932  25.756  39.114   6.890
    6AU    AUSL 2933  25.598  39.460   6.933
    6AU     AUL 2934  25.643  39.405   6.581
    6AU       S 2935  25.877  38.982   6.383
    6AU     LIG 2936  26.169  38.687   6.201
    6AU     LIG 2937  26.264  38.490   5.799
    6AU     LIG 2938  26.398  38.511   5.338
    6AU     LIG 2939  26.709  38.463   4.978
    6AU     LIG 2940  27.067  38.528   4.665
    6AU     LIG 2941  27.298  38.739   4.305
    6AU       S 2942  26.074  39.647   6.668
    6AU     LIG 2943  26.364  39.798   6.331
    6AU     LIG 2944  26.610  40.024   5.985
    6AU     LIG 2945  26.805  40.148   5.556
    6AU     LIG 2946  27.043  40.375   5.211
    6AU     LIG 2947  27.065  40.663   4.846
    6AU     LIG 2948  27.004  41.096   4.696
    6AU    AUSL 2949  25.531  38.878   6.799
    6AU    AUSL 2950  25.810  38.799   7.024
    6AU     AUL 2951  26.025  38.938   6.855
    6AU       S 2952  25.979  38.480   6.633
    6AU     LIG 2953  26.191  38.179   6.332
    6AU     LIG 2954  26.438  37.779   6.253
    6AU     LIG 2955  26.739  37.493   6.026
    6AU     LIG 2956  27.083  37.375   5.728
    6AU     LIG 2957  27.462  37.451   5.429
    6AU     LIG 2958  27.801  37.394   5.110
    6AU       S 2959  25.579  38.727   6.386
    6AU     LIG 2960  25.757  38.385   6.131
    6AU     LIG 2961  25.802  38.304   5.678
    6AU     LIG 2962  25.935  38.302   5.223
    6AU     LIG 2963  26.021  38.294   4.750
    6AU     LIG 2964  26.139  38.071   4.339
    6AU     LIG 2965  26.139  38.015   3.860
    6AU    AUSL 2966  25.445  39.198   6.802
    6AU    AUSL 2967  25.194  38.894   6.780
    6AU     AUL 2968  25.336  39.180   6.521
    6AU       S 2969  25.033  38.798   6.287
    6AU     LIG 2970  24.934  38.516   5.906
    6AU     LIG 2971  24.707  38.270   5.563
    6AU     LIG 2972  24.515  38.192   5.139
    6AU     LIG 2973  24.362  38.001   4.735
    6AU     LIG 2974  24.104  37.899   4.361
    6AU     LIG 2975  23.953  37.929   3.921
    6AU       S 2976  25.699  38.857   6.429
    6AU     LIG 2977  25.770  38.836   5.910
    6AU     LIG 2978  25.955  38.764   5.474
    6AU     LIG 2979  26.034  38.767   4.999
    6AU     LIG 2980  26.040  38.993   4.574
    6AU     LIG 2981  26.001  39.138   4.121
    6AU     LIG 2982  26.126  39.463   3.810
    6AU    AUSL 2983  24.903  39.077   8.119
    6AU    AUSL 2984  25.086  39.507   8.069
    6AU     AUL 2985  25.196  39.365   8.400
    6AU       S 2986  24.599  39.087   8.442
    6AU     LIG 2987  24.318  38.884   8.784
    6AU     LIG 2988  24.242  38.705   9.225
    6AU     LIG 2989  24.146  38.641   9.703
    6AU     LIG 2990  23.873  38.495  10.096
    6AU     LIG 2991  23.531  38.552  10.422
    6AU     LIG 2992  23.271  38.781  10.744
    6AU       S 2993  24.887  39.759   8.417
    6AU     LIG 2994  24.855  39.893   8.854
    6AU     LIG 2995  24.685  40.151   9.199
    6AU     LIG 2996  24.382  40.363   9.486
    6AU     LIG 2997  24.276  40.546   9.919
    6AU     LIG 2998  24.054  40.777  10.277
    6AU     LIG 2999  23.911  41.019  10.667
    6AU    AUSL 3000  25.162  38.878   8.204
    6AU    AUSL 3001  24.791  38.803   7.950
    6AU     AUL 3002  24.879  38.689   8.289
    6AU       S 3003  24.524  38.338   8.158
    6AU     LIG 3004  24.103  38.139   8.172
    6AU     LIG 3005  23.731  37.941   8.376
    6AU     LIG 3006  23.395  37.721   8.613
    6AU     LIG 3007  23.193  37.490   8.965
    6AU     LIG 3008  22.869  37.267   9.236
    6AU     LIG 3009  22.479  37.263   9.529
    6AU       S 3010  24.798  38.996   8.664
    6AU     LIG 3011  24.742  38.685   9.015
    6AU     LIG 3012  24.640  38.396   9.359
    6AU     LIG 3013  24.539  38.307   9.789
    6AU     LIG 3014  24.348  38.351  10.204
    6AU     LIG 3015  24.152  38.180  10.605
    6AU     LIG 3016  24.081  38.095  11.075
    6AU    AUSL 3017  24.894  38.981   6.911
    6AU    AUSL 3018  25.037  38.654   6.975
    6AU     AUL 3019  25.144  38.582   6.713
    6AU       S 3020  24.719  38.813   6.489
    6AU     LIG 3021  24.520  38.522   6.221
    6AU     LIG 3022  24.336  38.538   5.789
    6AU     LIG 3023  24.134  38.464   5.358
    6AU     LIG 3024  23.749  38.467   5.046
    6AU     LIG 3025  23.496  38.724   4.718
    6AU     LIG 3026  23.290  38.976   4.358
    6AU       S 3027  24.654  38.391   6.732
    6AU     LIG 3028  24.370  38.008   6.612
    6AU     LIG 3029  24.124  37.647   6.445
    6AU     LIG 3030  23.835  37.386   6.189
    6AU     LIG 3031  23.540  37.182   5.884
    6AU     LIG 3032  23.424  36.944   5.481
    6AU     LIG 3033  23.416  36.686   5.069
    6AU    AUSL 3034  25.113  39.218   6.808
    6AU    AUSL 3035  24.785  39.305   7.051
    6AU     AUL 3036  24.757  39.257   6.723
    6AU       S 3037  24.469  39.652   6.723
    6AU     LIG 3038  24.350  39.750   6.263
    6AU     LIG 3039  24.118  39.999   5.919
    6AU     LIG 3040  23.874  39.985   5.499
    6AU     LIG 3041  23.464  40.020   5.234
    6AU     LIG 3042  23.040  40.234   5.145
    6AU     LIG 3043  22.650  40.455   4.962
    6AU       S 3044  24.924  38.953   6.372
    6AU     LIG 3045  24.669  38.947   5.952
    6AU     LIG 3046  24.681  38.790   5.494
    6AU     LIG 3047  24.689  38.861   5.013
    6AU     LIG 3048  24.719  39.096   4.577
    6AU     LIG 3049  24.636  39.237   4.115
    6AU     LIG 3050  24.340  39.398   3.766
    6AU    AUSL 3051  25.926  39.488   7.450
    6AU    AUSL 3052  25.891  39.355   7.088
    6AU     AUL 3053  25.983  39.801   7.316
    6AU       S 3054  26.227  39.423   6.818
    6AU     LIG 3055  26.632  39.444   6.593
    6AU     LIG 3056  26.852  39.612   6.205
    6AU     LIG 3057  27.097  39.864   5.882
    6AU     LIG 3058  27.328  40.031   5.493
    6AU     LIG 3059  27.749  40.173   5.311
    6AU     LIG 3060  28.093  40.463   5.134
    6AU       S 3061  26.445  39.578   7.363
    6AU     LIG 3062  26.899  39.659   7.461
    6AU     LIG 3063  27.356  39.582   7.350
    6AU     LIG 3064  27.827  39.638   7.432
    6AU     LIG 3065  28.169  39.972   7.507
    6AU     LIG 3066  28.369  40.418   7.540
    6AU     LIG 3067  28.622  40.818   7.640
    6AU    AUSL 3068  26.048  39.190   7.327
    6AU    AUSL 3069  26.044  38.922   7.614
    6AU     AUL 3070  26.345  38.917   7.367
    6AU       S 3071  26.463  39.389   7.258
    6AU     LIG 3072  26.921  39.229   7.194
    6AU     LIG 3073  27.386  39.096   7.168
    6AU     LIG 3074  27.871  39.166   7.197
    6AU     LIG 3075  28.374  39.230   7.151
    6AU     LIG 3076  28.761  39.550   7.049
    6AU     LIG 3077  29.097  39.904   7.009
    6AU       S 3078  26.442  38.464   7.650
    6AU     LIG 3079  26.844  38.293   7.855
    6AU     LIG 3080  27.209  37.991   7.934
    6AU     LIG 3081  27.645  37.964   7.779
    6AU     LIG 3082  28.036  37.994   8.012
    6AU     LIG 3083  28.466  38.117   8.117
    6AU     LIG 3084  28.878  37.991   8.254
    6AU    AUSL 3085  26.040  39.251   7.664
    6AU    AUSL 3086  25.773  39.579   7.740
    6AU     AUL 3087  26.076  39.649   7.713
    6AU       S 3088  26.079  39.703   8.209
    6AU     LIG 3089  26.401  39.969   8.476
    6AU     LIG 3090  26.783  40.109   8.721
    6AU     LIG 3091  27.061  40.422   8.943
    6AU     LIG 3092  27.216  40.889   8.909
    6AU     LIG 3093  27.450  41.319   8.929
    6AU     LIG 3094  27.533  41.754   9.118
    6AU       S 3095  26.487  39.362   7.617
    6AU     LIG 3096  26.905  39.200   7.715
    6AU     LIG 3097  27.361  39.205   7.688
    6AU     LIG 3098  27.840  39.197   7.711
    6AU     LIG 3099  28.325  39.281   7.662
    6AU     LIG 3100  28.719  39.560   7.750
    6AU     LIG 3101  29.065  39.873   7.924
    6AU    AUSL 3102  24.736  39.528   7.528
    6AU    AUSL 3103  24.797  39.342   7.943
    6AU     AUL 3104  24.622  39.730   7.810
    6AU       S 3105  24.562  39.534   8.278
    6AU     LIG 3106  24.445  39.593   8.740
    6AU     LIG 3107  24.264  39.933   9.007
    6AU     LIG 3108  23.962  40.080   9.346
    6AU     LIG 3109  23.554  40.101   9.605
    6AU     LIG 3110  23.122  40.129   9.816
    6AU     LIG 3111  22.700  40.178  10.032
    6AU       S 3112  24.183  39.618   7.604
    6AU     LIG 3113  23.959  40.071   7.568
    6AU     LIG 3114  23.690  40.481   7.633
    6AU     LIG 3115  23.365  40.820   7.559
    6AU     LIG 3116  22.903  40.965   7.504
    6AU     LIG 3117  22.512  41.221   7.441
    6AU     LIG 3118  22.054  41.153   7.442
    6AU    AUSL 3119  24.657  39.250   7.353
    6AU    AUSL 3120  24.875  39.585   7.230
    6AU     AUL 3121  24.542  39.591   7.233
    6AU       S 3122  24.043  39.373   7.479
    6AU     LIG 3123  23.857  39.449   7.025
    6AU     LIG 3124  23.457  39.618   6.789
    6AU     LIG 3125  22.987  39.722   6.827
    6AU     LIG 3126  22.586  39.932   6.736
    6AU     LIG 3127  22.151  40.117   6.733
    6AU     LIG 3128  21.777  40.405   6.651
    6AU       S 3129  24.581  39.904   6.835
    6AU     LIG 3130  24.388  40.200   6.495
    6AU     LIG 3131  24.230  40.507   6.145
    6AU     LIG 3132  24.192  40.986   6.019
    6AU     LIG 3133  24.015  41.409   5.857
    6AU     LIG 3134  23.656  41.725   5.768
    6AU     LIG 3135  23.328  42.092   5.797
    6AU    AUSL 3136  24.620  39.247   7.677
    6AU    AUSL 3137  24.586  38.924   7.354
    6AU     AUL 3138  24.438  39.249   7.225
    6AU       S 3139  24.121  38.872   7.370
    6AU     LIG 3140  23.654  39.001   7.579
    6AU     LIG 3141  23.155  38.986   7.619
    6AU     LIG 3142  22.822  38.643   7.627
    6AU     LIG 3143  22.510  38.320   7.427
    6AU     LIG 3144  22.071  38.324   7.247
    6AU     LIG 3145  21.634  38.252   7.090
    6AU       S 3146  24.240  39.306   7.811
    6AU     LIG 3147  23.774  39.393   7.926
    6AU     LIG 3148  23.384  39.624   8.102
    6AU     LIG 3149  22.947  39.784   8.192
    6AU     LIG 3150  22.514  39.963   8.273
    6AU     LIG 3151  22.200  40.312   8.379
    6AU     LIG 3152  21.763  40.471   8.371
    6AU    AUSL 3153  25.946  38.621   7.504
    6AU    AUSL 3154  25.895  38.799   7.883
    6AU     AUL 3155  26.228  38.858   7.839
    6AU       S 3156  26.173  38.252   7.490
    6AU     LIG 3157  26.475  37.962   7.692
    6AU     LIG 3158  26.892  37.815   7.576
    6AU     LIG 3159  27.323  37.626   7.541
    6AU     LIG 3160  27.645  37.257   7.548
    6AU     LIG 3161  28.046  37.037   7.688
    6AU     LIG 3162  28.415  36.752   7.586
    6AU       S 3163  26.102  38.381   8.123
    6AU     LIG 3164  26.431  38.119   8.338
    6AU     LIG 3165  26.488  37.770   8.654
    6AU     LIG 3166  26.695  37.458   8.936
    6AU     LIG 3167  26.997  37.339   9.277
    6AU     LIG 3168  27.357  37.440   9.587
    6AU     LIG 3169  27.703  37.538   9.903
    6AU    AUSL 3170  25.996  38.868   7.289
    6AU    AUSL 3171  25.771  38.523   7.223
    6AU     AUL 3172  26.133  38.654   7.113
    6AU       S 3173  26.294  38.419   7.510
    6AU     LIG 3174  26.781  38.278   7.345
    6AU     LIG 3175  27.194  38.052   7.229
    6AU     LIG 3176  27.639  37.920   7.247
    6AU     LIG 3177  28.048  38.046   7.048
    6AU     LIG 3178  28.559  38.094   7.077
    6AU     LIG 3179  28.979  37.923   6.886
    6AU       S 3180  25.996  38.249   6.843
    6AU     LIG 3181  26.150  37.827   6.706
    6AU     LIG 3182  26.266  37.398   6.563
    6AU     LIG 3183  26.544  37.119   6.322
    6AU     LIG 3184  26.928  36.992   6.090
    6AU     LIG 3185  27.190  36.607   6.063
    6AU     LIG 3186  27.437  36.309   5.800
    6AU    AUSL 3187  24.747  38.666   7.500
    6AU    AUSL 3188  24.759  38.770   7.127
    6AU     AUL 3189  24.558  38.493   7.398
    6AU       S 3190  24.493  38.559   6.873
    6AU     LIG 3191  24.087  38.339   6.897
    6AU     LIG 3192  23.825  38.002   6.673
    6AU     LIG 3193  23.538  37.769   6.362
    6AU     LIG 3194  23.223  37.548   6.083
    6AU     LIG 3195  22.838  37.419   5.847
    6AU     LIG 3196  22.579  37.625   5.523
    6AU       S 3197  24.210  38.779   7.235
    6AU     LIG 3198  23.807  38.489   7.341
    6AU     LIG 3199  23.335  38.482   7.469
    6AU     LIG 3200  22.978  38.150   7.554
    6AU     LIG 3201  22.584  37.843   7.611
    6AU     LIG 3202  22.250  37.504   7.480
    6AU     LIG 3203  21.911  37.259   7.265
    6AU    AUSL 3204  24.631  38.923   7.686
    6AU    AUSL 3205  24.873  38.516   7.771
    6AU     AUL 3206  24.492  38.656   7.779
    6AU       S 3207  24.616  38.168   7.841
    6AU     LIG 3208  24.279  37.908   7.724
    6AU     LIG 3209  23.969  37.672   7.974
    6AU     LIG 3210  23.692  37.434   8.274
    6AU     LIG 3211  23.434  37.202   8.593
    6AU     LIG 3212  23.175  36.973   8.907
    6AU     LIG 3213  22.913  36.604   9.015
    6AU       S 3214  24.160  38.894   7.492
    6AU     LIG 3215  23.717  38.918   7.098
    6AU     LIG 3216  23.198  38.844   7.123
    6AU     LIG 3217  22.702  38.781   7.155
    6AU     LIG 3218  22.310  38.766   7.466
    6AU     LIG 3219  22.046  38.492   7.740
    6AU     LIG 3220  21.596  38.415   7.873
    6AU    AUSL 3221  25.336  39.681   7.927
    6AU    AUSL 3222  24.943  39.591   7.780
    6AU     AUL 3223  24.970  39.875   7.916
    6AU       S 3224  24.752  39.682   8.319
    6AU     LIG 3225  24.491  40.059   8.531
    6AU     LIG 3226  24.414  40.425   8.845
    6AU     LIG 3227  24.357  40.910   8.934
    6AU     LIG 3228  24.074  41.295   9.000
    6AU     LIG 3229  23.685  41.441   9.226
    6AU     LIG 3230  23.262  41.338   9.432
    6AU       S 3231  25.359  40.126   8.108
    6AU     LIG 3232  25.609  40.285   8.431
    6AU     LIG 3233  25.699  40.715   8.536
    6AU     LIG 3234  25.625  41.122   8.763
    6AU     LIG 3235  25.612  41.361   9.179
    6AU     LIG 3236  25.527  41.678   9.526
    6AU     LIG 3237  25.328  42.037   9.768
    6AU    AUSL 3238  25.180  39.777   7.640
    6AU    AUSL 3239  25.474  39.798   7.324
    6AU     AUL 3240  25.025  40.020   7.440
    6AU       S 3241  25.282  40.265   7.830
    6AU     LIG 3242  25.277  40.621   8.168
    6AU     LIG 3243  25.387  41.053   8.297
    6AU     LIG 3244  25.248  41.472   8.444
    6AU     LIG 3245  24.928  41.825   8.379
    6AU     LIG 3246  24.908  42.261   8.545
    6AU     LIG 3247  24.963  42.644   8.811
    6AU       S 3248  25.620  40.216   7.252
    6AU     LIG 3249  25.874  40.583   7.051
    6AU     LIG 3250  26.040  40.980   6.810
    6AU     LIG 3251  26.309  41.389   6.702
    6AU     LIG 3252  26.483  41.847   6.606
    6AU     LIG 3253  26.281  42.260   6.462
    6AU     LIG 3254  26.372  42.704   6.280
    6AU    AUSL 3255  25.516  39.768   7.647
    6AU    AUSL 3256  25.603  39.513   8.029
    6AU     AUL 3257  25.717  39.853   7.900
    6AU       S 3258  25.867  39.666   8.342
    6AU     LIG 3259  26.153  39.591   8.718
    6AU     LIG 3260  26.404  39.866   9.003
    6AU     LIG 3261  26.737  40.113   9.244
    6AU     LIG 3262  26.970  40.320   9.607
    6AU     LIG 3263  26.990  40.629   9.979
    6AU     LIG 3264  26.830  41.011  10.234
    6AU       S 3265  25.485  40.254   7.735
    6AU     LIG 3266  25.752  40.556   8.009
    6AU     LIG 3267  25.955  40.977   8.158
    6AU     LIG 3268  26.322  41.321   8.106
    6AU     LIG 3269  26.503  41.776   8.089
    6AU     LIG 3270  26.589  42.227   8.261
    6AU     LIG 3271  26.540  42.481   8.652
    6AU    AUSL 3272  25.370  38.485   7.966
    6AU    AUSL 3273  25.764  38.515   7.759
    6AU     AUL 3274  25.601  38.248   7.986
    6AU       S 3275  25.220  37.923   8.067
    6AU     LIG 3276  24.958  37.587   8.220
    6AU     LIG 3277  24.756  37.175   8.225
    6AU     LIG 3278  24.846  36.726   8.342
    6AU     LIG 3279  24.901  36.386   8.668
    6AU     LIG 3280  24.966  36.191   9.104
    6AU     LIG 3281  25.016  35.861   9.443
    6AU       S 3282  26.101  38.280   7.970
    6AU     LIG 3283  26.101  37.852   8.047
    6AU     LIG 3284  26.161  37.523   8.333
    6AU     LIG 3285  26.370  37.232   8.609
    6AU     LIG 3286  26.633  36.945   8.875
    6AU     LIG 3287  26.956  36.593   8.914
    6AU     LIG 3288  27.254  36.236   9.033
    6AU    AUSL 3289  25.163  38.364   7.720
    6AU    AUSL 3290  25.078  38.636   7.996
    6AU     AUL 3291  25.114  38.404   8.152
    6AU       S 3292  25.041  37.950   7.833
    6AU     LIG 3293  24.727  37.664   7.773
    6AU     LIG 3294  24.705  37.226   7.709
    6AU     LIG 3295  24.653  36.782   7.864
    6AU     LIG 3296  24.515  36.380   8.092
    6AU     LIG 3297  24.549  35.948   8.280
    6AU     LIG 3298  24.452  35.519   8.479
    6AU       S 3299  24.686  38.226   8.016
    6AU     LIG 3300  24.496  37.818   8.202
    6AU     LIG 3301  24.148  37.645   8.459
    6AU     LIG 3302  23.828  37.493   8.775
    6AU     LIG 3303  23.613  37.209   9.091
    6AU     LIG 3304  23.579  37.021   9.529
    6AU     LIG 3305  23.652  36.957  10.001
    6AU    AUSL 3306  25.483  38.381   7.667
    6AU    AUSL 3307  25.166  38.327   7.387
    6AU     AUL 3308  25.536  38.114   7.564
    6AU       S 3309  24.841  37.983   7.387
    6AU     LIG 3310  24.580  37.544   7.310
    6AU     LIG 3311  24.621  37.061   7.223
    6AU     LIG 3312  24.507  36.605   7.057
    6AU     LIG 3313  24.263  36.154   7.004
    6AU     LIG 3314  24.258  35.680   6.839
    6AU     LIG 3315  24.219  35.219   6.717
    6AU       S 3316  25.162  37.971   7.828
    6AU     LIG 3317  25.194  37.470   7.776
    6AU     LIG 3318  25.130  37.009   7.910
    6AU     LIG 3319  25.239  36.554   8.028
    6AU     LIG 3320  25.578  36.198   8.084
    6AU     LIG 3321  25.817  35.812   8.242
    6AU     LIG 3322  25.919  35.383   8.385
    6AU    AUSL 3323  25.341  39.654   7.039
    6AU    AUSL 3324  25.720  39.604   7.214
    6AU     AUL 3325  25.651  39.799   6.934
    6AU       S 3326  25.385  40.212   6.939
    6AU     LIG 3327  25.578  40.510   6.639
    6AU     LIG 3328  25.661  40.832   6.303
    6AU     LIG 3329  25.600  40.995   5.845
    6AU     LIG 3330  25.542  41.377   5.564
    6AU     LIG 3331  25.662  41.772   5.348
    6AU     LIG 3332  25.616  42.172   5.124
    6AU       S 3333  26.142  39.585   6.909
    6AU     LIG 3334  26.514  39.870   6.843
    6AU     LIG 3335  26.796  40.038   6.490
    6AU     LIG 3336  27.025  40.309   6.162
    6AU     LIG 3337  27.284  40.723   6.087
    6AU     LIG 3338  27.521  41.166   6.088
    6AU     LIG 3339  27.767  41.607   6.074
    6AU    AUSL 3340  25.157  39.730   7.314
    6AU    AUSL 3341  25.055  39.505   6.956
    6AU     AUL 3342  25.030  39.871   7.051
    6AU       S 3343  25.426  40.190   7.225
    6AU     LIG 3344  25.379  40.671   7.125
    6AU     LIG 3345  25.514  40.994   6.814
    6AU     LIG 3346  25.386  41.418   6.658
    6AU     LIG 3347  25.094  41.794   6.613
    6AU     LIG 3348  25.048  42.240   6.475
    6AU     LIG 3349  25.002  42.706   6.394
    6AU       S 3350  24.788  39.758   6.621
    6AU     LIG 3351  24.797  40.012   6.239
    6AU     LIG 3352  24.582  40.220   5.891
    6AU     LIG 3353  24.291  40.325   5.534
    6AU     LIG 3354  24.189  40.554   5.120
    6AU     LIG 3355  23.966  40.868   4.831
    6AU     LIG 3356  23.734  41.238   4.632
    6AU    AUSL 3357  25.281  38.469   7.108
    6AU    AUSL 3358  24.917  38.500   7.251
    6AU     AUL 3359  25.127  38.290   6.947
    6AU       S 3360  24.618  38.257   6.964
    6AU     LIG 3361  24.355  37.963   7.139
    6AU     LIG 3362  24.077  37.652   6.968
    6AU     LIG 3363  23.725  37.451   6.715
    6AU     LIG 3364  23.411  37.222   6.428
    6AU     LIG 3365  23.097  37.037   6.110
    6AU     LIG 3366  22.846  36.704   5.883
    6AU       S 3367  25.023  37.989   7.316
    6AU     LIG 3368  24.825  37.762   6.929
    6AU     LIG 3369  24.824  37.302   6.819
    6AU     LIG 3370  24.900  36.838   6.686
    6AU     LIG 3371  25.060  36.523   6.344
    6AU     LIG 3372  25.061  36.320   5.889
    6AU     LIG 3373  24.956  36.050   5.492
    6AU    AUSL 3374  25.498  38.374   7.339
    6AU    AUSL 3375  25.552  38.587   6.964
    6AU     AUL 3376  25.545  38.207   7.072
    6AU       S 3377  25.173  37.902   7.311
    6AU     LIG 3378  25.069  37.436   7.276
    6AU     LIG 3379  25.132  36.980   7.128
    6AU     LIG 3380  25.315  36.570   6.912
    6AU     LIG 3381  25.498  36.127   6.792
    6AU     LIG 3382  25.737  35.768   6.598
    6AU     LIG 3383  26.088  35.481   6.765
    6AU       S 3384  25.765  38.368   6.647
    6AU     LIG 3385  25.730  37.973   6.445
    6AU     LIG 3386  25.945  37.635   6.233
    6AU     LIG 3387  26.237  37.359   5.990
    6AU     LIG 3388  26.551  37.104   5.723
    6AU     LIG 3389  26.612  36.873   5.300
    6AU     LIG 3390  26.831  36.813   4.867
    7AU     AUC 3391  22.889  22.564   7.503
    7AU     AUC 3392  23.135  22.563   7.339
    7AU     AUC 3393  23.145  22.567   7.648
    7AU     AUC 3394  22.633  22.560   7.354
    7AU     AUC 3395  22.643  22.569   7.666
    7AU     AUC 3396  22.735  22.813   7.501
    7AU     AUC 3397  23.043  22.815   7.493
    7AU     AUC 3398  22.734  22.312   7.513
    7AU     AUC 3399  23.046  22.314   7.501
    7AU     AUC 3400  22.899  22.414   7.755
    7AU     AUC 3401  22.899  22.725   7.751
    7AU     AUC 3402  22.883  22.407   7.252
    7AU     AUC 3403  22.881  22.716   7.249
    7AU     AUC 3404  23.372  22.561   7.181
    7AU     AUC 3405  23.387  22.560   7.486
    7AU     AUC 3406  23.394  22.568   7.789
    7AU     AUC 3407  22.388  22.555   7.208
    7AU     AUC 3408  22.391  22.577   7.517
    7AU     AUC 3409  22.407  22.575   7.824
    7AU     AUC 3410  22.586  23.056   7.500
    7AU     AUC 3411  22.890  23.062   7.491
    7AU     AUC 3412  23.191  23.058   7.484
    7AU     AUC 3413  22.585  22.072   7.522
    7AU     AUC 3414  22.884  22.067   7.518
    7AU     AUC 3415  23.193  22.071   7.499
    7AU     AUC 3416  22.907  22.267   7.998
    7AU     AUC 3417  22.904  22.567   8.001
    7AU     AUC 3418  22.908  22.876   7.990
    7AU     AUC 3419  22.878  22.255   7.015
    7AU     AUC 3420  22.879  22.554   7.003
    7AU     AUC 3421  22.875  22.860   7.003
    7AU     AUC 3422  23.152  22.414   7.899
    7AU     AUC 3423  23.152  22.721   7.898
    7AU     AUC 3424  23.125  22.405   7.094
    7AU     AUC 3425  23.130  22.713   7.092
    7AU     AUC 3426  22.645  22.415   7.910
    7AU     AUC 3427  22.658  22.722   7.915
    7AU     AUC 3428  22.631  22.403   7.109
    7AU     AUC 3429  22.628  22.707   7.101
    7AU     AUC 3430  23.289  22.810   7.335
    7AU     AUC 3431  23.299  22.812   7.642
    7AU     AUC 3432  22.482  22.809   7.350
    7AU     AUC 3433  22.497  22.822   7.668
    7AU     AUC 3434  23.282  22.307   7.334
    7AU     AUC 3435  23.297  22.313   7.642
    7AU     AUC 3436  22.482  22.314   7.365
    7AU     AUC 3437  22.483  22.324   7.665
    7AU     AUC 3438  22.749  22.973   7.751
    7AU     AUC 3439  23.054  22.972   7.741
    7AU     AUC 3440  22.740  22.167   7.761
    7AU     AUC 3441  23.053  22.166   7.755
    7AU     AUC 3442  22.729  22.962   7.245
    7AU     AUC 3443  23.037  22.963   7.239
    7AU     AUC 3444  22.725  22.157   7.269
    7AU     AUC 3445  23.032  22.154   7.256
    7AU    AUSL 3446  23.327  22.538   8.076
    7AU    AUSL 3447  23.206  22.146   8.055
    7AU     AUL 3448  23.604  22.352   8.198
    7AU       S 3449  23.476  21.878   8.337
    7AU     LIG 3450  23.482  21.491   8.576
    7AU     LIG 3451  23.508  21.089   8.777
    7AU     LIG 3452  23.746  20.745   8.960
    7AU     LIG 3453  23.935  20.492   9.314
    7AU     LIG 3454  23.947  20.271   9.748
    7AU     LIG 3455  24.103  20.143  10.183
    7AU       S 3456  23.370  22.457   8.666
    7AU     LIG 3457  23.687  22.324   8.989
    7AU     LIG 3458  23.829  22.040   9.351
    7AU     LIG 3459  24.065  21.895   9.746
    7AU     LIG 3460  24.379  21.889  10.115
    7AU     LIG 3461  24.730  21.978  10.434
    7AU     LIG 3462  25.123  22.117  10.673
    7AU    AUSL 3463  23.051  22.397   8.213
    7AU    AUSL 3464  22.754  22.713   8.188
    7AU     AUL 3465  22.833  22.518   8.515
    7AU       S 3466  23.251  22.260   8.596
    7AU     LIG 3467  23.414  21.912   8.865
    7AU     LIG 3468  23.477  21.671   9.264
    7AU     LIG 3469  23.584  21.663   9.729
    7AU     LIG 3470  23.521  21.497  10.180
    7AU     LIG 3471  23.646  21.432  10.635
    7AU     LIG 3472  23.796  21.498  11.078
    7AU       S 3473  22.333  22.730   8.631
    7AU     LIG 3474  22.159  22.683   9.093
    7AU     LIG 3475  22.163  22.420   9.503
    7AU     LIG 3476  22.092  22.315   9.960
    7AU     LIG 3477  22.043  22.576  10.367
    7AU     LIG 3478  22.056  22.872  10.750
    7AU     LIG 3479  21.980  23.209  11.087
    7AU    AUSL 3480  23.091  22.741   8.205
    7AU    AUSL 3481  23.448  22.837   7.945
    7AU     AUL 3482  23.518  22.685   8.253
    7AU       S 3483  23.237  22.794   8.655
    7AU     LIG 3484  23.233  23.237   8.841
    7AU     LIG 3485  23.462  23.415   9.217
    7AU     LIG 3486  23.466  23.426   9.704
    7AU     LIG 3487  23.479  23.357  10.184
    7AU     LIG 3488  23.622  23.271  10.630
    7AU     LIG 3489  23.776  23.297  11.072
    7AU       S 3490  23.803  23.078   8.198
    7AU     LIG 3491  24.137  22.974   8.482
    7AU     LIG 3492  24.371  23.193   8.807
    7AU     LIG 3493  24.672  23.454   9.058
    7AU     LIG 3494  25.012  23.489   9.403
    7AU     LIG 3495  25.388  23.501   9.718
    7AU     LIG 3496  25.778  23.710   9.906
    7AU    AUSL 3497  23.317  22.611   6.893
    7AU    AUSL 3498  23.161  22.959   6.937
    7AU     AUL 3499  23.206  22.901   6.582
    7AU       S 3500  23.443  22.477   6.384
    7AU     LIG 3501  23.737  22.186   6.177
    7AU     LIG 3502  23.866  22.007   5.752
    7AU     LIG 3503  23.960  21.994   5.269
    7AU     LIG 3504  24.263  21.874   4.890
    7AU     LIG 3505  24.601  21.959   4.530
    7AU     LIG 3506  24.905  22.169   4.205
    7AU       S 3507  23.636  23.146   6.674
    7AU     LIG 3508  23.898  23.362   6.351
    7AU     LIG 3509  24.147  23.600   6.012
    7AU     LIG 3510  24.250  23.671   5.542
    7AU     LIG 3511  24.368  23.882   5.125
    7AU     LIG 3512  24.557  24.220   4.848
    7AU     LIG 3513  24.575  24.672   4.730
    7AU    AUSL 3514  23.089  22.376   6.799
    7AU    AUSL 3515  23.366  22.294   7.024
    7AU     AUL 3516  23.584  22.432   6.859
    7AU       S 3517  23.532  21.979   6.632
    7AU     LIG 3518  23.765  21.695   6.343
    7AU     LIG 3519  23.899  21.258   6.213
    7AU     LIG 3520  24.116  20.851   6.061
    7AU     LIG 3521  24.469  20.732   5.745
    7AU     LIG 3522  24.879  20.822   5.477
    7AU     LIG 3523  25.255  20.812   5.165
    7AU       S 3524  23.143  22.226   6.388
    7AU     LIG 3525  23.324  21.887   6.125
    7AU     LIG 3526  23.412  21.790   5.674
    7AU     LIG 3527  23.570  21.639   5.247
    7AU     LIG 3528  23.585  21.464   4.797
    7AU     LIG 3529  23.745  21.515   4.359
    7AU     LIG 3530  23.896  21.557   3.903
    7AU    AUSL 3531  23.009  22.698   6.803
    7AU    AUSL 3532  22.751  22.395   6.781
    7AU     AUL 3533  22.893  22.675   6.519
    7AU       S 3534  22.572  22.302   6.292
    7AU     LIG 3535  22.475  22.025   5.910
    7AU     LIG 3536  22.277  21.782   5.549
    7AU     LIG 3537  22.003  21.580   5.223
    7AU     LIG 3538  21.820  21.594   4.795
    7AU     LIG 3539  21.862  21.502   4.342
    7AU     LIG 3540  22.050  21.658   3.928
    7AU       S 3541  23.262  22.361   6.426
    7AU     LIG 3542  23.334  22.341   5.901
    7AU     LIG 3543  23.522  22.259   5.445
    7AU     LIG 3544  23.615  22.365   4.964
    7AU     LIG 3545  23.619  22.632   4.527
    7AU     LIG 3546  23.773  22.858   4.098
    7AU     LIG 3547  23.940  23.065   3.678
    7AU    AUSL 3548  22.462  22.570   8.123
    7AU    AUSL 3549  22.655  23.015   8.071
    7AU     AUL 3550  22.745  22.863   8.403
    7AU       S 3551  22.156  22.589   8.444
    7AU     LIG 3552  21.875  22.386   8.779
    7AU     LIG 3553  21.794  22.211   9.214
    7AU     LIG 3554  21.725  22.079   9.674
    7AU     LIG 3555  21.503  21.954  10.098
    7AU     LIG 3556  21.098  21.981  10.383
    7AU     LIG 3557  20.688  22.177  10.558
    7AU       S 3558  22.476  23.286   8.413
    7AU     LIG 3559  22.406  23.417   8.845
    7AU     LIG 3560  22.206  23.577   9.225
    7AU     LIG 3561  21.901  23.864   9.432
    7AU     LIG 3562  21.803  24.065   9.862
    7AU     LIG 3563  21.663  24.366  10.216
    7AU     LIG 3564  21.435  24.740  10.421
    7AU    AUSL 3565  22.721  22.376   8.208
    7AU    AUSL 3566  22.342  22.307   7.946
    7AU     AUL 3567  22.430  22.188   8.287
    7AU       S 3568  22.064  21.851   8.150
    7AU     LIG 3569  21.654  21.628   8.183
    7AU     LIG 3570  21.288  21.427   8.404
    7AU     LIG 3571  20.930  21.206   8.611
    7AU     LIG 3572  20.668  20.957   8.909
    7AU     LIG 3573  20.371  20.904   9.272
    7AU     LIG 3574  20.093  21.099   9.620
    7AU       S 3575  22.359  22.483   8.674
    7AU     LIG 3576  22.289  22.182   9.040
    7AU     LIG 3577  22.172  21.911   9.419
    7AU     LIG 3578  22.086  21.756   9.856
    7AU     LIG 3579  21.903  21.628  10.266
    7AU     LIG 3580  21.853  21.769  10.710
    7AU     LIG 3581  21.618  21.646  11.112
    7AU    AUSL 3582  22.453  22.488   6.909
    7AU    AUSL 3583  22.596  22.155   6.973
    7AU     AUL 3584  22.704  22.087   6.711
    7AU       S 3585  22.263  22.341   6.509
    7AU     LIG 3586  22.074  22.043   6.240
    7AU     LIG 3587  21.916  22.044   5.804
    7AU     LIG 3588  21.745  22.006   5.358
    7AU     LIG 3589  21.438  21.918   4.990
    7AU     LIG 3590  21.114  22.011   4.634
    7AU     LIG 3591  20.826  22.224   4.330
    7AU       S 3592  22.216  21.899   6.724
    7AU     LIG 3593  21.932  21.530   6.583
    7AU     LIG 3594  21.679  21.153   6.466
    7AU     LIG 3595  21.365  20.912   6.214
    7AU     LIG 3596  21.094  20.823   5.835
    7AU     LIG 3597  21.050  20.732   5.360
    7AU     LIG 3598  20.959  20.430   4.998
    7AU    AUSL 3599  22.680  22.720   6.812
    7AU    AUSL 3600  22.346  22.801   7.048
    7AU     AUL 3601  22.367  22.800   6.705
    7AU       S 3602  22.022  23.151   6.736
    7AU     LIG 3603  21.910  23.216   6.284
    7AU     LIG 3604  21.706  23.378   5.891
    7AU     LIG 3605  21.372  23.398   5.552
    7AU     LIG 3606  20.925  23.494   5.430
    7AU     LIG 3607  20.548  23.631   5.181
    7AU     LIG 3608  20.264  23.917   4.953
    7AU       S 3609  22.472  22.449   6.378
    7AU     LIG 3610  22.221  22.463   5.957
    7AU     LIG 3611  22.242  22.304   5.499
    7AU     LIG 3612  22.273  22.311   5.017
    7AU     LIG 3613  22.337  22.466   4.553
    7AU     LIG 3614  22.180  22.622   4.127
    7AU     LIG 3615  21.968  22.777   3.723
    7AU    AUSL 3616  23.487  22.981   7.453
    7AU    AUSL 3617  23.451  22.851   7.092
    7AU     AUL 3618  23.550  23.293   7.325
    7AU       S 3619  23.784  22.917   6.823
    7AU     LIG 3620  24.129  22.936   6.528
    7AU     LIG 3621  24.377  23.178   6.214
    7AU     LIG 3622  24.574  23.362   5.823
    7AU     LIG 3623  24.915  23.434   5.497
    7AU     LIG 3624  25.349  23.593   5.402
    7AU     LIG 3625  25.629  23.918   5.214
    7AU       S 3626  24.014  23.070   7.361
    7AU     LIG 3627  24.488  23.132   7.427
    7AU     LIG 3628  24.968  23.093   7.500
    7AU     LIG 3629  25.425  23.252   7.430
    7AU     LIG 3630  25.652  23.670   7.462
    7AU     LIG 3631  25.886  24.077   7.500
    7AU     LIG 3632  26.224  24.390   7.412
    7AU    AUSL 3633  23.607  22.682   7.330
    7AU    AUSL 3634  23.599  22.413   7.616
    7AU     AUL 3635  23.902  22.399   7.374
    7AU       S 3636  24.003  22.877   7.267
    7AU     LIG 3637  24.360  22.887   6.998
    7AU     LIG 3638  24.819  22.840   7.082
    7AU     LIG 3639  25.281  22.932   7.033
    7AU     LIG 3640  25.719  22.891   7.166
    7AU     LIG 3641  26.181  22.908   7.218
    7AU     LIG 3642  26.433  23.231   7.030
    7AU       S 3643  23.979  21.933   7.640
    7AU     LIG 3644  24.398  21.769   7.751
    7AU     LIG 3645  24.793  21.550   7.756
    7AU     LIG 3646  25.201  21.382   7.809
    7AU     LIG 3647  25.665  21.333   7.808
    7AU     LIG 3648  26.136  21.285   7.888
    7AU     LIG 3649  26.619  21.225   7.906
    7AU    AUSL 3650  23.600  22.742   7.667
    7AU    AUSL 3651  23.336  23.077   7.741
    7AU     AUL 3652  23.648  23.132   7.716
    7AU       S 3653  23.637  23.204   8.212
    7AU     LIG 3654  23.981  23.471   8.465
    7AU     LIG 3655  24.327  23.701   8.695
    7AU     LIG 3656  24.538  24.111   8.847
    7AU     LIG 3657  24.866  24.445   8.711
    7AU     LIG 3658  25.202  24.788   8.813
    7AU     LIG 3659  25.297  25.267   8.808
    7AU       S 3660  24.061  22.845   7.614
    7AU     LIG 3661  24.525  22.668   7.638
    7AU     LIG 3662  24.966  22.505   7.785
    7AU     LIG 3663  25.414  22.554   7.987
    7AU     LIG 3664  25.821  22.783   8.015
    7AU     LIG 3665  26.257  22.867   7.888
    7AU     LIG 3666  26.503  23.245   7.771
    7AU    AUSL 3667  22.291  23.028   7.525
    7AU    AUSL 3668  22.374  22.848   7.968
    7AU     AUL 3669  22.170  23.201   7.822
    7AU       S 3670  22.146  23.050   8.308
    7AU     LIG 3671  22.009  23.089   8.764
    7AU     LIG 3672  21.765  23.383   9.047
    7AU     LIG 3673  21.460  23.590   9.361
    7AU     LIG 3674  21.043  23.613   9.616
    7AU     LIG 3675  20.623  23.724   9.836
    7AU     LIG 3676  20.182  23.887   9.945
    7AU       S 3677  21.733  23.161   7.578
    7AU     LIG 3678  21.510  23.553   7.462
    7AU     LIG 3679  21.321  23.989   7.517
    7AU     LIG 3680  20.991  24.328   7.561
    7AU     LIG 3681  20.623  24.622   7.559
    7AU     LIG 3682  20.198  24.701   7.662
    7AU     LIG 3683  19.770  24.809   7.766
    7AU    AUSL 3684  22.208  22.747   7.347
    7AU    AUSL 3685  22.429  23.087   7.230
    7AU     AUL 3686  22.072  23.011   7.220
    7AU       S 3687  21.585  22.893   7.393
    7AU     LIG 3688  21.316  23.026   7.034
    7AU     LIG 3689  21.009  23.264   6.760
    7AU     LIG 3690  20.541  23.224   6.726
    7AU     LIG 3691  20.111  23.436   6.723
    7AU     LIG 3692  19.819  23.790   6.829
    7AU     LIG 3693  19.373  23.865   6.706
    7AU       S 3694  22.123  23.401   6.902
    7AU     LIG 3695  21.933  23.662   6.551
    7AU     LIG 3696  21.932  23.965   6.178
    7AU     LIG 3697  21.830  24.409   5.987
    7AU     LIG 3698  21.654  24.842   5.832
    7AU     LIG 3699  21.298  25.139   5.707
    7AU     LIG 3700  20.842  25.242   5.558
    7AU    AUSL 3701  22.204  22.758   7.709
    7AU    AUSL 3702  22.144  22.423   7.348
    7AU     AUL 3703  22.008  22.717   7.530
    7AU       S 3704  21.691  22.409   7.279
    7AU     LIG 3705  21.275  22.460   7.638
    7AU     LIG 3706  20.790  22.469   7.702
    7AU     LIG 3707  20.436  22.149   7.762
    7AU     LIG 3708  20.096  21.905   7.507
    7AU     LIG 3709  19.710  22.016   7.282
    7AU     LIG 3710  19.406  21.709   7.108
    7AU       S 3711  21.712  22.897   7.868
    7AU     LIG 3712  21.237  22.909   7.951
    7AU     LIG 3713  20.930  23.108   8.273
    7AU     LIG 3714  20.488  23.273   8.357
    7AU     LIG 3715  20.028  23.442   8.289
    7AU     LIG 3716  19.588  23.245   8.213
    7AU     LIG 3717  19.139  23.438   8.315
    7AU    AUSL 3718  23.498  22.113   7.505
    7AU    AUSL 3719  23.451  22.293   7.885
    7AU     AUL 3720  23.790  22.340   7.834
    7AU       S 3721  23.707  21.728   7.496
    7AU     LIG 3722  23.994  21.431   7.722
    7AU     LIG 3723  24.408  21.244   7.605
    7AU     LIG 3724  24.864  21.100   7.514
    7AU     LIG 3725  25.343  20.984   7.488
    7AU     LIG 3726  25.632  20.582   7.466
    7AU     LIG 3727  26.017  20.432   7.683
    7AU       S 3728  23.652  21.878   8.124
    7AU     LIG 3729  23.942  21.696   8.442
    7AU     LIG 3730  23.977  21.294   8.671
    7AU     LIG 3731  24.213  20.917   8.835
    7AU     LIG 3732  24.551  20.795   9.157
    7AU     LIG 3733  24.945  20.781   9.441
    7AU     LIG 3734  25.305  20.629   9.718
    7AU    AUSL 3735  23.552  22.361   7.290
    7AU    AUSL 3736  23.323  22.019   7.223
    7AU     AUL 3737  23.689  22.145   7.116
    7AU       S 3738  23.815  21.895   7.516
    7AU     LIG 3739  24.198  21.640   7.293
    7AU     LIG 3740  24.673  21.532   7.259
    7AU     LIG 3741  25.155  21.458   7.290
    7AU     LIG 3742  25.620  21.363   7.246
    7AU     LIG 3743  26.087  21.252   7.103
    7AU     LIG 3744  26.562  21.197   6.998
    7AU       S 3745  23.547  21.743   6.841
    7AU     LIG 3746  23.710  21.316   6.704
    7AU     LIG 3747  23.761  20.872   6.528
    7AU     LIG 3748  23.929  20.467   6.392
    7AU     LIG 3749  24.184  20.232   6.102
    7AU     LIG 3750  24.445  19.840   6.098
    7AU     LIG 3751  24.837  19.609   5.987
    7AU    AUSL 3752  22.303  22.169   7.498
    7AU    AUSL 3753  22.320  22.273   7.124
    7AU     AUL 3754  22.107  21.998   7.391
    7AU       S 3755  22.057  22.055   6.864
    7AU     LIG 3756  21.647  21.862   6.854
    7AU     LIG 3757  21.375  21.522   6.660
    7AU     LIG 3758  21.060  21.296   6.366
    7AU     LIG 3759  20.723  21.063   6.113
    7AU     LIG 3760  20.336  20.858   5.924
    7AU     LIG 3761  20.097  20.703   5.542
    7AU       S 3762  21.794  22.314   7.195
    7AU     LIG 3763  21.367  22.029   7.259
    7AU     LIG 3764  20.938  22.049   7.431
    7AU     LIG 3765  20.575  21.758   7.437
    7AU     LIG 3766  20.242  21.420   7.511
    7AU     LIG 3767  19.902  21.108   7.527
    7AU     LIG 3768  19.492  20.895   7.599
    7AU    AUSL 3769  22.187  22.432   7.680
    7AU    AUSL 3770  22.424  22.019   7.770
    7AU     AUL 3771  22.038  22.169   7.767
    7AU       S 3772  22.162  21.678   7.841
    7AU     LIG 3773  21.841  21.392   7.741
    7AU     LIG 3774  21.485  21.190   7.956
    7AU     LIG 3775  21.222  20.938   8.248
    7AU     LIG 3776  20.969  20.692   8.553
    7AU     LIG 3777  20.670  20.446   8.812
    7AU     LIG 3778  20.458  20.040   8.921
    7AU       S 3779  21.702  22.351   7.427
    7AU     LIG 3780  21.234  22.517   7.150
    7AU     LIG 3781  20.754  22.461   7.174
    7AU     LIG 3782  20.298  22.341   7.320
    7AU     LIG 3783  19.933  22.329   7.684
    7AU     LIG 3784  19.625  22.030   7.808
    7AU     LIG 3785  19.285  21.717   7.910
    7AU    AUSL 3786  22.901  23.183   7.926
    7AU    AUSL 3787  22.501  23.090   7.779
    7AU     AUL 3788  22.525  23.376   7.904
    7AU       S 3789  22.326  23.202   8.326
    7AU     LIG 3790  22.027  23.536   8.519
    7AU     LIG 3791  21.938  23.840   8.871
    7AU     LIG 3792  21.791  24.244   9.069
    7AU     LIG 3793  21.531  24.641   9.176
    7AU     LIG 3794  21.253  25.028   9.292
    7AU     LIG 3795  20.903  25.340   9.426
    7AU       S 3796  22.917  23.611   8.121
    7AU     LIG 3797  23.208  23.753   8.428
    7AU     LIG 3798  23.298  24.182   8.562
    7AU     LIG 3799  23.217  24.584   8.804
    7AU     LIG 3800  23.191  24.828   9.220
    7AU     LIG 3801  23.259  25.209   9.490
    7AU     LIG 3802  23.077  25.592   9.700
    7AU    AUSL 3803  22.742  23.276   7.640
    7AU    AUSL 3804  23.034  23.295   7.325
    7AU     AUL 3805  22.595  23.524   7.444
    7AU       S 3806  22.848  23.760   7.847
    7AU     LIG 3807  22.899  24.120   8.180
    7AU     LIG 3808  23.050  24.556   8.301
    7AU     LIG 3809  22.978  25.021   8.362
    7AU     LIG 3810  22.772  25.448   8.437
    7AU     LIG 3811  22.517  25.847   8.380
    7AU     LIG 3812  22.471  26.327   8.337
    7AU       S 3813  23.179  23.702   7.272
    7AU     LIG 3814  23.494  23.988   7.083
    7AU     LIG 3815  23.658  24.361   6.840
    7AU     LIG 3816  23.988  24.711   6.806
    7AU     LIG 3817  24.049  25.185   6.854
    7AU     LIG 3818  23.888  25.608   6.672
    7AU     LIG 3819  23.648  26.020   6.641
    7AU    AUSL 3820  23.079  23.267   7.648
    7AU    AUSL 3821  23.165  23.011   8.030
    7AU     AUL 3822  23.282  23.352   7.897
    7AU       S 3823  23.424  23.165   8.343
    7AU     LIG 3824  23.711  23.127   8.729
    7AU     LIG 3825  23.955  23.433   8.993
    7AU     LIG 3826  24.261  23.737   9.200
    7AU     LIG 3827  24.518  23.997   9.498
    7AU     LIG 3828  24.555  24.244   9.910
    7AU     LIG 3829  24.476  24.671  10.117
    7AU       S 3830  23.046  23.756   7.749
    7AU     LIG 3831  23.364  24.029   8.009
    7AU     LIG 3832  23.569  24.440   8.195
    7AU     LIG 3833  23.792  24.875   8.268
    7AU     LIG 3834  23.876  25.347   8.321
    7AU     LIG 3835  23.913  25.838   8.314
    7AU     LIG 3836  24.053  26.287   8.468
    7AU    AUSL 3837  22.922  21.985   7.969
    7AU    AUSL 3838  23.316  22.011   7.761
    7AU     AUL 3839  23.153  21.746   7.984
    7AU       S 3840  22.770  21.429   8.072
    7AU     LIG 3841  22.533  21.110   8.250
    7AU     LIG 3842  22.346  20.709   8.249
    7AU     LIG 3843  22.419  20.288   8.422
    7AU     LIG 3844  22.530  19.861   8.591
    7AU     LIG 3845  22.500  19.590   8.991
    7AU     LIG 3846  22.486  19.435   9.453
    7AU       S 3847  23.652  21.750   7.986
    7AU     LIG 3848  23.734  21.318   8.165
    7AU     LIG 3849  23.800  20.904   8.392
    7AU     LIG 3850  23.958  20.503   8.557
    7AU     LIG 3851  24.229  20.150   8.670
    7AU     LIG 3852  24.512  19.809   8.803
    7AU     LIG 3853  24.832  19.457   8.822
    7AU    AUSL 3854  22.714  21.866   7.722
    7AU    AUSL 3855  22.630  22.140   7.995
    7AU     AUL 3856  22.662  21.909   8.153
    7AU       S 3857  22.589  21.460   7.841
    7AU     LIG 3858  22.295  21.165   7.805
    7AU     LIG 3859  22.292  20.735   7.734
    7AU     LIG 3860  22.264  20.301   7.918
    7AU     LIG 3861  22.256  19.886   8.139
    7AU     LIG 3862  22.166  19.523   8.417
    7AU     LIG 3863  22.015  19.082   8.478
    7AU       S 3864  22.232  21.739   8.014
    7AU     LIG 3865  22.067  21.335   8.223
    7AU     LIG 3866  21.703  21.120   8.422
    7AU     LIG 3867  21.375  20.981   8.742
    7AU     LIG 3868  21.110  20.727   9.051
    7AU     LIG 3869  20.994  20.554   9.482
    7AU     LIG 3870  20.876  20.413   9.929
    7AU    AUSL 3871  23.034  21.880   7.668
    7AU    AUSL 3872  22.719  21.828   7.390
    7AU     AUL 3873  23.087  21.613   7.567
    7AU       S 3874  22.392  21.495   7.396
    7AU     LIG 3875  22.115  21.103   7.352
    7AU     LIG 3876  22.166  20.666   7.244
    7AU     LIG 3877  22.230  20.298   6.993
    7AU     LIG 3878  22.257  19.934   6.710
    7AU     LIG 3879  22.076  19.502   6.652
    7AU     LIG 3880  22.004  19.044   6.562
    7AU       S 3881  22.712  21.472   7.831
    7AU     LIG 3882  22.765  20.980   7.797
    7AU     LIG 3883  22.726  20.526   7.940
    7AU     LIG 3884  22.746  20.068   8.092
    7AU     LIG 3885  22.970  19.683   8.284
    7AU     LIG 3886  23.203  19.266   8.408
    7AU     LIG 3887  23.399  18.896   8.660
    7AU    AUSL 3888  22.903  23.153   7.041
    7AU    AUSL 3889  23.282  23.103   7.217
    7AU     AUL 3890  23.210  23.298   6.935
    7AU       S 3891  22.957  23.720   6.948
    7AU     LIG 3892  23.199  24.011   6.664
    7AU     LIG 3893  23.328  24.381   6.412
    7AU     LIG 3894  23.359  24.586   5.976
    7AU     LIG 3895  23.298  24.852   5.576
    7AU     LIG 3896  23.197  25.288   5.410
    7AU     LIG 3897  23.076  25.620   5.095
    7AU       S 3898  23.702  23.083   6.912
    7AU     LIG 3899  24.097  23.330   6.859
    7AU     LIG 3900  24.320  23.589   6.535
    7AU     LIG 3901  24.543  23.901   6.286
    7AU     LIG 3902  24.679  24.354   6.283
    7AU     LIG 3903  24.762  24.744   6.029
    7AU     LIG 3904  25.034  25.115   5.922
    7AU    AUSL 3905  22.715  23.230   7.314
    7AU    AUSL 3906  22.614  23.008   6.959
    7AU     AUL 3907  22.602  23.371   7.043
    7AU       S 3908  22.992  23.696   7.224
    7AU     LIG 3909  23.020  24.191   7.115
    7AU     LIG 3910  23.082  24.594   6.847
    7AU     LIG 3911  22.913  25.068   6.788
    7AU     LIG 3912  22.867  25.528   6.613
    7AU     LIG 3913  22.651  25.956   6.461
    7AU     LIG 3914  22.670  26.432   6.321
    7AU       S 3915  22.315  23.298   6.637
    7AU     LIG 3916  22.305  23.540   6.220
    7AU     LIG 3917  22.129  23.661   5.799
    7AU     LIG 3918  21.953  23.761   5.366
    7AU     LIG 3919  21.883  23.972   4.938
    7AU     LIG 3920  21.770  24.307   4.634
    7AU     LIG 3921  21.458  24.650   4.560
    7AU    AUSL 3922  22.835  21.969   7.111
    7AU    AUSL 3923  22.473  22.003   7.250
    7AU     AUL 3924  22.684  21.791   6.948
    7AU       S 3925  22.177  21.761   6.957
    7AU     LIG 3926  21.896  21.486   7.111
    7AU     LIG 3927  21.607  21.179   6.986
    7AU     LIG 3928  21.260  20.997   6.735
    7AU     LIG 3929  20.942  20.773   6.476
    7AU     LIG 3930  20.624  20.544   6.218
    7AU     LIG 3931  20.389  20.191   6.005
    7AU       S 3932  22.570  21.491   7.316
    7AU     LIG 3933  22.369  21.251   6.941
    7AU     LIG 3934  22.394  20.795   6.801
    7AU     LIG 3935  22.558  20.381   6.610
    7AU     LIG 3936  22.569  20.027   6.290
    7AU     LIG 3937  22.631  19.839   5.849
    7AU     LIG 3938  22.730  19.609   5.448
    7AU    AUSL 3939  23.051  21.871   7.341
    7AU    AUSL 3940  23.106  22.085   6.963
    7AU     AUL 3941  23.097  21.706   7.071
    7AU       S 3942  22.720  21.407   7.316
    7AU     LIG 3943  22.602  20.948   7.304
    7AU     LIG 3944  22.690  20.505   7.120
    7AU     LIG 3945  22.947  20.145   6.889
    7AU     LIG 3946  23.193  19.753   6.728
    7AU     LIG 3947  23.310  19.290   6.633
    7AU     LIG 3948  23.273  18.805   6.527
    7AU       S 3949  23.314  21.848   6.638
    7AU     LIG 3950  23.328  21.435   6.384
    7AU     LIG 3951  23.441  21.023   6.151
    7AU     LIG 3952  23.653  20.622   5.982
    7AU     LIG 3953  23.995  20.481   5.688
    7AU     LIG 3954  24.203  20.332   5.292
    7AU     LIG 3955  24.131  20.098   4.875
    8AU     AUC 3956  19.115  16.923   7.505
    8AU     AUC 3957  19.358  16.921   7.339
    8AU     AUC 3958  19.373  16.926   7.647
    8AU     AUC 3959  18.856  16.918   7.361
    8AU     AUC 3960  18.873  16.929   7.671
    8AU     AUC 3961  18.961  17.172   7.505
    8AU     AUC 3962  19.269  17.174   7.492
    8AU     AUC 3963  18.960  16.670   7.518
    8AU     AUC 3964  19.272  16.673   7.502
    8AU     AUC 3965  19.128  16.774   7.758
    8AU     AUC 3966  19.128  17.084   7.752
    8AU     AUC 3967  19.106  16.765   7.256
    8AU     AUC 3968  19.103  17.074   7.251
    8AU     AUC 3969  19.593  16.920   7.177
    8AU     AUC 3970  19.613  16.919   7.482
    8AU     AUC 3971  19.624  16.927   7.784
    8AU     AUC 3972  18.608  16.909   7.221
    8AU     AUC 3973  18.617  16.933   7.524
    8AU     AUC 3974  18.637  16.938   7.831
    8AU     AUC 3975  18.814  17.416   7.504
    8AU     AUC 3976  19.118  17.421   7.493
    8AU     AUC 3977  19.419  17.416   7.480
    8AU     AUC 3978  18.813  16.429   7.530
    8AU     AUC 3979  19.110  16.426   7.523
    8AU     AUC 3980  19.419  16.430   7.499
    8AU     AUC 3981  19.138  16.628   8.002
    8AU     AUC 3982  19.137  16.928   8.002
    8AU     AUC 3983  19.141  17.237   7.991
    8AU     AUC 3984  19.098  16.612   7.017
    8AU     AUC 3985  19.095  16.912   7.007
    8AU     AUC 3986  19.091  17.217   7.005
    8AU     AUC 3987  19.382  16.773   7.898
    8AU     AUC 3988  19.384  17.080   7.896
    8AU     AUC 3989  19.345  16.764   7.094
    8AU     AUC 3990  19.346  17.071   7.090
    8AU     AUC 3991  18.877  16.779   7.918
    8AU     AUC 3992  18.887  17.085   7.918
    8AU     AUC 3993  18.853  16.758   7.116
    8AU     AUC 3994  18.846  17.064   7.110
    8AU     AUC 3995  19.513  17.168   7.331
    8AU     AUC 3996  19.527  17.171   7.638
    8AU     AUC 3997  18.703  17.166   7.357
    8AU     AUC 3998  18.724  17.183   7.671
    8AU     AUC 3999  19.506  16.666   7.332
    8AU     AUC 4000  19.524  16.672   7.640
    8AU     AUC 4001  18.709  16.669   7.372
    8AU     AUC 4002  18.714  16.683   7.673
    8AU     AUC 4003  18.978  17.333   7.753
    8AU     AUC 4004  19.283  17.332   7.740
    8AU     AUC 4005  18.967  16.528   7.768
    8AU     AUC 4006  19.280  16.525   7.757
    8AU     AUC 4007  18.954  17.321   7.250
    8AU     AUC 4008  19.261  17.321   7.239
    8AU     AUC 4009  18.952  16.514   7.274
    8AU     AUC 4010  19.257  16.512   7.258
    8AU    AUSL 4011  19.563  16.896   8.071
    8AU    AUSL 4012  19.436  16.503   8.053
    8AU     AUL 4013  19.825  16.692   8.201
    8AU       S 4014  19.738  16.208   8.315
    8AU     LIG 4015  19.804  15.867   8.605
    8AU     LIG 4016  19.762  15.426   8.718
    8AU     LIG 4017  19.870  14.996   8.851
    8AU     LIG 4018  20.122  14.755   9.159
    8AU     LIG 4019  20.215  14.502   9.544
    8AU     LIG 4020  20.236  14.434  10.007
    8AU       S 4021  19.609  16.832   8.660
    8AU     LIG 4022  19.869  16.728   9.035
    8AU     LIG 4023  20.042  16.412   9.351
    8AU     LIG 4024  20.284  16.298   9.750
    8AU     LIG 4025  20.626  16.390  10.078
    8AU     LIG 4026  20.960  16.593  10.362
    8AU     LIG 4027  21.239  16.845  10.640
    8AU    AUSL 4028  19.286  16.757   8.213
    8AU    AUSL 4029  18.995  17.079   8.194
    8AU     AUL 4030  19.075  16.896   8.516
    8AU       S 4031  19.484  16.620   8.595
    8AU     LIG 4032  19.663  16.294   8.860
    8AU     LIG 4033  19.624  16.120   9.284
    8AU     LIG 4034  19.792  16.109   9.727
    8AU     LIG 4035  19.828  16.148  10.205
    8AU     LIG 4036  19.858  16.199  10.684
    8AU     LIG 4037  20.023  16.055  11.106
    8AU       S 4038  18.576  17.127   8.621
    8AU     LIG 4039  18.402  17.114   9.080
    8AU     LIG 4040  18.403  16.867   9.486
    8AU     LIG 4041  18.371  16.832   9.951
    8AU     LIG 4042  18.398  17.118  10.340
    8AU     LIG 4043  18.318  17.242  10.792
    8AU     LIG 4044  18.047  17.443  11.132
    8AU    AUSL 4045  19.332  17.099   8.203
    8AU    AUSL 4046  19.679  17.196   7.939
    8AU     AUL 4047  19.772  17.035   8.235
    8AU       S 4048  19.494  17.156   8.644
    8AU     LIG 4049  19.523  17.580   8.883
    8AU     LIG 4050  19.649  17.779   9.307
    8AU     LIG 4051  19.600  17.830   9.796
    8AU     LIG 4052  19.715  17.864  10.262
    8AU     LIG 4053  19.805  17.683  10.688
    8AU     LIG 4054  20.085  17.659  11.076
    8AU       S 4055  20.046  17.440   8.182
    8AU     LIG 4056  20.418  17.435   8.453
    8AU     LIG 4057  20.601  17.449   8.876
    8AU     LIG 4058  20.845  17.700   9.183
    8AU     LIG 4059  21.160  17.633   9.546
    8AU     LIG 4060  21.560  17.745   9.777
    8AU     LIG 4061  21.815  18.137   9.833
    8AU    AUSL 4062  19.526  16.973   6.888
    8AU    AUSL 4063  19.378  17.312   6.934
    8AU     AUL 4064  19.404  17.269   6.584
    8AU       S 4065  19.663  16.861   6.389
    8AU     LIG 4066  19.961  16.559   6.218
    8AU     LIG 4067  20.045  16.377   5.802
    8AU     LIG 4068  20.198  16.395   5.341
    8AU     LIG 4069  20.563  16.404   5.016
    8AU     LIG 4070  20.909  16.450   4.674
    8AU     LIG 4071  21.133  16.659   4.294
    8AU       S 4072  19.848  17.494   6.656
    8AU     LIG 4073  20.147  17.671   6.342
    8AU     LIG 4074  20.394  17.882   5.987
    8AU     LIG 4075  20.557  18.030   5.560
    8AU     LIG 4076  20.598  18.323   5.180
    8AU     LIG 4077  20.562  18.674   4.866
    8AU     LIG 4078  20.827  19.007   4.680
    8AU    AUSL 4079  19.306  16.735   6.800
    8AU    AUSL 4080  19.587  16.655   7.022
    8AU     AUL 4081  19.800  16.793   6.861
    8AU       S 4082  19.756  16.337   6.636
    8AU     LIG 4083  19.984  16.043   6.353
    8AU     LIG 4084  20.167  15.616   6.244
    8AU     LIG 4085  20.480  15.356   6.006
    8AU     LIG 4086  20.776  15.165   5.684
    8AU     LIG 4087  21.168  15.052   5.424
    8AU     LIG 4088  21.463  15.085   5.042
    8AU       S 4089  19.374  16.590   6.390
    8AU     LIG 4090  19.557  16.256   6.127
    8AU     LIG 4091  19.581  16.214   5.666
    8AU     LIG 4092  19.720  16.207   5.219
    8AU     LIG 4093  19.720  16.179   4.750
    8AU     LIG 4094  19.783  15.976   4.325
    8AU     LIG 4095  19.938  16.014   3.886
    8AU    AUSL 4096  19.207  17.055   6.807
    8AU    AUSL 4097  18.968  16.762   6.787
    8AU     AUL 4098  19.119  17.028   6.525
    8AU       S 4099  18.747  16.726   6.324
    8AU     LIG 4100  18.721  16.455   5.937
    8AU     LIG 4101  18.491  16.231   5.602
    8AU     LIG 4102  18.362  16.251   5.158
    8AU     LIG 4103  18.103  16.051   4.814
    8AU     LIG 4104  18.047  15.859   4.378
    8AU     LIG 4105  17.896  15.909   3.929
    8AU       S 4106  19.490  16.721   6.426
    8AU     LIG 4107  19.579  16.711   5.910
    8AU     LIG 4108  19.763  16.667   5.462
    8AU     LIG 4109  19.830  16.660   4.975
    8AU     LIG 4110  19.789  16.867   4.522
    8AU     LIG 4111  19.890  17.144   4.121
    8AU     LIG 4112  19.919  17.427   3.724
    8AU    AUSL 4113  18.700  16.945   8.128
    8AU    AUSL 4114  18.880  17.370   8.071
    8AU     AUL 4115  18.998  17.251   8.398
    8AU       S 4116  18.409  16.973   8.457
    8AU     LIG 4117  18.114  16.802   8.790
    8AU     LIG 4118  18.038  16.617   9.219
    8AU     LIG 4119  17.889  16.408   9.622
    8AU     LIG 4120  17.580  16.336   9.984
    8AU     LIG 4121  17.268  16.396  10.338
    8AU     LIG 4122  16.976  16.493  10.692
    8AU       S 4123  18.625  17.586   8.424
    8AU     LIG 4124  18.567  17.796   8.826
    8AU     LIG 4125  18.376  17.924   9.224
    8AU     LIG 4126  18.149  18.016   9.619
    8AU     LIG 4127  18.057  18.341   9.952
    8AU     LIG 4128  17.856  18.704  10.195
    8AU     LIG 4129  17.504  18.933  10.433
    8AU    AUSL 4130  18.956  16.745   8.214
    8AU    AUSL 4131  18.570  16.675   7.965
    8AU     AUL 4132  18.669  16.561   8.305
    8AU       S 4133  18.281  16.246   8.162
    8AU     LIG 4134  17.877  16.005   8.100
    8AU     LIG 4135  17.554  15.756   8.335
    8AU     LIG 4136  17.261  15.526   8.634
    8AU     LIG 4137  17.038  15.236   8.928
    8AU     LIG 4138  16.694  15.132   9.234
    8AU     LIG 4139  16.340  15.044   9.537
    8AU       S 4140  18.601  16.880   8.675
    8AU     LIG 4141  18.532  16.601   9.045
    8AU     LIG 4142  18.428  16.350   9.437
    8AU     LIG 4143  18.311  16.298   9.886
    8AU     LIG 4144  18.016  16.123  10.211
    8AU     LIG 4145  17.968  15.908  10.638
    8AU     LIG 4146  18.143  15.835  11.080
    8AU    AUSL 4147  18.672  16.832   6.923
    8AU    AUSL 4148  18.822  16.509   6.975
    8AU     AUL 4149  18.925  16.454   6.697
    8AU       S 4150  18.501  16.700   6.486
    8AU     LIG 4151  18.265  16.477   6.177
    8AU     LIG 4152  18.106  16.549   5.743
    8AU     LIG 4153  17.912  16.429   5.328
    8AU     LIG 4154  17.556  16.355   5.013
    8AU     LIG 4155  17.191  16.489   4.725
    8AU     LIG 4156  16.981  16.607   4.312
    8AU       S 4157  18.440  16.260   6.723
    8AU     LIG 4158  18.102  15.926   6.588
    8AU     LIG 4159  17.781  15.583   6.489
    8AU     LIG 4160  17.504  15.317   6.219
    8AU     LIG 4161  17.238  15.077   5.914
    8AU     LIG 4162  17.126  14.826   5.529
    8AU     LIG 4163  17.213  14.682   5.081
    8AU    AUSL 4164  18.864  17.081   6.820
    8AU    AUSL 4165  18.584  17.160   7.071
    8AU     AUL 4166  18.396  17.020   6.864
    8AU       S 4167  18.378  17.485   6.674
    8AU     LIG 4168  18.165  17.526   6.257
    8AU     LIG 4169  17.941  17.634   5.853
    8AU     LIG 4170  17.588  17.678   5.527
    8AU     LIG 4171  17.277  17.893   5.230
    8AU     LIG 4172  17.011  18.199   4.991
    8AU     LIG 4173  16.575  18.378   4.955
    8AU       S 4174  18.643  16.970   6.414
    8AU     LIG 4175  18.463  16.903   5.944
    8AU     LIG 4176  18.511  16.733   5.485
    8AU     LIG 4177  18.477  16.747   5.003
    8AU     LIG 4178  18.464  16.978   4.569
    8AU     LIG 4179  18.367  17.209   4.146
    8AU     LIG 4180  18.207  17.407   3.729
    8AU    AUSL 4181  19.713  17.340   7.447
    8AU    AUSL 4182  19.673  17.206   7.084
    8AU     AUL 4183  19.786  17.642   7.307
    8AU       S 4184  20.003  17.269   6.798
    8AU     LIG 4185  20.400  17.282   6.559
    8AU     LIG 4186  20.659  17.517   6.233
    8AU     LIG 4187  20.859  17.640   5.799
    8AU     LIG 4188  21.234  17.648   5.476
    8AU     LIG 4189  21.611  17.745   5.202
    8AU     LIG 4190  21.864  18.123   5.069
    8AU       S 4191  20.254  17.424   7.372
    8AU     LIG 4192  20.745  17.511   7.457
    8AU     LIG 4193  21.243  17.564   7.502
    8AU     LIG 4194  21.720  17.651   7.518
    8AU     LIG 4195  22.166  17.833   7.535
    8AU     LIG 4196  22.417  18.243   7.599
    8AU     LIG 4197  22.761  18.525   7.414
    8AU    AUSL 4198  19.831  17.041   7.322
    8AU    AUSL 4199  19.827  16.774   7.611
    8AU     AUL 4200  20.127  16.761   7.369
    8AU       S 4201  20.224  17.239   7.246
    8AU     LIG 4202  20.630  17.249   7.037
    8AU     LIG 4203  21.090  17.198   7.173
    8AU     LIG 4204  21.580  17.251   7.211
    8AU     LIG 4205  22.048  17.418   7.188
    8AU     LIG 4206  22.500  17.459   7.039
    8AU     LIG 4207  22.954  17.589   7.014
    8AU       S 4208  20.201  16.291   7.655
    8AU     LIG 4209  20.568  16.061   7.856
    8AU     LIG 4210  21.010  15.863   7.831
    8AU     LIG 4211  21.465  15.701   7.785
    8AU     LIG 4212  21.950  15.692   7.772
    8AU     LIG 4213  22.438  15.780   7.762
    8AU     LIG 4214  22.838  15.925   8.006
    8AU    AUSL 4215  19.828  17.103   7.659
    8AU    AUSL 4216  19.564  17.436   7.737
    8AU     AUL 4217  19.870  17.499   7.705
    8AU       S 4218  19.872  17.556   8.201
    8AU     LIG 4219  20.118  17.862   8.470
    8AU     LIG 4220  20.539  17.914   8.672
    8AU     LIG 4221  20.841  18.174   8.897
    8AU     LIG 4222  20.868  18.624   9.009
    8AU     LIG 4223  21.099  19.030   9.001
    8AU     LIG 4224  21.393  19.341   9.189
    8AU       S 4225  20.280  17.208   7.610
    8AU     LIG 4226  20.721  17.082   7.730
    8AU     LIG 4227  21.199  17.083   7.676
    8AU     LIG 4228  21.674  17.169   7.706
    8AU     LIG 4229  22.120  17.344   7.697
    8AU     LIG 4230  22.542  17.449   7.858
    8AU     LIG 4231  22.930  17.235   8.033
    8AU    AUSL 4232  18.518  17.381   7.526
    8AU    AUSL 4233  18.595  17.213   7.956
    8AU     AUL 4234  18.445  17.634   7.800
    8AU       S 4235  18.318  17.390   8.247
    8AU     LIG 4236  18.196  17.437   8.724
    8AU     LIG 4237  18.036  17.543   9.167
    8AU     LIG 4238  17.717  17.745   9.476
    8AU     LIG 4239  17.288  17.771   9.707
    8AU     LIG 4240  16.897  17.966   9.908
    8AU     LIG 4241  16.568  18.308  10.031
    8AU       S 4242  18.018  17.552   7.540
    8AU     LIG 4243  17.752  17.960   7.466
    8AU     LIG 4244  17.507  18.404   7.460
    8AU     LIG 4245  17.169  18.779   7.451
    8AU     LIG 4246  16.736  18.954   7.583
    8AU     LIG 4247  16.296  19.078   7.705
    8AU     LIG 4248  15.868  19.223   7.829
    8AU    AUSL 4249  18.405  17.094   7.369
    8AU    AUSL 4250  18.659  17.455   7.236
    8AU     AUL 4251  18.326  17.369   7.183
    8AU       S 4252  17.895  17.253   7.407
    8AU     LIG 4253  17.661  17.489   7.064
    8AU     LIG 4254  17.252  17.578   6.805
    8AU     LIG 4255  16.775  17.617   6.680
    8AU     LIG 4256  16.358  17.826   6.556
    8AU     LIG 4257  15.900  17.903   6.609
    8AU     LIG 4258  15.576  18.223   6.715
    8AU       S 4259  18.380  17.737   6.846
    8AU     LIG 4260  18.151  17.972   6.534
    8AU     LIG 4261  18.173  18.261   6.175
    8AU     LIG 4262  18.051  18.693   6.023
    8AU     LIG 4263  17.794  19.091   6.051
    8AU     LIG 4264  17.408  19.320   5.926
    8AU     LIG 4265  17.090  19.546   5.701
    8AU    AUSL 4266  18.418  17.111   7.706
    8AU    AUSL 4267  18.365  16.770   7.359
    8AU     AUL 4268  18.142  16.918   7.689
    8AU       S 4269  17.956  16.797   7.188
    8AU     LIG 4270  17.535  16.675   7.537
    8AU     LIG 4271  17.070  16.515   7.666
    8AU     LIG 4272  16.595  16.393   7.696
    8AU     LIG 4273  16.313  16.171   7.370
    8AU     LIG 4274  15.880  16.001   7.260
    8AU     LIG 4275  15.448  16.026   7.100
    8AU       S 4276  18.002  17.370   7.826
    8AU     LIG 4277  17.706  17.522   8.156
    8AU     LIG 4278  17.250  17.627   8.285
    8AU     LIG 4279  16.777  17.735   8.264
    8AU     LIG 4280  16.304  17.823   8.218
    8AU     LIG 4281  15.848  17.961   8.202
    8AU     LIG 4282  15.422  17.890   8.403
    8AU    AUSL 4283  19.724  16.473   7.504
    8AU    AUSL 4284  19.681  16.648   7.879
    8AU     AUL 4285  20.018  16.712   7.828
    8AU       S 4286  19.938  16.092   7.488
    8AU     LIG 4287  20.182  15.761   7.715
    8AU     LIG 4288  20.621  15.577   7.639
    8AU     LIG 4289  21.083  15.419   7.554
    8AU     LIG 4290  21.550  15.260   7.492
    8AU     LIG 4291  21.895  14.895   7.424
    8AU     LIG 4292  22.328  14.742   7.251
    8AU       S 4293  19.907  16.232   8.076
    8AU     LIG 4294  20.232  15.980   8.306
    8AU     LIG 4295  20.240  15.583   8.569
    8AU     LIG 4296  20.347  15.206   8.829
    8AU     LIG 4297  20.669  15.089   9.158
    8AU     LIG 4298  21.084  15.168   9.404
    8AU     LIG 4299  21.464  15.191   9.696
    8AU    AUSL 4300  19.775  16.719   7.287
    8AU    AUSL 4301  19.548  16.380   7.222
    8AU     AUL 4302  19.913  16.504   7.115
    8AU       S 4303  20.046  16.260   7.519
    8AU     LIG 4304  20.458  15.998   7.346
    8AU     LIG 4305  20.927  15.861   7.318
    8AU     LIG 4306  21.402  15.733   7.276
    8AU     LIG 4307  21.895  15.744   7.267
    8AU     LIG 4308  22.383  15.838   7.227
    8AU     LIG 4309  22.760  15.772   6.920
    8AU       S 4310  19.775  16.095   6.844
    8AU     LIG 4311  19.911  15.639   6.702
    8AU     LIG 4312  19.968  15.148   6.620
    8AU     LIG 4313  20.136  14.722   6.472
    8AU     LIG 4314  20.369  14.330   6.363
    8AU     LIG 4315  20.662  14.038   6.131
    8AU     LIG 4316  21.091  13.886   6.007
    8AU    AUSL 4317  18.532  16.513   7.499
    8AU    AUSL 4318  18.545  16.620   7.137
    8AU     AUL 4319  18.358  16.331   7.405
    8AU       S 4320  18.291  16.406   6.866
    8AU     LIG 4321  17.851  16.299   6.833
    8AU     LIG 4322  17.564  15.960   6.757
    8AU     LIG 4323  17.257  15.736   6.465
    8AU     LIG 4324  16.997  15.392   6.255
    8AU     LIG 4325  16.753  15.287   5.865
    8AU     LIG 4326  16.589  15.323   5.427
    8AU       S 4327  18.007  16.593   7.212
    8AU     LIG 4328  17.696  16.227   7.323
    8AU     LIG 4329  17.311  16.068   7.575
    8AU     LIG 4330  16.874  15.985   7.807
    8AU     LIG 4331  16.361  15.930   7.812
    8AU     LIG 4332  15.952  15.682   7.657
    8AU     LIG 4333  15.705  15.257   7.692
    8AU    AUSL 4334  18.449  16.782   7.678
    8AU    AUSL 4335  18.649  16.388   7.784
    8AU     AUL 4336  18.260  16.542   7.757
    8AU       S 4337  18.373  16.052   7.864
    8AU     LIG 4338  18.068  15.755   7.684
    8AU     LIG 4339  17.704  15.525   7.882
    8AU     LIG 4340  17.424  15.280   8.200
    8AU     LIG 4341  17.220  14.990   8.510
    8AU     LIG 4342  16.969  14.628   8.692
    8AU     LIG 4343  16.758  14.179   8.779
    8AU       S 4344  17.975  16.689   7.300
    8AU     LIG 4345  17.499  16.616   7.048
    8AU     LIG 4346  17.008  16.638   7.165
    8AU     LIG 4347  16.522  16.698   7.303
    8AU     LIG 4348  16.123  16.593   7.582
    8AU     LIG 4349  15.880  16.231   7.721
    8AU     LIG 4350  15.465  16.065   7.626
    8AU    AUSL 4351  19.132  17.541   7.929
    8AU    AUSL 4352  18.732  17.453   7.779
    8AU     AUL 4353  18.793  17.738   7.951
    8AU       S 4354  18.502  17.547   8.308
    8AU     LIG 4355  18.208  17.885   8.467
    8AU     LIG 4356  18.158  18.193   8.826
    8AU     LIG 4357  17.975  18.614   8.993
    8AU     LIG 4358  17.720  19.029   9.053
    8AU     LIG 4359  17.366  19.355   9.104
    8AU     LIG 4360  17.191  19.767   9.293
    8AU       S 4361  19.179  18.023   8.096
    8AU     LIG 4362  19.531  18.205   8.349
    8AU     LIG 4363  19.663  18.582   8.600
    8AU     LIG 4364  19.597  19.000   8.792
    8AU     LIG 4365  19.552  19.260   9.182
    8AU     LIG 4366  19.363  19.515   9.543
    8AU     LIG 4367  19.098  19.862   9.738
    8AU    AUSL 4368  18.969  17.641   7.644
    8AU    AUSL 4369  19.266  17.655   7.324
    8AU     AUL 4370  18.819  17.884   7.429
    8AU       S 4371  19.078  18.135   7.805
    8AU     LIG 4372  19.217  18.526   8.079
    8AU     LIG 4373  19.326  18.889   8.345
    8AU     LIG 4374  19.293  19.347   8.438
    8AU     LIG 4375  18.978  19.722   8.376
    8AU     LIG 4376  18.859  20.176   8.439
    8AU     LIG 4377  18.757  20.454   8.781
    8AU       S 4378  19.437  18.060   7.261
    8AU     LIG 4379  19.776  18.377   7.138
    8AU     LIG 4380  19.888  18.712   6.834
    8AU     LIG 4381  19.860  19.173   6.835
    8AU     LIG 4382  20.123  19.541   6.680
    8AU     LIG 4383  20.192  19.991   6.485
    8AU     LIG 4384  20.116  20.453   6.352
    8AU    AUSL 4385  19.306  17.626   7.647
    8AU    AUSL 4386  19.398  17.370   8.028
    8AU     AUL 4387  19.507  17.708   7.901
    8AU       S 4388  19.672  17.516   8.336
    8AU     LIG 4389  19.970  17.431   8.704
    8AU     LIG 4390  20.179  17.729   8.996
    8AU     LIG 4391  20.448  18.066   9.206
    8AU     LIG 4392  20.532  18.482   9.461
    8AU     LIG 4393  20.540  18.635   9.924
    8AU     LIG 4394  20.616  18.949  10.269
    8AU       S 4395  19.283  18.111   7.730
    8AU     LIG 4396  19.644  18.353   7.856
    8AU     LIG 4397  19.766  18.711   8.119
    8AU     LIG 4398  19.782  19.126   8.331
    8AU     LIG 4399  20.107  19.437   8.414
    8AU     LIG 4400  20.215  19.899   8.474
    8AU     LIG 4401  20.176  20.356   8.617
    8AU    AUSL 4402  19.146  16.348   7.974
    8AU    AUSL 4403  19.540  16.365   7.758
    8AU     AUL 4404  19.365  16.112   8.000
    8AU       S 4405  18.985  15.784   8.070
    8AU     LIG 4406  18.717  15.447   8.223
    8AU     LIG 4407  18.514  15.033   8.221
    8AU     LIG 4408  18.653  14.586   8.304
    8AU     LIG 4409  18.905  14.274   8.586
    8AU     LIG 4410  18.976  14.043   9.016
    8AU     LIG 4411  18.891  13.820   9.434
    8AU       S 4412  19.858  16.070   7.971
    8AU     LIG 4413  19.904  15.616   8.159
    8AU     LIG 4414  20.010  15.166   8.354
    8AU     LIG 4415  20.226  14.787   8.550
    8AU     LIG 4416  20.440  14.501   8.850
    8AU     LIG 4417  20.659  14.075   8.963
    8AU     LIG 4418  21.073  13.846   8.963
    8AU    AUSL 4419  18.934  16.225   7.731
    8AU    AUSL 4420  18.858  16.506   8.008
    8AU     AUL 4421  18.890  16.267   8.160
    8AU       S 4422  18.785  15.808   7.850
    8AU     LIG 4423  18.496  15.468   7.759
    8AU     LIG 4424  18.232  15.068   7.791
    8AU     LIG 4425  18.120  14.655   8.044
    8AU     LIG 4426  18.031  14.155   8.053
    8AU     LIG 4427  18.160  13.691   8.184
    8AU     LIG 4428  18.348  13.302   8.410
    8AU       S 4429  18.448  16.117   8.033
    8AU     LIG 4430  18.257  15.674   8.171
    8AU     LIG 4431  17.927  15.361   8.316
    8AU     LIG 4432  17.660  15.212   8.679
    8AU     LIG 4433  17.518  15.290   9.123
    8AU     LIG 4434  17.546  15.220   9.603
    8AU     LIG 4435  17.567  14.878   9.943
    8AU    AUSL 4436  19.252  16.242   7.672
    8AU    AUSL 4437  18.950  16.184   7.398
    8AU     AUL 4438  19.311  15.975   7.591
    8AU       S 4439  18.631  15.840   7.390
    8AU     LIG 4440  18.313  15.477   7.292
    8AU     LIG 4441  18.321  14.992   7.255
    8AU     LIG 4442  18.124  14.558   7.097
    8AU     LIG 4443  17.924  14.114   6.990
    8AU     LIG 4444  18.076  13.660   6.892
    8AU     LIG 4445  18.176  13.276   6.644
    8AU       S 4446  18.916  15.840   7.829
    8AU     LIG 4447  18.989  15.345   7.791
    8AU     LIG 4448  18.953  14.895   7.971
    8AU     LIG 4449  19.160  14.485   8.155
    8AU     LIG 4450  19.327  14.041   8.258
    8AU     LIG 4451  19.307  13.597   8.453
    8AU     LIG 4452  19.468  13.152   8.301
    8AU    AUSL 4453  19.130  17.513   7.044
    8AU    AUSL 4454  19.507  17.460   7.210
    8AU     AUL 4455  19.428  17.653   6.924
    8AU       S 4456  19.200  18.088   6.960
    8AU     LIG 4457  19.486  18.388   6.705
    8AU     LIG 4458  19.675  18.684   6.368
    8AU     LIG 4459  19.752  18.825   5.911
    8AU     LIG 4460  19.676  19.157   5.580
    8AU     LIG 4461  19.523  19.557   5.355
    8AU     LIG 4462  19.446  20.018   5.341
    8AU       S 4463  19.916  17.430   6.890
    8AU     LIG 4464  20.314  17.677   6.868
    8AU     LIG 4465  20.539  17.934   6.541
    8AU     LIG 4466  20.644  18.262   6.234
    8AU     LIG 4467  20.858  18.655   6.159
    8AU     LIG 4468  21.088  19.042   6.027
    8AU     LIG 4469  21.375  19.258   5.709
    8AU    AUSL 4470  18.948  17.587   7.319
    8AU    AUSL 4471  18.843  17.370   6.967
    8AU     AUL 4472  18.833  17.742   7.049
    8AU       S 4473  19.236  18.049   7.237
    8AU     LIG 4474  19.291  18.547   7.157
    8AU     LIG 4475  19.401  18.902   6.843
    8AU     LIG 4476  19.272  19.362   6.720
    8AU     LIG 4477  18.974  19.769   6.694
    8AU     LIG 4478  18.829  20.226   6.585
    8AU     LIG 4479  18.775  20.685   6.418
    8AU       S 4480  18.630  17.544   6.618
    8AU     LIG 4481  18.558  17.852   6.247
    8AU     LIG 4482  18.366  17.944   5.813
    8AU     LIG 4483  18.282  18.168   5.388
    8AU     LIG 4484  18.238  18.490   5.031
    8AU     LIG 4485  17.968  18.800   4.792
    8AU     LIG 4486  17.822  19.182   4.539
    8AU    AUSL 4487  19.063  16.326   7.118
    8AU    AUSL 4488  18.706  16.354   7.254
    8AU     AUL 4489  18.909  16.151   6.949
    8AU       S 4490  18.397  16.104   6.962
    8AU     LIG 4491  18.020  15.872   7.100
    8AU     LIG 4492  17.702  15.537   7.009
    8AU     LIG 4493  17.390  15.297   6.723
    8AU     LIG 4494  17.198  14.941   6.448
    8AU     LIG 4495  16.850  14.833   6.157
    8AU     LIG 4496  16.689  14.458   5.922
    8AU       S 4497  18.816  15.846   7.319
    8AU     LIG 4498  18.633  15.618   6.927
    8AU     LIG 4499  18.596  15.161   6.825
    8AU     LIG 4500  18.771  14.749   6.623
    8AU     LIG 4501  18.819  14.456   6.225
    8AU     LIG 4502  18.821  14.195   5.806
    8AU     LIG 4503  18.728  13.871   5.455
    8AU    AUSL 4504  19.283  16.224   7.347
    8AU    AUSL 4505  19.328  16.444   6.964
    8AU     AUL 4506  19.323  16.066   7.070
    8AU       S 4507  18.965  15.760   7.318
    8AU     LIG 4508  18.799  15.309   7.310
    8AU     LIG 4509  18.902  14.873   7.129
    8AU     LIG 4510  19.193  14.533   6.924
    8AU     LIG 4511  19.274  14.081   6.790
    8AU     LIG 4512  19.297  13.609   6.829
    8AU     LIG 4513  19.484  13.207   6.677
    8AU       S 4514  19.542  16.217   6.643
    8AU     LIG 4515  19.527  15.819   6.411
    8AU     LIG 4516  19.697  15.403   6.265
    8AU     LIG 4517  20.028  15.103   6.099
    8AU     LIG 4518  20.289  14.949   5.735
    8AU     LIG 4519  20.382  14.665   5.365
    8AU     LIG 4520  20.452  14.519   4.917
    9AU     AUC 4521  16.669  40.339   7.505
    9AU     AUC 4522  16.912  40.340   7.339
    9AU     AUC 4523  16.927  40.344   7.648
    9AU     AUC 4524  16.410  40.332   7.361
    9AU     AUC 4525  16.426  40.344   7.671
    9AU     AUC 4526  16.513  40.587   7.505
    9AU     AUC 4527  16.820  40.591   7.493
    9AU     AUC 4528  16.516  40.085   7.518
    9AU     AUC 4529  16.828  40.091   7.503
    9AU     AUC 4530  16.683  40.191   7.759
    9AU     AUC 4531  16.680  40.501   7.753
    9AU     AUC 4532  16.661  40.181   7.256
    9AU     AUC 4533  16.656  40.490   7.251
    9AU     AUC 4534  17.148  40.340   7.179
    9AU     AUC 4535  17.167  40.339   7.483
    9AU     AUC 4536  17.177  40.347   7.786
    9AU     AUC 4537  16.162  40.322   7.220
    9AU     AUC 4538  16.171  40.346   7.524
    9AU     AUC 4539  16.190  40.351   7.831
    9AU     AUC 4540  16.363  40.830   7.504
    9AU     AUC 4541  16.667  40.837   7.492
    9AU     AUC 4542  16.968  40.835   7.480
    9AU     AUC 4543  16.370  39.843   7.530
    9AU     AUC 4544  16.668  39.842   7.523
    9AU     AUC 4545  16.977  39.849   7.500
    9AU     AUC 4546  16.693  40.045   8.002
    9AU     AUC 4547  16.690  40.344   8.003
    9AU     AUC 4548  16.693  40.653   7.992
    9AU     AUC 4549  16.656  40.028   7.018
    9AU     AUC 4550  16.651  40.328   7.007
    9AU     AUC 4551  16.643  40.633   7.005
    9AU     AUC 4552  16.937  40.191   7.900
    9AU     AUC 4553  16.937  40.498   7.897
    9AU     AUC 4554  16.902  40.182   7.095
    9AU     AUC 4555  16.901  40.489   7.091
    9AU     AUC 4556  16.431  40.193   7.918
    9AU     AUC 4557  16.440  40.499   7.919
    9AU     AUC 4558  16.409  40.172   7.115
    9AU     AUC 4559  16.398  40.478   7.109
    9AU     AUC 4560  17.064  40.588   7.332
    9AU     AUC 4561  17.079  40.591   7.638
    9AU     AUC 4562  16.255  40.579   7.358
    9AU     AUC 4563  16.276  40.597   7.672
    9AU     AUC 4564  17.062  40.086   7.334
    9AU     AUC 4565  17.080  40.092   7.642
    9AU     AUC 4566  16.265  40.082   7.371
    9AU     AUC 4567  16.268  40.097   7.672
    9AU     AUC 4568  16.529  40.749   7.753
    9AU     AUC 4569  16.834  40.749   7.740
    9AU     AUC 4570  16.523  39.944   7.768
    9AU     AUC 4571  16.837  39.943   7.758
    9AU     AUC 4572  16.503  40.735   7.249
    9AU     AUC 4573  16.810  40.739   7.239
    9AU     AUC 4574  16.509  39.928   7.275
    9AU     AUC 4575  16.814  39.930   7.259
    9AU    AUSL 4576  17.116  40.316   8.072
    9AU    AUSL 4577  16.991  39.919   8.054
    9AU     AUL 4578  17.367  40.102   8.213
    9AU       S 4579  17.295  39.612   8.316
    9AU     LIG 4580  17.278  39.225   8.594
    9AU     LIG 4581  17.286  38.904   8.946
    9AU     LIG 4582  17.154  38.488   9.163
    9AU     LIG 4583  17.322  38.102   9.427
    9AU     LIG 4584  17.699  37.953   9.669
    9AU     LIG 4585  17.928  37.781  10.050
    9AU       S 4586  17.159  40.267   8.664
    9AU     LIG 4587  17.439  40.138   9.011
    9AU     LIG 4588  17.597  39.830   9.345
    9AU     LIG 4589  17.886  39.707   9.718
    9AU     LIG 4590  18.256  39.725  10.048
    9AU     LIG 4591  18.450  39.788  10.488
    9AU     LIG 4592  18.659  39.853  10.913
    9AU    AUSL 4593  16.841  40.174   8.214
    9AU    AUSL 4594  16.546  40.493   8.193
    9AU     AUL 4595  16.633  40.312   8.514
    9AU       S 4596  17.038  40.038   8.613
    9AU     LIG 4597  17.230  39.683   8.875
    9AU     LIG 4598  17.259  39.430   9.288
    9AU     LIG 4599  17.348  39.389   9.762
    9AU     LIG 4600  17.353  39.274  10.233
    9AU     LIG 4601  17.308  39.393  10.694
    9AU     LIG 4602  17.440  39.724  11.004
    9AU       S 4603  16.134  40.533   8.629
    9AU     LIG 4604  15.987  40.475   9.104
    9AU     LIG 4605  16.035  40.210   9.510
    9AU     LIG 4606  16.048  40.189   9.986
    9AU     LIG 4607  16.019  40.445  10.399
    9AU     LIG 4608  15.850  40.752  10.738
    9AU     LIG 4609  15.567  40.889  11.101
    9AU    AUSL 4610  16.884  40.517   8.203
    9AU    AUSL 4611  17.232  40.616   7.939
    9AU     AUL 4612  17.327  40.449   8.232
    9AU       S 4613  17.047  40.579   8.643
    9AU     LIG 4614  17.060  40.968   8.936
    9AU     LIG 4615  17.076  41.174   9.386
    9AU     LIG 4616  17.109  41.272   9.868
    9AU     LIG 4617  17.150  41.261  10.351
    9AU     LIG 4618  17.258  41.195  10.812
    9AU     LIG 4619  17.505  40.998  11.174
    9AU       S 4620  17.596  40.857   8.189
    9AU     LIG 4621  17.963  40.768   8.458
    9AU     LIG 4622  18.360  40.804   8.682
    9AU     LIG 4623  18.472  41.047   9.032
    9AU     LIG 4624  18.712  41.376   9.257
    9AU     LIG 4625  18.882  41.602   9.628
    9AU     LIG 4626  19.151  41.617  10.035
    9AU    AUSL 4627  17.085  40.390   6.891
    9AU    AUSL 4628  16.929  40.733   6.934
    9AU     AUL 4629  16.978  40.678   6.585
    9AU       S 4630  17.209  40.254   6.383
    9AU     LIG 4631  17.486  39.940   6.201
    9AU     LIG 4632  17.535  39.808   5.761
    9AU     LIG 4633  17.700  39.853   5.311
    9AU     LIG 4634  18.114  39.802   5.049
    9AU     LIG 4635  18.479  39.808   4.730
    9AU     LIG 4636  18.685  39.962   4.319
    9AU       S 4637  17.404  40.935   6.668
    9AU     LIG 4638  17.768  41.031   6.368
    9AU     LIG 4639  18.075  41.151   6.015
    9AU     LIG 4640  18.291  41.407   5.678
    9AU     LIG 4641  18.151  41.652   5.274
    9AU     LIG 4642  18.122  42.006   4.941
    9AU     LIG 4643  18.224  42.394   4.673
    9AU    AUSL 4644  16.864  40.152   6.801
    9AU    AUSL 4645  17.145  40.075   7.023
    9AU     AUL 4646  17.357  40.220   6.855
    9AU       S 4647  17.325  39.751   6.650
    9AU     LIG 4648  17.644  39.457   6.456
    9AU     LIG 4649  17.785  39.009   6.327
    9AU     LIG 4650  18.138  38.726   6.151
    9AU     LIG 4651  18.431  38.604   5.785
    9AU     LIG 4652  18.823  38.621   5.491
    9AU     LIG 4653  19.276  38.647   5.305
    9AU       S 4654  16.920  39.992   6.397
    9AU     LIG 4655  17.080  39.642   6.124
    9AU     LIG 4656  17.085  39.585   5.645
    9AU     LIG 4657  17.268  39.563   5.197
    9AU     LIG 4658  17.238  39.440   4.721
    9AU     LIG 4659  17.316  39.405   4.236
    9AU     LIG 4660  17.556  39.410   3.807
    9AU    AUSL 4661  16.769  40.471   6.807
    9AU    AUSL 4662  16.527  40.172   6.786
    9AU     AUL 4663  16.678  40.455   6.528
    9AU       S 4664  16.358  40.095   6.301
    9AU     LIG 4665  16.349  39.841   5.894
    9AU     LIG 4666  16.206  39.582   5.524
    9AU     LIG 4667  15.871  39.383   5.260
    9AU     LIG 4668  15.671  39.283   4.847
    9AU     LIG 4669  15.630  39.379   4.386
    9AU     LIG 4670  15.503  39.451   3.929
    9AU       S 4671  17.032  40.126   6.432
    9AU     LIG 4672  17.089  40.102   5.909
    9AU     LIG 4673  17.208  40.044   5.433
    9AU     LIG 4674  17.326  40.129   4.974
    9AU     LIG 4675  17.406  40.473   4.614
    9AU     LIG 4676  17.537  40.741   4.217
    9AU     LIG 4677  17.628  40.974   3.786
    9AU    AUSL 4678  16.252  40.356   8.129
    9AU    AUSL 4679  16.433  40.786   8.073
    9AU     AUL 4680  16.549  40.663   8.398
    9AU       S 4681  15.965  40.380   8.470
    9AU     LIG 4682  15.684  40.183   8.808
    9AU     LIG 4683  15.628  40.025   9.251
    9AU     LIG 4684  15.505  39.871   9.686
    9AU     LIG 4685  15.125  39.869   9.997
    9AU     LIG 4686  14.844  40.019  10.349
    9AU     LIG 4687  14.567  40.035  10.732
    9AU       S 4688  16.185  41.004   8.430
    9AU     LIG 4689  16.140  41.220   8.829
    9AU     LIG 4690  15.968  41.339   9.232
    9AU     LIG 4691  15.669  41.611   9.444
    9AU     LIG 4692  15.506  41.789   9.848
    9AU     LIG 4693  15.188  41.987  10.138
    9AU     LIG 4694  15.025  42.425  10.256
    9AU    AUSL 4695  16.510  40.157   8.215
    9AU    AUSL 4696  16.123  40.087   7.961
    9AU     AUL 4697  16.214  39.972   8.297
    9AU       S 4698  15.845  39.637   8.152
    9AU     LIG 4699  15.482  39.335   8.126
    9AU     LIG 4700  15.115  39.155   8.336
    9AU     LIG 4701  14.698  39.001   8.500
    9AU     LIG 4702  14.453  38.716   8.766
    9AU     LIG 4703  14.342  38.541   9.169
    9AU     LIG 4704  13.998  38.659   9.468
    9AU       S 4705  16.166  40.272   8.684
    9AU     LIG 4706  16.104  39.962   9.048
    9AU     LIG 4707  15.980  39.688   9.434
    9AU     LIG 4708  15.808  39.442   9.807
    9AU     LIG 4709  15.741  39.308  10.266
    9AU     LIG 4710  15.574  39.258  10.723
    9AU     LIG 4711  15.516  39.246  11.202
    9AU    AUSL 4712  16.228  40.249   6.920
    9AU    AUSL 4713  16.380  39.923   6.978
    9AU     AUL 4714  16.480  39.859   6.713
    9AU       S 4715  16.062  40.087   6.482
    9AU     LIG 4716  15.893  39.828   6.148
    9AU     LIG 4717  15.762  39.798   5.687
    9AU     LIG 4718  15.468  39.716   5.301
    9AU     LIG 4719  15.124  39.813   4.966
    9AU     LIG 4720  14.796  40.034   4.680
    9AU     LIG 4721  14.537  40.205   4.309
    9AU       S 4722  15.995  39.661   6.731
    9AU     LIG 4723  15.715  39.302   6.551
    9AU     LIG 4724  15.441  38.906   6.446
    9AU     LIG 4725  15.155  38.718   6.087
    9AU     LIG 4726  14.800  38.743   5.748
    9AU     LIG 4727  14.568  38.488   5.406
    9AU     LIG 4728  14.582  38.211   5.022
    9AU    AUSL 4729  16.432  40.494   6.813
    9AU    AUSL 4730  16.126  40.568   7.072
    9AU     AUL 4731  16.013  40.492   6.781
    9AU       S 4732  15.837  40.952   6.717
    9AU     LIG 4733  15.573  41.029   6.320
    9AU     LIG 4734  15.475  41.266   5.906
    9AU     LIG 4735  15.333  41.424   5.462
    9AU     LIG 4736  15.016  41.581   5.114
    9AU     LIG 4737  14.565  41.564   4.938
    9AU     LIG 4738  14.135  41.773   4.922
    9AU       S 4739  16.242  40.284   6.384
    9AU     LIG 4740  16.061  40.267   5.925
    9AU     LIG 4741  16.124  40.108   5.476
    9AU     LIG 4742  16.118  40.161   4.994
    9AU     LIG 4743  16.090  40.368   4.547
    9AU     LIG 4744  15.968  40.579   4.120
    9AU     LIG 4745  15.794  40.739   3.689
    9AU    AUSL 4746  17.263  40.761   7.446
    9AU    AUSL 4747  17.223  40.631   7.087
    9AU     AUL 4748  17.315  41.075   7.325
    9AU       S 4749  17.545  40.706   6.803
    9AU     LIG 4750  17.961  40.626   6.613
    9AU     LIG 4751  18.264  40.742   6.270
    9AU     LIG 4752  18.570  40.957   5.981
    9AU     LIG 4753  18.897  41.267   5.903
    9AU     LIG 4754  19.221  41.511   5.689
    9AU     LIG 4755  19.440  41.676   5.304
    9AU       S 4756  17.773  40.847   7.331
    9AU     LIG 4757  18.153  41.076   7.357
    9AU     LIG 4758  18.583  41.064   7.216
    9AU     LIG 4759  18.962  41.291   7.396
    9AU     LIG 4760  19.349  41.454   7.584
    9AU     LIG 4761  19.720  41.657   7.412
    9AU     LIG 4762  20.024  42.013   7.476
    9AU    AUSL 4763  17.384  40.463   7.321
    9AU    AUSL 4764  17.380  40.194   7.615
    9AU     AUL 4765  17.682  40.187   7.385
    9AU       S 4766  17.793  40.651   7.229
    9AU     LIG 4767  18.232  40.674   7.056
    9AU     LIG 4768  18.695  40.563   7.092
    9AU     LIG 4769  19.182  40.476   7.098
    9AU     LIG 4770  19.584  40.422   6.865
    9AU     LIG 4771  19.993  40.625   6.755
    9AU     LIG 4772  20.097  41.037   6.683
    9AU       S 4773  17.755  39.707   7.638
    9AU     LIG 4774  17.932  39.377   7.890
    9AU     LIG 4775  18.376  39.201   7.901
    9AU     LIG 4776  18.801  38.991   7.842
    9AU     LIG 4777  19.270  39.038   7.956
    9AU     LIG 4778  19.754  39.019   8.038
    9AU     LIG 4779  20.235  39.148   7.928
    9AU    AUSL 4780  17.382  40.524   7.658
    9AU    AUSL 4781  17.116  40.857   7.737
    9AU     AUL 4782  17.428  40.912   7.708
    9AU       S 4783  17.427  40.980   8.202
    9AU     LIG 4784  17.778  41.251   8.437
    9AU     LIG 4785  18.233  41.291   8.578
    9AU     LIG 4786  18.547  41.536   8.805
    9AU     LIG 4787  18.630  41.885   9.125
    9AU     LIG 4788  18.572  42.349   9.272
    9AU     LIG 4789  18.573  42.833   9.203
    9AU       S 4790  17.848  40.648   7.578
    9AU     LIG 4791  18.346  40.643   7.564
    9AU     LIG 4792  18.745  40.509   7.806
    9AU     LIG 4793  19.179  40.511   8.029
    9AU     LIG 4794  19.468  40.817   8.285
    9AU     LIG 4795  19.911  41.088   8.267
    9AU     LIG 4796  20.396  41.200   8.198
    9AU    AUSL 4797  16.069  40.794   7.530
    9AU    AUSL 4798  16.149  40.625   7.960
    9AU     AUL 4799  15.988  41.036   7.809
    9AU       S 4800  15.879  40.798   8.261
    9AU     LIG 4801  15.768  40.858   8.744
    9AU     LIG 4802  15.524  41.151   9.046
    9AU     LIG 4803  15.260  41.295   9.437
    9AU     LIG 4804  15.097  41.482   9.862
    9AU     LIG 4805  14.757  41.650  10.159
    9AU     LIG 4806  14.278  41.708  10.155
    9AU       S 4807  15.566  40.955   7.542
    9AU     LIG 4808  15.246  41.300   7.480
    9AU     LIG 4809  15.074  41.740   7.564
    9AU     LIG 4810  14.716  42.013   7.701
    9AU     LIG 4811  14.260  42.181   7.688
    9AU     LIG 4812  13.875  42.413   7.506
    9AU     LIG 4813  13.439  42.559   7.474
    9AU    AUSL 4814  15.960  40.505   7.376
    9AU    AUSL 4815  16.206  40.865   7.238
    9AU     AUL 4816  15.877  40.770   7.191
    9AU       S 4817  15.441  40.669   7.408
    9AU     LIG 4818  15.192  40.946   7.086
    9AU     LIG 4819  14.786  41.073   6.824
    9AU     LIG 4820  14.307  41.127   6.739
    9AU     LIG 4821  13.903  40.898   6.663
    9AU     LIG 4822  13.418  40.957   6.628
    9AU     LIG 4823  13.120  41.199   6.334
    9AU       S 4824  15.902  41.183   6.907
    9AU     LIG 4825  15.730  41.451   6.571
    9AU     LIG 4826  15.700  41.666   6.158
    9AU     LIG 4827  15.554  42.024   5.885
    9AU     LIG 4828  15.279  42.421   5.835
    9AU     LIG 4829  14.962  42.783   5.810
    9AU     LIG 4830  14.706  43.129   5.992
    9AU    AUSL 4831  15.970  40.524   7.711
    9AU    AUSL 4832  15.921  40.182   7.355
    9AU     AUL 4833  15.694  40.331   7.688
    9AU       S 4834  15.537  40.232   7.158
    9AU     LIG 4835  15.134  40.271   7.512
    9AU     LIG 4836  14.721  40.068   7.608
    9AU     LIG 4837  14.303  39.846   7.539
    9AU     LIG 4838  13.920  39.672   7.305
    9AU     LIG 4839  13.503  39.492   7.247
    9AU     LIG 4840  13.057  39.575   7.140
    9AU       S 4841  15.537  40.778   7.834
    9AU     LIG 4842  15.127  40.971   8.043
    9AU     LIG 4843  14.689  40.994   8.270
    9AU     LIG 4844  14.318  41.305   8.296
    9AU     LIG 4845  13.916  41.333   8.580
    9AU     LIG 4846  13.455  41.393   8.713
    9AU     LIG 4847  13.077  41.654   8.477
    9AU    AUSL 4848  17.281  39.893   7.505
    9AU    AUSL 4849  17.236  40.068   7.883
    9AU     AUL 4850  17.576  40.124   7.830
    9AU       S 4851  17.491  39.520   7.471
    9AU     LIG 4852  17.642  39.125   7.531
    9AU     LIG 4853  18.025  38.905   7.688
    9AU     LIG 4854  18.422  38.673   7.638
    9AU     LIG 4855  18.769  38.428   7.802
    9AU     LIG 4856  19.188  38.271   7.738
    9AU     LIG 4857  19.586  38.064   7.713
    9AU       S 4858  17.469  39.647   8.077
    9AU     LIG 4859  17.726  39.348   8.367
    9AU     LIG 4860  17.711  38.933   8.600
    9AU     LIG 4861  17.995  38.572   8.738
    9AU     LIG 4862  18.391  38.590   9.037
    9AU     LIG 4863  18.732  38.522   9.372
    9AU     LIG 4864  19.040  38.633   9.726
    9AU    AUSL 4865  17.330  40.141   7.290
    9AU    AUSL 4866  17.107  39.801   7.224
    9AU     AUL 4867  17.475  39.942   7.118
    9AU       S 4868  17.611  39.672   7.504
    9AU     LIG 4869  18.055  39.378   7.393
    9AU     LIG 4870  18.507  39.136   7.404
    9AU     LIG 4871  19.019  39.029   7.375
    9AU     LIG 4872  19.465  38.977   7.154
    9AU     LIG 4873  19.755  39.116   6.779
    9AU     LIG 4874  20.243  39.207   6.828
    9AU       S 4875  17.349  39.513   6.881
    9AU     LIG 4876  17.563  39.072   6.841
    9AU     LIG 4877  17.795  38.665   6.708
    9AU     LIG 4878  18.035  38.337   6.473
    9AU     LIG 4879  18.348  38.219   6.122
    9AU     LIG 4880  18.643  37.819   6.067
    9AU     LIG 4881  18.826  37.363   6.029
    9AU    AUSL 4882  16.088  39.927   7.498
    9AU    AUSL 4883  16.103  40.033   7.135
    9AU     AUL 4884  15.909  39.746   7.402
    9AU       S 4885  15.854  39.816   6.867
    9AU     LIG 4886  15.444  39.644   6.852
    9AU     LIG 4887  15.191  39.309   6.668
    9AU     LIG 4888  14.917  38.973   6.462
    9AU     LIG 4889  14.649  38.643   6.224
    9AU     LIG 4890  14.321  38.582   5.860
    9AU     LIG 4891  14.142  38.774   5.450
    9AU       S 4892  15.566  40.016   7.203
    9AU     LIG 4893  15.252  39.681   7.337
    9AU     LIG 4894  14.773  39.629   7.330
    9AU     LIG 4895  14.353  39.382   7.310
    9AU     LIG 4896  13.931  39.128   7.332
    9AU     LIG 4897  13.581  38.807   7.446
    9AU     LIG 4898  13.271  38.623   7.759
    9AU    AUSL 4899  16.002  40.196   7.675
    9AU    AUSL 4900  16.206  39.800   7.782
    9AU     AUL 4901  15.815  39.949   7.757
    9AU       S 4902  15.935  39.449   7.851
    9AU     LIG 4903  15.678  39.064   7.726
    9AU     LIG 4904  15.356  38.816   7.961
    9AU     LIG 4905  14.898  38.770   8.084
    9AU     LIG 4906  14.658  38.487   8.363
    9AU     LIG 4907  14.505  38.198   8.659
    9AU     LIG 4908  14.342  38.045   9.041
    9AU       S 4909  15.542  40.119   7.283
    9AU     LIG 4910  15.051  40.055   7.073
    9AU     LIG 4911  14.551  40.058   7.117
    9AU     LIG 4912  14.077  40.156   7.196
    9AU     LIG 4913  13.785  40.097   7.564
    9AU     LIG 4914  13.394  39.830   7.627
    9AU     LIG 4915  12.908  39.862   7.592
    9AU    AUSL 4916  16.683  40.958   7.928
    9AU    AUSL 4917  16.283  40.867   7.781
    9AU     AUL 4918  16.339  41.152   7.948
    9AU       S 4919  16.062  40.960   8.316
    9AU     LIG 4920  15.764  41.300   8.490
    9AU     LIG 4921  15.717  41.596   8.859
    9AU     LIG 4922  15.537  41.971   9.088
    9AU     LIG 4923  15.275  42.365   9.155
    9AU     LIG 4924  14.943  42.668   9.322
    9AU     LIG 4925  14.618  42.852   9.621
    9AU       S 4926  16.720  41.446   8.086
    9AU     LIG 4927  16.984  41.621   8.413
    9AU     LIG 4928  17.031  42.012   8.644
    9AU     LIG 4929  17.079  42.294   9.010
    9AU     LIG 4930  17.066  42.552   9.401
    9AU     LIG 4931  16.928  42.894   9.686
    9AU     LIG 4932  16.638  43.239   9.850
    9AU    AUSL 4933  16.519  41.055   7.643
    9AU    AUSL 4934  16.808  41.073   7.323
    9AU     AUL 4935  16.358  41.293   7.436
    9AU       S 4936  16.622  41.555   7.803
    9AU     LIG 4937  16.721  41.955   8.105
    9AU     LIG 4938  16.837  42.372   8.317
    9AU     LIG 4939  16.850  42.839   8.397
    9AU     LIG 4940  16.605  43.254   8.467
    9AU     LIG 4941  16.354  43.668   8.515
    9AU     LIG 4942  16.151  44.098   8.516
    9AU       S 4943  16.958  41.487   7.246
    9AU     LIG 4944  17.224  41.837   7.069
    9AU     LIG 4945  17.338  42.229   6.810
    9AU     LIG 4946  17.469  42.691   6.711
    9AU     LIG 4947  17.635  43.149   6.703
    9AU     LIG 4948  17.788  43.532   6.467
    9AU     LIG 4949  17.741  43.993   6.443
    9AU    AUSL 4950  16.857  41.044   7.646
    9AU    AUSL 4951  16.949  40.788   8.028
    9AU     AUL 4952  17.054  41.127   7.907
    9AU       S 4953  17.227  40.932   8.337
    9AU     LIG 4954  17.526  40.894   8.713
    9AU     LIG 4955  17.932  41.068   8.923
    9AU     LIG 4956  18.174  41.432   9.156
    9AU     LIG 4957  18.366  41.685   9.515
    9AU     LIG 4958  18.397  42.125   9.713
    9AU     LIG 4959  18.378  42.446  10.068
    9AU       S 4960  16.831  41.526   7.722
    9AU     LIG 4961  17.161  41.753   7.944
    9AU     LIG 4962  17.271  42.128   8.198
    9AU     LIG 4963  17.333  42.605   8.276
    9AU     LIG 4964  17.610  43.017   8.234
    9AU     LIG 4965  17.724  43.463   8.374
    9AU     LIG 4966  17.620  43.875   8.567
    9AU    AUSL 4967  16.702  39.764   7.976
    9AU    AUSL 4968  17.099  39.785   7.759
    9AU     AUL 4969  16.925  39.528   7.998
    9AU       S 4970  16.537  39.207   8.085
    9AU     LIG 4971  16.356  38.798   8.213
    9AU     LIG 4972  16.155  38.383   8.226
    9AU     LIG 4973  16.004  37.983   8.397
    9AU     LIG 4974  16.217  37.624   8.601
    9AU     LIG 4975  16.450  37.425   8.941
    9AU     LIG 4976  16.531  37.275   9.375
    9AU       S 4977  17.420  39.487   7.956
    9AU     LIG 4978  17.546  39.027   8.018
    9AU     LIG 4979  17.787  38.653   8.179
    9AU     LIG 4980  18.049  38.262   8.269
    9AU     LIG 4981  18.215  37.855   8.508
    9AU     LIG 4982  18.568  37.805   8.848
    9AU     LIG 4983  18.740  37.396   9.024
    9AU    AUSL 4984  16.493  39.641   7.732
    9AU    AUSL 4985  16.413  39.922   8.005
    9AU     AUL 4986  16.444  39.690   8.164
    9AU       S 4987  16.358  39.217   7.856
    9AU     LIG 4988  16.143  38.864   7.760
    9AU     LIG 4989  15.910  38.497   7.773
    9AU     LIG 4990  15.872  38.037   7.906
    9AU     LIG 4991  15.836  37.533   7.978
    9AU     LIG 4992  15.703  37.033   8.018
    9AU     LIG 4993  15.600  36.579   8.273
    9AU       S 4994  16.015  39.521   8.020
    9AU     LIG 4995  15.906  39.063   8.191
    9AU     LIG 4996  15.534  38.863   8.449
    9AU     LIG 4997  15.113  38.727   8.636
    9AU     LIG 4998  14.861  38.455   8.930
    9AU     LIG 4999  14.765  38.191   9.287
    9AU     LIG 5000  14.739  38.076   9.732
    9AU    AUSL 5001  16.811  39.663   7.673
    9AU    AUSL 5002  16.511  39.600   7.399
    9AU     AUL 5003  16.876  39.397   7.597
    9AU       S 5004  16.203  39.248   7.391
    9AU     LIG 5005  15.932  38.845   7.309
    9AU     LIG 5006  15.952  38.354   7.290
    9AU     LIG 5007  15.929  37.918   7.057
    9AU     LIG 5008  15.771  37.597   6.690
    9AU     LIG 5009  15.820  37.167   6.413
    9AU     LIG 5010  15.720  36.666   6.280
    9AU       S 5011  16.477  39.269   7.834
    9AU     LIG 5012  16.646  38.809   7.787
    9AU     LIG 5013  16.428  38.386   7.786
    9AU     LIG 5014  16.373  37.939   8.015
    9AU     LIG 5015  16.534  37.492   8.164
    9AU     LIG 5016  16.605  37.127   8.488
    9AU     LIG 5017  16.891  36.717   8.624
    9AU    AUSL 5018  16.673  40.926   7.042
    9AU    AUSL 5019  17.054  40.881   7.211
    9AU     AUL 5020  16.971  41.071   6.926
    9AU       S 5021  16.730  41.500   6.942
    9AU     LIG 5022  16.922  41.841   6.656
    9AU     LIG 5023  17.062  42.199   6.361
    9AU     LIG 5024  17.144  42.374   5.910
    9AU     LIG 5025  17.150  42.668   5.531
    9AU     LIG 5026  16.960  43.022   5.276
    9AU     LIG 5027  16.882  43.476   5.154
    9AU       S 5028  17.471  40.876   6.907
    9AU     LIG 5029  17.916  41.063   6.872
    9AU     LIG 5030  18.242  41.183   6.535
    9AU     LIG 5031  18.482  41.426   6.187
    9AU     LIG 5032  18.744  41.762   5.965
    9AU     LIG 5033  18.873  42.226   5.911
    9AU     LIG 5034  19.043  42.649   5.764
    9AU    AUSL 5035  16.492  41.002   7.318
    9AU    AUSL 5036  16.384  40.778   6.966
    9AU     AUL 5037  16.378  41.146   7.043
    9AU       S 5038  16.761  41.468   7.227
    9AU     LIG 5039  16.733  41.961   7.137
    9AU     LIG 5040  16.834  42.324   6.833
    9AU     LIG 5041  16.886  42.765   6.649
    9AU     LIG 5042  16.655  43.201   6.581
    9AU     LIG 5043  16.373  43.610   6.558
    9AU     LIG 5044  16.170  44.044   6.478
    9AU       S 5045  16.117  41.006   6.633
    9AU     LIG 5046  16.024  41.238   6.202
    9AU     LIG 5047  15.943  41.432   5.763
    9AU     LIG 5048  15.800  41.625   5.353
    9AU     LIG 5049  15.745  41.948   5.014
    9AU     LIG 5050  15.520  42.185   4.680
    9AU     LIG 5051  15.096  42.340   4.508
    9AU    AUSL 5052  16.622  39.741   7.118
    9AU    AUSL 5053  16.262  39.766   7.256
    9AU     AUL 5054  16.460  39.561   6.955
    9AU       S 5055  15.945  39.497   6.970
    9AU     LIG 5056  15.588  39.139   7.021
    9AU     LIG 5057  15.188  38.854   6.905
    9AU     LIG 5058  14.820  38.555   6.745
    9AU     LIG 5059  14.469  38.283   6.538
    9AU     LIG 5060  14.245  38.148   6.147
    9AU     LIG 5061  14.027  37.737   6.001
    9AU       S 5062  16.389  39.250   7.324
    9AU     LIG 5063  16.233  38.971   6.936
    9AU     LIG 5064  16.110  38.501   6.824
    9AU     LIG 5065  16.146  38.046   6.610
    9AU     LIG 5066  16.199  37.602   6.397
    9AU     LIG 5067  16.204  37.380   5.979
    9AU     LIG 5068  16.244  37.228   5.531
    9AU    AUSL 5069  16.843  39.641   7.348
    9AU    AUSL 5070  16.887  39.862   6.965
    9AU     AUL 5071  16.879  39.486   7.065
    9AU       S 5072  16.539  39.170   7.324
    9AU     LIG 5073  16.420  38.711   7.343
    9AU     LIG 5074  16.443  38.284   7.176
    9AU     LIG 5075  16.447  37.851   6.987
    9AU     LIG 5076  16.697  37.522   6.765
    9AU     LIG 5077  16.893  37.104   6.665
    9AU     LIG 5078  17.081  36.831   6.341
    9AU       S 5079  17.123  39.631   6.649
    9AU     LIG 5080  17.204  39.216   6.439
    9AU     LIG 5081  17.323  38.847   6.157
    9AU     LIG 5082  17.246  38.465   5.884
    9AU     LIG 5083  17.455  38.127   5.633
    9AU     LIG 5084  17.758  37.977   5.297
    9AU     LIG 5085  17.983  37.929   4.878
   10AU     AUC 5086  33.709  39.683   7.506
   10AU     AUC 5087  33.952  39.681   7.340
   10AU     AUC 5088  33.967  39.685   7.648
   10AU     AUC 5089  33.450  39.679   7.362
   10AU     AUC 5090  33.467  39.690   7.672
   10AU     AUC 5091  33.556  39.932   7.506
   10AU     AUC 5092  33.863  39.934   7.494
   10AU     AUC 5093  33.554  39.430   7.518
   10AU     AUC 5094  33.865  39.433   7.503
   10AU     AUC 5095  33.722  39.533   7.759
   10AU     AUC 5096  33.722  39.844   7.754
   10AU     AUC 5097  33.699  39.525   7.256
   10AU     AUC 5098  33.698  39.834   7.252
   10AU     AUC 5099  34.187  39.680   7.178
   10AU     AUC 5100  34.207  39.678   7.483
   10AU     AUC 5101  34.217  39.685   7.786
   10AU     AUC 5102  33.202  39.672   7.222
   10AU     AUC 5103  33.211  39.696   7.524
   10AU     AUC 5104  33.231  39.698   7.831
   10AU     AUC 5105  33.409  40.177   7.505
   10AU     AUC 5106  33.713  40.181   7.495
   10AU     AUC 5107  34.014  40.176   7.483
   10AU     AUC 5108  33.405  39.190   7.530
   10AU     AUC 5109  33.704  39.185   7.522
   10AU     AUC 5110  34.012  39.190   7.499
   10AU     AUC 5111  33.731  39.387   8.002
   10AU     AUC 5112  33.730  39.687   8.003
   10AU     AUC 5113  33.735  39.996   7.993
   10AU     AUC 5114  33.691  39.373   7.017
   10AU     AUC 5115  33.689  39.673   7.008
   10AU     AUC 5116  33.686  39.979   7.007
   10AU     AUC 5117  33.976  39.532   7.900
   10AU     AUC 5118  33.977  39.839   7.898
   10AU     AUC 5119  33.939  39.525   7.094
   10AU     AUC 5120  33.941  39.832   7.092
   10AU     AUC 5121  33.471  39.537   7.918
   10AU     AUC 5122  33.481  39.844   7.919
   10AU     AUC 5123  33.447  39.519   7.117
   10AU     AUC 5124  33.441  39.825   7.111
   10AU     AUC 5125  34.108  39.928   7.333
   10AU     AUC 5126  34.122  39.930   7.640
   10AU     AUC 5127  33.299  39.928   7.357
   10AU     AUC 5128  33.318  39.944   7.672
   10AU     AUC 5129  34.099  39.426   7.332
   10AU     AUC 5130  34.118  39.431   7.641
   10AU     AUC 5131  33.302  39.431   7.372
   10AU     AUC 5132  33.307  39.444   7.673
   10AU     AUC 5133  33.572  40.093   7.755
   10AU     AUC 5134  33.878  40.090   7.742
   10AU     AUC 5135  33.560  39.287   7.768
   10AU     AUC 5136  33.874  39.284   7.757
   10AU     AUC 5137  33.550  40.083   7.251
   10AU     AUC 5138  33.856  40.082   7.241
   10AU     AUC 5139  33.545  39.275   7.274
   10AU     AUC 5140  33.850  39.273   7.258
   10AU    AUSL 5141  34.155  39.656   8.073
   10AU    AUSL 5142  34.028  39.262   8.055
   10AU     AUL 5143  34.426  39.463   8.195
   10AU       S 5144  34.294  38.990   8.337
   10AU     LIG 5145  34.314  38.604   8.589
   10AU     LIG 5146  34.350  38.186   8.790
   10AU     LIG 5147  34.587  37.811   8.946
   10AU     LIG 5148  34.750  37.539   9.298
   10AU     LIG 5149  34.790  37.514   9.783
   10AU     LIG 5150  34.906  37.381  10.232
   10AU       S 5151  34.199  39.584   8.661
   10AU     LIG 5152  34.443  39.536   9.039
   10AU     LIG 5153  34.612  39.251   9.370
   10AU     LIG 5154  34.923  39.171   9.719
   10AU     LIG 5155  35.280  39.334   9.986
   10AU     LIG 5156  35.559  39.298  10.365
   10AU     LIG 5157  35.747  39.359  10.796
   10AU    AUSL 5158  33.880  39.516   8.214
   10AU    AUSL 5159  33.585  39.837   8.193
   10AU     AUL 5160  33.665  39.640   8.520
   10AU       S 5161  34.084  39.379   8.599
   10AU     LIG 5162  34.304  39.059   8.876
   10AU     LIG 5163  34.300  38.836   9.306
   10AU     LIG 5164  34.244  38.714   9.781
   10AU     LIG 5165  34.239  38.658  10.269
   10AU     LIG 5166  34.295  38.771  10.734
   10AU     LIG 5167  34.444  39.125  11.019
   10AU       S 5168  33.172  39.884   8.636
   10AU     LIG 5169  32.970  39.826   9.090
   10AU     LIG 5170  32.987  39.594   9.515
   10AU     LIG 5171  32.900  39.532   9.986
   10AU     LIG 5172  32.893  39.724  10.427
   10AU     LIG 5173  32.963  39.954  10.846
   10AU     LIG 5174  32.850  40.252  11.203
   10AU    AUSL 5175  33.922  39.859   8.205
   10AU    AUSL 5176  34.274  39.954   7.941
   10AU     AUL 5177  34.353  39.800   8.244
   10AU       S 5178  34.077  39.912   8.654
   10AU     LIG 5179  34.106  40.293   8.957
   10AU     LIG 5180  34.377  40.447   9.334
   10AU     LIG 5181  34.536  40.525   9.785
   10AU     LIG 5182  34.398  40.569  10.251
   10AU     LIG 5183  34.470  40.521  10.715
   10AU     LIG 5184  34.760  40.482  11.084
   10AU       S 5185  34.636  40.196   8.186
   10AU     LIG 5186  34.962  40.065   8.460
   10AU     LIG 5187  35.189  40.218   8.817
   10AU     LIG 5188  35.441  40.420   9.147
   10AU     LIG 5189  35.864  40.443   9.402
   10AU     LIG 5190  36.252  40.584   9.672
   10AU     LIG 5191  36.524  40.831   9.994
   10AU    AUSL 5192  34.120  39.734   6.889
   10AU    AUSL 5193  33.973  40.074   6.936
   10AU     AUL 5194  33.999  40.030   6.586
   10AU       S 5195  34.245  39.615   6.386
   10AU     LIG 5196  34.532  39.319   6.190
   10AU     LIG 5197  34.698  39.184   5.781
   10AU     LIG 5198  34.835  39.290   5.337
   10AU     LIG 5199  35.186  39.390   5.021
   10AU     LIG 5200  35.482  39.405   4.636
   10AU     LIG 5201  35.632  39.512   4.183
   10AU       S 5202  34.445  40.248   6.657
   10AU     LIG 5203  34.726  40.408   6.310
   10AU     LIG 5204  34.910  40.526   5.877
   10AU     LIG 5205  34.983  40.640   5.408
   10AU     LIG 5206  35.102  40.997   5.106
   10AU     LIG 5207  35.350  41.380   4.960
   10AU     LIG 5208  35.434  41.818   4.781
   10AU    AUSL 5209  33.898  39.497   6.801
   10AU    AUSL 5210  34.180  39.416   7.021
   10AU     AUL 5211  34.392  39.555   6.856
   10AU       S 5212  34.348  39.100   6.626
   10AU     LIG 5213  34.560  38.811   6.308
   10AU     LIG 5214  34.818  38.420   6.194
   10AU     LIG 5215  35.105  38.080   6.014
   10AU     LIG 5216  35.465  38.051   5.676
   10AU     LIG 5217  35.894  38.012   5.427
   10AU     LIG 5218  36.315  37.857   5.221
   10AU       S 5219  33.950  39.352   6.386
   10AU     LIG 5220  34.120  39.018   6.126
   10AU     LIG 5221  34.239  38.987   5.680
   10AU     LIG 5222  34.388  39.034   5.226
   10AU     LIG 5223  34.391  38.993   4.746
   10AU     LIG 5224  34.443  38.832   4.289
   10AU     LIG 5225  34.573  38.818   3.826
   10AU    AUSL 5226  33.802  39.817   6.808
   10AU    AUSL 5227  33.562  39.522   6.787
   10AU     AUL 5228  33.710  39.796   6.529
   10AU       S 5229  33.340  39.497   6.324
   10AU     LIG 5230  33.311  39.242   5.923
   10AU     LIG 5231  33.050  38.990   5.619
   10AU     LIG 5232  32.844  38.857   5.211
   10AU     LIG 5233  32.742  38.595   4.820
   10AU     LIG 5234  32.726  38.555   4.344
   10AU     LIG 5235  32.678  38.721   3.903
   10AU       S 5236  34.071  39.479   6.429
   10AU     LIG 5237  34.127  39.479   5.915
   10AU     LIG 5238  34.360  39.472   5.505
   10AU     LIG 5239  34.460  39.539   5.043
   10AU     LIG 5240  34.504  39.841   4.670
   10AU     LIG 5241  34.421  39.966   4.207
   10AU     LIG 5242  34.503  40.184   3.780
   10AU    AUSL 5243  33.292  39.699   8.130
   10AU    AUSL 5244  33.476  40.132   8.072
   10AU     AUL 5245  33.591  39.989   8.404
   10AU       S 5246  32.995  39.727   8.449
   10AU     LIG 5247  32.709  39.517   8.762
   10AU     LIG 5248  32.639  39.378   9.199
   10AU     LIG 5249  32.563  39.312   9.658
   10AU     LIG 5250  32.360  39.331  10.093
   10AU     LIG 5251  31.968  39.311  10.394
   10AU     LIG 5252  31.597  39.513  10.615
   10AU       S 5253  33.298  40.395   8.417
   10AU     LIG 5254  33.247  40.460   8.853
   10AU     LIG 5255  32.951  40.684   9.116
   10AU     LIG 5256  32.773  40.798   9.538
   10AU     LIG 5257  32.478  40.935   9.892
   10AU     LIG 5258  32.321  41.288  10.183
   10AU     LIG 5259  32.112  41.634  10.444
   10AU    AUSL 5260  33.549  39.502   8.213
   10AU    AUSL 5261  33.164  39.432   7.963
   10AU     AUL 5262  33.267  39.316   8.307
   10AU       S 5263  32.873  39.012   8.163
   10AU     LIG 5264  32.479  38.752   8.176
   10AU     LIG 5265  32.109  38.542   8.388
   10AU     LIG 5266  31.764  38.308   8.617
   10AU     LIG 5267  31.527  38.048   8.937
   10AU     LIG 5268  31.324  38.030   9.366
   10AU     LIG 5269  31.051  38.174   9.736
   10AU       S 5270  33.188  39.636   8.673
   10AU     LIG 5271  33.132  39.338   9.038
   10AU     LIG 5272  33.011  39.086   9.423
   10AU     LIG 5273  32.929  39.016   9.880
   10AU     LIG 5274  32.830  38.812  10.298
   10AU     LIG 5275  32.726  38.609  10.725
   10AU     LIG 5276  32.445  38.628  11.113
   10AU    AUSL 5277  33.266  39.592   6.923
   10AU    AUSL 5278  33.414  39.271   6.977
   10AU     AUL 5279  33.509  39.215   6.696
   10AU       S 5280  33.091  39.468   6.484
   10AU     LIG 5281  32.861  39.212   6.170
   10AU     LIG 5282  32.637  39.271   5.747
   10AU     LIG 5283  32.408  39.138   5.335
   10AU     LIG 5284  32.082  39.078   4.966
   10AU     LIG 5285  31.801  39.230   4.596
   10AU     LIG 5286  31.528  39.352   4.224
   10AU       S 5287  33.025  39.025   6.725
   10AU     LIG 5288  32.735  38.633   6.617
   10AU     LIG 5289  32.460  38.295   6.439
   10AU     LIG 5290  32.185  38.018   6.173
   10AU     LIG 5291  32.034  37.849   5.755
   10AU     LIG 5292  32.096  37.620   5.328
   10AU     LIG 5293  32.003  37.389   4.913
   10AU    AUSL 5294  33.458  39.840   6.823
   10AU    AUSL 5295  33.182  39.919   7.066
   10AU     AUL 5296  32.986  39.769   6.880
   10AU       S 5297  33.006  40.202   6.631
   10AU     LIG 5298  32.761  40.273   6.225
   10AU     LIG 5299  32.518  40.347   5.814
   10AU     LIG 5300  32.299  40.598   5.474
   10AU     LIG 5301  31.901  40.661   5.208
   10AU     LIG 5302  31.486  40.846   5.044
   10AU     LIG 5303  31.082  41.081   4.944
   10AU       S 5304  33.231  39.747   6.424
   10AU     LIG 5305  33.015  39.666   5.972
   10AU     LIG 5306  33.032  39.508   5.513
   10AU     LIG 5307  32.977  39.586   5.032
   10AU     LIG 5308  32.998  39.828   4.595
   10AU     LIG 5309  33.086  40.022   4.143
   10AU     LIG 5310  33.045  40.184   3.675
   10AU    AUSL 5311  34.309  40.098   7.448
   10AU    AUSL 5312  34.267  39.967   7.086
   10AU     AUL 5313  34.375  40.406   7.314
   10AU       S 5314  34.600  40.031   6.809
   10AU     LIG 5315  34.996  40.055   6.568
   10AU     LIG 5316  35.215  40.230   6.179
   10AU     LIG 5317  35.423  40.428   5.788
   10AU     LIG 5318  35.817  40.560   5.552
   10AU     LIG 5319  36.197  40.801   5.410
   10AU     LIG 5320  36.358  41.222   5.267
   10AU       S 5321  34.839  40.176   7.358
   10AU     LIG 5322  35.309  40.232   7.499
   10AU     LIG 5323  35.792  40.226   7.600
   10AU     LIG 5324  36.231  40.438   7.673
   10AU     LIG 5325  36.425  40.840   7.839
   10AU     LIG 5326  36.794  41.122   7.873
   10AU     LIG 5327  37.056  41.386   7.583
   10AU    AUSL 5328  34.425  39.799   7.322
   10AU    AUSL 5329  34.421  39.531   7.612
   10AU     AUL 5330  34.718  39.518   7.360
   10AU       S 5331  34.844  39.987   7.244
   10AU     LIG 5332  35.316  39.839   7.173
   10AU     LIG 5333  35.804  39.829   7.269
   10AU     LIG 5334  36.277  39.765   7.144
   10AU     LIG 5335  36.749  39.757   7.084
   10AU     LIG 5336  37.139  40.036   7.013
   10AU     LIG 5337  37.434  40.397   7.023
   10AU       S 5338  34.814  39.066   7.641
   10AU     LIG 5339  35.289  38.945   7.721
   10AU     LIG 5340  35.721  38.704   7.731
   10AU     LIG 5341  36.098  38.446   7.793
   10AU     LIG 5342  36.532  38.567   7.950
   10AU     LIG 5343  36.890  38.849   8.059
   10AU     LIG 5344  37.342  38.766   8.141
   10AU    AUSL 5345  34.423  39.859   7.660
   10AU    AUSL 5346  34.162  40.195   7.738
   10AU     AUL 5347  34.472  40.251   7.707
   10AU       S 5348  34.470  40.318   8.205
   10AU     LIG 5349  34.800  40.564   8.493
   10AU     LIG 5350  35.159  40.739   8.747
   10AU     LIG 5351  35.525  41.011   8.678
   10AU     LIG 5352  35.616  41.469   8.623
   10AU     LIG 5353  35.632  41.826   8.911
   10AU     LIG 5354  35.793  42.205   9.146
   10AU       S 5355  34.880  39.954   7.607
   10AU     LIG 5356  35.319  39.739   7.674
   10AU     LIG 5357  35.778  39.735   7.779
   10AU     LIG 5358  36.217  39.929   7.749
   10AU     LIG 5359  36.682  39.988   7.918
   10AU     LIG 5360  37.125  40.158   7.947
   10AU     LIG 5361  37.475  40.456   7.913
   10AU    AUSL 5362  33.114  40.147   7.522
   10AU    AUSL 5363  33.189  39.969   7.964
   10AU     AUL 5364  33.010  40.346   7.826
   10AU       S 5365  32.955  40.181   8.305
   10AU     LIG 5366  32.804  40.208   8.769
   10AU     LIG 5367  32.555  40.363   9.159
   10AU     LIG 5368  32.294  40.644   9.453
   10AU     LIG 5369  31.974  40.800   9.761
   10AU     LIG 5370  31.513  40.889   9.868
   10AU     LIG 5371  31.155  41.172  10.005
   10AU       S 5372  32.615  40.327   7.508
   10AU     LIG 5373  32.272  40.655   7.528
   10AU     LIG 5374  32.090  41.113   7.497
   10AU     LIG 5375  31.814  41.496   7.586
   10AU     LIG 5376  31.390  41.700   7.608
   10AU     LIG 5377  30.945  41.769   7.511
   10AU     LIG 5378  30.509  41.914   7.489
   10AU    AUSL 5379  33.001  39.861   7.367
   10AU    AUSL 5380  33.258  40.212   7.233
   10AU     AUL 5381  32.934  40.145   7.166
   10AU       S 5382  32.503  40.013   7.379
   10AU     LIG 5383  32.197  39.974   7.036
   10AU     LIG 5384  31.831  40.207   6.805
   10AU     LIG 5385  31.450  40.365   6.559
   10AU     LIG 5386  30.965  40.331   6.591
   10AU     LIG 5387  30.516  40.397   6.726
   10AU     LIG 5388  30.258  40.796   6.806
   10AU       S 5389  32.999  40.464   6.784
   10AU     LIG 5390  32.744  40.719   6.504
   10AU     LIG 5391  32.746  41.034   6.165
   10AU     LIG 5392  32.523  41.407   5.976
   10AU     LIG 5393  32.144  41.693   5.920
   10AU     LIG 5394  31.864  42.066   5.853
   10AU     LIG 5395  31.463  42.267   6.017
   10AU    AUSL 5396  33.015  39.878   7.705
   10AU    AUSL 5397  32.958  39.537   7.361
   10AU     AUL 5398  32.739  39.688   7.695
   10AU       S 5399  32.557  39.570   7.166
   10AU     LIG 5400  32.168  39.652   7.527
   10AU     LIG 5401  31.832  39.357   7.651
   10AU     LIG 5402  31.386  39.160   7.645
   10AU     LIG 5403  30.972  38.958   7.450
   10AU     LIG 5404  30.543  39.009   7.306
   10AU     LIG 5405  30.162  38.796   7.142
   10AU       S 5406  32.549  40.135   7.759
   10AU     LIG 5407  32.191  40.179   8.019
   10AU     LIG 5408  31.855  40.381   8.242
   10AU     LIG 5409  31.437  40.235   8.324
   10AU     LIG 5410  30.970  40.188   8.322
   10AU     LIG 5411  30.619  40.473   8.395
   10AU     LIG 5412  30.173  40.478   8.264
   10AU    AUSL 5413  34.317  39.230   7.504
   10AU    AUSL 5414  34.271  39.408   7.881
   10AU     AUL 5415  34.606  39.461   7.837
   10AU       S 5416  34.539  38.853   7.493
   10AU     LIG 5417  34.865  38.575   7.707
   10AU     LIG 5418  35.297  38.442   7.569
   10AU     LIG 5419  35.715  38.227   7.511
   10AU     LIG 5420  36.096  37.936   7.538
   10AU     LIG 5421  36.443  37.621   7.652
   10AU     LIG 5422  36.897  37.662   7.644
   10AU       S 5423  34.466  38.989   8.127
   10AU     LIG 5424  34.764  38.805   8.442
   10AU     LIG 5425  34.810  38.394   8.670
   10AU     LIG 5426  35.033  38.075   8.958
   10AU     LIG 5427  35.370  37.930   9.279
   10AU     LIG 5428  35.725  37.895   9.617
   10AU     LIG 5429  36.138  37.761   9.834
   10AU    AUSL 5430  34.367  39.477   7.288
   10AU    AUSL 5431  34.141  39.140   7.221
   10AU     AUL 5432  34.503  39.263   7.111
   10AU       S 5433  34.642  39.021   7.513
   10AU     LIG 5434  35.051  38.824   7.279
   10AU     LIG 5435  35.538  38.810   7.272
   10AU     LIG 5436  35.948  38.569   7.202
   10AU     LIG 5437  36.351  38.726   6.976
   10AU     LIG 5438  36.794  38.618   7.105
   10AU     LIG 5439  37.254  38.571   7.145
   10AU       S 5440  34.364  38.862   6.832
   10AU     LIG 5441  34.545  38.442   6.665
   10AU     LIG 5442  34.691  38.013   6.494
   10AU     LIG 5443  34.808  37.588   6.289
   10AU     LIG 5444  35.014  37.150   6.293
   10AU     LIG 5445  35.378  36.864   6.195
   10AU     LIG 5446  35.549  36.443   6.079
   10AU    AUSL 5447  33.124  39.278   7.500
   10AU    AUSL 5448  33.137  39.384   7.140
   10AU     AUL 5449  32.942  39.102   7.410
   10AU       S 5450  32.880  39.178   6.872
   10AU     LIG 5451  32.462  39.022   6.848
   10AU     LIG 5452  32.201  38.662   6.703
   10AU     LIG 5453  31.948  38.437   6.363
   10AU     LIG 5454  31.705  38.196   6.028
   10AU     LIG 5455  31.309  38.152   5.761
   10AU     LIG 5456  30.998  37.945   5.464
   10AU       S 5457  32.592  39.366   7.220
   10AU     LIG 5458  32.245  39.064   7.329
   10AU     LIG 5459  31.772  38.960   7.326
   10AU     LIG 5460  31.395  38.674   7.454
   10AU     LIG 5461  30.986  38.501   7.674
   10AU     LIG 5462  30.663  38.182   7.829
   10AU     LIG 5463  30.444  37.813   7.626
   10AU    AUSL 5464  33.042  39.548   7.679
   10AU    AUSL 5465  33.242  39.147   7.782
   10AU     AUL 5466  32.852  39.306   7.755
   10AU       S 5467  32.968  38.818   7.867
   10AU     LIG 5468  32.649  38.538   7.725
   10AU     LIG 5469  32.311  38.307   7.945
   10AU     LIG 5470  32.057  38.048   8.249
   10AU     LIG 5471  31.826  37.796   8.575
   10AU     LIG 5472  31.543  37.507   8.817
   10AU     LIG 5473  31.312  37.075   8.839
   10AU       S 5474  32.571  39.484   7.292
   10AU     LIG 5475  32.050  39.466   7.090
   10AU     LIG 5476  31.551  39.434   7.215
   10AU     LIG 5477  31.078  39.451   7.372
   10AU     LIG 5478  30.794  39.323   7.743
   10AU     LIG 5479  30.526  38.949   7.819
   10AU     LIG 5480  30.063  38.884   7.894
   10AU    AUSL 5481  33.726  40.301   7.932
   10AU    AUSL 5482  33.324  40.209   7.780
   10AU     AUL 5483  33.354  40.497   7.915
   10AU       S 5484  33.153  40.311   8.332
   10AU     LIG 5485  32.883  40.667   8.549
   10AU     LIG 5486  32.779  41.065   8.796
   10AU     LIG 5487  32.665  41.525   8.902
   10AU     LIG 5488  32.400  41.862   9.105
   10AU     LIG 5489  32.094  42.175   9.297
   10AU     LIG 5490  31.631  42.286   9.357
   10AU       S 5491  33.748  40.732   8.122
   10AU     LIG 5492  34.031  40.887   8.419
   10AU     LIG 5493  34.109  41.309   8.552
   10AU     LIG 5494  34.060  41.730   8.748
   10AU     LIG 5495  33.987  42.000   9.135
   10AU     LIG 5496  33.902  42.346   9.449
   10AU     LIG 5497  33.729  42.674   9.737
   10AU    AUSL 5498  33.567  40.396   7.647
   10AU    AUSL 5499  33.861  40.416   7.329
   10AU     AUL 5500  33.418  40.645   7.450
   10AU       S 5501  33.677  40.879   7.846
   10AU     LIG 5502  33.698  41.232   8.181
   10AU     LIG 5503  33.854  41.663   8.267
   10AU     LIG 5504  33.660  42.099   8.313
   10AU     LIG 5505  33.368  42.479   8.337
   10AU     LIG 5506  33.295  42.952   8.369
   10AU     LIG 5507  33.314  43.434   8.421
   10AU       S 5508  34.016  40.826   7.268
   10AU     LIG 5509  34.293  41.171   7.065
   10AU     LIG 5510  34.515  41.538   6.842
   10AU     LIG 5511  34.668  41.990   6.760
   10AU     LIG 5512  34.811  42.451   6.738
   10AU     LIG 5513  34.726  42.914   6.623
   10AU     LIG 5514  34.660  43.394   6.580
   10AU    AUSL 5515  33.903  40.385   7.652
   10AU    AUSL 5516  33.993  40.130   8.028
   10AU     AUL 5517  34.108  40.470   7.898
   10AU       S 5518  34.259  40.280   8.340
   10AU     LIG 5519  34.539  40.195   8.721
   10AU     LIG 5520  34.790  40.459   9.021
   10AU     LIG 5521  34.993  40.593   9.428
   10AU     LIG 5522  35.065  40.877   9.810
   10AU     LIG 5523  35.156  41.253  10.104
   10AU     LIG 5524  35.404  41.642  10.210
   10AU       S 5525  33.879  40.879   7.751
   10AU     LIG 5526  34.172  41.192   8.016
   10AU     LIG 5527  34.408  41.582   8.227
   10AU     LIG 5528  34.780  41.912   8.323
   10AU     LIG 5529  35.022  42.335   8.427
   10AU     LIG 5530  34.980  42.822   8.324
   10AU     LIG 5531  34.861  43.287   8.322
   10AU    AUSL 5532  33.741  39.104   7.973
   10AU    AUSL 5533  34.135  39.126   7.759
   10AU     AUL 5534  33.968  38.859   7.983
   10AU       S 5535  33.578  38.541   8.071
   10AU     LIG 5536  33.328  38.165   8.206
   10AU     LIG 5537  33.125  37.745   8.264
   10AU     LIG 5538  33.061  37.308   8.437
   10AU     LIG 5539  33.126  36.874   8.606
   10AU     LIG 5540  33.137  36.624   9.023
   10AU     LIG 5541  33.350  36.462   9.427
   10AU       S 5542  34.471  38.873   7.978
   10AU     LIG 5543  34.556  38.443   8.149
   10AU     LIG 5544  34.601  38.020   8.370
   10AU     LIG 5545  34.668  37.569   8.506
   10AU     LIG 5546  34.902  37.330   8.825
   10AU     LIG 5547  35.261  37.055   8.926
   10AU     LIG 5548  35.628  36.814   9.098
   10AU    AUSL 5549  33.528  38.985   7.729
   10AU    AUSL 5550  33.452  39.264   8.006
   10AU     AUL 5551  33.485  39.025   8.159
   10AU       S 5552  33.383  38.580   7.856
   10AU     LIG 5553  33.084  38.279   7.776
   10AU     LIG 5554  32.993  37.834   7.763
   10AU     LIG 5555  32.951  37.369   7.929
   10AU     LIG 5556  32.805  36.942   8.152
   10AU     LIG 5557  32.852  36.500   8.358
   10AU     LIG 5558  32.997  36.036   8.383
   10AU       S 5559  33.040  38.885   8.032
   10AU     LIG 5560  32.899  38.464   8.215
   10AU     LIG 5561  32.536  38.249   8.408
   10AU     LIG 5562  32.226  38.111   8.734
   10AU     LIG 5563  31.990  37.868   9.063
   10AU     LIG 5564  31.794  37.825   9.485
   10AU     LIG 5565  31.799  37.742   9.953
   10AU    AUSL 5566  33.847  39.002   7.670
   10AU    AUSL 5567  33.542  38.945   7.396
   10AU     AUL 5568  33.903  38.733   7.583
   10AU       S 5569  33.219  38.604   7.394
   10AU     LIG 5570  32.907  38.221   7.315
   10AU     LIG 5571  32.934  37.747   7.249
   10AU     LIG 5572  32.957  37.306   7.031
   10AU     LIG 5573  32.791  36.889   6.821
   10AU     LIG 5574  32.806  36.405   6.773
   10AU     LIG 5575  32.931  35.965   6.662
   10AU       S 5576  33.512  38.595   7.825
   10AU     LIG 5577  33.559  38.107   7.751
   10AU     LIG 5578  33.456  37.646   7.879
   10AU     LIG 5579  33.429  37.203   8.092
   10AU     LIG 5580  33.595  36.776   8.279
   10AU     LIG 5581  33.935  36.402   8.295
   10AU     LIG 5582  34.230  35.994   8.278
   10AU    AUSL 5583  33.726  40.277   7.048
   10AU    AUSL 5584  34.101  40.219   7.214
   10AU     AUL 5585  34.033  40.415   6.935
   10AU       S 5586  33.782  40.838   6.954
   10AU     LIG 5587  33.978  41.157   6.660
   10AU     LIG 5588  34.201  41.508   6.419
   10AU     LIG 5589  34.171  41.828   6.072
   10AU     LIG 5590  34.044  41.991   5.629
   10AU     LIG 5591  33.951  42.316   5.289
   10AU     LIG 5592  33.981  42.763   5.134
   10AU       S 5593  34.516  40.191   6.900
   10AU     LIG 5594  34.880  40.475   6.831
   10AU     LIG 5595  35.152  40.649   6.494
   10AU     LIG 5596  35.443  41.004   6.413
   10AU     LIG 5597  35.684  41.346   6.225
   10AU     LIG 5598  35.775  41.746   6.020
   10AU     LIG 5599  35.849  42.147   5.765
   10AU    AUSL 5600  33.542  40.352   7.321
   10AU    AUSL 5601  33.442  40.131   6.965
   10AU     AUL 5602  33.411  40.504   7.060
   10AU       S 5603  33.822  40.809   7.236
   10AU     LIG 5604  33.803  41.297   7.149
   10AU     LIG 5605  33.990  41.634   6.874
   10AU     LIG 5606  33.987  41.997   6.569
   10AU     LIG 5607  33.823  42.449   6.531
   10AU     LIG 5608  33.505  42.802   6.473
   10AU     LIG 5609  33.421  43.288   6.451
   10AU       S 5610  33.265  40.296   6.603
   10AU     LIG 5611  33.162  40.590   6.241
   10AU     LIG 5612  32.916  40.673   5.834
   10AU     LIG 5613  32.776  40.820   5.389
   10AU     LIG 5614  32.790  41.139   5.021
   10AU     LIG 5615  32.608  41.469   4.714
   10AU     LIG 5616  32.273  41.762   4.519
   10AU    AUSL 5617  33.655  39.086   7.116
   10AU    AUSL 5618  33.296  39.116   7.255
   10AU     AUL 5619  33.498  38.913   6.948
   10AU       S 5620  32.986  38.881   6.967
   10AU     LIG 5621  32.653  38.629   7.130
   10AU     LIG 5622  32.422  38.269   6.962
   10AU     LIG 5623  32.070  38.067   6.698
   10AU     LIG 5624  31.756  37.834   6.410
   10AU     LIG 5625  31.459  37.461   6.289
   10AU     LIG 5626  31.153  37.081   6.212
   10AU       S 5627  33.402  38.606   7.317
   10AU     LIG 5628  33.179  38.397   6.929
   10AU     LIG 5629  33.123  37.945   6.811
   10AU     LIG 5630  33.218  37.510   6.621
   10AU     LIG 5631  33.270  37.187   6.268
   10AU     LIG 5632  33.289  36.992   5.820
   10AU     LIG 5633  33.300  36.605   5.548
   10AU    AUSL 5634  33.874  38.986   7.345
   10AU    AUSL 5635  33.921  39.206   6.964
   10AU     AUL 5636  33.917  38.826   7.070
   10AU       S 5637  33.552  38.519   7.313
   10AU     LIG 5638  33.387  38.060   7.269
   10AU     LIG 5639  33.407  37.600   7.102
   10AU     LIG 5640  33.525  37.166   6.902
   10AU     LIG 5641  33.879  36.800   6.849
   10AU     LIG 5642  34.162  36.382   6.830
   10AU     LIG 5643  34.245  35.881   6.855
   10AU       S 5644  34.131  38.989   6.643
   10AU     LIG 5645  34.106  38.598   6.433
   10AU     LIG 5646  34.330  38.277   6.202
   10AU     LIG 5647  34.596  37.958   5.990
   10AU     LIG 5648  34.648  37.604   5.682
   10AU     LIG 5649  34.784  37.475   5.242
   10AU     LIG 5650  34.863  37.230   4.834
   11POPC   NC3 5651  17.792   0.055   9.574
   11POPC   PO4 5652  17.374   0.555   9.799
   11POPC   GL1 5653  17.529   0.436   9.355
   11POPC   GL2 5654  17.237   0.340   9.137
   11POPC   C1A 5655  17.654   0.518   8.905
   11POPC   D2A 5656  17.596   0.644   8.468
   11POPC   C3A 5657  17.609   0.378   8.103
   11POPC   C4A 5658  17.505   0.154   7.711
   11POPC   C1B 5659  17.125   0.590   8.713
   11POPC   C2B 5660  17.128   0.541   8.238
   11POPC   C3B 5661  17.052   0.448   7.815
   11POPC   C4B 5662  16.985   0.089   7.543
   12POPC   NC3 5663  26.627  24.833   9.378
   12POPC   PO4 5664  26.994  25.389   9.544
   12POPC   GL1 5665  26.955  25.437   9.134
   12POPC   GL2 5666  26.656  25.283   9.097
   12POPC   C1A 5667  26.977  25.297   8.703
   12POPC   D2A 5668  26.837  25.391   8.287
   12POPC   C3A 5669  27.164  25.292   7.983
   12POPC   C4A 5670  27.087  24.924   7.756
   12POPC   C1B 5671  26.618  25.660   8.799
   12POPC   C2B 5672  26.480  25.842   8.379
   12POPC   C3B 5673  26.465  25.606   7.994
   12POPC   C4B 5674  26.761  25.405   7.722
   13POPC   NC3 5675  24.745  28.476   9.568
   13POPC   PO4 5676  24.136  28.676   9.719
   13POPC   GL1 5677  24.239  28.476   9.265
   13POPC   GL2 5678  24.532  28.237   9.181
   13POPC   C1A 5679  24.288  28.382   8.780
   13POPC   D2A 5680  24.483  28.276   8.364
   13POPC   C3A 5681  24.195  28.308   8.039
   13POPC   C4A 5682  24.038  28.462   7.681
   13POPC   C1B 5683  24.797  28.275   8.782
   13POPC   C2B 5684  24.995  28.170   8.354
   13POPC   C3B 5685  24.896  28.280   7.906
   13POPC   C4B 5686  24.529  28.384   7.654
   14POPC   NC3 5687   9.830  12.378   9.243
   14POPC   PO4 5688   9.961  12.918   9.615
   14POPC   GL1 5689   9.950  12.923   9.173
   14POPC   GL2 5690   9.622  12.954   9.031
   14POPC   C1A 5691  10.007  12.897   8.714
   14POPC   D2A 5692   9.761  12.990   8.352
   14POPC   C3A 5693   9.941  13.093   7.963
   14POPC   C4A 5694   9.739  13.134   7.567
   14POPC   C1B 5695   9.422  12.793   8.696
   14POPC   C2B 5696   9.316  12.715   8.278
   14POPC   C3B 5697   9.471  12.757   7.858
   14POPC   C4B 5698   9.340  12.421   7.555
   15POPC   NC3 5699  37.908  35.742   9.523
   15POPC   PO4 5700  37.559  35.223   9.573
   15POPC   GL1 5701  37.557  35.183   9.159
   15POPC   GL2 5702  37.563  35.543   9.153
   15POPC   C1A 5703  37.616  35.177   8.725
   15POPC   D2A 5704  37.777  35.006   8.353
   15POPC   C3A 5705  37.709  35.236   7.990
   15POPC   C4A 5706  37.433  35.146   7.666
   15POPC   C1B 5707  37.723  35.752   8.792
   15POPC   C2B 5708  37.694  35.589   8.401
   15POPC   C3B 5709  37.716  35.778   8.019
   15POPC   C4B 5710  37.720  35.609   7.633
   16POPC   NC3 5711  23.406  33.999   9.441
   16POPC   PO4 5712  23.997  33.678   9.790
   16POPC   GL1 5713  23.796  33.578   9.339
   16POPC   GL2 5714  23.465  33.643   9.103
   16POPC   C1A 5715  23.894  33.532   8.876
   16POPC   D2A 5716  23.872  33.710   8.466
   16POPC   C3A 5717  24.128  33.456   8.192
   16POPC   C4A 5718  24.115  33.524   7.766
   16POPC   C1B 5719  23.508  33.957   8.773
   16POPC   C2B 5720  23.744  34.207   8.506
   16POPC   C3B 5721  23.829  34.123   8.096
   16POPC   C4B 5722  23.647  33.743   7.952
   17POPC   NC3 5723  12.583  14.130   9.521
   17POPC   PO4 5724  13.019  14.661   9.377
   17POPC   GL1 5725  12.854  14.394   9.071
   17POPC   GL2 5726  12.930  14.054   9.112
   17POPC   C1A 5727  12.658  14.498   8.664
   17POPC   D2A 5728  12.558  14.606   8.223
   17POPC   C3A 5729  12.903  14.441   7.903
   17POPC   C4A 5730  13.267  14.134   7.979
   17POPC   C1B 5731  13.019  14.074   8.675
   17POPC   C2B 5732  12.777  14.135   8.301
   17POPC   C3B 5733  12.798  13.945   7.898
   17POPC   C4B 5734  12.843  14.012   7.453
   18POPC   NC3 5735  21.540  39.211   9.766
   18POPC   PO4 5736  21.008  39.439   9.807
   18POPC   GL1 5737  21.192  39.229   9.376
   18POPC   GL2 5738  21.441  39.443   9.210
   18POPC   C1A 5739  21.152  39.052   8.876
   18POPC   D2A 5740  21.355  39.114   8.400
   18POPC   C3A 5741  21.184  38.938   7.948
   18POPC   C4A 5742  21.325  38.686   7.540
   18POPC   C1B 5743  21.198  39.545   8.788
   18POPC   C2B 5744  21.039  39.509   8.329
   18POPC   C3B 5745  21.105  39.453   7.859
   18POPC   C4B 5746  21.328  39.619   7.480
   19POPC   NC3 5747   8.566  21.287   9.572
   19POPC   PO4 5748   7.821  21.330   9.638
   19POPC   GL1 5749   8.059  21.416   9.253
   19POPC   GL2 5750   8.360  21.219   9.114
   19POPC   C1A 5751   7.934  21.484   8.810
   19POPC   D2A 5752   7.885  21.649   8.379
   19POPC   C3A 5753   8.064  21.324   8.103
   19POPC   C4A 5754   8.048  21.155   7.682
   19POPC   C1B 5755   8.491  21.597   8.882
   19POPC   C2B 5756   8.652  21.702   8.475
   19POPC   C3B 5757   8.533  21.759   8.065
   19POPC   C4B 5758   8.480  21.435   7.786
   20POPC   NC3 5759  24.673   7.604   9.475
   20POPC   PO4 5760  24.006   7.728   9.266
   20POPC   GL1 5761  24.397   7.552   9.021
   20POPC   GL2 5762  24.814   7.487   9.010
   20POPC   C1A 5763  24.488   7.260   8.682
   20POPC   D2A 5764  24.485   7.234   8.266
   20POPC   C3A 5765  24.181   7.467   8.025
   20POPC   C4A 5766  24.310   7.199   7.725
   20POPC   C1B 5767  24.759   7.731   8.666
   20POPC   C2B 5768  24.555   7.733   8.277
   20POPC   C3B 5769  24.662   7.558   7.867
   20POPC   C4B 5770  24.681   7.779   7.482
   21POPC   NC3 5771   2.353  31.894   9.517
   21POPC   PO4 5772   1.816  32.430   9.458
   21POPC   GL1 5773   1.914  32.179   9.134
   21POPC   GL2 5774   2.259  32.245   9.148
   21POPC   C1A 5775   1.968  32.114   8.696
   21POPC   D2A 5776   1.757  31.928   8.327
   21POPC   C3A 5777   2.007  32.093   7.988
   21POPC   C4A 5778   2.182  31.817   7.691
   21POPC   C1B 5779   2.401  32.483   8.808
   21POPC   C2B 5780   2.274  32.376   8.363
   21POPC   C3B 5781   2.360  32.530   7.945
   21POPC   C4B 5782   2.276  32.289   7.566
   22POPC   NC3 5783  24.765  34.744   9.260
   22POPC   PO4 5784  24.160  35.023   9.250
   22POPC   GL1 5785  24.315  34.651   9.000
   22POPC   GL2 5786  24.298  34.342   9.181
   22POPC   C1A 5787  24.633  34.488   8.655
   22POPC   D2A 5788  24.695  34.418   8.191
   22POPC   C3A 5789  24.483  34.759   7.932
   22POPC   C4A 5790  24.541  34.919   7.504
   22POPC   C1B 5791  24.210  34.229   8.720
   22POPC   C2B 5792  24.190  34.430   8.292
   22POPC   C3B 5793  24.330  34.283   7.871
   22POPC   C4B 5794  24.732  34.424   7.635
   23POPC   NC3 5795  30.770  13.596   9.571
   23POPC   PO4 5796  30.458  14.222   9.520
   23POPC   GL1 5797  30.650  13.939   9.200
   23POPC   GL2 5798  30.595  13.566   9.096
   23POPC   C1A 5799  30.913  13.876   8.843
   23POPC   D2A 5800  30.952  13.997   8.426
   23POPC   C3A 5801  30.959  13.704   8.086
   23POPC   C4A 5802  30.808  13.696   7.681
   23POPC   C1B 5803  30.470  13.419   8.688
   23POPC   C2B 5804  30.710  13.301   8.329
   23POPC   C3B 5805  30.522  13.353   7.924
   23POPC   C4B 5806  30.509  13.334   7.455
   24POPC   NC3 5807  30.973  10.226   9.602
   24POPC   PO4 5808  30.627  10.779   9.539
   24POPC   GL1 5809  30.641  10.715   9.125
   24POPC   GL2 5810  30.816  10.403   9.140
   24POPC   C1A 5811  30.579  10.809   8.694
   24POPC   D2A 5812  30.519  10.546   8.305
   24POPC   C3A 5813  30.523  10.762   7.926
   24POPC   C4A 5814  30.697  10.648   7.581
   24POPC   C1B 5815  30.738  10.298   8.719
   24POPC   C2B 5816  30.902  10.171   8.290
   24POPC   C3B 5817  30.650  10.231   7.897
   24POPC   C4B 5818  30.659  10.184   7.412
   25POPC   NC3 5819  35.541   6.876   9.371
   25POPC   PO4 5820  35.066   6.431   9.420
   25POPC   GL1 5821  35.280   6.537   9.089
   25POPC   GL2 5822  35.202   6.894   9.004
   25POPC   C1A 5823  35.445   6.514   8.713
   25POPC   D2A 5824  35.539   6.645   8.307
   25POPC   C3A 5825  35.274   6.672   7.993
   25POPC   C4A 5826  35.552   6.525   7.730
   25POPC   C1B 5827  35.528   6.998   8.698
   25POPC   C2B 5828  35.614   7.144   8.305
   25POPC   C3B 5829  35.624   7.029   7.871
   25POPC   C4B 5830  35.710   7.002   7.413
   26POPC   NC3 5831  40.293  36.100   9.605
   26POPC   PO4 5832  39.628  35.972   9.465
   26POPC   GL1 5833  39.705  36.131   9.056
   26POPC   GL2 5834  40.046  36.114   9.090
   26POPC   C1A 5835  39.821  36.296   8.652
   26POPC   D2A 5836  39.941  36.305   8.231
   26POPC   C3A 5837  39.967  35.935   7.995
   26POPC   C4A 5838  39.754  36.076   7.665
   26POPC   C1B 5839  40.318  36.168   8.707
   26POPC   C2B 5840  40.438  36.304   8.276
   26POPC   C3B 5841  40.338  36.341   7.831
   26POPC   C4B 5842  40.579  36.270   7.413
   27POPC   NC3 5843  39.653  38.171   9.347
   27POPC   PO4 5844  40.072  38.783   9.349
   27POPC   GL1 5845  39.969  38.466   9.046
   27POPC   GL2 5846  39.632  38.369   8.901
   27POPC   C1A 5847  40.034  38.470   8.626
   27POPC   D2A 5848  39.992  38.288   8.285
   27POPC   C3A 5849  40.176  38.448   7.934
   27POPC   C4A 5850  40.253  38.241   7.564
   27POPC   C1B 5851  39.528  38.223   8.506
   27POPC   C2B 5852  39.623  37.892   8.212
   27POPC   C3B 5853  39.820  38.092   7.863
   27POPC   C4B 5854  39.773  38.370   7.496
   28POPC   NC3 5855  31.917  35.443   9.541
   28POPC   PO4 5856  32.437  35.011   9.497
   28POPC   GL1 5857  32.188  35.164   9.170
   28POPC   GL2 5858  32.274  35.497   9.171
   28POPC   C1A 5859  32.126  35.132   8.743
   28POPC   D2A 5860  32.248  35.331   8.357
   28POPC   C3A 5861  31.967  35.196   8.069
   28POPC   C4A 5862  31.747  35.348   7.685
   28POPC   C1B 5863  32.139  35.642   8.774
   28POPC   C2B 5864  32.120  35.825   8.401
   28POPC   C3B 5865  32.295  35.747   8.007
   28POPC   C4B 5866  32.238  35.456   7.739
   29POPC   NC3 5867  40.376  15.749   9.510
   29POPC   PO4 5868  39.874  16.236   9.412
   29POPC   GL1 5869  39.919  16.039   9.080
   29POPC   GL2 5870  40.019  15.710   9.128
   29POPC   C1A 5871  40.085  16.078   8.700
   29POPC   D2A 5872  40.298  16.125   8.330
   29POPC   C3A 5873  40.048  16.144   7.938
   29POPC   C4A 5874  40.180  16.140   7.493
   29POPC   C1B 5875  39.771  15.657   8.747
   29POPC   C2B 5876  40.037  15.662   8.405
   29POPC   C3B 5877  40.275  15.710   8.017
   29POPC   C4B 5878  40.064  15.671   7.627
   30POPC   NC3 5879  43.208   7.019   9.718
   30POPC   PO4 5880  43.296   6.391   9.558
   30POPC   GL1 5881  43.144   6.611   9.171
   30POPC   GL2 5882  43.214   6.957   9.208
   30POPC   C1A 5883  43.241   6.462   8.758
   30POPC   D2A 5884  43.419   6.462   8.325
   30POPC   C3A 5885  43.235   6.596   7.939
   30POPC   C4A 5886  43.185   6.611   7.483
   30POPC   C1B 5887  43.344   6.970   8.793
   30POPC   C2B 5888  43.076   6.856   8.462
   30POPC   C3B 5889  42.943   6.968   8.096
   30POPC   C4B 5890  43.288   7.051   7.726
   31POPC   NC3 5891  17.326  35.787   9.402
   31POPC   PO4 5892  17.648  36.332   9.622
   31POPC   GL1 5893  17.636  36.141   9.160
   31POPC   GL2 5894  17.509  35.858   8.954
   31POPC   C1A 5895  17.703  36.225   8.689
   31POPC   D2A 5896  17.664  36.036   8.299
   31POPC   C3A 5897  17.633  36.262   7.918
   31POPC   C4A 5898  17.680  35.992   7.615
   31POPC   C1B 5899  17.202  35.971   8.647
   31POPC   C2B 5900  17.019  35.851   8.270
   31POPC   C3B 5901  17.222  35.900   7.881
   31POPC   C4B 5902  17.204  36.241   7.584
   32POPC   NC3 5903  11.606  20.571   9.332
   32POPC   PO4 5904  12.221  20.613   9.672
   32POPC   GL1 5905  12.162  20.574   9.227
   32POPC   GL2 5906  12.281  20.875   9.058
   32POPC   C1A 5907  12.036  20.479   8.776
   32POPC   D2A 5908  12.037  20.504   8.299
   32POPC   C3A 5909  11.794  20.742   7.961
   32POPC   C4A 5910  11.643  20.566   7.539
   32POPC   C1B 5911  12.333  20.879   8.577
   32POPC   C2B 5912  12.442  20.794   8.122
   32POPC   C3B 5913  12.250  20.700   7.733
   32POPC   C4B 5914  11.985  20.892   7.428
   33POPC   NC3 5915   7.086  44.423   9.419
   33POPC   PO4 5916   7.633  44.813   9.482
   33POPC   GL1 5917   7.521  44.538   9.154
   33POPC   GL2 5918   7.551  44.192   9.248
   33POPC   C1A 5919   7.525  44.651   8.741
   33POPC   D2A 5920   7.314  44.700   8.363
   33POPC   C3A 5921   7.497  44.836   7.992
   33POPC   C4A 5922   7.420  44.880   7.544
   33POPC   C1B 5923   7.632  44.150   8.800
   33POPC   C2B 5924   7.647  44.302   8.369
   33POPC   C3B 5925   7.768  44.138   7.968
   33POPC   C4B 5926   7.659  44.424   7.635
   34POPC   NC3 5927  20.064   5.837   9.480
   34POPC   PO4 5928  19.520   6.405   9.510
   34POPC   GL1 5929  19.708   6.085   9.213
   34POPC   GL2 5930  19.471   5.820   9.185
   34POPC   C1A 5931  19.856   5.854   8.831
   34POPC   D2A 5932  20.141   5.718   8.493
   34POPC   C3A 5933  20.025   5.769   8.074
   34POPC   C4A 5934  20.124   5.522   7.686
   34POPC   C1B 5935  19.478   5.538   8.838
   34POPC   C2B 5936  19.625   5.604   8.415
   34POPC   C3B 5937  19.525   5.760   7.997
   34POPC   C4B 5938  19.607   5.501   7.611
   35POPC   NC3 5939  42.064   5.085   9.436
   35POPC   PO4 5940  42.655   5.265   9.651
   35POPC   GL1 5941  42.506   5.358   9.257
   35POPC   GL2 5942  42.648   5.059   9.149
   35POPC   C1A 5943  42.329   5.330   8.830
   35POPC   D2A 5944  42.255   5.106   8.448
   35POPC   C3A 5945  42.346   5.236   8.049
   35POPC   C4A 5946  42.073   5.337   7.729
   35POPC   C1B 5947  42.456   4.791   8.829
   35POPC   C2B 5948  42.365   4.592   8.430
   35POPC   C3B 5949  42.443   4.648   7.974
   35POPC   C4B 5950  42.322   4.906   7.608
   36POPC   NC3 5951   5.701  32.742   9.444
   36POPC   PO4 5952   5.979  33.292   9.587
   36POPC   GL1 5953   5.851  33.171   9.196
   36POPC   GL2 5954   5.511  33.231   9.286
   36POPC   C1A 5955   5.942  33.000   8.793
   36POPC   D2A 5956   6.177  33.054   8.409
   36POPC   C3A 5957   6.138  32.825   8.029
   36POPC   C4A 5958   5.933  33.112   7.807
   36POPC   C1B 5959   5.414  33.172   8.840
   36POPC   C2B 5960   5.330  32.987   8.419
   36POPC   C3B 5961   5.504  32.813   8.021
   36POPC   C4B 5962   5.445  33.054   7.650
   37POPC   NC3 5963   3.135  33.963   9.539
   37POPC   PO4 5964   3.608  33.438   9.612
   37POPC   GL1 5965   3.644  33.561   9.179
   37POPC   GL2 5966   3.659  33.922   9.076
   37POPC   C1A 5967   3.623  33.530   8.739
   37POPC   D2A 5968   3.716  33.927   8.534
   37POPC   C3A 5969   3.557  33.855   8.134
   37POPC   C4A 5970   3.626  33.663   7.746
   37POPC   C1B 5971   3.267  33.893   8.809
   37POPC   C2B 5972   3.161  34.086   8.392
   37POPC   C3B 5973   3.210  34.186   7.945
   37POPC   C4B 5974   3.585  34.201   7.693
   38POPC   NC3 5975  20.463  26.837   9.470
   38POPC   PO4 5976  21.008  26.475   9.666
   38POPC   GL1 5977  20.912  26.719   9.257
   38POPC   GL2 5978  20.602  26.602   9.057
   38POPC   C1A 5979  20.911  26.920   8.822
   38POPC   D2A 5980  20.628  26.782   8.460
   38POPC   C3A 5981  20.788  26.817   8.070
   38POPC   C4A 5982  20.694  26.632   7.678
   38POPC   C1B 5983  20.404  27.001   8.839
   38POPC   C2B 5984  20.252  27.108   8.372
   38POPC   C3B 5985  20.311  26.829   7.970
   38POPC   C4B 5986  20.332  26.915   7.486
   39POPC   NC3 5987   1.364   1.359   9.590
   39POPC   PO4 5988   1.057   2.025   9.520
   39POPC   GL1 5989   1.052   1.811   9.165
   39POPC   GL2 5990   0.897   1.484   9.231
   39POPC   C1A 5991   1.006   1.987   8.766
   39POPC   D2A 5992   0.799   1.894   8.384
   39POPC   C3A 5993   1.026   2.091   8.055
   39POPC   C4A 5994   1.441   2.068   7.860
   39POPC   C1B 5995   1.049   1.475   8.788
   39POPC   C2B 5996   1.044   1.416   8.388
   39POPC   C3B 5997   0.842   1.532   8.029
   39POPC   C4B 5998   0.818   1.331   7.671
   40POPC   NC3 5999  43.043  29.725   9.489
   40POPC   PO4 6000  42.961  30.365   9.540
   40POPC   GL1 6001  43.097  30.135   9.160
   40POPC   GL2 6002  42.835  29.877   9.054
   40POPC   C1A 6003  43.194  30.006   8.734
   40POPC   D2A 6004  43.196  29.783   8.361
   40POPC   C3A 6005  43.013  29.997   8.024
   40POPC   C4A 6006  43.343  30.155   7.813
   40POPC   C1B 6007  42.910  29.560   8.740
   40POPC   C2B 6008  42.954  29.337   8.349
   40POPC   C3B 6009  43.056  29.499   7.936
   40POPC   C4B 6010  42.762  29.692   7.660
   41POPC   NC3 6011  34.792  33.952   9.538
   41POPC   PO4 6012  34.402  33.402   9.527
   41POPC   GL1 6013  34.553  33.512   9.108
   41POPC   GL2 6014  34.904  33.578   9.195
   41POPC   C1A 6015  34.430  33.535   8.645
   41POPC   D2A 6016  34.697  33.497   8.258
   41POPC   C3A 6017  34.554  33.621   7.853
   41POPC   C4A 6018  34.289  33.956   7.787
   41POPC   C1B 6019  34.891  33.751   8.770
   41POPC   C2B 6020  34.916  33.961   8.374
   41POPC   C3B 6021  34.959  33.921   7.960
   41POPC   C4B 6022  35.039  34.078   7.577
   42POPC   NC3 6023  10.231  13.995   9.321
   42POPC   PO4 6024  10.321  14.695   9.481
   42POPC   GL1 6025  10.313  14.498   9.106
   42POPC   GL2 6026  10.615  14.302   9.151
   42POPC   C1A 6027  10.550  14.562   8.703
   42POPC   D2A 6028  10.620  14.762   8.298
   42POPC   C3A 6029  10.461  14.467   7.941
   42POPC   C4A 6030  10.074  14.318   7.725
   42POPC   C1B 6031  10.868  14.164   8.813
   42POPC   C2B 6032  10.729  14.041   8.426
   42POPC   C3B 6033  10.899  14.127   8.017
   42POPC   C4B 6034  10.804  14.236   7.614
   43POPC   NC3 6035   0.180   4.765   9.712
   43POPC   PO4 6036   0.490   5.329   9.500
   43POPC   GL1 6037   0.274   5.174   9.164
   43POPC   GL2 6038   0.417   4.854   9.169
   43POPC   C1A 6039   0.342   5.147   8.730
   43POPC   D2A 6040   0.493   5.367   8.401
   43POPC   C3A 6041   0.393   5.149   8.049
   43POPC   C4A 6042   0.087   4.974   7.788
   43POPC   C1B 6043   0.703   4.808   8.789
   43POPC   C2B 6044   0.844   5.002   8.394
   43POPC   C3B 6045   0.875   4.876   7.967
   43POPC   C4B 6046   0.575   4.891   7.654
   44POPC   NC3 6047  31.012  27.452   9.425
   44POPC   PO4 6048  30.541  27.133   9.383
   44POPC   GL1 6049  30.640  27.430   9.030
   44POPC   GL2 6050  30.850  27.747   8.995
   44POPC   C1A 6051  30.658  27.518   8.577
   44POPC   D2A 6052  30.825  27.803   8.256
   44POPC   C3A 6053  30.719  27.601   7.847
   44POPC   C4A 6054  30.663  27.370   7.430
   44POPC   C1B 6055  30.557  28.017   8.719
   44POPC   C2B 6056  30.417  28.141   8.294
   44POPC   C3B 6057  30.661  28.137   7.898
   44POPC   C4B 6058  30.752  27.956   7.486
   45POPC   NC3 6059  38.939  12.536   9.653
   45POPC   PO4 6060  39.424  12.972   9.624
   45POPC   GL1 6061  39.269  12.720   9.217
   45POPC   GL2 6062  39.048  12.400   9.181
   45POPC   C1A 6063  39.330  12.704   8.727
   45POPC   D2A 6064  39.349  13.044   8.362
   45POPC   C3A 6065  39.265  12.979   7.888
   45POPC   C4A 6066  39.259  13.023   7.407
   45POPC   C1B 6067  38.838  12.530   8.824
   45POPC   C2B 6068  38.896  12.816   8.459
   45POPC   C3B 6069  38.776  12.985   8.063
   45POPC   C4B 6070  38.829  12.784   7.663
   46POPC   NC3 6071  17.906   4.916   9.558
   46POPC   PO4 6072  17.199   5.038   9.718
   46POPC   GL1 6073  17.479   5.046   9.309
   46POPC   GL2 6074  17.622   5.358   9.124
   46POPC   C1A 6075  17.668   4.891   8.895
   46POPC   D2A 6076  17.481   4.804   8.479
   46POPC   C3A 6077  17.734   4.906   8.121
   46POPC   C4A 6078  17.641   5.138   7.731
   46POPC   C1B 6079  17.793   5.347   8.704
   46POPC   C2B 6080  17.605   5.358   8.308
   46POPC   C3B 6081  17.797   5.541   7.995
   46POPC   C4B 6082  18.178   5.389   7.875
   47POPC   NC3 6083  36.353  31.663   9.519
   47POPC   PO4 6084  35.886  31.282   9.665
   47POPC   GL1 6085  36.062  31.394   9.196
   47POPC   GL2 6086  36.050  31.666   9.110
   47POPC   C1A 6087  36.212  31.403   8.733
   47POPC   D2A 6088  36.294  31.523   8.323
   47POPC   C3A 6089  36.104  31.219   8.094
   47POPC   C4A 6090  35.935  31.277   7.702
   47POPC   C1B 6091  35.904  31.835   8.746
   47POPC   C2B 6092  36.024  31.968   8.348
   47POPC   C3B 6093  35.948  31.760   7.973
   47POPC   C4B 6094  35.765  31.741   7.571
   48POPC   NC3 6095  38.420  21.749   9.446
   48POPC   PO4 6096  38.196  22.419   9.458
   48POPC   GL1 6097  38.173  22.104   9.180
   48POPC   GL2 6098  38.531  22.142   9.129
   48POPC   C1A 6099  38.135  22.056   8.762
   48POPC   D2A 6100  38.077  22.377   8.485
   48POPC   C3A 6101  38.201  22.249   8.067
   48POPC   C4A 6102  38.403  22.493   7.716
   48POPC   C1B 6103  38.653  22.396   8.814
   48POPC   C2B 6104  38.574  22.179   8.454
   48POPC   C3B 6105  38.701  22.249   8.071
   48POPC   C4B 6106  38.600  22.003   7.711
   49POPC   NC3 6107  39.168   1.026   9.378
   49POPC   PO4 6108  39.394   1.518   9.752
   49POPC   GL1 6109  39.520   1.384   9.232
   49POPC   GL2 6110  39.627   1.036   9.140
   49POPC   C1A 6111  39.328   1.303   8.779
   49POPC   D2A 6112  39.200   1.064   8.418
   49POPC   C3A 6113  39.230   1.297   8.049
   49POPC   C4A 6114  39.160   1.186   7.642
   49POPC   C1B 6115  39.539   0.815   8.754
   49POPC   C2B 6116  39.541   0.700   8.313
   49POPC   C3B 6117  39.376   0.822   7.924
   49POPC   C4B 6118  39.629   0.985   7.536
   50POPC   NC3 6119  13.222  29.379   9.709
   50POPC   PO4 6120  12.986  29.946   9.430
   50POPC   GL1 6121  12.655  29.951   9.134
   50POPC   GL2 6122  12.401  30.205   9.139
   50POPC   C1A 6123  12.790  29.864   8.712
   50POPC   D2A 6124  12.896  30.051   8.325
   50POPC   C3A 6125  12.951  29.711   8.033
   50POPC   C4A 6126  12.994  29.747   7.602
   50POPC   C1B 6127  12.533  30.320   8.745
   50POPC   C2B 6128  12.577  30.486   8.345
   50POPC   C3B 6129  12.458  30.219   8.020
   50POPC   C4B 6130  12.800  30.151   7.822
   51POPC   NC3 6131  27.458   0.255   9.472
   51POPC   PO4 6132  27.929   0.612   9.572
   51POPC   GL1 6133  27.729   0.618   9.153
   51POPC   GL2 6134  27.798   0.957   9.016
   51POPC   C1A 6135  27.465   0.367   8.848
   51POPC   D2A 6136  27.326   0.235   8.465
   51POPC   C3A 6137  27.469   0.416   8.091
   51POPC   C4A 6138  27.449   0.285   7.681
   51POPC   C1B 6139  27.940   0.733   8.652
   51POPC   C2B 6140  27.850   0.746   8.199
   51POPC   C3B 6141  28.028   0.968   7.853
   51POPC   C4B 6142  28.007   0.852   7.396
   52POPC   NC3 6143  10.439  41.675   9.444
   52POPC   PO4 6144  11.061  41.473   9.438
   52POPC   GL1 6145  10.829  41.590   9.095
   52POPC   GL2 6146  10.694  41.260   9.089
   52POPC   C1A 6147  10.617  41.833   8.765
   52POPC   D2A 6148  10.411  41.974   8.363
   52POPC   C3A 6149  10.408  41.714   7.959
   52POPC   C4A 6150  10.463  41.621   7.468
   52POPC   C1B 6151  10.449  41.341   8.683
   52POPC   C2B 6152  10.413  41.240   8.217
   52POPC   C3B 6153  10.632  41.269   7.813
   52POPC   C4B 6154  10.892  40.968   7.571
   53POPC   NC3 6155  29.862   8.150   9.415
   53POPC   PO4 6156  30.408   8.528   9.389
   53POPC   GL1 6157  30.266   8.272   9.080
   53POPC   GL2 6158  30.206   7.964   8.944
   53POPC   C1A 6159  30.096   8.412   8.713
   53POPC   D2A 6160  29.803   8.355   8.404
   53POPC   C3A 6161  29.989   8.375   8.058
   53POPC   C4A 6162  29.839   8.190   7.720
   53POPC   C1B 6163  29.752   8.035   8.793
   53POPC   C2B 6164  29.486   7.939   8.438
   53POPC   C3B 6165  29.478   7.896   8.019
   53POPC   C4B 6166  29.461   7.858   7.580
   54POPC   NC3 6167  27.786  27.393   9.558
   54POPC   PO4 6168  28.038  28.066   9.492
   54POPC   GL1 6169  28.127  27.717   9.200
   54POPC   GL2 6170  28.445  27.488   9.251
   54POPC   C1A 6171  28.282  27.765   8.776
   54POPC   D2A 6172  28.087  27.806   8.394
   54POPC   C3A 6173  28.299  27.756   8.020
   54POPC   C4A 6174  28.275  27.651   7.592
   54POPC   C1B 6175  28.397  27.297   8.829
   54POPC   C2B 6176  28.463  27.456   8.388
   54POPC   C3B 6177  28.431  27.272   7.936
   54POPC   C4B 6178  28.604  27.299   7.493
   55POPC   NC3 6179  28.850  30.936   9.403
   55POPC   PO4 6180  29.225  31.460   9.578
   55POPC   GL1 6181  29.015  31.390   9.204
   55POPC   GL2 6182  29.248  31.111   9.157
   55POPC   C1A 6183  28.852  31.523   8.798
   55POPC   D2A 6184  28.857  31.312   8.374
   55POPC   C3A 6185  28.680  31.518   8.034
   55POPC   C4A 6186  28.773  31.686   7.598
   55POPC   C1B 6187  29.177  31.148   8.742
   55POPC   C2B 6188  29.329  31.153   8.332
   55POPC   C3B 6189  29.174  31.336   7.951
   55POPC   C4B 6190  29.286  31.116   7.571
   56POPC   NC3 6191  32.874  35.162   9.607
   56POPC   PO4 6192  33.360  35.512   9.542
   56POPC   GL1 6193  33.130  35.256   9.185
   56POPC   GL2 6194  32.731  35.207   9.131
   56POPC   C1A 6195  33.041  35.101   8.766
   56POPC   D2A 6196  32.828  35.144   8.374
   56POPC   C3A 6197  33.088  35.114   8.026
   56POPC   C4A 6198  32.936  34.904   7.740
   56POPC   C1B 6199  32.598  35.421   8.756
   56POPC   C2B 6200  32.662  35.626   8.353
   56POPC   C3B 6201  32.725  35.480   7.942
   56POPC   C4B 6202  33.035  35.518   7.658
   57POPC   NC3 6203  20.761  37.571   9.570
   57POPC   PO4 6204  20.195  37.889   9.499
   57POPC   GL1 6205  20.479  37.829   9.185
   57POPC   GL2 6206  20.473  37.480   9.149
   57POPC   C1A 6207  20.667  37.792   8.776
   57POPC   D2A 6208  20.623  37.982   8.379
   57POPC   C3A 6209  20.839  37.998   8.000
   57POPC   C4A 6210  20.628  37.936   7.626
   57POPC   C1B 6211  20.309  37.412   8.745
   57POPC   C2B 6212  20.487  37.478   8.373
   57POPC   C3B 6213  20.664  37.536   8.003
   57POPC   C4B 6214  20.785  37.336   7.666
   58POPC   NC3 6215  15.352   6.785   9.535
   58POPC   PO4 6216  14.806   6.425   9.457
   58POPC   GL1 6217  15.023   6.669   9.158
   58POPC   GL2 6218  15.189   6.348   9.121
   58POPC   C1A 6219  15.144   6.885   8.774
   58POPC   D2A 6220  15.373   6.801   8.373
   58POPC   C3A 6221  15.251   6.966   7.945
   58POPC   C4A 6222  15.201   6.695   7.617
   58POPC   C1B 6223  14.965   6.402   8.729
   58POPC   C2B 6224  14.780   6.418   8.326
   58POPC   C3B 6225  14.980   6.363   7.957
   58POPC   C4B 6226  15.372   6.234   7.836
   59POPC   NC3 6227   9.577  26.408   9.881
   59POPC   PO4 6228  10.054  26.923   9.716
   59POPC   GL1 6229   9.922  26.915   9.269
   59POPC   GL2 6230   9.656  27.172   9.235
   59POPC   C1A 6231   9.880  26.700   8.818
   59POPC   D2A 6232   9.988  26.712   8.361
   59POPC   C3A 6233   9.646  26.751   8.062
   59POPC   C4A 6234   9.662  26.803   7.613
   59POPC   C1B 6235   9.870  27.211   8.803
   59POPC   C2B 6236   9.731  27.178   8.348
   59POPC   C3B 6237   9.899  27.169   7.926
   59POPC   C4B 6238  10.091  27.062   7.520
   60POPC   NC3 6239  32.034   7.277   9.369
   60POPC   PO4 6240  32.150   7.897   9.593
   60POPC   GL1 6241  32.293   7.713   9.179
   60POPC   GL2 6242  32.492   7.384   9.142
   60POPC   C1A 6243  32.196   7.533   8.746
   60POPC   D2A 6244  32.432   7.522   8.365
   60POPC   C3A 6245  32.364   7.331   7.986
   60POPC   C4A 6246  32.272   7.596   7.685
   60POPC   C1B 6247  32.639   7.189   8.719
   60POPC   C2B 6248  32.798   7.163   8.259
   60POPC   C3B 6249  32.822   7.170   7.796
   60POPC   C4B 6250  32.479   7.187   7.465
   61POPC   NC3 6251  14.225  18.679   9.439
   61POPC   PO4 6252  14.676  19.078   9.811
   61POPC   GL1 6253  14.654  19.151   9.344
   61POPC   GL2 6254  14.648  18.819   9.166
   61POPC   C1A 6255  14.520  19.235   8.898
   61POPC   D2A 6256  14.596  19.292   8.430
   61POPC   C3A 6257  14.309  19.117   8.074
   61POPC   C4A 6258  14.141  18.889   7.695
   61POPC   C1B 6259  14.522  18.752   8.715
   61POPC   C2B 6260  14.631  18.779   8.271
   61POPC   C3B 6261  14.612  18.727   7.805
   61POPC   C4B 6262  14.460  18.691   7.336
   62POPC   NC3 6263  43.993   8.425   9.624
   62POPC   PO4 6264  44.056   7.716   9.506
   62POPC   GL1 6265  43.845   7.863   9.181
   62POPC   GL2 6266  43.938   8.201   9.167
   62POPC   C1A 6267  43.729   7.986   8.771
   62POPC   D2A 6268  43.704   8.217   8.380
   62POPC   C3A 6269  43.788   8.007   7.998
   62POPC   C4A 6270  43.804   7.772   7.630
   62POPC   C1B 6271  44.234   8.114   8.798
   62POPC   C2B 6272  44.321   8.187   8.373
   62POPC   C3B 6273  44.291   8.304   7.956
   62POPC   C4B 6274  44.098   8.178   7.582
   63POPC   NC3 6275  11.780  14.940   9.512
   63POPC   PO4 6276  12.144  14.314   9.583
   63POPC   GL1 6277  12.020  14.395   9.195
   63POPC   GL2 6278  12.349  14.354   9.061
   63POPC   C1A 6279  11.953  14.501   8.767
   63POPC   D2A 6280  12.193  14.302   8.457
   63POPC   C3A 6281  11.949  14.319   8.099
   63POPC   C4A 6282  12.001  14.563   7.747
   63POPC   C1B 6283  12.524  14.013   8.818
   63POPC   C2B 6284  12.394  13.818   8.488
   63POPC   C3B 6285  12.322  13.955   8.082
   63POPC   C4B 6286  12.425  14.300   7.825
   64POPC   NC3 6287  34.537   4.340   9.430
   64POPC   PO4 6288  34.840   4.781   9.709
   64POPC   GL1 6289  34.868   4.429   9.098
   64POPC   GL2 6290  34.552   4.289   8.935
   64POPC   C1A 6291  34.846   4.545   8.635
   64POPC   D2A 6292  34.621   4.231   8.396
   64POPC   C3A 6293  34.751   4.105   7.971
   64POPC   C4A 6294  34.809   4.368   7.593
   64POPC   C1B 6295  34.320   4.594   8.683
   64POPC   C2B 6296  34.234   4.554   8.259
   64POPC   C3B 6297  34.307   4.547   7.820
   64POPC   C4B 6298  34.300   4.369   7.423
   65POPC   NC3 6299  19.039   9.001   9.416
   65POPC   PO4 6300  19.537   9.273   9.553
   65POPC   GL1 6301  19.483   9.049   9.157
   65POPC   GL2 6302  19.314   8.741   9.098
   65POPC   C1A 6303  19.193   9.130   8.801
   65POPC   D2A 6304  19.216   9.302   8.454
   65POPC   C3A 6305  19.037   9.217   8.119
   65POPC   C4A 6306  19.242   9.291   7.771
   65POPC   C1B 6307  18.955   8.695   8.823
   65POPC   C2B 6308  19.066   8.775   8.402
   65POPC   C3B 6309  19.148   8.755   7.952
   65POPC   C4B 6310  18.826   8.674   7.702
   66POPC   NC3 6311  37.175  44.888   9.574
   66POPC   PO4 6312  36.817  44.383   9.287
   66POPC   GL1 6313  36.863  44.804   9.127
   66POPC   GL2 6314  36.528   0.013   9.092
   66POPC   C1A 6315  37.120  44.835   8.756
   66POPC   D2A 6316  37.200  44.584   8.391
   66POPC   C3A 6317  37.160  44.843   8.017
   66POPC   C4A 6318  37.055  44.789   7.578
   66POPC   C1B 6319  36.638   0.020   8.644
   66POPC   C2B 6320  36.636  44.984   8.183
   66POPC   C3B 6321  36.604  44.761   7.802
   66POPC   C4B 6322  36.628  44.811   7.308
   67POPC   NC3 6323   4.937   8.575   9.262
   67POPC   PO4 6324   5.386   8.281   9.731
   67POPC   GL1 6325   5.208   8.150   9.272
   67POPC   GL2 6326   4.895   8.090   9.048
   67POPC   C1A 6327   5.340   8.281   8.825
   67POPC   D2A 6328   5.498   8.256   8.406
   67POPC   C3A 6329   5.348   8.504   8.051
   67POPC   C4A 6330   5.371   8.206   7.703
   67POPC   C1B 6331   4.928   8.160   8.576
   67POPC   C2B 6332   5.022   8.113   8.129
   67POPC   C3B 6333   4.893   8.029   7.705
   67POPC   C4B 6334   4.636   8.167   7.367
   68POPC   NC3 6335  24.244  33.882   9.456
   68POPC   PO4 6336  24.800  34.261   9.352
   68POPC   GL1 6337  24.629  34.010   8.975
   68POPC   GL2 6338  24.571  33.693   9.101
   68POPC   C1A 6339  24.365  33.753   8.652
   68POPC   D2A 6340  24.282  33.935   8.261
   68POPC   C3A 6341  24.565  33.836   7.953
   68POPC   C4A 6342  24.922  33.687   7.719
   68POPC   C1B 6343  24.817  33.506   8.742
   68POPC   C2B 6344  24.659  33.439   8.319
   68POPC   C3B 6345  24.580  33.337   7.895
   68POPC   C4B 6346  24.537  33.424   7.445
   69POPC   NC3 6347  28.484   2.239   9.461
   69POPC   PO4 6348  28.350   1.517   9.508
   69POPC   GL1 6349  28.479   1.795   9.169
   69POPC   GL2 6350  28.258   2.072   9.040
   69POPC   C1A 6351  28.524   1.711   8.750
   69POPC   D2A 6352  28.624   1.663   8.311
   69POPC   C3A 6353  28.412   1.925   8.041
   69POPC   C4A 6354  28.570   2.134   7.718
   69POPC   C1B 6355  28.069   2.305   8.697
   69POPC   C2B 6356  28.011   2.128   8.290
   69POPC   C3B 6357  28.059   2.275   7.840
   69POPC   C4B 6358  27.917   2.501   7.472
   70POPC   NC3 6359  31.304  43.681   9.780
   70POPC   PO4 6360  31.627  44.204   9.460
   70POPC   GL1 6361  31.623  43.804   9.218
   70POPC   GL2 6362  31.302  43.602   9.206
   70POPC   C1A 6363  31.688  43.966   8.797
   70POPC   D2A 6364  31.673  44.242   8.444
   70POPC   C3A 6365  31.628  44.088   8.068
   70POPC   C4A 6366  31.608  43.982   7.655
   70POPC   C1B 6367  31.086  43.788   8.792
   70POPC   C2B 6368  31.198  43.966   8.431
   70POPC   C3B 6369  31.005  43.882   8.067
   70POPC   C4B 6370  31.116  43.844   7.681
   71POPC   NC3 6371  35.447   1.493   9.834
   71POPC   PO4 6372  35.251   2.135   9.538
   71POPC   GL1 6373  35.093   2.046   9.131
   71POPC   GL2 6374  35.029   1.706   9.086
   71POPC   C1A 6375  35.094   2.239   8.739
   71POPC   D2A 6376  35.065   2.028   8.348
   71POPC   C3A 6377  35.216   2.217   8.002
   71POPC   C4A 6378  35.036   2.092   7.638
   71POPC   C1B 6379  35.318   1.746   8.730
   71POPC   C2B 6380  35.311   1.544   8.334
   71POPC   C3B 6381  35.282   1.677   7.909
   71POPC   C4B 6382  35.391   1.431   7.559
   72POPC   NC3 6383   4.469  10.856   9.478
   72POPC   PO4 6384   4.210  10.368   9.657
   72POPC   GL1 6385   4.312  10.333   9.237
   72POPC   GL2 6386   4.653  10.373   9.218
   72POPC   C1A 6387   4.193  10.279   8.791
   72POPC   D2A 6388   4.291  10.518   8.421
   72POPC   C3A 6389   4.140  10.523   7.982
   72POPC   C4A 6390   4.439  10.707   7.703
   72POPC   C1B 6391   4.659  10.530   8.819
   72POPC   C2B 6392   4.778  10.330   8.453
   72POPC   C3B 6393   4.609  10.339   8.053
   72POPC   C4B 6394   4.752  10.269   7.681
   73POPC   NC3 6395   5.873   5.524   9.431
   73POPC   PO4 6396   5.736   6.124   9.266
   73POPC   GL1 6397   5.964   5.860   8.993
   73POPC   GL2 6398   6.070   5.518   8.969
   73POPC   C1A 6399   6.092   5.836   8.568
   73POPC   D2A 6400   6.086   5.716   8.153
   73POPC   C3A 6401   6.063   6.000   7.820
   73POPC   C4A 6402   6.219   5.996   7.403
   73POPC   C1B 6403   5.679   5.526   8.696
   73POPC   C2B 6404   5.580   5.371   8.254
   73POPC   C3B 6405   5.646   5.448   7.783
   73POPC   C4B 6406   5.489   5.349   7.323
   74POPC   NC3 6407  41.559  42.818   9.434
   74POPC   PO4 6408  41.841  43.443   9.477
   74POPC   GL1 6409  41.548  43.250   9.201
   74POPC   GL2 6410  41.824  43.041   9.078
   74POPC   C1A 6411  41.347  43.021   8.840
   74POPC   D2A 6412  41.532  42.858   8.467
   74POPC   C3A 6413  41.322  42.995   8.105
   74POPC   C4A 6414  41.456  43.115   7.701
   74POPC   C1B 6415  41.783  43.392   8.784
   74POPC   C2B 6416  41.701  43.342   8.367
   74POPC   C3B 6417  41.834  43.155   8.014
   74POPC   C4B 6418  42.014  43.412   7.722
   75POPC   NC3 6419  11.536  22.268   9.716
   75POPC   PO4 6420  11.066  21.911   9.348
   75POPC   GL1 6421  11.247  22.302   9.259
   75POPC   GL2 6422  11.570  22.133   9.212
   75POPC   C1A 6423  11.323  22.406   8.833
   75POPC   D2A 6424  11.180  22.095   8.539
   75POPC   C3A 6425  11.053  22.261   8.137
   75POPC   C4A 6426  11.263  22.129   7.761
   75POPC   C1B 6427  11.687  22.054   8.775
   75POPC   C2B 6428  11.615  21.819   8.416
   75POPC   C3B 6429  11.721  21.957   7.995
   75POPC   C4B 6430  11.699  22.391   7.807
   76POPC   NC3 6431  23.241  38.990   9.936
   76POPC   PO4 6432  22.942  39.444   9.774
   76POPC   GL1 6433  22.891  39.223   9.371
   76POPC   GL2 6434  22.688  39.420   9.139
   76POPC   C1A 6435  23.071  39.157   8.926
   76POPC   D2A 6436  23.002  39.391   8.530
   76POPC   C3A 6437  23.032  39.256   8.086
   76POPC   C4A 6438  22.872  39.500   7.769
   76POPC   C1B 6439  22.584  39.134   8.773
   76POPC   C2B 6440  22.731  38.964   8.379
   76POPC   C3B 6441  22.598  39.000   7.936
   76POPC   C4B 6442  22.642  39.134   7.514
   77POPC   NC3 6443  10.872  36.124   9.487
   77POPC   PO4 6444  11.576  35.906   9.523
   77POPC   GL1 6445  11.309  35.886   9.148
   77POPC   GL2 6446  11.142  36.224   9.085
   77POPC   C1A 6447  11.311  35.950   8.695
   77POPC   D2A 6448  11.518  36.179   8.367
   77POPC   C3A 6449  11.402  35.950   8.013
   77POPC   C4A 6450  11.118  35.785   7.749
   77POPC   C1B 6451  11.428  36.438   8.830
   77POPC   C2B 6452  11.236  36.640   8.498
   77POPC   C3B 6453  11.159  36.635   8.094
   77POPC   C4B 6454  11.327  36.391   7.782
   78POPC   NC3 6455  31.476  18.605   9.566
   78POPC   PO4 6456  31.772  18.057   9.461
   78POPC   GL1 6457  31.764  18.363   9.122
   78POPC   GL2 6458  31.420  18.316   9.079
   78POPC   C1A 6459  31.708  18.287   8.623
   78POPC   D2A 6460  31.447  18.344   8.233
   78POPC   C3A 6461  31.569  18.254   7.798
   78POPC   C4A 6462  31.716  18.570   7.452
   78POPC   C1B 6463  31.238  18.072   8.721
   78POPC   C2B 6464  30.991  18.155   8.358
   78POPC   C3B 6465  30.952  18.509   8.125
   78POPC   C4B 6466  31.245  18.708   7.861
   79POPC   NC3 6467  42.767  31.417   9.576
   79POPC   PO4 6468  42.122  31.500   9.911
   79POPC   GL1 6469  42.170  31.568   9.435
   79POPC   GL2 6470  42.083  31.278   9.233
   79POPC   C1A 6471  42.387  31.612   9.018
   79POPC   D2A 6472  42.596  31.578   8.596
   79POPC   C3A 6473  42.404  31.644   8.174
   79POPC   C4A 6474  42.398  31.491   7.750
   79POPC   C1B 6475  42.297  31.184   8.797
   79POPC   C2B 6476  42.203  31.210   8.389
   79POPC   C3B 6477  42.234  31.074   7.976
   79POPC   C4B 6478  41.972  31.233   7.666
   80POPC   NC3 6479  25.701  32.436   9.555
   80POPC   PO4 6480  26.337  32.651   9.439
   80POPC   GL1 6481  26.126  32.372   9.175
   80POPC   GL2 6482  25.893  32.623   9.148
   80POPC   C1A 6483  26.178  32.050   8.837
   80POPC   D2A 6484  26.402  31.982   8.448
   80POPC   C3A 6485  26.194  31.885   8.108
   80POPC   C4A 6486  25.919  31.997   7.758
   80POPC   C1B 6487  25.803  32.378   8.791
   80POPC   C2B 6488  26.024  32.332   8.421
   80POPC   C3B 6489  26.105  32.398   8.024
   80POPC   C4B 6490  25.893  32.524   7.646
   81POPC   NC3 6491  13.787  16.440   9.398
   81POPC   PO4 6492  13.684  15.801   9.547
   81POPC   GL1 6493  13.663  15.802   9.141
   81POPC   GL2 6494  14.031  15.695   9.096
   81POPC   C1A 6495  13.425  16.070   8.817
   81POPC   D2A 6496  13.377  16.255   8.403
   81POPC   C3A 6497  13.472  16.084   7.991
   81POPC   C4A 6498  13.346  16.141   7.560
   81POPC   C1B 6499  13.925  15.948   8.738
   81POPC   C2B 6500  13.748  15.826   8.357
   81POPC   C3B 6501  14.001  15.867   7.977
   81POPC   C4B 6502  14.052  15.786   7.534
   82POPC   NC3 6503  10.750  11.760   9.915
   82POPC   PO4 6504  10.350  11.358   9.499
   82POPC   GL1 6505  10.516  11.212   9.107
   82POPC   GL2 6506  10.665  11.430   8.902
   82POPC   C1A 6507  10.545  10.977   8.712
   82POPC   D2A 6508  10.542  10.709   8.370
   82POPC   C3A 6509  10.396  10.895   7.999
   82POPC   C4A 6510  10.277  11.270   7.816
   82POPC   C1B 6511  10.253  11.430   8.678
   82POPC   C2B 6512  10.341  11.448   8.276
   82POPC   C3B 6513  10.689  11.306   8.119
   82POPC   C4B 6514  10.948  11.316   7.775
   83POPC   NC3 6515  42.227  23.499   9.456
   83POPC   PO4 6516  42.433  24.067   9.310
   83POPC   GL1 6517  42.370  23.855   8.953
   83POPC   GL2 6518  42.102  23.685   9.019
   83POPC   C1A 6519  42.532  23.511   8.728
   83POPC   D2A 6520  42.739  23.454   8.318
   83POPC   C3A 6521  42.555  23.631   7.938
   83POPC   C4A 6522  42.755  23.929   7.682
   83POPC   C1B 6523  42.031  23.569   8.654
   83POPC   C2B 6524  42.209  23.722   8.306
   83POPC   C3B 6525  42.076  23.462   7.992
   83POPC   C4B 6526  42.226  23.299   7.634
   84POPC   NC3 6527   8.558  17.122   9.413
   84POPC   PO4 6528   7.881  17.081   9.359
   84POPC   GL1 6529   8.167  16.800   9.176
   84POPC   GL2 6530   8.160  16.437   9.288
   84POPC   C1A 6531   8.115  16.712   8.748
   84POPC   D2A 6532   7.927  16.905   8.393
   84POPC   C3A 6533   8.236  16.947   8.050
   84POPC   C4A 6534   8.185  16.824   7.632
   84POPC   C1B 6535   8.438  16.347   8.928
   84POPC   C2B 6536   8.568  16.555   8.540
   84POPC   C3B 6537   8.372  16.467   8.145
   84POPC   C4B 6538   8.349  16.327   7.711
   85POPC   NC3 6539  41.719  36.983   9.666
   85POPC   PO4 6540  41.199  36.855   9.703
   85POPC   GL1 6541  41.411  36.703   9.321
   85POPC   GL2 6542  41.571  37.000   9.150
   85POPC   C1A 6543  41.458  36.620   8.841
   85POPC   D2A 6544  41.280  36.832   8.463
   85POPC   C3A 6545  41.277  36.699   8.026
   85POPC   C4A 6546  41.344  36.958   7.665
   85POPC   C1B 6547  41.688  37.069   8.672
   85POPC   C2B 6548  41.721  36.947   8.201
   85POPC   C3B 6549  41.849  37.061   7.777
   85POPC   C4B 6550  42.222  36.992   7.502
   86POPC   NC3 6551  11.052  12.699   9.752
   86POPC   PO4 6552  11.418  13.172   9.479
   86POPC   GL1 6553  11.284  12.920   9.181
   86POPC   GL2 6554  10.966  13.024   9.156
   86POPC   C1A 6555  11.303  12.833   8.743
   86POPC   D2A 6556  11.530  12.863   8.369
   86POPC   C3A 6557  11.297  12.732   8.035
   86POPC   C4A 6558  11.133  12.320   7.903
   86POPC   C1B 6559  10.972  13.229   8.782
   86POPC   C2B 6560  11.141  13.211   8.369
   86POPC   C3B 6561  10.940  13.147   7.985
   86POPC   C4B 6562  10.945  12.816   7.675
   87POPC   NC3 6563  12.457   1.633   9.520
   87POPC   PO4 6564  11.769   1.739   9.580
   87POPC   GL1 6565  11.856   1.428   9.256
   87POPC   GL2 6566  12.207   1.396   9.127
   87POPC   C1A 6567  11.803   1.292   8.824
   87POPC   D2A 6568  12.072   1.475   8.531
   87POPC   C3A 6569  12.054   1.486   8.091
   87POPC   C4A 6570  12.063   1.608   7.654
   87POPC   C1B 6571  12.288   1.072   8.785
   87POPC   C2B 6572  12.137   0.994   8.348
   87POPC   C3B 6573  12.267   1.031   7.885
   87POPC   C4B 6574  12.428   0.757   7.499
   88POPC   NC3 6575  34.372   5.168   9.563
   88POPC   PO4 6576  34.882   4.884   9.219
   88POPC   GL1 6577  34.543   5.118   9.058
   88POPC   GL2 6578  34.650   5.418   9.200
   88POPC   C1A 6579  34.240   5.139   8.688
   88POPC   D2A 6580  34.264   5.072   8.228
   88POPC   C3A 6581  34.645   4.849   8.074
   88POPC   C4A 6582  34.680   4.880   7.619
   88POPC   C1B 6583  34.804   5.496   8.771
   88POPC   C2B 6584  34.589   5.458   8.370
   88POPC   C3B 6585  34.605   5.334   7.924
   88POPC   C4B 6586  34.944   5.329   7.640
   89POPC   NC3 6587   9.161  12.035   9.448
   89POPC   PO4 6588   8.634  12.433   9.462
   89POPC   GL1 6589   8.836  12.229   9.088
   89POPC   GL2 6590   9.192  12.348   9.053
   89POPC   C1A 6591   9.050  11.916   8.791
   89POPC   D2A 6592   9.183  12.008   8.357
   89POPC   C3A 6593   8.899  11.922   8.037
   89POPC   C4A 6594   9.162  11.874   7.664
   89POPC   C1B 6595   9.084  12.417   8.659
   89POPC   C2B 6596   8.829  12.391   8.342
   89POPC   C3B 6597   9.065  12.382   7.978
   89POPC   C4B 6598   8.851  12.289   7.616
   90POPC   NC3 6599   5.991  16.927   9.904
   90POPC   PO4 6600   5.624  17.475   9.631
   90POPC   GL1 6601   5.676  17.538   9.218
   90POPC   GL2 6602   5.443  17.256   9.160
   90POPC   C1A 6603   5.976  17.642   8.867
   90POPC   D2A 6604   5.989  17.727   8.403
   90POPC   C3A 6605   5.892  17.439   8.032
   90POPC   C4A 6606   5.793  17.602   7.610
   90POPC   C1B 6607   5.646  17.258   8.793
   90POPC   C2B 6608   5.547  17.426   8.423
   90POPC   C3B 6609   5.405  17.275   8.067
   90POPC   C4B 6610   5.585  17.135   7.690
   91POPC   NC3 6611  14.310  14.034   9.444
   91POPC   PO4 6612  14.686  14.566   9.635
   91POPC   GL1 6613  14.540  14.443   9.220
   91POPC   GL2 6614  14.201  14.521   9.082
   91POPC   C1A 6615  14.683  14.224   8.868
   91POPC   D2A 6616  14.793  14.403   8.464
   91POPC   C3A 6617  14.436  14.459   8.221
   91POPC   C4A 6618  14.309  14.339   7.831
   91POPC   C1B 6619  14.490  14.745   8.799
   91POPC   C2B 6620  14.531  14.936   8.383
   91POPC   C3B 6621  14.370  14.866   7.915
   91POPC   C4B 6622  14.450  14.889   7.432
   92POPC   NC3 6623  14.255  32.508   9.676
   92POPC   PO4 6624  14.561  33.218   9.532
   92POPC   GL1 6625  14.370  33.164   9.147
   92POPC   GL2 6626  14.137  32.868   9.120
   92POPC   C1A 6627  14.439  33.063   8.721
   92POPC   D2A 6628  14.729  33.005   8.391
   92POPC   C3A 6629  14.484  33.023   7.999
   92POPC   C4A 6630  14.410  32.974   7.555
   92POPC   C1B 6631  14.136  32.646   8.722
   92POPC   C2B 6632  14.212  32.666   8.275
   92POPC   C3B 6633  14.035  32.790   7.864
   92POPC   C4B 6634  14.038  32.604   7.459
   93POPC   NC3 6635  31.834  42.751   9.791
   93POPC   PO4 6636  31.412  43.269   9.586
   93POPC   GL1 6637  31.369  43.072   9.185
   93POPC   GL2 6638  31.626  43.225   9.068
   93POPC   C1A 6639  31.381  42.993   8.702
   93POPC   D2A 6640  31.557  43.160   8.328
   93POPC   C3A 6641  31.535  42.896   7.999
   93POPC   C4A 6642  31.539  42.969   7.594
   93POPC   C1B 6643  31.529  43.491   8.769
   93POPC   C2B 6644  31.620  43.670   8.392
   93POPC   C3B 6645  31.470  43.608   8.005
   93POPC   C4B 6646  31.630  43.456   7.644
   94POPC   NC3 6647   6.664  11.638   9.639
   94POPC   PO4 6648   6.923  12.320   9.648
   94POPC   GL1 6649   6.820  12.378   9.245
   94POPC   GL2 6650   6.660  12.040   9.236
   94POPC   C1A 6651   6.983  12.321   8.858
   94POPC   D2A 6652   6.900  11.899   8.638
   94POPC   C3A 6653   6.874  11.898   8.191
   94POPC   C4A 6654   7.062  12.117   7.856
   94POPC   C1B 6655   6.507  12.159   8.842
   94POPC   C2B 6656   6.429  12.097   8.384
   94POPC   C3B 6657   6.539  12.200   7.918
   94POPC   C4B 6658   6.507  12.281   7.460
   95POPC   NC3 6659   4.508   3.653   9.762
   95POPC   PO4 6660   4.289   3.111   9.494
   95POPC   GL1 6661   4.417   3.451   9.250
   95POPC   GL2 6662   4.150   3.720   9.237
   95POPC   C1A 6663   4.515   3.472   8.813
   95POPC   D2A 6664   4.319   3.453   8.410
   95POPC   C3A 6665   4.586   3.558   8.111
   95POPC   C4A 6666   4.572   3.545   7.687
   95POPC   C1B 6667   3.991   3.540   8.808
   95POPC   C2B 6668   3.918   3.751   8.359
   95POPC   C3B 6669   4.161   3.776   7.932
   95POPC   C4B 6670   4.219   3.862   7.442
   96POPC   NC3 6671  34.752  10.533   9.550
   96POPC   PO4 6672  34.386  10.125   9.301
   96POPC   GL1 6673  34.599  10.363   9.020
   96POPC   GL2 6674  34.715  10.723   9.094
   96POPC   C1A 6675  34.506  10.362   8.585
   96POPC   D2A 6676  34.379  10.644   8.257
   96POPC   C3A 6677  34.623  10.456   7.949
   96POPC   C4A 6678  34.493  10.089   7.777
   96POPC   C1B 6679  34.656  10.821   8.702
   96POPC   C2B 6680  34.868  10.695   8.363
   96POPC   C3B 6681  34.757  10.947   8.059
   96POPC   C4B 6682  34.681  10.888   7.670
   97POPC   NC3 6683  36.221  10.943   9.526
   97POPC   PO4 6684  36.410  11.630   9.440
   97POPC   GL1 6685  36.205  11.330   9.186
   97POPC   GL2 6686  36.506  11.134   9.162
   97POPC   C1A 6687  35.907  11.309   8.840
   97POPC   D2A 6688  35.664  11.254   8.474
   97POPC   C3A 6689  35.930  11.272   8.110
   97POPC   C4A 6690  35.872  11.421   7.699
   97POPC   C1B 6691  36.541  11.416   8.824
   97POPC   C2B 6692  36.320  11.443   8.446
   97POPC   C3B 6693  36.468  11.288   8.071
   97POPC   C4B 6694  36.355  11.238   7.689
   98POPC   NC3 6695  14.491   0.501   9.618
   98POPC   PO4 6696  13.950   0.784   9.504
   98POPC   GL1 6697  14.151   0.520   9.154
   98POPC   GL2 6698  14.521   0.455   9.104
   98POPC   C1A 6699  14.239   0.575   8.681
   98POPC   D2A 6700  14.161   0.864   8.308
   98POPC   C3A 6701  14.287   0.661   7.911
   98POPC   C4A 6702  14.449   0.347   7.634
   98POPC   C1B 6703  14.709   0.296   8.701
   98POPC   C2B 6704  14.571   0.283   8.260
   98POPC   C3B 6705  14.857   0.204   7.897
   98POPC   C4B 6706  14.929   0.332   7.458
   99POPC   NC3 6707   6.170  40.337   9.486
   99POPC   PO4 6708   5.525  40.198   9.680
   99POPC   GL1 6709   5.700  40.127   9.194
   99POPC   GL2 6710   6.035  39.923   9.140
   99POPC   C1A 6711   5.937  40.271   8.804
   99POPC   D2A 6712   6.126  40.212   8.411
   99POPC   C3A 6713   5.804  40.225   8.102
   99POPC   C4A 6714   5.859  40.006   7.714
   99POPC   C1B 6715   6.292  39.813   8.757
   99POPC   C2B 6716   6.289  39.726   8.283
   99POPC   C3B 6717   6.330  39.985   7.882
   99POPC   C4B 6718   6.226  39.832   7.397
  100POPC   NC3 6719  28.194   3.026   9.626
  100POPC   PO4 6720  28.756   2.696   9.450
  100POPC   GL1 6721  28.415   2.703   9.207
  100POPC   GL2 6722  28.378   3.077   9.163
  100POPC   C1A 6723  28.540   2.477   8.823
  100POPC   D2A 6724  28.531   2.169   8.493
  100POPC   C3A 6725  28.467   2.435   8.141
  100POPC   C4A 6726  28.440   2.617   7.744
  100POPC   C1B 6727  28.207   2.909   8.794
  100POPC   C2B 6728  28.391   2.894   8.420
  100POPC   C3B 6729  28.338   3.015   8.033
  100POPC   C4B 6730  28.019   2.893   7.781
  101POPC   NC3 6731  21.268  27.422   9.567
  101POPC   PO4 6732  21.729  27.860   9.549
  101POPC   GL1 6733  21.491  27.704   9.175
  101POPC   GL2 6734  21.107  27.697   9.166
  101POPC   C1A 6735  21.416  27.804   8.729
  101POPC   D2A 6736  21.315  27.551   8.386
  101POPC   C3A 6737  21.240  27.713   8.016
  101POPC   C4A 6738  21.471  27.644   7.667
  101POPC   C1B 6739  21.014  27.463   8.791
  101POPC   C2B 6740  20.907  27.221   8.421
  101POPC   C3B 6741  21.058  27.233   8.045
  101POPC   C4B 6742  21.074  27.330   7.651
  102POPC   NC3 6743  41.698  22.396   9.470
  102POPC   PO4 6744  41.421  21.785   9.420
  102POPC   GL1 6745  41.450  22.106   9.126
  102POPC   GL2 6746  41.806  22.238   9.013
  102POPC   C1A 6747  41.429  22.106   8.715
  102POPC   D2A 6748  41.682  22.149   8.376
  102POPC   C3A 6749  41.434  22.334   8.062
  102POPC   C4A 6750  41.362  22.180   7.677
  102POPC   C1B 6751  41.665  22.585   8.771
  102POPC   C2B 6752  41.689  22.678   8.342
  102POPC   C3B 6753  41.941  22.446   8.043
  102POPC   C4B 6754  41.879  22.261   7.673
  103POPC   NC3 6755  23.359  32.393   9.662
  103POPC   PO4 6756  23.765  31.937   9.376
  103POPC   GL1 6757  23.800  32.340   9.202
  103POPC   GL2 6758  23.459  32.366   9.149
  103POPC   C1A 6759  23.804  32.463   8.769
  103POPC   D2A 6760  23.524  32.319   8.446
  103POPC   C3A 6761  23.690  32.315   8.027
  103POPC   C4A 6762  23.775  32.224   7.601
  103POPC   C1B 6763  23.329  32.668   8.870
  103POPC   C2B 6764  23.410  32.812   8.483
  103POPC   C3B 6765  23.371  32.694   8.076
  103POPC   C4B 6766  23.623  32.703   7.704
  104POPC   NC3 6767  10.679  11.641   9.353
  104POPC   PO4 6768  10.388  12.204   9.510
  104POPC   GL1 6769  10.116  11.971   9.189
  104POPC   GL2 6770  10.213  11.666   9.111
  104POPC   C1A 6771  10.000  11.958   8.729
  104POPC   D2A 6772  10.284  11.946   8.356
  104POPC   C3A 6773  10.323  12.189   8.000
  104POPC   C4A 6774  10.170  12.163   7.610
  104POPC   C1B 6775  10.495  11.898   8.809
  104POPC   C2B 6776  10.740  11.698   8.476
  104POPC   C3B 6777  10.715  11.812   8.050
  104POPC   C4B 6778  10.453  11.733   7.708
  105POPC   NC3 6779  24.411  14.779   9.794
  105POPC   PO4 6780  24.957  14.632   9.524
  105POPC   GL1 6781  24.710  14.609   9.141
  105POPC   GL2 6782  24.403  14.696   9.235
  105POPC   C1A 6783  24.613  14.516   8.696
  105POPC   D2A 6784  24.794  14.592   8.270
  105POPC   C3A 6785  24.625  14.497   7.839
  105POPC   C4A 6786  24.270  14.485   7.517
  105POPC   C1B 6787  24.148  14.722   8.817
  105POPC   C2B 6788  24.244  14.722   8.368
  105POPC   C3B 6789  24.153  14.414   8.017
  105POPC   C4B 6790  23.975  14.087   7.710
  106POPC   NC3 6791  32.327   3.148   9.549
  106POPC   PO4 6792  31.875   3.576   9.756
  106POPC   GL1 6793  32.152   3.604   9.290
  106POPC   GL2 6794  32.483   3.790   9.209
  106POPC   C1A 6795  32.245   3.485   8.834
  106POPC   D2A 6796  32.509   3.449   8.446
  106POPC   C3A 6797  32.325   3.408   8.027
  106POPC   C4A 6798  31.999   3.524   7.726
  106POPC   C1B 6799  32.508   3.916   8.752
  106POPC   C2B 6800  32.595   3.951   8.315
  106POPC   C3B 6801  32.676   3.797   7.925
  106POPC   C4B 6802  32.427   3.761   7.540
  107POPC   NC3 6803  24.714   5.704   9.356
  107POPC   PO4 6804  25.370   5.745   9.595
  107POPC   GL1 6805  25.277   5.666   9.179
  107POPC   GL2 6806  25.590   5.856   9.129
  107POPC   C1A 6807  25.074   5.509   8.767
  107POPC   D2A 6808  24.746   5.639   8.449
  107POPC   C3A 6809  24.904   5.674   8.004
  107POPC   C4A 6810  25.235   5.483   7.830
  107POPC   C1B 6811  25.328   5.958   8.768
  107POPC   C2B 6812  25.162   5.924   8.375
  107POPC   C3B 6813  25.380   5.966   7.985
  107POPC   C4B 6814  25.784   6.203   7.908
  108POPC   NC3 6815   9.592  29.603   9.388
  108POPC   PO4 6816   9.951  29.999   9.739
  108POPC   GL1 6817  10.033  29.846   9.279
  108POPC   GL2 6818   9.732  29.975   9.085
  108POPC   C1A 6819  10.149  29.862   8.802
  108POPC   D2A 6820   9.978  30.217   8.518
  108POPC   C3A 6821   9.893  30.235   8.064
  108POPC   C4A 6822   9.847  29.959   7.731
  108POPC   C1B 6823   9.633  29.837   8.674
  108POPC   C2B 6824   9.497  30.040   8.309
  108POPC   C3B 6825   9.366  30.089   7.895
  108POPC   C4B 6826   9.374  29.828   7.524
  109POPC   NC3 6827  21.057  36.030   9.471
  109POPC   PO4 6828  20.602  36.393   9.591
  109POPC   GL1 6829  20.406  36.197   9.223
  109POPC   GL2 6830  20.742  36.110   9.057
  109POPC   C1A 6831  20.283  36.071   8.796
  109POPC   D2A 6832  20.294  36.193   8.367
  109POPC   C3A 6833  20.566  36.010   8.077
  109POPC   C4A 6834  20.564  36.136   7.659
  109POPC   C1B 6835  20.755  36.119   8.601
  109POPC   C2B 6836  20.989  36.253   8.220
  109POPC   C3B 6837  21.008  36.417   7.839
  109POPC   C4B 6838  21.047  36.158   7.510
  110POPC   NC3 6839  35.382  42.499   9.627
  110POPC   PO4 6840  35.282  41.943   9.568
  110POPC   GL1 6841  35.285  42.226   9.173
  110POPC   GL2 6842  35.414  42.610   9.135
  110POPC   C1A 6843  35.451  42.277   8.750
  110POPC   D2A 6844  35.545  42.096   8.375
  110POPC   C3A 6845  35.292  42.194   8.011
  110POPC   C4A 6846  35.477  42.235   7.592
  110POPC   C1B 6847  35.313  42.752   8.707
  110POPC   C2B 6848  35.444  42.610   8.279
  110POPC   C3B 6849  35.385  42.678   7.827
  110POPC   C4B 6850  35.316  42.677   7.375
  111POPC   NC3 6851   9.537  16.123   9.614
  111POPC   PO4 6852   9.949  15.611   9.630
  111POPC   GL1 6853   9.683  15.782   9.261
  111POPC   GL2 6854   9.673  16.124   9.138
  111POPC   C1A 6855   9.838  15.714   8.840
  111POPC   D2A 6856   9.734  15.864   8.426
  111POPC   C3A 6857   9.905  15.844   8.040
  111POPC   C4A 6858   9.805  15.731   7.631
  111POPC   C1B 6859   9.412  16.004   8.788
  111POPC   C2B 6860   9.247  16.018   8.384
  111POPC   C3B 6861   9.427  16.064   7.976
  111POPC   C4B 6862   9.545  16.160   7.529
  112POPC   NC3 6863  17.927   1.686   9.517
  112POPC   PO4 6864  18.525   2.041   9.403
  112POPC   GL1 6865  18.233   2.067   9.032
  112POPC   GL2 6866  18.055   1.759   9.030
  112POPC   C1A 6867  18.383   2.218   8.627
  112POPC   D2A 6868  18.599   1.931   8.344
  112POPC   C3A 6869  18.368   1.870   7.949
  112POPC   C4A 6870  18.403   1.820   7.498
  112POPC   C1B 6871  18.107   1.795   8.575
  112POPC   C2B 6872  17.903   1.656   8.219
  112POPC   C3B 6873  17.924   1.669   7.770
  112POPC   C4B 6874  17.929   1.700   7.324
  113POPC   NC3 6875   6.585  16.444   9.426
  113POPC   PO4 6876   6.303  17.078   9.582
  113POPC   GL1 6877   6.392  16.854   9.186
  113POPC   GL2 6878   6.708  16.895   9.068
  113POPC   C1A 6879   6.448  16.549   8.795
  113POPC   D2A 6880   6.404  16.481   8.334
  113POPC   C3A 6881   6.574  16.788   7.975
  113POPC   C4A 6882   6.534  17.007   7.538
  113POPC   C1B 6883   6.935  16.719   8.717
  113POPC   C2B 6884   6.988  16.886   8.299
  113POPC   C3B 6885   7.071  16.891   7.872
  113POPC   C4B 6886   6.896  16.655   7.528
  114POPC   NC3 6887  12.656  15.022   9.384
  114POPC   PO4 6888  13.152  15.418   9.400
  114POPC   GL1 6889  12.952  15.259   9.011
  114POPC   GL2 6890  12.878  14.907   8.927
  114POPC   C1A 6891  13.016  15.281   8.558
  114POPC   D2A 6892  13.172  15.034   8.240
  114POPC   C3A 6893  13.115  15.242   7.854
  114POPC   C4A 6894  12.890  15.270   7.464
  114POPC   C1B 6895  12.580  15.029   8.586
  114POPC   C2B 6896  12.675  15.150   8.203
  114POPC   C3B 6897  12.755  14.920   7.886
  114POPC   C4B 6898  12.555  14.885   7.565
  115POPC   NC3 6899  39.479  41.170   9.528
  115POPC   PO4 6900  39.062  41.786   9.439
  115POPC   GL1 6901  39.283  41.677   9.072
  115POPC   GL2 6902  39.544  41.411   9.084
  115POPC   C1A 6903  39.013  41.646   8.724
  115POPC   D2A 6904  38.791  41.659   8.338
  115POPC   C3A 6905  39.154  41.594   8.134
  115POPC   C4A 6906  39.341  41.585   7.775
  115POPC   C1B 6907  39.361  41.257   8.703
  115POPC   C2B 6908  39.029  41.201   8.445
  115POPC   C3B 6909  38.945  41.133   8.045
  115POPC   C4B 6910  39.299  41.074   7.806
  116POPC   NC3 6911  30.313   4.231   9.550
  116POPC   PO4 6912  29.724   4.608   9.404
  116POPC   GL1 6913  29.740   4.265   9.109
  116POPC   GL2 6914  30.030   4.060   9.112
  116POPC   C1A 6915  29.687   4.253   8.695
  116POPC   D2A 6916  29.840   4.452   8.355
  116POPC   C3A 6917  29.574   4.460   8.022
  116POPC   C4A 6918  29.791   4.495   7.651
  116POPC   C1B 6919  30.199   4.301   8.787
  116POPC   C2B 6920  30.419   4.307   8.401
  116POPC   C3B 6921  30.231   4.400   7.997
  116POPC   C4B 6922  30.214   4.210   7.581
  117POPC   NC3 6923   1.722  22.384   9.475
  117POPC   PO4 6924   1.000  22.211   9.544
  117POPC   GL1 6925   1.194  22.115   9.144
  117POPC   GL2 6926   1.533  22.016   9.122
  117POPC   C1A 6927   1.247  22.027   8.697
  117POPC   D2A 6928   1.206  22.245   8.316
  117POPC   C3A 6929   0.965  22.002   8.019
  117POPC   C4A 6930   0.840  21.902   7.597
  117POPC   C1B 6931   1.653  22.328   8.770
  117POPC   C2B 6932   1.698  22.464   8.335
  117POPC   C3B 6933   1.503  22.556   7.954
  117POPC   C4B 6934   1.278  22.254   7.731
  118POPC   NC3 6935   0.654  27.538   9.315
  118POPC   PO4 6936   0.117  27.838   9.565
  118POPC   GL1 6937   0.172  27.625   9.155
  118POPC   GL2 6938   0.273  27.254   9.146
  118POPC   C1A 6939   0.307  27.581   8.723
  118POPC   D2A 6940   0.605  27.712   8.425
  118POPC   C3A 6941   0.481  27.644   8.027
  118POPC   C4A 6942   0.737  27.591   7.691
  118POPC   C1B 6943   0.170  26.967   8.832
  118POPC   C2B 6944   0.219  27.150   8.447
  118POPC   C3B 6945   0.348  27.114   8.065
  118POPC   C4B 6946   0.334  27.277   7.692
  119POPC   NC3 6947  10.392  15.889   9.689
  119POPC   PO4 6948  10.973  15.753   9.350
  119POPC   GL1 6949  10.571  15.990   9.203
  119POPC   GL2 6950  10.194  15.909   9.217
  119POPC   C1A 6951  10.444  16.206   8.817
  119POPC   D2A 6952  10.539  16.398   8.403
  119POPC   C3A 6953  10.270  16.215   8.082
  119POPC   C4A 6954  10.289  15.939   7.714
  119POPC   C1B 6955  10.353  15.709   8.839
  119POPC   C2B 6956  10.187  15.553   8.474
  119POPC   C3B 6957  10.339  15.577   8.087
  119POPC   C4B 6958  10.531  15.467   7.753
  120POPC   NC3 6959  35.996   5.077   9.490
  120POPC   PO4 6960  36.650   5.369   9.553
  120POPC   GL1 6961  36.420   5.134   9.216
  120POPC   GL2 6962  36.603   4.825   9.159
  120POPC   C1A 6963  36.117   5.307   8.899
  120POPC   D2A 6964  36.003   5.382   8.497
  120POPC   C3A 6965  36.274   5.231   8.232
  120POPC   C4A 6966  36.266   5.202   7.806
  120POPC   C1B 6967  36.358   4.888   8.773
  120POPC   C2B 6968  36.208   4.650   8.450
  120POPC   C3B 6969  36.240   4.737   8.041
  120POPC   C4B 6970  35.950   4.814   7.725
  121POPC   NC3 6971  42.458   3.726   9.466
  121POPC   PO4 6972  42.026   3.153   9.454
  121POPC   GL1 6973  42.318   3.364   9.163
  121POPC   GL2 6974  42.548   3.183   9.007
  121POPC   C1A 6975  42.525   3.651   8.813
  121POPC   D2A 6976  42.221   3.796   8.494
  121POPC   C3A 6977  42.385   3.758   8.124
  121POPC   C4A 6978  42.515   3.720   7.751
  121POPC   C1B 6979  42.203   3.279   8.696
  121POPC   C2B 6980  42.216   3.194   8.269
  121POPC   C3B 6981  42.275   3.291   7.860
  121POPC   C4B 6982  42.105   3.496   7.506
  122POPC   NC3 6983   7.761  43.743   9.407
  122POPC   PO4 6984   7.141  43.952   9.507
  122POPC   GL1 6985   7.246  43.685   9.183
  122POPC   GL2 6986   7.162  43.970   8.986
  122POPC   C1A 6987   7.459  43.630   8.775
  122POPC   D2A 6988   7.490  43.833   8.379
  122POPC   C3A 6989   7.239  43.828   8.011
  122POPC   C4A 6990   7.400  43.918   7.658
  122POPC   C1B 6991   7.132  44.313   8.726
  122POPC   C2B 6992   7.115  44.214   8.319
  122POPC   C3B 6993   7.295  44.349   7.960
  122POPC   C4B 6994   7.143  44.369   7.520
  123POPC   NC3 6995   1.418  32.201   9.387
  123POPC   PO4 6996   0.831  32.476   9.292
  123POPC   GL1 6997   1.066  32.183   9.012
  123POPC   GL2 6998   1.397  31.983   8.936
  123POPC   C1A 6999   1.114  32.209   8.580
  123POPC   D2A 7000   1.159  32.480   8.287
  123POPC   C3A 7001   1.015  32.260   7.955
  123POPC   C4A 7002   0.891  32.299   7.566
  123POPC   C1B 7003   1.550  32.387   8.764
  123POPC   C2B 7004   1.678  32.413   8.326
  123POPC   C3B 7005   1.523  32.260   7.956
  123POPC   C4B 7006   1.491  32.412   7.550
  124POPC   NC3 7007  37.194   7.300   9.396
  124POPC   PO4 7008  37.731   7.702   9.493
  124POPC   GL1 7009  37.634   7.574   9.109
  124POPC   GL2 7010  38.003   7.519   9.094
  124POPC   C1A 7011  37.379   7.459   8.748
  124POPC   D2A 7012  37.352   7.181   8.393
  124POPC   C3A 7013  37.406   7.413   8.022
  124POPC   C4A 7014  37.400   7.312   7.608
  124POPC   C1B 7015  37.901   7.362   8.726
  124POPC   C2B 7016  37.772   7.534   8.355
  124POPC   C3B 7017  37.928   7.384   7.951
  124POPC   C4B 7018  37.877   7.576   7.580
  125POPC   NC3 7019  17.072  29.893   9.299
  125POPC   PO4 7020  17.723  29.711   9.487
  125POPC   GL1 7021  17.667  29.797   9.065
  125POPC   GL2 7022  17.509  30.095   9.070
  125POPC   C1A 7023  17.473  29.805   8.640
  125POPC   D2A 7024  17.274  29.591   8.282
  125POPC   C3A 7025  17.272  29.774   7.872
  125POPC   C4A 7026  17.698  29.949   7.795
  125POPC   C1B 7027  17.210  30.246   8.761
  125POPC   C2B 7028  17.242  30.154   8.325
  125POPC   C3B 7029  17.319  30.278   7.910
  125POPC   C4B 7030  17.340  30.210   7.485
  126POPC   NC3 7031  31.911  30.679   9.445
  126POPC   PO4 7032  32.431  31.077   9.435
  126POPC   GL1 7033  32.576  30.798   9.165
  126POPC   GL2 7034  32.351  30.514   9.185
  126POPC   C1A 7035  32.502  30.805   8.744
  126POPC   D2A 7036  32.161  30.817   8.463
  126POPC   C3A 7037  32.262  30.668   8.062
  126POPC   C4A 7038  32.097  30.879   7.690
  126POPC   C1B 7039  32.231  30.366   8.751
  126POPC   C2B 7040  32.331  30.210   8.329
  126POPC   C3B 7041  32.084  30.214   7.917
  126POPC   C4B 7042  31.858  30.441   7.578
  127POPC   NC3 7043  10.988  43.202   9.591
  127POPC   PO4 7044  10.348  42.835   9.541
  127POPC   GL1 7045  10.310  42.963   9.172
  127POPC   GL2 7046  10.535  43.231   9.236
  127POPC   C1A 7047  10.535  42.890   8.791
  127POPC   D2A 7048  10.749  43.055   8.445
  127POPC   C3A 7049  10.571  42.942   8.040
  127POPC   C4A 7050  10.519  42.990   7.584
  127POPC   C1B 7051  10.763  43.385   8.885
  127POPC   C2B 7052  10.612  43.545   8.493
  127POPC   C3B 7053  10.710  43.441   8.089
  127POPC   C4B 7054  10.557  43.469   7.707
  128POPC   NC3 7055  30.068   9.871   9.493
  128POPC   PO4 7056  29.818   9.311   9.585
  128POPC   GL1 7057  30.025   9.414   9.203
  128POPC   GL2 7058  30.387   9.539   9.240
  128POPC   C1A 7059  30.061   9.551   8.788
  128POPC   D2A 7060  29.959   9.792   8.423
  128POPC   C3A 7061  29.886   9.570   8.046
  128POPC   C4A 7062  29.671   9.655   7.617
  128POPC   C1B 7063  30.419   9.899   8.899
  128POPC   C2B 7064  30.443   9.992   8.442
  128POPC   C3B 7065  30.289   9.896   8.033
  128POPC   C4B 7066  30.218   9.932   7.596
  129POPC   NC3 7067   1.410  18.314   9.563
  129POPC   PO4 7068   0.920  17.921   9.425
  129POPC   GL1 7069   1.118  18.196   9.156
  129POPC   GL2 7070   1.427  17.989   9.173
  129POPC   C1A 7071   1.410  18.297   8.776
  129POPC   D2A 7072   1.612  18.595   8.550
  129POPC   C3A 7073   1.584  18.474   8.135
  129POPC   C4A 7074   1.245  18.476   7.839
  129POPC   C1B 7075   1.172  17.853   8.786
  129POPC   C2B 7076   1.115  18.102   8.398
  129POPC   C3B 7077   1.048  18.011   7.968
  129POPC   C4B 7078   1.205  17.773   7.595
  130POPC   NC3 7079  12.286  38.104   9.485
  130POPC   PO4 7080  11.613  38.256   9.424
  130POPC   GL1 7081  11.921  38.256   9.146
  130POPC   GL2 7082  12.090  38.535   9.229
  130POPC   C1A 7083  12.038  38.069   8.768
  130POPC   D2A 7084  11.918  37.936   8.370
  130POPC   C3A 7085  11.924  38.267   8.090
  130POPC   C4A 7086  12.074  38.327   7.669
  130POPC   C1B 7087  12.177  38.540   8.788
  130POPC   C2B 7088  12.088  38.715   8.412
  130POPC   C3B 7089  12.273  38.651   8.028
  130POPC   C4B 7090  12.482  38.622   7.646
  131POPC   NC3 7091  38.368  33.322   9.352
  131POPC   PO4 7092  38.716  33.744   9.679
  131POPC   GL1 7093  38.726  33.664   9.193
  131POPC   GL2 7094  38.397  33.673   9.000
  131POPC   C1A 7095  38.795  33.556   8.723
  131POPC   D2A 7096  38.508  33.756   8.402
  131POPC   C3A 7097  38.586  33.832   7.951
  131POPC   C4A 7098  38.260  33.679   7.694
  131POPC   C1B 7099  38.362  34.073   8.823
  131POPC   C2B 7100  38.137  34.126   8.451
  131POPC   C3B 7101  38.093  33.970   8.079
  131POPC   C4B 7102  38.198  34.184   7.700
  132POPC   NC3 7103  31.937  43.369   9.428
  132POPC   PO4 7104  32.268  42.787   9.652
  132POPC   GL1 7105  32.366  43.104   9.288
  132POPC   GL2 7106  32.092  43.031   9.065
  132POPC   C1A 7107  32.442  43.302   8.830
  132POPC   D2A 7108  32.405  43.094   8.402
  132POPC   C3A 7109  32.559  43.220   7.976
  132POPC   C4A 7110  32.884  43.089   7.666
  132POPC   C1B 7111  31.951  43.208   8.653
  132POPC   C2B 7112  32.010  43.367   8.223
  132POPC   C3B 7113  31.976  43.119   7.848
  132POPC   C4B 7114  32.048  42.768   7.550
  133POPC   NC3 7115  39.617  36.444   9.439
  133POPC   PO4 7116  39.035  36.126   9.618
  133POPC   GL1 7117  39.198  36.042   9.199
  133POPC   GL2 7118  39.235  36.358   9.137
  133POPC   C1A 7119  38.970  36.078   8.829
  133POPC   D2A 7120  39.026  36.292   8.466
  133POPC   C3A 7121  38.938  36.105   8.087
  133POPC   C4A 7122  39.076  36.007   7.708
  133POPC   C1B 7123  39.381  36.512   8.772
  133POPC   C2B 7124  39.458  36.532   8.316
  133POPC   C3B 7125  39.405  36.354   7.899
  133POPC   C4B 7126  39.398  36.323   7.423
  134POPC   NC3 7127  16.718  30.317   9.535
  134POPC   PO4 7128  16.813  30.995   9.491
  134POPC   GL1 7129  16.965  30.697   9.203
  134POPC   GL2 7130  17.215  30.798   8.958
  134POPC   C1A 7131  16.732  30.656   8.814
  134POPC   D2A 7132  16.593  30.830   8.401
  134POPC   C3A 7133  16.489  30.529   8.079
  134POPC   C4A 7134  16.397  30.600   7.689
  134POPC   C1B 7135  17.209  30.684   8.504
  134POPC   C2B 7136  16.986  30.611   8.109
  134POPC   C3B 7137  16.830  30.875   7.805
  134POPC   C4B 7138  16.971  31.134   7.412
  135POPC   NC3 7139  39.789  23.949   9.546
  135POPC   PO4 7140  39.607  23.386   9.269
  135POPC   GL1 7141  39.999  23.620   9.164
  135POPC   GL2 7142  40.193  23.393   8.994
  135POPC   C1A 7143  40.216  23.838   8.773
  135POPC   D2A 7144  40.320  23.680   8.370
  135POPC   C3A 7145  40.007  23.731   8.054
  135POPC   C4A 7146  39.948  24.030   7.713
  135POPC   C1B 7147  39.855  23.479   8.683
  135POPC   C2B 7148  39.869  23.174   8.413
  135POPC   C3B 7149  40.216  23.183   8.206
  135POPC   C4B 7150  40.307  23.370   7.853
  136POPC   NC3 7151   6.090   1.703   9.440
  136POPC   PO4 7152   5.580   1.271   9.447
  136POPC   GL1 7153   5.559   1.478   9.053
  136POPC   GL2 7154   5.811   1.680   9.035
  136POPC   C1A 7155   5.668   1.452   8.617
  136POPC   D2A 7156   5.958   1.186   8.398
  136POPC   C3A 7157   5.776   1.086   8.028
  136POPC   C4A 7158   5.708   1.101   7.611
  136POPC   C1B 7159   6.146   1.496   8.777
  136POPC   C2B 7160   6.217   1.612   8.345
  136POPC   C3B 7161   6.036   1.518   7.924
  136POPC   C4B 7162   5.965   1.614   7.486
  137POPC   NC3 7163  15.569  20.634   9.374
  137POPC   PO4 7164  14.889  20.660   9.566
  137POPC   GL1 7165  15.070  20.706   9.176
  137POPC   GL2 7166  15.202  20.372   9.117
  137POPC   C1A 7167  15.249  20.725   8.761
  137POPC   D2A 7168  15.061  20.478   8.461
  137POPC   C3A 7169  15.063  20.673   8.070
  137POPC   C4A 7170  15.105  20.569   7.601
  137POPC   C1B 7171  15.456  20.247   8.726
  137POPC   C2B 7172  15.447  20.231   8.264
  137POPC   C3B 7173  15.491  20.323   7.827
  137POPC   C4B 7174  15.406  20.215   7.378
  138POPC   NC3 7175  44.738  27.542   9.647
  138POPC   PO4 7176  44.240  28.019   9.695
  138POPC   GL1 7177  44.531  27.886   9.298
  138POPC   GL2 7178  44.674  27.530   9.164
  138POPC   C1A 7179  44.661  27.897   8.844
  138POPC   D2A 7180  44.784  27.746   8.451
  138POPC   C3A 7181  44.475  27.672   8.151
  138POPC   C4A 7182  44.441  27.784   7.736
  138POPC   C1B 7183  44.843  27.367   8.798
  138POPC   C2B 7184  44.730  27.239   8.365
  138POPC   C3B 7185  44.939  27.440   8.031
  138POPC   C4B 7186  44.824  27.487   7.606
  139POPC   NC3 7187  44.689  29.084   9.520
  139POPC   PO4 7188  44.381  29.627   9.468
  139POPC   GL1 7189  44.350  29.277   9.146
  139POPC   GL2 7190  44.466  28.890   9.108
  139POPC   C1A 7191  44.454  29.218   8.689
  139POPC   D2A 7192  44.214  29.157   8.287
  139POPC   C3A 7193  44.413  29.363   7.940
  139POPC   C4A 7194  44.782  29.106   7.947
  139POPC   C1B 7195  44.801  28.798   8.783
  139POPC   C2B 7196  44.837  28.552   8.371
  139POPC   C3B 7197  44.815  28.612   7.912
  139POPC   C4B 7198  44.568  28.812   7.584
  140POPC   NC3 7199   3.095   3.300   9.552
  140POPC   PO4 7200   2.843   3.892   9.612
  140POPC   GL1 7201   2.836   3.791   9.156
  140POPC   GL2 7202   2.844   3.431   9.125
  140POPC   C1A 7203   3.000   3.690   8.718
  140POPC   D2A 7204   2.856   3.901   8.335
  140POPC   C3A 7205   2.835   3.737   7.955
  140POPC   C4A 7206   2.761   3.386   7.765
  140POPC   C1B 7207   2.655   3.308   8.723
  140POPC   C2B 7208   2.748   3.343   8.294
  140POPC   C3B 7209   3.056   3.098   8.052
  140POPC   C4B 7210   3.011   2.934   7.649
  141POPC   NC3 7211  10.657  31.869   9.501
  141POPC   PO4 7212  10.250  31.352   9.544
  141POPC   GL1 7213  10.446  31.498   9.190
  141POPC   GL2 7214  10.237  31.761   9.192
  141POPC   C1A 7215  10.633  31.454   8.779
  141POPC   D2A 7216  10.897  31.320   8.446
  141POPC   C3A 7217  10.731  31.418   8.032
  141POPC   C4A 7218  10.366  31.402   7.773
  141POPC   C1B 7219  10.235  31.789   8.791
  141POPC   C2B 7220  10.531  31.887   8.480
  141POPC   C3B 7221  10.393  31.823   8.084
  141POPC   C4B 7222  10.617  31.835   7.706
  142POPC   NC3 7223  40.295  44.919   9.866
  142POPC   PO4 7224  40.544  44.340   9.646
  142POPC   GL1 7225  40.230  44.679   9.323
  142POPC   GL2 7226  39.860  44.755   9.169
  142POPC   C1A 7227  40.178  44.835   8.807
  142POPC   D2A 7228  40.337  44.910   8.355
  142POPC   C3A 7229  40.132  44.756   7.956
  142POPC   C4A 7230  40.344  44.472   7.636
  142POPC   C1B 7231  39.788  44.487   8.840
  142POPC   C2B 7232  39.873  44.579   8.413
  142POPC   C3B 7233  39.780  44.387   8.040
  142POPC   C4B 7234  39.592  44.445   7.686
  143POPC   NC3 7235   6.002  14.977   9.576
  143POPC   PO4 7236   6.223  14.373   9.580
  143POPC   GL1 7237   5.927  14.445   9.170
  143POPC   GL2 7238   5.941  14.130   8.932
  143POPC   C1A 7239   6.045  14.601   8.710
  143POPC   D2A 7240   6.100  14.408   8.276
  143POPC   C3A 7241   5.915  14.573   7.871
  143POPC   C4A 7242   5.774  14.320   7.507
  143POPC   C1B 7243   5.648  14.284   8.634
  143POPC   C2B 7244   5.566  14.424   8.204
  143POPC   C3B 7245   5.364  14.454   7.783
  143POPC   C4B 7246   5.014  14.214   7.594
  144POPC   NC3 7247  25.730  43.768   9.738
  144POPC   PO4 7248  26.357  44.056   9.527
  144POPC   GL1 7249  26.170  43.825   9.252
  144POPC   GL2 7250  25.848  43.990   9.239
  144POPC   C1A 7251  26.101  43.847   8.816
  144POPC   D2A 7252  25.973  44.218   8.577
  144POPC   C3A 7253  25.979  44.123   8.159
  144POPC   C4A 7254  26.277  44.132   7.846
  144POPC   C1B 7255  25.600  43.928   8.853
  144POPC   C2B 7256  25.485  43.974   8.433
  144POPC   C3B 7257  25.588  43.799   8.020
  144POPC   C4B 7258  25.881  43.840   7.702
  145POPC   NC3 7259  31.655  44.742   9.469
  145POPC   PO4 7260  32.331  44.603   9.552
  145POPC   GL1 7261  32.244  44.552   9.105
  145POPC   GL2 7262  31.885  44.512   9.066
  145POPC   C1A 7263  32.301  44.717   8.679
  145POPC   D2A 7264  32.550  44.803   8.307
  145POPC   C3A 7265  32.555  44.503   7.974
  145POPC   C4A 7266  32.377  44.466   7.548
  145POPC   C1B 7267  31.856  44.923   8.778
  145POPC   C2B 7268  32.022  44.952   8.308
  145POPC   C3B 7269  32.155  44.798   7.877
  145POPC   C4B 7270  32.017  44.765   7.402
  146POPC   NC3 7271  18.534  31.987   9.261
  146POPC   PO4 7272  19.106  32.196   9.542
  146POPC   GL1 7273  19.005  32.271   9.146
  146POPC   GL2 7274  18.810  32.518   9.137
  146POPC   C1A 7275  19.161  32.179   8.761
  146POPC   D2A 7276  19.001  32.203   8.376
  146POPC   C3A 7277  19.242  32.208   8.046
  146POPC   C4A 7278  19.113  31.946   7.735
  146POPC   C1B 7279  18.663  32.386   8.739
  146POPC   C2B 7280  18.599  32.538   8.323
  146POPC   C3B 7281  18.826  32.457   7.941
  146POPC   C4B 7282  18.710  32.230   7.586
  147POPC   NC3 7283   3.429  38.754   9.480
  147POPC   PO4 7284   3.825  39.323   9.606
  147POPC   GL1 7285   3.592  39.204   9.256
  147POPC   GL2 7286   3.793  38.928   9.165
  147POPC   C1A 7287   3.414  39.294   8.842
  147POPC   D2A 7288   3.569  39.269   8.431
  147POPC   C3A 7289   3.482  39.463   8.068
  147POPC   C4A 7290   3.413  39.605   7.684
  147POPC   C1B 7291   3.656  38.857   8.733
  147POPC   C2B 7292   3.730  38.812   8.288
  147POPC   C3B 7293   3.545  38.939   7.914
  147POPC   C4B 7294   3.196  39.165   7.776
  148POPC   NC3 7295   2.529   0.351   9.447
  148POPC   PO4 7296   1.807   0.363   9.372
  148POPC   GL1 7297   2.109   0.473   9.078
  148POPC   GL2 7298   2.308   0.750   9.176
  148POPC   C1A 7299   2.047   0.415   8.637
  148POPC   D2A 7300   2.143   0.438   8.205
  148POPC   C3A 7301   1.825   0.496   7.924
  148POPC   C4A 7302   1.633   0.263   7.585
  148POPC   C1B 7303   2.168   0.896   8.771
  148POPC   C2B 7304   1.905   0.895   8.409
  148POPC   C3B 7305   2.088   0.920   8.017
  148POPC   C4B 7306   2.136   0.715   7.599
  149POPC   NC3 7307  37.287  28.361   9.364
  149POPC   PO4 7308  37.977  28.368   9.432
  149POPC   GL1 7309  37.948  28.522   9.058
  149POPC   GL2 7310  37.613  28.629   9.075
  149POPC   C1A 7311  37.869  28.243   8.760
  149POPC   D2A 7312  37.672  28.166   8.402
  149POPC   C3A 7313  37.594  28.242   7.964
  149POPC   C4A 7314  37.768  28.572   7.744
  149POPC   C1B 7315  37.446  28.568   8.658
  149POPC   C2B 7316  37.531  28.678   8.243
  149POPC   C3B 7317  37.278  28.742   7.887
  149POPC   C4B 7318  37.142  28.361   7.724
  150POPC   NC3 7319  23.753  28.733   9.465
  150POPC   PO4 7320  23.654  28.100   9.718
  150POPC   GL1 7321  23.772  28.269   9.214
  150POPC   GL2 7322  23.633  28.564   9.013
  150POPC   C1A 7323  23.819  28.200   8.747
  150POPC   D2A 7324  23.916  28.507   8.442
  150POPC   C3A 7325  23.682  28.430   8.077
  150POPC   C4A 7326  23.741  28.064   7.792
  150POPC   C1B 7327  23.577  28.839   8.664
  150POPC   C2B 7328  23.534  29.024   8.246
  150POPC   C3B 7329  23.376  28.856   7.879
  150POPC   C4B 7330  23.516  28.485   7.600
  151POPC   NC3 7331  35.910  43.648   9.458
  151POPC   PO4 7332  36.251  44.219   9.403
  151POPC   GL1 7333  36.146  43.884   9.083
  151POPC   GL2 7334  35.887  43.936   8.865
  151POPC   C1A 7335  36.311  43.672   8.695
  151POPC   D2A 7336  36.089  43.839   8.352
  151POPC   C3A 7337  36.148  43.738   7.942
  151POPC   C4A 7338  36.365  43.494   7.626
  151POPC   C1B 7339  36.306  44.176   8.725
  151POPC   C2B 7340  36.537  44.110   8.400
  151POPC   C3B 7341  36.568  44.274   8.015
  151POPC   C4B 7342  36.295  44.151   7.687
  152POPC   NC3 7343  14.227  34.523   9.591
  152POPC   PO4 7344  14.886  34.703   9.617
  152POPC   GL1 7345  14.610  34.638   9.221
  152POPC   GL2 7346  14.247  34.524   9.085
  152POPC   C1A 7347  14.601  34.727   8.777
  152POPC   D2A 7348  14.616  34.468   8.404
  152POPC   C3A 7349  14.571  34.554   7.990
  152POPC   C4A 7350  14.671  34.656   7.567
  152POPC   C1B 7351  14.138  34.549   8.618
  152POPC   C2B 7352  14.023  34.796   8.231
  152POPC   C3B 7353  14.132  34.764   7.819
  152POPC   C4B 7354  14.242  34.432   7.548
  153POPC   NC3 7355  41.961  44.115   9.473
  153POPC   PO4 7356  42.583  44.078   9.696
  153POPC   GL1 7357  42.487  43.962   9.271
  153POPC   GL2 7358  42.599  44.170   9.003
  153POPC   C1A 7359  42.410  43.696   8.882
  153POPC   D2A 7360  42.588  43.673   8.449
  153POPC   C3A 7361  42.315  43.794   8.076
  153POPC   C4A 7362  42.392  43.752   7.632
  153POPC   C1B 7363  42.351  44.187   8.587
  153POPC   C2B 7364  42.205  44.318   8.140
  153POPC   C3B 7365  42.097  44.159   7.718
  153POPC   C4B 7366  41.857  44.299   7.338
  154POPC   NC3 7367   4.890  38.268   9.584
  154POPC   PO4 7368   5.276  38.765   9.445
  154POPC   GL1 7369   5.025  38.571   9.187
  154POPC   GL2 7370   4.708  38.683   9.329
  154POPC   C1A 7371   5.088  38.528   8.754
  154POPC   D2A 7372   5.204  38.635   8.333
  154POPC   C3A 7373   5.180  38.284   8.033
  154POPC   C4A 7374   5.095  38.132   7.583
  154POPC   C1B 7375   4.623  38.679   8.894
  154POPC   C2B 7376   4.663  38.514   8.463
  154POPC   C3B 7377   4.763  38.703   8.083
  154POPC   C4B 7378   4.954  38.602   7.684
  155POPC   NC3 7379  22.476  31.968   9.573
  155POPC   PO4 7380  22.078  32.521   9.538
  155POPC   GL1 7381  22.204  32.439   9.146
  155POPC   GL2 7382  22.214  32.099   9.157
  155POPC   C1A 7383  22.075  32.493   8.731
  155POPC   D2A 7384  22.079  32.268   8.319
  155POPC   C3A 7385  22.491  32.332   8.067
  155POPC   C4A 7386  22.500  32.463   7.621
  155POPC   C1B 7387  22.173  31.963   8.758
  155POPC   C2B 7388  21.966  31.714   8.472
  155POPC   C3B 7389  21.983  31.828   8.067
  155POPC   C4B 7390  22.176  32.087   7.760
  156POPC   NC3 7391  39.372  38.878   9.545
  156POPC   PO4 7392  39.264  38.244   9.587
  156POPC   GL1 7393  39.217  38.499   9.225
  156POPC   GL2 7394  38.960  38.312   9.118
  156POPC   C1A 7395  39.264  38.674   8.806
  156POPC   D2A 7396  39.543  38.721   8.464
  156POPC   C3A 7397  39.368  38.776   8.079
  156POPC   C4A 7398  39.370  38.627   7.670
  156POPC   C1B 7399  38.929  38.352   8.655
  156POPC   C2B 7400  38.998  38.438   8.226
  156POPC   C3B 7401  39.340  38.265   8.016
  156POPC   C4B 7402  39.379  38.027   7.648
  157POPC   NC3 7403  14.737  21.189   9.298
  157POPC   PO4 7404  15.189  21.631   9.557
  157POPC   GL1 7405  15.107  21.504   9.158
  157POPC   GL2 7406  15.275  21.186   9.144
  157POPC   C1A 7407  14.987  21.680   8.796
  157POPC   D2A 7408  15.163  21.647   8.419
  157POPC   C3A 7409  14.993  21.380   8.117
  157POPC   C4A 7410  14.978  21.596   7.733
  157POPC   C1B 7411  15.254  21.226   8.686
  157POPC   C2B 7412  15.439  21.037   8.279
  157POPC   C3B 7413  15.435  20.911   7.841
  157POPC   C4B 7414  15.037  21.079   7.685
  158POPC   NC3 7415  32.314  11.484   9.448
  158POPC   PO4 7416  31.925  10.983   9.576
  158POPC   GL1 7417  32.019  10.956   9.141
  158POPC   GL2 7418  32.361  11.090   9.085
  158POPC   C1A 7419  31.920  11.162   8.751
  158POPC   D2A 7420  31.673  11.263   8.384
  158POPC   C3A 7421  31.860  11.260   7.972
  158POPC   C4A 7422  32.065  11.201   7.571
  158POPC   C1B 7423  32.356  11.413   8.744
  158POPC   C2B 7424  32.153  11.489   8.332
  158POPC   C3B 7425  32.298  11.548   7.885
  158POPC   C4B 7426  32.583  11.342   7.575
  159POPC   NC3 7427  15.904   7.261   9.825
  159POPC   PO4 7428  16.221   7.396   9.322
  159POPC   GL1 7429  15.940   7.343   9.059
  159POPC   GL2 7430  15.784   7.075   9.222
  159POPC   C1A 7431  15.958   7.425   8.633
  159POPC   D2A 7432  15.825   7.624   8.294
  159POPC   C3A 7433  16.161   7.769   8.147
  159POPC   C4A 7434  16.283   7.610   7.803
  159POPC   C1B 7435  15.639   7.051   8.765
  159POPC   C2B 7436  15.867   6.970   8.362
  159POPC   C3B 7437  15.878   7.118   7.928
  159POPC   C4B 7438  15.621   7.020   7.567
  160POPC   NC3 7439  13.156  12.161   9.344
  160POPC   PO4 7440  12.539  12.010   9.505
  160POPC   GL1 7441  12.711  12.114   9.145
  160POPC   GL2 7442  12.461  12.332   9.113
  160POPC   C1A 7443  12.961  12.088   8.722
  160POPC   D2A 7444  13.021  11.914   8.311
  160POPC   C3A 7445  12.714  11.799   7.970
  160POPC   C4A 7446  13.025  11.887   7.680
  160POPC   C1B 7447  12.452  12.090   8.742
  160POPC   C2B 7448  12.542  12.266   8.390
  160POPC   C3B 7449  12.730  12.287   8.041
  160POPC   C4B 7450  12.596  12.205   7.669
  161POPC   NC3 7451   5.692  12.165   9.784
  161POPC   PO4 7452   6.235  11.854   9.585
  161POPC   GL1 7453   5.892  12.009   9.329
  161POPC   GL2 7454   6.099  12.195   9.156
  161POPC   C1A 7455   5.607  12.247   8.997
  161POPC   D2A 7456   5.494  12.190   8.528
  161POPC   C3A 7457   5.547  12.153   8.059
  161POPC   C4A 7458   5.589  11.902   7.664
  161POPC   C1B 7459   6.024  12.189   8.735
  161POPC   C2B 7460   5.963  12.345   8.358
  161POPC   C3B 7461   6.046  12.105   8.037
  161POPC   C4B 7462   6.091  12.080   7.657
  162POPC   NC3 7463  23.538  29.709   9.489
  162POPC   PO4 7464  23.933  30.275   9.459
  162POPC   GL1 7465  23.832  30.058   9.101
  162POPC   GL2 7466  23.883  29.680   9.094
  162POPC   C1A 7467  23.793  30.261   8.677
  162POPC   D2A 7468  23.629  30.290   8.223
  162POPC   C3A 7469  23.873  30.106   7.882
  162POPC   C4A 7470  23.870  29.704   7.634
  162POPC   C1B 7471  23.504  29.820   8.828
  162POPC   C2B 7472  23.338  29.794   8.446
  162POPC   C3B 7473  23.547  29.761   8.068
  162POPC   C4B 7474  23.374  29.782   7.707
  163POPC   NC3 7475  40.219  16.496   9.236
  163POPC   PO4 7476  39.965  16.956   9.678
  163POPC   GL1 7477  39.925  16.924   9.215
  163POPC   GL2 7478  39.739  16.647   9.143
  163POPC   C1A 7479  40.074  16.918   8.759
  163POPC   D2A 7480  40.153  16.645   8.372
  163POPC   C3A 7481  39.989  16.833   7.982
  163POPC   C4A 7482  40.209  16.988   7.591
  163POPC   C1B 7483  39.658  16.417   8.769
  163POPC   C2B 7484  39.759  16.298   8.348
  163POPC   C3B 7485  39.603  16.437   7.972
  163POPC   C4B 7486  39.846  16.495   7.633
  164POPC   NC3 7487  18.168  29.443   9.445
  164POPC   PO4 7488  18.502  28.796   9.382
  164POPC   GL1 7489  18.328  29.077   9.106
  164POPC   GL2 7490  18.551  29.376   9.117
  164POPC   C1A 7491  18.131  28.992   8.715
  164POPC   D2A 7492  18.247  28.703   8.404
  164POPC   C3A 7493  18.164  28.779   7.980
  164POPC   C4A 7494  18.445  29.012   7.761
  164POPC   C1B 7495  18.776  29.372   8.722
  164POPC   C2B 7496  18.623  29.236   8.349
  164POPC   C3B 7497  18.235  29.245   8.178
  164POPC   C4B 7498  18.178  29.496   7.827
  165POPC   NC3 7499  37.197  43.171   9.472
  165POPC   PO4 7500  36.739  42.791   9.724
  165POPC   GL1 7501  36.723  43.040   9.275
  165POPC   GL2 7502  37.023  42.941   9.068
  165POPC   C1A 7503  36.758  43.286   8.845
  165POPC   D2A 7504  37.037  43.023   8.539
  165POPC   C3A 7505  37.041  43.011   8.086
  165POPC   C4A 7506  36.746  43.147   7.735
  165POPC   C1B 7507  37.283  43.302   8.855
  165POPC   C2B 7508  37.315  43.588   8.517
  165POPC   C3B 7509  37.102  43.553   8.128
  165POPC   C4B 7510  37.201  43.371   7.730
  166POPC   NC3 7511  15.643  31.746   9.553
  166POPC   PO4 7512  15.825  31.125   9.405
  166POPC   GL1 7513  15.748  31.467   9.132
  166POPC   GL2 7514  15.973  31.784   9.158
  166POPC   C1A 7515  15.792  31.414   8.715
  166POPC   D2A 7516  15.562  31.283   8.358
  166POPC   C3A 7517  15.664  31.466   7.958
  166POPC   C4A 7518  15.610  31.283   7.541
  166POPC   C1B 7519  16.138  31.789   8.725
  166POPC   C2B 7520  16.063  31.581   8.295
  166POPC   C3B 7521  16.151  31.414   7.864
  166POPC   C4B 7522  16.382  31.624   7.546
  167POPC   NC3 7523  43.710  24.189   9.456
  167POPC   PO4 7524  44.081  24.653   9.396
  167POPC   GL1 7525  43.918  24.457   9.060
  167POPC   GL2 7526  44.048  24.141   9.015
  167POPC   C1A 7527  43.784  24.595   8.672
  167POPC   D2A 7528  43.928  24.586   8.261
  167POPC   C3A 7529  43.576  24.663   7.983
  167POPC   C4A 7530  43.687  24.667   7.524
  167POPC   C1B 7531  43.919  24.111   8.555
  167POPC   C2B 7532  43.599  24.162   8.195
  167POPC   C3B 7533  43.832  24.254   7.832
  167POPC   C4B 7534  44.280  24.102   7.806
  168POPC   NC3 7535  35.621  18.115   9.366
  168POPC   PO4 7536  35.066  18.325   9.640
  168POPC   GL1 7537  35.211  18.424   9.173
  168POPC   GL2 7538  35.546  18.554   9.132
  168POPC   C1A 7539  35.277  18.393   8.694
  168POPC   D2A 7540  35.059  18.121   8.406
  168POPC   C3A 7541  35.008  18.148   7.957
  168POPC   C4A 7542  35.075  18.030   7.527
  168POPC   C1B 7543  35.770  18.389   8.798
  168POPC   C2B 7544  35.765  18.455   8.391
  168POPC   C3B 7545  35.498  18.238   8.153
  168POPC   C4B 7546  35.449  18.320   7.743
  169POPC   NC3 7547  32.937  18.226   9.805
  169POPC   PO4 7548  33.365  18.349   9.324
  169POPC   GL1 7549  33.193  18.221   8.991
  169POPC   GL2 7550  33.268  17.861   8.958
  169POPC   C1A 7551  33.010  18.421   8.636
  169POPC   D2A 7552  32.753  18.401   8.262
  169POPC   C3A 7553  32.967  18.385   7.833
  169POPC   C4A 7554  33.331  18.553   7.634
  169POPC   C1B 7555  33.228  17.950   8.572
  169POPC   C2B 7556  33.181  18.123   8.234
  169POPC   C3B 7557  33.198  17.931   7.896
  169POPC   C4B 7558  33.334  18.041   7.501
  170POPC   NC3 7559  20.066  37.425   9.519
  170POPC   PO4 7560  19.471  37.639   9.454
  170POPC   GL1 7561  19.718  37.473   9.143
  170POPC   GL2 7562  19.994  37.675   9.062
  170POPC   C1A 7563  19.637  37.479   8.714
  170POPC   D2A 7564  19.917  37.427   8.378
  170POPC   C3A 7565  19.721  37.654   8.033
  170POPC   C4A 7566  19.406  37.485   7.777
  170POPC   C1B 7567  20.154  37.883   8.678
  170POPC   C2B 7568  20.163  37.847   8.244
  170POPC   C3B 7569  20.199  37.723   7.875
  170POPC   C4B 7570  20.309  37.559   7.545
  171POPC   NC3 7571  24.720   4.684   9.517
  171POPC   PO4 7572  24.659   5.372   9.678
  171POPC   GL1 7573  24.383   5.316   9.285
  171POPC   GL2 7574  24.437   4.968   9.189
  171POPC   C1A 7575  24.484   5.355   8.830
  171POPC   D2A 7576  24.641   5.113   8.485
  171POPC   C3A 7577  24.583   5.290   8.094
  171POPC   C4A 7578  24.789   5.218   7.722
  171POPC   C1B 7579  24.325   4.797   8.775
  171POPC   C2B 7580  24.373   4.701   8.321
  171POPC   C3B 7581  24.566   4.801   7.928
  171POPC   C4B 7582  24.589   4.817   7.448
  172POPC   NC3 7583  18.347  10.165   9.500
  172POPC   PO4 7584  18.584  10.877   9.471
  172POPC   GL1 7585  18.348  10.564   9.187
  172POPC   GL2 7586  18.559  10.292   9.021
  172POPC   C1A 7587  18.082  10.377   8.839
  172POPC   D2A 7588  17.897  10.540   8.456
  172POPC   C3A 7589  18.034  10.448   8.053
  172POPC   C4A 7590  18.143  10.753   7.741
  172POPC   C1B 7591  18.472  10.677   8.722
  172POPC   C2B 7592  18.356  10.828   8.316
  172POPC   C3B 7593  18.620  10.820   7.960
  172POPC   C4B 7594  18.729  10.421   7.798
  173POPC   NC3 7595  13.149  23.720   9.462
  173POPC   PO4 7596  12.564  24.042   9.499
  173POPC   GL1 7597  12.560  23.905   9.110
  173POPC   GL2 7598  12.852  23.772   9.057
  173POPC   C1A 7599  12.469  23.777   8.719
  173POPC   D2A 7600  12.505  24.059   8.400
  173POPC   C3A 7601  12.667  23.883   8.039
  173POPC   C4A 7602  12.538  23.465   7.885
  173POPC   C1B 7603  12.950  23.875   8.626
  173POPC   C2B 7604  12.827  23.507   8.381
  173POPC   C3B 7605  13.022  23.498   8.002
  173POPC   C4B 7606  13.193  23.919   7.882
  174POPC   NC3 7607  14.455  36.031   9.522
  174POPC   PO4 7608  14.414  36.645   9.164
  174POPC   GL1 7609  14.563  36.250   9.080
  174POPC   GL2 7610  14.272  35.996   9.066
  174POPC   C1A 7611  14.649  36.010   8.733
  174POPC   D2A 7612  14.511  35.956   8.328
  174POPC   C3A 7613  14.571  36.265   7.995
  174POPC   C4A 7614  14.679  35.971   7.687
  174POPC   C1B 7615  14.164  36.214   8.695
  174POPC   C2B 7616  14.060  36.145   8.268
  174POPC   C3B 7617  14.200  35.917   7.900
  174POPC   C4B 7618  14.250  36.179   7.548
  175POPC   NC3 7619  40.982  19.516   9.376
  175POPC   PO4 7620  40.763  20.169   9.480
  175POPC   GL1 7621  40.778  19.942   9.142
  175POPC   GL2 7622  41.150  19.967   9.158
  175POPC   C1A 7623  40.593  19.818   8.742
  175POPC   D2A 7624  40.460  19.509   8.416
  175POPC   C3A 7625  40.620  19.726   8.039
  175POPC   C4A 7626  40.914  19.566   7.769
  175POPC   C1B 7627  41.065  20.048   8.742
  175POPC   C2B 7628  40.903  20.026   8.332
  175POPC   C3B 7629  41.105  20.024   7.943
  175POPC   C4B 7630  41.381  19.719   7.733
  176POPC   NC3 7631  13.452   9.091   9.872
  176POPC   PO4 7632  14.002   9.197   9.499
  176POPC   GL1 7633  13.859   9.190   9.075
  176POPC   GL2 7634  13.728   8.841   9.044
  176POPC   C1A 7635  13.839   9.137   8.621
  176POPC   D2A 7636  13.674   8.915   8.273
  176POPC   C3A 7637  13.651   9.162   7.898
  176POPC   C4A 7638  13.625   9.145   7.441
  176POPC   C1B 7639  13.986   8.670   8.715
  176POPC   C2B 7640  14.171   8.787   8.339
  176POPC   C3B 7641  14.000   8.739   7.924
  176POPC   C4B 7642  13.577   8.674   7.742
  177POPC   NC3 7643  18.009  22.135   9.423
  177POPC   PO4 7644  18.446  22.569   9.313
  177POPC   GL1 7645  18.334  22.281   9.077
  177POPC   GL2 7646  17.994  22.422   8.995
  177POPC   C1A 7647  18.171  21.984   8.785
  177POPC   D2A 7648  18.384  21.856   8.422
  177POPC   C3A 7649  18.247  21.949   8.027
  177POPC   C4A 7650  18.150  22.066   7.612
  177POPC   C1B 7651  18.282  22.438   8.604
  177POPC   C2B 7652  18.278  22.426   8.181
  177POPC   C3B 7653  18.539  22.334   7.816
  177POPC   C4B 7654  18.465  22.411   7.375
  178POPC   NC3 7655  22.787  30.242   9.758
  178POPC   PO4 7656  23.062  29.625   9.596
  178POPC   GL1 7657  22.847  29.873   9.295
  178POPC   GL2 7658  23.191  30.001   9.225
  178POPC   C1A 7659  22.628  29.725   8.904
  178POPC   D2A 7660  22.832  29.645   8.504
  178POPC   C3A 7661  22.683  29.730   8.084
  178POPC   C4A 7662  22.879  29.747   7.692
  178POPC   C1B 7663  23.027  30.022   8.815
  178POPC   C2B 7664  22.885  30.136   8.406
  178POPC   C3B 7665  23.126  30.084   8.060
  178POPC   C4B 7666  23.111  30.227   7.672
  179POPC   NC3 7667  17.540  25.460   9.544
  179POPC   PO4 7668  17.817  24.833   9.377
  179POPC   GL1 7669  17.560  25.088   9.136
  179POPC   GL2 7670  17.615  25.423   9.052
  179POPC   C1A 7671  17.496  25.028   8.725
  179POPC   D2A 7672  17.226  25.080   8.396
  179POPC   C3A 7673  17.478  25.029   8.048
  179POPC   C4A 7674  17.286  24.931   7.716
  179POPC   C1B 7675  17.488  25.536   8.659
  179POPC   C2B 7676  17.396  25.524   8.254
  179POPC   C3B 7677  17.343  25.516   7.853
  179POPC   C4B 7678  17.628  25.735   7.626
  180POPC   NC3 7679  37.970  17.316   9.591
  180POPC   PO4 7680  38.510  17.791   9.502
  180POPC   GL1 7681  38.463  17.561   9.139
  180POPC   GL2 7682  38.238  17.297   9.154
  180POPC   C1A 7683  38.613  17.387   8.767
  180POPC   D2A 7684  38.518  17.144   8.385
  180POPC   C3A 7685  38.441  17.320   7.949
  180POPC   C4A 7686  38.647  17.482   7.550
  180POPC   C1B 7687  38.045  17.512   8.833
  180POPC   C2B 7688  38.122  17.514   8.416
  180POPC   C3B 7689  38.184  17.761   8.056
  180POPC   C4B 7690  38.092  17.594   7.669
  181POPC   NC3 7691  12.684  13.169   9.460
  181POPC   PO4 7692  12.979  13.864   9.570
  181POPC   GL1 7693  13.047  13.548   9.265
  181POPC   GL2 7694  12.696  13.602   9.173
  181POPC   C1A 7695  13.098  13.546   8.817
  181POPC   D2A 7696  12.886  13.651   8.426
  181POPC   C3A 7697  13.090  13.553   8.010
  181POPC   C4A 7698  12.892  13.515   7.617
  181POPC   C1B 7699  12.594  13.399   8.798
  181POPC   C2B 7700  12.433  13.324   8.407
  181POPC   C3B 7701  12.564  13.495   8.052
  181POPC   C4B 7702  12.539  13.191   7.778
  182POPC   NC3 7703  34.889  33.153   9.594
  182POPC   PO4 7704  34.513  32.682   9.453
  182POPC   GL1 7705  34.559  33.004   9.196
  182POPC   GL2 7706  34.875  33.084   9.087
  182POPC   C1A 7707  34.366  33.070   8.838
  182POPC   D2A 7708  34.461  32.959   8.423
  182POPC   C3A 7709  34.373  33.144   8.052
  182POPC   C4A 7710  34.342  32.940   7.699
  182POPC   C1B 7711  34.860  33.227   8.680
  182POPC   C2B 7712  34.949  33.048   8.269
  182POPC   C3B 7713  34.839  32.966   7.848
  182POPC   C4B 7714  34.893  33.040   7.371
  183POPC   NC3 7715  30.817  16.185   9.404
  183POPC   PO4 7716  30.906  16.846   9.495
  183POPC   GL1 7717  30.645  16.857   9.120
  183POPC   GL2 7718  30.412  16.584   9.057
  183POPC   C1A 7719  30.768  16.744   8.715
  183POPC   D2A 7720  30.681  16.468   8.379
  183POPC   C3A 7721  30.665  16.716   8.014
  183POPC   C4A 7722  30.928  17.002   7.756
  183POPC   C1B 7723  30.245  16.393   8.684
  183POPC   C2B 7724  30.222  16.189   8.256
  183POPC   C3B 7725  30.193  16.461   7.879
  183POPC   C4B 7726  30.400  16.490   7.472
  184POPC   NC3 7727   1.281   6.447   9.650
  184POPC   PO4 7728   1.081   6.874   9.169
  184POPC   GL1 7729   1.283   6.518   9.116
  184POPC   GL2 7730   1.022   6.299   9.234
  184POPC   C1A 7731   1.399   6.562   8.690
  184POPC   D2A 7732   1.173   6.610   8.308
  184POPC   C3A 7733   1.378   6.597   7.917
  184POPC   C4A 7734   1.381   6.576   7.444
  184POPC   C1B 7735   0.992   6.264   8.789
  184POPC   C2B 7736   0.763   6.310   8.392
  184POPC   C3B 7737   0.918   6.250   7.975
  184POPC   C4B 7738   0.932   6.594   7.703
  185POPC   NC3 7739  37.969   2.892   9.536
  185POPC   PO4 7740  37.632   2.329   9.613
  185POPC   GL1 7741  37.541   2.601   9.236
  185POPC   GL2 7742  37.595   2.974   9.181
  185POPC   C1A 7743  37.447   2.688   8.784
  185POPC   D2A 7744  37.332   2.581   8.356
  185POPC   C3A 7745  37.628   2.428   8.086
  185POPC   C4A 7746  37.812   2.585   7.707
  185POPC   C1B 7747  37.716   3.145   8.796
  185POPC   C2B 7748  37.765   2.897   8.424
  185POPC   C3B 7749  37.600   2.936   8.039
  185POPC   C4B 7750  37.818   3.163   7.782
  186POPC   NC3 7751  18.734  30.433   9.381
  186POPC   PO4 7752  18.120  30.625   9.401
  186POPC   GL1 7753  18.185  30.745   9.009
  186POPC   GL2 7754  18.524  30.878   9.077
  186POPC   C1A 7755  18.150  30.647   8.550
  186POPC   D2A 7756  18.487  30.693   8.245
  186POPC   C3A 7757  18.265  30.642   7.886
  186POPC   C4A 7758  17.843  30.447   7.820
  186POPC   C1B 7759  18.596  30.560   8.764
  186POPC   C2B 7760  18.518  30.235   8.499
  186POPC   C3B 7761  18.731  30.241   8.136
  186POPC   C4B 7762  18.646  30.313   7.709
  187POPC   NC3 7763  35.730  10.684   9.653
  187POPC   PO4 7764  35.188  10.335   9.585
  187POPC   GL1 7765  35.099  10.312   9.179
  187POPC   GL2 7766  35.449  10.481   9.084
  187POPC   C1A 7767  35.040  10.470   8.785
  187POPC   D2A 7768  35.354  10.490   8.534
  187POPC   C3A 7769  35.287  10.504   8.141
  187POPC   C4A 7770  35.115  10.645   7.788
  187POPC   C1B 7771  35.603  10.839   8.780
  187POPC   C2B 7772  35.715  10.799   8.321
  187POPC   C3B 7773  35.573  10.862   7.909
  187POPC   C4B 7774  35.663  10.427   7.796
  188POPC   NC3 7775  40.939  27.204   9.490
  188POPC   PO4 7776  40.502  26.685   9.651
  188POPC   GL1 7777  40.348  26.760   9.222
  188POPC   GL2 7778  40.686  26.858   9.167
  188POPC   C1A 7779  40.342  26.652   8.761
  188POPC   D2A 7780  40.616  26.496   8.398
  188POPC   C3A 7781  40.594  26.697   7.966
  188POPC   C4A 7782  40.603  27.153   7.865
  188POPC   C1B 7783  40.853  26.784   8.783
  188POPC   C2B 7784  41.067  26.759   8.412
  188POPC   C3B 7785  41.049  26.960   8.047
  188POPC   C4B 7786  40.981  26.822   7.624
  189POPC   NC3 7787   5.378  35.599   9.403
  189POPC   PO4 7788   4.778  35.384   9.325
  189POPC   GL1 7789   5.112  35.279   9.057
  189POPC   GL2 7790   5.416  35.480   8.917
  189POPC   C1A 7791   5.043  35.278   8.622
  189POPC   D2A 7792   4.674  35.379   8.378
  189POPC   C3A 7793   4.776  35.128   8.009
  189POPC   C4A 7794   4.869  35.247   7.601
  189POPC   C1B 7795   5.483  35.059   8.805
  189POPC   C2B 7796   5.400  34.881   8.407
  189POPC   C3B 7797   5.325  35.086   8.000
  189POPC   C4B 7798   5.422  34.958   7.605
  190POPC   NC3 7799  17.633  10.062   9.530
  190POPC   PO4 7800  17.074   9.662   9.400
  190POPC   GL1 7801  17.411   9.794   9.150
  190POPC   GL2 7802  17.749   9.643   9.209
  190POPC   C1A 7803  17.331   9.887   8.751
  190POPC   D2A 7804  17.551   9.946   8.420
  190POPC   C3A 7805  17.422   9.690   8.103
  190POPC   C4A 7806  17.365   9.875   7.715
  190POPC   C1B 7807  17.855   9.920   8.861
  190POPC   C2B 7808  18.054   9.999   8.446
  190POPC   C3B 7809  17.896   9.930   8.033
  190POPC   C4B 7810  17.924  10.144   7.639
  191POPC   NC3 7811   9.514  13.082   9.499
  191POPC   PO4 7812   9.963  13.647   9.462
  191POPC   GL1 7813   9.670  13.760   9.147
  191POPC   GL2 7814   9.446  13.469   9.154
  191POPC   C1A 7815   9.830  13.858   8.740
  191POPC   D2A 7816  10.195  13.804   8.445
  191POPC   C3A 7817  10.040  13.711   8.024
  191POPC   C4A 7818   9.734  13.964   7.862
  191POPC   C1B 7819   9.690  13.365   8.775
  191POPC   C2B 7820   9.732  13.510   8.371
  191POPC   C3B 7821   9.563  13.464   7.971
  191POPC   C4B 7822   9.569  13.616   7.539
  192POPC   NC3 7823  37.116   5.457   9.530
  192POPC   PO4 7824  36.958   6.150   9.537
  192POPC   GL1 7825  36.821   5.891   9.199
  192POPC   GL2 7826  36.531   6.125   9.190
  192POPC   C1A 7827  36.925   5.723   8.799
  192POPC   D2A 7828  37.149   5.661   8.444
  192POPC   C3A 7829  37.000   5.768   8.068
  192POPC   C4A 7830  36.898   5.778   7.678
  192POPC   C1B 7831  36.717   6.189   8.792
  192POPC   C2B 7832  36.902   6.139   8.411
  192POPC   C3B 7833  36.728   6.189   8.002
  192POPC   C4B 7834  36.810   6.255   7.526
  193POPC   NC3 7835   0.892   4.731   9.403
  193POPC   PO4 7836   1.273   5.302   9.382
  193POPC   GL1 7837   1.147   5.040   9.054
  193POPC   GL2 7838   0.814   5.165   9.141
  193POPC   C1A 7839   1.287   5.094   8.609
  193POPC   D2A 7840   1.332   5.218   8.130
  193POPC   C3A 7841   1.342   4.945   7.728
  193POPC   C4A 7842   1.379   4.817   7.250
  193POPC   C1B 7843   0.840   5.369   8.786
  193POPC   C2B 7844   1.009   5.506   8.420
  193POPC   C3B 7845   0.843   5.385   8.032
  193POPC   C4B 7846   0.985   5.314   7.638
  194POPC   NC3 7847  29.839  34.839   9.435
  194POPC   PO4 7848  29.688  35.500   9.455
  194POPC   GL1 7849  29.848  35.492   9.083
  194POPC   GL2 7850  30.036  35.197   9.035
  194POPC   C1A 7851  29.788  35.481   8.671
  194POPC   D2A 7852  29.829  35.237   8.357
  194POPC   C3A 7853  29.801  35.528   8.031
  194POPC   C4A 7854  29.892  35.738   7.649
  194POPC   C1B 7855  30.276  35.183   8.647
  194POPC   C2B 7856  30.271  35.089   8.178
  194POPC   C3B 7857  29.900  35.073   7.872
  194POPC   C4B 7858  29.898  35.264   7.449
  195POPC   NC3 7859   4.505  17.320   9.415
  195POPC   PO4 7860   3.974  17.628   9.734
  195POPC   GL1 7861   3.933  17.751   9.255
  195POPC   GL2 7862   4.261  17.687   9.102
  195POPC   C1A 7863   3.901  17.647   8.780
  195POPC   D2A 7864   4.214  17.752   8.427
  195POPC   C3A 7865   4.308  17.485   8.050
  195POPC   C4A 7866   4.464  17.620   7.659
  195POPC   C1B 7867   4.458  17.450   8.766
  195POPC   C2B 7868   4.693  17.458   8.394
  195POPC   C3B 7869   4.752  17.169   8.057
  195POPC   C4B 7870   4.617  17.130   7.657
  196POPC   NC3 7871   7.164   2.800   9.433
  196POPC   PO4 7872   7.826   2.559   9.420
  196POPC   GL1 7873   7.566   2.777   9.110
  196POPC   GL2 7874   7.267   2.585   9.002
  196POPC   C1A 7875   7.420   2.996   8.721
  196POPC   D2A 7876   7.233   2.966   8.299
  196POPC   C3A 7877   7.507   2.943   7.971
  196POPC   C4A 7878   7.660   2.581   7.740
  196POPC   C1B 7879   7.014   2.652   8.669
  196POPC   C2B 7880   6.995   2.490   8.277
  196POPC   C3B 7881   7.131   2.606   7.888
  196POPC   C4B 7882   7.062   2.537   7.463
  197POPC   NC3 7883   0.593   0.980   9.504
  197POPC   PO4 7884   0.249   1.600   9.443
  197POPC   GL1 7885   0.412   1.318   9.122
  197POPC   GL2 7886   0.291   0.971   9.105
  197POPC   C1A 7887   0.727   1.097   8.859
  197POPC   D2A 7888   0.835   0.952   8.433
  197POPC   C3A 7889   0.618   1.064   8.065
  197POPC   C4A 7890   0.428   0.992   7.666
  197POPC   C1B 7891   0.135   1.111   8.749
  197POPC   C2B 7892   0.221   1.067   8.384
  197POPC   C3B 7893   0.073   0.999   8.025
  197POPC   C4B 7894  44.952   1.138   7.647
  198POPC   NC3 7895   7.144  33.351   9.502
  198POPC   PO4 7896   7.552  32.893   9.600
  198POPC   GL1 7897   7.522  33.152   9.201
  198POPC   GL2 7898   7.195  33.043   9.092
  198POPC   C1A 7899   7.491  33.281   8.748
  198POPC   D2A 7900   7.233  33.041   8.433
  198POPC   C3A 7901   7.504  32.982   8.076
  198POPC   C4A 7902   7.838  32.874   7.787
  198POPC   C1B 7903   6.980  33.354   8.827
  198POPC   C2B 7904   6.785  33.330   8.398
  198POPC   C3B 7905   7.055  33.321   8.012
  198POPC   C4B 7906   7.471  33.397   7.798
  199POPC   NC3 7907  10.176  43.308   9.635
  199POPC   PO4 7908   9.529  43.018   9.592
  199POPC   GL1 7909   9.798  43.136   9.225
  199POPC   GL2 7910  10.023  43.399   9.149
  199POPC   C1A 7911   9.702  43.058   8.798
  199POPC   D2A 7912   9.546  42.885   8.396
  199POPC   C3A 7913   9.611  43.098   8.004
  199POPC   C4A 7914   9.507  42.971   7.611
  199POPC   C1B 7915  10.204  43.278   8.762
  199POPC   C2B 7916  10.250  43.236   8.305
  199POPC   C3B 7917  10.107  43.248   7.862
  199POPC   C4B 7918  10.169  43.318   7.405
  200POPC   NC3 7919  25.742  31.640   9.269
  200POPC   PO4 7920  25.347  31.245   9.607
  200POPC   GL1 7921  25.153  31.504   9.230
  200POPC   GL2 7922  25.379  31.440   8.943
  200POPC   C1A 7923  24.929  31.605   8.808
  200POPC   D2A 7924  25.167  31.479   8.429
  200POPC   C3A 7925  25.067  31.581   8.001
  200POPC   C4A 7926  25.194  31.320   7.644
  200POPC   C1B 7927  25.646  31.653   8.607
  200POPC   C2B 7928  25.771  31.615   8.182
  200POPC   C3B 7929  25.609  31.589   7.799
  200POPC   C4B 7930  25.384  31.934   7.747
  201POPC   NC3 7931  33.424  32.742   9.586
  201POPC   PO4 7932  32.787  33.128   9.456
  201POPC   GL1 7933  33.023  33.020   9.105
  201POPC   GL2 7934  33.389  32.921   9.108
  201POPC   C1A 7935  32.878  32.964   8.687
  201POPC   D2A 7936  33.105  32.865   8.303
  201POPC   C3A 7937  32.852  32.830   7.910
  201POPC   C4A 7938  32.928  33.064   7.515
  201POPC   C1B 7939  33.351  33.188   8.741
  201POPC   C2B 7940  33.040  33.383   8.428
  201POPC   C3B 7941  33.064  33.296   7.985
  201POPC   C4B 7942  33.329  32.964   7.832
  202POPC   NC3 7943  41.239  18.208   9.554
  202POPC   PO4 7944  41.943  18.095   9.451
  202POPC   GL1 7945  41.640  18.354   9.206
  202POPC   GL2 7946  41.438  18.066   9.104
  202POPC   C1A 7947  41.513  18.566   8.799
  202POPC   D2A 7948  41.389  18.376   8.372
  202POPC   C3A 7949  41.607  18.490   7.974
  202POPC   C4A 7950  41.700  18.365   7.527
  202POPC   C1B 7951  41.706  18.112   8.735
  202POPC   C2B 7952  41.786  17.958   8.331
  202POPC   C3B 7953  41.670  17.986   7.889
  202POPC   C4B 7954  41.910  17.915   7.483
  203POPC   NC3 7955  22.577  35.585   9.455
  203POPC   PO4 7956  22.721  34.996   9.493
  203POPC   GL1 7957  22.342  35.214   9.215
  203POPC   GL2 7958  22.201  34.983   8.976
  203POPC   C1A 7959  22.036  35.438   8.904
  203POPC   D2A 7960  21.951  35.174   8.542
  203POPC   C3A 7961  21.996  35.299   8.109
  203POPC   C4A 7962  22.248  35.543   7.823
  203POPC   C1B 7963  22.469  34.787   8.728
  203POPC   C2B 7964  22.617  34.956   8.348
  203POPC   C3B 7965  22.507  35.106   7.969
  203POPC   C4B 7966  22.183  35.034   7.700
  204POPC   NC3 7967  38.171   5.990   9.541
  204POPC   PO4 7968  38.765   6.234   9.762
  204POPC   GL1 7969  38.584   6.257   9.308
  204POPC   GL2 7970  38.387   5.964   9.091
  204POPC   C1A 7971  38.707   6.263   8.867
  204POPC   D2A 7972  38.404   6.080   8.527
  204POPC   C3A 7973  38.568   5.802   8.218
  204POPC   C4A 7974  38.670   5.969   7.815
  204POPC   C1B 7975  38.306   5.638   8.741
  204POPC   C2B 7976  38.118   5.542   8.349
  204POPC   C3B 7977  38.133   5.723   7.961
  204POPC   C4B 7978  38.470   5.489   7.807
  205POPC   NC3 7979   0.681  32.868   9.498
  205POPC   PO4 7980   0.316  33.330   9.218
  205POPC   GL1 7981   0.500  32.936   9.025
  205POPC   GL2 7982   0.783  33.140   9.058
  205POPC   C1A 7983   0.690  32.671   8.644
  205POPC   D2A 7984   0.649  32.587   8.165
  205POPC   C3A 7985   0.214  32.716   8.003
  205POPC   C4A 7986  44.898  32.970   7.715
  205POPC   C1B 7987   0.926  33.162   8.646
  205POPC   C2B 7988   1.017  32.970   8.265
  205POPC   C3B 7989   0.791  33.064   7.903
  205POPC   C4B 7990   0.392  33.100   7.717
  206POPC   NC3 7991  44.995  20.503   9.331
  206POPC   PO4 7992  44.425  20.625   9.557
  206POPC   GL1 7993  44.523  20.832   9.166
  206POPC   GL2 7994  44.878  20.971   9.137
  206POPC   C1A 7995  44.436  20.662   8.741
  206POPC   D2A 7996  44.241  20.531   8.344
  206POPC   C3A 7997  44.466  20.680   7.981
  206POPC   C4A 7998  44.534  20.571   7.550
  206POPC   C1B 7999  44.987  20.836   8.747
  206POPC   C2B 8000   0.045  20.682   8.335
  206POPC   C3B 8001  44.956  20.868   7.955
  206POPC   C4B 8002   0.009  20.764   7.526
  207POPC   NC3 8003  26.669  34.838   9.337
  207POPC   PO4 8004  27.041  34.353   9.495
  207POPC   GL1 8005  26.935  34.457   9.073
  207POPC   GL2 8006  26.571  34.424   9.033
  207POPC   C1A 8007  27.076  34.658   8.684
  207POPC   D2A 8008  27.129  34.854   8.270
  207POPC   C3A 8009  26.919  34.687   7.916
  207POPC   C4A 8010  27.005  34.500   7.534
  207POPC   C1B 8011  26.664  34.337   8.601
  207POPC   C2B 8012  26.966  34.322   8.280
  207POPC   C3B 8013  26.815  34.179   7.887
  207POPC   C4B 8014  26.518  34.364   7.617
  208POPC   NC3 8015  29.718   1.168   9.561
  208POPC   PO4 8016  30.353   0.809   9.459
  208POPC   GL1 8017  30.037   1.021   9.190
  208POPC   GL2 8018  29.795   0.780   9.190
  208POPC   C1A 8019  29.899   1.272   8.815
  208POPC   D2A 8020  29.971   1.172   8.347
  208POPC   C3A 8021  29.924   1.408   7.928
  208POPC   C4A 8022  29.881   1.468   7.460
  208POPC   C1B 8023  29.700   0.785   8.758
  208POPC   C2B 8024  29.522   0.793   8.344
  208POPC   C3B 8025  29.772   0.853   8.007
  208POPC   C4B 8026  29.682   1.052   7.642
  209POPC   NC3 8027  33.398   8.026   9.540
  209POPC   PO4 8028  32.923   8.456   9.415
  209POPC   GL1 8029  33.083   8.328   9.084
  209POPC   GL2 8030  32.894   8.037   9.085
  209POPC   C1A 8031  33.447   8.347   8.854
  209POPC   D2A 8032  33.508   8.274   8.424
  209POPC   C3A 8033  33.282   8.517   8.123
  209POPC   C4A 8034  33.034   8.474   7.730
  209POPC   C1B 8035  33.185   7.926   8.741
  209POPC   C2B 8036  33.409   7.778   8.391
  209POPC   C3B 8037  33.256   7.969   8.053
  209POPC   C4B 8038  33.182   7.907   7.665
  210POPC   NC3 8039  39.980  37.175   9.473
  210POPC   PO4 8040  40.095  36.497   9.432
  210POPC   GL1 8041  39.870  36.636   9.048
  210POPC   GL2 8042  40.052  36.924   9.027
  210POPC   C1A 8043  39.748  36.816   8.635
  210POPC   D2A 8044  39.899  36.807   8.216
  210POPC   C3A 8045  39.845  36.636   7.806
  210POPC   C4A 8046  39.966  36.881   7.422
  210POPC   C1B 8047  40.231  36.671   8.663
  210POPC   C2B 8048  40.401  36.848   8.297
  210POPC   C3B 8049  40.286  36.923   7.870
  210POPC   C4B 8050  40.464  36.740   7.533
  211POPC   NC3 8051  10.043  36.499   9.490
  211POPC   PO4 8052  10.449  36.011   9.662
  211POPC   GL1 8053  10.467  36.002   9.182
  211POPC   GL2 8054  10.148  35.793   9.111
  211POPC   C1A 8055  10.739  36.059   8.759
  211POPC   D2A 8056  10.989  36.199   8.347
  211POPC   C3A 8057  10.845  36.173   7.895
  211POPC   C4A 8058  10.985  36.196   7.431
  211POPC   C1B 8059  10.174  36.076   8.769
  211POPC   C2B 8060  10.379  36.226   8.403
  211POPC   C3B 8061  10.325  36.107   7.990
  211POPC   C4B 8062  10.398  35.847   7.648
  212POPC   NC3 8063  37.073  27.855   9.830
  212POPC   PO4 8064  36.812  28.338   9.440
  212POPC   GL1 8065  36.888  28.255   9.052
  212POPC   GL2 8066  37.086  27.968   9.120
  212POPC   C1A 8067  36.872  28.440   8.660
  212POPC   D2A 8068  36.959  28.690   8.311
  212POPC   C3A 8069  36.744  28.512   7.980
  212POPC   C4A 8070  36.652  28.551   7.527
  212POPC   C1B 8071  37.253  28.095   8.717
  212POPC   C2B 8072  37.193  28.245   8.280
  212POPC   C3B 8073  37.174  27.920   7.970
  212POPC   C4B 8074  37.261  27.895   7.521
  213POPC   NC3 8075   5.766  39.809   9.566
  213POPC   PO4 8076   6.060  39.160   9.422
  213POPC   GL1 8077   5.819  39.343   9.117
  213POPC   GL2 8078   5.630  39.636   9.046
  213POPC   C1A 8079   5.743  39.180   8.728
  213POPC   D2A 8080   5.949  39.264   8.371
  213POPC   C3A 8081   5.789  39.018   8.030
  213POPC   C4A 8082   5.989  38.692   7.789
  213POPC   C1B 8083   5.803  39.711   8.603
  213POPC   C2B 8084   5.811  39.715   8.131
  213POPC   C3B 8085   5.822  39.488   7.734
  213POPC   C4B 8086   5.533  39.412   7.347
  214POPC   NC3 8087  33.349  11.162   9.275
  214POPC   PO4 8088  33.886  10.920   9.644
  214POPC   GL1 8089  33.886  11.248   9.247
  214POPC   GL2 8090  33.666  11.366   8.941
  214POPC   C1A 8091  34.125  11.573   8.981
  214POPC   D2A 8092  34.255  11.660   8.543
  214POPC   C3A 8093  33.945  11.527   8.179
  214POPC   C4A 8094  33.953  11.318   7.752
  214POPC   C1B 8095  33.974  11.220   8.607
  214POPC   C2B 8096  33.989  11.000   8.188
  214POPC   C3B 8097  33.672  10.907   7.863
  214POPC   C4B 8098  33.483  10.987   7.432
  215POPC   NC3 8099   5.909  31.861   9.463
  215POPC   PO4 8100   6.177  31.303   9.827
  215POPC   GL1 8101   6.040  31.383   9.367
  215POPC   GL2 8102   6.267  31.591   9.160
  215POPC   C1A 8103   5.803  31.468   8.935
  215POPC   D2A 8104   5.898  31.295   8.469
  215POPC   C3A 8105   5.865  31.405   8.012
  215POPC   C4A 8106   5.844  31.499   7.566
  215POPC   C1B 8107   6.181  31.669   8.679
  215POPC   C2B 8108   6.215  31.752   8.231
  215POPC   C3B 8109   6.322  31.552   7.833
  215POPC   C4B 8110   6.337  31.557   7.381
  216POPC   NC3 8111  20.435  27.786   9.585
  216POPC   PO4 8112  20.840  27.226   9.600
  216POPC   GL1 8113  20.667  27.302   9.149
  216POPC   GL2 8114  20.314  27.431   9.163
  216POPC   C1A 8115  20.531  27.476   8.679
  216POPC   D2A 8116  20.808  27.730   8.355
  216POPC   C3A 8117  20.732  27.630   7.916
  216POPC   C4A 8118  20.594  27.218   7.796
  216POPC   C1B 8119  20.335  27.870   8.940
  216POPC   C2B 8120  20.392  27.986   8.506
  216POPC   C3B 8121  20.332  27.943   8.064
  216POPC   C4B 8122  20.339  27.831   7.634
  217POPC   NC3 8123   5.425  34.254   9.559
  217POPC   PO4 8124   5.998  34.459   9.591
  217POPC   GL1 8125   5.928  34.505   9.189
  217POPC   GL2 8126   5.698  34.784   9.207
  217POPC   C1A 8127   6.151  34.476   8.808
  217POPC   D2A 8128   6.354  34.495   8.427
  217POPC   C3A 8129   6.133  34.575   8.024
  217POPC   C4A 8130   6.149  34.523   7.570
  217POPC   C1B 8131   5.676  34.607   8.763
  217POPC   C2B 8132   5.807  34.433   8.403
  217POPC   C3B 8133   5.622  34.609   8.031
  217POPC   C4B 8134   5.642  34.491   7.638
  218POPC   NC3 8135  41.238  41.914   9.320
  218POPC   PO4 8136  41.931  41.701   9.437
  218POPC   GL1 8137  41.666  41.617   9.083
  218POPC   GL2 8138  41.970  41.662   8.927
  218POPC   C1A 8139  41.347  41.490   8.738
  218POPC   D2A 8140  41.429  41.253   8.356
  218POPC   C3A 8141  41.286  41.342   7.956
  218POPC   C4A 8142  41.548  41.530   7.644
  218POPC   C1B 8143  41.732  41.787   8.581
  218POPC   C2B 8144  41.688  41.713   8.145
  218POPC   C3B 8145  41.720  42.011   7.802
  218POPC   C4B 8146  41.819  41.901   7.356
  219POPC   NC3 8147   9.825  32.659   9.734
  219POPC   PO4 8148  10.101  32.092   9.542
  219POPC   GL1 8149  10.007  32.243   9.154
  219POPC   GL2 8150   9.831  32.530   9.237
  219POPC   C1A 8151   9.817  32.123   8.766
  219POPC   D2A 8152   9.597  32.154   8.365
  219POPC   C3A 8153   9.782  32.233   7.965
  219POPC   C4A 8154   9.619  32.018   7.593
  219POPC   C1B 8155   9.504  32.597   8.954
  219POPC   C2B 8156   9.472  32.605   8.529
  219POPC   C3B 8157   9.443  32.620   8.074
  219POPC   C4B 8158   9.282  32.882   7.746
  220POPC   NC3 8159  29.642   7.366   9.501
  220POPC   PO4 8160  30.217   7.764   9.419
  220POPC   GL1 8161  29.871   7.639   9.135
  220POPC   GL2 8162  29.950   7.308   9.103
  220POPC   C1A 8163  29.698   7.542   8.700
  220POPC   D2A 8164  29.897   7.698   8.267
  220POPC   C3A 8165  29.778   7.519   7.840
  220POPC   C4A 8166  29.861   7.555   7.397
  220POPC   C1B 8167  30.115   7.254   8.727
  220POPC   C2B 8168  29.933   7.205   8.361
  220POPC   C3B 8169  30.173   7.276   8.022
  220POPC   C4B 8170  30.131   7.147   7.614
  221POPC   NC3 8171  43.693   9.809   9.586
  221POPC   PO4 8172  44.302  10.181   9.568
  221POPC   GL1 8173  44.013   9.977   9.224
  221POPC   GL2 8174  44.029   9.604   9.241
  221POPC   C1A 8175  43.776   9.955   8.812
  221POPC   D2A 8176  43.729   9.825   8.362
  221POPC   C3A 8177  43.853  10.005   7.953
  221POPC   C4A 8178  44.213   9.843   7.722
  221POPC   C1B 8179  43.777   9.445   8.885
  221POPC   C2B 8180  43.824   9.336   8.436
  221POPC   C3B 8181  43.942   9.489   8.012
  221POPC   C4B 8182  43.785   9.596   7.591
  222POPC   NC3 8183   3.548  17.802   9.629
  222POPC   PO4 8184   3.819  17.256   9.376
  222POPC   GL1 8185   3.477  17.526   9.177
  222POPC   GL2 8186   3.263  17.276   9.061
  222POPC   C1A 8187   3.400  17.843   8.834
  222POPC   D2A 8188   3.619  17.835   8.406
  222POPC   C3A 8189   3.446  17.746   7.974
  222POPC   C4A 8190   3.632  17.673   7.547
  222POPC   C1B 8191   3.482  17.359   8.661
  222POPC   C2B 8192   3.410  17.296   8.220
  222POPC   C3B 8193   3.339  17.293   7.765
  222POPC   C4B 8194   3.592  17.181   7.405
  223POPC   NC3 8195  35.804  24.440   9.434
  223POPC   PO4 8196  36.379  24.730   9.557
  223POPC   GL1 8197  36.243  24.513   9.169
  223POPC   GL2 8198  36.356  24.186   9.071
  223POPC   C1A 8199  35.970  24.375   8.806
  223POPC   D2A 8200  35.712  24.547   8.498
  223POPC   C3A 8201  35.901  24.766   8.161
  223POPC   C4A 8202  35.755  24.741   7.745
  223POPC   C1B 8203  36.387  24.132   8.613
  223POPC   C2B 8204  36.225  24.398   8.318
  223POPC   C3B 8205  36.109  24.381   7.894
  223POPC   C4B 8206  36.173  24.065   7.581
  224POPC   NC3 8207   9.100  14.578   9.375
  224POPC   PO4 8208   8.760  13.955   9.484
  224POPC   GL1 8209   8.774  14.216   9.124
  224POPC   GL2 8210   8.594  14.522   9.155
  224POPC   C1A 8211   8.987  14.285   8.731
  224POPC   D2A 8212   8.942  14.091   8.310
  224POPC   C3A 8213   8.863  14.252   7.885
  224POPC   C4A 8214   8.792  14.422   7.431
  224POPC   C1B 8215   8.734  14.756   8.791
  224POPC   C2B 8216   8.888  14.636   8.378
  224POPC   C3B 8217   8.869  14.745   7.971
  224POPC   C4B 8218   8.649  15.029   7.744
  225POPC   NC3 8219   9.341  39.842   9.868
  225POPC   PO4 8220   9.618  40.230   9.402
  225POPC   GL1 8221   9.806  40.235   9.091
  225POPC   GL2 8222   9.833  39.871   9.065
  225POPC   C1A 8223   9.888  40.207   8.700
  225POPC   D2A 8224   9.745  40.092   8.319
  225POPC   C3A 8225   9.788  40.146   7.900
  225POPC   C4A 8226   9.490  39.885   7.660
  225POPC   C1B 8227   9.691  39.700   8.670
  225POPC   C2B 8228   9.901  39.620   8.258
  225POPC   C3B 8229   9.952  39.650   7.811
  225POPC   C4B 8230   9.776  39.526   7.421
  226POPC   NC3 8231  16.271  32.343   9.312
  226POPC   PO4 8232  15.678  32.200   9.524
  226POPC   GL1 8233  15.781  32.289   9.127
  226POPC   GL2 8234  15.828  32.625   9.191
  226POPC   C1A 8235  15.870  32.264   8.688
  226POPC   D2A 8236  16.049  32.101   8.331
  226POPC   C3A 8237  15.861  31.983   7.977
  226POPC   C4A 8238  16.196  32.070   7.709
  226POPC   C1B 8239  15.559  32.654   8.813
  226POPC   C2B 8240  15.703  32.655   8.375
  226POPC   C3B 8241  15.593  32.458   7.992
  226POPC   C4B 8242  15.351  32.552   7.629
  227POPC   NC3 8243   0.173  24.236   9.410
  227POPC   PO4 8244   0.565  24.659   9.745
  227POPC   GL1 8245   0.542  24.609   9.237
  227POPC   GL2 8246   0.571  24.271   9.060
  227POPC   C1A 8247   0.323  24.631   8.810
  227POPC   D2A 8248   0.446  24.500   8.380
  227POPC   C3A 8249   0.292  24.737   8.006
  227POPC   C4A 8250   0.601  24.807   7.689
  227POPC   C1B 8251   0.247  24.135   8.709
  227POPC   C2B 8252   0.241  23.951   8.275
  227POPC   C3B 8253   0.303  24.238   7.915
  227POPC   C4B 8254   0.312  24.438   7.493
  228POPC   NC3 8255  24.381   5.554  10.016
  228POPC   PO4 8256  24.414   6.029   9.519
  228POPC   GL1 8257  24.280   5.834   9.130
  228POPC   GL2 8258  24.559   5.872   8.890
  228POPC   C1A 8259  24.088   5.727   8.758
  228POPC   D2A 8260  24.242   5.550   8.390
  228POPC   C3A 8261  24.417   5.832   8.091
  228POPC   C4A 8262  24.474   5.649   7.715
  228POPC   C1B 8263  24.726   6.274   8.728
  228POPC   C2B 8264  24.795   6.436   8.315
  228POPC   C3B 8265  24.910   6.184   8.012
  228POPC   C4B 8266  24.760   6.072   7.649
  229POPC   NC3 8267  30.326  43.653   9.572
  229POPC   PO4 8268  30.920  43.929   9.625
  229POPC   GL1 8269  30.555  43.966   9.243
  229POPC   GL2 8270  30.339  43.686   9.081
  229POPC   C1A 8271  30.443  44.074   8.798
  229POPC   D2A 8272  30.659  43.962   8.432
  229POPC   C3A 8273  30.453  43.893   8.031
  229POPC   C4A 8274  30.619  43.960   7.624
  229POPC   C1B 8275  30.593  43.547   8.719
  229POPC   C2B 8276  30.692  43.495   8.257
  229POPC   C3B 8277  30.732  43.504   7.823
  229POPC   C4B 8278  30.581  43.247   7.507
  230POPC   NC3 8279   6.010  23.940   9.541
  230POPC   PO4 8280   5.489  23.805   9.370
  230POPC   GL1 8281   5.855  23.710   9.094
  230POPC   GL2 8282   5.857  24.048   9.027
  230POPC   C1A 8283   6.083  23.584   8.700
  230POPC   D2A 8284   6.068  23.723   8.251
  230POPC   C3A 8285   6.084  23.431   7.890
  230POPC   C4A 8286   6.007  23.372   7.419
  230POPC   C1B 8287   5.727  23.944   8.592
  230POPC   C2B 8288   5.844  24.170   8.199
  230POPC   C3B 8289   5.720  24.146   7.760
  230POPC   C4B 8290   5.318  24.056   7.527
  231POPC   NC3 8291  41.569   8.753   9.426
  231POPC   PO4 8292  41.506   9.457   9.384
  231POPC   GL1 8293  41.401   9.134   9.125
  231POPC   GL2 8294  41.724   8.987   8.995
  231POPC   C1A 8295  41.238   8.989   8.763
  231POPC   D2A 8296  41.428   8.876   8.369
  231POPC   C3A 8297  41.288   8.940   7.953
  231POPC   C4A 8298  41.330   9.029   7.513
  231POPC   C1B 8299  41.646   8.616   8.765
  231POPC   C2B 8300  41.674   8.405   8.383
  231POPC   C3B 8301  41.681   8.608   8.002
  231POPC   C4B 8302  41.796   8.903   7.681
  232POPC   NC3 8303  44.073  17.587   9.767
  232POPC   PO4 8304  43.493  17.440   9.792
  232POPC   GL1 8305  43.789  17.546   9.342
  232POPC   GL2 8306  44.136  17.476   9.202
  232POPC   C1A 8307  43.772  17.494   8.854
  232POPC   D2A 8308  44.009  17.387   8.495
  232POPC   C3A 8309  43.943  17.504   8.051
  232POPC   C4A 8310  43.688  17.284   7.735
  232POPC   C1B 8311  44.275  17.684   8.828
  232POPC   C2B 8312  44.253  17.812   8.383
  232POPC   C3B 8313  44.324  17.920   7.961
  232POPC   C4B 8314  44.238  17.879   7.523
  233POPC   NC3 8315  28.246  19.161   9.420
  233POPC   PO4 8316  28.548  18.576   9.399
  233POPC   GL1 8317  28.578  18.832   9.035
  233POPC   GL2 8318  28.496  19.188   8.983
  233POPC   C1A 8319  28.491  18.907   8.590
  233POPC   D2A 8320  28.292  18.885   8.231
  233POPC   C3A 8321  28.570  19.079   7.969
  233POPC   C4A 8322  28.507  19.352   7.636
  233POPC   C1B 8323  28.132  19.328   8.768
  233POPC   C2B 8324  28.095  19.577   8.375
  233POPC   C3B 8325  28.061  19.378   7.976
  233POPC   C4B 8326  27.691  19.203   7.785
  234POPC   NC3 8327   6.896  23.480   9.599
  234POPC   PO4 8328   6.432  23.903   9.688
  234POPC   GL1 8329   6.481  23.680   9.288
  234POPC   GL2 8330   6.346  23.912   9.070
  234POPC   C1A 8331   6.591  23.509   8.846
  234POPC   D2A 8332   6.534  23.608   8.399
  234POPC   C3A 8333   6.756  23.418   8.033
  234POPC   C4A 8334   7.010  23.530   7.670
  234POPC   C1B 8335   6.222  24.071   8.663
  234POPC   C2B 8336   6.409  24.106   8.274
  234POPC   C3B 8337   6.436  23.838   7.923
  234POPC   C4B 8338   6.127  23.848   7.596
  235POPC   NC3 8339  29.823   2.898   9.537
  235POPC   PO4 8340  29.663   2.281   9.391
  235POPC   GL1 8341  29.994   2.608   9.123
  235POPC   GL2 8342  29.924   2.998   9.076
  235POPC   C1A 8343  30.181   2.799   8.704
  235POPC   D2A 8344  30.259   2.871   8.278
  235POPC   C3A 8345  29.947   2.610   8.098
  235POPC   C4A 8346  29.953   2.461   7.709
  235POPC   C1B 8347  29.750   3.180   8.756
  235POPC   C2B 8348  29.755   3.043   8.340
  235POPC   C3B 8349  29.922   3.098   7.931
  235POPC   C4B 8350  29.726   3.161   7.543
  236POPC   NC3 8351  27.093   1.353   9.439
  236POPC   PO4 8352  26.426   1.401   9.450
  236POPC   GL1 8353  26.701   1.370   9.104
  236POPC   GL2 8354  26.817   1.094   9.073
  236POPC   C1A 8355  26.979   1.410   8.693
  236POPC   D2A 8356  27.151   1.539   8.273
  236POPC   C3A 8357  26.824   1.618   7.962
  236POPC   C4A 8358  26.761   1.510   7.529
  236POPC   C1B 8359  26.929   0.880   8.711
  236POPC   C2B 8360  26.758   0.942   8.290
  236POPC   C3B 8361  26.941   1.121   7.920
  236POPC   C4B 8362  27.153   1.000   7.538
  237POPC   NC3 8363  11.455  35.470   9.488
  237POPC   PO4 8364  10.876  35.672   9.356
  237POPC   GL1 8365  11.107  35.388   9.134
  237POPC   GL2 8366  10.866  35.133   9.155
  237POPC   C1A 8367  11.420  35.447   8.799
  237POPC   D2A 8368  11.570  35.617   8.375
  237POPC   C3A 8369  11.492  35.436   7.947
  237POPC   C4A 8370  11.215  35.336   7.562
  237POPC   C1B 8371  11.038  35.077   8.746
  237POPC   C2B 8372  11.204  35.243   8.387
  237POPC   C3B 8373  11.025  35.246   8.017
  237POPC   C4B 8374  10.919  34.973   7.716
  238POPC   NC3 8375  10.706  44.149   9.740
  238POPC   PO4 8376  10.609  43.451   9.729
  238POPC   GL1 8377  10.541  43.741   9.348
  238POPC   GL2 8378  10.183  43.854   9.335
  238POPC   C1A 8379  10.551  43.866   8.890
  238POPC   D2A 8380  10.462  44.078   8.504
  238POPC   C3A 8381  10.723  43.962   8.172
  238POPC   C4A 8382  10.575  43.965   7.759
  238POPC   C1B 8383  10.062  43.916   8.897
  238POPC   C2B 8384  10.119  43.711   8.517
  238POPC   C3B 8385  10.264  43.719   8.111
  238POPC   C4B 8386  10.119  43.743   7.707
  239POPC   NC3 8387  22.807  28.438   9.645
  239POPC   PO4 8388  23.383  28.458   9.449
  239POPC   GL1 8389  23.160  28.319   9.106
  239POPC   GL2 8390  22.802  28.475   9.146
  239POPC   C1A 8391  23.318  28.312   8.674
  239POPC   D2A 8392  23.252  28.613   8.348
  239POPC   C3A 8393  23.160  28.419   7.999
  239POPC   C4A 8394  23.045  28.349   7.607
  239POPC   C1B 8395  22.890  28.593   8.738
  239POPC   C2B 8396  22.828  28.318   8.395
  239POPC   C3B 8397  22.649  28.402   8.009
  239POPC   C4B 8398  22.554  28.425   7.609
  240POPC   NC3 8399  16.480   2.280   9.439
  240POPC   PO4 8400  16.778   1.633   9.501
  240POPC   GL1 8401  16.484   1.830   9.199
  240POPC   GL2 8402  16.799   2.008   9.153
  240POPC   C1A 8403  16.338   2.026   8.782
  240POPC   D2A 8404  16.539   2.246   8.408
  240POPC   C3A 8405  16.479   2.076   7.987
  240POPC   C4A 8406  16.789   2.089   7.672
  240POPC   C1B 8407  16.821   2.232   8.828
  240POPC   C2B 8408  17.044   2.326   8.512
  240POPC   C3B 8409  16.968   2.290   8.106
  240POPC   C4B 8410  17.249   2.360   7.788
  241POPC   NC3 8411  41.713  33.252   9.511
  241POPC   PO4 8412  41.386  32.716   9.344
  241POPC   GL1 8413  41.678  32.785   9.036
  241POPC   GL2 8414  41.635  33.146   9.013
  241POPC   C1A 8415  41.802  32.698   8.610
  241POPC   D2A 8416  41.872  33.034   8.315
  241POPC   C3A 8417  41.806  32.932   7.891
  241POPC   C4A 8418  41.451  32.738   7.745
  241POPC   C1B 8419  41.420  33.066   8.624
  241POPC   C2B 8420  41.358  33.059   8.183
  241POPC   C3B 8421  41.394  33.227   7.800
  241POPC   C4B 8422  41.288  33.292   7.403
  242POPC   NC3 8423  14.570  12.349   9.317
  242POPC   PO4 8424  14.131  12.865   9.446
  242POPC   GL1 8425  14.283  12.951   9.082
  242POPC   GL2 8426  14.182  12.629   8.974
  242POPC   C1A 8427  14.461  12.921   8.682
  242POPC   D2A 8428  14.378  12.766   8.253
  242POPC   C3A 8429  14.569  12.903   7.852
  242POPC   C4A 8430  14.640  12.753   7.411
  242POPC   C1B 8431  13.902  12.849   8.698
  242POPC   C2B 8432  13.868  12.914   8.252
  242POPC   C3B 8433  14.034  12.781   7.873
  242POPC   C4B 8434  14.191  13.001   7.545
  243POPC   NC3 8435  14.234   9.594   9.505
  243POPC   PO4 8436  14.431  10.095   9.693
  243POPC   GL1 8437  14.396   9.891   9.163
  243POPC   GL2 8438  14.072   9.746   9.051
  243POPC   C1A 8439  14.550   9.749   8.792
  243POPC   D2A 8440  14.794   9.646   8.448
  243POPC   C3A 8441  14.521   9.625   8.111
  243POPC   C4A 8442  14.554   9.358   7.818
  243POPC   C1B 8443  14.083   9.962   8.658
  243POPC   C2B 8444  14.087   9.878   8.207
  243POPC   C3B 8445  14.115   9.693   7.782
  243POPC   C4B 8446  14.222   9.891   7.394
  244POPC   NC3 8447  41.307  43.540   9.545
  244POPC   PO4 8448  41.508  44.189   9.593
  244POPC   GL1 8449  41.337  43.985   9.251
  244POPC   GL2 8450  41.590  43.769   9.140
  244POPC   C1A 8451  41.260  44.027   8.812
  244POPC   D2A 8452  41.489  43.828   8.486
  244POPC   C3A 8453  41.696  44.096   8.190
  244POPC   C4A 8454  41.627  44.028   7.769
  244POPC   C1B 8455  41.282  43.532   8.869
  244POPC   C2B 8456  41.198  43.379   8.437
  244POPC   C3B 8457  41.281  43.524   7.998
  244POPC   C4B 8458  41.450  43.594   7.562
  245POPC   NC3 8459  44.906  31.476   9.502
  245POPC   PO4 8460  44.213  31.292   9.527
  245POPC   GL1 8461  44.495  31.415   9.178
  245POPC   GL2 8462  44.518  31.777   9.080
  245POPC   C1A 8463  44.824  31.331   8.862
  245POPC   D2A 8464  44.733  31.156   8.459
  245POPC   C3A 8465  44.872  31.284   8.060
  245POPC   C4A 8466  44.667  31.381   7.682
  245POPC   C1B 8467  44.511  31.662   8.635
  245POPC   C2B 8468  44.335  31.758   8.237
  245POPC   C3B 8469  44.254  31.620   7.833
  245POPC   C4B 8470  44.251  31.760   7.392
  246POPC   NC3 8471  24.266  29.957   9.400
  246POPC   PO4 8472  24.759  30.385   9.363
  246POPC   GL1 8473  24.522  30.209   9.058
  246POPC   GL2 8474  24.231  30.358   9.034
  246POPC   C1A 8475  24.252  29.899   8.770
  246POPC   D2A 8476  24.013  29.923   8.373
  246POPC   C3A 8477  24.167  29.702   8.040
  246POPC   C4A 8478  24.350  29.524   7.642
  246POPC   C1B 8479  24.355  30.362   8.610
  246POPC   C2B 8480  24.156  30.407   8.277
  246POPC   C3B 8481  24.416  30.297   7.967
  246POPC   C4B 8482  24.338  30.020   7.697
  247POPC   NC3 8483   0.334  26.869   9.513
  247POPC   PO4 8484   0.743  26.273   9.615
  247POPC   GL1 8485   0.700  26.417   9.159
  247POPC   GL2 8486   0.594  26.779   9.096
  247POPC   C1A 8487   0.701  26.538   8.687
  247POPC   D2A 8488   0.408  26.678   8.391
  247POPC   C3A 8489   0.540  26.635   7.965
  247POPC   C4A 8490   0.361  26.789   7.570
  247POPC   C1B 8491   0.662  27.066   8.750
  247POPC   C2B 8492   0.777  27.037   8.332
  247POPC   C3B 8493   0.821  27.120   7.905
  247POPC   C4B 8494   0.794  27.103   7.492
  248POPC   NC3 8495  31.066  32.612   9.282
  248POPC   PO4 8496  30.654  33.099   9.535
  248POPC   GL1 8497  30.626  33.194   9.120
  248POPC   GL2 8498  30.595  32.851   9.050
  248POPC   C1A 8499  30.551  33.289   8.706
  248POPC   D2A 8500  30.674  33.119   8.355
  248POPC   C3A 8501  30.419  33.201   8.055
  248POPC   C4A 8502  30.616  33.093   7.688
  248POPC   C1B 8503  30.933  32.935   8.746
  248POPC   C2B 8504  31.065  32.771   8.353
  248POPC   C3B 8505  30.964  32.799   7.932
  248POPC   C4B 8506  30.638  32.597   7.706
  249POPC   NC3 8507  14.050   1.232   9.619
  249POPC   PO4 8508  13.567   1.558   9.374
  249POPC   GL1 8509  13.626   1.303   9.046
  249POPC   GL2 8510  13.449   1.002   9.217
  249POPC   C1A 8511  13.540   1.371   8.589
  249POPC   D2A 8512  13.433   1.072   8.267
  249POPC   C3A 8513  13.647   1.216   7.913
  249POPC   C4A 8514  14.079   1.123   7.846
  249POPC   C1B 8515  13.320   0.969   8.788
  249POPC   C2B 8516  13.089   0.740   8.502
  249POPC   C3B 8517  13.128   0.582   8.147
  249POPC   C4B 8518  13.291   0.836   7.825
  250POPC   NC3 8519  18.752  36.399   9.437
  250POPC   PO4 8520  19.347  36.132   9.578
  250POPC   GL1 8521  19.174  36.184   9.208
  250POPC   GL2 8522  19.252  36.517   9.229
  250POPC   C1A 8523  19.055  36.025   8.800
  250POPC   D2A 8524  18.849  36.181   8.451
  250POPC   C3A 8525  18.852  35.947   8.078
  250POPC   C4A 8526  19.040  36.066   7.713
  250POPC   C1B 8527  19.054  36.538   8.837
  250POPC   C2B 8528  19.205  36.592   8.442
  250POPC   C3B 8529  19.109  36.429   8.067
  250POPC   C4B 8530  19.309  36.512   7.701
  251POPC   NC3 8531   9.413   1.696   9.549
  251POPC   PO4 8532   9.889   2.185   9.419
  251POPC   GL1 8533   9.743   1.958   9.137
  251POPC   GL2 8534  10.084   1.786   9.116
  251POPC   C1A 8535   9.763   2.174   8.739
  251POPC   D2A 8536   9.995   2.073   8.348
  251POPC   C3A 8537   9.792   2.218   7.940
  251POPC   C4A 8538   9.638   2.065   7.490
  251POPC   C1B 8539   9.851   1.688   8.721
  251POPC   C2B 8540   9.713   1.649   8.302
  251POPC   C3B 8541   9.929   1.722   7.926
  251POPC   C4B 8542   9.821   1.582   7.534
  252POPC   NC3 8543  33.394   1.291   9.409
  252POPC   PO4 8544  33.989   1.068   9.451
  252POPC   GL1 8545  34.187   1.050   9.074
  252POPC   GL2 8546  34.059   1.418   9.090
  252POPC   C1A 8547  34.171   1.111   8.657
  252POPC   D2A 8548  33.841   1.081   8.390
  252POPC   C3A 8549  33.804   1.229   8.003
  252POPC   C4A 8550  33.951   0.933   7.721
  252POPC   C1B 8551  33.728   1.339   8.829
  252POPC   C2B 8552  33.574   1.536   8.492
  252POPC   C3B 8553  33.442   1.621   8.115
  252POPC   C4B 8554  33.629   1.625   7.734
  253POPC   NC3 8555   9.502  34.109   9.551
  253POPC   PO4 8556  10.038  33.679   9.494
  253POPC   GL1 8557   9.842  33.935   9.198
  253POPC   GL2 8558   9.557  33.761   9.155
  253POPC   C1A 8559   9.924  33.883   8.770
  253POPC   D2A 8560   9.768  33.517   8.538
  253POPC   C3A 8561   9.778  33.556   8.086
  253POPC   C4A 8562   9.860  33.965   7.902
  253POPC   C1B 8563   9.440  33.857   8.752
  253POPC   C2B 8564   9.531  33.940   8.320
  253POPC   C3B 8565   9.371  33.834   7.874
  253POPC   C4B 8566   9.495  34.012   7.444
  254POPC   NC3 8567   0.111   5.601   9.422
  254POPC   PO4 8568   0.353   6.197   9.476
  254POPC   GL1 8569   0.603   5.990   9.130
  254POPC   GL2 8570   0.526   5.637   9.102
  254POPC   C1A 8571   0.709   5.856   8.686
  254POPC   D2A 8572   0.657   5.834   8.255
  254POPC   C3A 8573   0.345   6.112   8.105
  254POPC   C4A 8574   0.445   6.177   7.691
  254POPC   C1B 8575   0.236   5.639   8.762
  254POPC   C2B 8576   0.131   5.702   8.342
  254POPC   C3B 8577   0.315   5.644   7.924
  254POPC   C4B 8578   0.126   5.750   7.537
  255POPC   NC3 8579  33.772  16.591   9.472
  255POPC   PO4 8580  34.445  16.707   9.608
  255POPC   GL1 8581  34.130  16.743   9.141
  255POPC   GL2 8582  33.785  16.980   9.158
  255POPC   C1A 8583  33.845  16.664   8.758
  255POPC   D2A 8584  33.517  16.678   8.424
  255POPC   C3A 8585  33.675  16.670   7.979
  255POPC   C4A 8586  33.744  16.313   7.687
  255POPC   C1B 8587  33.846  17.186   8.779
  255POPC   C2B 8588  33.865  17.052   8.368
  255POPC   C3B 8589  33.981  17.117   7.947
  255POPC   C4B 8590  33.722  17.104   7.588
  256POPC   NC3 8591  38.385  25.415   9.814
  256POPC   PO4 8592  38.707  25.119   9.284
  256POPC   GL1 8593  38.356  25.369   9.173
  256POPC   GL2 8594  38.072  25.194   9.091
  256POPC   C1A 8595  38.309  25.525   8.749
  256POPC   D2A 8596  38.282  25.451   8.322
  256POPC   C3A 8597  38.578  25.345   8.015
  256POPC   C4A 8598  38.639  25.624   7.723
  256POPC   C1B 8599  38.326  25.001   8.780
  256POPC   C2B 8600  38.510  25.025   8.417
  256POPC   C3B 8601  38.238  24.972   8.081
  256POPC   C4B 8602  38.050  25.022   7.671
  257POPC   NC3 8603  15.940  36.840   9.376
  257POPC   PO4 8604  15.802  37.422   9.123
  257POPC   GL1 8605  15.687  37.024   8.957
  257POPC   GL2 8606  15.935  36.709   8.890
  257POPC   C1A 8607  15.721  36.991   8.522
  257POPC   D2A 8608  16.062  36.749   8.275
  257POPC   C3A 8609  15.910  36.585   7.880
  257POPC   C4A 8610  15.985  36.812   7.530
  257POPC   C1B 8611  16.167  37.061   8.717
  257POPC   C2B 8612  16.119  37.240   8.293
  257POPC   C3B 8613  16.197  37.151   7.845
  257POPC   C4B 8614  16.193  37.242   7.354
  258POPC   NC3 8615   9.827  26.383   9.380
  258POPC   PO4 8616   9.427  25.979   9.785
  258POPC   GL1 8617   9.610  25.938   9.273
  258POPC   GL2 8618   9.979  25.932   9.156
  258POPC   C1A 8619   9.671  26.178   8.796
  258POPC   D2A 8620   9.964  26.195   8.404
  258POPC   C3A 8621   9.832  26.303   7.964
  258POPC   C4A 8622   9.894  26.120   7.534
  258POPC   C1B 8623   9.768  25.695   8.816
  258POPC   C2B 8624   9.676  25.768   8.395
  258POPC   C3B 8625   9.748  25.811   7.953
  258POPC   C4B 8626   9.456  25.641   7.681
  259POPC   NC3 8627  42.877  43.732   9.605
  259POPC   PO4 8628  43.020  44.313   9.400
  259POPC   GL1 8629  43.125  43.964   9.179
  259POPC   GL2 8630  42.905  43.744   9.024
  259POPC   C1A 8631  43.295  43.947   8.759
  259POPC   D2A 8632  43.112  43.849   8.337
  259POPC   C3A 8633  43.301  43.901   7.902
  259POPC   C4A 8634  43.273  44.144   7.497
  259POPC   C1B 8635  43.035  43.451   8.677
  259POPC   C2B 8636  42.947  43.359   8.228
  259POPC   C3B 8637  42.809  43.710   7.952
  259POPC   C4B 8638  42.892  43.833   7.537
  260POPC   NC3 8639  18.352  44.227   9.545
  260POPC   PO4 8640  18.029  43.693   9.517
  260POPC   GL1 8641  18.277  43.862   9.179
  260POPC   GL2 8642  18.111  44.160   9.071
  260POPC   C1A 8643  18.557  44.035   8.836
  260POPC   D2A 8644  18.453  44.136   8.387
  260POPC   C3A 8645  18.525  43.918   7.971
  260POPC   C4A 8646  18.507  43.754   7.519
  260POPC   C1B 8647  18.113  43.839   8.689
  260POPC   C2B 8648  18.040  43.861   8.230
  260POPC   C3B 8649  18.063  43.941   7.779
  260POPC   C4B 8650  17.943  44.306   7.542
  261POPC   NC3 8651  39.559  19.870   9.434
  261POPC   PO4 8652  38.988  19.405   9.518
  261POPC   GL1 8653  39.153  19.612   9.140
  261POPC   GL2 8654  39.109  19.967   9.116
  261POPC   C1A 8655  39.294  19.707   8.695
  261POPC   D2A 8656  39.199  19.616   8.244
  261POPC   C3A 8657  39.312  19.669   7.786
  261POPC   C4A 8658  39.489  19.469   7.374
  261POPC   C1B 8659  39.235  20.228   8.738
  261POPC   C2B 8660  39.396  20.278   8.327
  261POPC   C3B 8661  39.308  20.288   7.887
  261POPC   C4B 8662  39.046  20.083   7.658
  262POPC   NC3 8663   8.597   7.464   9.448
  262POPC   PO4 8664   8.923   6.916   9.570
  262POPC   GL1 8665   8.942   7.189   9.174
  262POPC   GL2 8666   9.256   7.361   9.088
  262POPC   C1A 8667   8.666   7.122   8.789
  262POPC   D2A 8668   8.558   7.253   8.338
  262POPC   C3A 8669   8.844   7.416   8.041
  262POPC   C4A 8670   9.140   7.116   7.876
  262POPC   C1B 8671   9.115   7.376   8.669
  262POPC   C2B 8672   9.341   7.444   8.286
  262POPC   C3B 8673   9.309   7.608   7.851
  262POPC   C4B 8674   9.355   7.710   7.413
  263POPC   NC3 8675  43.165  41.920   9.536
  263POPC   PO4 8676  43.063  42.489   9.351
  263POPC   GL1 8677  43.300  42.341   9.076
  263POPC   GL2 8678  43.106  42.068   9.005
  263POPC   C1A 8679  43.311  42.493   8.674
  263POPC   D2A 8680  43.090  42.341   8.325
  263POPC   C3A 8681  43.263  42.446   7.921
  263POPC   C4A 8682  43.393  42.305   7.539
  263POPC   C1B 8683  42.803  42.362   8.766
  263POPC   C2B 8684  42.712  42.660   8.412
  263POPC   C3B 8685  42.771  42.563   7.978
  263POPC   C4B 8686  42.882  42.273   7.596
  264POPC   NC3 8687  21.700   0.255   9.500
  264POPC   PO4 8688  22.039   0.890   9.531
  264POPC   GL1 8689  21.908   0.681   9.150
  264POPC   GL2 8690  21.946   0.308   9.053
  264POPC   C1A 8691  22.104   0.703   8.764
  264POPC   D2A 8692  22.045   0.496   8.363
  264POPC   C3A 8693  22.063   0.738   7.968
  264POPC   C4A 8694  22.037   0.412   7.670
  264POPC   C1B 8695  22.293   0.179   8.772
  264POPC   C2B 8696  22.458   0.204   8.350
  264POPC   C3B 8697  22.434   0.155   7.955
  264POPC   C4B 8698  22.380  44.748   7.889
  265POPC   NC3 8699  32.297  13.091   9.510
  265POPC   PO4 8700  32.344  12.416   9.387
  265POPC   GL1 8701  32.277  12.780   9.093
  265POPC   GL2 8702  31.977  12.964   9.124
  265POPC   C1A 8703  32.291  12.983   8.696
  265POPC   D2A 8704  32.114  12.952   8.283
  265POPC   C3A 8705  32.353  12.927   7.916
  265POPC   C4A 8706  32.725  12.682   7.807
  265POPC   C1B 8707  31.844  13.239   8.790
  265POPC   C2B 8708  31.821  13.391   8.376
  265POPC   C3B 8709  31.981  13.348   7.972
  265POPC   C4B 8710  31.859  12.977   7.728
  266POPC   NC3 8711  23.936   0.318   9.508
  266POPC   PO4 8712  24.397   0.788   9.502
  266POPC   GL1 8713  24.312   0.479   9.151
  266POPC   GL2 8714  24.600   0.242   9.144
  266POPC   C1A 8715  24.332   0.291   8.704
  266POPC   D2A 8716  24.701   0.282   8.394
  266POPC   C3A 8717  24.512   0.294   7.988
  266POPC   C4A 8718  24.340   0.616   7.758
  266POPC   C1B 8719  24.725   0.569   8.828
  266POPC   C2B 8720  24.556   0.774   8.506
  266POPC   C3B 8721  24.722   0.750   8.134
  266POPC   C4B 8722  24.901   0.551   7.813
  267POPC   NC3 8723   0.922   4.140   9.482
  267POPC   PO4 8724   1.332   4.568   9.338
  267POPC   GL1 8725   1.480   4.247   9.072
  267POPC   GL2 8726   1.129   4.182   8.994
  267POPC   C1A 8727   1.496   4.222   8.623
  267POPC   D2A 8728   1.112   4.176   8.353
  267POPC   C3A 8729   1.154   3.975   7.927
  267POPC   C4A 8730   1.378   4.140   7.563
  267POPC   C1B 8731   1.144   4.575   8.717
  267POPC   C2B 8732   1.261   4.685   8.300
  267POPC   C3B 8733   1.210   4.481   7.926
  267POPC   C4B 8734   1.036   4.568   7.534
  268POPC   NC3 8735   2.805   7.278   9.547
  268POPC   PO4 8736   2.423   7.807   9.525
  268POPC   GL1 8737   2.533   7.536   9.159
  268POPC   GL2 8738   2.441   7.187   9.170
  268POPC   C1A 8739   2.643   7.441   8.718
  268POPC   D2A 8740   2.994   7.570   8.454
  268POPC   C3A 8741   2.824   7.742   8.083
  268POPC   C4A 8742   3.011   7.532   7.743
  268POPC   C1B 8743   2.297   7.025   8.779
  268POPC   C2B 8744   2.447   6.999   8.352
  268POPC   C3B 8745   2.762   7.218   8.121
  268POPC   C4B 8746   2.692   7.176   7.675
  269POPC   NC3 8747  34.405   9.723   9.507
  269POPC   PO4 8748  35.053   9.555   9.592
  269POPC   GL1 8749  34.923   9.752   9.157
  269POPC   GL2 8750  34.562   9.713   9.029
  269POPC   C1A 8751  34.854   9.997   8.748
  269POPC   D2A 8752  34.840  10.091   8.282
  269POPC   C3A 8753  34.767   9.732   7.983
  269POPC   C4A 8754  34.547   9.601   7.590
  269POPC   C1B 8755  34.324   9.898   8.682
  269POPC   C2B 8756  34.298   9.899   8.213
  269POPC   C3B 8757  34.103   9.710   7.837
  269POPC   C4B 8758  34.086   9.371   7.491
  270POPC   NC3 8759  15.019   0.990   9.619
  270POPC   PO4 8760  14.777   1.547   9.420
  270POPC   GL1 8761  14.863   1.272   9.156
  270POPC   GL2 8762  15.239   1.263   9.184
  270POPC   C1A 8763  14.902   1.269   8.734
  270POPC   D2A 8764  15.234   1.448   8.534
  270POPC   C3A 8765  15.287   1.378   8.106
  270POPC   C4A 8766  15.293   1.508   7.691
  270POPC   C1B 8767  15.314   0.987   8.819
  270POPC   C2B 8768  15.137   0.918   8.393
  270POPC   C3B 8769  15.308   0.845   7.978
  270POPC   C4B 8770  15.545   1.071   7.660
  271POPC   NC3 8771  39.011   8.361   9.519
  271POPC   PO4 8772  39.408   7.840   9.294
  271POPC   GL1 8773  39.097   8.057   9.101
  271POPC   GL2 8774  39.325   8.336   9.110
  271POPC   C1A 8775  39.167   8.089   8.663
  271POPC   D2A 8776  39.225   7.773   8.398
  271POPC   C3A 8777  39.371   7.921   8.037
  271POPC   C4A 8778  39.121   7.952   7.722
  271POPC   C1B 8779  39.012   8.522   8.857
  271POPC   C2B 8780  38.883   8.570   8.447
  271POPC   C3B 8781  39.169   8.602   8.134
  271POPC   C4B 8782  39.463   8.400   7.865
  272POPC   NC3 8783  23.508  18.429   9.371
  272POPC   PO4 8784  23.893  17.816   9.406
  272POPC   GL1 8785  23.854  18.125   9.116
  272POPC   GL2 8786  23.543  18.039   9.052
  272POPC   C1A 8787  23.894  18.051   8.680
  272POPC   D2A 8788  23.650  18.087   8.308
  272POPC   C3A 8789  23.950  18.111   7.987
  272POPC   C4A 8790  24.145  18.519   7.951
  272POPC   C1B 8791  23.531  18.389   8.737
  272POPC   C2B 8792  23.750  18.593   8.389
  272POPC   C3B 8793  23.610  18.514   7.972
  272POPC   C4B 8794  23.454  18.124   7.833
  273POPC   NC3 8795  20.759  40.451   9.609
  273POPC   PO4 8796  20.937  41.046   9.867
  273POPC   GL1 8797  20.730  40.911   9.325
  273POPC   GL2 8798  20.813  40.615   9.124
  273POPC   C1A 8799  20.532  40.942   8.855
  273POPC   D2A 8800  20.426  40.724   8.414
  273POPC   C3A 8801  20.517  40.750   7.933
  273POPC   C4A 8802  20.560  40.450   7.546
  273POPC   C1B 8803  20.905  40.669   8.651
  273POPC   C2B 8804  20.873  40.927   8.264
  273POPC   C3B 8805  21.178  40.972   7.924
  273POPC   C4B 8806  21.009  40.564   7.821
  274POPC   NC3 8807  37.925  37.943   9.452
  274POPC   PO4 8808  37.383  37.552   9.509
  274POPC   GL1 8809  37.771  37.492   9.213
  274POPC   GL2 8810  37.798  37.767   8.952
  274POPC   C1A 8811  38.070  37.347   8.867
  274POPC   D2A 8812  38.115  37.418   8.415
  274POPC   C3A 8813  37.817  37.626   8.178
  274POPC   C4A 8814  37.681  37.484   7.786
  274POPC   C1B 8815  38.086  37.906   8.575
  274POPC   C2B 8816  38.049  38.091   8.138
  274POPC   C3B 8817  37.721  38.019   7.803
  274POPC   C4B 8818  37.602  38.235   7.407
  275POPC   NC3 8819  44.313   4.542   9.430
  275POPC   PO4 8820  44.675   4.029   9.631
  275POPC   GL1 8821  44.642   4.176   9.199
  275POPC   GL2 8822  44.374   4.074   9.033
  275POPC   C1A 8823  44.722   4.382   8.786
  275POPC   D2A 8824   0.047   4.475   8.444
  275POPC   C3A 8825  44.900   4.435   8.023
  275POPC   C4A 8826  44.746   4.087   7.734
  275POPC   C1B 8827  44.178   4.154   8.683
  275POPC   C2B 8828  44.356   4.399   8.418
  275POPC   C3B 8829  44.387   4.320   8.037
  275POPC   C4B 8830  44.490   4.528   7.728
  276POPC   NC3 8831  14.307  26.331   9.851
  276POPC   PO4 8832  14.319  26.927   9.557
  276POPC   GL1 8833  14.297  26.889   9.128
  276POPC   GL2 8834  14.583  27.065   9.119
  276POPC   C1A 8835  14.428  26.845   8.685
  276POPC   D2A 8836  14.351  26.803   8.287
  276POPC   C3A 8837  14.684  26.619   8.047
  276POPC   C4A 8838  14.407  26.765   7.739
  276POPC   C1B 8839  14.687  27.255   8.786
  276POPC   C2B 8840  14.791  27.137   8.392
  276POPC   C3B 8841  14.646  27.130   8.012
  276POPC   C4B 8842  14.451  27.264   7.662
  277POPC   NC3 8843  31.382  16.933   9.536
  277POPC   PO4 8844  31.782  16.363   9.484
  277POPC   GL1 8845  31.622  16.645   9.195
  277POPC   GL2 8846  31.801  16.976   9.216
  277POPC   C1A 8847  31.322  16.728   8.874
  277POPC   D2A 8848  31.185  16.488   8.528
  277POPC   C3A 8849  31.173  16.696   8.140
  277POPC   C4A 8850  31.461  16.695   7.803
  277POPC   C1B 8851  31.846  16.811   8.786
  277POPC   C2B 8852  31.609  16.846   8.443
  277POPC   C3B 8853  31.839  16.748   8.123
  277POPC   C4B 8854  31.988  16.743   7.729
  278POPC   NC3 8855   0.107  16.556   9.414
  278POPC   PO4 8856  44.582  16.853   9.594
  278POPC   GL1 8857  44.596  16.883   9.196
  278POPC   GL2 8858  44.898  16.966   9.165
  278POPC   C1A 8859  44.646  16.662   8.801
  278POPC   D2A 8860  44.562  16.421   8.424
  278POPC   C3A 8861  44.724  16.544   8.033
  278POPC   C4A 8862  44.551  16.783   7.729
  278POPC   C1B 8863  44.796  17.140   8.801
  278POPC   C2B 8864  44.823  16.950   8.401
  278POPC   C3B 8865  44.918  17.029   8.002
  278POPC   C4B 8866  44.788  17.226   7.655
  279POPC   NC3 8867  34.270  30.267   9.459
  279POPC   PO4 8868  34.538  29.570   9.436
  279POPC   GL1 8869  34.691  29.778   9.091
  279POPC   GL2 8870  34.487  30.063   9.047
  279POPC   C1A 8871  34.808  29.892   8.672
  279POPC   D2A 8872  34.557  29.884   8.281
  279POPC   C3A 8873  34.690  30.078   7.894
  279POPC   C4A 8874  34.864  29.740   7.647
  279POPC   C1B 8875  34.294  29.778   8.743
  279POPC   C2B 8876  34.054  29.867   8.370
  279POPC   C3B 8877  34.170  30.015   7.947
  279POPC   C4B 8878  34.368  29.838   7.557
  280POPC   NC3 8879  41.460  24.881   9.644
  280POPC   PO4 8880  41.264  25.520   9.398
  280POPC   GL1 8881  41.545  25.332   9.114
  280POPC   GL2 8882  41.470  24.981   9.158
  280POPC   C1A 8883  41.688  25.426   8.681
  280POPC   D2A 8884  41.580  25.464   8.235
  280POPC   C3A 8885  41.826  25.696   7.984
  280POPC   C4A 8886  42.017  25.513   7.651
  280POPC   C1B 8887  41.502  24.943   8.755
  280POPC   C2B 8888  41.431  25.009   8.364
  280POPC   C3B 8889  41.263  24.882   8.011
  280POPC   C4B 8890  41.495  24.793   7.666
  281POPC   NC3 8891   6.449  34.308   9.568
  281POPC   PO4 8892   6.867  33.731   9.465
  281POPC   GL1 8893   6.609  33.895   9.146
  281POPC   GL2 8894   6.290  33.752   9.075
  281POPC   C1A 8895   6.692  33.758   8.720
  281POPC   D2A 8896   6.942  33.845   8.370
  281POPC   C3A 8897   6.766  33.743   8.005
  281POPC   C4A 8898   6.586  33.708   7.640
  281POPC   C1B 8899   6.252  33.997   8.691
  281POPC   C2B 8900   6.444  34.020   8.282
  281POPC   C3B 8901   6.443  34.170   7.852
  281POPC   C4B 8902   6.274  34.043   7.435
  282POPC   NC3 8903  35.090  15.651   9.524
  282POPC   PO4 8904  35.307  15.006   9.551
  282POPC   GL1 8905  35.410  15.247   9.178
  282POPC   GL2 8906  35.169  15.494   9.046
  282POPC   C1A 8907  35.596  15.356   8.765
  282POPC   D2A 8908  35.461  15.490   8.399
  282POPC   C3A 8909  35.650  15.280   8.099
  282POPC   C4A 8910  35.546  15.324   7.664
  282POPC   C1B 8911  35.134  15.146   8.762
  282POPC   C2B 8912  35.321  14.975   8.423
  282POPC   C3B 8913  35.233  15.057   8.027
  282POPC   C4B 8914  35.017  15.331   7.766
  283POPC   NC3 8915  41.049  29.966   9.401
  283POPC   PO4 8916  41.756  29.716   9.487
  283POPC   GL1 8917  41.556  29.758   9.117
  283POPC   GL2 8918  41.258  29.604   9.049
  283POPC   C1A 8919  41.691  29.605   8.733
  283POPC   D2A 8920  41.738  29.824   8.387
  283POPC   C3A 8921  41.566  29.618   8.074
  283POPC   C4A 8922  41.563  29.622   7.658
  283POPC   C1B 8923  41.201  29.769   8.635
  283POPC   C2B 8924  41.278  30.028   8.266
  283POPC   C3B 8925  41.201  29.943   7.822
  283POPC   C4B 8926  41.184  29.829   7.371
  284POPC   NC3 8927  40.912  18.745   9.592
  284POPC   PO4 8928  40.587  19.240   9.425
  284POPC   GL1 8929  40.654  18.901   9.138
  284POPC   GL2 8930  41.000  18.972   9.133
  284POPC   C1A 8931  40.543  18.890   8.675
  284POPC   D2A 8932  40.340  18.957   8.283
  284POPC   C3A 8933  40.578  19.211   7.999
  284POPC   C4A 8934  40.955  19.039   7.793
  284POPC   C1B 8935  41.030  18.748   8.752
  284POPC   C2B 8936  41.044  18.832   8.319
  284POPC   C3B 8937  41.105  18.581   7.981
  284POPC   C4B 8938  41.320  18.697   7.618
  285POPC   NC3 8939  10.046  38.994   9.396
  285POPC   PO4 8940   9.728  39.576   9.677
  285POPC   GL1 8941   9.598  39.299   9.289
  285POPC   GL2 8942   9.867  39.295   9.033
  285POPC   C1A 8943   9.422  39.192   8.841
  285POPC   D2A 8944   9.739  39.199   8.486
  285POPC   C3A 8945   9.568  39.249   8.055
  285POPC   C4A 8946   9.218  39.490   7.877
  285POPC   C1B 8947  10.217  39.104   8.783
  285POPC   C2B 8948  10.237  38.989   8.404
  285POPC   C3B 8949  10.101  39.184   8.063
  285POPC   C4B 8950   9.897  39.063   7.683
  286POPC   NC3 8951  16.144  33.008   9.631
  286POPC   PO4 8952  15.514  32.922   9.466
  286POPC   GL1 8953  15.837  33.157   9.184
  286POPC   GL2 8954  16.194  33.010   9.144
  286POPC   C1A 8955  16.015  33.289   8.766
  286POPC   D2A 8956  16.163  33.081   8.378
  286POPC   C3A 8957  15.912  33.239   8.035
  286POPC   C4A 8958  15.603  32.974   7.809
  286POPC   C1B 8959  16.120  32.761   8.792
  286POPC   C2B 8960  16.257  32.561   8.436
  286POPC   C3B 8961  16.095  32.532   8.014
  286POPC   C4B 8962  16.090  32.853   7.737
  287POPC   NC3 8963  34.977  13.582   9.684
  287POPC   PO4 8964  34.354  13.935   9.576
  287POPC   GL1 8965  34.328  13.749   9.155
  287POPC   GL2 8966  34.582  13.487   9.096
  287POPC   C1A 8967  34.559  13.863   8.755
  287POPC   D2A 8968  34.667  13.732   8.356
  287POPC   C3A 8969  34.479  13.971   8.034
  287POPC   C4A 8970  34.704  13.810   7.665
  287POPC   C1B 8971  34.713  13.197   8.761
  287POPC   C2B 8972  34.820  13.226   8.320
  287POPC   C3B 8973  34.626  13.375   7.961
  287POPC   C4B 8974  34.600  13.360   7.503
  288POPC   NC3 8975  16.770   8.278   9.444
  288POPC   PO4 8976  16.258   7.863   9.662
  288POPC   GL1 8977  16.392   7.998   9.177
  288POPC   GL2 8978  16.739   7.907   9.084
  288POPC   C1A 8979  16.577   8.283   8.778
  288POPC   D2A 8980  16.669   8.595   8.403
  288POPC   C3A 8981  16.706   8.448   7.963
  288POPC   C4A 8982  16.922   8.321   7.562
  288POPC   C1B 8983  17.003   7.957   8.752
  288POPC   C2B 8984  16.951   8.150   8.366
  288POPC   C3B 8985  17.146   8.144   7.994
  288POPC   C4B 8986  17.171   7.850   7.682
  289POPC   NC3 8987  40.867   7.656   9.370
  289POPC   PO4 8988  40.578   8.259   9.502
  289POPC   GL1 8989  40.696   8.395   9.108
  289POPC   GL2 8990  40.839   8.095   9.067
  289POPC   C1A 8991  40.652   8.297   8.646
  289POPC   D2A 8992  40.446   8.273   8.262
  289POPC   C3A 8993  40.735   8.236   7.928
  289POPC   C4A 8994  40.890   8.223   7.523
  289POPC   C1B 8995  41.063   7.985   8.711
  289POPC   C2B 8996  40.929   7.874   8.309
  289POPC   C3B 8997  41.123   7.918   7.913
  289POPC   C4B 8998  40.901   7.712   7.603
  290POPC   NC3 8999  35.373  41.504   9.523
  290POPC   PO4 9000  35.554  41.035   9.340
  290POPC   GL1 9001  35.329  41.346   9.039
  290POPC   GL2 9002  35.173  41.696   9.097
  290POPC   C1A 9003  35.122  41.344   8.643
  290POPC   D2A 9004  35.297  41.194   8.251
  290POPC   C3A 9005  35.142  41.355   7.849
  290POPC   C4A 9006  35.395  41.393   7.473
  290POPC   C1B 9007  35.169  41.859   8.676
  290POPC   C2B 9008  35.258  41.701   8.266
  290POPC   C3B 9009  35.459  41.747   7.866
  290POPC   C4B 9010  35.147  41.845   7.558
  291POPC   NC3 9011   8.390  38.265   9.438
  291POPC   PO4 9012   7.821  38.566   9.446
  291POPC   GL1 9013   8.090  38.528   9.088
  291POPC   GL2 9014   8.421  38.710   9.112
  291POPC   C1A 9015   8.049  38.260   8.704
  291POPC   D2A 9016   7.936  38.064   8.299
  291POPC   C3A 9017   7.858  38.409   8.016
  291POPC   C4A 9018   7.995  38.434   7.561
  291POPC   C1B 9019   8.412  38.645   8.690
  291POPC   C2B 9020   8.258  38.531   8.294
  291POPC   C3B 9021   8.339  38.277   7.937
  291POPC   C4B 9022   8.601  38.257   7.590
  292POPC   NC3 9023  41.956  26.770   9.317
  292POPC   PO4 9024  42.617  27.170   9.515
  292POPC   GL1 9025  42.457  26.911   9.191
  292POPC   GL2 9026  42.450  26.525   9.190
  292POPC   C1A 9027  42.468  26.866   8.767
  292POPC   D2A 9028  42.132  26.861   8.474
  292POPC   C3A 9029  42.340  26.963   8.116
  292POPC   C4A 9030  42.631  26.918   7.793
  292POPC   C1B 9031  42.261  26.399   8.759
  292POPC   C2B 9032  42.396  26.456   8.306
  292POPC   C3B 9033  42.287  26.517   7.847
  292POPC   C4B 9034  42.165  26.333   7.434
  293POPC   NC3 9035  16.818  10.025   9.505
  293POPC   PO4 9036  16.568   9.378   9.606
  293POPC   GL1 9037  16.416   9.535   9.202
  293POPC   GL2 9038  16.252   9.273   9.026
  293POPC   C1A 9039  16.716   9.549   8.806
  293POPC   D2A 9040  17.051   9.551   8.471
  293POPC   C3A 9041  16.878   9.608   8.039
  293POPC   C4A 9042  16.788   9.691   7.595
  293POPC   C1B 9043  16.219   9.574   8.702
  293POPC   C2B 9044  16.376   9.489   8.295
  293POPC   C3B 9045  16.365   9.589   7.884
  293POPC   C4B 9046  16.455  10.033   7.801
  294POPC   NC3 9047   0.688  21.105   9.455
  294POPC   PO4 9048   0.213  21.596   9.506
  294POPC   GL1 9049   0.314  21.312   9.173
  294POPC   GL2 9050   0.627  21.494   9.120
  294POPC   C1A 9051   0.429  21.112   8.767
  294POPC   D2A 9052   0.208  21.160   8.374
  294POPC   C3A 9053   0.396  21.222   7.972
  294POPC   C4A 9054   0.280  21.194   7.550
  294POPC   C1B 9055   0.455  21.618   8.719
  294POPC   C2B 9056   0.670  21.435   8.356
  294POPC   C3B 9057   0.838  21.503   7.926
  294POPC   C4B 9058   0.724  21.419   7.466
  295POPC   NC3 9059   1.267  19.963   9.574
  295POPC   PO4 9060   1.082  19.417   9.259
  295POPC   GL1 9061   1.171  19.841   9.076
  295POPC   GL2 9062   1.452  20.065   9.111
  295POPC   C1A 9063   1.200  19.896   8.650
  295POPC   D2A 9064   1.040  19.649   8.336
  295POPC   C3A 9065   0.982  19.933   8.064
  295POPC   C4A 9066   1.001  19.956   7.659
  295POPC   C1B 9067   1.626  19.693   8.888
  295POPC   C2B 9068   1.557  19.528   8.470
  295POPC   C3B 9069   1.484  19.760   8.080
  295POPC   C4B 9070   1.472  19.789   7.644
  296POPC   NC3 9071  27.518  18.494   9.440
  296POPC   PO4 9072  27.801  17.918   9.490
  296POPC   GL1 9073  27.800  18.190   9.110
  296POPC   GL2 9074  27.872  18.576   9.078
  296POPC   C1A 9075  27.502  18.329   8.797
  296POPC   D2A 9076  27.507  18.615   8.471
  296POPC   C3A 9077  27.634  18.343   8.151
  296POPC   C4A 9078  27.453  18.201   7.768
  296POPC   C1B 9079  28.001  18.515   8.677
  296POPC   C2B 9080  28.042  18.130   8.465
  296POPC   C3B 9081  28.089  18.141   8.026
  296POPC   C4B 9082  27.919  18.459   7.756
  297POPC   NC3 9083   9.921   5.838   9.687
  297POPC   PO4 9084   9.559   6.304   9.421
  297POPC   GL1 9085   9.778   5.994   9.223
  297POPC   GL2 9086   9.504   6.030   8.977
  297POPC   C1A 9087   9.879   5.694   8.874
  297POPC   D2A 9088   9.646   5.775   8.482
  297POPC   C3A 9089   9.854   5.810   8.079
  297POPC   C4A 9090   9.792   5.851   7.663
  297POPC   C1B 9091   9.466   6.357   8.651
  297POPC   C2B 9092   9.609   6.277   8.247
  297POPC   C3B 9093   9.464   6.208   7.835
  297POPC   C4B 9094   9.458   6.110   7.386
  298POPC   NC3 9095  24.927  26.041   9.392
  298POPC   PO4 9096  25.344  25.499   9.461
  298POPC   GL1 9097  25.189  25.731   9.074
  298POPC   GL2 9098  25.353  26.037   9.118
  298POPC   C1A 9099  25.272  25.939   8.626
  298POPC   D2A 9100  25.298  26.239   8.272
  298POPC   C3A 9101  25.079  26.051   7.926
  298POPC   C4A 9102  25.152  25.831   7.544
  298POPC   C1B 9103  25.680  26.213   8.844
  298POPC   C2B 9104  25.891  26.480   8.528
  298POPC   C3B 9105  25.790  26.422   8.058
  298POPC   C4B 9106  25.585  26.095   7.791
  299POPC   NC3 9107  13.460  18.959   9.487
  299POPC   PO4 9108  14.114  19.199   9.442
  299POPC   GL1 9109  13.927  18.921   9.121
  299POPC   GL2 9110  13.579  18.849   9.014
  299POPC   C1A 9111  13.977  18.900   8.690
  299POPC   D2A 9112  13.636  19.045   8.440
  299POPC   C3A 9113  13.786  19.038   8.020
  299POPC   C4A 9114  13.680  19.090   7.582
  299POPC   C1B 9115  13.163  18.766   8.855
  299POPC   C2B 9116  13.207  18.731   8.420
  299POPC   C3B 9117  13.292  18.973   8.063
  299POPC   C4B 9118  13.263  18.798   7.669
  300POPC   NC3 9119  15.629   2.484   9.438
  300POPC   PO4 9120  16.082   2.984   9.541
  300POPC   GL1 9121  15.821   2.899   9.185
  300POPC   GL2 9122  16.148   2.840   9.048
  300POPC   C1A 9123  15.729   2.770   8.754
  300POPC   D2A 9124  15.824   2.958   8.356
  300POPC   C3A 9125  15.866   2.716   7.961
  300POPC   C4A 9126  16.018   2.838   7.577
  300POPC   C1B 9127  16.288   2.581   8.731
  300POPC   C2B 9128  16.200   2.607   8.326
  300POPC   C3B 9129  16.415   2.569   7.979
  300POPC   C4B 9130  16.353   2.392   7.594
  301POPC   NC3 9131   1.049   7.237   9.463
  301POPC   PO4 9132   0.489   7.502   9.605
  301POPC   GL1 9133   0.490   7.269   9.206
  301POPC   GL2 9134   0.745   7.203   9.027
  301POPC   C1A 9135   0.336   7.441   8.804
  301POPC   D2A 9136   0.043   7.470   8.464
  301POPC   C3A 9137   0.198   7.578   8.059
  301POPC   C4A 9138   0.372   7.426   7.673
  301POPC   C1B 9139   0.842   7.416   8.672
  301POPC   C2B 9140   0.576   7.362   8.357
  301POPC   C3B 9141   0.736   7.380   8.020
  301POPC   C4B 9142   0.853   7.630   7.734
  302POPC   NC3 9143  44.662  23.587   9.581
  302POPC   PO4 9144  44.806  24.071   9.219
  302POPC   GL1 9145  44.575  23.891   8.960
  302POPC   GL2 9146  44.556  23.540   9.094
  302POPC   C1A 9147  44.771  23.933   8.557
  302POPC   D2A 9148  44.816  23.644   8.233
  302POPC   C3A 9149  44.723  23.828   7.850
  302POPC   C4A 9150  44.992  24.041   7.571
  302POPC   C1B 9151  44.671  23.425   8.706
  302POPC   C2B 9152  44.436  23.268   8.384
  302POPC   C3B 9153  44.387  23.449   8.031
  302POPC   C4B 9154  44.320  23.590   7.663
  303POPC   NC3 9155  31.727  14.836   9.251
  303POPC   PO4 9156  31.658  15.414   9.625
  303POPC   GL1 9157  31.565  15.294   9.161
  303POPC   GL2 9158  31.299  15.114   9.052
  303POPC   C1A 9159  31.717  15.172   8.731
  303POPC   D2A 9160  31.555  15.254   8.375
  303POPC   C3A 9161  31.804  15.112   8.059
  303POPC   C4A 9162  31.723  15.234   7.681
  303POPC   C1B 9163  31.098  15.174   8.683
  303POPC   C2B 9164  31.138  14.986   8.303
  303POPC   C3B 9165  31.299  15.116   7.936
  303POPC   C4B 9166  31.143  15.340   7.618
  304POPC   NC3 9167  11.422  31.971   9.437
  304POPC   PO4 9168  11.582  32.585   9.410
  304POPC   GL1 9169  11.333  32.373   9.096
  304POPC   GL2 9170  11.171  32.028   9.023
  304POPC   C1A 9171  11.309  32.352   8.676
  304POPC   D2A 9172  11.510  32.195   8.394
  304POPC   C3A 9173  11.258  32.271   8.083
  304POPC   C4A 9174  11.460  32.175   7.713
  304POPC   C1B 9175  11.084  31.761   8.678
  304POPC   C2B 9176  11.073  31.781   8.226
  304POPC   C3B 9177  11.128  31.710   7.780
  304POPC   C4B 9178  11.300  31.823   7.378
  305POPC   NC3 9179   1.625   4.949   9.378
  305POPC   PO4 9180   2.261   5.156   9.337
  305POPC   GL1 9181   2.054   5.031   9.048
  305POPC   GL2 9182   2.300   4.835   8.917
  305POPC   C1A 9183   1.788   5.151   8.727
  305POPC   D2A 9184   1.861   5.311   8.326
  305POPC   C3A 9185   1.817   5.091   7.929
  305POPC   C4A 9186   1.807   4.983   7.486
  305POPC   C1B 9187   2.284   5.063   8.580
  305POPC   C2B 9188   2.238   4.740   8.295
  305POPC   C3B 9189   2.247   4.813   7.894
  305POPC   C4B 9190   2.288   5.115   7.642
  306POPC   NC3 9191   9.911   9.669   9.330
  306POPC   PO4 9192   9.305   9.868   9.589
  306POPC   GL1 9193   9.455   9.856   9.134
  306POPC   GL2 9194   9.598   9.576   8.935
  306POPC   C1A 9195   9.480   9.989   8.688
  306POPC   D2A 9196   9.583   9.715   8.355
  306POPC   C3A 9197   9.705   9.841   7.952
  306POPC   C4A 9198   9.711   9.666   7.572
  306POPC   C1B 9199   9.995   9.644   8.660
  306POPC   C2B 9200  10.133   9.843   8.262
  306POPC   C3B 9201  10.177   9.677   7.831
  306POPC   C4B 9202  10.190   9.619   7.391
  307POPC   NC3 9203  39.637   5.194   9.397
  307POPC   PO4 9204  40.251   4.789   9.370
  307POPC   GL1 9205  40.085   5.099   9.155
  307POPC   GL2 9206  40.388   5.046   8.943
  307POPC   C1A 9207  39.960   5.320   8.806
  307POPC   D2A 9208  40.177   5.188   8.465
  307POPC   C3A 9209  39.996   5.237   8.074
  307POPC   C4A 9210  39.850   5.239   7.665
  307POPC   C1B 9211  40.354   4.717   8.632
  307POPC   C2B 9212  40.132   4.700   8.248
  307POPC   C3B 9213  40.109   4.798   7.838
  307POPC   C4B 9214  39.914   4.729   7.478
  308POPC   NC3 9215  13.970  23.305   9.469
  308POPC   PO4 9216  13.591  22.701   9.480
  308POPC   GL1 9217  13.513  22.794   9.114
  308POPC   GL2 9218  13.814  22.981   9.069
  308POPC   C1A 9219  13.633  22.627   8.739
  308POPC   D2A 9220  13.835  22.730   8.367
  308POPC   C3A 9221  13.680  23.071   8.147
  308POPC   C4A 9222  13.366  23.084   7.821
  308POPC   C1B 9223  13.677  23.172   8.688
  308POPC   C2B 9224  13.836  23.487   8.436
  308POPC   C3B 9225  14.013  23.496   8.029
  308POPC   C4B 9226  13.844  23.291   7.680
  309POPC   NC3 9227  23.670   1.789   9.629
  309POPC   PO4 9228  23.844   2.358   9.503
  309POPC   GL1 9229  23.836   2.211   9.111
  309POPC   GL2 9230  23.832   1.874   9.164
  309POPC   C1A 9231  23.624   2.188   8.719
  309POPC   D2A 9232  23.891   2.162   8.369
  309POPC   C3A 9233  23.703   2.250   8.006
  309POPC   C4A 9234  23.964   2.232   7.670
  309POPC   C1B 9235  23.608   1.703   8.823
  309POPC   C2B 9236  23.536   1.783   8.342
  309POPC   C3B 9237  23.779   1.761   7.937
  309POPC   C4B 9238  23.844   1.746   7.475
  310POPC   NC3 9239  27.689  23.896   9.758
  310POPC   PO4 9240  27.548  23.454   9.760
  310POPC   GL1 9241  27.551  23.657   9.312
  310POPC   GL2 9242  27.434  24.006   9.282
  310POPC   C1A 9243  27.653  23.700   8.820
  310POPC   D2A 9244  27.833  23.668   8.356
  310POPC   C3A 9245  27.570  23.666   7.956
  310POPC   C4A 9246  27.216  23.731   7.649
  310POPC   C1B 9247  27.428  24.162   8.817
  310POPC   C2B 9248  27.477  24.044   8.359
  310POPC   C3B 9249  27.446  24.170   7.910
  310POPC   C4B 9250  27.295  24.306   7.498
  311POPC   NC3 9251   1.754  11.287  10.085
  311POPC   PO4 9252   2.102  11.004   9.766
  311POPC   GL1 9253   1.994  11.019   9.290
  311POPC   GL2 9254   2.268  11.126   9.079
  311POPC   C1A 9255   1.792  11.082   8.829
  311POPC   D2A 9256   1.732  11.311   8.384
  311POPC   C3A 9257   1.843  11.231   7.921
  311POPC   C4A 9258   1.704  11.099   7.489
  311POPC   C1B 9259   2.205  11.312   8.647
  311POPC   C2B 9260   2.265  11.317   8.200
  311POPC   C3B 9261   2.306  11.433   7.753
  311POPC   C4B 9262   2.366  11.332   7.299
  312POPC   NC3 9263  40.974  42.597   9.547
  312POPC   PO4 9264  40.728  41.950   9.525
  312POPC   GL1 9265  40.824  42.207   9.178
  312POPC   GL2 9266  40.605  42.486   9.195
  312POPC   C1A 9267  40.700  42.239   8.746
  312POPC   D2A 9268  40.852  42.157   8.339
  312POPC   C3A 9269  40.614  42.155   7.975
  312POPC   C4A 9270  40.704  42.433   7.666
  312POPC   C1B 9271  40.873  42.702   8.885
  312POPC   C2B 9272  41.081  42.598   8.502
  312POPC   C3B 9273  40.918  42.647   8.084
  312POPC   C4B 9274  41.145  42.713   7.708
  313POPC   NC3 9275  32.097  44.218   9.481
  313POPC   PO4 9276  32.331  43.615   9.399
  313POPC   GL1 9277  32.129  43.888   9.086
  313POPC   GL2 9278  32.005  43.579   8.975
  313POPC   C1A 9279  32.134  44.214   8.716
  313POPC   D2A 9280  32.120  44.441   8.282
  313POPC   C3A 9281  32.125  44.216   7.890
  313POPC   C4A 9282  32.308  43.973   7.529
  313POPC   C1B 9283  32.159  43.698   8.608
  313POPC   C2B 9284  32.053  43.905   8.278
  313POPC   C3B 9285  31.986  43.735   7.880
  313POPC   C4B 9286  32.252  43.487   7.660
  314POPC   NC3 9287  36.430  14.280   9.521
  314POPC   PO4 9288  35.770  14.436   9.464
  314POPC   GL1 9289  36.040  14.370   9.172
  314POPC   GL2 9290  36.224  14.682   9.167
  314POPC   C1A 9291  36.005  14.311   8.770
  314POPC   D2A 9292  36.196  14.023   8.470
  314POPC   C3A 9293  36.044  14.105   8.062
  314POPC   C4A 9294  36.228  14.103   7.690
  314POPC   C1B 9295  36.225  14.773   8.722
  314POPC   C2B 9296  36.201  14.528   8.351
  314POPC   C3B 9297  36.275  14.563   7.930
  314POPC   C4B 9298  36.130  14.847   7.660
  315POPC   NC3 9299  40.926  13.440   9.498
  315POPC   PO4 9300  40.746  14.147   9.325
  315POPC   GL1 9301  40.818  13.759   9.110
  315POPC   GL2 9302  40.590  13.447   9.113
  315POPC   C1A 9303  41.045  13.516   8.749
  315POPC   D2A 9304  41.195  13.364   8.300
  315POPC   C3A 9305  40.961  13.535   7.906
  315POPC   C4A 9306  40.537  13.769   7.830
  315POPC   C1B 9307  40.514  13.673   8.727
  315POPC   C2B 9308  40.674  13.472   8.383
  315POPC   C3B 9309  40.527  13.311   8.036
  315POPC   C4B 9310  40.594  13.252   7.646
  316POPC   NC3 9311  21.747  29.786   9.389
  316POPC   PO4 9312  22.389  30.008   9.652
  316POPC   GL1 9313  22.255  29.938   9.210
  316POPC   GL2 9314  22.183  29.593   9.165
  316POPC   C1A 9315  22.230  30.014   8.725
  316POPC   D2A 9316  22.361  30.088   8.293
  316POPC   C3A 9317  22.145  29.863   7.944
  316POPC   C4A 9318  22.048  30.073   7.552
  316POPC   C1B 9319  21.908  29.599   8.788
  316POPC   C2B 9320  21.854  29.577   8.340
  316POPC   C3B 9321  21.695  29.483   7.921
  316POPC   C4B 9322  21.856  29.619   7.503
  317POPC   NC3 9323   9.342   3.574   9.314
  317POPC   PO4 9324   8.797   3.889   9.576
  317POPC   GL1 9325   8.808   3.630   9.228
  317POPC   GL2 9326   8.921   3.291   9.143
  317POPC   C1A 9327   8.906   3.767   8.840
  317POPC   D2A 9328   8.829   3.619   8.424
  317POPC   C3A 9329   8.941   3.817   8.056
  317POPC   C4A 9330   8.888   3.658   7.653
  317POPC   C1B 9331   9.128   3.306   8.731
  317POPC   C2B 9332   9.302   3.463   8.345
  317POPC   C3B 9333   9.142   3.357   7.966
  317POPC   C4B 9334   9.395   3.607   7.698
  318POPC   NC3 9335   3.248  44.881   9.792
  318POPC   PO4 9336   3.901  44.790   9.536
  318POPC   GL1 9337   3.932  44.637   9.127
  318POPC   GL2 9338   3.656  44.418   9.025
  318POPC   C1A 9339   3.751  44.873   8.765
  318POPC   D2A 9340   3.551  44.821   8.357
  318POPC   C3A 9341   3.578  44.405   8.137
  318POPC   C4A 9342   3.743  44.386   7.717
  318POPC   C1B 9343   3.368  44.486   8.684
  318POPC   C2B 9344   3.122  44.543   8.286
  318POPC   C3B 9345   3.313  44.774   7.904
  318POPC   C4B 9346   3.370   0.061   7.547
  319POPC   NC3 9347  18.272   7.927   9.330
  319POPC   PO4 9348  18.325   7.341   9.544
  319POPC   GL1 9349  18.168   7.418   9.114
  319POPC   GL2 9350  18.118   7.131   8.920
  319POPC   C1A 9351  18.250   7.570   8.671
  319POPC   D2A 9352  18.362   7.623   8.231
  319POPC   C3A 9353  18.018   7.568   7.936
  319POPC   C4A 9354  17.865   7.252   7.688
  319POPC   C1B 9355  18.498   7.109   8.735
  319POPC   C2B 9356  18.368   7.066   8.328
  319POPC   C3B 9357  18.352   7.193   7.918
  319POPC   C4B 9358  18.519   7.511   7.700
  320POPC   NC3 9359   8.231  34.629   9.933
  320POPC   PO4 9360   8.357  34.170   9.444
  320POPC   GL1 9361   8.063  34.502   9.279
  320POPC   GL2 9362   8.341  34.540   9.056
  320POPC   C1A 9363   7.915  34.721   8.866
  320POPC   D2A 9364   8.152  34.689   8.451
  320POPC   C3A 9365   8.004  34.738   8.062
  320POPC   C4A 9366   8.078  34.634   7.608
  320POPC   C1B 9367   8.576  34.712   8.722
  320POPC   C2B 9368   8.600  34.898   8.267
  320POPC   C3B 9369   8.463  34.872   7.821
  320POPC   C4B 9370   8.463  34.854   7.334
  321POPC   NC3 9371  18.686  22.258   9.541
  321POPC   PO4 9372  19.297  22.049   9.868
  321POPC   GL1 9373  19.192  22.231   9.352
  321POPC   GL2 9374  18.894  22.393   9.123
  321POPC   C1A 9375  19.254  22.257   8.822
  321POPC   D2A 9376  19.218  22.061   8.366
  321POPC   C3A 9377  19.160  22.220   7.920
  321POPC   C4A 9378  19.216  22.001   7.486
  321POPC   C1B 9379  18.714  22.164   8.750
  321POPC   C2B 9380  18.731  22.205   8.292
  321POPC   C3B 9381  18.758  21.895   7.957
  321POPC   C4B 9382  18.692  21.948   7.508
  322POPC   NC3 9383   9.092  28.646   9.779
  322POPC   PO4 9384   9.254  29.295   9.504
  322POPC   GL1 9385   9.161  29.466   9.131
  322POPC   GL2 9386   9.123  29.146   8.999
  322POPC   C1A 9387   9.217  29.527   8.690
  322POPC   D2A 9388   8.875  29.474   8.383
  322POPC   C3A 9389   8.900  29.390   7.931
  322POPC   C4A 9390   8.870  29.438   7.487
  322POPC   C1B 9391   9.382  29.031   8.630
  322POPC   C2B 9392   9.307  28.757   8.271
  322POPC   C3B 9393   9.119  28.850   7.843
  322POPC   C4B 9394   9.116  28.962   7.409
  323POPC   NC3 9395  39.299  26.642   9.383
  323POPC   PO4 9396  38.698  26.956   9.639
  323POPC   GL1 9397  38.841  26.847   9.201
  323POPC   GL2 9398  38.989  27.151   9.127
  323POPC   C1A 9399  39.090  26.759   8.780
  323POPC   D2A 9400  39.421  26.674   8.449
  323POPC   C3A 9401  39.203  26.736   8.082
  323POPC   C4A 9402  39.292  26.857   7.696
  323POPC   C1B 9403  39.199  27.275   8.765
  323POPC   C2B 9404  39.259  27.140   8.392
  323POPC   C3B 9405  39.157  27.247   7.994
  323POPC   C4B 9406  38.903  27.182   7.591
  324POPC   NC3 9407  34.865  16.504   9.654
  324POPC   PO4 9408  35.441  16.025   9.653
  324POPC   GL1 9409  35.395  15.955   9.203
  324POPC   GL2 9410  35.651  15.700   9.124
  324POPC   C1A 9411  35.364  15.879   8.749
  324POPC   D2A 9412  35.516  16.002   8.349
  324POPC   C3A 9413  35.246  15.804   8.024
  324POPC   C4A 9414  35.210  15.766   7.578
  324POPC   C1B 9415  35.886  15.787   8.739
  324POPC   C2B 9416  35.954  15.681   8.311
  324POPC   C3B 9417  35.734  15.736   7.933
  324POPC   C4B 9418  35.747  15.796   7.524
  325POPC   NC3 9419  34.233  20.923   9.409
  325POPC   PO4 9420  33.683  20.685   9.626
  325POPC   GL1 9421  33.918  20.567   9.210
  325POPC   GL2 9422  34.087  20.242   9.282
  325POPC   C1A 9423  33.972  20.749   8.750
  325POPC   D2A 9424  33.985  20.786   8.263
  325POPC   C3A 9425  33.588  20.891   7.985
  325POPC   C4A 9426  33.434  21.027   7.543
  325POPC   C1B 9427  34.101  20.268   8.829
  325POPC   C2B 9428  33.841  20.286   8.465
  325POPC   C3B 9429  34.017  20.306   8.060
  325POPC   C4B 9430  33.936  20.634   7.744
  326POPC   NC3 9431  14.209  15.803   9.560
  326POPC   PO4 9432  14.230  16.373   9.253
  326POPC   GL1 9433  14.488  16.047   9.186
  326POPC   GL2 9434  14.777  16.290   9.225
  326POPC   C1A 9435  14.441  15.843   8.795
  326POPC   D2A 9436  14.320  16.069   8.418
  326POPC   C3A 9437  14.547  15.906   8.093
  326POPC   C4A 9438  14.495  15.695   7.746
  326POPC   C1B 9439  14.658  16.318   8.757
  326POPC   C2B 9440  14.596  16.520   8.334
  326POPC   C3B 9441  14.627  16.398   7.903
  326POPC   C4B 9442  14.337  16.183   7.669
  327POPC   NC3 9443  28.913  44.708   9.514
  327POPC   PO4 9444  29.590  44.546   9.592
  327POPC   GL1 9445  29.294  44.487   9.233
  327POPC   GL2 9446  29.147  44.791   9.090
  327POPC   C1A 9447  29.340  44.479   8.777
  327POPC   D2A 9448  29.198  44.832   8.536
  327POPC   C3A 9449  29.152  44.800   8.082
  327POPC   C4A 9450  29.350  44.451   7.835
  327POPC   C1B 9451  28.839  44.597   8.819
  327POPC   C2B 9452  28.695  44.754   8.427
  327POPC   C3B 9453  28.720  44.548   8.045
  327POPC   C4B 9454  28.896  44.515   7.634
  328POPC   NC3 9455   7.507  12.040   9.585
  328POPC   PO4 9456   7.835  11.511   9.389
  328POPC   GL1 9457   7.583  11.817   9.133
  328POPC   GL2 9458   7.199  11.874   9.151
  328POPC   C1A 9459   7.488  12.139   8.813
  328POPC   D2A 9460   7.263  12.246   8.445
  328POPC   C3A 9461   7.543  12.162   8.181
  328POPC   C4A 9462   7.575  12.230   7.779
  328POPC   C1B 9463   7.333  11.637   8.741
  328POPC   C2B 9464   7.286  11.611   8.303
  328POPC   C3B 9465   7.446  11.750   7.928
  328POPC   C4B 9466   7.334  11.824   7.495
  329POPC   NC3 9467  11.518  38.628   9.671
  329POPC   PO4 9468  10.982  38.230   9.623
  329POPC   GL1 9469  11.119  38.379   9.195
  329POPC   GL2 9470  11.360  38.657   9.189
  329POPC   C1A 9471  11.154  38.519   8.732
  329POPC   D2A 9472  11.139  38.780   8.339
  329POPC   C3A 9473  11.160  38.499   7.965
  329POPC   C4A 9474  11.124  38.584   7.509
  329POPC   C1B 9475  11.654  38.567   8.855
  329POPC   C2B 9476  11.604  38.573   8.421
  329POPC   C3B 9477  11.639  38.675   7.987
  329POPC   C4B 9478  11.602  38.473   7.565
  330POPC   NC3 9479  15.104  14.508   9.825
  330POPC   PO4 9480  15.579  14.165   9.545
  330POPC   GL1 9481  15.345  14.190   9.157
  330POPC   GL2 9482  15.038  14.328   9.275
  330POPC   C1A 9483  15.190  14.177   8.717
  330POPC   D2A 9484  15.315  14.417   8.327
  330POPC   C3A 9485  15.037  14.443   7.981
  330POPC   C4A 9486  14.749  14.571   7.682
  330POPC   C1B 9487  14.997  14.619   8.905
  330POPC   C2B 9488  15.023  14.850   8.506
  330POPC   C3B 9489  14.977  14.958   8.068
  330POPC   C4B 9490  15.340  14.852   7.802
  331POPC   NC3 9491   7.964   4.533   9.324
  331POPC   PO4 9492   7.305   4.241   9.437
  331POPC   GL1 9493   7.591   4.236   9.103
  331POPC   GL2 9494   7.723   3.915   9.034
  331POPC   C1A 9495   7.480   4.391   8.692
  331POPC   D2A 9496   7.201   4.649   8.415
  331POPC   C3A 9497   7.349   4.555   7.981
  331POPC   C4A 9498   7.724   4.258   7.860
  331POPC   C1B 9499   7.319   3.915   8.789
  331POPC   C2B 9500   7.239   3.826   8.362
  331POPC   C3B 9501   7.207   4.035   7.955
  331POPC   C4B 9502   6.883   4.182   7.735
  332POPC   NC3 9503  37.883  44.869   9.398
  332POPC   PO4 9504  37.681  44.319   9.728
  332POPC   GL1 9505  37.466  44.480   9.316
  332POPC   GL2 9506  37.431  44.816   9.156
  332POPC   C1A 9507  37.515  44.455   8.839
  332POPC   D2A 9508  37.712  44.594   8.439
  332POPC   C3A 9509  37.562  44.466   8.039
  332POPC   C4A 9510  37.667  44.661   7.662
  332POPC   C1B 9511  37.632  44.964   8.786
  332POPC   C2B 9512  37.473   0.068   8.411
  332POPC   C3B 9513  37.651   0.025   8.036
  332POPC   C4B 9514  37.437   0.126   7.666
  333POPC   NC3 9515  28.296  19.785   9.679
  333POPC   PO4 9516  28.712  19.336   9.408
  333POPC   GL1 9517  28.334  19.626   9.184
  333POPC   GL2 9518  28.465  19.963   9.162
  333POPC   C1A 9519  28.104  19.870   8.822
  333POPC   D2A 9520  28.078  20.123   8.424
  333POPC   C3A 9521  28.005  19.945   8.027
  333POPC   C4A 9522  28.340  19.782   7.834
  333POPC   C1B 9523  28.537  20.143   8.725
  333POPC   C2B 9524  28.542  20.017   8.266
  333POPC   C3B 9525  28.626  20.202   7.859
  333POPC   C4B 9526  28.314  20.212   7.525
  334POPC   NC3 9527  40.397   6.905   9.248
  334POPC   PO4 9528  40.814   6.665   9.718
  334POPC   GL1 9529  40.867   6.641   9.231
  334POPC   GL2 9530  40.998   6.288   9.173
  334POPC   C1A 9531  40.925   6.877   8.794
  334POPC   D2A 9532  40.665   6.931   8.420
  334POPC   C3A 9533  40.900   6.898   8.024
  334POPC   C4A 9534  40.815   6.820   7.574
  334POPC   C1B 9535  40.793   6.388   8.771
  334POPC   C2B 9536  40.960   6.508   8.364
  334POPC   C3B 9537  41.096   6.421   7.926
  334POPC   C4B 9538  40.997   6.377   7.441
  335POPC   NC3 9539  22.126  41.429   9.488
  335POPC   PO4 9540  22.435  40.930   9.472
  335POPC   GL1 9541  22.047  40.925   9.218
  335POPC   GL2 9542  22.193  41.168   9.034
  335POPC   C1A 9543  21.933  40.783   8.768
  335POPC   D2A 9544  22.136  40.878   8.353
  335POPC   C3A 9545  22.052  40.634   7.998
  335POPC   C4A 9546  21.957  40.693   7.602
  335POPC   C1B 9547  21.986  41.280   8.671
  335POPC   C2B 9548  21.971  41.388   8.223
  335POPC   C3B 9549  22.241  41.203   7.908
  335POPC   C4B 9550  22.467  40.823   7.780
  336POPC   NC3 9551  27.766   3.544   9.526
  336POPC   PO4 9552  27.115   3.345   9.518
  336POPC   GL1 9553  27.383   3.613   9.214
  336POPC   GL2 9554  27.503   3.341   9.034
  336POPC   C1A 9555  27.549   3.803   8.841
  336POPC   D2A 9556  27.539   3.599   8.459
  336POPC   C3A 9557  27.620   3.665   8.034
  336POPC   C4A 9558  27.596   3.502   7.608
  336POPC   C1B 9559  27.819   3.247   8.689
  336POPC   C2B 9560  27.850   3.135   8.247
  336POPC   C3B 9561  28.009   3.373   7.885
  336POPC   C4B 9562  28.061   3.323   7.437
  337POPC   NC3 9563  31.883  12.289   9.340
  337POPC   PO4 9564  31.624  11.875   9.822
  337POPC   GL1 9565  31.558  11.894   9.269
  337POPC   GL2 9566  31.374  12.191   9.199
  337POPC   C1A 9567  31.665  12.113   8.787
  337POPC   D2A 9568  31.893  12.258   8.412
  337POPC   C3A 9569  31.581  12.214   8.080
  337POPC   C4A 9570  31.632  12.149   7.626
  337POPC   C1B 9571  31.178  11.972   8.861
  337POPC   C2B 9572  31.280  12.039   8.454
  337POPC   C3B 9573  31.105  11.954   8.104
  337POPC   C4B 9574  31.119  12.062   7.741
  338POPC   NC3 9575  36.481  33.955   9.670
  338POPC   PO4 9576  37.093  33.656   9.488
  338POPC   GL1 9577  37.032  33.910   9.152
  338POPC   GL2 9578  36.797  34.180   9.253
  338POPC   C1A 9579  36.978  33.665   8.763
  338POPC   D2A 9580  36.967  33.444   8.365
  338POPC   C3A 9581  36.816  33.631   7.988
  338POPC   C4A 9582  36.690  33.445   7.621
  338POPC   C1B 9583  36.635  34.029   8.848
  338POPC   C2B 9584  36.635  33.868   8.413
  338POPC   C3B 9585  36.502  34.051   7.999
  338POPC   C4B 9586  36.547  33.927   7.565
  339POPC   NC3 9587   9.783  27.316   9.737
  339POPC   PO4 9588   9.858  27.901   9.647
  339POPC   GL1 9589   9.828  27.686   9.246
  339POPC   GL2 9590  10.085  27.446   9.275
  339POPC   C1A 9591   9.650  27.699   8.792
  339POPC   D2A 9592   9.595  27.844   8.327
  339POPC   C3A 9593   9.524  27.536   7.949
  339POPC   C4A 9594   9.396  27.467   7.489
  339POPC   C1B 9595  10.149  27.634   8.860
  339POPC   C2B 9596  10.011  27.584   8.437
  339POPC   C3B 9597   9.993  27.721   8.010
  339POPC   C4B 9598   9.896  27.543   7.565
  340POPC   NC3 9599  10.128  23.024   9.492
  340POPC   PO4 9600   9.619  22.633   9.799
  340POPC   GL1 9601   9.681  22.751   9.320
  340POPC   GL2 9602   9.970  22.697   9.150
  340POPC   C1A 9603   9.568  22.852   8.862
  340POPC   D2A 9604   9.635  22.915   8.403
  340POPC   C3A 9605   9.758  22.837   7.974
  340POPC   C4A 9606   9.826  23.188   7.788
  340POPC   C1B 9607  10.063  22.953   8.755
  340POPC   C2B 9608  10.136  22.856   8.314
  340POPC   C3B 9609  10.298  22.899   7.894
  340POPC   C4B 9610  10.310  23.087   7.466
  341POPC   NC3 9611  12.183  12.299   9.533
  341POPC   PO4 9612  12.053  11.654   9.350
  341POPC   GL1 9613  12.025  12.035   9.116
  341POPC   GL2 9614  11.751  12.272   9.170
  341POPC   C1A 9615  11.957  12.100   8.691
  341POPC   D2A 9616  12.169  11.877   8.390
  341POPC   C3A 9617  12.199  12.093   8.035
  341POPC   C4A 9618  12.168  11.916   7.665
  341POPC   C1B 9619  11.740  12.547   8.775
  341POPC   C2B 9620  11.952  12.531   8.352
  341POPC   C3B 9621  11.797  12.618   7.970
  341POPC   C4B 9622  11.561  12.541   7.623
  342POPC   NC3 9623  37.260  17.051   9.316
  342POPC   PO4 9624  36.803  16.645   9.626
  342POPC   GL1 9625  36.898  16.616   9.200
  342POPC   GL2 9626  36.670  16.917   9.116
  342POPC   C1A 9627  36.968  16.713   8.758
  342POPC   D2A 9628  36.789  16.899   8.413
  342POPC   C3A 9629  36.783  16.742   8.004
  342POPC   C4A 9630  37.121  16.731   7.736
  342POPC   C1B 9631  36.493  17.174   8.746
  342POPC   C2B 9632  36.634  17.356   8.310
  342POPC   C3B 9633  36.565  17.186   7.864
  342POPC   C4B 9634  36.441  17.115   7.405
  343POPC   NC3 9635  16.411  33.735   9.467
  343POPC   PO4 9636  17.028  33.543   9.713
  343POPC   GL1 9637  16.829  33.597   9.247
  343POPC   GL2 9638  16.757  33.980   9.190
  343POPC   C1A 9639  16.861  33.557   8.770
  343POPC   D2A 9640  16.864  33.732   8.385
  343POPC   C3A 9641  16.757  33.544   8.024
  343POPC   C4A 9642  16.927  33.716   7.662
  343POPC   C1B 9643  16.728  34.107   8.770
  343POPC   C2B 9644  16.490  34.064   8.411
  343POPC   C3B 9645  16.660  34.062   8.022
  343POPC   C4B 9646  16.726  34.177   7.622
  344POPC   NC3 9647  41.741  19.300   9.532
  344POPC   PO4 9648  41.352  18.744   9.474
  344POPC   GL1 9649  41.512  19.000   9.134
  344POPC   GL2 9650  41.853  19.114   9.092
  344POPC   C1A 9651  41.407  19.073   8.704
  344POPC   D2A 9652  41.563  18.857   8.350
  344POPC   C3A 9653  41.490  19.042   7.955
  344POPC   C4A 9654  41.396  19.216   7.552
  344POPC   C1B 9655  41.894  18.931   8.753
  344POPC   C2B 9656  42.030  19.074   8.406
  344POPC   C3B 9657  41.967  18.858   8.021
  344POPC   C4B 9658  41.879  18.824   7.594
  345POPC   NC3 9659  27.973   6.220   9.503
  345POPC   PO4 9660  28.452   6.685   9.673
  345POPC   GL1 9661  28.358   6.768   9.231
  345POPC   GL2 9662  28.570   6.514   9.125
  345POPC   C1A 9663  28.229   6.697   8.772
  345POPC   D2A 9664  28.319   6.540   8.336
  345POPC   C3A 9665  28.227   6.764   7.954
  345POPC   C4A 9666  27.914   6.581   7.769
  345POPC   C1B 9667  28.684   6.467   8.707
  345POPC   C2B 9668  28.825   6.660   8.324
  345POPC   C3B 9669  28.683   6.559   7.922
  345POPC   C4B 9670  28.573   6.367   7.510
  346POPC   NC3 9671  29.075  42.964   9.420
  346POPC   PO4 9672  29.266  43.642   9.440
  346POPC   GL1 9673  29.072  43.506   9.076
  346POPC   GL2 9674  29.277  43.278   9.066
  346POPC   C1A 9675  28.994  43.451   8.643
  346POPC   D2A 9676  29.313  43.318   8.352
  346POPC   C3A 9677  29.237  43.410   7.937
  346POPC   C4A 9678  28.904  43.178   7.761
  346POPC   C1B 9679  29.200  42.954   8.760
  346POPC   C2B 9680  29.462  42.842   8.414
  346POPC   C3B 9681  29.363  42.926   8.001
  346POPC   C4B 9682  29.348  43.002   7.588
  347POPC   NC3 9683  16.581  27.946   9.351
  347POPC   PO4 9684  16.346  27.381   9.363
  347POPC   GL1 9685  16.546  27.345   8.986
  347POPC   GL2 9686  16.811  27.572   9.053
  347POPC   C1A 9687  16.588  27.637   8.601
  347POPC   D2A 9688  16.423  27.989   8.359
  347POPC   C3A 9689  16.565  27.925   7.933
  347POPC   C4A 9690  16.371  27.682   7.600
  347POPC   C1B 9691  16.962  27.932   8.756
  347POPC   C2B 9692  16.961  27.879   8.295
  347POPC   C3B 9693  17.026  27.642   7.896
  347POPC   C4B 9694  16.929  27.694   7.460
  348POPC   NC3 9695  22.495  33.599   9.541
  348POPC   PO4 9696  23.140  33.574   9.510
  348POPC   GL1 9697  22.925  33.690   9.161
  348POPC   GL2 9698  22.676  33.955   9.225
  348POPC   C1A 9699  23.083  33.671   8.755
  348POPC   D2A 9700  23.361  33.627   8.413
  348POPC   C3A 9701  23.095  33.644   8.080
  348POPC   C4A 9702  23.166  33.913   7.765
  348POPC   C1B 9703  22.610  33.893   8.802
  348POPC   C2B 9704  22.859  33.986   8.425
  348POPC   C3B 9705  22.742  34.037   8.013
  348POPC   C4B 9706  22.526  33.734   7.802
  349POPC   NC3 9707  36.668  36.446   9.456
  349POPC   PO4 9708  36.753  35.798   9.429
  349POPC   GL1 9709  37.022  35.871   9.102
  349POPC   GL2 9710  37.004  36.240   9.077
  349POPC   C1A 9711  36.883  35.904   8.681
  349POPC   D2A 9712  36.975  36.169   8.349
  349POPC   C3A 9713  36.818  36.057   7.961
  349POPC   C4A 9714  36.828  35.679   7.763
  349POPC   C1B 9715  36.730  36.408   8.724
  349POPC   C2B 9716  36.707  36.583   8.249
  349POPC   C3B 9717  36.841  36.526   7.793
  349POPC   C4B 9718  36.672  36.372   7.387
  350POPC   NC3 9719   8.375   3.699   9.546
  350POPC   PO4 9720   7.792   3.469   9.705
  350POPC   GL1 9721   7.990   3.514   9.260
  350POPC   GL2 9722   8.327   3.370   9.178
  350POPC   C1A 9723   8.067   3.607   8.804
  350POPC   D2A 9724   7.967   3.753   8.386
  350POPC   C3A 9725   7.991   3.423   8.043
  350POPC   C4A 9726   7.924   3.545   7.604
  350POPC   C1B 9727   8.544   3.397   8.810
  350POPC   C2B 9728   8.371   3.430   8.408
  350POPC   C3B 9729   8.505   3.535   8.011
  350POPC   C4B 9730   8.334   3.266   7.709
  351POPC   NC3 9731   6.306   3.225   9.593
  351POPC   PO4 9732   5.810   3.647   9.355
  351POPC   GL1 9733   5.905   3.409   9.031
  351POPC   GL2 9734   6.240   3.390   9.134
  351POPC   C1A 9735   5.786   3.343   8.595
  351POPC   D2A 9736   5.547   3.632   8.291
  351POPC   C3A 9737   5.567   3.540   7.845
  351POPC   C4A 9738   5.721   3.123   7.740
  351POPC   C1B 9739   6.279   3.716   8.851
  351POPC   C2B 9740   6.083   3.719   8.454
  351POPC   C3B 9741   5.993   3.440   8.124
  351POPC   C4B 9742   6.132   3.492   7.750
  352POPC   NC3 9743  15.928  34.106   9.646
  352POPC   PO4 9744  16.044  33.473   9.554
  352POPC   GL1 9745  15.977  33.747   9.170
  352POPC   GL2 9746  16.257  33.952   9.042
  352POPC   C1A 9747  15.882  33.798   8.716
  352POPC   D2A 9748  15.986  33.967   8.307
  352POPC   C3A 9749  15.804  33.768   7.974
  352POPC   C4A 9750  15.845  33.930   7.573
  352POPC   C1B 9751  16.378  33.674   8.761
  352POPC   C2B 9752  16.329  33.564   8.359
  352POPC   C3B 9753  16.287  33.700   7.960
  352POPC   C4B 9754  16.372  33.791   7.585
  353POPC   NC3 9755   6.918  15.253   9.634
  353POPC   PO4 9756   6.440  15.617   9.723
  353POPC   GL1 9757   6.716  15.537   9.260
  353POPC   GL2 9758   6.806  15.204   9.134
  353POPC   C1A 9759   6.600  15.497   8.798
  353POPC   D2A 9760   6.408  15.504   8.390
  353POPC   C3A 9761   6.589  15.305   8.028
  353POPC   C4A 9762   6.438  15.493   7.637
  353POPC   C1B 9763   6.936  14.958   8.778
  353POPC   C2B 9764   6.843  14.801   8.354
  353POPC   C3B 9765   6.900  14.927   7.918
  353POPC   C4B 9766   6.954  14.958   7.502
  354POPC   NC3 9767  24.850   0.655   9.432
  354POPC   PO4 9768  25.351   0.223   9.577
  354POPC   GL1 9769  25.331   0.561   9.244
  354POPC   GL2 9770  25.122   0.347   9.059
  354POPC   C1A 9771  25.229   0.803   8.853
  354POPC   D2A 9772  25.111   0.604   8.469
  354POPC   C3A 9773  25.251   0.838   8.127
  354POPC   C4A 9774  25.306   0.826   7.707
  354POPC   C1B 9775  25.430   0.037   8.897
  354POPC   C2B 9776  25.397  44.861   8.492
  354POPC   C3B 9777  25.166   0.087   8.192
  354POPC   C4B 9778  25.176   0.141   7.789
  355POPC   NC3 9779  13.649   7.158   9.384
  355POPC   PO4 9780  13.805   7.845   9.470
  355POPC   GL1 9781  13.754   7.609   9.081
  355POPC   GL2 9782  13.422   7.505   9.088
  355POPC   C1A 9783  13.691   7.546   8.621
  355POPC   D2A 9784  13.796   7.804   8.236
  355POPC   C3A 9785  13.673   7.634   7.824
  355POPC   C4A 9786  13.816   7.278   7.593
  355POPC   C1B 9787  13.382   7.138   8.808
  355POPC   C2B 9788  13.344   7.110   8.405
  355POPC   C3B 9789  13.564   7.101   8.026
  355POPC   C4B 9790  13.329   7.093   7.658
  356POPC   NC3 9791  16.402   1.347   9.507
  356POPC   PO4 9792  15.717   1.201   9.480
  356POPC   GL1 9793  15.897   1.281   9.132
  356POPC   GL2 9794  16.198   1.081   9.094
  356POPC   C1A 9795  15.717   1.314   8.733
  356POPC   D2A 9796  15.611   1.088   8.386
  356POPC   C3A 9797  15.790   1.265   8.058
  356POPC   C4A 9798  16.191   1.170   7.903
  356POPC   C1B 9799  16.243   1.475   8.823
  356POPC   C2B 9800  16.108   1.516   8.404
  356POPC   C3B 9801  16.112   1.672   7.985
  356POPC   C4B 9802  15.908   1.485   7.610
  357POPC   NC3 9803  19.404   0.641   9.529
  357POPC   PO4 9804  19.171  44.974   9.475
  357POPC   GL1 9805  19.175   0.116   9.034
  357POPC   GL2 9806  19.311   0.414   9.087
  357POPC   C1A 9807  18.894   0.409   8.744
  357POPC   D2A 9808  18.689   0.624   8.377
  357POPC   C3A 9809  18.770   0.342   8.028
  357POPC   C4A 9810  19.074   0.277   7.722
  357POPC   C1B 9811  19.413   0.500   8.690
  357POPC   C2B 9812  19.197   0.511   8.294
  357POPC   C3B 9813  19.022   0.768   7.986
  357POPC   C4B 9814  19.069   0.732   7.528
  358POPC   NC3 9815  25.760  31.463   9.781
  358POPC   PO4 9816  26.174  31.770   9.408
  358POPC   GL1 9817  26.305  31.608   9.066
  358POPC   GL2 9818  26.178  31.315   9.102
  358POPC   C1A 9819  26.187  31.574   8.668
  358POPC   D2A 9820  26.114  31.315   8.418
  358POPC   C3A 9821  26.275  31.323   8.083
  358POPC   C4A 9822  26.149  31.522   7.769
  358POPC   C1B 9823  25.807  31.213   8.805
  358POPC   C2B 9824  25.630  31.147   8.374
  358POPC   C3B 9825  25.819  31.132   7.937
  358POPC   C4B 9826  25.695  31.189   7.472
  359POPC   NC3 9827  39.455  22.289   9.512
  359POPC   PO4 9828  38.845  21.967   9.488
  359POPC   GL1 9829  39.196  21.979   9.202
  359POPC   GL2 9830  39.060  22.297   9.132
  359POPC   C1A 9831  39.396  22.133   8.772
  359POPC   D2A 9832  39.598  22.105   8.348
  359POPC   C3A 9833  39.471  22.287   7.946
  359POPC   C4A 9834  39.386  22.172   7.527
  359POPC   C1B 9835  38.917  21.972   8.789
  359POPC   C2B 9836  39.077  21.999   8.361
  359POPC   C3B 9837  39.094  21.954   7.928
  359POPC   C4B 9838  39.135  21.610   7.735
  360POPC   NC3 9839  24.860  31.227   9.564
  360POPC   PO4 9840  24.637  31.835   9.410
  360POPC   GL1 9841  24.476  31.609   9.096
  360POPC   GL2 9842  24.332  31.333   9.249
  360POPC   C1A 9843  24.441  31.696   8.670
  360POPC   D2A 9844  24.323  31.720   8.251
  360POPC   C3A 9845  24.566  31.761   7.853
  360POPC   C4A 9846  24.516  31.768   7.389
  360POPC   C1B 9847  24.282  31.209   8.827
  360POPC   C2B 9848  24.568  31.203   8.485
  360POPC   C3B 9849  24.501  31.263   8.059
  360POPC   C4B 9850  24.680  31.294   7.667
  361POPC   NC3 9851  10.507   3.006   9.436
  361POPC   PO4 9852  10.650   2.416   9.453
  361POPC   GL1 9853  10.679   2.644   9.092
  361POPC   GL2 9854  10.890   2.875   9.116
  361POPC   C1A 9855  10.384   2.745   8.799
  361POPC   D2A 9856  10.258   2.518   8.465
  361POPC   C3A 9857  10.540   2.672   8.162
  361POPC   C4A 9858  10.479   2.814   7.749
  361POPC   C1B 9859  10.754   3.125   8.792
  361POPC   C2B 9860  10.651   3.157   8.359
  361POPC   C3B 9861  10.791   3.166   7.919
  361POPC   C4B 9862  10.666   3.151   7.418
  362POPC   NC3 9863  31.400  34.798   9.637
  362POPC   PO4 9864  31.440  35.454   9.532
  362POPC   GL1 9865  31.581  35.173   9.228
  362POPC   GL2 9866  31.759  35.464   9.061
  362POPC   C1A 9867  31.596  35.067   8.791
  362POPC   D2A 9868  31.732  35.394   8.504
  362POPC   C3A 9869  31.494  35.318   8.143
  362POPC   C4A 9870  31.255  35.227   7.788
  362POPC   C1B 9871  31.337  35.507   8.877
  362POPC   C2B 9872  31.159  35.505   8.487
  362POPC   C3B 9873  31.085  35.599   8.080
  362POPC   C4B 9874  31.376  35.718   7.803
  363POPC   NC3 9875   9.025  10.082   9.300
  363POPC   PO4 9876   8.760  10.676   9.485
  363POPC   GL1 9877   8.882  10.540   9.125
  363POPC   GL2 9878   9.200  10.685   9.133
  363POPC   C1A 9879   8.662  10.385   8.761
  363POPC   D2A 9880   8.468  10.611   8.437
  363POPC   C3A 9881   8.750  10.663   8.117
  363POPC   C4A 9882   9.077  10.512   7.825
  363POPC   C1B 9883   9.202  10.428   8.755
  363POPC   C2B 9884   9.215  10.423   8.332
  363POPC   C3B 9885   9.252  10.072   8.053
  363POPC   C4B 9886   9.390  10.093   7.616
  364POPC   NC3 9887  19.958   7.530   9.355
  364POPC   PO4 9888  19.257   7.385   9.460
  364POPC   GL1 9889  19.440   7.442   9.033
  364POPC   GL2 9890  19.630   7.733   8.979
  364POPC   C1A 9891  19.674   7.311   8.626
  364POPC   D2A 9892  20.057   7.212   8.374
  364POPC   C3A 9893  19.958   7.173   7.921
  364POPC   C4A 9894  19.664   7.124   7.572
  364POPC   C1B 9895  19.874   7.780   8.628
  364POPC   C2B 9896  19.799   7.640   8.210
  364POPC   C3B 9897  20.011   7.654   7.827
  364POPC   C4B 9898  19.871   7.567   7.404
  365POPC   NC3 9899  11.889  30.751   9.722
  365POPC   PO4 9900  12.354  30.303   9.628
  365POPC   GL1 9901  12.293  30.668   9.375
  365POPC   GL2 9902  11.947  30.669   9.216
  365POPC   C1A 9903  12.379  30.830   8.976
  365POPC   D2A 9904  12.148  30.760   8.619
  365POPC   C3A 9905  12.284  30.884   8.215
  365POPC   C4A 9906  12.133  30.668   7.852
  365POPC   C1B 9907  11.732  30.920   8.908
  365POPC   C2B 9908  11.593  30.760   8.557
  365POPC   C3B 9909  11.807  30.687   8.239
  365POPC   C4B 9910  11.728  30.995   7.949
  366POPC   NC3 9911   8.980   0.143   9.498
  366POPC   PO4 9912   8.760   0.810   9.484
  366POPC   GL1 9913   8.804   0.556   9.158
  366POPC   GL2 9914   9.134   0.565   9.124
  366POPC   C1A 9915   8.789   0.354   8.749
  366POPC   D2A 9916   8.604   0.223   8.364
  366POPC   C3A 9917   8.771   0.399   7.990
  366POPC   C4A 9918   9.067   0.555   7.707
  366POPC   C1B 9919   9.288   0.315   8.794
  366POPC   C2B 9920   9.155   0.416   8.370
  366POPC   C3B 9921   9.321   0.198   8.038
  366POPC   C4B 9922   9.499   0.243   7.639
  367POPC   NC3 9923  42.504   3.000   9.475
  367POPC   PO4 9924  42.183   2.327   9.388
  367POPC   GL1 9925  42.374   2.615   9.162
  367POPC   GL2 9926  42.177   2.845   9.055
  367POPC   C1A 9927  42.565   2.725   8.755
  367POPC   D2A 9928  42.446   2.470   8.400
  367POPC   C3A 9929  42.386   2.744   8.045
  367POPC   C4A 9930  42.541   2.883   7.647
  367POPC   C1B 9931  42.089   2.804   8.599
  367POPC   C2B 9932  41.786   2.858   8.275
  367POPC   C3B 9933  41.764   3.125   7.951
  367POPC   C4B 9934  42.015   2.900   7.683
  368POPC   NC3 9935  43.176  13.259   9.662
  368POPC   PO4 9936  42.769  12.696   9.577
  368POPC   GL1 9937  42.796  12.732   9.180
  368POPC   GL2 9938  42.916  13.073   9.195
  368POPC   C1A 9939  42.950  12.613   8.781
  368POPC   D2A 9940  43.184  12.729   8.423
  368POPC   C3A 9941  42.994  13.030   8.184
  368POPC   C4A 9942  42.872  13.094   7.779
  368POPC   C1B 9943  43.350  13.194   8.998
  368POPC   C2B 9944  43.565  13.302   8.598
  368POPC   C3B 9945  43.577  13.049   8.211
  368POPC   C4B 9946  43.360  13.158   7.843
  369POPC   NC3 9947  13.179  18.130   9.545
  369POPC   PO4 9948  13.747  18.518   9.446
  369POPC   GL1 9949  13.426  18.378   9.162
  369POPC   GL2 9950  13.438  18.036   9.087
  369POPC   C1A 9951  13.431  18.371   8.712
  369POPC   D2A 9952  13.720  18.519   8.443
  369POPC   C3A 9953  13.532  18.509   8.070
  369POPC   C4A 9954  13.726  18.579   7.724
  369POPC   C1B 9955  13.794  18.054   8.822
  369POPC   C2B 9956  13.913  18.044   8.403
  369POPC   C3B 9957  13.891  18.093   7.985
  369POPC   C4B 9958  13.954  17.670   7.820
  370POPC   NC3 9959  13.056  21.726   9.365
  370POPC   PO4 9960  12.745  22.355   9.473
  370POPC   GL1 9961  12.595  22.170   9.102
  370POPC   GL2 9962  12.497  21.808   9.170
  370POPC   C1A 9963  12.667  22.280   8.659
  370POPC   D2A 9964  13.022  22.170   8.366
  370POPC   C3A 9965  13.007  22.384   7.968
  370POPC   C4A 9966  12.605  22.460   7.736
  370POPC   C1B 9967  12.683  21.781   8.779
  370POPC   C2B 9968  12.613  21.841   8.348
  370POPC   C3B 9969  12.661  22.001   7.939
  370POPC   C4B 9970  13.068  21.927   7.747
  371POPC   NC3 9971   3.113   2.599   9.457
  371POPC   PO4 9972   2.644   3.130   9.492
  371POPC   GL1 9973   2.659   2.935   9.085
  371POPC   GL2 9974   2.787   2.603   9.067
  371POPC   C1A 9975   2.527   2.796   8.677
  371POPC   D2A 9976   2.843   2.810   8.416
  371POPC   C3A 9977   2.735   2.690   8.019
  371POPC   C4A 9978   2.533   2.784   7.634
  371POPC   C1B 9979   2.772   2.348   8.705
  371POPC   C2B 9980   2.571   2.253   8.321
  371POPC   C3B 9981   2.820   2.192   7.963
  371POPC   C4B 9982   2.920   2.427   7.612
  372POPC   NC3 9983  10.178  30.901   9.510
  372POPC   PO4 9984  10.587  30.423   9.515
  372POPC   GL1 9985  10.483  30.626   9.140
  372POPC   GL2 9986  10.518  30.987   9.127
  372POPC   C1A 9987  10.293  30.577   8.747
  372POPC   D2A 9988  10.144  30.711   8.362
  372POPC   C3A 9989  10.281  30.538   7.946
  372POPC   C4A 9990  10.132  30.328   7.548
  372POPC   C1B 9991  10.678  30.924   8.692
  372POPC   C2B 9992  10.601  30.930   8.219
  372POPC   C3B 9993  10.568  30.932   7.753
  372POPC   C4B 9994  10.812  30.915   7.366
  373POPC   NC3 9995   8.673  34.798   9.368
  373POPC   PO4 9996   9.285  34.529   9.550
  373POPC   GL1 9997   9.171  34.738   9.159
  373POPC   GL2 9998   8.907  34.465   9.069
  373POPC   C1A 9999   9.082  34.779   8.705
  373POPC   D2A10000   8.859  34.463   8.406
  373POPC   C3A10001   8.937  34.471   7.993
  373POPC   C4A10002   8.960  34.822   7.759
  373POPC   C1B10003   8.632  34.184   8.831
  373POPC   C2B10004   8.532  34.060   8.405
  373POPC   C3B10005   8.418  34.365   8.127
  373POPC   C4B10006   8.505  34.371   7.724
  374POPC   NC310007   6.695  32.463   9.604
  374POPC   PO410008   6.319  31.881   9.697
  374POPC   GL110009   6.383  32.071   9.286
  374POPC   GL210010   6.688  32.219   9.187
  374POPC   C1A10011   6.416  32.072   8.815
  374POPC   D2A10012   6.561  32.246   8.447
  374POPC   C3A10013   6.385  32.378   8.106
  374POPC   C4A10014   6.652  32.472   7.774
  374POPC   C1B10015   6.858  32.383   8.826
  374POPC   C2B10016   7.077  32.212   8.469
  374POPC   C3B10017   7.081  32.246   8.022
  374POPC   C4B10018   6.981  32.059   7.655
  375POPC   NC310019  35.723  13.910   9.328
  375POPC   PO410020  35.398  13.411   9.639
  375POPC   GL110021  35.124  13.488   9.191
  375POPC   GL210022  35.418  13.631   9.027
  375POPC   C1A10023  35.014  13.609   8.735
  375POPC   D2A10024  35.263  13.531   8.359
  375POPC   C3A10025  35.123  13.486   7.923
  375POPC   C4A10026  35.169  13.677   7.512
  375POPC   C1B10027  35.577  13.899   8.712
  375POPC   C2B10028  35.725  13.786   8.343
  375POPC   C3B10029  35.503  13.831   8.000
  375POPC   C4B10030  35.715  13.964   7.691
  376POPC   NC310031  10.462  35.585   9.501
  376POPC   PO410032   9.942  35.192   9.393
  376POPC   GL110033  10.324  35.251   9.121
  376POPC   GL210034  10.567  35.528   8.982
  376POPC   C1A10035  10.525  35.085   8.753
  376POPC   D2A10036  10.687  35.285   8.394
  376POPC   C3A10037  10.506  35.171   8.010
  376POPC   C4A10038  10.250  35.367   7.748
  376POPC   C1B10039  10.940  35.591   8.708
  376POPC   C2B10040  11.032  35.704   8.294
  376POPC   C3B10041  10.700  35.665   8.014
  376POPC   C4B10042  10.735  35.457   7.620
  377POPC   NC310043  36.827  21.779   9.576
  377POPC   PO410044  36.542  22.400   9.464
  377POPC   GL110045  36.826  22.266   9.127
  377POPC   GL210046  37.199  22.423   9.064
  377POPC   C1A10047  36.675  21.953   8.838
  377POPC   D2A10048  36.519  21.898   8.417
  377POPC   C3A10049  36.724  21.968   8.020
  377POPC   C4A10050  36.462  22.142   7.708
  377POPC   C1B10051  37.149  22.113   8.763
  377POPC   C2B10052  37.217  21.969   8.381
  377POPC   C3B10053  37.360  22.125   8.021
  377POPC   C4B10054  37.304  22.527   7.857
  378POPC   NC310055  37.141  35.567   9.521
  378POPC   PO410056  36.533  35.136   9.438
  378POPC   GL110057  36.768  35.176   9.096
  378POPC   GL210058  37.074  35.332   9.097
  378POPC   C1A10059  36.768  35.383   8.707
  378POPC   D2A10060  36.979  35.334   8.362
  378POPC   C3A10061  36.755  35.236   8.044
  378POPC   C4A10062  36.924  35.195   7.668
  378POPC   C1B10063  37.255  35.560   8.744
  378POPC   C2B10064  37.237  35.753   8.320
  378POPC   C3B10065  37.275  35.552   7.928
  378POPC   C4B10066  37.228  35.582   7.457
  379POPC   NC310067  16.789   5.210   9.850
  379POPC   PO410068  16.515   4.859   9.317
  379POPC   GL110069  16.730   5.089   9.032
  379POPC   GL210070  17.073   5.196   9.040
  379POPC   C1A10071  16.634   5.188   8.662
  379POPC   D2A10072  16.637   5.301   8.248
  379POPC   C3A10073  16.693   5.004   7.938
  379POPC   C4A10074  16.473   4.696   7.704
  379POPC   C1B10075  17.225   5.282   8.642
  379POPC   C2B10076  17.118   5.487   8.224
  379POPC   C3B10077  17.005   5.397   7.793
  379POPC   C4B10078  17.171   5.127   7.452
  380POPC   NC310079  39.488  13.423   9.419
  380POPC   PO410080  40.182  13.541   9.413
  380POPC   GL110081  39.910  13.543   9.117
  380POPC   GL210082  39.688  13.844   9.200
  380POPC   C1A10083  40.056  13.412   8.709
  380POPC   D2A10084  40.189  13.591   8.323
  380POPC   C3A10085  40.014  13.467   7.949
  380POPC   C4A10086  39.908  13.720   7.588
  380POPC   C1B10087  39.914  13.915   8.792
  380POPC   C2B10088  39.927  14.034   8.377
  380POPC   C3B10089  39.727  13.922   8.022
  380POPC   C4B10090  39.439  13.855   7.700
  381POPC   NC310091  37.756  41.529   9.719
  381POPC   PO410092  37.376  41.234   9.233
  381POPC   GL110093  37.811  41.415   9.214
  381POPC   GL210094  37.832  41.792   9.263
  381POPC   C1A10095  38.007  41.526   8.827
  381POPC   D2A10096  38.050  41.333   8.396
  381POPC   C3A10097  37.863  41.460   7.984
  381POPC   C4A10098  37.543  41.256   7.708
  381POPC   C1B10099  37.567  41.801   8.870
  381POPC   C2B10100  37.487  41.977   8.422
  381POPC   C3B10101  37.530  42.134   7.994
  381POPC   C4B10102  37.880  41.957   7.755
  382POPC   NC310103   0.787   3.315   9.520
  382POPC   PO410104   0.512   3.951   9.385
  382POPC   GL110105   0.416   3.554   9.214
  382POPC   GL210106   0.061   3.376   9.272
  382POPC   C1A10107   0.590   3.478   8.814
  382POPC   D2A10108   0.598   3.313   8.384
  382POPC   C3A10109   0.443   3.637   8.104
  382POPC   C4A10110   0.571   3.732   7.689
  382POPC   C1B10111   0.142   3.223   8.881
  382POPC   C2B10112   0.125   3.426   8.519
  382POPC   C3B10113   0.138   3.238   8.139
  382POPC   C4B10114   0.055   3.263   7.716
  383POPC   NC310115  28.944   6.035   9.431
  383POPC   PO410116  29.400   5.586   9.281
  383POPC   GL110117  29.104   5.716   9.057
  383POPC   GL210118  28.790   5.632   9.168
  383POPC   C1A10119  29.022   5.577   8.682
  383POPC   D2A10120  29.021   5.826   8.335
  383POPC   C3A10121  29.110   5.631   7.972
  383POPC   C4A10122  29.305   5.934   7.807
  383POPC   C1B10123  28.717   5.959   8.789
  383POPC   C2B10124  28.594   6.090   8.328
  383POPC   C3B10125  28.807   6.075   7.915
  383POPC   C4B10126  28.874   5.973   7.490
  384POPC   NC310127   1.513   0.528   9.709
  384POPC   PO410128   1.066   1.025   9.485
  384POPC   GL110129   1.212   1.093   9.102
  384POPC   GL210130   1.438   1.370   9.092
  384POPC   C1A10131   1.299   1.032   8.680
  384POPC   D2A10132   1.356   0.884   8.279
  384POPC   C3A10133   1.146   1.094   8.009
  384POPC   C4A10134   1.293   1.188   7.649
  384POPC   C1B10135   1.489   1.737   8.814
  384POPC   C2B10136   1.336   1.834   8.387
  384POPC   C3B10137   1.339   1.594   7.995
  384POPC   C4B10138   1.522   1.614   7.577
  385POPC   NC310139  17.322  30.993   9.547
  385POPC   PO410140  17.210  30.299   9.452
  385POPC   GL110141  17.561  30.557   9.250
  385POPC   GL210142  17.708  30.864   9.195
  385POPC   C1A10143  17.679  30.527   8.785
  385POPC   D2A10144  17.667  30.441   8.318
  385POPC   C3A10145  17.454  30.743   8.022
  385POPC   C4A10146  17.276  30.728   7.587
  385POPC   C1B10147  17.817  31.020   8.785
  385POPC   C2B10148  17.765  30.931   8.373
  385POPC   C3B10149  17.873  30.995   7.938
  385POPC   C4B10150  17.681  31.170   7.568
  386POPC   NC310151  19.586  36.554   9.624
  386POPC   PO410152  18.948  36.873   9.588
  386POPC   GL110153  19.027  36.973   9.171
  386POPC   GL210154  19.422  36.996   9.178
  386POPC   C1A10155  18.757  36.933   8.787
  386POPC   D2A10156  18.705  36.678   8.380
  386POPC   C3A10157  18.801  36.830   7.972
  386POPC   C4A10158  18.950  36.992   7.599
  386POPC   C1B10159  19.512  36.805   8.798
  386POPC   C2B10160  19.483  37.028   8.407
  386POPC   C3B10161  19.298  36.964   8.026
  386POPC   C4B10162  19.497  36.992   7.661
  387POPC   NC310163   3.239   4.118   9.561
  387POPC   PO410164   3.728   4.639   9.515
  387POPC   GL110165   3.543   4.318   9.199
  387POPC   GL210166   3.237   4.105   9.068
  387POPC   C1A10167   3.629   4.240   8.769
  387POPC   D2A10168   3.650   4.563   8.442
  387POPC   C3A10169   3.454   4.497   8.050
  387POPC   C4A10170   3.511   4.292   7.688
  387POPC   C1B10171   2.986   4.196   8.741
  387POPC   C2B10172   3.258   4.202   8.417
  387POPC   C3B10173   3.274   4.010   8.040
  387POPC   C4B10174   2.982   4.188   7.777
  388POPC   NC310175  15.256  13.025   9.442
  388POPC   PO410176  15.026  12.417   9.458
  388POPC   GL110177  15.251  12.615   9.116
  388POPC   GL210178  15.536  12.875   9.030
  388POPC   C1A10179  15.061  12.852   8.796
  388POPC   D2A10180  14.848  12.706   8.457
  388POPC   C3A10181  14.972  12.721   8.066
  388POPC   C4A10182  14.974  12.494   7.698
  388POPC   C1B10183  15.501  12.557   8.683
  388POPC   C2B10184  15.558  12.468   8.257
  388POPC   C3B10185  15.443  12.710   7.888
  388POPC   C4B10186  15.614  13.081   7.694
  389POPC   NC310187   8.468   6.743   9.445
  389POPC   PO410188   7.836   6.674   9.737
  389POPC   GL110189   7.962   6.747   9.268
  389POPC   GL210190   8.163   6.471   9.123
  389POPC   C1A10191   8.128   6.904   8.841
  389POPC   D2A10192   8.289   6.834   8.412
  389POPC   C3A10193   8.003   6.829   8.062
  389POPC   C4A10194   7.819   6.530   7.793
  389POPC   C1B10195   8.404   6.442   8.717
  389POPC   C2B10196   8.386   6.285   8.287
  389POPC   C3B10197   8.341   6.403   7.843
  389POPC   C4B10198   8.468   6.396   7.382
  390POPC   NC310199  21.750  33.589   9.385
  390POPC   PO410200  22.281  34.086   9.511
  390POPC   GL110201  22.165  33.830   9.155
  390POPC   GL210202  21.853  34.012   9.130
  390POPC   C1A10203  22.234  33.561   8.754
  390POPC   D2A10204  22.447  33.663   8.365
  390POPC   C3A10205  22.104  33.723   8.122
  390POPC   C4A10206  22.006  33.705   7.720
  390POPC   C1B10207  21.938  33.992   8.710
  390POPC   C2B10208  21.818  34.255   8.378
  390POPC   C3B10209  21.797  34.114   7.963
  390POPC   C4B10210  21.821  34.137   7.503
  391POPC   NC310211   2.381  43.271   9.396
  391POPC   PO410212   1.906  42.805   9.557
  391POPC   GL110213   2.063  42.907   9.155
  391POPC   GL210214   1.996  43.252   9.019
  391POPC   C1A10215   2.243  42.827   8.752
  391POPC   D2A10216   2.439  43.065   8.421
  391POPC   C3A10217   2.345  42.970   8.019
  391POPC   C4A10218   2.352  43.130   7.663
  391POPC   C1B10219   1.655  43.432   8.731
  391POPC   C2B10220   1.693  43.491   8.292
  391POPC   C3B10221   2.028  43.382   8.039
  391POPC   C4B10222   1.867  43.241   7.669
  392POPC   NC310223   4.967  20.642   9.268
  392POPC   PO410224   5.249  20.052   9.466
  392POPC   GL110225   5.323  20.261   9.043
  392POPC   GL210226   5.032  20.337   8.846
  392POPC   C1A10227   5.454  20.353   8.582
  392POPC   D2A10228   5.414  20.751   8.346
  392POPC   C3A10229   5.097  20.683   8.058
  392POPC   C4A10230   5.037  20.402   7.736
  392POPC   C1B10231   4.924  20.663   8.577
  392POPC   C2B10232   4.632  20.553   8.279
  392POPC   C3B10233   4.589  20.620   7.868
  392POPC   C4B10234   4.854  20.886   7.645
  393POPC   NC310235  27.587  21.235   9.467
  393POPC   PO410236  27.035  21.033   9.537
  393POPC   GL110237  27.251  20.978   9.120
  393POPC   GL210238  27.590  20.965   9.041
  393POPC   C1A10239  27.319  21.115   8.651
  393POPC   D2A10240  27.678  21.258   8.378
  393POPC   C3A10241  27.541  21.313   7.932
  393POPC   C4A10242  27.167  21.472   7.675
  393POPC   C1B10243  27.702  20.796   8.646
  393POPC   C2B10244  27.546  20.805   8.211
  393POPC   C3B10245  27.834  20.872   7.881
  393POPC   C4B10246  27.956  21.195   7.589
  394POPC   NC310247  22.476   0.713   9.472
  394POPC   PO410248  22.934   0.240   9.357
  394POPC   GL110249  22.758   0.553   9.082
  394POPC   GL210250  22.899   0.882   9.165
  394POPC   C1A10251  22.723   0.478   8.658
  394POPC   D2A10252  22.955   0.090   8.445
  394POPC   C3A10253  23.001   0.165   7.992
  394POPC   C4A10254  22.788   0.283   7.590
  394POPC   C1B10255  23.120   0.752   8.785
  394POPC   C2B10256  23.132   0.549   8.348
  394POPC   C3B10257  23.011   0.686   7.952
  394POPC   C4B10258  23.129   0.669   7.530
  395POPC   NC310259  11.486  43.849   9.452
  395POPC   PO410260  10.921  44.162   9.338
  395POPC   GL110261  11.009  43.825   9.089
  395POPC   GL210262  11.313  43.908   9.004
  395POPC   C1A10263  11.009  43.817   8.627
  395POPC   D2A10264  11.182  44.105   8.365
  395POPC   C3A10265  11.204  44.009   7.939
  395POPC   C4A10266  11.044  43.651   7.755
  395POPC   C1B10267  11.555  43.879   8.676
  395POPC   C2B10268  11.555  43.732   8.279
  395POPC   C3B10269  11.874  43.981   8.082
  395POPC   C4B10270  11.756  44.206   7.749
  396POPC   NC310271   5.639  36.214   9.698
  396POPC   PO410272   6.182  35.991   9.504
  396POPC   GL110273   5.820  35.947   9.237
  396POPC   GL210274   5.597  36.234   9.172
  396POPC   C1A10275   5.705  35.893   8.806
  396POPC   D2A10276   5.818  35.814   8.392
  396POPC   C3A10277   6.154  35.827   8.093
  396POPC   C4A10278   6.094  35.885   7.627
  396POPC   C1B10279   5.614  36.509   8.781
  396POPC   C2B10280   5.665  36.310   8.374
  396POPC   C3B10281   5.738  36.093   7.980
  396POPC   C4B10282   5.621  36.133   7.582
  397POPC   NC310283  17.619   0.897   9.580
  397POPC   PO410284  17.439   1.556   9.531
  397POPC   GL110285  17.646   1.452   9.163
  397POPC   GL210286  17.652   1.129   9.143
  397POPC   C1A10287  17.694   1.520   8.730
  397POPC   D2A10288  17.431   1.492   8.372
  397POPC   C3A10289  17.600   1.284   8.008
  397POPC   C4A10290  17.532   1.351   7.580
  397POPC   C1B10291  17.454   1.051   8.763
  397POPC   C2B10292  17.265   1.012   8.376
  397POPC   C3B10293  17.166   0.993   7.970
  397POPC   C4B10294  17.438   0.765   7.782
  398POPC   NC310295  35.852  25.963   9.585
  398POPC   PO410296  35.382  26.357   9.326
  398POPC   GL110297  35.337  26.163   8.950
  398POPC   GL210298  35.689  26.110   8.992
  398POPC   C1A10299  35.204  25.953   8.570
  398POPC   D2A10300  35.498  26.049   8.217
  398POPC   C3A10301  35.301  26.219   7.851
  398POPC   C4A10302  35.079  25.981   7.540
  398POPC   C1B10303  35.675  25.832   8.673
  398POPC   C2B10304  35.764  25.603   8.314
  398POPC   C3B10305  35.633  25.657   7.869
  398POPC   C4B10306  35.497  25.672   7.415
  399POPC   NC310307  38.289  36.515   9.429
  399POPC   PO410308  38.664  36.947   9.728
  399POPC   GL110309  38.597  37.102   9.238
  399POPC   GL210310  38.460  36.815   9.075
  399POPC   C1A10311  38.684  37.100   8.751
  399POPC   D2A10312  38.357  36.978   8.438
  399POPC   C3A10313  38.568  36.890   8.077
  399POPC   C4A10314  38.714  37.023   7.683
  399POPC   C1B10315  38.143  36.667   8.800
  399POPC   C2B10316  38.095  36.495   8.411
  399POPC   C3B10317  38.113  36.670   8.016
  399POPC   C4B10318  38.237  36.882   7.672
  400POPC   NC310319  42.673   5.723   9.711
  400POPC   PO410320  42.358   6.300   9.546
  400POPC   GL110321  42.518   6.111   9.156
  400POPC   GL210322  42.724   5.821   9.215
  400POPC   C1A10323  42.381   5.855   8.769
  400POPC   D2A10324  42.119   5.628   8.420
  400POPC   C3A10325  42.252   5.752   7.995
  400POPC   C4A10326  42.420   6.120   7.779
  400POPC   C1B10327  42.828   5.564   8.851
  400POPC   C2B10328  42.659   5.457   8.446
  400POPC   C3B10329  42.782   5.526   8.028
  400POPC   C4B10330  42.596   5.513   7.644
  401POPC   NC310331  40.153  10.335   9.524
  401POPC   PO410332  39.678  10.841   9.667
  401POPC   GL110333  39.971  10.726   9.237
  401POPC   GL210334  39.907  10.337   9.098
  401POPC   C1A10335  39.981  10.688   8.758
  401POPC   D2A10336  39.646  10.425   8.549
  401POPC   C3A10337  39.609  10.527   8.117
  401POPC   C4A10338  39.836  10.662   7.718
  401POPC   C1B10339  40.076  10.187   8.735
  401POPC   C2B10340  40.222  10.351   8.367
  401POPC   C3B10341  40.068  10.302   7.966
  401POPC   C4B10342  39.964  10.168   7.517
  402POPC   NC310343  18.182   4.306   9.505
  402POPC   PO410344  18.323   3.704   9.713
  402POPC   GL110345  18.210   3.839   9.237
  402POPC   GL210346  17.963   4.122   9.089
  402POPC   C1A10347  18.243   3.812   8.785
  402POPC   D2A10348  18.383   4.104   8.444
  402POPC   C3A10349  18.562   3.977   8.021
  402POPC   C4A10350  18.622   3.878   7.573
  402POPC   C1B10351  18.104   4.499   8.849
  402POPC   C2B10352  18.062   4.633   8.415
  402POPC   C3B10353  18.251   4.426   8.072
  402POPC   C4B10354  18.274   4.307   7.658
  403POPC   NC310355  42.818  20.201   9.456
  403POPC   PO410356  43.187  19.631   9.530
  403POPC   GL110357  43.172  19.774   9.137
  403POPC   GL210358  42.854  19.665   9.075
  403POPC   C1A10359  43.428  19.778   8.758
  403POPC   D2A10360  43.579  19.639   8.361
  403POPC   C3A10361  43.383  19.762   8.007
  403POPC   C4A10362  42.979  19.632   7.819
  403POPC   C1B10363  42.935  19.910   8.677
  403POPC   C2B10364  43.160  20.100   8.324
  403POPC   C3B10365  43.043  20.125   7.872
  403POPC   C4B10366  42.932  20.000   7.398
  404POPC   NC310367  35.131   0.905   9.485
  404POPC   PO410368  34.535   0.848   9.446
  404POPC   GL110369  34.562   0.483   9.164
  404POPC   GL210370  34.249   0.462   8.982
  404POPC   C1A10371  34.687   0.502   8.726
  404POPC   D2A10372  34.630   0.757   8.330
  404POPC   C3A10373  34.868   0.614   7.960
  404POPC   C4A10374  34.906   0.251   7.666
  404POPC   C1B10375  34.262   0.156   8.641
  404POPC   C2B10376  34.567   0.246   8.299
  404POPC   C3B10377  34.443   0.300   7.907
  404POPC   C4B10378  34.174  44.944   7.871
  405POPC   NC310379  34.283  44.158   9.430
  405POPC   PO410380  34.790  43.748   9.695
  405POPC   GL110381  34.709  43.885   9.257
  405POPC   GL210382  34.829  44.190   9.203
  405POPC   C1A10383  34.518  43.965   8.814
  405POPC   D2A10384  34.678  43.874   8.379
  405POPC   C3A10385  34.365  43.924   8.036
  405POPC   C4A10386  34.263  43.694   7.637
  405POPC   C1B10387  35.003  44.111   8.793
  405POPC   C2B10388  34.970  44.298   8.381
  405POPC   C3B10389  34.840  44.171   7.978
  405POPC   C4B10390  34.789  43.744   7.792
  406POPC   NC310391  20.312  34.980   9.344
  406POPC   PO410392  19.717  34.693   9.406
  406POPC   GL110393  19.805  34.416   9.045
  406POPC   GL210394  20.139  34.316   9.194
  406POPC   C1A10395  19.641  34.498   8.608
  406POPC   D2A10396  19.633  34.870   8.292
  406POPC   C3A10397  19.586  34.767   7.857
  406POPC   C4A10398  19.667  34.357   7.703
  406POPC   C1B10399  20.201  34.359   8.745
  406POPC   C2B10400  19.945  34.102   8.486
  406POPC   C3B10401  19.892  34.393   8.148
  406POPC   C4B10402  20.120  34.665   7.856
  407POPC   NC310403   8.854  18.666   9.268
  407POPC   PO410404   9.225  18.061   9.554
  407POPC   GL110405   9.097  18.245   9.134
  407POPC   GL210406   8.761  18.260   8.984
  407POPC   C1A10407   9.176  18.422   8.700
  407POPC   D2A10408   9.355  18.211   8.377
  407POPC   C3A10409   9.370  18.408   8.013
  407POPC   C4A10410   9.208  18.218   7.653
  407POPC   C1B10411   8.715  18.628   8.633
  407POPC   C2B10412   8.875  18.682   8.183
  407POPC   C3B10413   8.710  18.523   7.775
  407POPC   C4B10414   8.490  18.619   7.390
  408POPC   NC310415  37.747  39.567   9.590
  408POPC   PO410416  37.447  38.979   9.715
  408POPC   GL110417  37.571  39.192   9.289
  408POPC   GL210418  37.923  39.311   9.155
  408POPC   C1A10419  37.518  39.221   8.812
  408POPC   D2A10420  37.774  39.078   8.410
  408POPC   C3A10421  37.785  38.932   7.950
  408POPC   C4A10422  37.950  38.661   7.584
  408POPC   C1B10423  37.910  39.514   8.745
  408POPC   C2B10424  37.871  39.571   8.296
  408POPC   C3B10425  37.684  39.439   7.901
  408POPC   C4B10426  37.460  39.511   7.519
  409POPC   NC310427  15.072   3.360   9.523
  409POPC   PO410428  15.142   3.961   9.410
  409POPC   GL110429  15.171   3.673   9.090
  409POPC   GL210430  15.429   3.439   9.153
  409POPC   C1A10431  15.332   3.712   8.662
  409POPC   D2A10432  15.263   3.767   8.224
  409POPC   C3A10433  15.202   3.488   7.924
  409POPC   C4A10434  14.796   3.431   7.825
  409POPC   C1B10435  15.577   3.263   8.784
  409POPC   C2B10436  15.413   3.265   8.364
  409POPC   C3B10437  15.498   3.075   7.966
  409POPC   C4B10438  15.524   3.235   7.555
  410POPC   NC310439  15.727  14.613   9.543
  410POPC   PO410440  16.262  14.372   9.380
  410POPC   GL110441  15.895  14.165   9.137
  410POPC   GL210442  15.758  13.819   9.213
  410POPC   C1A10443  15.694  14.327   8.770
  410POPC   D2A10444  15.844  14.414   8.316
  410POPC   C3A10445  15.984  14.288   7.879
  410POPC   C4A10446  15.915  14.106   7.463
  410POPC   C1B10447  15.543  13.829   8.830
  410POPC   C2B10448  15.577  13.988   8.424
  410POPC   C3B10449  15.589  13.989   8.009
  410POPC   C4B10450  15.479  14.293   7.724
  411POPC   NC310451  12.255   9.053   9.385
  411POPC   PO410452  11.620   9.228   9.297
  411POPC   GL110453  11.870   8.894   9.037
  411POPC   GL210454  12.240   8.760   8.981
  411POPC   C1A10455  11.842   8.784   8.607
  411POPC   D2A10456  12.023   9.064   8.343
  411POPC   C3A10457  11.834   9.162   7.967
  411POPC   C4A10458  12.013   9.354   7.598
  411POPC   C1B10459  12.378   8.762   8.601
  411POPC   C2B10460  12.263   8.575   8.237
  411POPC   C3B10461  12.244   8.843   7.935
  411POPC   C4B10462  12.337   9.295   7.999
  412POPC   NC310463   6.326  35.761   9.130
  412POPC   PO410464   6.544  35.181   9.478
  412POPC   GL110465   6.669  35.277   9.016
  412POPC   GL210466   6.788  35.614   8.961
  412POPC   C1A10467   6.522  35.373   8.600
  412POPC   D2A10468   6.204  35.352   8.300
  412POPC   C3A10469   6.340  35.055   8.022
  412POPC   C4A10470   6.619  35.323   7.811
  412POPC   C1B10471   6.927  35.763   8.580
  412POPC   C2B10472   6.889  35.620   8.172
  412POPC   C3B10473   7.050  35.650   7.783
  412POPC   C4B10474   6.913  35.840   7.400
  413POPC   NC310475   9.742  22.259   9.560
  413POPC   PO410476   9.711  21.602   9.835
  413POPC   GL110477   9.634  21.852   9.315
  413POPC   GL210478   9.811  22.199   9.089
  413POPC   C1A10479   9.570  21.871   8.846
  413POPC   D2A10480   9.818  21.775   8.509
  413POPC   C3A10481   9.708  21.994   8.170
  413POPC   C4A10482   9.680  22.081   7.764
  413POPC   C1B10483   9.895  22.459   8.717
  413POPC   C2B10484   9.796  22.453   8.310
  413POPC   C3B10485   9.426  22.454   8.024
  413POPC   C4B10486   9.482  22.511   7.569
  414POPC   NC310487  35.787  21.109   9.289
  414POPC   PO410488  35.141  21.038   9.527
  414POPC   GL110489  35.280  21.373   9.210
  414POPC   GL210490  35.598  21.524   9.104
  414POPC   C1A10491  35.169  21.362   8.771
  414POPC   D2A10492  35.359  21.200   8.399
  414POPC   C3A10493  35.270  21.456   8.051
  414POPC   C4A10494  35.315  21.346   7.628
  414POPC   C1B10495  35.670  21.418   8.728
  414POPC   C2B10496  35.561  21.668   8.404
  414POPC   C3B10497  35.605  21.883   8.062
  414POPC   C4B10498  35.723  21.627   7.742
  415POPC   NC310499   6.253  22.721   9.498
  415POPC   PO410500   6.876  23.011   9.611
  415POPC   GL110501   6.767  22.774   9.243
  415POPC   GL210502   7.085  22.743   9.188
  415POPC   C1A10503   6.594  22.785   8.806
  415POPC   D2A10504   6.653  23.106   8.465
  415POPC   C3A10505   6.507  22.978   8.044
  415POPC   C4A10506   6.276  23.006   7.638
  415POPC   C1B10507   7.092  22.754   8.752
  415POPC   C2B10508   6.994  22.761   8.319
  415POPC   C3B10509   7.012  22.933   7.922
  415POPC   C4B10510   6.785  23.071   7.585
  416POPC   NC310511  40.752   4.791   9.407
  416POPC   PO410512  40.461   4.228   9.647
  416POPC   GL110513  40.497   4.068   9.241
  416POPC   GL210514  40.244   3.843   9.145
  416POPC   C1A10515  40.780   4.225   8.931
  416POPC   D2A10516  40.820   4.473   8.562
  416POPC   C3A10517  40.903   4.328   8.148
  416POPC   C4A10518  40.909   4.489   7.727
  416POPC   C1B10519  40.563   3.775   8.813
  416POPC   C2B10520  40.741   3.947   8.499
  416POPC   C3B10521  40.719   3.861   8.096
  416POPC   C4B10522  40.637   4.032   7.720
  417POPC   NC310523  30.999   4.815   9.817
  417POPC   PO410524  30.561   5.140   9.380
  417POPC   GL110525  30.513   5.267   9.016
  417POPC   GL210526  30.780   5.478   8.930
  417POPC   C1A10527  30.511   5.145   8.600
  417POPC   D2A10528  30.745   5.106   8.242
  417POPC   C3A10529  30.481   4.894   8.025
  417POPC   C4A10530  30.350   5.043   7.638
  417POPC   C1B10531  31.026   5.234   8.675
  417POPC   C2B10532  31.235   5.022   8.371
  417POPC   C3B10533  31.114   4.818   7.998
  417POPC   C4B10534  30.870   4.992   7.695
  418POPC   NC310535  37.929   9.584   9.589
  418POPC   PO410536  37.364   9.470   9.214
  418POPC   GL110537  37.797   9.598   9.067
  418POPC   GL210538  37.976   9.901   9.181
  418POPC   C1A10539  37.733   9.548   8.656
  418POPC   D2A10540  37.389   9.697   8.375
  418POPC   C3A10541  37.462   9.501   7.995
  418POPC   C4A10542  37.914   9.480   7.898
  418POPC   C1B10543  37.849  10.031   8.751
  418POPC   C2B10544  37.908   9.860   8.307
  418POPC   C3B10545  37.699   9.956   7.930
  418POPC   C4B10546  37.874  10.235   7.647
  419POPC   NC310547  40.769  39.955   9.557
  419POPC   PO410548  40.377  40.486   9.471
  419POPC   GL110549  40.519  40.167   9.149
  419POPC   GL210550  40.697  39.843   9.071
  419POPC   C1A10551  40.696  40.214   8.722
  419POPC   D2A10552  40.841  40.321   8.300
  419POPC   C3A10553  40.829  40.045   7.957
  419POPC   C4A10554  40.656  39.664   7.897
  419POPC   C1B10555  41.074  39.882   8.796
  419POPC   C2B10556  41.207  39.956   8.353
  419POPC   C3B10557  41.258  39.757   7.930
  419POPC   C4B10558  41.122  39.764   7.519
  420POPC   NC310559   4.625  34.942   9.361
  420POPC   PO410560   5.005  34.417   9.457
  420POPC   GL110561   5.171  34.690   9.169
  420POPC   GL210562   5.365  34.410   9.085
  420POPC   C1A10563   5.029  34.746   8.755
  420POPC   D2A10564   4.845  34.495   8.418
  420POPC   C3A10565   5.032  34.669   8.069
  420POPC   C4A10566   4.953  34.765   7.650
  420POPC   C1B10567   5.369  34.214   8.727
  420POPC   C2B10568   5.329  34.294   8.330
  420POPC   C3B10569   5.286  34.255   7.921
  420POPC   C4B10570   4.898  34.264   7.783
  421POPC   NC310571  41.567   3.275   9.512
  421POPC   PO410572  41.336   3.929   9.560
  421POPC   GL110573  41.410   3.663   9.198
  421POPC   GL210574  41.187   3.379   9.222
  421POPC   C1A10575  41.595   3.477   8.838
  421POPC   D2A10576  41.756   3.329   8.449
  421POPC   C3A10577  41.907   3.582   8.108
  421POPC   C4A10578  41.660   3.609   7.754
  421POPC   C1B10579  41.107   3.312   8.827
  421POPC   C2B10580  41.244   3.423   8.433
  421POPC   C3B10581  41.218   3.485   8.016
  421POPC   C4B10582  41.289   3.239   7.690
  422POPC   NC310583   1.537  24.204   9.298
  422POPC   PO410584   1.031  24.549   9.489
  422POPC   GL110585   1.017  24.531   9.025
  422POPC   GL210586   1.081  24.172   8.904
  422POPC   C1A10587   0.807  24.759   8.663
  422POPC   D2A10588   0.749  24.888   8.188
  422POPC   C3A10589   1.065  24.705   7.901
  422POPC   C4A10590   1.496  24.778   7.831
  422POPC   C1B10591   1.524  24.084   8.694
  422POPC   C2B10592   1.701  24.305   8.345
  422POPC   C3B10593   1.584  24.283   7.919
  422POPC   C4B10594   1.524  23.957   7.592
  423POPC   NC310595  26.476  27.455   9.446
  423POPC   PO410596  27.118  27.695   9.360
  423POPC   GL110597  26.940  27.801   8.984
  423POPC   GL210598  26.625  27.707   9.041
  423POPC   C1A10599  26.841  27.682   8.560
  423POPC   D2A10600  26.488  27.729   8.282
  423POPC   C3A10601  26.698  27.987   8.013
  423POPC   C4A10602  26.964  27.768   7.737
  423POPC   C1B10603  26.439  27.431   8.744
  423POPC   C2B10604  26.577  27.223   8.365
  423POPC   C3B10605  26.660  27.356   7.955
  423POPC   C4B10606  26.441  27.661   7.727
  424POPC   NC310607  20.407  13.030   9.370
  424POPC   PO410608  20.745  13.618   9.492
  424POPC   GL110609  20.567  13.497   9.111
  424POPC   GL210610  20.774  13.229   9.042
  424POPC   C1A10611  20.458  13.611   8.691
  424POPC   D2A10612  20.645  13.621   8.274
  424POPC   C3A10613  20.437  13.437   7.914
  424POPC   C4A10614  20.354  13.440   7.468
  424POPC   C1B10615  20.957  13.452   8.677
  424POPC   C2B10616  21.164  13.645   8.300
  424POPC   C3B10617  20.987  13.484   7.893
  424POPC   C4B10618  20.880  13.573   7.485
  425POPC   NC310619   9.814   4.851   9.569
  425POPC   PO410620  10.078   5.453   9.506
  425POPC   GL110621   9.883   5.142   9.143
  425POPC   GL210622   9.894   4.754   9.083
  425POPC   C1A10623   9.583   5.021   8.780
  425POPC   D2A10624   9.413   5.007   8.348
  425POPC   C3A10625   9.517   5.380   8.086
  425POPC   C4A10626   9.515   5.448   7.640
  425POPC   C1B10627  10.187   4.920   8.756
  425POPC   C2B10628  10.217   4.990   8.297
  425POPC   C3B10629  10.017   4.761   7.931
  425POPC   C4B10630   9.973   4.784   7.465
  426POPC   NC310631  35.429  31.298   9.650
  426POPC   PO410632  35.117  31.885   9.453
  426POPC   GL110633  35.324  31.787   9.049
  426POPC   GL210634  35.557  31.545   9.203
  426POPC   C1A10635  35.266  31.574   8.617
  426POPC   D2A10636  35.068  31.325   8.242
  426POPC   C3A10637  35.032  31.586   7.870
  426POPC   C4A10638  35.342  31.873   7.813
  426POPC   C1B10639  35.707  31.368   8.811
  426POPC   C2B10640  35.766  31.493   8.385
  426POPC   C3B10641  35.548  31.438   8.004
  426POPC   C4B10642  35.305  31.145   7.800
  427POPC   NC310643  28.371   9.106   9.586
  427POPC   PO410644  28.997   8.922   9.632
  427POPC   GL110645  28.837   8.791   9.225
  427POPC   GL210646  28.458   8.729   9.184
  427POPC   C1A10647  28.702   8.953   8.799
  427POPC   D2A10648  28.526   8.719   8.443
  427POPC   C3A10649  28.623   8.943   8.051
  427POPC   C4A10650  28.496   8.803   7.627
  427POPC   C1B10651  28.192   8.911   8.806
  427POPC   C2B10652  28.206   9.111   8.356
  427POPC   C3B10653  28.202   9.175   7.876
  427POPC   C4B10654  28.434   9.316   7.488
  428POPC   NC310655  12.566  17.392   9.357
  428POPC   PO410656  13.128  17.200   9.656
  428POPC   GL110657  13.054  17.231   9.184
  428POPC   GL210658  12.975  17.613   9.096
  428POPC   C1A10659  12.816  17.235   8.748
  428POPC   D2A10660  12.976  17.552   8.377
  428POPC   C3A10661  13.054  17.366   7.965
  428POPC   C4A10662  12.795  17.233   7.604
  428POPC   C1B10663  12.645  17.708   8.752
  428POPC   C2B10664  12.473  17.460   8.373
  428POPC   C3B10665  12.583  17.548   7.958
  428POPC   C4B10666  12.961  17.872   7.908
  429POPC   NC310667  10.445  19.543   9.268
  429POPC   PO410668  10.287  20.135   9.502
  429POPC   GL110669  10.475  20.096   9.102
  429POPC   GL210670  10.680  19.828   8.931
  429POPC   C1A10671  10.577  20.249   8.675
  429POPC   D2A10672  10.565  19.899   8.411
  429POPC   C3A10673  10.548  19.840   7.996
  429POPC   C4A10674  10.502  19.679   7.602
  429POPC   C1B10675  10.928  19.617   8.635
  429POPC   C2B10676  10.773  19.414   8.301
  429POPC   C3B10677  10.706  19.325   7.885
  429POPC   C4B10678  10.985  19.521   7.553
  430POPC   NC310679   5.168  44.199   9.597
  430POPC   PO410680   5.430  43.527   9.595
  430POPC   GL110681   5.094  43.702   9.277
  430POPC   GL210682   4.979  44.048   9.137
  430POPC   C1A10683   5.103  43.607   8.833
  430POPC   D2A10684   5.330  43.378   8.526
  430POPC   C3A10685   5.353  43.634   8.165
  430POPC   C4A10686   5.118  43.739   7.815
  430POPC   C1B10687   4.786  43.997   8.715
  430POPC   C2B10688   4.864  43.918   8.261
  430POPC   C3B10689   4.765  44.076   7.825
  430POPC   C4B10690   4.827  43.921   7.423
  431POPC   NC310691   7.802  14.376   9.823
  431POPC   PO410692   7.215  14.498   9.577
  431POPC   GL110693   7.438  14.349   9.234
  431POPC   GL210694   7.595  14.626   9.056
  431POPC   C1A10695   7.337  14.273   8.804
  431POPC   D2A10696   7.517  14.083   8.438
  431POPC   C3A10697   7.477  14.361   8.080
  431POPC   C4A10698   7.591  14.312   7.656
  431POPC   C1B10699   7.695  14.623   8.652
  431POPC   C2B10700   7.850  14.743   8.279
  431POPC   C3B10701   7.932  14.615   7.897
  431POPC   C4B10702   7.962  14.639   7.459
  432POPC   NC310703  11.331  19.936   9.514
  432POPC   PO410704  10.920  19.493   9.277
  432POPC   GL110705  11.263  19.733   9.036
  432POPC   GL210706  11.439  20.073   9.037
  432POPC   C1A10707  11.424  19.755   8.622
  432POPC   D2A10708  11.297  19.474   8.298
  432POPC   C3A10709  11.074  19.721   8.041
  432POPC   C4A10710  11.354  19.787   7.751
  432POPC   C1B10711  11.587  20.240   8.673
  432POPC   C2B10712  11.386  20.186   8.279
  432POPC   C3B10713  11.443  20.254   7.861
  432POPC   C4B10714  11.317  20.179   7.422
  433POPC   NC310715   9.474  41.747   9.391
  433POPC   PO410716  10.045  41.346   9.551
  433POPC   GL110717   9.893  41.516   9.177
  433POPC   GL210718   9.595  41.362   9.069
  433POPC   C1A10719  10.042  41.727   8.804
  433POPC   D2A10720  10.079  41.599   8.385
  433POPC   C3A10721   9.840  41.792   8.082
  433POPC   C4A10722   9.773  41.787   7.643
  433POPC   C1B10723   9.612  41.464   8.652
  433POPC   C2B10724   9.418  41.511   8.262
  433POPC   C3B10725   9.643  41.332   7.925
  433POPC   C4B10726   9.575  41.350   7.475
  434POPC   NC310727  34.550   3.860   9.716
  434POPC   PO410728  34.296   3.269   9.484
  434POPC   GL110729  34.580   3.508   9.200
  434POPC   GL210730  34.536   3.851   9.196
  434POPC   C1A10731  34.787   3.608   8.791
  434POPC   D2A10732  34.864   3.779   8.388
  434POPC   C3A10733  34.539   3.634   8.118
  434POPC   C4A10734  34.593   3.223   7.943
  434POPC   C1B10735  34.339   3.860   8.777
  434POPC   C2B10736  34.179   3.987   8.356
  434POPC   C3B10737  34.265   4.000   7.858
  434POPC   C4B10738  34.410   3.872   7.436
  435POPC   NC310739   4.031   0.258   9.656
  435POPC   PO410740   4.548   0.706   9.443
  435POPC   GL110741   4.250   0.486   9.180
  435POPC   GL210742   4.096   0.143   9.175
  435POPC   C1A10743   4.388   0.536   8.768
  435POPC   D2A10744   4.495   0.776   8.407
  435POPC   C3A10745   4.480   0.525   8.045
  435POPC   C4A10746   4.454   0.612   7.604
  435POPC   C1B10747   4.222   0.059   8.760
  435POPC   C2B10748   4.067  44.897   8.360
  435POPC   C3B10749   3.852   0.022   7.981
  435POPC   C4B10750   4.193   0.193   7.741
  436POPC   NC310751  13.815  18.025   9.459
  436POPC   PO410752  14.411  18.244   9.423
  436POPC   GL110753  14.457  18.332   9.049
  436POPC   GL210754  14.696  18.046   9.003
  436POPC   C1A10755  14.140  18.419   8.773
  436POPC   D2A10756  14.282  18.389   8.382
  436POPC   C3A10757  14.105  18.583   8.090
  436POPC   C4A10758  14.224  18.397   7.715
  436POPC   C1B10759  14.730  18.280   8.595
  436POPC   C2B10760  14.733  18.301   8.118
  436POPC   C3B10761  14.742  18.226   7.653
  436POPC   C4B10762  14.849  17.942   7.258
  437POPC   NC310763  13.642  34.382   9.501
  437POPC   PO410764  13.384  33.757   9.593
  437POPC   GL110765  13.417  33.859   9.159
  437POPC   GL210766  13.736  33.962   9.187
  437POPC   C1A10767  13.588  33.688   8.736
  437POPC   D2A10768  13.975  33.626   8.455
  437POPC   C3A10769  13.972  33.781   8.029
  437POPC   C4A10770  13.720  33.696   7.659
  437POPC   C1B10771  13.967  34.016   8.814
  437POPC   C2B10772  13.895  34.140   8.414
  437POPC   C3B10773  14.074  34.302   8.053
  437POPC   C4B10774  13.830  34.208   7.709
  438POPC   NC310775   1.933  23.168   9.463
  438POPC   PO410776   2.167  22.512   9.416
  438POPC   GL110777   1.909  22.670   9.081
  438POPC   GL210778   1.747  22.982   9.049
  438POPC   C1A10779   2.015  22.709   8.665
  438POPC   D2A10780   2.233  22.941   8.370
  438POPC   C3A10781   2.070  22.894   7.967
  438POPC   C4A10782   2.095  23.133   7.603
  438POPC   C1B10783   1.540  22.867   8.712
  438POPC   C2B10784   1.687  22.964   8.334
  438POPC   C3B10785   1.724  23.250   8.059
  438POPC   C4B10786   1.623  22.987   7.680
  439POPC   NC310787  19.208  31.229   9.482
  439POPC   PO410788  18.696  31.591   9.473
  439POPC   GL110789  18.969  31.756   9.101
  439POPC   GL210790  19.180  31.491   9.051
  439POPC   C1A10791  19.057  31.694   8.612
  439POPC   D2A10792  19.145  31.292   8.372
  439POPC   C3A10793  18.958  31.335   7.969
  439POPC   C4A10794  18.686  31.659   7.846
  439POPC   C1B10795  19.486  31.807   8.905
  439POPC   C2B10796  19.580  31.919   8.482
  439POPC   C3B10797  19.343  31.714   8.164
  439POPC   C4B10798  19.409  31.537   7.778
  440POPC   NC310799  11.360  33.637   9.594
  440POPC   PO410800  11.402  34.308   9.805
  440POPC   GL110801  11.173  34.058   9.326
  440POPC   GL210802  11.415  33.812   9.128
  440POPC   C1A10803  11.174  34.073   8.785
  440POPC   D2A10804  11.291  34.225   8.325
  440POPC   C3A10805  11.208  33.992   7.922
  440POPC   C4A10806  11.165  33.684   7.560
  440POPC   C1B10807  11.560  33.647   8.733
  440POPC   C2B10808  11.354  33.688   8.332
  440POPC   C3B10809  11.482  33.556   7.925
  440POPC   C4B10810  11.633  33.461   7.497
  441POPC   NC310811  14.783  23.709   9.520
  441POPC   PO410812  14.181  24.110   9.450
  441POPC   GL110813  14.130  23.746   9.183
  441POPC   GL210814  14.417  23.579   9.167
  441POPC   C1A10815  14.109  23.797   8.740
  441POPC   D2A10816  14.339  24.064   8.447
  441POPC   C3A10817  14.325  23.915   8.031
  441POPC   C4A10818  14.223  24.037   7.625
  441POPC   C1B10819  14.593  23.746   8.796
  441POPC   C2B10820  14.454  23.549   8.396
  441POPC   C3B10821  14.490  23.368   7.978
  441POPC   C4B10822  14.323  23.487   7.586
  442POPC   NC310823  38.033  21.203   9.561
  442POPC   PO410824  38.629  21.341   9.546
  442POPC   GL110825  38.467  21.293   9.157
  442POPC   GL210826  38.175  21.392   9.119
  442POPC   C1A10827  38.496  21.414   8.715
  442POPC   D2A10828  38.515  21.309   8.283
  442POPC   C3A10829  38.685  21.585   7.988
  442POPC   C4A10830  38.686  21.514   7.531
  442POPC   C1B10831  37.986  21.562   8.790
  442POPC   C2B10832  38.102  21.630   8.392
  442POPC   C3B10833  38.025  21.432   8.022
  442POPC   C4B10834  38.241  21.644   7.742
  443POPC   NC310835  44.854   8.901   9.672
  443POPC   PO410836  44.301   8.580   9.304
  443POPC   GL110837  44.492   8.917   9.059
  443POPC   GL210838  44.829   8.982   9.154
  443POPC   C1A10839  44.533   9.154   8.733
  443POPC   D2A10840  44.660   9.132   8.348
  443POPC   C3A10841  44.265   9.032   8.177
  443POPC   C4A10842  44.395   8.883   7.810
  443POPC   C1B10843  44.960   8.796   8.744
  443POPC   C2B10844   0.074   8.791   8.299
  443POPC   C3B10845  44.954   8.987   7.870
  443POPC   C4B10846  44.898   8.756   7.442
  444POPC   NC310847  40.475  37.711   9.861
  444POPC   PO410848  39.860  37.869   9.620
  444POPC   GL110849  39.700  37.684   9.189
  444POPC   GL210850  39.455  37.398   9.137
  444POPC   C1A10851  39.746  37.819   8.737
  444POPC   D2A10852  40.088  37.795   8.406
  444POPC   C3A10853  40.057  37.653   7.950
  444POPC   C4A10854  40.321  37.727   7.565
  444POPC   C1B10855  39.755  37.303   8.785
  444POPC   C2B10856  39.907  37.303   8.336
  444POPC   C3B10857  39.807  37.194   7.876
  444POPC   C4B10858  39.951  37.381   7.479
  445POPC   NC310859  21.416   3.458   9.607
  445POPC   PO410860  21.181   4.141   9.546
  445POPC   GL110861  21.362   3.817   9.274
  445POPC   GL210862  21.042   3.653   9.308
  445POPC   C1A10863  21.539   3.530   8.960
  445POPC   D2A10864  21.716   3.234   8.644
  445POPC   C3A10865  21.684   3.371   8.209
  445POPC   C4A10866  21.582   3.430   7.749
  445POPC   C1B10867  21.035   3.723   8.881
  445POPC   C2B10868  21.249   3.504   8.533
  445POPC   C3B10869  21.233   3.575   8.113
  445POPC   C4B10870  21.083   3.547   7.729
  446POPC   NC310871  32.171  18.325   9.518
  446POPC   PO410872  32.773  18.631   9.618
  446POPC   GL110873  32.739  18.365   9.196
  446POPC   GL210874  32.466  18.182   9.152
  446POPC   C1A10875  32.516  18.395   8.726
  446POPC   D2A10876  32.204  18.457   8.441
  446POPC   C3A10877  32.290  18.304   8.061
  446POPC   C4A10878  32.053  18.350   7.745
  446POPC   C1B10879  32.118  18.104   8.857
  446POPC   C2B10880  32.064  17.922   8.432
  446POPC   C3B10881  31.950  17.885   7.991
  446POPC   C4B10882  32.275  17.900   7.669
  447POPC   NC310883  34.393   1.302   9.456
  447POPC   PO410884  35.130   1.397   9.504
  447POPC   GL110885  34.830   1.211   9.185
  447POPC   GL210886  34.592   1.452   9.018
  447POPC   C1A10887  34.661   1.016   8.789
  447POPC   D2A10888  34.586   1.286   8.409
  447POPC   C3A10889  34.298   1.087   8.123
  447POPC   C4A10890  34.438   0.824   7.800
  447POPC   C1B10891  34.307   1.611   8.722
  447POPC   C2B10892  34.082   1.528   8.359
  447POPC   C3B10893  34.228   1.563   7.952
  447POPC   C4B10894  34.477   1.353   7.678
  448POPC   NC310895  44.261   2.138   9.626
  448POPC   PO410896  43.847   1.694   9.358
  448POPC   GL110897  43.773   2.053   9.062
  448POPC   GL210898  43.577   2.374   9.132
  448POPC   C1A10899  43.752   1.910   8.651
  448POPC   D2A10900  43.902   1.576   8.388
  448POPC   C3A10901  43.872   1.794   8.019
  448POPC   C4A10902  44.167   1.985   7.736
  448POPC   C1B10903  43.458   2.329   8.684
  448POPC   C2B10904  43.492   2.321   8.220
  448POPC   C3B10905  43.818   2.315   7.884
  448POPC   C4B10906  43.876   2.318   7.390
  449POPC   NC310907  32.267  16.471   9.603
  449POPC   PO410908  32.152  15.801   9.665
  449POPC   GL110909  32.178  16.041   9.266
  449POPC   GL210910  32.494  16.215   9.225
  449POPC   C1A10911  32.340  15.923   8.838
  449POPC   D2A10912  32.137  15.950   8.430
  449POPC   C3A10913  32.415  15.783   8.122
  449POPC   C4A10914  32.389  15.859   7.701
  449POPC   C1B10915  32.554  16.396   8.804
  449POPC   C2B10916  32.620  16.174   8.410
  449POPC   C3B10917  32.544  16.296   8.002
  449POPC   C4B10918  32.735  16.317   7.628
  450POPC   NC310919  25.150  18.933   9.512
  450POPC   PO410920  25.585  19.439   9.605
  450POPC   GL110921  25.517  19.204   9.231
  450POPC   GL210922  25.617  18.880   9.289
  450POPC   C1A10923  25.266  19.161   8.842
  450POPC   D2A10924  25.141  19.282   8.417
  450POPC   C3A10925  25.179  19.006   8.049
  450POPC   C4A10926  25.038  18.921   7.612
  450POPC   C1B10927  25.681  18.855   8.863
  450POPC   C2B10928  25.464  18.841   8.474
  450POPC   C3B10929  25.649  18.783   8.081
  450POPC   C4B10930  25.603  18.973   7.734
  451POPC   NC310931  32.049   9.816   9.451
  451POPC   PO410932  32.492   9.358   9.415
  451POPC   GL110933  32.314   9.610   9.092
  451POPC   GL210934  32.539   9.654   8.881
  451POPC   C1A10935  32.080   9.711   8.707
  451POPC   D2A10936  32.237   9.620   8.296
  451POPC   C3A10937  31.913   9.608   7.974
  451POPC   C4A10938  31.982  10.010   7.764
  451POPC   C1B10939  32.744   9.866   8.596
  451POPC   C2B10940  32.642  10.174   8.351
  451POPC   C3B10941  32.661   9.965   7.981
  451POPC   C4B10942  32.378   9.686   7.778
  452POPC   NC310943  41.724  31.324   9.655
  452POPC   PO410944  41.276  31.770   9.452
  452POPC   GL110945  41.691  31.686   9.230
  452POPC   GL210946  41.566  31.381   9.171
  452POPC   C1A10947  41.894  31.525   8.820
  452POPC   D2A10948  41.708  31.397   8.425
  452POPC   C3A10949  41.903  31.516   8.072
  452POPC   C4A10950  41.726  31.710   7.717
  452POPC   C1B10951  41.390  31.252   8.790
  452POPC   C2B10952  41.287  31.078   8.353
  452POPC   C3B10953  41.375  31.336   7.962
  452POPC   C4B10954  41.474  31.170   7.555
  453POPC   NC310955  42.940  14.647   9.536
  453POPC   PO410956  43.559  14.339   9.420
  453POPC   GL110957  43.148  14.323   9.139
  453POPC   GL210958  42.861  14.559   9.044
  453POPC   C1A10959  42.932  14.158   8.737
  453POPC   D2A10960  43.055  14.133   8.286
  453POPC   C3A10961  43.074  14.304   7.870
  453POPC   C4A10962  42.835  13.985   7.775
  453POPC   C1B10963  42.929  14.898   8.768
  453POPC   C2B10964  43.109  14.907   8.318
  453POPC   C3B10965  42.896  14.767   7.940
  453POPC   C4B10966  43.027  14.725   7.492
  454POPC   NC310967   0.337   6.621   9.631
  454POPC   PO410968   1.001   6.824   9.703
  454POPC   GL110969   0.654   6.669   9.262
  454POPC   GL210970   0.276   6.583   9.139
  454POPC   C1A10971   0.630   6.619   8.790
  454POPC   D2A10972   0.801   6.923   8.543
  454POPC   C3A10973   0.749   6.873   8.142
  454POPC   C4A10974   0.515   6.579   7.990
  454POPC   C1B10975   0.246   6.936   8.863
  454POPC   C2B10976   0.287   6.930   8.410
  454POPC   C3B10977   0.268   7.024   7.962
  454POPC   C4B10978   0.217   7.013   7.460
  455POPC   NC310979  21.591   4.289   9.416
  455POPC   PO410980  20.954   4.644   9.486
  455POPC   GL110981  21.248   4.539   9.156
  455POPC   GL210982  21.245   4.228   9.039
  455POPC   C1A10983  21.557   4.485   8.767
  455POPC   D2A10984  21.254   4.423   8.474
  455POPC   C3A10985  21.324   4.344   8.074
  455POPC   C4A10986  21.503   4.425   7.670
  455POPC   C1B10987  21.435   3.987   8.700
  455POPC   C2B10988  21.575   3.929   8.250
  455POPC   C3B10989  21.426   3.931   7.799
  455POPC   C4B10990  21.270   4.043   7.381
  456POPC   NC310991  26.091   3.099   9.331
  456POPC   PO410992  25.765   3.650   9.481
  456POPC   GL110993  25.784   3.464   9.118
  456POPC   GL210994  26.106   3.576   9.055
  456POPC   C1A10995  25.804   3.438   8.672
  456POPC   D2A10996  26.159   3.419   8.426
  456POPC   C3A10997  26.043   3.523   8.038
  456POPC   C4A10998  25.781   3.527   7.666
  456POPC   C1B10999  26.315   3.914   8.829
  456POPC   C2B11000  26.383   4.111   8.438
  456POPC   C3B11001  26.368   3.930   8.008
  456POPC   C4B11002  26.167   3.835   7.625
  457POPC   NC311003   8.092  44.683   9.492
  457POPC   PO411004   8.137  44.017   9.442
  457POPC   GL111005   8.021  44.396   9.077
  457POPC   GL211006   7.938  44.818   9.033
  457POPC   C1A11007   8.025  44.532   8.632
  457POPC   D2A11008   8.143  44.368   8.241
  457POPC   C3A11009   8.129  44.533   7.842
  457POPC   C4A11010   8.560  44.530   7.930
  457POPC   C1B11011   8.378  44.847   8.859
  457POPC   C2B11012   8.476  44.738   8.426
  457POPC   C3B11013   8.182  44.926   8.153
  457POPC   C4B11014   7.922  44.997   7.762
  458POPC   NC311015   7.422  32.463   9.664
  458POPC   PO411016   6.973  32.066   9.624
  458POPC   GL111017   7.193  32.176   9.263
  458POPC   GL211018   7.127  32.542   9.230
  458POPC   C1A11019   7.382  32.054   8.871
  458POPC   D2A11020   7.685  32.023   8.529
  458POPC   C3A11021   7.547  32.015   8.083
  458POPC   C4A11022   7.528  32.078   7.618
  458POPC   C1B11023   7.308  32.615   8.776
  458POPC   C2B11024   7.462  32.519   8.322
  458POPC   C3B11025   7.479  32.517   7.857
  458POPC   C4B11026   7.182  32.497   7.522
  459POPC   NC311027  38.613  42.522   9.782
  459POPC   PO411028  38.215  42.172   9.333
  459POPC   GL111029  38.388  42.605   9.252
  459POPC   GL211030  38.749  42.691   9.306
  459POPC   C1A11031  38.434  42.691   8.812
  459POPC   D2A11032  38.355  42.431   8.462
  459POPC   C3A11033  38.448  42.637   8.107
  459POPC   C4A11034  38.684  42.480   7.756
  459POPC   C1B11035  38.854  42.418   8.971
  459POPC   C2B11036  38.897  42.402   8.527
  459POPC   C3B11037  38.774  42.178   8.167
  459POPC   C4B11038  39.024  42.003   7.846
  460POPC   NC311039  37.182   2.278   9.478
  460POPC   PO411040  36.608   1.844   9.600
  460POPC   GL111041  36.841   1.938   9.206
  460POPC   GL211042  37.126   1.724   9.032
  460POPC   C1A11043  36.688   1.934   8.790
  460POPC   D2A11044  36.942   1.759   8.480
  460POPC   C3A11045  36.757   1.821   8.084
  460POPC   C4A11046  36.678   2.120   7.728
  460POPC   C1B11047  37.159   2.136   8.773
  460POPC   C2B11048  36.932   2.259   8.367
  460POPC   C3B11049  37.133   2.266   7.945
  460POPC   C4B11050  37.301   2.624   7.724
  461POPC   NC311051  31.856  12.268   9.867
  461POPC   PO411052  32.041  11.849   9.405
  461POPC   GL111053  32.237  12.008   9.054
  461POPC   GL211054  32.122  12.327   8.907
  461POPC   C1A11055  32.197  11.907   8.631
  461POPC   D2A11056  32.337  11.961   8.215
  461POPC   C3A11057  32.040  12.019   7.907
  461POPC   C4A11058  32.126  12.031   7.437
  461POPC   C1B11059  32.361  12.480   8.586
  461POPC   C2B11060  32.405  12.463   8.152
  461POPC   C3B11061  32.460  12.254   7.755
  461POPC   C4B11062  32.508  12.362   7.331
  462POPC   NC311063  12.518  20.932   9.523
  462POPC   PO411064  12.941  20.294   9.491
  462POPC   GL111065  12.697  20.529   9.256
  462POPC   GL211066  12.939  20.800   9.266
  462POPC   C1A11067  12.537  20.440   8.874
  462POPC   D2A11068  12.514  20.408   8.456
  462POPC   C3A11069  12.845  20.421   8.151
  462POPC   C4A11070  12.808  20.625   7.749
  462POPC   C1B11071  12.770  20.894   8.875
  462POPC   C2B11072  12.838  20.860   8.436
  462POPC   C3B11073  12.906  21.035   8.024
  462POPC   C4B11074  12.904  21.101   7.576
  463POPC   NC311075   8.345  15.169   9.576
  463POPC   PO411076   7.702  15.238   9.371
  463POPC   GL111077   7.936  15.012   9.095
  463POPC   GL211078   8.331  14.980   9.102
  463POPC   C1A11079   8.038  15.018   8.686
  463POPC   D2A11080   8.347  14.847   8.461
  463POPC   C3A11081   8.278  14.985   8.086
  463POPC   C4A11082   8.151  15.055   7.702
  463POPC   C1B11083   8.467  15.286   8.780
  463POPC   C2B11084   8.318  15.423   8.362
  463POPC   C3B11085   8.523  15.489   7.951
  463POPC   C4B11086   8.642  15.857   7.690
  464POPC   NC311087   0.349  26.002   9.662
  464POPC   PO411088   0.689  25.487   9.431
  464POPC   GL111089   0.513  25.826   9.175
  464POPC   GL211090   0.272  26.122   9.171
  464POPC   C1A11091   0.597  26.050   8.793
  464POPC   D2A11092   0.448  26.162   8.407
  464POPC   C3A11093   0.573  26.006   8.031
  464POPC   C4A11094   0.556  26.193   7.657
  464POPC   C1B11095   0.191  26.404   8.774
  464POPC   C2B11096  44.993  26.299   8.311
  464POPC   C3B11097   0.090  26.380   7.833
  464POPC   C4B11098   0.201  26.372   7.340
  465POPC   NC311099  12.638  32.204   9.556
  465POPC   PO411100  13.122  32.633   9.334
  465POPC   GL111101  12.837  32.331   9.097
  465POPC   GL211102  12.698  31.978   9.112
  465POPC   C1A11103  12.836  32.248   8.674
  465POPC   D2A11104  12.888  32.459   8.317
  465POPC   C3A11105  12.671  32.335   7.968
  465POPC   C4A11106  12.943  32.287   7.680
  465POPC   C1B11107  12.609  31.777   8.733
  465POPC   C2B11108  12.521  31.998   8.352
  465POPC   C3B11109  12.355  31.897   7.948
  465POPC   C4B11110  12.573  31.948   7.608
  466POPC   NC311111  21.550   5.825   9.756
  466POPC   PO411112  21.186   6.128   9.218
  466POPC   GL111113  21.511   6.061   8.979
  466POPC   GL211114  21.551   5.734   9.079
  466POPC   C1A11115  21.644   5.857   8.583
  466POPC   D2A11116  21.507   5.615   8.253
  466POPC   C3A11117  21.363   5.869   7.924
  466POPC   C4A11118  21.495   5.910   7.476
  466POPC   C1B11119  21.183   5.678   8.760
  466POPC   C2B11120  20.983   5.763   8.349
  466POPC   C3B11121  20.953   5.524   7.981
  466POPC   C4B11122  21.134   5.572   7.576
  467POPC   NC311123  24.398  15.709   9.695
  467POPC   PO411124  24.786  16.148   9.440
  467POPC   GL111125  24.543  16.092   9.051
  467POPC   GL211126  24.243  15.989   9.179
  467POPC   C1A11127  24.295  16.305   8.702
  467POPC   D2A11128  24.103  16.297   8.253
  467POPC   C3A11129  24.374  16.198   7.884
  467POPC   C4A11130  24.795  16.001   7.933
  467POPC   C1B11131  24.145  15.732   8.790
  467POPC   C2B11132  23.990  15.712   8.348
  467POPC   C3B11133  24.179  15.670   7.923
  467POPC   C4B11134  24.508  15.722   7.609
  468POPC   NC311135  29.373  27.371   9.476
  468POPC   PO411136  28.987  26.733   9.541
  468POPC   GL111137  29.196  26.811   9.159
  468POPC   GL211138  29.367  27.093   9.046
  468POPC   C1A11139  29.085  26.766   8.738
  468POPC   D2A11140  28.827  26.675   8.395
  468POPC   C3A11141  29.006  26.656   7.990
  468POPC   C4A11142  28.922  26.957   7.678
  468POPC   C1B11143  29.360  27.168   8.597
  468POPC   C2B11144  29.177  27.092   8.179
  468POPC   C3B11145  29.404  27.099   7.781
  468POPC   C4B11146  29.669  27.322   7.455
  469POPC   NC311147   4.611  30.816   9.407
  469POPC   PO411148   4.109  30.480   9.762
  469POPC   GL111149   3.945  30.476   9.292
  469POPC   GL211150   4.172  30.713   9.094
  469POPC   C1A11151   3.797  30.509   8.823
  469POPC   D2A11152   3.993  30.845   8.513
  469POPC   C3A11153   4.045  30.922   8.037
  469POPC   C4A11154   4.084  30.608   7.740
  469POPC   C1B11155   4.451  30.753   8.712
  469POPC   C2B11156   4.475  30.933   8.295
  469POPC   C3B11157   4.576  30.684   7.924
  469POPC   C4B11158   4.930  30.844   7.683
  470POPC   NC311159   4.069  20.632   9.712
  470POPC   PO411160   4.647  20.850   9.514
  470POPC   GL111161   4.428  20.622   9.237
  470POPC   GL211162   4.424  20.917   9.037
  470POPC   C1A11163   4.440  20.430   8.813
  470POPC   D2A11164   4.147  20.488   8.441
  470POPC   C3A11165   4.239  20.294   8.048
  470POPC   C4A11166   4.181  20.300   7.587
  470POPC   C1B11167   4.459  20.904   8.611
  470POPC   C2B11168   4.442  21.027   8.190
  470POPC   C3B11169   4.168  20.905   7.894
  470POPC   C4B11170   4.242  20.793   7.482
  471POPC   NC311171  25.672  34.785   9.388
  471POPC   PO411172  26.249  35.022   9.332
  471POPC   GL111173  26.099  34.605   9.139
  471POPC   GL211174  25.835  34.332   9.200
  471POPC   C1A11175  25.967  34.529   8.719
  471POPC   D2A11176  26.081  34.333   8.331
  471POPC   C3A11177  26.462  34.531   8.119
  471POPC   C4A11178  26.459  34.848   7.763
  471POPC   C1B11179  25.692  34.118   8.832
  471POPC   C2B11180  25.599  34.134   8.387
  471POPC   C3B11181  25.561  34.328   7.978
  471POPC   C4B11182  25.647  34.723   7.744
  472POPC   NC311183   6.335  18.918   9.643
  472POPC   PO411184   6.922  18.537   9.425
  472POPC   GL111185   6.651  18.870   9.192
  472POPC   GL211186   6.851  19.168   9.041
  472POPC   C1A11187   6.437  18.944   8.810
  472POPC   D2A11188   6.590  18.844   8.402
  472POPC   C3A11189   6.355  19.125   8.126
  472POPC   C4A11190   6.287  19.078   7.719
  472POPC   C1B11191   6.994  19.087   8.631
  472POPC   C2B11192   6.841  19.263   8.229
  472POPC   C3B11193   6.812  19.113   7.832
  472POPC   C4B11194   7.086  19.095   7.460
  473POPC   NC311195   9.436  20.854   9.537
  473POPC   PO411196  10.102  20.729   9.541
  473POPC   GL111197   9.800  20.720   9.169
  473POPC   GL211198   9.975  20.960   8.990
  473POPC   C1A11199   9.611  20.446   8.814
  473POPC   D2A11200   9.667  20.241   8.378
  473POPC   C3A11201   9.921  20.514   8.046
  473POPC   C4A11202   9.810  20.385   7.657
  473POPC   C1B11203   9.902  20.821   8.608
  473POPC   C2B11204   9.581  20.737   8.338
  473POPC   C3B11205   9.457  20.672   7.913
  473POPC   C4B11206   9.577  20.851   7.514
  474POPC   NC311207  17.165  26.338   9.249
  474POPC   PO411208  17.547  25.935   9.673
  474POPC   GL111209  17.506  25.911   9.228
  474POPC   GL211210  17.679  26.197   9.149
  474POPC   C1A11211  17.397  26.013   8.765
  474POPC   D2A11212  17.585  25.986   8.384
  474POPC   C3A11213  17.276  26.015   8.089
  474POPC   C4A11214  17.165  25.980   7.689
  474POPC   C1B11215  17.652  26.460   8.791
  474POPC   C2B11216  17.529  26.505   8.379
  474POPC   C3B11217  17.665  26.346   8.020
  474POPC   C4B11218  17.838  26.181   7.677
  475POPC   NC311219   8.365  14.210   9.503
  475POPC   PO411220   8.014  14.758   9.678
  475POPC   GL111221   8.069  14.570   9.289
  475POPC   GL211222   7.939  14.285   9.226
  475POPC   C1A11223   8.186  14.544   8.851
  475POPC   D2A11224   8.497  14.353   8.579
  475POPC   C3A11225   8.414  14.437   8.146
  475POPC   C4A11226   8.421  14.568   7.749
  475POPC   C1B11227   7.848  14.150   8.845
  475POPC   C2B11228   8.006  14.257   8.442
  475POPC   C3B11229   7.924  14.104   8.051
  475POPC   C4B11230   8.109  14.168   7.686
  476POPC   NC311231  42.630  30.628   9.364
  476POPC   PO411232  41.983  30.495   9.511
  476POPC   GL111233  42.145  30.453   9.129
  476POPC   GL211234  42.242  30.800   9.102
  476POPC   C1A11235  42.069  30.567   8.700
  476POPC   D2A11236  42.244  30.700   8.322
  476POPC   C3A11237  42.133  30.533   7.924
  476POPC   C4A11238  42.227  30.762   7.539
  476POPC   C1B11239  42.567  30.756   8.732
  476POPC   C2B11240  42.756  30.616   8.353
  476POPC   C3B11241  42.615  30.718   7.918
  476POPC   C4B11242  42.721  30.769   7.469
  477POPC   NC311243   7.621   0.268   9.432
  477POPC   PO411244   7.100   0.728   9.408
  477POPC   GL111245   7.274   0.459   9.110
  477POPC   GL211246   7.561   0.656   9.039
  477POPC   C1A11247   7.493   0.175   8.800
  477POPC   D2A11248   7.804   0.011   8.503
  477POPC   C3A11249   7.788   0.299   8.158
  477POPC   C4A11250   7.509   0.352   7.820
  477POPC   C1B11251   7.243   0.702   8.675
  477POPC   C2B11252   7.097   0.901   8.288
  477POPC   C3B11253   7.173   0.763   7.860
  477POPC   C4B11254   7.413   0.696   7.451
  478POPC   NC311255  20.073  33.011   9.923
  478POPC   PO411256  19.448  33.062   9.547
  478POPC   GL111257  19.685  33.189   9.204
  478POPC   GL211258  19.583  32.827   9.070
  478POPC   C1A11259  19.905  33.130   8.815
  478POPC   D2A11260  19.791  32.865   8.455
  478POPC   C3A11261  19.859  33.106   8.090
  478POPC   C4A11262  20.000  33.015   7.690
  478POPC   C1B11263  19.219  32.686   8.809
  478POPC   C2B11264  19.095  32.718   8.365
  478POPC   C3B11265  19.370  32.950   8.084
  478POPC   C4B11266  19.526  32.855   7.654
  479POPC   NC311267  32.584   8.102   9.535
  479POPC   PO411268  32.082   8.532   9.688
  479POPC   GL111269  32.240   8.259   9.233
  479POPC   GL211270  32.529   8.401   9.087
  479POPC   C1A11271  32.065   8.039   8.851
  479POPC   D2A11272  32.082   7.941   8.410
  479POPC   C3A11273  32.043   8.317   8.151
  479POPC   C4A11274  31.931   8.362   7.710
  479POPC   C1B11275  32.693   8.267   8.684
  479POPC   C2B11276  32.585   8.019   8.340
  479POPC   C3B11277  32.406   8.018   7.960
  479POPC   C4B11278  32.461   8.415   7.784
  480POPC   NC311279  10.770  39.492   9.504
  480POPC   PO411280  11.219  38.992   9.586
  480POPC   GL111281  11.100  39.160   9.200
  480POPC   GL211282  11.454  39.155   9.135
  480POPC   C1A11283  11.174  39.467   8.848
  480POPC   D2A11284  11.365  39.417   8.446
  480POPC   C3A11285  11.237  39.215   8.057
  480POPC   C4A11286  11.366  39.464   7.681
  480POPC   C1B11287  11.421  38.999   8.722
  480POPC   C2B11288  11.705  39.064   8.349
  480POPC   C3B11289  11.726  39.178   7.910
  480POPC   C4B11290  11.447  38.973   7.573
  481POPC   NC311291   4.849  20.121  10.039
  481POPC   PO411292   5.119  19.577   9.679
  481POPC   GL111293   5.103  19.610   9.204
  481POPC   GL211294   4.871  19.336   9.119
  481POPC   C1A11295   5.267  19.797   8.840
  481POPC   D2A11296   5.095  19.936   8.463
  481POPC   C3A11297   5.306  20.107   8.118
  481POPC   C4A11298   5.195  19.897   7.738
  481POPC   C1B11299   4.917  19.447   8.672
  481POPC   C2B11300   4.707  19.597   8.299
  481POPC   C3B11301   4.760  19.623   7.857
  481POPC   C4B11302   4.747  19.680   7.418
  482POPC   NC311303  33.082  17.928   9.410
  482POPC   PO411304  33.246  17.261   9.515
  482POPC   GL111305  33.021  17.451   9.158
  482POPC   GL211306  32.717  17.681   9.185
  482POPC   C1A11307  32.922  17.519   8.722
  482POPC   D2A11308  33.066  17.548   8.302
  482POPC   C3A11309  32.920  17.496   7.910
  482POPC   C4A11310  33.139  17.543   7.516
  482POPC   C1B11311  32.775  17.976   8.828
  482POPC   C2B11312  32.691  17.907   8.415
  482POPC   C3B11313  32.684  17.973   7.985
  482POPC   C4B11314  32.807  17.920   7.587
  483POPC   NC311315  33.624  20.273   9.863
  483POPC   PO411316  34.076  19.774   9.507
  483POPC   GL111317  34.060  19.555   9.099
  483POPC   GL211318  34.225  19.822   8.994
  483POPC   C1A11319  33.966  19.527   8.669
  483POPC   D2A11320  34.110  19.861   8.412
  483POPC   C3A11321  34.107  19.731   7.989
  483POPC   C4A11322  33.745  19.514   7.813
  483POPC   C1B11323  33.752  19.917   8.900
  483POPC   C2B11324  33.545  19.815   8.504
  483POPC   C3B11325  33.638  19.941   8.080
  483POPC   C4B11326  33.543  20.300   7.819
  484POPC   NC311327  35.843  13.498   9.731
  484POPC   PO411328  36.398  13.815   9.475
  484POPC   GL111329  36.195  13.630   9.129
  484POPC   GL211330  36.041  13.844   8.932
  484POPC   C1A11331  36.371  13.511   8.726
  484POPC   D2A11332  36.175  13.520   8.342
  484POPC   C3A11333  36.357  13.713   8.011
  484POPC   C4A11334  36.064  13.624   7.724
  484POPC   C1B11335  35.850  13.454   8.739
  484POPC   C2B11336  35.719  13.263   8.311
  484POPC   C3B11337  35.646  13.357   7.844
  484POPC   C4B11338  35.653  13.552   7.407
  485POPC   NC311339  17.507   8.485   9.512
  485POPC   PO411340  17.090   7.871   9.459
  485POPC   GL111341  17.205   8.210   9.169
  485POPC   GL211342  17.557   8.128   9.100
  485POPC   C1A11343  17.300   8.380   8.743
  485POPC   D2A11344  17.531   8.190   8.397
  485POPC   C3A11345  17.589   8.384   8.011
  485POPC   C4A11346  17.369   8.553   7.664
  485POPC   C1B11347  17.856   7.965   8.771
  485POPC   C2B11348  17.857   7.787   8.360
  485POPC   C3B11349  17.598   7.865   7.964
  485POPC   C4B11350  17.612   7.684   7.514
  486POPC   NC311351  27.857   4.511   9.598
  486POPC   PO411352  27.393   4.035   9.502
  486POPC   GL111353  27.712   4.169   9.188
  486POPC   GL211354  27.565   4.497   9.146
  486POPC   C1A11355  27.800   4.318   8.744
  486POPC   D2A11356  27.719   4.457   8.322
  486POPC   C3A11357  27.494   4.160   8.082
  486POPC   C4A11358  27.439   3.997   7.682
  486POPC   C1B11359  27.336   4.616   8.736
  486POPC   C2B11360  27.293   4.809   8.327
  486POPC   C3B11361  27.487   4.737   7.955
  486POPC   C4B11362  27.306   4.493   7.679
  487POPC   NC311363  11.542  11.174   9.745
  487POPC   PO411364  10.968  11.448   9.655
  487POPC   GL111365  11.096  11.367   9.210
  487POPC   GL211366  11.444  11.451   9.197
  487POPC   C1A11367  11.171  11.486   8.751
  487POPC   D2A11368  11.157  11.376   8.304
  487POPC   C3A11369  11.380  11.062   8.073
  487POPC   C4A11370  11.437  11.258   7.693
  487POPC   C1B11371  11.674  11.629   8.822
  487POPC   C2B11372  11.673  11.780   8.387
  487POPC   C3B11373  11.690  11.598   7.988
  487POPC   C4B11374  11.727  11.688   7.550
  488POPC   NC311375  25.711   4.755   9.624
  488POPC   PO411376  26.072   5.269   9.564
  488POPC   GL111377  26.109   5.136   9.157
  488POPC   GL211378  25.861   4.861   9.145
  488POPC   C1A11379  26.203   5.346   8.760
  488POPC   D2A11380  25.967   5.387   8.389
  488POPC   C3A11381  26.139   5.289   7.986
  488POPC   C4A11382  26.115   5.331   7.542
  488POPC   C1B11383  25.889   4.932   8.732
  488POPC   C2B11384  25.755   4.895   8.355
  488POPC   C3B11385  25.938   4.811   7.998
  488POPC   C4B11386  26.099   4.843   7.607
  489POPC   NC311387  29.790   6.382   9.403
  489POPC   PO411388  30.019   7.008   9.507
  489POPC   GL111389  29.863   6.800   9.128
  489POPC   GL211390  29.522   6.638   9.069
  489POPC   C1A11391  29.798   6.860   8.713
  489POPC   D2A11392  29.905   6.669   8.325
  489POPC   C3A11393  29.787   6.919   7.966
  489POPC   C4A11394  29.873   6.716   7.622
  489POPC   C1B11395  29.686   6.365   8.716
  489POPC   C2B11396  29.722   6.148   8.316
  489POPC   C3B11397  29.931   6.225   7.933
  489POPC   C4B11398  29.581   6.336   7.712
  490POPC   NC311399  36.931  19.406   9.405
  490POPC   PO411400  37.172  19.942   9.191
  490POPC   GL111401  36.761  19.951   9.052
  490POPC   GL211402  36.658  19.592   9.050
  490POPC   C1A11403  36.626  19.927   8.630
  490POPC   D2A11404  36.989  19.915   8.332
  490POPC   C3A11405  36.881  20.068   7.943
  490POPC   C4A11406  37.002  20.076   7.505
  490POPC   C1B11407  36.949  19.536   8.716
  490POPC   C2B11408  36.942  19.387   8.320
  490POPC   C3B11409  37.014  19.565   7.905
  490POPC   C4B11410  36.878  19.426   7.509
  491POPC   NC311411  38.039  44.088   9.924
  491POPC   PO411412  38.638  44.076   9.572
  491POPC   GL111413  38.380  44.085   9.214
  491POPC   GL211414  38.300  44.429   9.229
  491POPC   C1A11415  38.249  43.817   8.853
  491POPC   D2A11416  38.418  43.588   8.494
  491POPC   C3A11417  38.240  43.721   8.107
  491POPC   C4A11418  38.482  43.703   7.766
  491POPC   C1B11419  38.475  44.364   8.805
  491POPC   C2B11420  38.429  44.103   8.428
  491POPC   C3B11421  38.360  44.238   7.994
  491POPC   C4B11422  38.323  44.138   7.554
  492POPC   NC311423  10.462  30.000   9.648
  492POPC   PO411424  10.774  29.434   9.673
  492POPC   GL111425  10.522  29.656   9.275
  492POPC   GL211426  10.509  30.049   9.150
  492POPC   C1A11427  10.716  29.721   8.841
  492POPC   D2A11428  10.705  29.941   8.446
  492POPC   C3A11429  10.340  29.998   8.199
  492POPC   C4A11430  10.424  29.962   7.757
  492POPC   C1B11431  10.742  30.290   8.832
  492POPC   C2B11432  10.691  30.461   8.421
  492POPC   C3B11433  10.719  30.301   8.031
  492POPC   C4B11434  10.636  30.406   7.589
  493POPC   NC311435  32.955  31.859   9.579
  493POPC   PO411436  33.367  31.276   9.545
  493POPC   GL111437  33.117  31.466   9.204
  493POPC   GL211438  33.201  31.824   9.133
  493POPC   C1A11439  33.278  31.455   8.776
  493POPC   D2A11440  33.287  31.380   8.350
  493POPC   C3A11441  33.024  31.297   8.024
  493POPC   C4A11442  32.792  31.499   7.726
  493POPC   C1B11443  33.082  31.984   8.718
  493POPC   C2B11444  33.090  31.869   8.289
  493POPC   C3B11445  33.299  31.704   7.924
  493POPC   C4B11446  33.208  31.698   7.494
  494POPC   NC311447  22.342   3.891   9.448
  494POPC   PO411448  21.953   4.587   9.483
  494POPC   GL111449  21.948   4.457   9.086
  494POPC   GL211450  22.268   4.287   9.128
  494POPC   C1A11451  22.024   4.254   8.682
  494POPC   D2A11452  22.227   4.290   8.280
  494POPC   C3A11453  21.892   4.316   8.000
  494POPC   C4A11454  21.971   4.216   7.593
  494POPC   C1B11455  22.338   4.660   8.856
  494POPC   C2B11456  22.457   4.731   8.451
  494POPC   C3B11457  22.608   4.649   8.078
  494POPC   C4B11458  22.397   4.534   7.728
  495POPC   NC311459  33.761  44.998   9.576
  495POPC   PO411460  33.955  44.340   9.698
  495POPC   GL111461  34.011  44.612   9.297
  495POPC   GL211462  33.665  44.719   9.163
  495POPC   C1A11463  34.156  44.586   8.844
  495POPC   D2A11464  34.021  44.660   8.407
  495POPC   C3A11465  33.890  44.381   8.080
  495POPC   C4A11466  33.877  44.596   7.667
  495POPC   C1B11467  33.785  44.920   8.785
  495POPC   C2B11468  33.787   0.122   8.364
  495POPC   C3B11469  33.663  44.848   8.059
  495POPC   C4B11470  33.429  44.864   7.732
  496POPC   NC311471  36.504  30.676   9.565
  496POPC   PO411472  37.162  30.642   9.513
  496POPC   GL111473  36.874  30.711   9.179
  496POPC   GL211474  36.898  31.042   9.136
  496POPC   C1A11475  36.777  30.565   8.758
  496POPC   D2A11476  36.879  30.301   8.378
  496POPC   C3A11477  36.710  30.328   7.956
  496POPC   C4A11478  36.639  30.636   7.646
  496POPC   C1B11479  37.005  31.106   8.721
  496POPC   C2B11480  37.018  30.817   8.374
  496POPC   C3B11481  37.003  30.829   7.940
  496POPC   C4B11482  37.031  31.275   7.758
  497POPC   NC311483  18.645  34.427   9.506
  497POPC   PO411484  18.034  34.874   9.509
  497POPC   GL111485  18.119  34.679   9.098
  497POPC   GL211486  18.295  34.374   9.136
  497POPC   C1A11487  18.187  34.536   8.662
  497POPC   D2A11488  18.228  34.272   8.297
  497POPC   C3A11489  18.281  34.575   7.972
  497POPC   C4A11490  17.943  34.703   7.707
  497POPC   C1B11491  18.622  34.233   8.871
  497POPC   C2B11492  18.680  34.421   8.514
  497POPC   C3B11493  18.785  34.463   8.102
  497POPC   C4B11494  18.655  34.235   7.748
  498POPC   NC311495   6.284   9.929   9.538
  498POPC   PO411496   6.789   9.486   9.361
  498POPC   GL111497   6.593   9.425   8.993
  498POPC   GL211498   6.333   9.584   9.099
  498POPC   C1A11499   6.689   9.525   8.558
  498POPC   D2A11500   6.796   9.913   8.359
  498POPC   C3A11501   6.757   9.850   7.931
  498POPC   C4A11502   6.773   9.378   7.872
  498POPC   C1B11503   6.274   9.775   8.693
  498POPC   C2B11504   6.292   9.796   8.244
  498POPC   C3B11505   6.317   9.636   7.817
  498POPC   C4B11506   6.619   9.617   7.459
  499POPC   NC311507  15.373  31.099   9.393
  499POPC   PO411508  15.177  31.674   9.571
  499POPC   GL111509  15.228  31.584   9.162
  499POPC   GL211510  14.921  31.771   9.107
  499POPC   C1A11511  15.278  31.336   8.785
  499POPC   D2A11512  15.028  31.366   8.410
  499POPC   C3A11513  15.077  31.143   8.068
  499POPC   C4A11514  15.182  31.424   7.770
  499POPC   C1B11515  15.113  31.809   8.672
  499POPC   C2B11516  14.883  31.885   8.281
  499POPC   C3B11517  14.867  31.838   7.835
  499POPC   C4B11518  14.824  31.612   7.455
  500POPC   NC311519   4.708  19.713   9.482
  500POPC   PO411520   4.361  20.261   9.696
  500POPC   GL111521   4.459  20.108   9.247
  500POPC   GL211522   4.797  20.150   9.246
  500POPC   C1A11523   4.249  19.949   8.850
  500POPC   D2A11524   4.105  19.898   8.415
  500POPC   C3A11525   4.317  19.800   8.022
  500POPC   C4A11526   4.251  19.768   7.562
  500POPC   C1B11527   4.753  19.906   8.858
  500POPC   C2B11528   4.591  20.065   8.470
  500POPC   C3B11529   4.773  20.099   8.082
  500POPC   C4B11530   4.633  20.097   7.696
  501POPC   NC311531  36.088   9.343   9.498
  501POPC   PO411532  36.171   8.636   9.447
  501POPC   GL111533  36.211   8.771   9.074
  501POPC   GL211534  36.476   8.562   9.007
  501POPC   C1A11535  35.985   8.880   8.725
  501POPC   D2A11536  35.780   8.979   8.365
  501POPC   C3A11537  36.016   9.249   8.105
  501POPC   C4A11538  36.003   9.260   7.701
  501POPC   C1B11539  36.443   8.660   8.609
  501POPC   C2B11540  36.275   8.862   8.306
  501POPC   C3B11541  36.130   8.765   7.915
  501POPC   C4B11542  36.409   8.648   7.589
  502POPC   NC311543  17.846  36.813   9.511
  502POPC   PO411544  17.269  37.011   9.234
  502POPC   GL111545  17.521  36.650   9.119
  502POPC   GL211546  17.281  36.437   8.919
  502POPC   C1A11547  17.854  36.683   8.808
  502POPC   D2A11548  17.871  36.794   8.356
  502POPC   C3A11549  17.452  36.685   8.143
  502POPC   C4A11550  17.340  36.709   7.705
  502POPC   C1B11551  17.398  36.796   8.635
  502POPC   C2B11552  17.513  37.151   8.376
  502POPC   C3B11553  17.446  37.166   7.931
  502POPC   C4B11554  17.627  37.120   7.529
  503POPC   NC311555  19.618  44.838   9.340
  503POPC   PO411556  19.986  44.414   9.790
  503POPC   GL111557  20.060  44.568   9.271
  503POPC   GL211558  20.058  44.931   9.127
  503POPC   C1A11559  19.938  44.533   8.800
  503POPC   D2A11560  19.910  44.784   8.413
  503POPC   C3A11561  19.833  44.672   7.983
  503POPC   C4A11562  19.932  44.433   7.630
  503POPC   C1B11563  19.731   0.098   8.780
  503POPC   C2B11564  19.509   0.098   8.345
  503POPC   C3B11565  19.506   0.056   7.874
  503POPC   C4B11566  19.465   0.202   7.387
  504POPC   NC311567   1.182  26.534   9.506
  504POPC   PO411568   0.790  27.112   9.427
  504POPC   GL111569   1.067  27.025   9.068
  504POPC   GL211570   1.114  26.680   9.026
  504POPC   C1A11571   1.195  27.002   8.642
  504POPC   D2A11572   1.110  26.647   8.404
  504POPC   C3A11573   1.173  26.779   8.012
  504POPC   C4A11574   1.512  26.954   7.834
  504POPC   C1B11575   1.496  26.624   8.803
  504POPC   C2B11576   1.616  26.690   8.380
  504POPC   C3B11577   1.502  26.384   8.074
  504POPC   C4B11578   1.395  26.467   7.658
  505POPC   NC311579   9.994  39.096   9.996
  505POPC   PO411580  10.494  39.097   9.532
  505POPC   GL111581  10.404  39.335   9.187
  505POPC   GL211582  10.188  39.593   9.312
  505POPC   C1A11583  10.660  39.424   8.826
  505POPC   D2A11584  10.867  39.339   8.436
  505POPC   C3A11585  10.697  39.137   8.080
  505POPC   C4A11586  10.865  39.152   7.651
  505POPC   C1B11587  10.177  39.610   8.821
  505POPC   C2B11588  10.370  39.501   8.415
  505POPC   C3B11589  10.443  39.577   7.993
  505POPC   C4B11590  10.347  39.344   7.659
  506POPC   NC311591  42.723   1.207   9.524
  506POPC   PO411592  43.317   1.422   9.563
  506POPC   GL111593  43.123   1.302   9.160
  506POPC   GL211594  43.455   1.333   9.073
  506POPC   C1A11595  43.084   1.084   8.720
  506POPC   D2A11596  43.137   0.811   8.322
  506POPC   C3A11597  43.175   1.061   7.928
  506POPC   C4A11598  42.968   1.442   7.833
  506POPC   C1B11599  43.509   1.435   8.702
  506POPC   C2B11600  43.377   1.282   8.360
  506POPC   C3B11601  43.620   1.305   8.063
  506POPC   C4B11602  43.473   1.505   7.781
  507POPC   NC311603  41.694  41.242   9.445
  507POPC   PO411604  41.361  40.619   9.355
  507POPC   GL111605  41.512  40.718   9.004
  507POPC   GL211606  41.449  41.073   9.040
  507POPC   C1A11607  41.487  40.813   8.596
  507POPC   D2A11608  41.688  40.817   8.203
  507POPC   C3A11609  41.402  40.786   7.896
  507POPC   C4A11610  41.115  40.449   7.832
  507POPC   C1B11611  41.765  41.211   8.793
  507POPC   C2B11612  41.935  41.182   8.460
  507POPC   C3B11613  41.968  41.201   8.030
  507POPC   C4B11614  41.787  41.070   7.668
  508POPC   NC311615  12.369  39.145   9.588
  508POPC   PO411616  12.978  38.903   9.558
  508POPC   GL111617  12.754  39.098   9.175
  508POPC   GL211618  12.473  38.877   9.177
  508POPC   C1A11619  12.729  39.352   8.732
  508POPC   D2A11620  12.521  39.489   8.307
  508POPC   C3A11621  12.727  39.349   7.907
  508POPC   C4A11622  13.116  39.384   7.616
  508POPC   C1B11623  12.425  38.964   8.778
  508POPC   C2B11624  12.567  38.913   8.383
  508POPC   C3B11625  12.790  38.805   8.015
  508POPC   C4B11626  12.847  38.958   7.592
  509POPC   NC311627  29.805  37.977   9.587
  509POPC   PO411628  29.840  37.429   9.538
  509POPC   GL111629  30.000  37.458   9.116
  509POPC   GL211630  30.249  37.208   9.077
  509POPC   C1A11631  29.997  37.561   8.644
  509POPC   D2A11632  29.783  37.671   8.232
  509POPC   C3A11633  29.969  37.720   7.807
  509POPC   C4A11634  29.939  37.922   7.392
  509POPC   C1B11635  30.203  37.094   8.626
  509POPC   C2B11636  30.215  37.284   8.195
  509POPC   C3B11637  30.266  37.302   7.740
  509POPC   C4B11638  30.203  37.482   7.306
  510POPC   NC311639   4.994   6.922   9.591
  510POPC   PO411640   5.458   6.521   9.643
  510POPC   GL111641   5.245   6.628   9.234
  510POPC   GL211642   4.906   6.758   9.106
  510POPC   C1A11643   5.320   6.496   8.810
  510POPC   D2A11644   5.506   6.413   8.400
  510POPC   C3A11645   5.274   6.519   8.046
  510POPC   C4A11646   4.914   6.502   7.778
  510POPC   C1B11647   5.238   7.008   8.898
  510POPC   C2B11648   5.415   6.917   8.495
  510POPC   C3B11649   5.294   7.040   8.070
  510POPC   C4B11650   5.278   6.950   7.643
  511POPC   NC311651  18.353  19.473   9.649
  511POPC   PO411652  18.253  20.131   9.550
  511POPC   GL111653  18.300  20.012   9.151
  511POPC   GL211654  18.201  19.682   9.171
  511POPC   C1A11655  18.323  20.152   8.738
  511POPC   D2A11656  18.427  19.936   8.361
  511POPC   C3A11657  18.235  20.070   7.995
  511POPC   C4A11658  18.328  20.032   7.618
  511POPC   C1B11659  18.195  19.623   8.714
  511POPC   C2B11660  18.022  19.667   8.262
  511POPC   C3B11661  18.327  19.580   7.895
  511POPC   C4B11662  18.248  19.548   7.431
  512POPC   NC311663   3.865  21.694   9.584
  512POPC   PO411664   3.676  21.058   9.637
  512POPC   GL111665   3.670  21.344   9.226
  512POPC   GL211666   3.335  21.437   9.128
  512POPC   C1A11667   3.654  21.239   8.742
  512POPC   D2A11668   3.404  21.173   8.320
  512POPC   C3A11669   3.652  21.043   7.960
  512POPC   C4A11670   3.774  20.975   7.547
  512POPC   C1B11671   3.341  21.638   8.756
  512POPC   C2B11672   3.625  21.640   8.404
  512POPC   C3B11673   3.554  21.584   7.995
  512POPC   C4B11674   3.451  21.368   7.640
  513POPC   NC311675   9.774  37.193   9.730
  513POPC   PO411676  10.102  37.765   9.715
  513POPC   GL111677  10.145  37.717   9.259
  513POPC   GL211678   9.904  37.951   9.133
  513POPC   C1A11679  10.085  37.568   8.804
  513POPC   D2A11680   9.777  37.438   8.474
  513POPC   C3A11681   9.879  37.564   8.072
  513POPC   C4A11682   9.582  37.511   7.724
  513POPC   C1B11683   9.662  37.857   8.748
  513POPC   C2B11684   9.540  37.899   8.327
  513POPC   C3B11685   9.618  37.987   7.926
  513POPC   C4B11686   9.946  37.922   7.702
  514POPC   NC311687  41.057   8.341   9.494
  514POPC   PO411688  41.672   8.043   9.660
  514POPC   GL111689  41.569   8.279   9.207
  514POPC   GL211690  41.263   8.453   9.059
  514POPC   C1A11691  41.583   8.095   8.779
  514POPC   D2A11692  41.440   7.912   8.374
  514POPC   C3A11693  41.613   8.084   7.980
  514POPC   C4A11694  41.910   7.915   7.704
  514POPC   C1B11695  41.152   8.491   8.626
  514POPC   C2B11696  41.194   8.331   8.220
  514POPC   C3B11697  41.257   8.427   7.795
  514POPC   C4B11698  41.259   8.545   7.350
  515POPC   NC311699  15.603  10.287   9.439
  515POPC   PO411700  14.926  10.430   9.400
  515POPC   GL111701  15.216  10.321   9.095
  515POPC   GL211702  15.293  10.654   9.022
  515POPC   C1A11703  15.409  10.285   8.667
  515POPC   D2A11704  15.428  10.620   8.374
  515POPC   C3A11705  15.305  10.508   7.937
  515POPC   C4A11706  15.004  10.251   7.700
  515POPC   C1B11707  14.918  10.632   8.746
  515POPC   C2B11708  14.663  10.580   8.356
  515POPC   C3B11709  14.776  10.646   7.945
  515POPC   C4B11710  14.794  10.708   7.515
  516POPC   NC311711  36.287  17.230   9.460
  516POPC   PO411712  35.926  17.824   9.548
  516POPC   GL111713  35.993  17.578   9.215
  516POPC   GL211714  36.354  17.682   9.206
  516POPC   C1A11715  35.962  17.319   8.851
  516POPC   D2A11716  35.811  17.299   8.441
  516POPC   C3A11717  36.107  17.221   8.127
  516POPC   C4A11718  36.015  17.105   7.717
  516POPC   C1B11719  36.203  17.841   8.832
  516POPC   C2B11720  36.226  17.606   8.482
  516POPC   C3B11721  36.323  17.692   8.067
  516POPC   C4B11722  36.261  17.532   7.663
  517POPC   NC311723  15.924  27.205   9.488
  517POPC   PO411724  15.651  27.804   9.683
  517POPC   GL111725  15.900  27.714   9.271
  517POPC   GL211726  16.075  28.001   9.143
  517POPC   C1A11727  16.094  27.586   8.824
  517POPC   D2A11728  16.257  27.277   8.537
  517POPC   C3A11729  16.191  27.504   8.157
  517POPC   C4A11730  16.004  27.306   7.817
  517POPC   C1B11731  15.708  27.903   8.817
  517POPC   C2B11732  15.627  27.611   8.481
  517POPC   C3B11733  15.659  27.638   8.026
  517POPC   C4B11734  15.818  27.725   7.591
  518POPC   NC311735   2.416  23.772   9.500
  518POPC   PO411736   1.732  23.813   9.430
  518POPC   GL111737   1.867  23.666   9.025
  518POPC   GL211738   2.122  23.386   9.035
  518POPC   C1A11739   2.032  23.875   8.627
  518POPC   D2A11740   2.125  24.089   8.202
  518POPC   C3A11741   2.376  23.952   7.860
  518POPC   C4A11742   2.407  23.938   7.433
  518POPC   C1B11743   1.875  23.314   8.656
  518POPC   C2B11744   1.623  23.637   8.447
  518POPC   C3B11745   1.689  23.802   8.062
  518POPC   C4B11746   1.966  23.617   7.763
  519POPC   NC311747  33.514  44.166   9.643
  519POPC   PO411748  33.938  43.933   9.227
  519POPC   GL111749  33.839  44.232   8.995
  519POPC   GL211750  33.473  44.255   9.091
  519POPC   C1A11751  33.990  44.162   8.561
  519POPC   D2A11752  33.685  43.934   8.298
  519POPC   C3A11753  33.714  43.919   7.854
  519POPC   C4A11754  33.765  43.700   7.457
  519POPC   C1B11755  33.518  44.329   8.619
  519POPC   C2B11756  33.384  44.344   8.184
  519POPC   C3B11757  33.460  44.350   7.755
  519POPC   C4B11758  33.692  44.197   7.369
  520POPC   NC311759  16.966   4.808   9.383
  520POPC   PO411760  16.812   4.155   9.490
  520POPC   GL111761  16.603   4.370   9.175
  520POPC   GL211762  16.883   4.442   9.025
  520POPC   C1A11763  16.482   4.521   8.756
  520POPC   D2A11764  16.513   4.295   8.398
  520POPC   C3A11765  16.740   4.496   8.097
  520POPC   C4A11766  16.840   4.272   7.740
  520POPC   C1B11767  17.002   4.772   8.743
  520POPC   C2B11768  16.980   4.930   8.359
  520POPC   C3B11769  17.220   4.971   8.013
  520POPC   C4B11770  17.046   4.714   7.713
  521POPC   NC311771   4.984   0.259   9.755
  521POPC   PO411772   5.147  44.650   9.707
  521POPC   GL111773   5.130  44.560   9.244
  521POPC   GL211774   5.002  44.868   9.119
  521POPC   C1A11775   5.320  44.377   8.866
  521POPC   D2A11776   5.290  44.557   8.453
  521POPC   C3A11777   5.131  44.329   8.087
  521POPC   C4A11778   5.066  44.464   7.662
  521POPC   C1B11779   4.731   0.012   8.754
  521POPC   C2B11780   4.592  44.887   8.379
  521POPC   C3B11781   4.936  44.793   8.127
  521POPC   C4B11782   5.058  44.976   7.774
  522POPC   NC311783  37.491  43.955   9.503
  522POPC   PO411784  38.078  43.661   9.725
  522POPC   GL111785  37.930  43.794   9.268
  522POPC   GL211786  37.857  44.161   9.188
  522POPC   C1A11787  37.647  43.837   8.857
  522POPC   D2A11788  37.473  44.097   8.497
  522POPC   C3A11789  37.477  43.941   8.088
  522POPC   C4A11790  37.619  43.646   7.791
  522POPC   C1B11791  37.971  44.230   8.726
  522POPC   C2B11792  37.930  44.153   8.263
  522POPC   C3B11793  37.885  44.093   7.808
  522POPC   C4B11794  37.990  43.765   7.457
  523POPC   NC311795  38.764  16.557   9.593
  523POPC   PO411796  38.364  17.090   9.612
  523POPC   GL111797  38.520  16.888   9.251
  523POPC   GL211798  38.167  16.764   9.254
  523POPC   C1A11799  38.698  16.891   8.815
  523POPC   D2A11800  38.739  16.660   8.406
  523POPC   C3A11801  38.587  16.809   8.005
  523POPC   C4A11802  38.652  16.944   7.604
  523POPC   C1B11803  38.294  16.587   8.873
  523POPC   C2B11804  38.218  16.696   8.481
  523POPC   C3B11805  38.240  16.492   8.140
  523POPC   C4B11806  38.132  16.731   7.752
  524POPC   NC311807  18.625   8.474   9.508
  524POPC   PO411808  17.950   8.255   9.404
  524POPC   GL111809  18.166   8.325   9.016
  524POPC   GL211810  18.493   8.498   9.023
  524POPC   C1A11811  18.361   8.078   8.703
  524POPC   D2A11812  18.440   8.143   8.312
  524POPC   C3A11813  18.060   8.223   8.134
  524POPC   C4A11814  18.009   8.058   7.741
  524POPC   C1B11815  18.496   8.594   8.583
  524POPC   C2B11816  18.637   8.595   8.163
  524POPC   C3B11817  18.451   8.341   7.821
  524POPC   C4B11818  18.211   8.425   7.422
  525POPC   NC311819  36.547   5.826   9.616
  525POPC   PO411820  35.965   6.124   9.648
  525POPC   GL111821  36.045   5.846   9.252
  525POPC   GL211822  36.344   5.641   9.199
  525POPC   C1A11823  35.877   5.764   8.816
  525POPC   D2A11824  36.065   5.871   8.398
  525POPC   C3A11825  35.950   5.749   7.988
  525POPC   C4A11826  35.907   6.056   7.659
  525POPC   C1B11827  36.407   5.720   8.778
  525POPC   C2B11828  36.575   5.750   8.390
  525POPC   C3B11829  36.472   5.673   7.978
  525POPC   C4B11830  36.422   5.970   7.680
  526POPC   NC311831   7.166  39.241   9.668
  526POPC   PO411832   7.704  39.175   9.429
  526POPC   GL111833   7.466  39.284   9.116
  526POPC   GL211834   7.371  39.633   9.156
  526POPC   C1A11835   7.364  39.042   8.752
  526POPC   D2A11836   7.410  38.865   8.353
  526POPC   C3A11837   7.261  39.049   7.949
  526POPC   C4A11838   7.381  39.120   7.495
  526POPC   C1B11839   7.264  39.545   8.727
  526POPC   C2B11840   7.481  39.381   8.363
  526POPC   C3B11841   7.521  39.505   7.932
  526POPC   C4B11842   7.511  39.614   7.479
  527POPC   NC311843  36.695  27.015   9.321
  527POPC   PO411844  36.021  27.110   9.473
  527POPC   GL111845  36.065  26.855   9.075
  527POPC   GL211846  36.424  26.748   9.005
  527POPC   C1A11847  35.756  26.608   8.792
  527POPC   D2A11848  35.638  26.636   8.367
  527POPC   C3A11849  35.991  26.852   8.202
  527POPC   C4A11850  36.238  26.875   7.816
  527POPC   C1B11851  36.543  27.038   8.691
  527POPC   C2B11852  36.414  27.177   8.284
  527POPC   C3B11853  36.464  27.399   7.910
  527POPC   C4B11854  36.565  27.187   7.519
  528POPC   NC311855  18.482  27.799   9.770
  528POPC   PO411856  17.889  27.535   9.586
  528POPC   GL111857  18.150  27.762   9.291
  528POPC   GL211858  18.457  27.559   9.273
  528POPC   C1A11859  18.149  27.888   8.848
  528POPC   D2A11860  18.357  27.868   8.427
  528POPC   C3A11861  18.032  27.810   8.096
  528POPC   C4A11862  17.916  27.719   7.668
  528POPC   C1B11863  18.554  27.570   8.824
  528POPC   C2B11864  18.671  27.390   8.427
  528POPC   C3B11865  18.589  27.257   8.019
  528POPC   C4B11866  18.365  27.554   7.798
  529POPC   NC311867  40.197  27.020   9.781
  529POPC   PO411868  39.837  26.681   9.413
  529POPC   GL111869  39.876  26.634   9.018
  529POPC   GL211870  39.551  26.686   8.952
  529POPC   C1A11871  39.852  26.414   8.633
  529POPC   D2A11872  40.124  26.387   8.315
  529POPC   C3A11873  40.125  26.761   8.163
  529POPC   C4A11874  40.107  26.877   7.772
  529POPC   C1B11875  39.651  27.029   8.738
  529POPC   C2B11876  39.795  27.086   8.394
  529POPC   C3B11877  39.659  27.014   8.012
  529POPC   C4B11878  39.657  26.572   7.909
  530POPC   NC311879  18.577  20.423   9.432
  530POPC   PO411880  18.197  20.898   9.477
  530POPC   GL111881  18.208  20.716   9.114
  530POPC   GL211882  18.033  20.443   9.221
  530POPC   C1A11883  18.321  20.685   8.683
  530POPC   D2A11884  18.326  20.446   8.310
  530POPC   C3A11885  18.394  20.546   7.843
  530POPC   C4A11886  18.424  20.482   7.354
  530POPC   C1B11887  17.883  20.466   8.814
  530POPC   C2B11888  17.785  20.665   8.439
  530POPC   C3B11889  17.905  20.565   8.005
  530POPC   C4B11890  17.982  20.387   7.580
  531POPC   NC311891   6.074   3.998   9.496
  531POPC   PO411892   5.478   4.349   9.509
  531POPC   GL111893   5.676   4.374   9.136
  531POPC   GL211894   6.058   4.401   9.122
  531POPC   C1A11895   5.641   4.511   8.712
  531POPC   D2A11896   5.433   4.484   8.318
  531POPC   C3A11897   5.738   4.424   7.992
  531POPC   C4A11898   5.986   4.633   7.732
  531POPC   C1B11899   5.921   4.084   8.802
  531POPC   C2B11900   5.750   4.093   8.391
  531POPC   C3B11901   5.882   3.928   7.992
  531POPC   C4B11902   5.728   3.956   7.575
  532POPC   NC311903  39.003  13.099   9.478
  532POPC   PO411904  39.193  13.820   9.496
  532POPC   GL111905  39.078  13.640   9.129
  532POPC   GL211906  39.188  13.306   9.020
  532POPC   C1A11907  38.987  13.692   8.708
  532POPC   D2A11908  39.251  13.820   8.360
  532POPC   C3A11909  39.025  13.772   7.989
  532POPC   C4A11910  39.095  13.443   7.710
  532POPC   C1B11911  39.487  13.616   8.786
  532POPC   C2B11912  39.684  13.558   8.398
  532POPC   C3B11913  39.489  13.455   8.036
  532POPC   C4B11914  39.585  13.333   7.638
  533POPC   NC311915  37.856  16.367   9.598
  533POPC   PO411916  37.643  15.766   9.434
  533POPC   GL111917  37.542  16.011   9.145
  533POPC   GL211918  37.313  16.251   9.303
  533POPC   C1A11919  37.577  15.921   8.728
  533POPC   D2A11920  37.817  15.960   8.383
  533POPC   C3A11921  37.628  15.880   8.025
  533POPC   C4A11922  37.927  15.878   7.713
  533POPC   C1B11923  37.254  16.307   8.853
  533POPC   C2B11924  37.289  16.195   8.405
  533POPC   C3B11925  37.312  16.316   7.986
  533POPC   C4B11926  37.475  16.162   7.610
  534POPC   NC311927  44.206  17.090   9.504
  534POPC   PO411928  43.628  17.086   9.378
  534POPC   GL111929  43.870  17.047   9.074
  534POPC   GL211930  44.101  16.779   9.121
  534POPC   C1A11931  43.831  16.933   8.647
  534POPC   D2A11932  43.818  17.027   8.202
  534POPC   C3A11933  43.656  16.719   7.955
  534POPC   C4A11934  43.608  16.790   7.567
  534POPC   C1B11935  44.297  17.087   8.829
  534POPC   C2B11936  44.318  16.889   8.449
  534POPC   C3B11937  44.198  16.709   8.075
  534POPC   C4B11938  44.080  16.983   7.737
  535POPC   NC311939  43.366   9.190   9.472
  535POPC   PO411940  42.942   8.718   9.484
  535POPC   GL111941  43.102   8.938   9.092
  535POPC   GL211942  43.460   9.034   9.007
  535POPC   C1A11943  43.109   8.813   8.651
  535POPC   D2A11944  42.859   8.573   8.333
  535POPC   C3A11945  43.018   8.695   7.940
  535POPC   C4A11946  42.982   9.135   7.818
  535POPC   C1B11947  43.312   9.313   8.696
  535POPC   C2B11948  43.223   9.188   8.285
  535POPC   C3B11949  43.444   9.348   7.931
  535POPC   C4B11950  43.444   9.193   7.537
  536POPC   NC311951  27.577   1.870   9.465
  536POPC   PO411952  27.962   2.380   9.457
  536POPC   GL111953  27.741   2.189   9.084
  536POPC   GL211954  27.363   2.140   9.090
  536POPC   C1A11955  27.800   1.860   8.752
  536POPC   D2A11956  27.631   1.731   8.342
  536POPC   C3A11957  27.687   1.935   7.942
  536POPC   C4A11958  27.627   1.769   7.540
  536POPC   C1B11959  27.278   1.949   8.691
  536POPC   C2B11960  27.309   2.116   8.264
  536POPC   C3B11961  27.178   1.964   7.866
  536POPC   C4B11962  27.132   1.861   7.423
  537POPC   NC311963  38.170   0.448   9.494
  537POPC   PO411964  37.546   0.161   9.503
  537POPC   GL111965  37.572   0.328   9.131
  537POPC   GL211966  37.932   0.269   9.081
  537POPC   C1A11967  37.586   0.489   8.714
  537POPC   D2A11968  37.788   0.488   8.316
  537POPC   C3A11969  37.536   0.546   7.940
  537POPC   C4A11970  37.360   0.636   7.504
  537POPC   C1B11971  38.165   0.249   8.718
  537POPC   C2B11972  38.104   0.071   8.339
  537POPC   C3B11973  38.096   0.290   7.960
  537POPC   C4B11974  37.986   0.082   7.636
  538POPC   NC311975   8.314  10.585   9.608
  538POPC   PO411976   7.667  10.648   9.340
  538POPC   GL111977   8.056  10.544   9.164
  538POPC   GL211978   8.392  10.714   9.119
  538POPC   C1A11979   8.092  10.466   8.745
  538POPC   D2A11980   7.989  10.344   8.300
  538POPC   C3A11981   8.283  10.504   7.978
  538POPC   C4A11982   8.606  10.303   7.782
  538POPC   C1B11983   8.276  10.959   8.781
  538POPC   C2B11984   7.957  10.879   8.475
  538POPC   C3B11985   7.902  10.830   8.052
  538POPC   C4B11986   8.060  10.767   7.590
  539POPC   NC311987  10.273  34.077   9.475
  539POPC   PO411988  10.787  33.695   9.475
  539POPC   GL111989  10.639  33.908   9.120
  539POPC   GL211990  10.326  33.762   9.080
  539POPC   C1A11991  10.752  33.768   8.706
  539POPC   D2A11992  10.869  33.914   8.310
  539POPC   C3A11993  10.917  33.584   8.000
  539POPC   C4A11994  10.653  33.491   7.659
  539POPC   C1B11995  10.289  33.545   8.721
  539POPC   C2B11996  10.206  33.731   8.340
  539POPC   C3B11997  10.445  33.826   8.012
  539POPC   C4B11998  10.288  33.868   7.628
  540POPC   NC311999  20.159  12.074   9.389
  540POPC   PO412000  19.534  12.173   9.238
  540POPC   GL112001  19.795  11.864   9.069
  540POPC   GL212002  19.990  12.112   8.901
  540POPC   C1A12003  19.970  11.641   8.732
  540POPC   D2A12004  19.767  11.881   8.431
  540POPC   C3A12005  19.914  11.916   8.029
  540POPC   C4A12006  19.722  12.279   7.888
  540POPC   C1B12007  19.717  12.377   8.614
  540POPC   C2B12008  19.750  12.681   8.238
  540POPC   C3B12009  19.861  12.773   7.797
  540POPC   C4B12010  19.979  12.508   7.457
  541POPC   NC312011  35.158  34.645   9.501
  541POPC   PO412012  35.872  34.460   9.338
  541POPC   GL112013  35.594  34.580   9.080
  541POPC   GL212014  35.371  34.358   9.145
  541POPC   C1A12015  35.600  34.624   8.648
  541POPC   D2A12016  35.406  34.841   8.318
  541POPC   C3A12017  35.579  34.707   7.958
  541POPC   C4A12018  35.617  34.878   7.518
  541POPC   C1B12019  35.122  34.583   8.836
  541POPC   C2B12020  35.059  34.473   8.425
  541POPC   C3B12021  35.093  34.486   8.009
  541POPC   C4B12022  35.264  34.533   7.607
  542POPC   NC312023  40.704   5.993   9.520
  542POPC   PO412024  40.168   6.439   9.357
  542POPC   GL112025  40.442   6.126   9.043
  542POPC   GL212026  40.699   5.851   9.049
  542POPC   C1A12027  40.563   5.980   8.574
  542POPC   D2A12028  40.640   6.163   8.158
  542POPC   C3A12029  40.448   5.912   7.858
  542POPC   C4A12030  40.675   5.533   7.831
  542POPC   C1B12031  41.046   5.940   8.793
  542POPC   C2B12032  41.124   6.025   8.416
  542POPC   C3B12033  41.033   5.773   8.118
  542POPC   C4B12034  40.960   5.963   7.754
  543POPC   NC312035  43.304  32.430   9.486
  543POPC   PO412036  42.839  31.888   9.494
  543POPC   GL112037  42.994  32.092   9.118
  543POPC   GL212038  43.053  32.443   8.968
  543POPC   C1A12039  43.275  32.042   8.787
  543POPC   D2A12040  43.286  32.336   8.450
  543POPC   C3A12041  43.167  32.173   8.050
  543POPC   C4A12042  43.431  31.994   7.700
  543POPC   C1B12043  42.788  32.202   8.628
  543POPC   C2B12044  42.479  32.156   8.265
  543POPC   C3B12045  42.678  32.229   7.853
  543POPC   C4B12046  43.047  32.444   7.633
  544POPC   NC312047  34.181  32.970   9.540
  544POPC   PO412048  33.594  33.196   9.497
  544POPC   GL112049  33.876  33.125   9.138
  544POPC   GL212050  33.958  32.793   9.115
  544POPC   C1A12051  33.875  33.130   8.684
  544POPC   D2A12052  33.605  33.043   8.319
  544POPC   C3A12053  33.819  33.088   7.939
  544POPC   C4A12054  33.586  33.406   7.734
  544POPC   C1B12055  33.696  32.664   8.783
  544POPC   C2B12056  33.861  32.608   8.388
  544POPC   C3B12057  33.632  32.592   8.014
  544POPC   C4B12058  33.667  32.677   7.578
  545POPC   NC312059  35.782  23.646   9.496
  545POPC   PO412060  35.091  23.810   9.506
  545POPC   GL112061  35.330  23.774   9.082
  545POPC   GL212062  35.696  23.887   9.069
  545POPC   C1A12063  35.348  23.682   8.606
  545POPC   D2A12064  35.210  23.334   8.346
  545POPC   C3A12065  35.070  23.477   7.928
  545POPC   C4A12066  35.191  23.893   7.760
  545POPC   C1B12067  35.705  23.466   8.869
  545POPC   C2B12068  35.809  23.504   8.415
  545POPC   C3B12069  35.541  23.623   8.082
  545POPC   C4B12070  35.496  23.228   7.842
  546POPC   NC312071  12.056  25.133   9.598
  546POPC   PO412072  12.227  25.750   9.453
  546POPC   GL112073  11.990  25.440   9.149
  546POPC   GL212074  12.023  25.044   9.110
  546POPC   C1A12075  12.142  25.345   8.723
  546POPC   D2A12076  12.036  25.171   8.330
  546POPC   C3A12077  12.143  25.447   7.979
  546POPC   C4A12078  12.436  25.392   7.671
  546POPC   C1B12079  11.834  24.861   8.732
  546POPC   C2B12080  11.663  24.598   8.400
  546POPC   C3B12081  11.925  24.727   8.076
  546POPC   C4B12082  11.840  25.085   7.846
  547POPC   NC312083   2.204  33.966   9.691
  547POPC   PO412084   1.939  33.480   9.322
  547POPC   GL112085   2.237  33.573   9.032
  547POPC   GL212086   2.332  33.855   9.205
  547POPC   C1A12087   2.079  33.671   8.632
  547POPC   D2A12088   2.095  33.607   8.177
  547POPC   C3A12089   1.798  33.700   7.905
  547POPC   C4A12090   2.058  33.577   7.585
  547POPC   C1B12091   2.371  34.061   8.811
  547POPC   C2B12092   2.357  34.007   8.355
  547POPC   C3B12093   2.176  34.064   7.916
  547POPC   C4B12094   2.220  34.058   7.461
  548POPC   NC312095   2.216   6.755   9.423
  548POPC   PO412096   1.716   6.371   9.484
  548POPC   GL112097   1.819   6.565   9.088
  548POPC   GL212098   2.154   6.496   8.995
  548POPC   C1A12099   1.881   6.743   8.652
  548POPC   D2A12100   1.627   6.905   8.327
  548POPC   C3A12101   1.737   6.944   7.928
  548POPC   C4A12102   1.886   6.510   7.887
  548POPC   C1B12103   2.433   6.460   8.640
  548POPC   C2B12104   2.408   6.338   8.212
  548POPC   C3B12105   2.374   6.652   7.950
  548POPC   C4B12106   2.443   6.770   7.542
  549POPC   NC312107  32.117  20.712   9.503
  549POPC   PO412108  32.297  20.160   9.453
  549POPC   GL112109  32.054  20.311   9.145
  549POPC   GL212110  31.875  20.041   9.070
  549POPC   C1A12111  32.044  20.510   8.741
  549POPC   D2A12112  32.025  20.664   8.319
  549POPC   C3A12113  32.378  20.762   8.047
  549POPC   C4A12114  32.431  20.966   7.639
  549POPC   C1B12115  32.058  19.990   8.705
  549POPC   C2B12116  32.205  20.171   8.378
  549POPC   C3B12117  32.184  20.289   7.992
  549POPC   C4B12118  32.350  20.452   7.634
  550POPC   NC312119  24.402  16.446   9.415
  550POPC   PO412120  24.754  17.011   9.474
  550POPC   GL112121  24.561  16.837   9.120
  550POPC   GL212122  24.800  16.558   9.112
  550POPC   C1A12123  24.258  16.841   8.759
  550POPC   D2A12124  24.400  16.711   8.354
  550POPC   C3A12125  24.236  16.705   7.901
  550POPC   C4A12126  24.409  16.673   7.489
  550POPC   C1B12127  24.924  16.346   8.746
  550POPC   C2B12128  25.061  16.507   8.343
  550POPC   C3B12129  24.762  16.592   8.013
  550POPC   C4B12130  24.843  16.420   7.634
  551POPC   NC312131  15.137  17.086   9.516
  551POPC   PO412132  15.137  17.704   9.689
  551POPC   GL112133  15.235  17.573   9.246
  551POPC   GL212134  15.186  17.234   9.027
  551POPC   C1A12135  15.152  17.681   8.812
  551POPC   D2A12136  15.293  17.376   8.528
  551POPC   C3A12137  15.239  17.495   8.147
  551POPC   C4A12138  14.892  17.788   7.967
  551POPC   C1B12139  14.848  17.268   8.711
  551POPC   C2B12140  14.760  17.453   8.338
  551POPC   C3B12141  14.850  17.269   7.926
  551POPC   C4B12142  15.284  17.183   7.756
  552POPC   NC312143  25.189  17.125   9.567
  552POPC   PO412144  25.428  17.789   9.438
  552POPC   GL112145  25.253  17.478   9.177
  552POPC   GL212146  25.506  17.235   9.141
  552POPC   C1A12147  25.082  17.415   8.762
  552POPC   D2A12148  25.209  17.513   8.348
  552POPC   C3A12149  25.017  17.688   7.994
  552POPC   C4A12150  25.209  17.576   7.575
  552POPC   C1B12151  25.444  17.069   8.713
  552POPC   C2B12152  25.622  17.217   8.333
  552POPC   C3B12153  25.522  17.243   7.891
  552POPC   C4B12154  25.554  17.224   7.419
  553POPC   NC312155  31.314  13.122   9.511
  553POPC   PO412156  31.531  12.490   9.600
  553POPC   GL112157  31.477  12.727   9.206
  553POPC   GL212158  31.666  12.574   9.002
  553POPC   C1A12159  31.396  12.955   8.784
  553POPC   D2A12160  31.212  13.126   8.381
  553POPC   C3A12161  31.362  12.958   7.985
  553POPC   C4A12162  31.343  12.558   7.789
  553POPC   C1B12163  31.847  12.714   8.670
  553POPC   C2B12164  31.683  12.700   8.274
  553POPC   C3B12165  31.943  12.538   7.959
  553POPC   C4B12166  32.021  12.503   7.550
  554POPC   NC312167  38.649   5.055   9.451
  554POPC   PO412168  38.537   5.686   9.541
  554POPC   GL112169  38.445   5.440   9.178
  554POPC   GL212170  38.176   5.198   9.178
  554POPC   C1A12171  38.711   5.314   8.827
  554POPC   D2A12172  38.967   5.453   8.464
  554POPC   C3A12173  38.772   5.232   8.139
  554POPC   C4A12174  38.510   4.967   7.871
  554POPC   C1B12175  38.223   5.120   8.731
  554POPC   C2B12176  38.244   5.032   8.302
  554POPC   C3B12177  38.021   4.998   7.905
  554POPC   C4B12178  38.170   4.927   7.468
  555POPC   NC312179  16.923  28.293   9.961
  555POPC   PO412180  16.413  28.376   9.443
  555POPC   GL112181  16.661  28.444   9.131
  555POPC   GL212182  16.529  28.181   8.903
  555POPC   C1A12183  16.925  28.461   8.801
  555POPC   D2A12184  16.789  28.351   8.391
  555POPC   C3A12185  16.863  28.647   8.082
  555POPC   C4A12186  17.084  28.535   7.666
  555POPC   C1B12187  16.443  28.591   8.686
  555POPC   C2B12188  16.191  28.563   8.336
  555POPC   C3B12189  16.376  28.421   8.003
  555POPC   C4B12190  16.580  28.608   7.676
  556POPC   NC312191  36.598   1.379   9.698
  556POPC   PO412192  37.171   1.086   9.447
  556POPC   GL112193  37.104   1.104   9.019
  556POPC   GL212194  36.769   1.029   9.082
  556POPC   C1A12195  37.183   1.303   8.608
  556POPC   D2A12196  37.217   1.459   8.175
  556POPC   C3A12197  36.894   1.331   7.872
  556POPC   C4A12198  36.893   0.966   7.591
  556POPC   C1B12199  36.728   1.418   8.838
  556POPC   C2B12200  36.686   1.322   8.391
  556POPC   C3B12201  36.555   1.009   8.097
  556POPC   C4B12202  36.426   1.192   7.701
  557POPC   NC312203  40.461   3.066   9.483
  557POPC   PO412204  40.659   2.478   9.275
  557POPC   GL112205  40.563   2.807   9.049
  557POPC   GL212206  40.856   2.978   9.157
  557POPC   C1A12207  40.524   2.680   8.640
  557POPC   D2A12208  40.352   2.497   8.302
  557POPC   C3A12209  40.558   2.699   7.966
  557POPC   C4A12210  40.629   2.512   7.604
  557POPC   C1B12211  41.001   2.778   8.795
  557POPC   C2B12212  40.949   2.994   8.450
  557POPC   C3B12213  41.211   2.971   8.122
  557POPC   C4B12214  41.030   2.807   7.744
  558POPC   NC312215  37.065  22.601   9.503
  558POPC   PO412216  36.883  23.262   9.501
  558POPC   GL112217  36.958  23.127   9.102
  558POPC   GL212218  36.806  22.785   9.106
  558POPC   C1A12219  36.734  23.076   8.712
  558POPC   D2A12220  36.749  22.872   8.310
  558POPC   C3A12221  36.633  23.111   7.982
  558POPC   C4A12222  36.748  23.202   7.599
  558POPC   C1B12223  36.893  22.557   8.692
  558POPC   C2B12224  36.936  22.386   8.269
  558POPC   C3B12225  36.800  22.565   7.871
  558POPC   C4B12226  37.016  22.772   7.507
  559POPC   NC312227  19.763  40.458   9.586
  559POPC   PO412228  20.359  40.692   9.590
  559POPC   GL112229  20.155  40.754   9.167
  559POPC   GL212230  19.776  40.717   9.140
  559POPC   C1A12231  20.024  40.824   8.706
  559POPC   D2A12232  19.925  40.576   8.306
  559POPC   C3A12233  19.810  40.764   7.892
  559POPC   C4A12234  20.122  40.711   7.593
  559POPC   C1B12235  19.661  40.462   8.762
  559POPC   C2B12236  19.508  40.289   8.362
  559POPC   C3B12237  19.618  40.296   7.909
  559POPC   C4B12238  19.448  40.560   7.556
  560POPC   NC312239   5.370  40.726   9.507
  560POPC   PO412240   4.747  41.047   9.731
  560POPC   GL112241   4.832  41.064   9.216
  560POPC   GL212242   5.096  40.839   9.089
  560POPC   C1A12243   4.780  41.014   8.748
  560POPC   D2A12244   4.928  40.651   8.520
  560POPC   C3A12245   4.878  40.662   8.083
  560POPC   C4A12246   4.854  40.748   7.666
  560POPC   C1B12247   5.399  40.698   8.771
  560POPC   C2B12248   5.486  40.716   8.330
  560POPC   C3B12249   5.366  40.716   7.899
  560POPC   C4B12250   5.565  40.408   7.666
  561POPC   NC312251  15.790   8.477   9.456
  561POPC   PO412252  15.952   9.165   9.439
  561POPC   GL112253  15.855   8.906   9.126
  561POPC   GL212254  15.603   8.673   9.028
  561POPC   C1A12255  16.072   8.854   8.780
  561POPC   D2A12256  16.218   9.012   8.418
  561POPC   C3A12257  16.250   8.689   8.126
  561POPC   C4A12258  16.142   8.847   7.772
  561POPC   C1B12259  15.584   8.839   8.637
  561POPC   C2B12260  15.760   8.799   8.261
  561POPC   C3B12261  15.653   8.982   7.876
  561POPC   C4B12262  15.726   8.838   7.452
  562POPC   NC312263  15.517  16.591   9.856
  562POPC   PO412264  14.944  16.675   9.582
  562POPC   GL112265  15.055  16.729   9.142
  562POPC   GL212266  15.415  16.800   9.149
  562POPC   C1A12267  14.903  16.768   8.700
  562POPC   D2A12268  15.024  16.982   8.307
  562POPC   C3A12269  14.988  16.780   7.886
  562POPC   C4A12270  15.035  16.888   7.423
  562POPC   C1B12271  15.393  16.750   8.664
  562POPC   C2B12272  15.337  16.580   8.217
  562POPC   C3B12273  15.479  16.621   7.765
  562POPC   C4B12274  15.598  16.465   7.339
  563POPC   NC312275  13.545  10.160   9.451
  563POPC   PO412276  13.372   9.482   9.638
  563POPC   GL112277  13.595   9.617   9.236
  563POPC   GL212278  13.419   9.871   9.071
  563POPC   C1A12279  13.686   9.599   8.756
  563POPC   D2A12280  13.727   9.530   8.310
  563POPC   C3A12281  13.387   9.595   8.041
  563POPC   C4A12282  13.571   9.602   7.644
  563POPC   C1B12283  13.595  10.133   8.759
  563POPC   C2B12284  13.624  10.114   8.308
  563POPC   C3B12285  13.721  10.010   7.885
  563POPC   C4B12286  13.735  10.025   7.406
  564POPC   NC312287  10.143  15.160   9.641
  564POPC   PO412288  10.731  15.558   9.769
  564POPC   GL112289  10.475  15.481   9.355
  564POPC   GL212290  10.708  15.421   9.085
  564POPC   C1A12291  10.231  15.247   8.980
  564POPC   D2A12292  10.211  14.956   8.621
  564POPC   C3A12293  10.245  15.084   8.195
  564POPC   C4A12294  10.449  14.973   7.832
  564POPC   C1B12295  10.699  15.073   8.825
  564POPC   C2B12296  10.625  15.280   8.466
  564POPC   C3B12297  10.857  15.403   8.140
  564POPC   C4B12298  10.944  15.137   7.759
  565POPC   NC312299   2.197  32.644   9.601
  565POPC   PO412300   2.027  33.209   9.756
  565POPC   GL112301   2.060  33.009   9.272
  565POPC   GL212302   2.043  32.704   9.100
  565POPC   C1A12303   2.112  33.119   8.805
  565POPC   D2A12304   1.856  33.237   8.453
  565POPC   C3A12305   1.803  33.197   7.987
  565POPC   C4A12306   2.021  33.050   7.623
  565POPC   C1B12307   1.959  32.673   8.656
  565POPC   C2B12308   2.001  32.792   8.220
  565POPC   C3B12309   1.883  32.599   7.819
  565POPC   C4B12310   1.927  32.602   7.366
  566POPC   NC312311  36.297   2.215   9.566
  566POPC   PO412312  35.831   1.694   9.646
  566POPC   GL112313  35.931   1.933   9.256
  566POPC   GL212314  35.795   1.718   9.015
  566POPC   C1A12315  36.131   2.111   8.856
  566POPC   D2A12316  36.392   2.254   8.484
  566POPC   C3A12317  36.283   2.075   8.074
  566POPC   C4A12318  35.967   1.882   7.812
  566POPC   C1B12319  36.222   1.617   8.869
  566POPC   C2B12320  36.354   1.708   8.460
  566POPC   C3B12321  36.313   1.551   8.048
  566POPC   C4B12322  36.423   1.693   7.669
  567POPC   NC312323  16.037  20.572   9.808
  567POPC   PO412324  15.809  21.033   9.442
  567POPC   GL112325  16.031  20.806   9.185
  567POPC   GL212326  16.068  20.489   9.288
  567POPC   C1A12327  15.872  20.888   8.771
  567POPC   D2A12328  15.688  20.631   8.447
  567POPC   C3A12329  15.850  20.658   8.021
  567POPC   C4A12330  16.090  20.805   7.658
  567POPC   C1B12331  15.921  20.389   8.854
  567POPC   C2B12332  15.919  20.137   8.480
  567POPC   C3B12333  15.891  20.102   8.045
  567POPC   C4B12334  16.060  20.301   7.708
  568POPC   NC312335  11.836  15.693   9.430
  568POPC   PO412336  12.201  15.172   9.387
  568POPC   GL112337  12.391  15.238   9.012
  568POPC   GL212338  12.357  14.856   8.996
  568POPC   C1A12339  12.245  15.496   8.678
  568POPC   D2A12340  12.215  15.356   8.265
  568POPC   C3A12341  11.894  15.340   7.947
  568POPC   C4A12342  11.917  15.160   7.546
  568POPC   C1B12343  12.061  14.999   8.681
  568POPC   C2B12344  12.031  14.809   8.280
  568POPC   C3B12345  12.241  14.965   7.937
  568POPC   C4B12346  12.452  15.354   7.799
  569POPC   NC312347  11.034  14.231   9.448
  569POPC   PO412348  11.301  14.890   9.454
  569POPC   GL112349  11.231  14.618   9.131
  569POPC   GL212350  11.487  14.356   9.205
  569POPC   C1A12351  11.071  14.699   8.722
  569POPC   D2A12352  11.019  14.458   8.373
  569POPC   C3A12353  10.955  14.632   7.936
  569POPC   C4A12354  11.177  14.552   7.558
  569POPC   C1B12355  11.395  14.236   8.784
  569POPC   C2B12356  11.530  14.444   8.417
  569POPC   C3B12357  11.388  14.351   8.021
  569POPC   C4B12358  11.580  14.293   7.671
  570POPC   NC312359  37.872  20.272   9.593
  570POPC   PO412360  38.552  20.303   9.577
  570POPC   GL112361  38.255  20.477   9.260
  570POPC   GL212362  38.198  20.845   9.220
  570POPC   C1A12363  38.299  20.399   8.825
  570POPC   D2A12364  38.487  20.237   8.448
  570POPC   C3A12365  38.305  20.370   8.060
  570POPC   C4A12366  38.406  20.618   7.706
  570POPC   C1B12367  38.395  20.904   8.815
  570POPC   C2B12368  38.461  20.744   8.398
  570POPC   C3B12369  38.671  20.874   8.048
  570POPC   C4B12370  38.457  21.147   7.792
  571POPC   NC312371  44.317  28.506   9.811
  571POPC   PO412372  43.725  28.417   9.531
  571POPC   GL112373  43.742  28.474   9.062
  571POPC   GL212374  43.746  28.148   8.992
  571POPC   C1A12375  44.001  28.452   8.666
  571POPC   D2A12376  44.304  28.649   8.399
  571POPC   C3A12377  44.171  28.516   8.013
  571POPC   C4A12378  43.860  28.527   7.690
  571POPC   C1B12379  43.944  27.931   8.650
  571POPC   C2B12380  43.967  28.051   8.223
  571POPC   C3B12381  44.038  28.068   7.791
  571POPC   C4B12382  43.732  28.052   7.450
  572POPC   NC312383  42.016  24.250   9.423
  572POPC   PO412384  41.313  24.443   9.539
  572POPC   GL112385  41.565  24.473   9.209
  572POPC   GL212386  41.877  24.704   9.265
  572POPC   C1A12387  41.395  24.305   8.805
  572POPC   D2A12388  41.386  24.098   8.380
  572POPC   C3A12389  41.400  24.368   8.012
  572POPC   C4A12390  41.451  24.284   7.575
  572POPC   C1B12391  41.850  24.588   8.813
  572POPC   C2B12392  41.670  24.536   8.431
  572POPC   C3B12393  41.793  24.705   8.067
  572POPC   C4B12394  41.869  25.123   7.985
  573POPC   NC312395  21.921  16.653  10.057
  573POPC   PO412396  22.370  16.905   9.824
  573POPC   GL112397  22.470  16.844   9.341
  573POPC   GL212398  22.710  17.080   9.171
  573POPC   C1A12399  22.415  16.730   8.881
  573POPC   D2A12400  22.494  16.471   8.487
  573POPC   C3A12401  22.350  16.571   8.075
  573POPC   C4A12402  22.072  16.868   7.883
  573POPC   C1B12403  22.714  17.090   8.671
  573POPC   C2B12404  22.474  17.053   8.241
  573POPC   C3B12405  22.573  16.942   7.799
  573POPC   C4B12406  22.534  17.140   7.423
  574POPC   NC312407  19.237  37.265   9.560
  574POPC   PO412408  18.854  37.866   9.516
  574POPC   GL112409  19.067  37.774   9.113
  574POPC   GL212410  19.222  37.458   9.073
  574POPC   C1A12411  19.053  37.685   8.662
  574POPC   D2A12412  19.307  37.530   8.322
  574POPC   C3A12413  19.226  37.861   8.050
  574POPC   C4A12414  18.832  37.876   7.852
  574POPC   C1B12415  19.177  37.204   8.749
  574POPC   C2B12416  18.950  37.148   8.366
  574POPC   C3B12417  18.929  37.367   7.980
  574POPC   C4B12418  18.950  37.490   7.546
  575POPC   NC312419   7.378  19.614   9.480
  575POPC   PO412420   6.801  20.124   9.423
  575POPC   GL112421   7.179  19.943   9.138
  575POPC   GL212422   7.550  19.813   9.047
  575POPC   C1A12423   7.187  19.580   8.815
  575POPC   D2A12424   7.267  19.467   8.398
  575POPC   C3A12425   7.383  19.674   8.031
  575POPC   C4A12426   7.692  19.838   7.786
  575POPC   C1B12427   7.622  20.036   8.677
  575POPC   C2B12428   7.657  20.086   8.241
  575POPC   C3B12429   7.338  20.189   7.911
  575POPC   C4B12430   7.120  20.055   7.520
  576POPC   NC312431   9.293  32.001   9.201
  576POPC   PO412432   8.780  32.156   9.594
  576POPC   GL112433   8.853  32.401   9.219
  576POPC   GL212434   8.798  32.124   9.062
  576POPC   C1A12435   9.011  32.505   8.769
  576POPC   D2A12436   9.064  32.349   8.319
  576POPC   C3A12437   8.927  32.577   7.937
  576POPC   C4A12438   8.867  32.641   7.465
  576POPC   C1B12439   8.783  32.070   8.654
  576POPC   C2B12440   8.584  32.074   8.277
  576POPC   C3B12441   8.820  32.074   7.912
  576POPC   C4B12442   9.265  32.020   7.965
  577POPC   NC312443  35.268  32.530   9.654
  577POPC   PO412444  35.303  33.198   9.785
  577POPC   GL112445  35.344  33.140   9.325
  577POPC   GL212446  35.302  32.837   9.232
  577POPC   C1A12447  35.368  33.141   8.832
  577POPC   D2A12448  35.423  32.932   8.414
  577POPC   C3A12449  35.405  33.142   8.007
  577POPC   C4A12450  35.813  33.281   7.843
  577POPC   C1B12451  35.273  32.641   8.821
  577POPC   C2B12452  35.269  32.439   8.423
  577POPC   C3B12453  35.217  32.623   8.018
  577POPC   C4B12454  35.193  32.704   7.585
  578POPC   NC312455  42.939  28.853   9.383
  578POPC   PO412456  43.440  29.312   9.590
  578POPC   GL112457  43.212  29.355   9.179
  578POPC   GL212458  42.828  29.310   9.163
  578POPC   C1A12459  43.306  29.206   8.771
  578POPC   D2A12460  43.284  28.849   8.491
  578POPC   C3A12461  43.259  29.037   8.076
  578POPC   C4A12462  43.463  29.231   7.723
  578POPC   C1B12463  42.793  29.039   8.744
  578POPC   C2B12464  42.823  28.840   8.294
  578POPC   C3B12465  42.845  28.782   7.875
  578POPC   C4B12466  42.868  29.125   7.662
  579POPC   NC312467  36.449  25.165   9.676
  579POPC   PO412468  36.287  25.795   9.552
  579POPC   GL112469  36.275  25.475   9.186
  579POPC   GL212470  36.277  25.083   9.180
  579POPC   C1A12471  36.319  25.351   8.735
  579POPC   D2A12472  36.123  25.229   8.315
  579POPC   C3A12473  36.156  25.406   7.893
  579POPC   C4A12474  35.946  25.472   7.504
  579POPC   C1B12475  36.175  24.861   8.773
  579POPC   C2B12476  36.461  24.873   8.424
  579POPC   C3B12477  36.524  25.067   8.020
  579POPC   C4B12478  36.222  24.892   7.732
  580POPC   NC312479   1.136  30.553   9.671
  580POPC   PO412480   1.373  31.124   9.480
  580POPC   GL112481   1.139  30.851   9.184
  580POPC   GL212482   1.384  30.587   9.201
  580POPC   C1A12483   0.912  30.766   8.758
  580POPC   D2A12484   0.804  30.967   8.325
  580POPC   C3A12485   1.118  30.821   8.009
  580POPC   C4A12486   1.271  30.902   7.565
  580POPC   C1B12487   1.448  30.744   8.774
  580POPC   C2B12488   1.463  30.602   8.320
  580POPC   C3B12489   1.546  30.545   7.849
  580POPC   C4B12490   1.515  30.478   7.378
  581POPC   NC312491   6.884   4.032   9.477
  581POPC   PO412492   6.685   4.566   9.578
  581POPC   GL112493   6.801   4.447   9.176
  581POPC   GL212494   6.546   4.178   9.111
  581POPC   C1A12495   6.957   4.317   8.789
  581POPC   D2A12496   6.869   4.191   8.376
  581POPC   C3A12497   6.782   4.532   8.119
  581POPC   C4A12498   6.852   4.691   7.719
  581POPC   C1B12499   6.432   4.172   8.670
  581POPC   C2B12500   6.311   4.119   8.248
  581POPC   C3B12501   6.376   3.957   7.838
  581POPC   C4B12502   6.415   4.370   7.783
  582POPC   NC312503  19.075   3.865   9.418
  582POPC   PO412504  19.204   3.264   9.540
  582POPC   GL112505  19.174   3.475   9.110
  582POPC   GL212506  19.383   3.754   9.029
  582POPC   C1A12507  18.939   3.470   8.682
  582POPC   D2A12508  19.004   3.419   8.242
  582POPC   C3A12509  18.775   3.482   7.872
  582POPC   C4A12510  18.826   3.421   7.389
  582POPC   C1B12511  19.107   4.015   8.784
  582POPC   C2B12512  18.898   3.921   8.422
  582POPC   C3B12513  19.099   3.887   8.059
  582POPC   C4B12514  19.151   3.738   7.659
  583POPC   NC312515   9.254   0.876   9.526
  583POPC   PO412516   8.911   1.516   9.570
  583POPC   GL112517   8.951   1.417   9.169
  583POPC   GL212518   9.026   1.077   9.128
  583POPC   C1A12519   9.072   1.369   8.736
  583POPC   D2A12520   9.085   1.119   8.395
  583POPC   C3A12521   9.029   1.407   8.098
  583POPC   C4A12522   8.928   1.430   7.698
  583POPC   C1B12523   8.821   0.886   8.773
  583POPC   C2B12524   8.721   0.739   8.372
  583POPC   C3B12525   8.812   0.935   7.967
  583POPC   C4B12526   8.594   1.048   7.594
  584POPC   NC312527  43.362  15.553   9.515
  584POPC   PO412528  42.920  15.076   9.668
  584POPC   GL112529  43.065  15.147   9.235
  584POPC   GL212530  43.311  14.871   9.134
  584POPC   C1A12531  43.053  15.521   8.935
  584POPC   D2A12532  43.390  15.651   8.613
  584POPC   C3A12533  43.294  15.659   8.166
  584POPC   C4A12534  43.307  15.360   7.851
  584POPC   C1B12535  43.344  15.152   8.735
  584POPC   C2B12536  42.986  15.358   8.461
  584POPC   C3B12537  42.855  15.266   8.025
  584POPC   C4B12538  42.693  15.100   7.616
  585POPC   NC312539  15.311  12.028   9.497
  585POPC   PO412540  14.675  11.896   9.309
  585POPC   GL112541  15.065  12.019   9.069
  585POPC   GL212542  15.433  11.768   9.089
  585POPC   C1A12543  15.057  12.301   8.726
  585POPC   D2A12544  15.064  12.275   8.295
  585POPC   C3A12545  14.909  11.883   8.188
  585POPC   C4A12546  15.029  11.949   7.771
  585POPC   C1B12547  15.494  12.016   8.764
  585POPC   C2B12548  15.386  11.904   8.389
  585POPC   C3B12549  15.467  12.026   8.000
  585POPC   C4B12550  15.536  11.794   7.634
  586POPC   NC312551   3.738  41.271   9.533
  586POPC   PO412552   3.243  41.626   9.636
  586POPC   GL112553   3.462  41.575   9.189
  586POPC   GL212554   3.646  41.266   9.038
  586POPC   C1A12555   3.488  41.611   8.723
  586POPC   D2A12556   3.417  41.332   8.365
  586POPC   C3A12557   3.381  41.548   7.973
  586POPC   C4A12558   3.522  41.704   7.590
  586POPC   C1B12559   3.885  41.296   8.610
  586POPC   C2B12560   3.877  41.504   8.171
  586POPC   C3B12561   3.796  41.301   7.769
  586POPC   C4B12562   3.978  41.004   7.472
  587POPC   NC312563   0.862   9.682   9.599
  587POPC   PO412564   1.410   9.842   9.510
  587POPC   GL112565   1.173   9.625   9.156
  587POPC   GL212566   0.955   9.886   9.109
  587POPC   C1A12567   1.018   9.558   8.695
  587POPC   D2A12568   1.294   9.669   8.338
  587POPC   C3A12569   1.251   9.760   7.900
  587POPC   C4A12570   1.378   9.591   7.506
  587POPC   C1B12571   1.222  10.022   8.749
  587POPC   C2B12572   1.139  10.167   8.335
  587POPC   C3B12573   1.050  10.222   7.895
  587POPC   C4B12574   0.662  10.032   7.703
  588POPC   NC312575   6.211  22.003   9.299
  588POPC   PO412576   5.792  22.472   9.504
  588POPC   GL112577   5.730  22.137   9.181
  588POPC   GL212578   5.701  21.815   9.349
  588POPC   C1A12579   5.884  22.093   8.728
  588POPC   D2A12580   6.052  22.294   8.329
  588POPC   C3A12581   6.072  22.102   7.917
  588POPC   C4A12582   6.108  21.832   7.566
  588POPC   C1B12583   5.582  21.705   8.932
  588POPC   C2B12584   5.696  21.644   8.529
  588POPC   C3B12585   5.711  21.808   8.139
  588POPC   C4B12586   5.581  21.939   7.751
  589POPC   NC312587   3.454  40.389   9.611
  589POPC   PO412588   3.869  40.851   9.721
  589POPC   GL112589   3.608  40.804   9.286
  589POPC   GL212590   3.409  40.534   9.137
  589POPC   C1A12591   3.669  40.820   8.792
  589POPC   D2A12592   3.585  40.669   8.359
  589POPC   C3A12593   3.550  40.882   7.947
  589POPC   C4A12594   3.652  40.615   7.571
  589POPC   C1B12595   3.206  40.563   8.753
  589POPC   C2B12596   3.143  40.374   8.363
  589POPC   C3B12597   3.262  40.461   7.947
  589POPC   C4B12598   3.144  40.759   7.633
  590POPC   NC312599  19.253   5.595   9.592
  590POPC   PO412600  19.221   4.978   9.602
  590POPC   GL112601  18.814   5.063   9.324
  590POPC   GL212602  18.775   5.413   9.185
  590POPC   C1A12603  18.726   4.904   8.893
  590POPC   D2A12604  19.030   4.914   8.515
  590POPC   C3A12605  18.909   4.995   8.082
  590POPC   C4A12606  19.136   4.777   7.764
  590POPC   C1B12607  19.044   5.290   8.887
  590POPC   C2B12608  19.134   5.408   8.476
  590POPC   C3B12609  19.300   5.320   8.084
  590POPC   C4B12610  19.152   5.281   7.704
  591POPC   NC312611  10.646  18.274   9.629
  591POPC   PO412612  10.003  18.181   9.545
  591POPC   GL112613  10.344  18.198   9.235
  591POPC   GL212614  10.519  18.523   9.216
  591POPC   C1A12615  10.436  18.135   8.807
  591POPC   D2A12616  10.249  18.162   8.412
  591POPC   C3A12617  10.522  18.165   8.086
  591POPC   C4A12618  10.265  18.153   7.731
  591POPC   C1B12619  10.238  18.603   8.903
  591POPC   C2B12620  10.252  18.675   8.501
  591POPC   C3B12621  10.243  18.573   8.067
  591POPC   C4B12622  10.077  18.609   7.646
  592POPC   NC312623  39.216  30.170   9.413
  592POPC   PO412624  39.434  29.507   9.525
  592POPC   GL112625  39.345  29.722   9.153
  592POPC   GL212626  39.099  29.582   8.959
  592POPC   C1A12627  39.371  29.952   8.761
  592POPC   D2A12628  39.311  29.725   8.389
  592POPC   C3A12629  39.299  29.918   8.018
  592POPC   C4A12630  39.387  29.819   7.584
  592POPC   C1B12631  38.880  29.785   8.660
  592POPC   C2B12632  38.750  29.842   8.294
  592POPC   C3B12633  38.866  29.606   7.984
  592POPC   C4B12634  38.881  29.865   7.670
  593POPC   NC312635  23.460  30.718   9.460
  593POPC   PO412636  24.070  31.022   9.534
  593POPC   GL112637  24.043  30.824   9.133
  593POPC   GL212638  23.765  30.587   9.082
  593POPC   C1A12639  24.030  30.760   8.674
  593POPC   D2A12640  24.076  30.982   8.273
  593POPC   C3A12641  24.005  30.711   7.910
  593POPC   C4A12642  24.118  30.451   7.568
  593POPC   C1B12643  23.514  30.820   8.785
  593POPC   C2B12644  23.574  30.809   8.344
  593POPC   C3B12645  23.606  31.014   7.953
  593POPC   C4B12646  23.539  30.967   7.488
  594POPC   NC312647  11.413  37.859   9.536
  594POPC   PO412648  11.128  37.352   9.166
  594POPC   GL112649  11.106  37.829   9.115
  594POPC   GL212650  11.439  37.982   9.043
  594POPC   C1A12651  11.072  37.964   8.686
  594POPC   D2A12652  11.352  37.670   8.443
  594POPC   C3A12653  11.200  37.472   8.068
  594POPC   C4A12654  11.365  37.428   7.659
  594POPC   C1B12655  11.550  38.120   8.660
  594POPC   C2B12656  11.435  38.133   8.248
  594POPC   C3B12657  11.076  37.988   8.106
  594POPC   C4B12658  11.204  37.901   7.729
  595POPC   NC312659  26.006  16.872   9.689
  595POPC   PO412660  25.695  16.396   9.360
  595POPC   GL112661  25.837  16.788   9.155
  595POPC   GL212662  26.188  16.865   9.200
  595POPC   C1A12663  26.030  16.772   8.732
  595POPC   D2A12664  26.207  16.569   8.354
  595POPC   C3A12665  25.924  16.497   8.003
  595POPC   C4A12666  25.715  16.781   7.681
  595POPC   C1B12667  26.380  17.145   8.887
  595POPC   C2B12668  26.252  17.128   8.443
  595POPC   C3B12669  26.022  16.985   8.109
  595POPC   C4B12670  26.214  16.817   7.737
  596POPC   NC312671  18.874   4.701   9.690
  596POPC   PO412672  19.282   4.261   9.529
  596POPC   GL112673  19.021   4.368   9.214
  596POPC   GL212674  18.677   4.335   9.327
  596POPC   C1A12675  19.171   4.544   8.838
  596POPC   D2A12676  19.436   4.541   8.454
  596POPC   C3A12677  19.251   4.386   8.065
  596POPC   C4A12678  18.979   4.224   7.709
  596POPC   C1B12679  18.633   4.384   8.865
  596POPC   C2B12680  18.838   4.426   8.466
  596POPC   C3B12681  18.748   4.508   8.061
  596POPC   C4B12682  18.659   4.650   7.662
  597POPC   NC312683   9.909  14.553   9.591
  597POPC   PO412684   9.436  14.244   9.359
  597POPC   GL112685   9.830  14.264   9.144
  597POPC   GL212686   9.717  14.550   9.031
  597POPC   C1A12687  10.047  14.308   8.717
  597POPC   D2A12688   9.852  14.199   8.314
  597POPC   C3A12689   9.798  14.601   8.118
  597POPC   C4A12690   9.917  14.816   7.758
  597POPC   C1B12691   9.512  14.276   8.720
  597POPC   C2B12692   9.353  14.417   8.355
  597POPC   C3B12693   9.387  14.337   7.953
  597POPC   C4B12694   9.242  14.501   7.613
  598POPC   NC312695  41.088   9.340   9.524
  598POPC   PO412696  41.454   9.957   9.623
  598POPC   GL112697  41.461   9.950   9.159
  598POPC   GL212698  41.758   9.846   9.016
  598POPC   C1A12699  41.470  10.131   8.726
  598POPC   D2A12700  41.831  10.081   8.429
  598POPC   C3A12701  41.652   9.869   8.065
  598POPC   C4A12702  41.287   9.876   7.777
  598POPC   C1B12703  41.844   9.463   8.841
  598POPC   C2B12704  41.763   9.311   8.470
  598POPC   C3B12705  41.728   9.220   8.068
  598POPC   C4B12706  41.599   9.463   7.740
  599POPC   NC312707  39.268  39.695   9.574
  599POPC   PO412708  38.959  39.081   9.522
  599POPC   GL112709  39.175  39.096   9.132
  599POPC   GL212710  39.275  39.427   9.137
  599POPC   C1A12711  39.423  39.137   8.744
  599POPC   D2A12712  39.504  39.254   8.333
  599POPC   C3A12713  39.111  39.204   8.076
  599POPC   C4A12714  39.073  39.289   7.628
  599POPC   C1B12715  39.320  39.620   8.734
  599POPC   C2B12716  39.160  39.643   8.333
  599POPC   C3B12717  39.329  39.653   7.916
  599POPC   C4B12718  39.215  39.751   7.461
  600POPC   NC312719  24.536   1.196   9.672
  600POPC   PO412720  24.057   1.560   9.513
  600POPC   GL112721  24.372   1.338   9.197
  600POPC   GL212722  24.314   1.007   9.040
  600POPC   C1A12723  24.435   1.443   8.730
  600POPC   D2A12724  24.210   1.156   8.460
  600POPC   C3A12725  24.317   1.046   8.050
  600POPC   C4A12726  24.235   1.198   7.636
  600POPC   C1B12727  24.750   1.074   8.873
  600POPC   C2B12728  24.952   1.108   8.465
  600POPC   C3B12729  24.816   1.257   8.059
  600POPC   C4B12730  24.717   1.009   7.692
  601POPC   NC312731   8.054  17.985   9.443
  601POPC   PO412732   8.414  18.571   9.423
  601POPC   GL112733   8.268  18.330   9.118
  601POPC   GL212734   7.944  18.428   9.151
  601POPC   C1A12735   8.347  18.276   8.701
  601POPC   D2A12736   8.206  18.442   8.359
  601POPC   C3A12737   8.375  18.170   8.115
  601POPC   C4A12738   8.381  17.999   7.748
  601POPC   C1B12739   7.879  18.121   8.817
  601POPC   C2B12740   8.052  17.897   8.489
  601POPC   C3B12741   8.001  17.820   8.077
  601POPC   C4B12742   7.871  18.099   7.785
  602POPC   NC312743  29.659  38.883   9.618
  602POPC   PO412744  29.988  39.476   9.477
  602POPC   GL112745  29.786  39.372   9.102
  602POPC   GL212746  29.777  39.009   8.995
  602POPC   C1A12747  29.816  39.402   8.660
  602POPC   D2A12748  29.920  39.316   8.235
  602POPC   C3A12749  29.673  39.219   7.882
  602POPC   C4A12750  29.605  39.377   7.476
  602POPC   C1B12751  30.148  39.036   8.638
  602POPC   C2B12752  30.410  39.260   8.270
  602POPC   C3B12753  30.249  39.370   7.843
  602POPC   C4B12754  30.101  39.227   7.470
  603POPC   NC312755  40.859   3.974   9.618
  603POPC   PO412756  40.427   3.513   9.525
  603POPC   GL112757  40.677   3.469   9.189
  603POPC   GL212758  40.909   3.777   9.153
  603POPC   C1A12759  40.613   3.260   8.791
  603POPC   D2A12760  40.704   3.440   8.407
  603POPC   C3A12761  40.756   3.210   8.018
  603POPC   C4A12762  40.792   3.516   7.722
  603POPC   C1B12763  41.161   3.823   8.753
  603POPC   C2B12764  41.195   3.917   8.283
  603POPC   C3B12765  41.148   3.962   7.831
  603POPC   C4B12766  41.255   3.697   7.478
  604POPC   NC312767  13.720   5.121   9.922
  604POPC   PO412768  13.402   4.697   9.546
  604POPC   GL112769  13.590   4.952   9.246
  604POPC   GL212770  13.738   5.262   9.198
  604POPC   C1A12771  13.619   4.953   8.793
  604POPC   D2A12772  13.431   4.947   8.387
  604POPC   C3A12773  13.496   5.162   8.035
  604POPC   C4A12774  13.501   4.852   7.705
  604POPC   C1B12775  13.989   5.314   8.844
  604POPC   C2B12776  13.975   5.132   8.442
  604POPC   C3B12777  13.979   5.078   8.029
  604POPC   C4B12778  13.851   5.244   7.643
  605POPC   NC312779  38.610  41.904   9.359
  605POPC   PO412780  38.232  41.430   9.659
  605POPC   GL112781  38.459  41.427   9.222
  605POPC   GL212782  38.836  41.380   9.235
  605POPC   C1A12783  38.507  41.601   8.792
  605POPC   D2A12784  38.270  41.805   8.460
  605POPC   C3A12785  38.392  41.857   8.046
  605POPC   C4A12786  38.273  41.632   7.723
  605POPC   C1B12787  38.756  41.162   8.869
  605POPC   C2B12788  38.530  41.207   8.477
  605POPC   C3B12789  38.468  41.321   8.069
  605POPC   C4B12790  38.775  41.540   7.786
  606POPC   NC312791  39.151   3.378   9.459
  606POPC   PO412792  39.515   3.914   9.614
  606POPC   GL112793  39.298   3.749   9.166
  606POPC   GL212794  38.921   3.638   9.089
  606POPC   C1A12795  39.304   3.524   8.749
  606POPC   D2A12796  39.127   3.446   8.333
  606POPC   C3A12797  39.210   3.599   7.954
  606POPC   C4A12798  39.408   3.532   7.563
  606POPC   C1B12799  38.771   3.449   8.705
  606POPC   C2B12800  38.680   3.227   8.301
  606POPC   C3B12801  38.938   3.158   7.912
  606POPC   C4B12802  38.944   3.176   7.423
  607POPC   NC312803  26.684  43.676   9.455
  607POPC   PO412804  27.212  44.094   9.590
  607POPC   GL112805  27.048  44.174   9.119
  607POPC   GL212806  26.682  44.047   9.099
  607POPC   C1A12807  26.966  43.947   8.680
  607POPC   D2A12808  27.080  43.934   8.258
  607POPC   C3A12809  27.151  43.624   7.972
  607POPC   C4A12810  27.003  43.907   7.687
  607POPC   C1B12811  26.489  44.146   8.728
  607POPC   C2B12812  26.523  43.925   8.348
  607POPC   C3B12813  26.621  43.693   7.969
  607POPC   C4B12814  26.343  43.663   7.609
  608POPC   NC312815  30.289  30.437   9.473
  608POPC   PO412816  30.060  31.048   9.258
  608POPC   GL112817  29.944  30.669   9.090
  608POPC   GL212818  29.613  30.771   9.098
  608POPC   C1A12819  29.789  30.534   8.673
  608POPC   D2A12820  29.625  30.730   8.279
  608POPC   C3A12821  29.961  30.723   7.960
  608POPC   C4A12822  29.995  30.401   7.656
  608POPC   C1B12823  29.681  31.080   8.731
  608POPC   C2B12824  29.829  31.245   8.324
  608POPC   C3B12825  29.644  31.111   7.920
  608POPC   C4B12826  29.776  31.163   7.437
  609POPC   NC312827  28.873  32.557   9.480
  609POPC   PO412828  28.813  33.318   9.340
  609POPC   GL112829  29.045  32.976   9.154
  609POPC   GL212830  29.368  32.776   9.175
  609POPC   C1A12831  29.177  33.010   8.739
  609POPC   D2A12832  29.038  32.818   8.382
  609POPC   C3A12833  28.949  33.096   8.087
  609POPC   C4A12834  28.959  32.955   7.680
  609POPC   C1B12835  29.577  32.693   8.752
  609POPC   C2B12836  29.531  32.617   8.323
  609POPC   C3B12837  29.387  32.863   7.987
  609POPC   C4B12838  29.430  32.883   7.528
  610POPC   NC312839   6.463   9.176   9.491
  610POPC   PO412840   7.088   8.984   9.651
  610POPC   GL112841   6.806   9.004   9.179
  610POPC   GL212842   6.542   8.877   9.081
  610POPC   C1A12843   6.873   9.065   8.716
  610POPC   D2A12844   6.701   9.057   8.300
  610POPC   C3A12845   6.914   8.887   7.946
  610POPC   C4A12846   6.873   8.578   7.641
  610POPC   C1B12847   6.345   9.084   8.728
  610POPC   C2B12848   6.267   9.299   8.376
  610POPC   C3B12849   6.311   9.135   7.958
  610POPC   C4B12850   6.334   9.196   7.523
  611POPC   NC312851  16.716  35.460   9.596
  611POPC   PO412852  17.050  34.967   9.353
  611POPC   GL112853  16.864  35.216   9.063
  611POPC   GL212854  16.589  35.383   9.119
  611POPC   C1A12855  16.838  35.159   8.667
  611POPC   D2A12856  16.966  35.349   8.346
  611POPC   C3A12857  16.706  35.442   8.043
  611POPC   C4A12858  16.789  35.371   7.656
  611POPC   C1B12859  16.369  35.136   8.841
  611POPC   C2B12860  16.400  35.250   8.425
  611POPC   C3B12861  16.417  35.017   8.085
  611POPC   C4B12862  16.312  35.174   7.709
  612POPC   NC312863  25.352  30.806   9.728
  612POPC   PO412864  25.716  30.375   9.368
  612POPC   GL112865  25.420  30.746   9.213
  612POPC   GL212866  25.065  30.691   9.066
  612POPC   C1A12867  25.456  30.852   8.780
  612POPC   D2A12868  25.646  30.589   8.474
  612POPC   C3A12869  25.411  30.562   8.093
  612POPC   C4A12870  25.416  30.861   7.766
  612POPC   C1B12871  25.149  30.430   8.671
  612POPC   C2B12872  24.898  30.313   8.285
  612POPC   C3B12873  24.910  30.492   7.898
  612POPC   C4B12874  25.233  30.392   7.589
  613POPC   NC312875   3.974  35.342   9.439
  613POPC   PO412876   4.243  35.955   9.523
  613POPC   GL112877   4.250  35.706   9.101
  613POPC   GL212878   4.585  35.638   8.918
  613POPC   C1A12879   4.183  35.380   8.758
  613POPC   D2A12880   4.042  35.214   8.364
  613POPC   C3A12881   4.294  35.265   8.032
  613POPC   C4A12882   4.380  35.144   7.598
  613POPC   C1B12883   4.364  35.868   8.582
  613POPC   C2B12884   4.304  35.830   8.117
  613POPC   C3B12885   4.505  35.622   7.756
  613POPC   C4B12886   4.490  35.562   7.273
  614POPC   NC312887  38.037  10.492   9.994
  614POPC   PO412888  38.772  10.468   9.800
  614POPC   GL112889  38.551  10.552   9.398
  614POPC   GL212890  38.290  10.317   9.322
  614POPC   C1A12891  38.490  10.644   8.959
  614POPC   D2A12892  38.255  10.691   8.570
  614POPC   C3A12893  38.480  10.645   8.189
  614POPC   C4A12894  38.801  10.581   7.895
  614POPC   C1B12895  38.310  10.185   8.906
  614POPC   C2B12896  38.287  10.182   8.482
  614POPC   C3B12897  38.135  10.269   8.095
  614POPC   C4B12898  38.340  10.396   7.744
  615POPC   NC312899  19.900  43.940   9.677
  615POPC   PO412900  19.605  44.367   9.356
  615POPC   GL112901  19.917  44.090   9.155
  615POPC   GL212902  20.252  44.005   9.313
  615POPC   C1A12903  19.853  44.029   8.708
  615POPC   D2A12904  19.797  44.285   8.335
  615POPC   C3A12905  19.604  44.137   7.954
  615POPC   C4A12906  19.347  43.804   7.743
  615POPC   C1B12907  20.288  43.826   8.877
  615POPC   C2B12908  20.184  43.738   8.428
  615POPC   C3B12909  20.024  43.854   8.033
  615POPC   C4B12910  20.178  43.758   7.648
  616POPC   NC312911  40.549  27.858   9.363
  616POPC   PO412912  40.446  27.201   9.440
  616POPC   GL112913  40.724  27.407   9.077
  616POPC   GL212914  40.598  27.230   8.831
  616POPC   C1A12915  40.975  27.746   8.779
  616POPC   D2A12916  40.955  27.895   8.329
  616POPC   C3A12917  41.000  27.531   8.023
  616POPC   C4A12918  41.121  27.305   7.659
  616POPC   C1B12919  40.509  27.625   8.629
  616POPC   C2B12920  40.525  27.580   8.191
  616POPC   C3B12921  40.568  27.670   7.763
  616POPC   C4B12922  40.910  27.779   7.488
  617POPC   NC312923  21.612  30.751   9.396
  617POPC   PO412924  21.779  30.168   9.149
  617POPC   GL112925  21.471  30.475   8.978
  617POPC   GL212926  21.190  30.737   9.090
  617POPC   C1A12927  21.496  30.768   8.645
  617POPC   D2A12928  21.341  30.874   8.277
  617POPC   C3A12929  21.663  30.893   7.982
  617POPC   C4A12930  21.599  31.046   7.566
  617POPC   C1B12931  21.060  30.528   8.686
  617POPC   C2B12932  21.347  30.315   8.401
  617POPC   C3B12933  21.435  30.444   7.986
  617POPC   C4B12934  21.179  30.772   7.783
  618POPC   NC312935  43.938  42.541   9.408
  618POPC   PO412936  43.525  42.186   9.688
  618POPC   GL112937  43.734  42.123   9.222
  618POPC   GL212938  43.553  41.843   9.132
  618POPC   C1A12939  43.859  42.430   8.806
  618POPC   D2A12940  44.242  42.522   8.521
  618POPC   C3A12941  44.062  42.577   8.124
  618POPC   C4A12942  43.865  42.424   7.759
  618POPC   C1B12943  43.553  42.055   8.709
  618POPC   C2B12944  43.568  42.207   8.254
  618POPC   C3B12945  43.637  41.974   7.861
  618POPC   C4B12946  43.805  42.026   7.429
  619POPC   NC312947  44.685   9.931   9.590
  619POPC   PO412948  44.714   9.317   9.536
  619POPC   GL112949  44.549   9.469   9.134
  619POPC   GL212950  44.486   9.842   9.119
  619POPC   C1A12951  44.709   9.636   8.704
  619POPC   D2A12952  44.545   9.967   8.405
  619POPC   C3A12953  44.674   9.901   7.968
  619POPC   C4A12954  44.956   9.560   7.812
  619POPC   C1B12955  44.215   9.698   8.765
  619POPC   C2B12956  44.308   9.513   8.374
  619POPC   C3B12957  44.475   9.434   7.958
  619POPC   C4B12958  44.284   9.352   7.602
  620POPC   NC312959  26.561   5.342   9.615
  620POPC   PO412960  27.196   5.011   9.600
  620POPC   GL112961  26.922   5.216   9.274
  620POPC   GL212962  26.611   4.988   9.238
  620POPC   C1A12963  26.745   5.292   8.864
  620POPC   D2A12964  26.866   5.037   8.521
  620POPC   C3A12965  26.844   5.167   8.097
  620POPC   C4A12966  26.912   5.463   7.746
  620POPC   C1B12967  26.415   4.874   8.818
  620POPC   C2B12968  26.363   5.035   8.388
  620POPC   C3B12969  26.442   4.876   7.990
  620POPC   C4B12970  26.597   5.057   7.617
  621POPC   NC312971  21.803  35.124   9.433
  621POPC   PO412972  21.299  35.625   9.485
  621POPC   GL112973  21.405  35.354   9.167
  621POPC   GL212974  21.241  35.044   9.057
  621POPC   C1A12975  21.524  35.386   8.757
  621POPC   D2A12976  21.314  35.388   8.383
  621POPC   C3A12977  21.526  35.547   8.040
  621POPC   C4A12978  21.334  35.310   7.773
  621POPC   C1B12979  21.462  34.870   8.680
  621POPC   C2B12980  21.600  34.948   8.235
  621POPC   C3B12981  21.661  34.909   7.777
  621POPC   C4B12982  21.814  34.989   7.337
  622POPC   NC312983  17.380  28.894   9.457
  622POPC   PO412984  17.366  28.258   9.719
  622POPC   GL112985  17.494  28.250   9.274
  622POPC   GL212986  17.851  28.195   9.185
  622POPC   C1A12987  17.387  28.249   8.836
  622POPC   D2A12988  17.479  28.136   8.426
  622POPC   C3A12989  17.238  28.257   8.078
  622POPC   C4A12990  17.488  28.249   7.734
  622POPC   C1B12991  17.761  28.584   8.918
  622POPC   C2B12992  17.733  28.712   8.487
  622POPC   C3B12993  17.755  28.491   8.097
  622POPC   C4B12994  17.802  28.626   7.639
  623POPC   NC312995  13.342  21.395   9.790
  623POPC   PO412996  12.662  21.504   9.562
  623POPC   GL112997  12.775  21.335   9.146
  623POPC   GL212998  13.118  21.256   9.141
  623POPC   C1A12999  12.876  21.340   8.670
  623POPC   D2A13000  12.604  21.322   8.304
  623POPC   C3A13001  12.774  21.514   7.915
  623POPC   C4A13002  12.525  21.650   7.548
  623POPC   C1B13003  13.343  21.507   8.841
  623POPC   C2B13004  13.304  21.747   8.473
  623POPC   C3B13005  13.345  21.612   8.060
  623POPC   C4B13006  13.260  21.434   7.695
  624POPC   NC313007  37.815  32.714   9.666
  624POPC   PO413008  37.223  32.772   9.382
  624POPC   GL113009  37.508  32.853   9.062
  624POPC   GL213010  37.888  32.911   9.120
  624POPC   C1A13011  37.686  32.903   8.633
  624POPC   D2A13012  38.059  32.877   8.375
  624POPC   C3A13013  37.975  32.998   7.965
  624POPC   C4A13014  37.584  33.099   7.819
  624POPC   C1B13015  38.083  33.192   8.783
  624POPC   C2B13016  37.930  33.371   8.369
  624POPC   C3B13017  37.848  33.522   7.951
  624POPC   C4B13018  37.840  33.456   7.474
  625POPC   NC313019  24.901  27.751   9.493
  625POPC   PO413020  25.326  27.340   9.579
  625POPC   GL113021  25.250  27.456   9.170
  625POPC   GL213022  25.251  27.793   9.112
  625POPC   C1A13023  25.411  27.460   8.750
  625POPC   D2A13024  25.561  27.225   8.404
  625POPC   C3A13025  25.294  27.288   8.039
  625POPC   C4A13026  25.420  27.485   7.670
  625POPC   C1B13027  25.008  27.787   8.734
  625POPC   C2B13028  25.163  27.691   8.325
  625POPC   C3B13029  25.301  27.891   7.945
  625POPC   C4B13030  25.185  27.876   7.443
  626POPC   NC313031  34.276  29.544   9.822
  626POPC   PO413032  33.651  29.380   9.498
  626POPC   GL113033  33.679  29.116   9.176
  626POPC   GL213034  33.977  28.932   9.209
  626POPC   C1A13035  33.695  29.087   8.745
  626POPC   D2A13036  33.430  29.015   8.381
  626POPC   C3A13037  33.725  29.029   8.036
  626POPC   C4A13038  33.787  29.380   7.755
  626POPC   C1B13039  34.060  28.725   8.807
  626POPC   C2B13040  34.217  28.783   8.379
  626POPC   C3B13041  34.279  28.979   7.964
  626POPC   C4B13042  33.997  28.908   7.599
  627POPC   NC313043  15.291  34.861   9.804
  627POPC   PO413044  15.286  35.571   9.610
  627POPC   GL113045  15.270  35.459   9.144
  627POPC   GL213046  14.942  35.427   8.995
  627POPC   C1A13047  15.410  35.445   8.721
  627POPC   D2A13048  15.393  35.706   8.348
  627POPC   C3A13049  15.158  35.440   8.057
  627POPC   C4A13050  15.348  35.216   7.774
  627POPC   C1B13051  15.033  35.060   8.743
  627POPC   C2B13052  14.991  35.014   8.292
  627POPC   C3B13053  15.053  34.814   7.879
  627POPC   C4B13054  14.933  35.092   7.499
  628POPC   NC313055  39.297  11.621   9.517
  628POPC   PO413056  39.344  12.272   9.604
  628POPC   GL113057  39.403  12.012   9.211
  628POPC   GL213058  39.044  11.868   9.137
  628POPC   C1A13059  39.392  11.929   8.764
  628POPC   D2A13060  39.256  12.257   8.461
  628POPC   C3A13061  39.189  12.065   8.057
  628POPC   C4A13062  39.513  12.003   7.763
  628POPC   C1B13063  38.871  12.011   8.723
  628POPC   C2B13064  38.761  12.329   8.371
  628POPC   C3B13065  39.017  12.531   8.052
  628POPC   C4B13066  39.313  12.492   7.694
  629POPC   NC313067  24.920   2.923   9.465
  629POPC   PO413068  24.528   2.423   9.328
  629POPC   GL113069  24.633   2.730   9.060
  629POPC   GL213070  24.893   2.552   8.885
  629POPC   C1A13071  24.463   3.014   8.736
  629POPC   D2A13072  24.120   2.986   8.409
  629POPC   C3A13073  24.280   3.006   7.961
  629POPC   C4A13074  24.271   2.637   7.691
  629POPC   C1B13075  24.996   2.968   8.788
  629POPC   C2B13076  24.882   2.980   8.391
  629POPC   C3B13077  24.734   2.696   8.045
  629POPC   C4B13078  24.764   2.736   7.600
  630POPC   NC313079  37.648  29.494   9.592
  630POPC   PO413080  37.905  30.105   9.484
  630POPC   GL113081  37.784  29.807   9.136
  630POPC   GL213082  37.484  29.538   9.124
  630POPC   C1A13083  37.866  29.989   8.713
  630POPC   D2A13084  37.737  30.082   8.266
  630POPC   C3A13085  37.984  30.081   7.890
  630POPC   C4A13086  37.838  29.862   7.528
  630POPC   C1B13087  37.709  29.444   8.768
  630POPC   C2B13088  37.925  29.602   8.405
  630POPC   C3B13089  37.766  29.634   8.013
  630POPC   C4B13090  37.572  29.465   7.679
  631POPC   NC313091  14.796   9.939   9.450
  631POPC   PO413092  15.519   9.735   9.507
  631POPC   GL113093  15.364   9.821   9.116
  631POPC   GL213094  15.017   9.709   9.046
  631POPC   C1A13095  15.405   9.648   8.717
  631POPC   D2A13096  15.300   9.736   8.307
  631POPC   C3A13097  15.451   9.908   7.900
  631POPC   C4A13098  15.234   9.789   7.493
  631POPC   C1B13099  14.961  10.059   8.726
  631POPC   C2B13100  15.025  10.167   8.269
  631POPC   C3B13101  14.944   9.827   7.951
  631POPC   C4B13102  14.694   9.831   7.580
  632POPC   NC313103  41.467  17.062   9.537
  632POPC   PO413104  41.428  16.454   9.289
  632POPC   GL113105  41.503  16.796   9.106
  632POPC   GL213106  41.820  16.821   9.228
  632POPC   C1A13107  41.541  16.885   8.701
  632POPC   D2A13108  41.770  16.790   8.360
  632POPC   C3A13109  41.591  16.604   8.048
  632POPC   C4A13110  41.522  16.792   7.679
  632POPC   C1B13111  41.952  16.611   8.816
  632POPC   C2B13112  41.930  16.295   8.484
  632POPC   C3B13113  42.089  16.308   8.060
  632POPC   C4B13114  42.004  16.571   7.727
  633POPC   NC313115   7.685  16.650   9.404
  633POPC   PO413116   6.961  16.704   9.462
  633POPC   GL113117   7.234  16.928   9.117
  633POPC   GL213118   7.598  16.891   8.963
  633POPC   C1A13119   7.252  17.133   8.680
  633POPC   D2A13120   7.443  17.133   8.277
  633POPC   C3A13121   7.473  16.697   8.165
  633POPC   C4A13122   7.332  16.460   7.801
  633POPC   C1B13123   7.638  16.521   8.695
  633POPC   C2B13124   7.881  16.377   8.345
  633POPC   C3B13125   7.901  16.526   7.940
  633POPC   C4B13126   7.773  16.438   7.540
  634POPC   NC313127   9.608  18.294   9.777
  634POPC   PO413128   9.347  18.719   9.265
  634POPC   GL113129   9.563  18.381   9.004
  634POPC   GL213130   9.598  18.111   9.208
  634POPC   C1A13131   9.892  18.247   8.766
  634POPC   D2A13132   9.812  18.450   8.393
  634POPC   C3A13133   9.867  18.216   8.041
  634POPC   C4A13134   9.718  18.246   7.638
  634POPC   C1B13135   9.519  17.909   8.786
  634POPC   C2B13136   9.692  17.835   8.359
  634POPC   C3B13137   9.479  17.887   7.946
  634POPC   C4B13138   9.483  17.825   7.454
  635POPC   NC313139  21.302  41.836   9.553
  635POPC   PO413140  21.570  42.463   9.572
  635POPC   GL113141  21.512  42.500   9.164
  635POPC   GL213142  21.372  42.180   9.161
  635POPC   C1A13143  21.628  42.462   8.748
  635POPC   D2A13144  21.476  42.230   8.431
  635POPC   C3A13145  21.524  42.377   8.043
  635POPC   C4A13146  21.688  42.406   7.676
  635POPC   C1B13147  21.122  42.314   8.805
  635POPC   C2B13148  20.988  42.349   8.378
  635POPC   C3B13149  21.081  42.131   7.990
  635POPC   C4B13150  21.193  42.343   7.615
  636POPC   NC313151  30.717   5.598   9.409
  636POPC   PO413152  30.524   6.151   9.609
  636POPC   GL113153  30.615   6.037   9.170
  636POPC   GL213154  30.345   5.771   9.102
  636POPC   C1A13155  30.713   5.975   8.740
  636POPC   D2A13156  30.886   6.118   8.370
  636POPC   C3A13157  30.658   6.005   8.018
  636POPC   C4A13158  30.800   5.872   7.612
  636POPC   C1B13159  30.356   5.621   8.696
  636POPC   C2B13160  30.598   5.595   8.323
  636POPC   C3B13161  30.588   5.462   7.866
  636POPC   C4B13162  30.504   5.518   7.413
  637POPC   NC313163  38.813   0.228   9.469
  637POPC   PO413164  38.420   0.820   9.557
  637POPC   GL113165  38.598   0.666   9.172
  637POPC   GL213166  38.506   0.361   9.093
  637POPC   C1A13167  38.535   0.647   8.693
  637POPC   D2A13168  38.524   0.368   8.326
  637POPC   C3A13169  38.557   0.525   7.958
  637POPC   C4A13170  38.214   0.815   7.983
  637POPC   C1B13171  38.725   0.161   8.731
  637POPC   C2B13172  38.620  44.875   8.406
  637POPC   C3B13173  38.483  44.959   7.957
  637POPC   C4B13174  38.751   0.118   7.616
  638POPC   NC313175  25.810   2.382   9.505
  638POPC   PO413176  26.380   2.750   9.365
  638POPC   GL113177  26.160   2.500   9.127
  638POPC   GL213178  25.860   2.705   9.089
  638POPC   C1A13179  26.082   2.417   8.722
  638POPC   D2A13180  25.847   2.548   8.385
  638POPC   C3A13181  26.065   2.714   8.028
  638POPC   C4A13182  25.812   2.529   7.768
  638POPC   C1B13183  26.011   2.933   8.703
  638POPC   C2B13184  25.793   3.059   8.331
  638POPC   C3B13185  25.754   3.094   7.919
  638POPC   C4B13186  25.836   2.990   7.542
  639POPC   NC313187  11.993  32.470   9.573
  639POPC   PO413188  11.847  31.790   9.403
  639POPC   GL113189  12.174  32.100   9.253
  639POPC   GL213190  11.914  32.325   9.086
  639POPC   C1A13191  12.336  32.213   8.836
  639POPC   D2A13192  12.027  32.279   8.503
  639POPC   C3A13193  12.194  32.383   8.123
  639POPC   C4A13194  12.121  32.286   7.693
  639POPC   C1B13195  11.719  32.613   8.777
  639POPC   C2B13196  11.552  32.709   8.381
  639POPC   C3B13197  11.687  32.510   8.025
  639POPC   C4B13198  11.755  32.628   7.633
  640POPC   NC313199  40.374  16.734   9.678
  640POPC   PO413200  41.075  16.801   9.605
  640POPC   GL113201  40.746  16.710   9.264
  640POPC   GL213202  40.804  16.399   9.107
  640POPC   C1A13203  40.612  16.810   8.804
  640POPC   D2A13204  40.749  16.971   8.383
  640POPC   C3A13205  40.532  16.843   8.013
  640POPC   C4A13206  40.344  16.536   7.774
  640POPC   C1B13207  41.075  16.603   8.787
  640POPC   C2B13208  41.198  16.662   8.373
  640POPC   C3B13209  41.079  16.789   7.969
  640POPC   C4B13210  41.072  16.550   7.594
  641POPC   NC313211   0.889  22.659   9.425
  641POPC   PO413212   1.458  23.070   9.480
  641POPC   GL113213   1.228  22.937   9.140
  641POPC   GL213214   1.355  22.598   9.105
  641POPC   C1A13215   1.035  22.957   8.747
  641POPC   D2A13216   1.193  22.753   8.358
  641POPC   C3A13217   1.251  23.022   8.022
  641POPC   C4A13218   0.971  23.237   7.755
  641POPC   C1B13219   1.001  22.460   8.799
  641POPC   C2B13220   0.746  22.494   8.417
  641POPC   C3B13221   0.898  22.505   7.984
  641POPC   C4B13222   1.079  22.741   7.651
  642POPC   NC313223  11.704  34.576   9.595
  642POPC   PO413224  12.267  34.646   9.305
  642POPC   GL113225  11.886  34.760   9.118
  642POPC   GL213226  11.805  34.513   8.904
  642POPC   C1A13227  12.026  34.883   8.682
  642POPC   D2A13228  12.259  34.704   8.367
  642POPC   C3A13229  12.103  34.679   7.991
  642POPC   C4A13230  12.122  34.473   7.611
  642POPC   C1B13231  12.142  34.337   8.700
  642POPC   C2B13232  12.189  34.191   8.287
  642POPC   C3B13233  12.483  34.308   7.985
  642POPC   C4B13234  12.574  34.275   7.563
  643POPC   NC313235  43.276  42.696   9.702
  643POPC   PO413236  43.911  42.979   9.552
  643POPC   GL113237  43.896  43.184   9.196
  643POPC   GL213238  43.968  42.885   9.028
  643POPC   C1A13239  44.128  43.339   8.841
  643POPC   D2A13240  43.943  43.379   8.457
  643POPC   C3A13241  43.978  43.171   8.067
  643POPC   C4A13242  44.284  43.336   7.736
  643POPC   C1B13243  43.929  42.904   8.611
  643POPC   C2B13244  43.654  42.724   8.375
  643POPC   C3B13245  43.612  42.819   7.968
  643POPC   C4B13246  43.531  42.769   7.534
  644POPC   NC313247  24.431  26.465   9.545
  644POPC   PO413248  24.908  26.897   9.305
  644POPC   GL113249  24.609  26.851   8.947
  644POPC   GL213250  24.374  26.599   9.062
  644POPC   C1A13251  24.224  26.890   8.680
  644POPC   D2A13252  24.187  26.944   8.256
  644POPC   C3A13253  24.612  26.936   8.119
  644POPC   C4A13254  24.811  27.168   7.798
  644POPC   C1B13255  24.527  26.395   8.693
  644POPC   C2B13256  24.755  26.260   8.327
  644POPC   C3B13257  24.737  26.431   7.929
  644POPC   C4B13258  24.395  26.665   7.755
  645POPC   NC313259   9.374  21.475   9.542
  645POPC   PO413260   8.783  21.695   9.475
  645POPC   GL113261   8.883  21.371   9.161
  645POPC   GL213262   9.245  21.227   9.123
  645POPC   C1A13263   8.932  21.317   8.729
  645POPC   D2A13264   8.740  21.174   8.342
  645POPC   C3A13265   8.950  21.443   8.051
  645POPC   C4A13266   8.931  21.684   7.691
  645POPC   C1B13267   9.347  20.931   8.803
  645POPC   C2B13268   9.246  21.098   8.381
  645POPC   C3B13269   9.377  21.166   7.980
  645POPC   C4B13270   9.186  21.209   7.615
  646POPC   NC313271  20.240  25.321   9.933
  646POPC   PO413272  19.731  25.379   9.497
  646POPC   GL113273  19.808  25.582   9.108
  646POPC   GL213274  20.174  25.576   9.126
  646POPC   C1A13275  19.737  25.714   8.690
  646POPC   D2A13276  19.594  25.495   8.344
  646POPC   C3A13277  19.686  25.504   7.922
  646POPC   C4A13278  19.657  25.268   7.561
  646POPC   C1B13279  20.091  25.358   8.718
  646POPC   C2B13280  20.084  25.406   8.248
  646POPC   C3B13281  20.124  25.189   7.835
  646POPC   C4B13282  20.400  25.140   7.452
  647POPC   NC313283  22.338   7.578   9.447
  647POPC   PO413284  21.962   7.029   9.488
  647POPC   GL113285  22.183   7.158   9.142
  647POPC   GL213286  21.967   7.427   9.106
  647POPC   C1A13287  22.298   7.172   8.685
  647POPC   D2A13288  22.181   7.390   8.273
  647POPC   C3A13289  22.436   7.294   7.904
  647POPC   C4A13290  22.589   7.678   7.729
  647POPC   C1B13291  22.097   7.652   8.757
  647POPC   C2B13292  21.915   7.826   8.398
  647POPC   C3B13293  21.741   7.779   8.029
  647POPC   C4B13294  22.054   7.649   7.774
  648POPC   NC313295  20.305  13.776   9.459
  648POPC   PO413296  19.655  13.980   9.529
  648POPC   GL113297  19.842  14.298   9.249
  648POPC   GL213298  20.161  14.167   9.152
  648POPC   C1A13299  19.892  14.457   8.802
  648POPC   D2A13300  19.736  14.653   8.407
  648POPC   C3A13301  19.668  14.373   8.025
  648POPC   C4A13302  19.580  14.339   7.549
  648POPC   C1B13303  20.217  14.070   8.718
  648POPC   C2B13304  20.133  14.332   8.321
  648POPC   C3B13305  20.133  14.265   7.846
  648POPC   C4B13306  20.070  14.243   7.382
  649POPC   NC313307  36.881   4.035   9.901
  649POPC   PO413308  37.031   3.696   9.430
  649POPC   GL113309  37.083   4.042   9.166
  649POPC   GL213310  36.811   4.291   9.227
  649POPC   C1A13311  37.153   4.402   8.854
  649POPC   D2A13312  37.276   4.651   8.469
  649POPC   C3A13313  37.137   4.377   8.155
  649POPC   C4A13314  36.884   4.381   7.798
  649POPC   C1B13315  36.748   4.115   8.803
  649POPC   C2B13316  36.649   4.288   8.403
  649POPC   C3B13317  36.618   4.029   8.061
  649POPC   C4B13318  36.636   3.965   7.647
  650POPC   NC313319   9.451  39.797   9.359
  650POPC   PO413320   8.946  40.135   9.697
  650POPC   GL113321   8.913  40.040   9.264
  650POPC   GL213322   9.187  40.192   9.143
  650POPC   C1A13323   8.848  39.955   8.794
  650POPC   D2A13324   9.074  39.845   8.376
  650POPC   C3A13325   8.861  39.865   7.946
  650POPC   C4A13326   8.565  40.174   7.738
  650POPC   C1B13327   9.382  40.157   8.763
  650POPC   C2B13328   9.343  40.370   8.404
  650POPC   C3B13329   9.289  40.183   8.017
  650POPC   C4B13330   9.074  40.212   7.624
  651POPC   NC313331   5.736  38.823   9.403
  651POPC   PO413332   6.066  38.162   9.484
  651POPC   GL113333   5.872  38.360   9.192
  651POPC   GL213334   5.514  38.347   9.281
  651POPC   C1A13335   5.996  38.605   8.828
  651POPC   D2A13336   5.982  38.707   8.402
  651POPC   C3A13337   6.271  38.438   8.128
  651POPC   C4A13338   6.323  38.323   7.679
  651POPC   C1B13339   5.529  38.283   8.841
  651POPC   C2B13340   5.697  38.265   8.444
  651POPC   C3B13341   5.645  38.492   8.094
  651POPC   C4B13342   5.555  38.386   7.706
  652POPC   NC313343  35.868  11.646   9.418
  652POPC   PO413344  36.211  12.258   9.604
  652POPC   GL113345  36.184  12.140   9.183
  652POPC   GL213346  36.401  12.444   9.109
  652POPC   C1A13347  36.178  11.780   8.841
  652POPC   D2A13348  35.866  11.701   8.493
  652POPC   C3A13349  35.913  11.796   8.057
  652POPC   C4A13350  36.268  11.716   7.869
  652POPC   C1B13351  36.343  12.243   8.714
  652POPC   C2B13352  36.328  11.965   8.381
  652POPC   C3B13353  36.438  12.151   8.044
  652POPC   C4B13354  36.254  12.266   7.700
  653POPC   NC313355  11.009  13.434   9.510
  653POPC   PO413356  11.408  13.935   9.485
  653POPC   GL113357  11.142  13.805   9.142
  653POPC   GL213358  11.273  13.477   9.096
  653POPC   C1A13359  11.106  13.725   8.689
  653POPC   D2A13360  11.242  13.917   8.334
  653POPC   C3A13361  11.224  13.636   7.974
  653POPC   C4A13362  11.214  13.937   7.677
  653POPC   C1B13363  11.495  13.327   8.768
  653POPC   C2B13364  11.547  13.500   8.386
  653POPC   C3B13365  11.620  13.267   8.036
  653POPC   C4B13366  11.351  13.138   7.712
  654POPC   NC313367   4.110   0.901   9.470
  654POPC   PO413368   4.149   1.541   9.602
  654POPC   GL113369   4.252   1.378   9.196
  654POPC   GL213370   4.457   1.070   9.096
  654POPC   C1A13371   4.271   1.495   8.774
  654POPC   D2A13372   4.394   1.284   8.401
  654POPC   C3A13373   4.242   1.473   8.031
  654POPC   C4A13374   4.465   1.478   7.649
  654POPC   C1B13375   4.161   0.996   8.767
  654POPC   C2B13376   4.002   0.904   8.364
  654POPC   C3B13377   4.201   0.949   7.941
  654POPC   C4B13378   3.971   0.811   7.557
  655POPC   NC313379  34.913  27.936   9.539
  655POPC   PO413380  34.653  27.278   9.514
  655POPC   GL113381  34.537  27.455   9.134
  655POPC   GL213382  34.526  27.792   9.173
  655POPC   C1A13383  34.370  27.546   8.735
  655POPC   D2A13384  34.539  27.437   8.380
  655POPC   C3A13385  34.265  27.288   8.081
  655POPC   C4A13386  34.259  27.429   7.687
  655POPC   C1B13387  34.790  27.812   8.836
  655POPC   C2B13388  34.625  27.965   8.436
  655POPC   C3B13389  34.556  27.794   8.030
  655POPC   C4B13390  34.679  27.734   7.622
  656POPC   NC313391  16.121  13.187   9.626
  656POPC   PO413392  16.493  12.618   9.427
  656POPC   GL113393  16.188  12.691   9.122
  656POPC   GL213394  16.028  12.993   9.130
  656POPC   C1A13395  15.979  12.723   8.711
  656POPC   D2A13396  15.825  13.015   8.426
  656POPC   C3A13397  15.924  12.853   8.030
  656POPC   C4A13398  16.026  12.743   7.606
  656POPC   C1B13399  16.213  13.183   8.718
  656POPC   C2B13400  16.269  13.425   8.365
  656POPC   C3B13401  16.315  13.275   7.943
  656POPC   C4B13402  16.096  13.253   7.570
  657POPC   NC313403  41.730  26.581   9.782
  657POPC   PO413404  41.402  27.116   9.577
  657POPC   GL113405  41.531  27.055   9.168
  657POPC   GL213406  41.201  26.942   9.114
  657POPC   C1A13407  41.721  27.056   8.745
  657POPC   D2A13408  41.584  26.895   8.340
  657POPC   C3A13409  41.881  26.790   7.996
  657POPC   C4A13410  41.852  26.718   7.511
  657POPC   C1B13411  41.384  26.632   8.836
  657POPC   C2B13412  41.398  26.390   8.455
  657POPC   C3B13413  41.416  26.541   8.016
  657POPC   C4B13414  41.461  26.923   7.770
  658POPC   NC313415  14.946  33.185   9.787
  658POPC   PO413416  15.087  33.741   9.437
  658POPC   GL113417  15.114  33.701   9.028
  658POPC   GL213418  15.462  33.765   9.012
  658POPC   C1A13419  14.871  33.871   8.681
  658POPC   D2A13420  14.888  34.065   8.283
  658POPC   C3A13421  14.981  33.798   7.959
  658POPC   C4A13422  15.362  33.868   7.784
  658POPC   C1B13423  15.473  33.375   8.734
  658POPC   C2B13424  15.455  33.139   8.344
  658POPC   C3B13425  15.415  33.405   7.992
  658POPC   C4B13426  15.559  33.448   7.559
  659POPC   NC313427  42.207  43.146   9.438
  659POPC   PO413428  42.820  43.337   9.304
  659POPC   GL113429  42.641  43.170   8.964
  659POPC   GL213430  42.347  42.955   8.991
  659POPC   C1A13431  42.553  43.140   8.544
  659POPC   D2A13432  42.268  43.302   8.247
  659POPC   C3A13433  42.506  43.307   7.859
  659POPC   C4A13434  42.685  42.964   7.642
  659POPC   C1B13435  42.041  42.970   8.639
  659POPC   C2B13436  42.004  42.756   8.278
  659POPC   C3B13437  42.267  42.869   7.962
  659POPC   C4B13438  42.163  42.951   7.538
  660POPC   NC313439  43.672  23.572   9.718
  660POPC   PO413440  44.122  24.023   9.601
  660POPC   GL113441  44.142  23.734   9.306
  660POPC   GL213442  43.818  23.704   9.235
  660POPC   C1A13443  44.142  23.652   8.835
  660POPC   D2A13444  44.306  23.765   8.440
  660POPC   C3A13445  43.992  23.790   8.130
  660POPC   C4A13446  43.861  23.771   7.719
  660POPC   C1B13447  43.656  23.795   8.858
  660POPC   C2B13448  43.579  23.711   8.457
  660POPC   C3B13449  43.501  23.619   8.058
  660POPC   C4B13450  43.371  23.935   7.738
  661POPC   NC313451   3.784  19.497   9.334
  661POPC   PO413452   3.436  18.980   9.525
  661POPC   GL113453   3.401  19.157   9.148
  661POPC   GL213454   3.719  19.061   9.074
  661POPC   C1A13455   3.340  18.989   8.738
  661POPC   D2A13456   3.305  19.179   8.320
  661POPC   C3A13457   3.329  18.984   7.910
  661POPC   C4A13458   3.634  19.062   7.595
  661POPC   C1B13459   3.850  18.777   8.760
  661POPC   C2B13460   4.008  18.799   8.341
  661POPC   C3B13461   3.844  19.114   8.064
  661POPC   C4B13462   3.931  19.454   7.781
  662POPC   NC313463  40.165  14.771   9.516
  662POPC   PO413464  40.036  15.439   9.569
  662POPC   GL113465  39.937  15.169   9.227
  662POPC   GL213466  39.657  15.350   9.167
  662POPC   C1A13467  40.016  14.891   8.862
  662POPC   D2A13468  40.067  15.047   8.432
  662POPC   C3A13469  39.984  14.894   8.021
  662POPC   C4A13470  40.146  14.955   7.615
  662POPC   C1B13471  39.600  15.166   8.778
  662POPC   C2B13472  39.604  15.272   8.366
  662POPC   C3B13473  39.862  15.371   8.031
  662POPC   C4B13474  39.760  15.269   7.662
  663POPC   NC313475  19.113   2.205   9.416
  663POPC   PO413476  19.396   1.655   9.706
  663POPC   GL113477  19.200   1.697   9.207
  663POPC   GL213478  18.890   1.909   9.062
  663POPC   C1A13479  19.223   1.742   8.729
  663POPC   D2A13480  19.121   2.049   8.392
  663POPC   C3A13481  19.200   1.941   7.968
  663POPC   C4A13482  18.847   1.757   7.765
  663POPC   C1B13483  18.872   2.310   8.789
  663POPC   C2B13484  18.776   2.472   8.354
  663POPC   C3B13485  18.767   2.236   7.968
  663POPC   C4B13486  18.752   2.201   7.515
  664POPC   NC313487  36.587   3.885   9.450
  664POPC   PO413488  35.948   3.607   9.446
  664POPC   GL113489  36.126   3.598   9.095
  664POPC   GL213490  36.240   3.945   9.072
  664POPC   C1A13491  36.032   3.464   8.679
  664POPC   D2A13492  36.029   3.694   8.294
  664POPC   C3A13493  35.958   3.396   8.004
  664POPC   C4A13494  36.137   3.277   7.656
  664POPC   C1B13495  36.462   3.709   8.762
  664POPC   C2B13496  36.565   3.621   8.385
  664POPC   C3B13497  36.469   3.533   7.975
  664POPC   C4B13498  36.184   3.803   7.790
  665POPC   NC313499  39.073  43.965   9.684
  665POPC   PO413500  39.607  44.069   9.424
  665POPC   GL113501  39.212  43.886   9.155
  665POPC   GL213502  38.915  44.065   9.159
  665POPC   C1A13503  39.282  43.733   8.705
  665POPC   D2A13504  39.384  43.859   8.272
  665POPC   C3A13505  39.377  43.554   7.950
  665POPC   C4A13506  39.432  43.590   7.496
  665POPC   C1B13507  38.755  43.926   8.812
  665POPC   C2B13508  38.876  43.843   8.423
  665POPC   C3B13509  38.902  43.832   8.033
  665POPC   C4B13510  38.794  44.134   7.772
  666POPC   NC313511  18.838  24.587   9.582
  666POPC   PO413512  19.424  24.525   9.405
  666POPC   GL113513  19.090  24.693   9.130
  666POPC   GL213514  18.838  24.430   9.099
  666POPC   C1A13515  19.037  24.647   8.668
  666POPC   D2A13516  19.034  24.844   8.257
  666POPC   C3A13517  19.037  24.572   7.929
  666POPC   C4A13518  18.688  24.382   7.784
  666POPC   C1B13519  18.751  24.224   8.693
  666POPC   C2B13520  18.834  24.183   8.231
  666POPC   C3B13521  19.057  24.028   7.833
  666POPC   C4B13522  19.210  23.854   7.408
  667POPC   NC313523  44.042  25.728   9.400
  667POPC   PO413524  43.967  26.344   9.522
  667POPC   GL113525  43.994  26.160   9.091
  667POPC   GL213526  43.694  25.912   9.036
  667POPC   C1A13527  43.885  26.303   8.660
  667POPC   D2A13528  43.786  26.477   8.231
  667POPC   C3A13529  44.104  26.373   7.909
  667POPC   C4A13530  44.243  25.911   7.797
  667POPC   C1B13531  43.949  25.765   8.708
  667POPC   C2B13532  44.136  25.949   8.330
  667POPC   C3B13533  43.807  25.989   8.029
  667POPC   C4B13534  43.446  25.787   7.968
  668POPC   NC313535  31.857  14.530   9.676
  668POPC   PO413536  31.356  14.170   9.461
  668POPC   GL113537  31.687  14.316   9.215
  668POPC   GL213538  31.434  14.478   9.057
  668POPC   C1A13539  31.778  14.280   8.769
  668POPC   D2A13540  31.435  14.129   8.547
  668POPC   C3A13541  31.368  14.046   8.084
  668POPC   C4A13542  31.449  14.202   7.631
  668POPC   C1B13543  31.388  14.743   8.711
  668POPC   C2B13544  31.644  14.746   8.394
  668POPC   C3B13545  31.588  14.510   8.055
  668POPC   C4B13546  31.269  14.636   7.789
  669POPC   NC313547  41.974   1.917   9.498
  669POPC   PO413548  41.546   2.385   9.509
  669POPC   GL113549  41.702   2.165   9.138
  669POPC   GL213550  41.720   1.783   9.093
  669POPC   C1A13551  41.540   2.092   8.724
  669POPC   D2A13552  41.480   1.860   8.373
  669POPC   C3A13553  41.629   2.085   8.046
  669POPC   C4A13554  41.354   2.094   7.681
  669POPC   C1B13555  41.756   1.568   8.708
  669POPC   C2B13556  41.740   1.422   8.266
  669POPC   C3B13557  41.518   1.620   7.911
  669POPC   C4B13558  41.796   1.828   7.640
  670POPC   NC313559  32.531  13.724   9.452
  670POPC   PO413560  31.949  13.383   9.438
  670POPC   GL113561  32.185  13.515   9.109
  670POPC   GL213562  32.446  13.305   9.058
  670POPC   C1A13563  32.243  13.754   8.749
  670POPC   D2A13564  32.510  13.854   8.407
  670POPC   C3A13565  32.254  13.802   8.043
  670POPC   C4A13566  32.174  13.799   7.592
  670POPC   C1B13567  32.594  13.391   8.645
  670POPC   C2B13568  32.428  13.360   8.252
  670POPC   C3B13569  32.501  13.415   7.810
  670POPC   C4B13570  32.250  13.298   7.515
  671POPC   NC313571  39.044  21.544   9.553
  671POPC   PO413572  39.217  20.941   9.464
  671POPC   GL113573  39.248  21.305   9.131
  671POPC   GL213574  38.922  21.526   9.069
  671POPC   C1A13575  39.222  21.385   8.652
  671POPC   D2A13576  39.425  21.547   8.248
  671POPC   C3A13577  39.493  21.289   7.844
  671POPC   C4A13578  39.514  21.568   7.409
  671POPC   C1B13579  38.860  21.086   8.911
  671POPC   C2B13580  38.884  21.015   8.494
  671POPC   C3B13581  39.027  21.239   8.134
  671POPC   C4B13582  38.997  21.114   7.712
  672POPC   NC313583   3.984  38.008   9.848
  672POPC   PO413584   4.100  37.554   9.359
  672POPC   GL113585   4.330  37.783   9.028
  672POPC   GL213586   4.644  37.837   9.181
  672POPC   C1A13587   4.407  37.781   8.567
  672POPC   D2A13588   4.335  37.494   8.221
  672POPC   C3A13589   4.033  37.620   7.867
  672POPC   C4A13590   4.114  38.013   7.861
  672POPC   C1B13591   4.781  37.555   8.840
  672POPC   C2B13592   4.726  37.249   8.531
  672POPC   C3B13593   4.720  37.191   8.074
  672POPC   C4B13594   4.430  37.368   7.714
  673POPC   NC313595  40.060  18.760   9.492
  673POPC   PO413596  39.794  19.404   9.536
  673POPC   GL113597  40.047  19.154   9.157
  673POPC   GL213598  40.158  18.779   9.014
  673POPC   C1A13599  40.106  19.168   8.701
  673POPC   D2A13600  39.932  19.354   8.350
  673POPC   C3A13601  39.999  19.137   7.955
  673POPC   C4A13602  39.728  19.095   7.616
  673POPC   C1B13603  39.823  18.747   8.720
  673POPC   C2B13604  39.874  18.749   8.320
  673POPC   C3B13605  39.609  18.782   8.012
  673POPC   C4B13606  39.620  18.610   7.651
  674POPC   NC313607  23.435   8.997   9.503
  674POPC   PO413608  23.970   8.705   9.475
  674POPC   GL113609  23.825   8.691   9.081
  674POPC   GL213610  23.489   8.812   9.027
  674POPC   C1A13611  23.866   8.754   8.657
  674POPC   D2A13612  23.552   8.602   8.385
  674POPC   C3A13613  23.633   8.727   7.964
  674POPC   C4A13614  23.675   8.778   7.502
  674POPC   C1B13615  23.468   9.057   8.613
  674POPC   C2B13616  23.256   9.011   8.219
  674POPC   C3B13617  23.288   9.069   7.750
  674POPC   C4B13618  23.187   8.934   7.324
  675POPC   NC313619  13.434   9.130   9.340
  675POPC   PO413620  12.714   9.100   9.293
  675POPC   GL113621  12.796   8.796   8.971
  675POPC   GL213622  13.123   8.796   9.089
  675POPC   C1A13623  12.882   8.746   8.538
  675POPC   D2A13624  12.673   9.036   8.280
  675POPC   C3A13625  12.741   8.920   7.889
  675POPC   C4A13626  13.076   8.577   7.853
  675POPC   C1B13627  13.126   9.143   8.781
  675POPC   C2B13628  13.312   9.253   8.433
  675POPC   C3B13629  13.193   9.036   8.101
  675POPC   C4B13630  13.183   9.062   7.681
  676POPC   NC313631  11.107  34.533   9.524
  676POPC   PO413632  11.616  34.260   9.275
  676POPC   GL113633  11.324  34.510   9.070
  676POPC   GL213634  11.328  34.864   9.156
  676POPC   C1A13635  11.051  34.572   8.735
  676POPC   D2A13636  11.205  34.743   8.367
  676POPC   C3A13637  11.049  34.565   8.014
  676POPC   C4A13638  11.314  34.435   7.730
  676POPC   C1B13639  11.528  34.931   8.758
  676POPC   C2B13640  11.655  35.030   8.330
  676POPC   C3B13641  11.449  34.927   7.936
  676POPC   C4B13642  11.702  34.735   7.655
  677POPC   NC313643  34.282  27.579   9.573
  677POPC   PO413644  33.635  27.752   9.533
  677POPC   GL113645  33.722  27.457   9.203
  677POPC   GL213646  34.023  27.632   9.122
  677POPC   C1A13647  33.743  27.389   8.744
  677POPC   D2A13648  33.577  27.582   8.355
  677POPC   C3A13649  33.785  27.507   7.951
  677POPC   C4A13650  33.763  27.216   7.615
  677POPC   C1B13651  33.967  27.843   8.716
  677POPC   C2B13652  34.108  27.756   8.289
  677POPC   C3B13653  34.094  27.906   7.837
  677POPC   C4B13654  33.912  27.687   7.446
  678POPC   NC313655  21.922  44.340   9.423
  678POPC   PO413656  22.165   0.011   9.449
  678POPC   GL113657  21.953  44.795   9.172
  678POPC   GL213658  22.240  44.600   9.089
  678POPC   C1A13659  21.926  44.814   8.750
  678POPC   D2A13660  22.117  44.824   8.359
  678POPC   C3A13661  21.916   0.077   8.068
  678POPC   C4A13662  21.850  44.889   7.697
  678POPC   C1B13663  22.280  44.422   8.676
  678POPC   C2B13664  22.176  44.309   8.259
  678POPC   C3B13665  22.015  44.403   7.883
  678POPC   C4B13666  22.151  44.557   7.468
  679POPC   NC313667   2.417  22.102   9.393
  679POPC   PO413668   1.766  21.927   9.587
  679POPC   GL113669   2.011  21.847   9.223
  679POPC   GL213670   2.028  22.162   9.066
  679POPC   C1A13671   2.060  21.760   8.761
  679POPC   D2A13672   1.946  22.022   8.418
  679POPC   C3A13673   2.053  21.883   8.000
  679POPC   C4A13674   1.729  22.018   7.744
  679POPC   C1B13675   2.293  22.267   8.706
  679POPC   C2B13676   2.233  22.429   8.265
  679POPC   C3B13677   2.043  22.402   7.851
  679POPC   C4B13678   2.147  22.638   7.467
  680POPC   NC313679   9.304  38.324   9.425
  680POPC   PO413680   8.698  38.666   9.530
  680POPC   GL113681   8.951  38.608   9.188
  680POPC   GL213682   9.238  38.835   9.164
  680POPC   C1A13683   8.885  38.408   8.804
  680POPC   D2A13684   8.753  38.425   8.373
  680POPC   C3A13685   8.990  38.464   8.032
  680POPC   C4A13686   9.266  38.304   7.752
  680POPC   C1B13687   9.357  38.637   8.817
  680POPC   C2B13688   9.301  38.325   8.514
  680POPC   C3B13689   9.506  38.428   8.165
  680POPC   C4B13690   9.460  38.776   7.850
  681POPC   NC313691  26.943  33.877   9.614
  681POPC   PO413692  26.987  33.393   9.219
  681POPC   GL113693  27.096  33.826   9.127
  681POPC   GL213694  26.756  33.954   9.139
  681POPC   C1A13695  27.077  34.070   8.759
  681POPC   D2A13696  26.884  33.847   8.419
  681POPC   C3A13697  27.117  33.819   8.049
  681POPC   C4A13698  26.963  33.632   7.639
  681POPC   C1B13699  26.557  33.686   8.812
  681POPC   C2B13700  26.575  33.425   8.434
  681POPC   C3B13701  26.612  33.611   8.008
  681POPC   C4B13702  26.457  33.775   7.589
  682POPC   NC313703  29.154   2.441   9.389
  682POPC   PO413704  29.381   3.107   9.496
  682POPC   GL113705  29.342   2.988   9.091
  682POPC   GL213706  29.497   2.699   9.129
  682POPC   C1A13707  29.124   2.735   8.750
  682POPC   D2A13708  28.956   2.479   8.375
  682POPC   C3A13709  28.914   2.715   7.951
  682POPC   C4A13710  28.883   2.571   7.491
  682POPC   C1B13711  29.658   2.673   8.727
  682POPC   C2B13712  29.482   2.600   8.328
  682POPC   C3B13713  29.466   2.848   7.957
  682POPC   C4B13714  29.214   3.025   7.620
  683POPC   NC313715  36.326  42.806   9.513
  683POPC   PO413716  36.347  43.502   9.348
  683POPC   GL113717  36.078  43.366   9.034
  683POPC   GL213718  36.225  43.024   9.048
  683POPC   C1A13719  35.849  43.469   8.624
  683POPC   D2A13720  36.080  43.290   8.228
  683POPC   C3A13721  35.836  42.962   7.955
  683POPC   C4A13722  35.815  42.757   7.532
  683POPC   C1B13723  36.555  42.840   8.770
  683POPC   C2B13724  36.568  43.046   8.344
  683POPC   C3B13725  36.363  42.904   7.968
  683POPC   C4B13726  36.319  42.544   7.668
  684POPC   NC313727  23.275  27.963   9.483
  684POPC   PO413728  22.715  27.751   9.670
  684POPC   GL113729  22.866  27.745   9.204
  684POPC   GL213730  22.622  27.509   9.092
  684POPC   C1A13731  22.986  27.664   8.716
  684POPC   D2A13732  23.218  27.556   8.260
  684POPC   C3A13733  22.931  27.549   7.897
  684POPC   C4A13734  22.762  27.946   7.751
  684POPC   C1B13735  22.716  27.210   8.769
  684POPC   C2B13736  22.885  27.209   8.376
  684POPC   C3B13737  22.745  27.075   7.988
  684POPC   C4B13738  22.630  27.194   7.581
  685POPC   NC313739  17.027   9.236   9.574
  685POPC   PO413740  17.628   8.911   9.741
  685POPC   GL113741  17.432   8.963   9.312
  685POPC   GL213742  17.369   9.283   9.200
  685POPC   C1A13743  17.516   8.891   8.855
  685POPC   D2A13744  17.601   8.700   8.436
  685POPC   C3A13745  17.615   8.906   8.039
  685POPC   C4A13746  17.861   8.694   7.729
  685POPC   C1B13747  17.499   9.413   8.794
  685POPC   C2B13748  17.438   9.200   8.432
  685POPC   C3B13749  17.154   9.167   8.126
  685POPC   C4B13750  17.248   9.333   7.769
  686POPC   NC313751  41.873  21.708   9.547
  686POPC   PO413752  41.904  21.132   9.233
  686POPC   GL113753  41.641  21.432   9.058
  686POPC   GL213754  41.824  21.736   9.048
  686POPC   C1A13755  41.366  21.290   8.690
  686POPC   D2A13756  41.317  21.147   8.257
  686POPC   C3A13757  41.611  21.119   7.943
  686POPC   C4A13758  41.498  21.478   7.741
  686POPC   C1B13759  41.704  21.677   8.625
  686POPC   C2B13760  41.784  21.508   8.234
  686POPC   C3B13761  41.829  21.819   7.927
  686POPC   C4B13762  41.806  21.798   7.474
  687POPC   NC313763  37.774  14.180   9.575
  687POPC   PO413764  37.723  14.784   9.266
  687POPC   GL113765  37.595  14.378   9.142
  687POPC   GL213766  37.430  14.523   8.896
  687POPC   C1A13767  37.636  14.053   8.810
  687POPC   D2A13768  37.622  13.963   8.348
  687POPC   C3A13769  37.712  14.322   8.030
  687POPC   C4A13770  37.933  14.341   7.611
  687POPC   C1B13771  37.246  14.805   8.605
  687POPC   C2B13772  37.428  15.065   8.300
  687POPC   C3B13773  37.311  14.925   7.903
  687POPC   C4B13774  37.551  14.680   7.648
  688POPC   NC313775  42.485  13.164   9.514
  688POPC   PO413776  42.055  12.661   9.616
  688POPC   GL113777  42.264  12.757   9.210
  688POPC   GL213778  42.187  13.099   9.115
  688POPC   C1A13779  42.086  12.783   8.750
  688POPC   D2A13780  42.081  12.496   8.418
  688POPC   C3A13781  41.985  12.586   8.017
  688POPC   C4A13782  42.175  12.657   7.658
  688POPC   C1B13783  42.542  13.010   8.851
  688POPC   C2B13784  42.595  12.843   8.467
  688POPC   C3B13785  42.477  12.809   8.064
  688POPC   C4B13786  42.369  13.105   7.783
  689POPC   NC313787  40.041  21.590   9.489
  689POPC   PO413788  40.065  21.017   9.154
  689POPC   GL113789  39.945  21.398   9.002
  689POPC   GL213790  40.277  21.489   9.058
  689POPC   C1A13791  39.738  21.283   8.617
  689POPC   D2A13792  39.896  20.945   8.361
  689POPC   C3A13793  39.968  21.242   8.068
  689POPC   C4A13794  39.937  21.430   7.656
  689POPC   C1B13795  40.308  21.741   8.710
  689POPC   C2B13796  40.601  21.844   8.416
  689POPC   C3B13797  40.587  21.751   7.981
  689POPC   C4B13798  40.219  21.869   7.755
  690POPC   NC313799  13.176  31.302   9.482
  690POPC   PO413800  12.738  31.738   9.562
  690POPC   GL113801  12.755  31.478   9.223
  690POPC   GL213802  13.038  31.568   9.077
  690POPC   C1A13803  12.622  31.274   8.845
  690POPC   D2A13804  12.438  31.353   8.444
  690POPC   C3A13805  12.675  31.546   8.140
  690POPC   C4A13806  12.739  31.490   7.721
  690POPC   C1B13807  13.139  31.885   8.837
  690POPC   C2B13808  13.034  31.780   8.435
  690POPC   C3B13809  13.017  31.932   8.036
  690POPC   C4B13810  13.153  31.777   7.639
  691POPC   NC313811  13.386  28.117   9.514
  691POPC   PO413812  13.852  28.573   9.487
  691POPC   GL113813  13.720  28.547   9.087
  691POPC   GL213814  13.366  28.507   9.117
  691POPC   C1A13815  13.861  28.412   8.707
  691POPC   D2A13816  13.719  28.231   8.371
  691POPC   C3A13817  13.907  28.457   8.042
  691POPC   C4A13818  13.823  28.302   7.680
  691POPC   C1B13819  13.241  28.329   8.705
  691POPC   C2B13820  13.153  28.194   8.286
  691POPC   C3B13821  13.382  28.384   7.946
  691POPC   C4B13822  13.373  28.427   7.475
  692POPC   NC313823  11.179  24.903   9.364
  692POPC   PO413824  10.959  24.228   9.534
  692POPC   GL113825  11.169  24.375   9.129
  692POPC   GL213826  11.447  24.627   9.029
  692POPC   C1A13827  11.100  24.429   8.677
  692POPC   D2A13828  11.052  24.575   8.253
  692POPC   C3A13829  11.237  24.336   7.896
  692POPC   C4A13830  11.126  24.136   7.479
  692POPC   C1B13831  11.323  24.920   8.665
  692POPC   C2B13832  11.522  25.077   8.274
  692POPC   C3B13833  11.417  24.804   7.941
  692POPC   C4B13834  10.948  24.805   7.792
  693POPC   NC313835  36.604  43.947   9.288
  693POPC   PO413836  37.186  43.623   9.396
  693POPC   GL113837  37.068  43.771   8.994
  693POPC   GL213838  37.224  44.091   9.060
  693POPC   C1A13839  36.821  43.716   8.591
  693POPC   D2A13840  36.556  43.583   8.234
  693POPC   C3A13841  36.700  43.804   7.867
  693POPC   C4A13842  37.123  43.886   7.723
  693POPC   C1B13843  37.000  44.187   8.677
  693POPC   C2B13844  37.011  44.073   8.239
  693POPC   C3B13845  37.071  44.353   7.911
  693POPC   C4B13846  37.290  44.358   7.529
  694POPC   NC313847  21.828  31.368   9.455
  694POPC   PO413848  22.527  31.499   9.471
  694POPC   GL113849  22.287  31.572   9.098
  694POPC   GL213850  21.910  31.680   9.067
  694POPC   C1A13851  22.346  31.440   8.677
  694POPC   D2A13852  22.243  31.282   8.271
  694POPC   C3A13853  22.526  31.324   7.945
  694POPC   C4A13854  22.288  31.597   7.689
  694POPC   C1B13855  21.849  31.296   8.800
  694POPC   C2B13856  21.732  31.244   8.372
  694POPC   C3B13857  21.810  31.373   7.950
  694POPC   C4B13858  22.093  31.096   7.768
  695POPC   NC313859   1.445  29.645   9.393
  695POPC   PO413860   1.040  30.089   9.764
  695POPC   GL113861   1.047  30.199   9.301
  695POPC   GL213862   1.057  29.879   9.158
  695POPC   C1A13863   1.172  30.299   8.840
  695POPC   D2A13864   1.040  30.107   8.438
  695POPC   C3A13865   1.128  30.276   8.029
  695POPC   C4A13866   1.248  30.108   7.627
  695POPC   C1B13867   0.926  29.735   8.778
  695POPC   C2B13868   0.956  29.572   8.377
  695POPC   C3B13869   1.189  29.722   8.034
  695POPC   C4B13870   0.975  29.680   7.658
  696POPC   NC313871  33.226  13.305   9.548
  696POPC   PO413872  33.308  13.891   9.462
  696POPC   GL113873  33.002  13.634   9.202
  696POPC   GL213874  32.705  13.760   8.988
  696POPC   C1A13875  33.071  13.417   8.832
  696POPC   D2A13876  33.050  13.539   8.435
  696POPC   C3A13877  32.857  13.627   8.099
  696POPC   C4A13878  32.984  13.599   7.681
  696POPC   C1B13879  33.013  13.941   8.752
  696POPC   C2B13880  33.176  14.021   8.344
  696POPC   C3B13881  33.040  14.065   7.908
  696POPC   C4B13882  32.640  13.971   7.774
  697POPC   NC313883  14.840  11.741   9.703
  697POPC   PO413884  14.198  11.886   9.642
  697POPC   GL113885  14.233  11.843   9.089
  697POPC   GL213886  14.248  12.138   8.960
  697POPC   C1A13887  14.597  11.890   8.689
  697POPC   D2A13888  14.558  12.276   8.432
  697POPC   C3A13889  14.615  12.234   7.989
  697POPC   C4A13890  14.539  11.832   7.759
  697POPC   C1B13891  14.103  11.919   8.596
  697POPC   C2B13892  14.339  11.817   8.246
  697POPC   C3B13893  14.077  11.718   7.941
  697POPC   C4B13894  14.063  11.920   7.571
  698POPC   NC313895  15.754  30.655   9.419
  698POPC   PO413896  16.269  30.229   9.425
  698POPC   GL113897  16.218  30.416   9.015
  698POPC   GL213898  15.869  30.482   8.940
  698POPC   C1A13899  16.212  30.838   8.783
  698POPC   D2A13900  16.077  31.087   8.428
  698POPC   C3A13901  16.135  30.909   8.035
  698POPC   C4A13902  15.959  30.907   7.639
  698POPC   C1B13903  15.544  30.381   8.634
  698POPC   C2B13904  15.526  30.262   8.201
  698POPC   C3B13905  15.730  30.498   7.859
  698POPC   C4B13906  15.991  30.410   7.478
  699POPC   NC313907  38.999  31.745   9.317
  699POPC   PO413908  39.563  31.347   9.616
  699POPC   GL113909  39.457  31.508   9.233
  699POPC   GL213910  39.473  31.223   9.042
  699POPC   C1A13911  39.522  31.837   8.928
  699POPC   D2A13912  39.640  31.899   8.501
  699POPC   C3A13913  39.398  31.758   8.150
  699POPC   C4A13914  39.279  31.445   7.833
  699POPC   C1B13915  39.288  31.446   8.717
  699POPC   C2B13916  39.190  31.306   8.334
  699POPC   C3B13917  38.885  31.170   8.077
  699POPC   C4B13918  38.944  31.086   7.663
  700POPC   NC313919  43.928  18.505   9.399
  700POPC   PO413920  44.210  17.894   9.465
  700POPC   GL113921  43.928  17.983   9.104
  700POPC   GL213922  43.568  17.906   9.056
  700POPC   C1A13923  43.856  17.972   8.646
  700POPC   D2A13924  44.028  18.294   8.362
  700POPC   C3A13925  43.815  18.478   8.032
  700POPC   C4A13926  44.064  18.318   7.708
  700POPC   C1B13927  43.402  18.190   8.756
  700POPC   C2B13928  43.502  18.179   8.327
  700POPC   C3B13929  43.745  17.989   7.988
  700POPC   C4B13930  43.486  18.150   7.645
  701POPC   NC313931  40.043  11.880   9.458
  701POPC   PO413932  40.166  12.542   9.454
  701POPC   GL113933  39.886  12.273   9.154
  701POPC   GL213934  39.870  11.916   8.992
  701POPC   C1A13935  39.713  12.314   8.730
  701POPC   D2A13936  39.708  12.051   8.331
  701POPC   C3A13937  39.900  12.279   7.979
  701POPC   C4A13938  39.830  12.331   7.534
  701POPC   C1B13939  40.226  11.670   8.847
  701POPC   C2B13940  40.378  11.618   8.441
  701POPC   C3B13941  40.164  11.731   8.055
  701POPC   C4B13942  40.122  11.927   7.646
  702POPC   NC313943  15.964  43.807  10.040
  702POPC   PO413944  16.125  44.275   9.724
  702POPC   GL113945  15.984  43.949   9.397
  702POPC   GL213946  15.672  44.045   9.208
  702POPC   C1A13947  16.025  43.791   8.930
  702POPC   D2A13948  15.833  43.686   8.503
  702POPC   C3A13949  15.992  43.843   8.088
  702POPC   C4A13950  15.941  43.796   7.624
  702POPC   C1B13951  15.672  44.130   8.728
  702POPC   C2B13952  15.702  44.247   8.256
  702POPC   C3B13953  15.753  44.251   7.779
  702POPC   C4B13954  15.633  44.100   7.332
  703POPC   NC313955  29.914   8.862   9.616
  703POPC   PO413956  30.512   8.791   9.807
  703POPC   GL113957  30.277   8.985   9.299
  703POPC   GL213958  30.013   8.715   9.141
  703POPC   C1A13959  30.205   9.051   8.827
  703POPC   D2A13960  29.960   9.171   8.449
  703POPC   C3A13961  29.993   9.004   8.050
  703POPC   C4A13962  29.936   9.239   7.670
  703POPC   C1B13963  29.698   8.710   8.805
  703POPC   C2B13964  29.566   8.799   8.369
  703POPC   C3B13965  29.610   8.678   7.926
  703POPC   C4B13966  29.694   8.833   7.534
  704POPC   NC313967  35.956  34.911   9.265
  704POPC   PO413968  36.345  34.406   9.637
  704POPC   GL113969  36.360  34.426   9.148
  704POPC   GL213970  36.392  34.773   9.065
  704POPC   C1A13971  36.369  34.455   8.664
  704POPC   D2A13972  36.041  34.515   8.344
  704POPC   C3A13973  36.006  34.278   7.967
  704POPC   C4A13974  35.834  34.435   7.603
  704POPC   C1B13975  36.577  34.915   8.701
  704POPC   C2B13976  36.451  34.816   8.278
  704POPC   C3B13977  36.438  34.573   7.925
  704POPC   C4B13978  36.543  34.849   7.591
  705POPC   NC313979  19.469  31.892   9.603
  705POPC   PO413980  19.995  32.305   9.611
  705POPC   GL113981  19.840  32.069   9.244
  705POPC   GL213982  19.513  32.228   9.207
  705POPC   C1A13983  20.003  32.012   8.809
  705POPC   D2A13984  20.021  32.298   8.439
  705POPC   C3A13985  19.998  32.091   8.059
  705POPC   C4A13986  19.649  31.989   7.862
  705POPC   C1B13987  19.638  32.369   8.816
  705POPC   C2B13988  19.506  32.427   8.412
  705POPC   C3B13989  19.689  32.517   8.020
  705POPC   C4B13990  20.128  32.580   7.953
  706POPC   NC313991  30.702   9.102   9.528
  706POPC   PO413992  30.800   9.794   9.550
  706POPC   GL113993  30.857   9.855   9.153
  706POPC   GL213994  30.913   9.502   9.121
  706POPC   C1A13995  30.903   9.807   8.704
  706POPC   D2A13996  30.915   9.474   8.395
  706POPC   C3A13997  30.774   9.694   8.072
  706POPC   C4A13998  30.690   9.763   7.675
  706POPC   C1B13999  30.587   9.410   8.799
  706POPC   C2B14000  30.381   9.486   8.384
  706POPC   C3B14001  30.354   9.388   7.951
  706POPC   C4B14002  30.391   9.393   7.516
  707POPC   NC314003   6.683  14.355   9.482
  707POPC   PO414004   6.454  15.063   9.458
  707POPC   GL114005   6.615  14.724   9.134
  707POPC   GL214006   6.406  14.447   9.062
  707POPC   C1A14007   6.831  14.444   8.775
  707POPC   D2A14008   7.047  14.289   8.370
  707POPC   C3A14009   6.867  14.428   7.969
  707POPC   C4A14010   6.449  14.648   7.945
  707POPC   C1B14011   6.380  14.198   8.686
  707POPC   C2B14012   6.651  13.973   8.434
  707POPC   C3B14013   6.611  13.994   7.979
  707POPC   C4B14014   6.252  14.216   7.752
  708POPC   NC314015  10.963  19.052   9.433
  708POPC   PO414016  11.642  19.151   9.522
  708POPC   GL114017  11.386  19.220   9.160
  708POPC   GL214018  11.233  18.898   9.028
  708POPC   C1A14019  11.495  19.262   8.739
  708POPC   D2A14020  11.561  19.038   8.360
  708POPC   C3A14021  11.755  19.263   8.055
  708POPC   C4A14022  11.700  19.436   7.657
  708POPC   C1B14023  11.018  19.082   8.670
  708POPC   C2B14024  11.066  19.000   8.253
  708POPC   C3B14025  11.168  19.132   7.848
  708POPC   C4B14026  10.856  19.071   7.446
  709POPC   NC314027   5.293   6.160   9.410
  709POPC   PO414028   5.052   5.612   9.736
  709POPC   GL114029   5.083   5.663   9.268
  709POPC   GL214030   5.424   5.729   9.116
  709POPC   C1A14031   4.961   5.940   8.892
  709POPC   D2A14032   5.001   6.229   8.508
  709POPC   C3A14033   4.955   6.052   8.097
  709POPC   C4A14034   4.895   5.638   7.835
  709POPC   C1B14035   5.447   5.979   8.713
  709POPC   C2B14036   5.645   5.919   8.325
  709POPC   C3B14037   5.555   6.079   7.944
  709POPC   C4B14038   5.218   6.065   7.680
  710POPC   NC314039  36.677  25.791   9.294
  710POPC   PO414040  36.266  26.349   9.552
  710POPC   GL114041  36.173  26.106   9.188
  710POPC   GL214042  36.141  26.343   9.011
  710POPC   C1A14043  36.157  25.843   8.811
  710POPC   D2A14044  36.295  25.723   8.374
  710POPC   C3A14045  36.078  25.889   8.014
  710POPC   C4A14046  35.920  25.980   7.609
  710POPC   C1B14047  36.207  26.501   8.610
  710POPC   C2B14048  35.960  26.223   8.400
  710POPC   C3B14049  35.920  26.362   7.997
  710POPC   C4B14050  36.308  26.320   7.716
  711POPC   NC314051  18.396  37.819   9.514
  711POPC   PO414052  18.095  37.225   9.566
  711POPC   GL114053  18.242  37.455   9.172
  711POPC   GL214054  18.030  37.740   9.081
  711POPC   C1A14055  18.347  37.380   8.722
  711POPC   D2A14056  18.626  37.559   8.399
  711POPC   C3A14057  18.430  37.564   8.025
  711POPC   C4A14058  18.475  37.198   7.789
  711POPC   C1B14059  18.194  38.136   8.953
  711POPC   C2B14060  18.452  38.289   8.609
  711POPC   C3B14061  18.534  38.108   8.185
  711POPC   C4B14062  18.362  38.102   7.751
  712POPC   NC314063  10.429  27.158   9.521
  712POPC   PO414064  10.465  27.794   9.448
  712POPC   GL114065  10.585  27.469   9.132
  712POPC   GL214066  10.857  27.642   9.011
  712POPC   C1A14067  10.545  27.398   8.689
  712POPC   D2A14068  10.478  27.713   8.420
  712POPC   C3A14069  10.524  27.722   8.039
  712POPC   C4A14070  10.331  27.413   7.819
  712POPC   C1B14071  10.878  27.863   8.679
  712POPC   C2B14072  10.946  27.545   8.389
  712POPC   C3B14073  11.009  27.577   8.000
  712POPC   C4B14074  11.005  28.015   7.918
  713POPC   NC314075  32.869  31.171   9.570
  713POPC   PO414076  33.132  30.487   9.638
  713POPC   GL114077  33.017  30.557   9.231
  713POPC   GL214078  33.110  30.903   9.231
  713POPC   C1A14079  32.989  30.591   8.780
  713POPC   D2A14080  32.733  30.533   8.396
  713POPC   C3A14081  32.720  30.366   7.995
  713POPC   C4A14082  32.932  30.388   7.571
  713POPC   C1B14083  32.906  31.103   8.895
  713POPC   C2B14084  32.912  31.029   8.465
  713POPC   C3B14085  32.719  30.909   8.075
  713POPC   C4B14086  32.917  30.885   7.709
  714POPC   NC314087  33.460  26.555   9.706
  714POPC   PO414088  33.004  26.978   9.551
  714POPC   GL114089  33.307  26.899   9.211
  714POPC   GL214090  33.165  26.558   9.239
  714POPC   C1A14091  33.281  27.122   8.762
  714POPC   D2A14092  33.055  27.023   8.320
  714POPC   C3A14093  33.197  26.912   7.857
  714POPC   C4A14094  33.200  26.533   7.573
  714POPC   C1B14095  32.988  26.716   8.849
  714POPC   C2B14096  32.954  26.533   8.449
  714POPC   C3B14097  32.926  26.507   8.015
  714POPC   C4B14098  32.717  26.667   7.662
  715POPC   NC314099   6.613  38.202   9.501
  715POPC   PO414100   6.883  38.900   9.530
  715POPC   GL114101   6.742  38.723   9.107
  715POPC   GL214102   6.653  38.346   9.023
  715POPC   C1A14103   6.724  38.678   8.640
  715POPC   D2A14104   6.915  38.788   8.250
  715POPC   C3A14105   6.748  38.577   7.882
  715POPC   C4A14106   6.717  38.546   7.416
  715POPC   C1B14107   6.866  38.146   8.678
  715POPC   C2B14108   6.964  38.250   8.252
  715POPC   C3B14109   7.007  38.113   7.809
  715POPC   C4B14110   6.684  38.028   7.466
  716POPC   NC314111  30.968  43.134   9.502
  716POPC   PO414112  30.277  43.181   9.533
  716POPC   GL114113  30.557  43.240   9.189
  716POPC   GL214114  30.801  43.518   9.216
  716POPC   C1A14115  30.605  43.032   8.798
  716POPC   D2A14116  30.849  43.034   8.424
  716POPC   C3A14117  30.665  43.012   7.996
  716POPC   C4A14118  30.801  42.792   7.606
  716POPC   C1B14119  31.027  43.308   8.866
  716POPC   C2B14120  31.154  43.437   8.432
  716POPC   C3B14121  31.129  43.239   8.025
  716POPC   C4B14122  31.141  43.306   7.583
  717POPC   NC314123   4.869  16.488   9.545
  717POPC   PO414124   5.401  16.953   9.571
  717POPC   GL114125   5.115  16.858   9.244
  717POPC   GL214126   5.180  16.523   9.139
  717POPC   C1A14127   5.238  16.939   8.818
  717POPC   D2A14128   5.108  17.061   8.416
  717POPC   C3A14129   5.150  16.840   8.052
  717POPC   C4A14130   5.047  16.850   7.650
  717POPC   C1B14131   5.142  16.434   8.725
  717POPC   C2B14132   5.340  16.473   8.370
  717POPC   C3B14133   5.211  16.338   8.037
  717POPC   C4B14134   5.016  16.357   7.678
  718POPC   NC314135  37.830  42.457   9.354
  718POPC   PO414136  37.361  42.116   9.703
  718POPC   GL114137  37.416  42.168   9.245
  718POPC   GL214138  37.299  42.515   9.204
  718POPC   C1A14139  37.508  42.299   8.803
  718POPC   D2A14140  37.826  42.507   8.565
  718POPC   C3A14141  37.946  42.418   8.131
  718POPC   C4A14142  38.169  42.380   7.737
  718POPC   C1B14143  37.437  42.791   8.831
  718POPC   C2B14144  37.348  42.627   8.422
  718POPC   C3B14145  37.511  42.709   8.050
  718POPC   C4B14146  37.690  42.568   7.699
  719POPC   NC314147  18.219  31.089   9.444
  719POPC   PO414148  18.150  31.821   9.469
  719POPC   GL114149  18.325  31.531   9.146
  719POPC   GL214150  18.161  31.312   8.997
  719POPC   C1A14151  18.658  31.446   8.828
  719POPC   D2A14152  18.641  31.432   8.367
  719POPC   C3A14153  18.269  31.631   8.151
  719POPC   C4A14154  18.003  31.479   7.837
  719POPC   C1B14155  18.317  31.113   8.667
  719POPC   C2B14156  18.233  31.128   8.279
  719POPC   C3B14157  18.383  31.161   7.895
  719POPC   C4B14158  18.173  30.996   7.518
  720POPC   NC314159  31.303  31.055   9.758
  720POPC   PO414160  31.496  30.457   9.477
  720POPC   GL114161  31.498  30.673   9.116
  720POPC   GL214162  31.354  30.949   9.245
  720POPC   C1A14163  31.738  30.618   8.740
  720POPC   D2A14164  31.853  30.399   8.370
  720POPC   C3A14165  31.748  30.662   8.041
  720POPC   C4A14166  31.436  30.666   7.748
  720POPC   C1B14167  31.266  31.190   8.897
  720POPC   C2B14168  31.278  31.197   8.476
  720POPC   C3B14169  31.313  31.024   8.076
  720POPC   C4B14170  31.663  31.138   7.780
  721POPC   NC314171   9.491  30.210   9.704
  721POPC   PO414172   9.707  30.898   9.533
  721POPC   GL114173   9.580  30.746   9.150
  721POPC   GL214174   9.461  30.402   9.204
  721POPC   C1A14175   9.794  30.822   8.762
  721POPC   D2A14176   9.751  31.059   8.371
  721POPC   C3A14177   9.860  30.832   7.968
  721POPC   C4A14178  10.051  30.842   7.566
  721POPC   C1B14179   9.515  30.355   8.748
  721POPC   C2B14180   9.609  30.563   8.359
  721POPC   C3B14181   9.433  30.590   7.959
  721POPC   C4B14182   9.652  30.454   7.645
  722POPC   NC314183  35.550  32.000   9.485
  722POPC   PO414184  35.694  32.699   9.516
  722POPC   GL114185  35.610  32.435   9.177
  722POPC   GL214186  35.297  32.301   9.191
  722POPC   C1A14187  35.579  32.218   8.779
  722POPC   D2A14188  35.506  31.971   8.402
  722POPC   C3A14189  35.594  32.219   8.063
  722POPC   C4A14190  35.529  32.338   7.658
  722POPC   C1B14191  35.042  32.188   8.844
  722POPC   C2B14192  34.963  32.011   8.465
  722POPC   C3B14193  34.988  32.156   8.051
  722POPC   C4B14194  34.994  32.198   7.605
  723POPC   NC314195  15.834   6.074   9.611
  723POPC   PO414196  16.443   5.779   9.560
  723POPC   GL114197  16.222   5.720   9.163
  723POPC   GL214198  15.904   5.827   9.174
  723POPC   C1A14199  16.228   5.829   8.721
  723POPC   D2A14200  16.115   6.067   8.384
  723POPC   C3A14201  16.086   5.903   7.996
  723POPC   C4A14202  15.863   6.175   7.739
  723POPC   C1B14203  15.706   5.915   8.816
  723POPC   C2B14204  15.715   5.726   8.451
  723POPC   C3B14205  15.604   5.880   8.111
  723POPC   C4B14206  15.549   5.757   7.715
  724POPC   NC314207  20.322  10.502   9.476
  724POPC   PO414208  20.910  10.818   9.406
  724POPC   GL114209  20.579  10.728   9.108
  724POPC   GL214210  20.649  10.357   9.088
  724POPC   C1A14211  20.511  10.827   8.683
  724POPC   D2A14212  20.679  10.492   8.424
  724POPC   C3A14213  20.783  10.627   8.034
  724POPC   C4A14214  20.460  10.757   7.747
  724POPC   C1B14215  20.312  10.373   8.805
  724POPC   C2B14216  20.216  10.244   8.389
  724POPC   C3B14217  20.416  10.290   7.972
  724POPC   C4B14218  20.246  10.228   7.545
  725POPC   NC314219  31.719   3.350   9.376
  725POPC   PO414220  31.234   2.889   9.414
  725POPC   GL114221  31.538   2.982   9.068
  725POPC   GL214222  31.781   3.230   8.891
  725POPC   C1A14223  31.592   2.797   8.679
  725POPC   D2A14224  31.815   2.746   8.316
  725POPC   C3A14225  31.545   2.604   7.990
  725POPC   C4A14226  31.182   2.606   7.692
  725POPC   C1B14227  31.334   3.298   8.740
  725POPC   C2B14228  31.102   3.075   8.485
  725POPC   C3B14229  31.185   2.943   8.093
  725POPC   C4B14230  31.164   3.127   7.688
  726POPC   NC314231  44.350   9.013   9.511
  726POPC   PO414232  43.763   9.341   9.633
  726POPC   GL114233  43.925   9.085   9.247
  726POPC   GL214234  43.818   8.716   9.199
  726POPC   C1A14235  44.010   8.997   8.800
  726POPC   D2A14236  43.625   8.876   8.555
  726POPC   C3A14237  43.666   8.947   8.145
  726POPC   C4A14238  43.903   9.036   7.796
  726POPC   C1B14239  43.897   8.504   8.772
  726POPC   C2B14240  44.036   8.607   8.343
  726POPC   C3B14241  43.839   8.522   7.934
  726POPC   C4B14242  43.493   8.718   7.720
  727POPC   NC314243  37.379  31.915   9.338
  727POPC   PO414244  37.730  32.280   9.793
  727POPC   GL114245  37.693  32.343   9.312
  727POPC   GL214246  37.787  32.034   9.101
  727POPC   C1A14247  37.788  32.479   8.890
  727POPC   D2A14248  37.816  32.434   8.458
  727POPC   C3A14249  37.645  32.663   8.130
  727POPC   C4A14250  37.642  32.612   7.690
  727POPC   C1B14251  37.497  32.101   8.720
  727POPC   C2B14252  37.649  31.977   8.321
  727POPC   C3B14253  37.812  31.902   7.941
  727POPC   C4B14254  37.599  31.885   7.595
  728POPC   NC314255  33.289  28.078   9.448
  728POPC   PO414256  32.899  28.622   9.632
  728POPC   GL114257  32.976  28.465   9.218
  728POPC   GL214258  32.673  28.457   9.025
  728POPC   C1A14259  33.202  28.315   8.821
  728POPC   D2A14260  33.386  28.066   8.467
  728POPC   C3A14261  33.156  28.136   8.064
  728POPC   C4A14262  32.804  28.155   7.790
  728POPC   C1B14263  32.893  28.722   8.671
  728POPC   C2B14264  32.981  28.734   8.208
  728POPC   C3B14265  32.760  28.636   7.823
  728POPC   C4B14266  32.811  28.511   7.387
  729POPC   NC314267   7.706  36.937   9.380
  729POPC   PO414268   8.384  36.848   9.544
  729POPC   GL114269   8.167  36.848   9.141
  729POPC   GL214270   7.942  36.538   9.140
  729POPC   C1A14271   8.163  37.032   8.681
  729POPC   D2A14272   7.988  37.124   8.235
  729POPC   C3A14273   8.349  37.112   7.949
  729POPC   C4A14274   8.371  37.032   7.490
  729POPC   C1B14275   8.146  36.536   8.745
  729POPC   C2B14276   8.233  36.690   8.311
  729POPC   C3B14277   8.133  36.630   7.883
  729POPC   C4B14278   8.493  36.563   7.635
  730POPC   NC314279  34.767  13.952   9.358
  730POPC   PO414280  34.607  14.607   9.691
  730POPC   GL114281  34.626  14.593   9.250
  730POPC   GL214282  34.926  14.416   9.185
  730POPC   C1A14283  34.561  14.396   8.833
  730POPC   D2A14284  34.727  14.248   8.448
  730POPC   C3A14285  34.580  14.471   8.120
  730POPC   C4A14286  34.297  14.421   7.775
  730POPC   C1B14287  35.064  14.125   8.813
  730POPC   C2B14288  35.217  14.057   8.395
  730POPC   C3B14289  34.987  14.022   8.041
  730POPC   C4B14290  34.778  14.285   7.702
  731POPC   NC314291  42.486  13.935   9.404
  731POPC   PO414292  42.115  13.461   9.460
  731POPC   GL114293  42.209  13.626   9.074
  731POPC   GL214294  42.540  13.493   9.084
  731POPC   C1A14295  42.087  13.821   8.672
  731POPC   D2A14296  42.166  13.681   8.231
  731POPC   C3A14297  42.309  13.926   7.857
  731POPC   C4A14298  42.475  13.948   7.413
  731POPC   C1B14299  42.442  13.445   8.621
  731POPC   C2B14300  42.575  13.352   8.175
  731POPC   C3B14301  42.638  13.536   7.731
  731POPC   C4B14302  42.843  13.640   7.289
  732POPC   NC314303  39.539  30.912   9.437
  732POPC   PO414304  38.993  31.275   9.336
  732POPC   GL114305  39.051  30.932   9.093
  732POPC   GL214306  39.154  30.645   9.236
  732POPC   C1A14307  39.180  30.920   8.687
  732POPC   D2A14308  39.004  30.714   8.345
  732POPC   C3A14309  39.178  30.750   7.963
  732POPC   C4A14310  39.016  30.592   7.558
  732POPC   C1B14311  39.107  30.423   8.821
  732POPC   C2B14312  39.083  30.210   8.420
  732POPC   C3B14313  38.990  30.291   7.978
  732POPC   C4B14314  39.396  30.306   7.702
  733POPC   NC314315  24.146  41.192   9.659
  733POPC   PO414316  24.280  41.806   9.560
  733POPC   GL114317  24.378  41.744   9.123
  733POPC   GL214318  24.563  41.445   9.058
  733POPC   C1A14319  24.526  41.865   8.710
  733POPC   D2A14320  24.434  41.638   8.334
  733POPC   C3A14321  24.603  41.777   7.950
  733POPC   C4A14322  24.602  41.798   7.494
  733POPC   C1B14323  24.768  41.391   8.645
  733POPC   C2B14324  24.828  41.336   8.177
  733POPC   C3B14325  24.813  41.364   7.709
  733POPC   C4B14326  24.906  41.453   7.252
  734POPC   NC314327  38.089   2.013   9.778
  734POPC   PO414328  37.549   1.901   9.298
  734POPC   GL114329  37.615   1.894   8.956
  734POPC   GL214330  37.668   2.235   8.867
  734POPC   C1A14331  37.486   1.733   8.600
  734POPC   D2A14332  37.418   2.028   8.321
  734POPC   C3A14333  37.448   1.849   7.943
  734POPC   C4A14334  37.099   1.764   7.716
  734POPC   C1B14335  37.962   1.992   8.628
  734POPC   C2B14336  37.899   1.805   8.253
  734POPC   C3B14337  37.910   2.053   7.900
  734POPC   C4B14338  37.595   2.162   7.568
  735POPC   NC314339  28.054  30.952   9.532
  735POPC   PO414340  28.623  30.672   9.710
  735POPC   GL114341  28.455  30.700   9.227
  735POPC   GL214342  28.157  30.673   9.122
  735POPC   C1A14343  28.462  30.590   8.740
  735POPC   D2A14344  28.583  30.395   8.360
  735POPC   C3A14345  28.526  30.470   7.927
  735POPC   C4A14346  28.699  30.134   7.642
  735POPC   C1B14347  27.948  30.668   8.734
  735POPC   C2B14348  28.112  30.635   8.337
  735POPC   C3B14349  27.985  30.554   7.970
  735POPC   C4B14350  28.087  30.692   7.585
  736POPC   NC314351  35.143  29.081   9.637
  736POPC   PO414352  35.517  29.593   9.441
  736POPC   GL114353  35.316  29.266   9.177
  736POPC   GL214354  35.420  28.907   9.214
  736POPC   C1A14355  35.310  29.284   8.739
  736POPC   D2A14356  35.442  29.313   8.324
  736POPC   C3A14357  35.253  29.331   7.917
  736POPC   C4A14358  35.553  29.291   7.538
  736POPC   C1B14359  35.062  28.880   8.901
  736POPC   C2B14360  35.156  28.889   8.436
  736POPC   C3B14361  35.369  28.844   8.018
  736POPC   C4B14362  35.213  28.934   7.585
  737POPC   NC314363  23.109   7.437   9.460
  737POPC   PO414364  22.478   7.174   9.628
  737POPC   GL114365  22.713   7.202   9.177
  737POPC   GL214366  22.555   7.487   8.994
  737POPC   C1A14367  22.862   7.228   8.693
  737POPC   D2A14368  22.739   7.475   8.283
  737POPC   C3A14369  22.942   7.299   7.898
  737POPC   C4A14370  23.346   7.323   7.865
  737POPC   C1B14371  22.828   7.729   8.728
  737POPC   C2B14372  23.121   7.846   8.388
  737POPC   C3B14373  23.058   7.786   7.960
  737POPC   C4B14374  23.049   7.711   7.511
  738POPC   NC314375  37.371  15.406   9.323
  738POPC   PO414376  37.837  15.030   9.711
  738POPC   GL114377  37.898  15.235   9.203
  738POPC   GL214378  37.755  15.520   9.002
  738POPC   C1A14379  37.763  15.112   8.712
  738POPC   D2A14380  37.807  15.433   8.345
  738POPC   C3A14381  37.909  15.331   7.892
  738POPC   C4A14382  37.658  15.154   7.545
  738POPC   C1B14383  37.396  15.454   8.681
  738POPC   C2B14384  37.292  15.578   8.301
  738POPC   C3B14385  37.420  15.428   7.923
  738POPC   C4B14386  37.513  15.639   7.558
  739POPC   NC314387  12.685  35.696   9.523
  739POPC   PO414388  12.884  36.286   9.537
  739POPC   GL114389  13.000  36.287   9.139
  739POPC   GL214390  13.000  35.926   9.176
  739POPC   C1A14391  12.804  36.421   8.757
  739POPC   D2A14392  12.511  36.208   8.507
  739POPC   C3A14393  12.651  36.333   8.140
  739POPC   C4A14394  12.617  36.311   7.715
  739POPC   C1B14395  12.803  35.900   8.793
  739POPC   C2B14396  12.947  35.939   8.356
  739POPC   C3B14397  12.773  35.872   7.964
  739POPC   C4B14398  12.911  35.897   7.553
  740POPC   NC314399  21.212  10.857   9.761
  740POPC   PO414400  21.482  11.464   9.417
  740POPC   GL114401  21.417  11.482   9.023
  740POPC   GL214402  21.686  11.238   8.999
  740POPC   C1A14403  21.284  11.306   8.641
  740POPC   D2A14404  21.190  11.596   8.305
  740POPC   C3A14405  21.216  11.439   7.869
  740POPC   C4A14406  20.949  11.471   7.497
  740POPC   C1B14407  21.745  11.062   8.600
  740POPC   C2B14408  21.544  11.188   8.218
  740POPC   C3B14409  21.720  11.432   7.918
  740POPC   C4B14410  21.912  11.305   7.526
  741POPC   NC314411  40.436   2.083   9.301
  741POPC   PO414412  39.789   2.086   9.468
  741POPC   GL114413  39.934   2.223   9.087
  741POPC   GL214414  39.613   2.226   8.905
  741POPC   C1A14415  40.171   2.197   8.694
  741POPC   D2A14416  39.978   2.114   8.297
  741POPC   C3A14417  40.222   2.148   7.926
  741POPC   C4A14418  40.255   2.219   7.487
  741POPC   C1B14419  39.808   1.839   8.742
  741POPC   C2B14420  40.082   1.622   8.425
  741POPC   C3B14421  39.938   1.684   8.005
  741POPC   C4B14422  39.769   1.969   7.694
  742POPC   NC314423   0.074   7.456   9.427
  742POPC   PO414424  44.541   7.742   9.700
  742POPC   GL114425  44.482   7.642   9.205
  742POPC   GL214426  44.578   7.297   9.139
  742POPC   C1A14427  44.601   7.620   8.748
  742POPC   D2A14428  44.437   7.451   8.383
  742POPC   C3A14429  44.668   7.475   8.001
  742POPC   C4A14430  44.831   7.154   7.744
  742POPC   C1B14431  44.297   7.156   8.810
  742POPC   C2B14432  44.280   6.975   8.444
  742POPC   C3B14433  44.164   7.130   8.070
  742POPC   C4B14434  44.327   7.052   7.698
  743POPC   NC314435   8.875   8.261   9.492
  743POPC   PO414436   9.099   7.619   9.493
  743POPC   GL114437   9.151   7.885   9.167
  743POPC   GL214438   8.831   7.941   9.107
  743POPC   C1A14439   9.220   7.900   8.736
  743POPC   D2A14440   8.993   7.801   8.374
  743POPC   C3A14441   8.905   7.932   7.959
  743POPC   C4A14442   9.222   8.144   7.722
  743POPC   C1B14443   8.741   8.133   8.714
  743POPC   C2B14444   8.587   8.393   8.411
  743POPC   C3B14445   8.536   8.567   8.011
  743POPC   C4B14446   8.660   8.304   7.661
  744POPC   NC314447  11.768   7.249   9.605
  744POPC   PO414448  12.286   7.593   9.448
  744POPC   GL114449  12.038   7.306   9.133
  744POPC   GL214450  11.847   6.982   9.184
  744POPC   C1A14451  12.194   7.015   8.792
  744POPC   D2A14452  12.378   7.034   8.364
  744POPC   C3A14453  12.371   7.469   8.211
  744POPC   C4A14454  12.222   7.538   7.798
  744POPC   C1B14455  11.673   7.100   8.790
  744POPC   C2B14456  11.882   7.316   8.456
  744POPC   C3B14457  11.959   7.195   8.068
  744POPC   C4B14458  11.872   7.176   7.662
  745POPC   NC314459  32.682  33.757   9.561
  745POPC   PO414460  32.037  33.551   9.388
  745POPC   GL114461  32.314  33.764   9.151
  745POPC   GL214462  32.556  33.522   9.130
  745POPC   C1A14463  32.370  33.926   8.754
  745POPC   D2A14464  32.463  33.775   8.342
  745POPC   C3A14465  32.160  33.935   8.066
  745POPC   C4A14466  32.296  34.149   7.774
  745POPC   C1B14467  32.594  33.410   8.715
  745POPC   C2B14468  32.482  33.224   8.332
  745POPC   C3B14469  32.170  33.421   8.065
  745POPC   C4B14470  32.231  33.628   7.659
  746POPC   NC314471  26.847  29.812   9.641
  746POPC   PO414472  26.242  29.653   9.412
  746POPC   GL114473  26.680  29.743   9.175
  746POPC   GL214474  26.851  30.081   9.204
  746POPC   C1A14475  26.960  29.766   8.809
  746POPC   D2A14476  26.765  29.633   8.461
  746POPC   C3A14477  26.734  29.892   8.145
  746POPC   C4A14478  26.976  29.738   7.808
  746POPC   C1B14479  26.989  30.301   8.822
  746POPC   C2B14480  27.136  30.155   8.425
  746POPC   C3B14481  27.048  30.261   8.004
  746POPC   C4B14482  26.868  30.211   7.656
  747POPC   NC314483  18.078  28.669   9.486
  747POPC   PO414484  18.572  28.257   9.694
  747POPC   GL114485  18.385  28.261   9.283
  747POPC   GL214486  18.568  28.025   9.102
  747POPC   C1A14487  18.218  28.405   8.862
  747POPC   D2A14488  17.993  28.255   8.509
  747POPC   C3A14489  18.211  28.279   8.122
  747POPC   C4A14490  18.022  28.197   7.751
  747POPC   C1B14491  18.705  28.386   8.889
  747POPC   C2B14492  18.599  28.336   8.496
  747POPC   C3B14493  18.707  28.277   8.094
  747POPC   C4B14494  18.541  28.074   7.731
  748POPC   NC314495  32.344   2.119   9.772
  748POPC   PO414496  32.418   1.927   9.206
  748POPC   GL114497  32.216   2.136   8.930
  748POPC   GL214498  31.986   2.289   9.173
  748POPC   C1A14499  32.246   2.016   8.497
  748POPC   D2A14500  32.628   1.994   8.229
  748POPC   C3A14501  32.492   2.150   7.860
  748POPC   C4A14502  32.303   1.779   7.748
  748POPC   C1B14503  31.762   2.318   8.773
  748POPC   C2B14504  31.730   2.234   8.345
  748POPC   C3B14505  31.930   1.963   8.057
  748POPC   C4B14506  32.017   2.175   7.639
  749POPC   NC314507  26.020   1.563   9.594
  749POPC   PO414508  26.230   2.229   9.563
  749POPC   GL114509  25.982   1.992   9.228
  749POPC   GL214510  25.811   1.666   9.154
  749POPC   C1A14511  26.107   1.927   8.818
  749POPC   D2A14512  26.338   2.045   8.455
  749POPC   C3A14513  26.116   2.203   8.082
  749POPC   C4A14514  26.275   2.299   7.665
  749POPC   C1B14515  25.672   1.650   8.743
  749POPC   C2B14516  25.859   1.821   8.372
  749POPC   C3B14517  25.840   1.698   7.964
  749POPC   C4B14518  25.843   2.024   7.663
  750POPC   NC314519  36.104  32.610   9.311
  750POPC   PO414520  35.995  31.975   9.498
  750POPC   GL114521  36.031  32.157   9.121
  750POPC   GL214522  36.387  32.168   9.167
  750POPC   C1A14523  36.095  32.320   8.723
  750POPC   D2A14524  36.307  32.423   8.356
  750POPC   C3A14525  36.073  32.372   8.025
  750POPC   C4A14526  35.999  32.168   7.671
  750POPC   C1B14527  36.419  31.897   8.812
  750POPC   C2B14528  36.568  31.941   8.393
  750POPC   C3B14529  36.408  32.003   7.975
  750POPC   C4B14530  36.414  31.935   7.511
  751POPC   NC314531   5.539  19.678   9.466
  751POPC   PO414532   6.075  20.168   9.459
  751POPC   GL114533   5.943  20.016   9.095
  751POPC   GL214534   5.970  19.650   9.170
  751POPC   C1A14535   5.850  20.040   8.657
  751POPC   D2A14536   5.590  19.722   8.457
  751POPC   C3A14537   5.575  19.660   8.039
  751POPC   C4A14538   5.594  19.548   7.601
  751POPC   C1B14539   6.058  19.579   8.723
  751POPC   C2B14540   6.076  19.699   8.277
  751POPC   C3B14541   6.010  19.460   7.875
  751POPC   C4B14542   6.120  19.528   7.425
  752POPC   NC314543   6.844  18.235   9.761
  752POPC   PO414544   7.576  18.028   9.466
  752POPC   GL114545   7.473  18.248   9.081
  752POPC   GL214546   7.159  18.395   9.013
  752POPC   C1A14547   7.379  18.097   8.682
  752POPC   D2A14548   7.160  18.031   8.349
  752POPC   C3A14549   7.449  18.106   8.085
  752POPC   C4A14550   7.326  18.168   7.714
  752POPC   C1B14551   7.151  18.570   8.609
  752POPC   C2B14552   7.190  18.534   8.164
  752POPC   C3B14553   7.246  18.692   7.767
  752POPC   C4B14554   7.205  18.550   7.362
  753POPC   NC314555  40.211  26.340   9.492
  753POPC   PO414556  39.738  25.867   9.722
  753POPC   GL114557  39.771  25.796   9.257
  753POPC   GL214558  40.095  25.948   9.167
  753POPC   C1A14559  39.758  25.951   8.819
  753POPC   D2A14560  39.966  25.917   8.429
  753POPC   C3A14561  39.765  26.091   8.099
  753POPC   C4A14562  39.839  25.874   7.746
  753POPC   C1B14563  40.291  26.117   8.769
  753POPC   C2B14564  40.477  26.005   8.355
  753POPC   C3B14565  40.456  26.188   7.946
  753POPC   C4B14566  40.083  26.349   7.777
  754POPC   NC314567   8.069  42.276   9.474
  754POPC   PO414568   8.681  42.475   9.489
  754POPC   GL114569   8.520  42.172   9.189
  754POPC   GL214570   8.368  42.483   9.066
  754POPC   C1A14571   8.352  42.059   8.774
  754POPC   D2A14572   8.143  42.358   8.495
  754POPC   C3A14573   8.050  42.199   8.098
  754POPC   C4A14574   7.965  42.285   7.663
  754POPC   C1B14575   8.646  42.480   8.713
  754POPC   C2B14576   8.634  42.340   8.292
  754POPC   C3B14577   8.477  42.321   7.852
  754POPC   C4B14578   8.396  42.498   7.435
  755POPC   NC314579  25.819   7.629   9.347
  755POPC   PO414580  26.211   7.104   9.309
  755POPC   GL114581  26.152   7.271   8.959
  755POPC   GL214582  26.135   7.600   8.927
  755POPC   C1A14583  26.258   7.237   8.544
  755POPC   D2A14584  25.966   7.193   8.223
  755POPC   C3A14585  26.132   7.090   7.853
  755POPC   C4A14586  26.365   7.302   7.592
  755POPC   C1B14587  25.770   7.437   8.651
  755POPC   C2B14588  25.656   7.591   8.220
  755POPC   C3B14589  25.946   7.572   7.840
  755POPC   C4B14590  26.319   7.791   7.650
  756POPC   NC314591  10.857  16.755   9.874
  756POPC   PO414592  10.381  16.379   9.598
  756POPC   GL114593  10.613  16.559   9.235
  756POPC   GL214594  10.530  16.898   9.060
  756POPC   C1A14595  10.824  16.551   8.834
  756POPC   D2A14596  10.783  16.873   8.544
  756POPC   C3A14597  10.770  16.755   8.110
  756POPC   C4A14598  10.639  16.413   7.788
  756POPC   C1B14599  10.292  16.691   8.753
  756POPC   C2B14600  10.076  16.618   8.376
  756POPC   C3B14601  10.095  16.800   8.014
  756POPC   C4B14602  10.398  16.855   7.779
  757POPC   NC314603  42.075   1.279   9.372
  757POPC   PO414604  42.473   0.798   9.626
  757POPC   GL114605  42.397   0.947   9.154
  757POPC   GL214606  42.494   1.316   9.097
  757POPC   C1A14607  42.542   1.050   8.690
  757POPC   D2A14608  42.251   1.134   8.343
  757POPC   C3A14609  42.492   1.183   7.954
  757POPC   C4A14610  42.299   1.122   7.555
  757POPC   C1B14611  42.288   1.526   8.755
  757POPC   C2B14612  42.415   1.615   8.339
  757POPC   C3B14613  42.252   1.631   7.899
  757POPC   C4B14614  42.232   1.627   7.431
  758POPC   NC314615   7.198   9.274   9.296
  758POPC   PO414616   7.708   9.659   9.485
  758POPC   GL114617   7.483   9.849   9.183
  758POPC   GL214618   7.407   9.626   8.982
  758POPC   C1A14619   7.623  10.057   8.804
  758POPC   D2A14620   7.731   9.728   8.522
  758POPC   C3A14621   7.763   9.813   8.108
  758POPC   C4A14622   7.607   9.838   7.703
  758POPC   C1B14623   7.191   9.483   8.650
  758POPC   C2B14624   7.155   9.329   8.257
  758POPC   C3B14625   7.222   9.617   7.983
  758POPC   C4B14626   7.119   9.693   7.582
  759POPC   NC314627  22.165  36.454   9.482
  759POPC   PO414628  22.138  35.808   9.480
  759POPC   GL114629  22.034  36.054   9.132
  759POPC   GL214630  21.765  36.302   9.184
  759POPC   C1A14631  22.118  35.899   8.720
  759POPC   D2A14632  21.839  35.684   8.443
  759POPC   C3A14633  21.922  35.909   8.073
  759POPC   C4A14634  22.326  36.059   7.905
  759POPC   C1B14635  21.720  36.210   8.736
  759POPC   C2B14636  21.620  36.425   8.319
  759POPC   C3B14637  21.906  36.569   7.972
  759POPC   C4B14638  22.304  36.564   7.711
  760POPC   NC314639  17.790  20.093   9.589
  760POPC   PO414640  17.902  19.478   9.557
  760POPC   GL114641  17.690  19.726   9.205
  760POPC   GL214642  17.791  20.016   9.090
  760POPC   C1A14643  17.395  19.807   8.814
  760POPC   D2A14644  17.434  19.935   8.335
  760POPC   C3A14645  17.163  20.006   7.917
  760POPC   C4A14646  16.999  19.824   7.500
  760POPC   C1B14647  17.847  19.977   8.683
  760POPC   C2B14648  17.881  20.182   8.343
  760POPC   C3B14649  17.738  20.078   7.944
  760POPC   C4B14650  17.881  19.738   7.736
  761POPC   NC314651  18.209  43.242   9.638
  761POPC   PO414652  17.908  42.725   9.363
  761POPC   GL114653  18.052  43.126   9.149
  761POPC   GL214654  18.355  43.340   9.163
  761POPC   C1A14655  18.077  43.291   8.708
  761POPC   D2A14656  18.120  43.145   8.262
  761POPC   C3A14657  18.010  43.440   7.942
  761POPC   C4A14658  18.093  43.451   7.501
  761POPC   C1B14659  18.520  43.526   8.778
  761POPC   C2B14660  18.427  43.551   8.326
  761POPC   C3B14661  18.509  43.389   7.880
  761POPC   C4B14662  18.789  43.338   7.491
  762POPC   NC314663  36.711  18.738   9.472
  762POPC   PO414664  37.278  19.118   9.317
  762POPC   GL114665  37.118  19.139   8.964
  762POPC   GL214666  36.812  19.081   9.022
  762POPC   C1A14667  37.104  18.902   8.605
  762POPC   D2A14668  37.385  18.873   8.294
  762POPC   C3A14669  37.212  19.093   7.984
  762POPC   C4A14670  37.067  18.876   7.653
  762POPC   C1B14671  36.633  19.132   8.671
  762POPC   C2B14672  36.626  18.982   8.298
  762POPC   C3B14673  36.704  19.149   7.922
  762POPC   C4B14674  36.575  18.992   7.549
  763POPC   NC314675  30.346  13.114   9.261
  763POPC   PO414676  30.315  13.678   9.504
  763POPC   GL114677  30.097  13.743   9.111
  763POPC   GL214678  29.725  13.771   9.170
  763POPC   C1A14679  30.101  13.809   8.670
  763POPC   D2A14680  30.026  13.501   8.333
  763POPC   C3A14681  29.986  13.670   7.938
  763POPC   C4A14682  30.302  13.761   7.690
  763POPC   C1B14683  29.616  13.981   8.760
  763POPC   C2B14684  29.706  13.982   8.316
  763POPC   C3B14685  29.488  13.810   7.954
  763POPC   C4B14686  29.616  13.656   7.567
  764POPC   NC314687  11.225  15.665   9.728
  764POPC   PO414688  11.379  16.326   9.581
  764POPC   GL114689  11.415  16.001   9.167
  764POPC   GL214690  11.268  15.694   8.948
  764POPC   C1A14691  11.310  16.117   8.697
  764POPC   D2A14692  11.151  15.872   8.313
  764POPC   C3A14693  11.313  16.012   7.912
  764POPC   C4A14694  11.423  15.830   7.508
  764POPC   C1B14695  10.858  15.757   8.722
  764POPC   C2B14696  10.609  15.885   8.384
  764POPC   C3B14697  10.746  15.911   7.954
  764POPC   C4B14698  11.019  15.638   7.725
  765POPC   NC314699  37.164  40.057   9.560
  765POPC   PO414700  37.839  40.016   9.541
  765POPC   GL114701  37.864  39.843   9.138
  765POPC   GL214702  37.549  39.676   9.093
  765POPC   C1A14703  37.933  40.017   8.708
  765POPC   D2A14704  38.057  40.102   8.259
  765POPC   C3A14705  37.878  39.923   7.895
  765POPC   C4A14706  37.521  40.016   7.624
  765POPC   C1B14707  37.467  39.719   8.631
  765POPC   C2B14708  37.421  39.785   8.182
  765POPC   C3B14709  37.136  39.657   7.872
  765POPC   C4B14710  37.051  39.874   7.492
  766POPC   NC314711  40.073  13.071   9.346
  766POPC   PO414712  40.728  12.962   9.535
  766POPC   GL114713  40.942  13.016   9.161
  766POPC   GL214714  40.840  12.674   9.081
  766POPC   C1A14715  41.009  12.996   8.712
  766POPC   D2A14716  40.778  12.973   8.329
  766POPC   C3A14717  40.988  13.028   7.946
  766POPC   C4A14718  41.204  12.747   7.702
  766POPC   C1B14719  40.663  12.537   8.697
  766POPC   C2B14720  40.496  12.560   8.287
  766POPC   C3B14721  40.757  12.563   7.912
  766POPC   C4B14722  40.744  12.788   7.512
  767POPC   NC314723  16.082  29.803   9.411
  767POPC   PO414724  15.553  30.261   9.284
  767POPC   GL114725  15.809  29.971   9.036
  767POPC   GL214726  15.720  29.587   9.118
  767POPC   C1A14727  16.008  30.058   8.651
  767POPC   D2A14728  16.038  30.376   8.300
  767POPC   C3A14729  16.155  30.161   7.895
  767POPC   C4A14730  16.154  29.905   7.494
  767POPC   C1B14731  15.939  29.503   8.727
  767POPC   C2B14732  16.107  29.511   8.295
  767POPC   C3B14733  15.914  29.619   7.873
  767POPC   C4B14734  15.817  29.543   7.398
  768POPC   NC314735  28.932  18.849   9.443
  768POPC   PO414736  29.529  19.192   9.303
  768POPC   GL114737  29.255  18.908   9.060
  768POPC   GL214738  28.999  19.134   9.009
  768POPC   C1A14739  28.988  18.723   8.714
  768POPC   D2A14740  28.903  18.860   8.283
  768POPC   C3A14741  29.226  18.884   7.957
  768POPC   C4A14742  29.153  18.841   7.490
  768POPC   C1B14743  28.927  19.294   8.587
  768POPC   C2B14744  29.076  19.360   8.143
  768POPC   C3B14745  28.988  19.266   7.695
  768POPC   C4B14746  28.815  19.252   7.231
  769POPC   NC314747  31.836  29.932   9.514
  769POPC   PO414748  31.364  29.596   9.852
  769POPC   GL114749  31.391  29.650   9.346
  769POPC   GL214750  31.403  30.013   9.253
  769POPC   C1A14751  31.392  29.714   8.849
  769POPC   D2A14752  31.549  29.566   8.456
  769POPC   C3A14753  31.377  29.686   8.081
  769POPC   C4A14754  31.422  29.695   7.651
  769POPC   C1B14755  31.405  30.236   8.840
  769POPC   C2B14756  31.441  30.079   8.403
  769POPC   C3B14757  31.581  30.155   7.956
  769POPC   C4B14758  31.374  30.212   7.545
  770POPC   NC314759  13.330  11.191   9.500
  770POPC   PO414760  14.028  11.098   9.394
  770POPC   GL114761  13.888  11.361   9.064
  770POPC   GL214762  13.507  11.379   9.060
  770POPC   C1A14763  13.944  11.080   8.721
  770POPC   D2A14764  13.677  10.850   8.443
  770POPC   C3A14765  13.774  11.034   8.061
  770POPC   C4A14766  13.855  11.164   7.661
  770POPC   C1B14767  13.519  11.330   8.618
  770POPC   C2B14768  13.620  11.504   8.210
  770POPC   C3B14769  13.612  11.643   7.767
  770POPC   C4B14770  13.299  11.554   7.402
  771POPC   NC314771  10.657   9.110   9.716
  771POPC   PO414772  10.204   8.653   9.721
  771POPC   GL114773  10.307   8.980   9.333
  771POPC   GL214774  10.676   9.071   9.197
  771POPC   C1A14775  10.279   9.161   8.878
  771POPC   D2A14776  10.439   8.979   8.493
  771POPC   C3A14777  10.184   8.927   8.110
  771POPC   C4A14778  10.342   8.749   7.730
  771POPC   C1B14779  10.797   9.312   8.806
  771POPC   C2B14780  10.935   9.201   8.379
  771POPC   C3B14781  10.690   9.069   8.021
  771POPC   C4B14782  10.448   9.251   7.673
  772POPC   NC314783  22.002  30.281   9.530
  772POPC   PO414784  22.101  30.966   9.382
  772POPC   GL114785  22.124  30.604   9.134
  772POPC   GL214786  21.892  30.755   8.934
  772POPC   C1A14787  22.299  30.592   8.698
  772POPC   D2A14788  22.061  30.804   8.349
  772POPC   C3A14789  22.321  30.707   8.019
  772POPC   C4A14790  22.661  30.366   7.959
  772POPC   C1B14791  21.837  30.410   8.591
  772POPC   C2B14792  21.839  30.113   8.306
  772POPC   C3B14793  21.956  30.354   7.960
  772POPC   C4B14794  21.800  30.573   7.600
  773POPC   NC314795  17.298   2.808   9.481
  773POPC   PO414796  17.920   3.091   9.567
  773POPC   GL114797  17.715   2.913   9.194
  773POPC   GL214798  17.662   2.546   9.180
  773POPC   C1A14799  17.571   2.998   8.781
  773POPC   D2A14800  17.723   2.934   8.352
  773POPC   C3A14801  17.378   2.976   8.043
  773POPC   C4A14802  17.228   2.891   7.608
  773POPC   C1B14803  17.475   2.499   8.735
  773POPC   C2B14804  17.453   2.503   8.261
  773POPC   C3B14805  17.712   2.585   7.880
  773POPC   C4B14806  17.573   2.533   7.440
  774POPC   NC314807  20.765   1.854   9.541
  774POPC   PO414808  20.100   2.013   9.686
  774POPC   GL114809  20.374   2.011   9.232
  774POPC   GL214810  20.687   2.208   9.125
  774POPC   C1A14811  20.603   1.809   8.836
  774POPC   D2A14812  20.684   1.970   8.408
  774POPC   C3A14813  20.616   1.801   7.992
  774POPC   C4A14814  20.578   1.898   7.547
  774POPC   C1B14815  20.526   2.373   8.675
  774POPC   C2B14816  20.590   2.425   8.209
  774POPC   C3B14817  20.803   2.265   7.867
  774POPC   C4B14818  20.919   2.280   7.423
  775POPC   NC314819  35.332  14.537   9.604
  775POPC   PO414820  35.250  13.908   9.426
  775POPC   GL114821  35.418  14.285   9.134
  775POPC   GL214822  35.350  14.692   9.102
  775POPC   C1A14823  35.493  14.405   8.709
  775POPC   D2A14824  35.700  14.292   8.368
  775POPC   C3A14825  35.519  14.352   7.991
  775POPC   C4A14826  35.272  14.174   7.670
  775POPC   C1B14827  35.044  14.632   8.720
  775POPC   C2B14828  35.087  14.550   8.249
  775POPC   C3B14829  35.127  14.630   7.805
  775POPC   C4B14830  35.233  14.935   7.514
  776POPC   NC314831  19.968  25.837   9.520
  776POPC   PO414832  19.351  26.062   9.614
  776POPC   GL114833  19.729  26.103   9.161
  776POPC   GL214834  19.846  26.444   9.046
  776POPC   C1A14835  19.726  26.206   8.620
  776POPC   D2A14836  19.864  25.924   8.225
  776POPC   C3A14837  19.771  25.964   7.756
  776POPC   C4A14838  19.598  25.735   7.351
  776POPC   C1B14839  20.203  26.495   8.777
  776POPC   C2B14840  20.188  26.288   8.384
  776POPC   C3B14841  20.017  26.376   7.969
  776POPC   C4B14842  20.153  26.461   7.521
  777POPC   NC314843  37.457   3.886   9.507
  777POPC   PO414844  37.764   3.317   9.536
  777POPC   GL114845  37.742   3.533   9.167
  777POPC   GL214846  37.403   3.545   9.111
  777POPC   C1A14847  37.867   3.631   8.729
  777POPC   D2A14848  37.869   3.384   8.340
  777POPC   C3A14849  37.866   3.610   8.004
  777POPC   C4A14850  37.732   3.621   7.572
  777POPC   C1B14851  37.405   3.849   8.790
  777POPC   C2B14852  37.513   3.756   8.372
  777POPC   C3B14853  37.425   3.949   8.025
  777POPC   C4B14854  37.159   3.946   7.689
  778POPC   NC314855  16.526   2.925   9.471
  778POPC   PO414856  16.931   2.417   9.510
  778POPC   GL114857  16.980   2.605   9.137
  778POPC   GL214858  16.651   2.647   9.072
  778POPC   C1A14859  17.023   2.781   8.736
  778POPC   D2A14860  16.713   2.751   8.394
  778POPC   C3A14861  16.895   2.787   7.993
  778POPC   C4A14862  16.828   2.588   7.597
  778POPC   C1B14863  16.568   3.026   8.812
  778POPC   C2B14864  16.309   3.113   8.476
  778POPC   C3B14865  16.250   3.061   8.050
  778POPC   C4B14866  16.508   2.974   7.702
  779POPC   NC314867  28.575  42.139   9.685
  779POPC   PO414868  28.126  42.587   9.832
  779POPC   GL114869  28.216  42.393   9.384
  779POPC   GL214870  28.558  42.387   9.244
  779POPC   C1A14871  28.143  42.402   8.897
  779POPC   D2A14872  28.039  42.445   8.416
  779POPC   C3A14873  28.289  42.357   7.995
  779POPC   C4A14874  28.540  42.509   7.619
  779POPC   C1B14875  28.595  42.172   8.843
  779POPC   C2B14876  28.573  42.354   8.433
  779POPC   C3B14877  28.795  42.339   8.046
  779POPC   C4B14878  28.829  42.103   7.660
  780POPC   NC314879  15.570  17.544   9.750
  780POPC   PO414880  16.128  17.831   9.700
  780POPC   GL114881  15.812  17.654   9.303
  780POPC   GL214882  15.663  17.288   9.242
  780POPC   C1A14883  15.680  17.654   8.821
  780POPC   D2A14884  15.758  17.486   8.372
  780POPC   C3A14885  15.962  17.518   7.966
  780POPC   C4A14886  16.104  17.876   7.721
  780POPC   C1B14887  15.678  17.146   8.761
  780POPC   C2B14888  15.568  17.039   8.252
  780POPC   C3B14889  15.786  17.050   7.810
  780POPC   C4B14890  16.023  17.044   7.377
  781POPC   NC314891  27.658  43.895   9.519
  781POPC   PO414892  27.086  43.709   9.244
  781POPC   GL114893  27.446  43.585   9.015
  781POPC   GL214894  27.725  43.823   9.001
  781POPC   C1A14895  27.501  43.636   8.561
  781POPC   D2A14896  27.559  44.029   8.326
  781POPC   C3A14897  27.539  43.952   7.887
  781POPC   C4A14898  27.420  43.701   7.512
  781POPC   C1B14899  27.441  44.112   8.810
  781POPC   C2B14900  27.333  44.451   8.515
  781POPC   C3B14901  27.222  44.389   8.068
  781POPC   C4B14902  27.306  44.307   7.641
  782POPC   NC314903  42.820   6.389   9.495
  782POPC   PO414904  43.123   5.732   9.573
  782POPC   GL114905  43.233   5.739   9.163
  782POPC   GL214906  43.154   6.095   9.162
  782POPC   C1A14907  43.347   5.886   8.737
  782POPC   D2A14908  43.097   5.748   8.384
  782POPC   C3A14909  43.303   5.624   7.966
  782POPC   C4A14910  43.283   5.731   7.518
  782POPC   C1B14911  42.879   6.090   8.796
  782POPC   C2B14912  42.950   6.256   8.384
  782POPC   C3B14913  43.141   6.116   8.032
  782POPC   C4B14914  42.905   5.957   7.745
  783POPC   NC314915  27.422   7.047   9.397
  783POPC   PO414916  27.540   6.357   9.325
  783POPC   GL114917  27.486   6.655   9.077
  783POPC   GL214918  27.833   6.779   9.122
  783POPC   C1A14919  27.242   6.691   8.731
  783POPC   D2A14920  27.348   6.882   8.383
  783POPC   C3A14921  27.479   6.597   8.080
  783POPC   C4A14922  27.347   6.673   7.680
  783POPC   C1B14923  27.749   6.913   8.716
  783POPC   C2B14924  27.873   6.869   8.296
  783POPC   C3B14925  27.708   7.014   7.883
  783POPC   C4B14926  27.879   7.069   7.464
  784POPC   NC314927  14.782   4.233   9.449
  784POPC   PO414928  14.141   4.031   9.441
  784POPC   GL114929  14.322   4.298   9.110
  784POPC   GL214930  14.508   4.609   9.214
  784POPC   C1A14931  14.378   4.082   8.716
  784POPC   D2A14932  14.118   3.844   8.405
  784POPC   C3A14933  14.067   4.056   8.000
  784POPC   C4A14934  14.156   4.277   7.614
  784POPC   C1B14935  14.669   4.687   8.780
  784POPC   C2B14936  14.655   4.366   8.399
  784POPC   C3B14937  14.490   4.375   7.986
  784POPC   C4B14938  14.499   4.683   7.601
  785POPC   NC314939  37.129  17.831   9.426
  785POPC   PO414940  36.751  17.261   9.504
  785POPC   GL114941  36.799  17.427   9.144
  785POPC   GL214942  37.141  17.485   9.063
  785POPC   C1A14943  36.713  17.624   8.773
  785POPC   D2A14944  37.036  17.704   8.477
  785POPC   C3A14945  36.871  17.785   8.079
  785POPC   C4A14946  37.013  17.630   7.715
  785POPC   C1B14947  37.034  17.226   8.732
  785POPC   C2B14948  37.226  17.215   8.379
  785POPC   C3B14949  37.058  17.189   8.021
  785POPC   C4B14950  37.336  17.207   7.744
  786POPC   NC314951  44.875  25.708   9.299
  786POPC   PO414952  44.946  26.328   9.534
  786POPC   GL114953  44.580  26.164   9.238
  786POPC   GL214954  44.805  26.156   8.969
  786POPC   C1A14955  44.406  25.917   8.835
  786POPC   D2A14956  44.653  25.905   8.450
  786POPC   C3A14957  44.712  25.992   8.004
  786POPC   C4A14958  44.588  26.301   7.710
  786POPC   C1B14959   0.099  25.901   8.709
  786POPC   C2B14960   0.117  25.758   8.286
  786POPC   C3B14961   0.176  25.730   7.857
  786POPC   C4B14962  44.982  25.970   7.535
  787POPC   NC314963  11.411  26.540   9.850
  787POPC   PO414964  11.243  25.864   9.591
  787POPC   GL114965  11.275  25.928   9.169
  787POPC   GL214966  11.077  26.143   8.987
  787POPC   C1A14967  11.556  25.844   8.836
  787POPC   D2A14968  11.627  26.051   8.466
  787POPC   C3A14969  11.353  25.972   8.117
  787POPC   C4A14970  11.456  26.054   7.686
  787POPC   C1B14971  11.218  26.330   8.616
  787POPC   C2B14972  11.007  26.382   8.217
  787POPC   C3B14973  10.958  26.201   7.810
  787POPC   C4B14974  10.986  26.299   7.385
  788POPC   NC314975  25.888  29.944   9.389
  788POPC   PO414976  26.431  30.249   9.634
  788POPC   GL114977  26.340  30.091   9.141
  788POPC   GL214978  26.119  29.847   8.960
  788POPC   C1A14979  26.532  30.043   8.745
  788POPC   D2A14980  26.268  29.851   8.475
  788POPC   C3A14981  26.227  29.921   8.050
  788POPC   C4A14982  26.482  29.845   7.686
  788POPC   C1B14983  25.724  29.969   8.728
  788POPC   C2B14984  25.570  30.105   8.322
  788POPC   C3B14985  25.597  30.128   7.877
  788POPC   C4B14986  25.773  29.765   7.675
  789POPC   NC314987  29.179  19.516   9.296
  789POPC   PO414988  29.327  20.104   9.232
  789POPC   GL114989  28.961  19.954   8.988
  789POPC   GL214990  28.806  19.623   8.982
  789POPC   C1A14991  28.943  19.856   8.541
  789POPC   D2A14992  29.041  20.091   8.185
  789POPC   C3A14993  29.345  19.819   7.969
  789POPC   C4A14994  29.465  19.776   7.509
  789POPC   C1B14995  28.523  19.615   8.652
  789POPC   C2B14996  28.592  19.521   8.211
  789POPC   C3B14997  28.838  19.726   7.862
  789POPC   C4B14998  28.970  19.707   7.420
  790POPC   NC314999   2.996  32.213  10.079
  790POPC   PO415000   2.535  32.333   9.570
  790POPC   GL115001   2.758  32.115   9.225
  790POPC   GL215002   2.597  31.855   9.081
  790POPC   C1A15003   2.901  32.289   8.840
  790POPC   D2A15004   2.774  32.387   8.437
  790POPC   C3A15005   2.989  32.289   8.088
  790POPC   C4A15006   2.808  32.405   7.705
  790POPC   C1B15007   2.482  32.000   8.727
  790POPC   C2B15008   2.536  31.913   8.340
  790POPC   C3B15009   2.538  32.063   7.973
  790POPC   C4B15010   2.667  31.918   7.588
  791POPC   NC315011  17.684   6.504   9.461
  791POPC   PO415012  17.369   7.052   9.586
  791POPC   GL115013  17.345   6.767   9.156
  791POPC   GL215014  17.338   6.418   9.080
  791POPC   C1A15015  17.355   6.773   8.740
  791POPC   D2A15016  17.482   6.775   8.353
  791POPC   C3A15017  17.255   6.476   8.109
  791POPC   C4A15018  17.283   6.524   7.678
  791POPC   C1B15019  17.561   6.258   8.739
  791POPC   C2B15020  17.776   6.347   8.356
  791POPC   C3B15021  17.760   6.466   7.949
  791POPC   C4B15022  17.636   6.181   7.650
  792POPC   NC315023  15.489  24.128   9.468
  792POPC   PO415024  15.246  23.424   9.609
  792POPC   GL115025  15.258  23.697   9.234
  792POPC   GL215026  14.985  23.537   9.044
  792POPC   C1A15027  15.337  23.830   8.773
  792POPC   D2A15028  15.433  23.608   8.357
  792POPC   C3A15029  15.273  23.718   7.922
  792POPC   C4A15030  15.469  24.038   7.687
  792POPC   C1B15031  14.964  23.526   8.547
  792POPC   C2B15032  14.867  23.831   8.239
  792POPC   C3B15033  14.761  23.780   7.820
  792POPC   C4B15034  14.836  23.468   7.533
  793POPC   NC315035   1.306  21.855   9.586
  793POPC   PO415036   1.142  21.223   9.489
  793POPC   GL115037   1.101  21.236   9.083
  793POPC   GL215038   1.166  21.604   9.128
  793POPC   C1A15039   1.239  21.189   8.649
  793POPC   D2A15040   1.461  21.183   8.236
  793POPC   C3A15041   1.244  21.215   7.839
  793POPC   C4A15042   0.829  21.010   7.747
  793POPC   C1B15043   0.972  21.603   8.749
  793POPC   C2B15044   1.162  21.636   8.363
  793POPC   C3B15045   1.440  21.842   8.122
  793POPC   C4B15046   1.295  21.741   7.718
  794POPC   NC315047  35.841  27.562   9.489
  794POPC   PO415048  36.513  27.386   9.497
  794POPC   GL115049  36.198  27.478   9.146
  794POPC   GL215050  35.868  27.341   9.047
  794POPC   C1A15051  36.173  27.748   8.797
  794POPC   D2A15052  36.397  27.665   8.434
  794POPC   C3A15053  36.161  27.780   8.123
  794POPC   C4A15054  36.120  27.800   7.730
  794POPC   C1B15055  36.079  27.235   8.707
  794POPC   C2B15056  35.941  27.382   8.359
  794POPC   C3B15057  35.954  27.317   7.974
  794POPC   C4B15058  36.076  27.310   7.591
  795POPC   NC315059   2.452   3.676   9.501
  795POPC   PO415060   1.792   3.692   9.488
  795POPC   GL115061   2.028   3.714   9.080
  795POPC   GL215062   2.361   3.586   9.030
  795POPC   C1A15063   2.049   3.553   8.643
  795POPC   D2A15064   1.823   3.496   8.295
  795POPC   C3A15065   1.981   3.550   7.886
  795POPC   C4A15066   2.272   3.239   7.710
  795POPC   C1B15067   2.490   3.826   8.684
  795POPC   C2B15068   2.370   3.731   8.251
  795POPC   C3B15069   2.357   3.879   7.830
  795POPC   C4B15070   2.269   3.672   7.420
  796POPC   NC315071  37.429  13.247   9.474
  796POPC   PO415072  37.391  13.925   9.503
  796POPC   GL115073  37.510  13.653   9.138
  796POPC   GL215074  37.848  13.480   9.141
  796POPC   C1A15075  37.380  13.609   8.702
  796POPC   D2A15076  37.301  13.374   8.317
  796POPC   C3A15077  37.421  13.634   7.992
  796POPC   C4A15078  37.785  13.866   7.815
  796POPC   C1B15079  37.918  13.618   8.714
  796POPC   C2B15080  37.834  13.492   8.279
  796POPC   C3B15081  37.828  13.331   7.840
  796POPC   C4B15082  37.860  13.521   7.416
  797POPC   NC315083  12.403   5.343   9.414
  797POPC   PO415084  12.132   6.025   9.595
  797POPC   GL115085  11.988   5.844   9.228
  797POPC   GL215086  11.655   5.981   9.180
  797POPC   C1A15087  12.168   5.762   8.843
  797POPC   D2A15088  12.252   6.044   8.511
  797POPC   C3A15089  12.237   5.897   8.111
  797POPC   C4A15090  12.207   5.825   7.666
  797POPC   C1B15091  11.768   6.095   8.772
  797POPC   C2B15092  11.833   6.281   8.359
  797POPC   C3B15093  11.843   6.148   7.933
  797POPC   C4B15094  11.872   6.183   7.477
  798POPC   NC315095  36.856   0.754   9.514
  798POPC   PO415096  36.740   0.069   9.601
  798POPC   GL115097  36.938   0.303   9.236
  798POPC   GL215098  36.653   0.516   9.115
  798POPC   C1A15099  37.049   0.352   8.765
  798POPC   D2A15100  37.208   0.565   8.361
  798POPC   C3A15101  36.971   0.583   7.960
  798POPC   C4A15102  36.869   0.212   7.766
  798POPC   C1B15103  36.653   0.704   8.713
  798POPC   C2B15104  36.640   0.473   8.359
  798POPC   C3B15105  36.436   0.443   7.997
  798POPC   C4B15106  36.451   0.700   7.692
  799POPC   NC315107   2.287  42.604   9.779
  799POPC   PO415108   2.114  42.052   9.427
  799POPC   GL115109   2.109  42.096   9.026
  799POPC   GL215110   2.326  42.393   9.055
  799POPC   C1A15111   1.779  42.131   8.691
  799POPC   D2A15112   1.776  42.464   8.367
  799POPC   C3A15113   1.944  42.313   7.965
  799POPC   C4A15114   1.690  41.980   7.833
  799POPC   C1B15115   2.242  42.322   8.615
  799POPC   C2B15116   2.278  42.555   8.289
  799POPC   C3B15117   2.438  42.472   7.893
  799POPC   C4B15118   2.346  42.247   7.499
  800POPC   NC315119   6.460   0.099   9.525
  800POPC   PO415120   6.206   0.677   9.441
  800POPC   GL115121   6.396   0.463   9.106
  800POPC   GL215122   6.715   0.662   8.965
  800POPC   C1A15123   6.396   0.406   8.668
  800POPC   D2A15124   6.746   0.542   8.437
  800POPC   C3A15125   6.604   0.611   8.013
  800POPC   C4A15126   6.305   0.452   7.692
  800POPC   C1B15127   6.850   0.244   8.896
  800POPC   C2B15128   7.048   0.110   8.521
  800POPC   C3B15129   7.110   0.321   8.144
  800POPC   C4B15130   7.000   0.288   7.727
  801POPC   NC315131  33.172   0.347   9.652
  801POPC   PO415132  32.553   0.577   9.601
  801POPC   GL115133  32.859   0.481   9.258
  801POPC   GL215134  33.030   0.140   9.202
  801POPC   C1A15135  33.117   0.601   8.914
  801POPC   D2A15136  33.114   0.737   8.505
  801POPC   C3A15137  32.935   0.652   8.108
  801POPC   C4A15138  33.068   0.758   7.712
  801POPC   C1B15139  33.340   0.142   8.877
  801POPC   C2B15140  33.291   0.268   8.454
  801POPC   C3B15141  33.317   0.303   8.027
  801POPC   C4B15142  33.068   0.240   7.684
  802POPC   NC315143  12.370   6.170   9.975
  802POPC   PO415144  12.284   6.593   9.450
  802POPC   GL115145  12.139   6.574   9.076
  802POPC   GL215146  12.200   6.264   8.985
  802POPC   C1A15147  11.814   6.603   8.778
  802POPC   D2A15148  11.908   6.804   8.418
  802POPC   C3A15149  11.907   6.684   8.008
  802POPC   C4A15150  12.304   6.876   7.820
  802POPC   C1B15151  12.339   6.536   8.620
  802POPC   C2B15152  12.320   6.491   8.188
  802POPC   C3B15153  12.293   6.343   7.734
  802POPC   C4B15154  12.321   6.198   7.258
  803POPC   NC315155  38.352  26.386   9.578
  803POPC   PO415156  38.669  25.780   9.703
  803POPC   GL115157  38.480  25.950   9.243
  803POPC   GL215158  38.407  26.292   9.095
  803POPC   C1A15159  38.571  25.969   8.756
  803POPC   D2A15160  38.475  26.096   8.313
  803POPC   C3A15161  38.265  25.850   7.989
  803POPC   C4A15162  38.264  25.919   7.506
  803POPC   C1B15163  38.549  26.516   8.744
  803POPC   C2B15164  38.876  26.369   8.491
  803POPC   C3B15165  38.816  26.412   8.057
  803POPC   C4B15166  38.618  26.159   7.786
  804POPC   NC315167  29.254  14.549   9.570
  804POPC   PO415168  29.506  13.931   9.616
  804POPC   GL115169  29.391  14.207   9.214
  804POPC   GL215170  29.034  14.194   9.232
  804POPC   C1A15171  29.134  14.591   8.932
  804POPC   D2A15172  28.869  14.737   8.579
  804POPC   C3A15173  29.032  14.659   8.161
  804POPC   C4A15174  29.006  14.773   7.738
  804POPC   C1B15175  29.114  14.092   8.779
  804POPC   C2B15176  29.181  13.987   8.323
  804POPC   C3B15177  29.050  14.136   7.897
  804POPC   C4B15178  28.704  14.059   7.592
  805POPC   NC315179  38.867   9.334   9.340
  805POPC   PO415180  38.756   8.733   9.695
  805POPC   GL115181  38.698   8.742   9.221
  805POPC   GL215182  38.514   9.050   9.109
  805POPC   C1A15183  38.534   8.648   8.815
  805POPC   D2A15184  38.446   8.932   8.502
  805POPC   C3A15185  38.735   8.995   8.181
  805POPC   C4A15186  38.651   8.672   7.890
  805POPC   C1B15187  38.167   9.219   8.838
  805POPC   C2B15188  38.100   9.312   8.393
  805POPC   C3B15189  38.256   9.127   8.024
  805POPC   C4B15190  38.054   9.053   7.624
  806POPC   NC315191  38.874  15.017   9.407
  806POPC   PO415192  39.218  15.548   9.462
  806POPC   GL115193  39.181  15.241   9.082
  806POPC   GL215194  39.329  14.913   9.167
  806POPC   C1A15195  39.114  15.088   8.641
  806POPC   D2A15196  38.985  15.152   8.217
  806POPC   C3A15197  39.281  15.343   7.944
  806POPC   C4A15198  39.290  15.151   7.539
  806POPC   C1B15199  39.398  14.670   8.792
  806POPC   C2B15200  39.600  14.768   8.403
  806POPC   C3B15201  39.488  14.882   7.985
  806POPC   C4B15202  39.681  14.770   7.610
  807POPC   NC315203  12.750   7.658   9.450
  807POPC   PO415204  13.148   7.087   9.419
  807POPC   GL115205  12.937   7.317   9.080
  807POPC   GL215206  12.966   7.717   9.002
  807POPC   C1A15207  12.794   7.174   8.682
  807POPC   D2A15208  12.885   7.320   8.278
  807POPC   C3A15209  12.725   7.284   7.883
  807POPC   C4A15210  12.674   7.643   7.627
  807POPC   C1B15211  13.170   7.563   8.631
  807POPC   C2B15212  13.319   7.598   8.203
  807POPC   C3B15213  13.168   7.615   7.763
  807POPC   C4B15214  13.062   7.823   7.346
  808POPC   NC315215  16.964   3.745   9.377
  808POPC   PO415216  16.941   3.074   9.365
  808POPC   GL115217  16.633   3.387   9.182
  808POPC   GL215218  16.476   3.761   9.205
  808POPC   C1A15219  16.799   3.506   8.780
  808POPC   D2A15220  16.957   3.229   8.484
  808POPC   C3A15221  16.723   3.260   8.128
  808POPC   C4A15222  16.912   3.274   7.735
  808POPC   C1B15223  16.638   3.996   8.821
  808POPC   C2B15224  16.855   3.887   8.418
  808POPC   C3B15225  16.736   3.822   7.982
  808POPC   C4B15226  16.604   3.909   7.509
  809POPC   NC315227   5.439  19.299   9.870
  809POPC   PO415228   5.076  18.713   9.565
  809POPC   GL115229   5.178  18.909   9.200
  809POPC   GL215230   5.358  19.181   9.366
  809POPC   C1A15231   5.010  18.948   8.768
  809POPC   D2A15232   5.102  18.845   8.334
  809POPC   C3A15233   5.156  18.817   7.909
  809POPC   C4A15234   4.801  18.857   7.686
  809POPC   C1B15235   5.384  19.292   8.933
  809POPC   C2B15236   5.369  19.249   8.502
  809POPC   C3B15237   5.155  19.394   8.161
  809POPC   C4B15238   5.134  19.315   7.732
  810POPC   NC315239  36.093   6.707   9.747
  810POPC   PO415240  35.933   7.003   9.173
  810POPC   GL115241  35.879   6.604   8.993
  810POPC   GL215242  36.054   6.374   9.206
  810POPC   C1A15243  35.966   6.529   8.550
  810POPC   D2A15244  36.240   6.745   8.242
  810POPC   C3A15245  36.043   6.767   7.823
  810POPC   C4A15246  36.186   6.885   7.403
  810POPC   C1B15247  36.188   6.170   8.826
  810POPC   C2B15248  36.385   6.252   8.415
  810POPC   C3B15249  36.208   6.287   8.013
  810POPC   C4B15250  36.377   6.469   7.618
  811POPC   NC315251  11.992  17.734   9.492
  811POPC   PO415252  11.596  17.273   9.347
  811POPC   GL115253  12.028  17.346   9.144
  811POPC   GL215254  12.130  17.694   9.011
  811POPC   C1A15255  12.145  17.293   8.713
  811POPC   D2A15256  11.892  17.382   8.335
  811POPC   C3A15257  12.116  17.277   7.945
  811POPC   C4A15258  12.391  16.946   7.781
  811POPC   C1B15259  12.172  17.824   8.599
  811POPC   C2B15260  12.130  17.782   8.162
  811POPC   C3B15261  11.980  17.739   7.773
  811POPC   C4B15262  12.202  17.893   7.455
  812POPC   NC315263  30.981   4.961   9.279
  812POPC   PO415264  30.638   4.544   9.674
  812POPC   GL115265  30.669   4.513   9.239
  812POPC   GL215266  31.029   4.419   9.197
  812POPC   C1A15267  30.587   4.663   8.806
  812POPC   D2A15268  30.866   4.645   8.445
  812POPC   C3A15269  30.769   4.448   8.044
  812POPC   C4A15270  30.577   4.564   7.662
  812POPC   C1B15271  30.828   4.216   8.841
  812POPC   C2B15272  30.912   4.107   8.437
  812POPC   C3B15273  30.839   3.935   8.049
  812POPC   C4B15274  30.796   4.105   7.627
  813POPC   NC315275  34.687  25.669  10.035
  813POPC   PO415276  34.906  25.546   9.439
  813POPC   GL115277  34.684  25.303   9.144
  813POPC   GL215278  34.950  25.286   8.935
  813POPC   C1A15279  34.479  25.247   8.707
  813POPC   D2A15280  34.365  25.376   8.262
  813POPC   C3A15281  34.563  25.202   7.853
  813POPC   C4A15282  34.559  24.820   7.567
  813POPC   C1B15283  34.852  25.552   8.565
  813POPC   C2B15284  34.873  25.220   8.284
  813POPC   C3B15285  35.104  25.033   7.960
  813POPC   C4B15286  34.985  25.089   7.542
  814POPC   NC315287  41.092   1.449   9.433
  814POPC   PO415288  41.010   0.794   9.364
  814POPC   GL115289  40.971   1.095   9.054
  814POPC   GL215290  40.818   1.469   8.999
  814POPC   C1A15291  40.773   1.079   8.690
  814POPC   D2A15292  40.728   1.423   8.421
  814POPC   C3A15293  40.775   1.212   8.057
  814POPC   C4A15294  40.913   1.055   7.659
  814POPC   C1B15295  40.555   1.783   8.749
  814POPC   C2B15296  40.498   1.964   8.349
  814POPC   C3B15297  40.483   1.688   8.019
  814POPC   C4B15298  40.558   1.418   7.664
  815POPC   NC315299  22.971  42.137   9.526
  815POPC   PO415300  23.213  42.769   9.624
  815POPC   GL115301  23.173  42.513   9.249
  815POPC   GL215302  22.809  42.520   9.193
  815POPC   C1A15303  23.165  42.375   8.803
  815POPC   D2A15304  23.111  42.569   8.371
  815POPC   C3A15305  23.046  42.373   7.951
  815POPC   C4A15306  23.292  42.228   7.572
  815POPC   C1B15307  22.769  42.685   8.748
  815POPC   C2B15308  22.703  42.870   8.312
  815POPC   C3B15309  22.624  42.674   7.914
  815POPC   C4B15310  22.501  42.624   7.446
  816POPC   NC315311   4.178  39.699   9.621
  816POPC   PO415312   4.517  39.109   9.540
  816POPC   GL115313   4.221  39.244   9.225
  816POPC   GL215314   4.002  39.542   9.175
  816POPC   C1A15315   4.403  39.352   8.827
  816POPC   D2A15316   4.574  39.041   8.518
  816POPC   C3A15317   4.481  39.162   8.126
  816POPC   C4A15318   4.345  39.302   7.748
  816POPC   C1B15319   3.910  39.291   8.831
  816POPC   C2B15320   4.074  39.209   8.449
  816POPC   C3B15321   3.943  39.255   8.057
  816POPC   C4B15322   3.827  39.279   7.633
  817POPC   NC315323   6.592  31.509   9.735
  817POPC   PO415324   7.136  31.305   9.543
  817POPC   GL115325   6.772  31.380   9.271
  817POPC   GL215326   6.776  31.725   9.290
  817POPC   C1A15327   6.632  31.426   8.833
  817POPC   D2A15328   6.470  31.326   8.407
  817POPC   C3A15329   6.785  31.409   8.093
  817POPC   C4A15330   6.823  31.586   7.698
  817POPC   C1B15331   6.896  31.866   8.873
  817POPC   C2B15332   6.740  31.779   8.455
  817POPC   C3B15333   6.651  31.938   8.033
  817POPC   C4B15334   6.447  32.019   7.626
  818POPC   NC315335  28.861   6.741   9.493
  818POPC   PO415336  29.344   6.271   9.493
  818POPC   GL115337  29.085   6.376   9.084
  818POPC   GL215338  29.016   6.743   9.004
  818POPC   C1A15339  29.171   6.386   8.629
  818POPC   D2A15340  29.204   6.301   8.178
  818POPC   C3A15341  29.323   6.693   7.988
  818POPC   C4A15342  29.331   6.890   7.576
  818POPC   C1B15343  28.725   6.981   8.741
  818POPC   C2B15344  28.878   7.207   8.361
  818POPC   C3B15345  28.922   7.020   7.928
  818POPC   C4B15346  28.788   6.840   7.507
  819POPC   NC315347  21.622   7.356   9.501
  819POPC   PO415348  21.192   7.867   9.611
  819POPC   GL115349  21.250   7.607   9.239
  819POPC   GL215350  21.059   7.353   9.286
  819POPC   C1A15351  21.489   7.391   8.875
  819POPC   D2A15352  21.713   7.353   8.490
  819POPC   C3A15353  21.511   7.281   8.078
  819POPC   C4A15354  21.596   7.445   7.647
  819POPC   C1B15355  21.013   7.188   8.893
  819POPC   C2B15356  21.138   7.333   8.495
  819POPC   C3B15357  20.990   7.438   8.130
  819POPC   C4B15358  21.115   7.529   7.770
  820POPC   NC315359  22.892   5.534   9.752
  820POPC   PO415360  22.800   4.873   9.672
  820POPC   GL115361  22.758   5.053   9.255
  820POPC   GL215362  22.906   5.352   9.132
  820POPC   C1A15363  22.705   5.022   8.810
  820POPC   D2A15364  22.936   4.917   8.467
  820POPC   C3A15365  22.914   5.048   8.062
  820POPC   C4A15366  22.851   4.858   7.651
  820POPC   C1B15367  23.128   5.342   8.741
  820POPC   C2B15368  23.314   5.277   8.359
  820POPC   C3B15369  23.268   5.419   7.973
  820POPC   C4B15370  23.145   5.279   7.615
  821POPC   NC315371  14.017   2.234   9.472
  821POPC   PO415372  14.629   2.410   9.775
  821POPC   GL115373  14.519   2.294   9.297
  821POPC   GL215374  14.370   2.006   9.133
  821POPC   C1A15375  14.655   2.307   8.834
  821POPC   D2A15376  14.573   2.372   8.385
  821POPC   C3A15377  14.413   2.046   8.116
  821POPC   C4A15378  14.514   1.936   7.698
  821POPC   C1B15379  14.289   1.955   8.681
  821POPC   C2B15380  13.989   1.879   8.375
  821POPC   C3B15381  13.893   1.796   7.965
  821POPC   C4B15382  14.096   1.712   7.564
  822POPC   NC315383  39.448  16.407   9.490
  822POPC   PO415384  39.008  16.924   9.472
  822POPC   GL115385  39.235  16.795   9.155
  822POPC   GL215386  39.437  17.088   9.181
  822POPC   C1A15387  39.154  16.675   8.738
  822POPC   D2A15388  39.252  16.508   8.347
  822POPC   C3A15389  39.065  16.641   7.957
  822POPC   C4A15390  38.975  16.569   7.498
  822POPC   C1B15391  39.570  16.945   8.789
  822POPC   C2B15392  39.661  16.820   8.399
  822POPC   C3B15393  39.469  16.949   8.045
  822POPC   C4B15394  39.419  16.833   7.644
  823POPC   NC315395  39.465   4.324   9.382
  823POPC   PO415396  38.910   4.710   9.635
  823POPC   GL115397  38.884   4.527   9.216
  823POPC   GL215398  38.985   4.165   9.150
  823POPC   C1A15399  38.989   4.509   8.769
  823POPC   D2A15400  39.365   4.545   8.510
  823POPC   C3A15401  39.295   4.478   8.077
  823POPC   C4A15402  39.396   4.514   7.640
  823POPC   C1B15403  39.197   4.036   8.734
  823POPC   C2B15404  39.481   3.916   8.367
  823POPC   C3B15405  39.463   4.023   7.922
  823POPC   C4B15406  38.985   4.102   7.843
  824POPC   NC315407  38.176  18.145   9.559
  824POPC   PO415408  38.684  18.470   9.476
  824POPC   GL115409  38.525  18.313   9.111
  824POPC   GL215410  38.703  18.017   9.046
  824POPC   C1A15411  38.623  18.357   8.667
  824POPC   D2A15412  38.490  18.154   8.278
  824POPC   C3A15413  38.620  18.348   7.915
  824POPC   C4A15414  38.262  18.428   7.647
  824POPC   C1B15415  38.428  17.870   8.712
  824POPC   C2B15416  38.605  17.664   8.348
  824POPC   C3B15417  38.721  17.782   7.968
  824POPC   C4B15418  38.457  17.950   7.631
  825POPC   NC315419   0.827   8.833   9.285
  825POPC   PO415420   0.243   8.651   9.632
  825POPC   GL115421   0.274   8.649   9.164
  825POPC   GL215422   0.358   8.992   9.097
  825POPC   C1A15423   0.497   8.667   8.725
  825POPC   D2A15424   0.652   8.735   8.300
  825POPC   C3A15425   0.426   8.793   7.935
  825POPC   C4A15426   0.377   8.880   7.492
  825POPC   C1B15427   0.518   9.181   8.697
  825POPC   C2B15428   0.432   9.203   8.242
  825POPC   C3B15429   0.407   9.318   7.794
  825POPC   C4B15430   0.357   9.649   7.473
  826POPC   NC315431   5.432   3.390   9.263
  826POPC   PO415432   4.885   3.526   9.546
  826POPC   GL115433   4.948   3.457   9.091
  826POPC   GL215434   4.940   3.121   8.916
  826POPC   C1A15435   5.039   3.598   8.671
  826POPC   D2A15436   5.059   3.415   8.268
  826POPC   C3A15437   5.051   3.677   7.916
  826POPC   C4A15438   5.029   3.619   7.489
  826POPC   C1B15439   5.319   3.154   8.643
  826POPC   C2B15440   5.477   3.131   8.203
  826POPC   C3B15441   5.214   3.183   7.800
  826POPC   C4B15442   5.359   3.243   7.366
  827POPC   NC315443  28.967  39.504   9.985
  827POPC   PO415444  29.214  38.974   9.738
  827POPC   GL115445  29.317  39.139   9.292
  827POPC   GL215446  28.989  39.095   9.115
  827POPC   C1A15447  29.363  39.281   8.839
  827POPC   D2A15448  29.457  39.161   8.399
  827POPC   C3A15449  29.224  38.949   8.075
  827POPC   C4A15450  29.285  38.979   7.607
  827POPC   C1B15451  28.922  39.157   8.632
  827POPC   C2B15452  29.032  39.405   8.240
  827POPC   C3B15453  29.202  39.408   7.824
  827POPC   C4B15454  29.132  39.573   7.420
  828POPC   NC315455  41.429  32.259   9.456
  828POPC   PO415456  42.089  32.319   9.339
  828POPC   GL115457  41.714  32.218   9.018
  828POPC   GL215458  41.361  32.020   9.022
  828POPC   C1A15459  41.430  32.367   8.685
  828POPC   D2A15460  41.406  32.574   8.322
  828POPC   C3A15461  41.710  32.468   8.088
  828POPC   C4A15462  41.615  32.243   7.748
  828POPC   C1B15463  41.536  31.852   8.660
  828POPC   C2B15464  41.541  31.868   8.206
  828POPC   C3B15465  41.264  31.876   7.864
  828POPC   C4B15466  41.363  31.947   7.427
  829POPC   NC315467   6.831  17.161   9.502
  829POPC   PO415468   6.713  17.852   9.536
  829POPC   GL115469   6.805  17.686   9.100
  829POPC   GL215470   6.939  17.358   9.039
  829POPC   C1A15471   6.625  17.693   8.672
  829POPC   D2A15472   6.681  17.833   8.244
  829POPC   C3A15473   6.332  17.687   8.016
  829POPC   C4A15474   6.297  17.465   7.612
  829POPC   C1B15475   6.750  17.206   8.646
  829POPC   C2B15476   6.617  17.278   8.211
  829POPC   C3B15477   6.813  17.338   7.807
  829POPC   C4B15478   7.040  17.132   7.412
  830POPC   NC315479  29.479  44.084   9.519
  830POPC   PO415480  28.841  44.240   9.410
  830POPC   GL115481  29.118  44.021   9.108
  830POPC   GL215482  29.473  43.872   9.056
  830POPC   C1A15483  29.069  44.045   8.688
  830POPC   D2A15484  29.101  44.340   8.343
  830POPC   C3A15485  29.001  44.122   7.976
  830POPC   C4A15486  29.115  44.077   7.545
  830POPC   C1B15487  29.450  43.676   8.693
  830POPC   C2B15488  29.306  43.825   8.290
  830POPC   C3B15489  29.452  43.873   7.879
  830POPC   C4B15490  29.365  43.657   7.492
  831POPC   NC315491  24.916  15.054   9.366
  831POPC   PO415492  24.315  15.235   9.704
  831POPC   GL115493  24.423  15.198   9.293
  831POPC   GL215494  24.453  15.522   9.213
  831POPC   C1A15495  24.536  15.020   8.857
  831POPC   D2A15496  24.658  15.080   8.433
  831POPC   C3A15497  24.523  14.970   8.027
  831POPC   C4A15498  24.395  15.229   7.726
  831POPC   C1B15499  24.597  15.514   8.792
  831POPC   C2B15500  24.512  15.589   8.351
  831POPC   C3B15501  24.755  15.444   8.015
  831POPC   C4B15502  24.893  15.345   7.596
  832POPC   NC315503  18.138  21.339   9.572
  832POPC   PO415504  18.408  21.875   9.448
  832POPC   GL115505  18.083  21.647   9.166
  832POPC   GL215506  17.981  21.245   9.096
  832POPC   C1A15507  18.301  21.492   8.803
  832POPC   D2A15508  18.399  21.350   8.405
  832POPC   C3A15509  18.080  21.457   8.106
  832POPC   C4A15510  18.247  21.569   7.691
  832POPC   C1B15511  18.010  21.083   8.677
  832POPC   C2B15512  18.170  20.936   8.263
  832POPC   C3B15513  18.329  21.062   7.890
  832POPC   C4B15514  17.955  20.996   7.747
  833POPC   NC315515  16.418  36.195   9.496
  833POPC   PO415516  15.811  35.970   9.517
  833POPC   GL115517  16.027  35.952   9.134
  833POPC   GL215518  16.435  35.887   9.092
  833POPC   C1A15519  15.768  35.821   8.784
  833POPC   D2A15520  15.744  36.093   8.443
  833POPC   C3A15521  15.769  35.951   8.044
  833POPC   C4A15522  15.728  36.166   7.665
  833POPC   C1B15523  16.270  36.111   8.704
  833POPC   C2B15524  16.208  36.252   8.269
  833POPC   C3B15525  16.215  36.149   7.847
  833POPC   C4B15526  16.172  36.355   7.472
  834POPC   NC315527  41.638  10.758   9.354
  834POPC   PO415528  41.315  11.385   9.479
  834POPC   GL115529  41.531  11.399   9.102
  834POPC   GL215530  41.794  11.165   9.091
  834POPC   C1A15531  41.657  11.566   8.734
  834POPC   D2A15532  41.649  11.700   8.353
  834POPC   C3A15533  41.454  11.480   8.018
  834POPC   C4A15534  41.545  11.138   7.801
  834POPC   C1B15535  41.577  11.051   8.700
  834POPC   C2B15536  41.742  11.111   8.284
  834POPC   C3B15537  41.985  10.941   7.923
  834POPC   C4B15538  41.766  10.708   7.578
  835POPC   NC315539  11.565   3.145   9.505
  835POPC   PO415540  10.909   3.226   9.479
  835POPC   GL115541  11.215   3.269   9.150
  835POPC   GL215542  11.485   3.538   9.168
  835POPC   C1A15543  11.284   3.137   8.730
  835POPC   D2A15544  11.468   3.285   8.349
  835POPC   C3A15545  11.234   3.420   7.997
  835POPC   C4A15546  11.113   3.387   7.560
  835POPC   C1B15547  11.211   3.659   8.828
  835POPC   C2B15548  11.228   3.764   8.405
  835POPC   C3B15549  11.522   3.842   8.071
  835POPC   C4B15550  11.452   3.776   7.665
  836POPC   NC315551   0.083  28.310   9.593
  836POPC   PO415552   0.700  28.650   9.594
  836POPC   GL115553   0.491  28.403   9.269
  836POPC   GL215554   0.511  28.046   9.313
  836POPC   C1A15555   0.443  28.561   8.856
  836POPC   D2A15556   0.430  28.709   8.423
  836POPC   C3A15557   0.272  28.442   8.083
  836POPC   C4A15558   0.278  28.591   7.626
  836POPC   C1B15559   0.512  28.039   8.868
  836POPC   C2B15560   0.630  28.244   8.499
  836POPC   C3B15561   0.710  28.138   8.099
  836POPC   C4B15562   0.508  28.112   7.745
  837POPC   NC315563  33.862  31.310   9.484
  837POPC   PO415564  34.150  31.873   9.717
  837POPC   GL115565  33.889  31.826   9.274
  837POPC   GL215566  33.625  31.574   9.151
  837POPC   C1A15567  33.898  31.792   8.806
  837POPC   D2A15568  33.609  31.751   8.464
  837POPC   C3A15569  33.728  31.498   8.092
  837POPC   C4A15570  33.745  31.621   7.649
  837POPC   C1B15571  33.775  31.278   8.824
  837POPC   C2B15572  33.707  31.094   8.425
  837POPC   C3B15573  33.470  31.015   8.051
  837POPC   C4B15574  33.409  31.248   7.700
  838POPC   NC315575  38.084  43.191   9.760
  838POPC   PO415576  37.555  42.850   9.465
  838POPC   GL115577  37.657  43.227   9.204
  838POPC   GL215578  38.003  43.276   9.226
  838POPC   C1A15579  37.773  43.346   8.755
  838POPC   D2A15580  37.562  43.098   8.440
  838POPC   C3A15581  37.556  43.216   8.042
  838POPC   C4A15582  37.623  43.062   7.613
  838POPC   C1B15583  37.974  42.910   8.899
  838POPC   C2B15584  38.099  42.906   8.443
  838POPC   C3B15585  37.983  42.935   8.011
  838POPC   C4B15586  38.034  43.339   7.770
  839POPC   NC315587  33.880   3.585   9.415
  839POPC   PO415588  33.566   2.950   9.514
  839POPC   GL115589  33.842   3.141   9.147
  839POPC   GL215590  34.120   3.406   9.004
  839POPC   C1A15591  33.754   3.255   8.711
  839POPC   D2A15592  33.669   3.435   8.313
  839POPC   C3A15593  34.011   3.591   8.083
  839POPC   C4A15594  34.221   3.468   7.692
  839POPC   C1B15595  33.845   3.743   8.758
  839POPC   C2B15596  33.550   3.941   8.467
  839POPC   C3B15597  33.547   3.868   8.030
  839POPC   C4B15598  33.798   3.835   7.695
  840POPC   NC315599  32.052   6.216   9.401
  840POPC   PO415600  31.957   5.496   9.511
  840POPC   GL115601  32.055   5.697   9.142
  840POPC   GL215602  32.356   5.840   9.192
  840POPC   C1A15603  32.161   5.828   8.720
  840POPC   D2A15604  32.402   5.732   8.375
  840POPC   C3A15605  32.212   5.877   8.015
  840POPC   C4A15606  32.376   6.103   7.682
  840POPC   C1B15607  32.473   6.194   8.874
  840POPC   C2B15608  32.379   6.248   8.455
  840POPC   C3B15609  32.614   6.179   8.124
  840POPC   C4B15610  32.817   6.373   7.799
  841POPC   NC315611  22.843   8.393   9.585
  841POPC   PO415612  22.761   7.752   9.382
  841POPC   GL115613  22.994   8.081   9.116
  841POPC   GL215614  22.998   8.473   9.106
  841POPC   C1A15615  22.883   8.219   8.694
  841POPC   D2A15616  22.671   8.056   8.333
  841POPC   C3A15617  22.794   8.220   7.929
  841POPC   C4A15618  22.732   8.117   7.504
  841POPC   C1B15619  23.131   8.661   8.707
  841POPC   C2B15620  23.087   8.454   8.307
  841POPC   C3B15621  23.132   8.612   7.924
  841POPC   C4B15622  22.813   8.824   7.689
  842POPC   NC315623  27.464  17.500   9.460
  842POPC   PO415624  28.089  17.159   9.485
  842POPC   GL115625  27.802  17.317   9.110
  842POPC   GL215626  27.382  17.301   9.011
  842POPC   C1A15627  27.729  17.269   8.659
  842POPC   D2A15628  27.406  17.414   8.411
  842POPC   C3A15629  27.576  17.403   7.988
  842POPC   C4A15630  27.762  17.791   7.860
  842POPC   C1B15631  27.533  17.720   8.836
  842POPC   C2B15632  27.505  17.937   8.449
  842POPC   C3B15633  27.272  17.818   8.099
  842POPC   C4B15634  27.282  17.733   7.693
  843POPC   NC315635  38.152   3.602   9.537
  843POPC   PO415636  38.705   3.264   9.446
  843POPC   GL115637  38.441   3.294   9.068
  843POPC   GL215638  38.253   3.589   9.052
  843POPC   C1A15639  38.284   3.333   8.621
  843POPC   D2A15640  38.315   3.651   8.288
  843POPC   C3A15641  38.641   3.610   7.973
  843POPC   C4A15642  38.523   3.278   7.680
  843POPC   C1B15643  38.441   3.848   8.755
  843POPC   C2B15644  38.441   4.158   8.400
  843POPC   C3B15645  38.357   4.055   7.946
  843POPC   C4B15646  38.237   3.693   7.666
  844POPC   NC315647   0.531  22.190   9.636
  844POPC   PO415648  44.878  22.177   9.692
  844POPC   GL115649   0.148  22.218   9.297
  844POPC   GL215650   0.385  21.955   9.202
  844POPC   C1A15651   0.343  22.374   8.894
  844POPC   D2A15652   0.156  22.439   8.469
  844POPC   C3A15653   0.354  22.514   8.064
  844POPC   C4A15654   0.512  22.239   7.759
  844POPC   C1B15655   0.731  22.023   8.925
  844POPC   C2B15656   0.752  21.983   8.479
  844POPC   C3B15657   0.506  21.856   8.114
  844POPC   C4B15658   0.392  21.702   7.742
  845POPC   NC315659  33.451  30.814   9.633
  845POPC   PO415660  34.046  30.887   9.582
  845POPC   GL115661  33.753  30.885   9.207
  845POPC   GL215662  33.529  30.617   9.165
  845POPC   C1A15663  33.859  30.731   8.783
  845POPC   D2A15664  34.134  30.819   8.454
  845POPC   C3A15665  33.898  30.693   8.113
  845POPC   C4A15666  33.881  30.957   7.767
  845POPC   C1B15667  33.393  30.916   8.822
  845POPC   C2B15668  33.376  30.704   8.446
  845POPC   C3B15669  33.170  30.602   8.074
  845POPC   C4B15670  33.363  30.649   7.681
  846POPC   NC315671  24.237  32.051   9.326
  846POPC   PO415672  24.582  32.489   9.543
  846POPC   GL115673  24.598  32.374   9.140
  846POPC   GL215674  24.286  32.561   9.085
  846POPC   C1A15675  24.791  32.148   8.783
  846POPC   D2A15676  24.783  31.954   8.364
  846POPC   C3A15677  24.496  32.202   8.102
  846POPC   C4A15678  24.127  32.055   7.924
  846POPC   C1B15679  24.318  32.359   8.689
  846POPC   C2B15680  24.078  32.397   8.329
  846POPC   C3B15681  24.110  32.563   7.906
  846POPC   C4B15682  24.477  32.543   7.665
  847POPC   NC315683  18.236   6.928   9.379
  847POPC   PO415684  18.099   6.373   9.650
  847POPC   GL115685  18.213   6.268   9.231
  847POPC   GL215686  18.425   6.535   9.107
  847POPC   C1A15687  18.056   6.355   8.816
  847POPC   D2A15688  18.028   6.737   8.561
  847POPC   C3A15689  18.227   6.601   8.167
  847POPC   C4A15690  18.157   6.760   7.759
  847POPC   C1B15691  18.511   6.589   8.671
  847POPC   C2B15692  18.816   6.803   8.429
  847POPC   C3B15693  18.769   6.930   8.018
  847POPC   C4B15694  18.643   6.872   7.607
  848POPC   NC315695   3.230  31.437   9.493
  848POPC   PO415696   3.813  31.788   9.420
  848POPC   GL115697   3.799  31.394   9.177
  848POPC   GL215698   3.446  31.337   9.059
  848POPC   C1A15699   3.824  31.365   8.740
  848POPC   D2A15700   3.745  31.714   8.481
  848POPC   C3A15701   3.597  31.604   8.110
  848POPC   C4A15702   3.852  31.369   7.803
  848POPC   C1B15703   3.296  31.410   8.643
  848POPC   C2B15704   3.133  31.163   8.297
  848POPC   C3B15705   3.212  31.311   7.885
  848POPC   C4B15706   3.437  31.627   7.639
  849POPC   NC315707   2.918  26.636   9.658
  849POPC   PO415708   2.380  26.490   9.609
  849POPC   GL115709   2.648  26.459   9.260
  849POPC   GL215710   2.649  26.814   9.196
  849POPC   C1A15711   2.695  26.470   8.801
  849POPC   D2A15712   2.463  26.574   8.429
  849POPC   C3A15713   2.442  26.667   7.991
  849POPC   C4A15714   2.746  26.655   7.661
  849POPC   C1B15715   2.442  26.935   8.784
  849POPC   C2B15716   2.575  27.083   8.352
  849POPC   C3B15717   2.672  27.126   7.906
  849POPC   C4B15718   2.557  27.517   7.677
  850POPC   NC315719   9.079  38.919   9.635
  850POPC   PO415720   9.065  39.616   9.566
  850POPC   GL115721   8.795  39.465   9.224
  850POPC   GL215722   8.793  39.099   9.204
  850POPC   C1A15723   8.808  39.431   8.774
  850POPC   D2A15724   8.962  39.328   8.351
  850POPC   C3A15725   8.686  39.361   7.971
  850POPC   C4A15726   8.831  39.422   7.550
  850POPC   C1B15727   8.888  38.919   8.772
  850POPC   C2B15728   9.134  38.824   8.380
  850POPC   C3B15729   9.029  38.989   7.954
  850POPC   C4B15730   9.204  39.082   7.539
  851POPC   NC315731   3.682  30.607   9.712
  851POPC   PO415732   3.161  30.943   9.478
  851POPC   GL115733   3.486  30.840   9.184
  851POPC   GL215734   3.436  30.522   9.209
  851POPC   C1A15735   3.535  30.949   8.731
  851POPC   D2A15736   3.639  31.132   8.292
  851POPC   C3A15737   3.555  30.940   7.865
  851POPC   C4A15738   3.204  30.868   7.570
  851POPC   C1B15739   3.270  30.504   8.774
  851POPC   C2B15740   3.353  30.691   8.344
  851POPC   C3B15741   3.712  30.549   8.147
  851POPC   C4B15742   3.739  30.237   7.848
  852POPC   NC315743   1.560  43.164   9.566
  852POPC   PO415744   0.911  42.892   9.523
  852POPC   GL115745   1.117  43.125   9.140
  852POPC   GL215746   1.473  43.093   9.078
  852POPC   C1A15747   1.187  43.103   8.656
  852POPC   D2A15748   1.292  43.127   8.194
  852POPC   C3A15749   0.986  42.977   7.844
  852POPC   C4A15750   1.028  43.259   7.430
  852POPC   C1B15751   1.716  42.911   8.751
  852POPC   C2B15752   1.922  42.972   8.367
  852POPC   C3B15753   1.798  42.830   7.982
  852POPC   C4B15754   1.460  42.964   7.731
  853POPC   NC315755  38.327   8.615   9.543
  853POPC   PO415756  38.652   7.990   9.534
  853POPC   GL115757  38.567   8.214   9.176
  853POPC   GL215758  38.286   7.996   9.052
  853POPC   C1A15759  38.670   8.148   8.753
  853POPC   D2A15760  38.662   7.944   8.373
  853POPC   C3A15761  38.831   8.202   8.061
  853POPC   C4A15762  38.727   8.249   7.613
  853POPC   C1B15763  38.182   8.285   8.740
  853POPC   C2B15764  38.379   8.401   8.356
  853POPC   C3B15765  38.317   8.224   7.944
  853POPC   C4B15766  38.276   8.478   7.566
  854POPC   NC315767   8.720  41.628   9.567
  854POPC   PO415768   9.217  41.269   9.381
  854POPC   GL115769   9.073  41.554   9.108
  854POPC   GL215770   8.704  41.627   9.060
  854POPC   C1A15771   9.107  41.549   8.695
  854POPC   D2A15772   8.955  41.265   8.432
  854POPC   C3A15773   8.889  41.461   8.095
  854POPC   C4A15774   9.194  41.520   7.779
  854POPC   C1B15775   8.603  41.638   8.615
  854POPC   C2B15776   8.451  41.858   8.235
  854POPC   C3B15777   8.678  41.852   7.833
  854POPC   C4B15778   8.727  41.482   7.607
  855POPC   NC315779  42.206  22.626   9.760
  855POPC   PO415780  42.541  23.135   9.566
  855POPC   GL115781  42.263  22.959   9.233
  855POPC   GL215782  42.154  22.598   9.224
  855POPC   C1A15783  42.401  22.982   8.792
  855POPC   D2A15784  42.311  23.205   8.391
  855POPC   C3A15785  42.521  23.113   7.992
  855POPC   C4A15786  42.633  22.932   7.596
  855POPC   C1B15787  42.198  22.491   8.799
  855POPC   C2B15788  42.236  22.688   8.400
  855POPC   C3B15789  42.047  22.934   8.069
  855POPC   C4B15790  42.112  22.816   7.699
  856POPC   NC315791  35.741  12.243   9.649
  856POPC   PO415792  35.385  11.749   9.413
  856POPC   GL115793  35.373  12.063   9.091
  856POPC   GL215794  35.648  12.259   9.154
  856POPC   C1A15795  35.315  11.971   8.668
  856POPC   D2A15796  35.462  11.932   8.274
  856POPC   C3A15797  35.204  11.954   7.952
  856POPC   C4A15798  35.157  12.343   7.749
  856POPC   C1B15799  35.804  12.110   8.781
  856POPC   C2B15800  35.880  12.201   8.355
  856POPC   C3B15801  35.712  12.285   7.887
  856POPC   C4B15802  35.793  12.385   7.389
  857POPC   NC315803  35.517  44.984   9.526
  857POPC   PO415804  34.975  44.562   9.538
  857POPC   GL115805  35.118  44.622   9.147
  857POPC   GL215806  35.474  44.612   9.142
  857POPC   C1A15807  35.122  44.661   8.729
  857POPC   D2A15808  35.210  44.995   8.466
  857POPC   C3A15809  35.169  44.805   8.072
  857POPC   C4A15810  35.234  44.862   7.654
  857POPC   C1B15811  35.616  44.787   8.721
  857POPC   C2B15812  35.791  44.828   8.334
  857POPC   C3B15813  35.674  44.718   7.937
  857POPC   C4B15814  35.702  44.692   7.521
  858POPC   NC315815  36.081  33.112   9.633
  858POPC   PO415816  35.890  33.567   9.230
  858POPC   GL115817  36.127  33.250   9.139
  858POPC   GL215818  35.827  33.033   9.147
  858POPC   C1A15819  36.194  33.059   8.749
  858POPC   D2A15820  35.959  33.034   8.360
  858POPC   C3A15821  36.227  32.869   8.058
  858POPC   C4A15822  36.296  33.112   7.726
  858POPC   C1B15823  35.762  32.755   8.785
  858POPC   C2B15824  35.770  32.555   8.396
  858POPC   C3B15825  35.720  32.732   7.971
  858POPC   C4B15826  35.994  32.679   7.624
  859POPC   NC315827  29.517  11.233   9.298
  859POPC   PO415828  28.996  11.512   9.649
  859POPC   GL115829  29.104  11.486   9.193
  859POPC   GL215830  29.380  11.718   9.152
  859POPC   C1A15831  29.047  11.214   8.776
  859POPC   D2A15832  29.200  11.185   8.326
  859POPC   C3A15833  28.964  11.192   7.908
  859POPC   C4A15834  29.053  10.957   7.504
  859POPC   C1B15835  29.395  11.567   8.710
  859POPC   C2B15836  29.376  11.684   8.273
  859POPC   C3B15837  29.388  11.470   7.889
  859POPC   C4B15838  29.214  11.429   7.491
  860POPC   NC315839  23.967  42.174   9.604
  860POPC   PO415840  23.398  41.989   9.518
  860POPC   GL115841  23.632  42.287   9.222
  860POPC   GL215842  23.836  42.602   9.288
  860POPC   C1A15843  23.671  42.441   8.807
  860POPC   D2A15844  23.780  42.356   8.399
  860POPC   C3A15845  23.539  42.488   8.081
  860POPC   C4A15846  23.473  42.669   7.722
  860POPC   C1B15847  24.102  42.664   8.912
  860POPC   C2B15848  24.083  42.769   8.463
  860POPC   C3B15849  24.138  42.532   8.091
  860POPC   C4B15850  23.925  42.344   7.765
  861POPC   NC315851  30.352  39.757   9.508
  861POPC   PO415852  30.963  39.670   9.590
  861POPC   GL115853  30.874  39.883   9.165
  861POPC   GL215854  30.560  40.092   9.135
  861POPC   C1A15855  30.730  39.889   8.701
  861POPC   D2A15856  30.769  39.661   8.303
  861POPC   C3A15857  30.558  39.751   7.907
  861POPC   C4A15858  30.855  39.835   7.622
  861POPC   C1B15859  30.309  40.175   8.728
  861POPC   C2B15860  30.414  40.028   8.299
  861POPC   C3B15861  30.653  40.241   7.923
  861POPC   C4B15862  30.481  40.539   7.616
  862POPC   NC315863   8.424  43.142   9.603
  862POPC   PO415864   7.939  42.660   9.707
  862POPC   GL115865   8.066  42.851   9.263
  862POPC   GL215866   8.325  43.113   9.112
  862POPC   C1A15867   8.093  42.814   8.782
  862POPC   D2A15868   7.787  42.864   8.442
  862POPC   C3A15869   7.898  43.084   8.042
  862POPC   C4A15870   8.019  43.289   7.626
  862POPC   C1B15871   8.337  43.366   8.729
  862POPC   C2B15872   8.269  43.173   8.374
  862POPC   C3B15873   8.404  43.153   7.950
  862POPC   C4B15874   8.202  42.773   7.793
  863POPC   NC315875   4.675  29.267   9.794
  863POPC   PO415876   4.235  29.573   9.633
  863POPC   GL115877   4.237  29.318   9.231
  863POPC   GL215878   4.560  29.249   9.043
  863POPC   C1A15879   4.142  29.324   8.775
  863POPC   D2A15880   4.383  29.396   8.395
  863POPC   C3A15881   4.465  29.090   8.081
  863POPC   C4A15882   4.739  29.101   7.744
  863POPC   C1B15883   4.562  28.978   8.637
  863POPC   C2B15884   4.455  28.626   8.343
  863POPC   C3B15885   4.474  28.569   7.869
  863POPC   C4B15886   4.268  28.453   7.446
  864POPC   NC315887   6.941   3.290   9.801
  864POPC   PO415888   6.460   3.729   9.590
  864POPC   GL115889   6.667   3.673   9.202
  864POPC   GL215890   6.773   3.372   9.243
  864POPC   C1A15891   6.802   3.816   8.802
  864POPC   D2A15892   6.591   3.729   8.438
  864POPC   C3A15893   6.783   3.781   8.090
  864POPC   C4A15894   6.828   3.674   7.686
  864POPC   C1B15895   6.607   3.321   8.809
  864POPC   C2B15896   6.354   3.269   8.440
  864POPC   C3B15897   6.546   3.322   8.006
  864POPC   C4B15898   6.550   3.286   7.523
  865POPC   NC315899  21.903  43.797   9.687
  865POPC   PO415900  22.364  44.183   9.378
  865POPC   GL115901  22.102  44.060   9.030
  865POPC   GL215902  21.977  43.720   9.062
  865POPC   C1A15903  22.062  43.938   8.602
  865POPC   D2A15904  22.308  43.812   8.264
  865POPC   C3A15905  22.092  43.879   7.887
  865POPC   C4A15906  22.194  44.023   7.475
  865POPC   C1B15907  21.922  43.449   8.695
  865POPC   C2B15908  21.928  43.461   8.230
  865POPC   C3B15909  21.836  43.344   7.797
  865POPC   C4B15910  21.783  43.716   7.461
  866POPC   NC315911  44.824   2.408   9.420
  866POPC   PO415912  44.623   1.866   9.703
  866POPC   GL115913  44.605   1.963   9.251
  866POPC   GL215914  44.884   1.794   9.166
  866POPC   C1A15915  44.664   2.002   8.763
  866POPC   D2A15916  44.826   2.063   8.335
  866POPC   C3A15917  44.641   1.943   7.962
  866POPC   C4A15918  44.732   2.134   7.603
  866POPC   C1B15919   0.077   1.627   8.801
  866POPC   C2B15920  44.916   1.512   8.428
  866POPC   C3B15921  44.870   1.482   8.007
  866POPC   C4B15922  44.912   1.638   7.599
  867POPC   NC315923   6.038  41.202   9.419
  867POPC   PO415924   5.789  40.588   9.361
  867POPC   GL115925   5.867  40.792   8.984
  867POPC   GL215926   6.049  41.101   8.941
  867POPC   C1A15927   5.965  40.748   8.559
  867POPC   D2A15928   6.050  41.000   8.216
  867POPC   C3A15929   5.883  40.717   7.957
  867POPC   C4A15930   6.130  40.443   7.755
  867POPC   C1B15931   5.761  41.205   8.619
  867POPC   C2B15932   5.591  41.218   8.210
  867POPC   C3B15933   5.711  41.167   7.796
  867POPC   C4B15934   6.122  41.059   7.675
  868POPC   NC315935   5.041  42.271   9.614
  868POPC   PO415936   4.727  41.625   9.342
  868POPC   GL115937   4.884  42.072   9.165
  868POPC   GL215938   5.276  42.224   9.168
  868POPC   C1A15939   4.978  42.235   8.749
  868POPC   D2A15940   4.968  41.993   8.370
  868POPC   C3A15941   5.228  42.112   8.028
  868POPC   C4A15942   5.033  42.425   7.794
  868POPC   C1B15943   5.438  42.486   8.826
  868POPC   C2B15944   5.265  42.505   8.388
  868POPC   C3B15945   5.417  42.685   8.004
  868POPC   C4B15946   5.563  42.453   7.655
  869POPC   NC315947   0.508   3.828   9.825
  869POPC   PO415948   0.566   4.484   9.629
  869POPC   GL115949   0.289   4.383   9.279
  869POPC   GL215950   0.627   4.371   9.107
  869POPC   C1A15951   0.200   4.194   8.857
  869POPC   D2A15952   0.350   3.889   8.582
  869POPC   C3A15953   0.421   4.125   8.229
  869POPC   C4A15954   0.233   4.086   7.855
  869POPC   C1B15955   0.718   4.254   8.696
  869POPC   C2B15956   0.723   4.520   8.349
  869POPC   C3B15957   0.413   4.612   8.051
  869POPC   C4B15958   0.620   4.383   7.750
  870POPC   NC315959  22.303   3.133   9.320
  870POPC   PO415960  21.896   2.597   9.453
  870POPC   GL115961  22.185   2.608   9.135
  870POPC   GL215962  22.119   2.270   9.115
  870POPC   C1A15963  22.167   2.761   8.725
  870POPC   D2A15964  21.830   2.757   8.424
  870POPC   C3A15965  22.033   2.747   8.016
  870POPC   C4A15966  22.414   2.934   7.895
  870POPC   C1B15967  21.930   2.284   8.707
  870POPC   C2B15968  21.947   2.291   8.237
  870POPC   C3B15969  21.822   2.303   7.796
  870POPC   C4B15970  21.820   2.475   7.353
  871POPC   NC315971   2.906   1.626   9.555
  871POPC   PO415972   2.695   2.321   9.485
  871POPC   GL115973   2.591   2.119   9.109
  871POPC   GL215974   2.820   1.896   9.138
  871POPC   C1A15975   2.521   1.884   8.701
  871POPC   D2A15976   2.513   1.696   8.285
  871POPC   C3A15977   2.343   1.945   7.957
  871POPC   C4A15978   2.349   2.310   7.717
  871POPC   C1B15979   2.821   1.534   8.906
  871POPC   C2B15980   2.952   1.526   8.511
  871POPC   C3B15981   3.020   1.657   8.123
  871POPC   C4B15982   2.786   1.722   7.804
  872POPC   NC315983  29.134  29.892   9.253
  872POPC   PO415984  29.740  30.028   9.550
  872POPC   GL115985  29.629  29.926   9.144
  872POPC   GL215986  29.534  30.252   9.056
  872POPC   C1A15987  29.609  29.616   8.813
  872POPC   D2A15988  29.858  29.323   8.556
  872POPC   C3A15989  29.981  29.534   8.207
  872POPC   C4A15990  29.770  29.662   7.831
  872POPC   C1B15991  29.462  30.096   8.629
  872POPC   C2B15992  29.537  29.992   8.170
  872POPC   C3B15993  29.586  30.126   7.727
  872POPC   C4B15994  29.705  30.200   7.266
  873POPC   NC315995  13.064   2.947   9.456
  873POPC   PO415996  12.459   2.690   9.416
  873POPC   GL115997  12.667   2.822   9.104
  873POPC   GL215998  12.955   2.624   9.083
  873POPC   C1A15999  12.821   2.955   8.726
  873POPC   D2A16000  13.037   2.758   8.413
  873POPC   C3A16001  13.014   3.004   8.048
  873POPC   C4A16002  12.836   3.014   7.637
  873POPC   C1B16003  12.739   2.447   8.744
  873POPC   C2B16004  12.544   2.364   8.352
  873POPC   C3B16005  12.736   2.544   7.980
  873POPC   C4B16006  12.831   2.491   7.552
  874POPC   NC316007  44.430  22.040   9.755
  874POPC   PO416008  43.686  22.129   9.598
  874POPC   GL116009  43.560  22.105   9.179
  874POPC   GL216010  43.448  21.760   9.163
  874POPC   C1A16011  43.742  22.299   8.792
  874POPC   D2A16012  43.691  22.324   8.339
  874POPC   C3A16013  44.034  22.232   8.113
  874POPC   C4A16014  43.961  22.286   7.705
  874POPC   C1B16015  43.714  21.790   8.798
  874POPC   C2B16016  43.913  21.833   8.408
  874POPC   C3B16017  43.774  21.832   7.955
  874POPC   C4B16018  44.019  21.816   7.536
  875POPC   NC316019  21.501  29.038   9.512
  875POPC   PO416020  20.993  29.480   9.548
  875POPC   GL116021  21.158  29.275   9.218
  875POPC   GL216022  21.522  29.370   9.105
  875POPC   C1A16023  21.165  29.193   8.802
  875POPC   D2A16024  21.401  29.314   8.426
  875POPC   C3A16025  21.295  29.153   8.011
  875POPC   C4A16026  21.334  29.339   7.563
  875POPC   C1B16027  21.621  28.984   8.818
  875POPC   C2B16028  21.633  28.828   8.367
  875POPC   C3B16029  21.722  28.836   7.917
  875POPC   C4B16030  21.419  28.855   7.582
  876POPC   NC316031  16.512  23.799   9.489
  876POPC   PO416032  17.088  24.284   9.388
  876POPC   GL116033  16.771  24.009   9.113
  876POPC   GL216034  16.357  24.099   9.122
  876POPC   C1A16035  16.725  23.718   8.722
  876POPC   D2A16036  16.971  23.491   8.395
  876POPC   C3A16037  16.833  23.653   7.989
  876POPC   C4A16038  16.678  23.624   7.543
  876POPC   C1B16039  16.281  23.976   8.719
  876POPC   C2B16040  16.488  23.887   8.306
  876POPC   C3B16041  16.418  23.959   7.883
  876POPC   C4B16042  16.175  23.703   7.684
  877POPC   NC316043  22.806  16.953   9.700
  877POPC   PO416044  23.193  16.386   9.594
  877POPC   GL116045  22.974  16.628   9.247
  877POPC   GL216046  23.168  16.871   9.072
  877POPC   C1A16047  22.909  16.611   8.747
  877POPC   D2A16048  22.881  16.762   8.287
  877POPC   C3A16049  22.831  16.515   7.889
  877POPC   C4A16050  22.800  16.637   7.420
  877POPC   C1B16051  23.258  17.013   8.685
  877POPC   C2B16052  23.391  16.777   8.343
  877POPC   C3B16053  23.271  16.829   7.924
  877POPC   C4B16054  23.256  16.529   7.609
  878POPC   NC316055   9.766  24.545   9.696
  878POPC   PO416056   9.382  24.049   9.543
  878POPC   GL116057   9.686  24.261   9.220
  878POPC   GL216058   9.590  24.616   9.224
  878POPC   C1A16059   9.828  24.199   8.751
  878POPC   D2A16060   9.935  24.414   8.333
  878POPC   C3A16061   9.783  24.391   7.871
  878POPC   C4A16062   9.874  24.727   7.552
  878POPC   C1B16063   9.783  24.700   8.806
  878POPC   C2B16064   9.649  24.866   8.374
  878POPC   C3B16065   9.510  24.816   7.948
  878POPC   C4B16066   9.175  24.563   7.772
  879POPC   NC316067  13.082  36.710   9.428
  879POPC   PO416068  12.564  37.046   9.687
  879POPC   GL116069  12.666  36.963   9.266
  879POPC   GL216070  12.958  37.164   9.207
  879POPC   C1A16071  12.710  36.917   8.821
  879POPC   D2A16072  12.914  36.939   8.437
  879POPC   C3A16073  12.739  36.834   8.049
  879POPC   C4A16074  12.899  36.746   7.645
  879POPC   C1B16075  13.117  37.252   8.820
  879POPC   C2B16076  13.190  37.382   8.395
  879POPC   C3B16077  13.184  37.149   8.013
  879POPC   C4B16078  13.334  36.998   7.627
  880POPC   NC316079  29.821  15.949   9.464
  880POPC   PO416080  30.090  15.342   9.293
  880POPC   GL116081  30.138  15.813   9.108
  880POPC   GL216082  29.814  16.028   8.982
  880POPC   C1A16083  30.162  15.877   8.675
  880POPC   D2A16084  29.892  15.739   8.375
  880POPC   C3A16085  30.005  15.787   7.964
  880POPC   C4A16086  30.228  15.445   7.783
  880POPC   C1B16087  29.774  16.196   8.569
  880POPC   C2B16088  29.691  16.181   8.139
  880POPC   C3B16089  29.749  16.256   7.709
  880POPC   C4B16090  29.686  16.063   7.292
  881POPC   NC316091  40.521  17.949   9.459
  881POPC   PO416092  40.877  18.355   9.804
  881POPC   GL116093  40.745  18.375   9.316
  881POPC   GL216094  41.062  18.451   9.155
  881POPC   C1A16095  40.629  18.444   8.888
  881POPC   D2A16096  40.740  18.444   8.444
  881POPC   C3A16097  40.600  18.573   8.027
  881POPC   C4A16098  40.715  18.210   7.798
  881POPC   C1B16099  41.095  18.228   8.766
  881POPC   C2B16100  41.103  17.934   8.424
  881POPC   C3B16101  41.103  17.923   7.998
  881POPC   C4B16102  41.226  18.190   7.680
  882POPC   NC316103  15.578  29.114   9.616
  882POPC   PO416104  16.175  29.343   9.359
  882POPC   GL116105  16.026  29.118   9.081
  882POPC   GL216106  15.699  29.055   9.110
  882POPC   C1A16107  16.044  28.922   8.725
  882POPC   D2A16108  15.819  28.904   8.382
  882POPC   C3A16109  15.991  29.077   8.037
  882POPC   C4A16110  16.145  28.856   7.712
  882POPC   C1B16111  15.529  29.177   8.719
  882POPC   C2B16112  15.410  29.165   8.275
  882POPC   C3B16113  15.523  28.897   7.923
  882POPC   C4B16114  15.679  29.018   7.514
  883POPC   NC316115  15.712  35.505   9.441
  883POPC   PO416116  16.343  35.132   9.523
  883POPC   GL116117  16.004  35.130   9.204
  883POPC   GL216118  16.095  35.456   9.131
  883POPC   C1A16119  15.868  35.205   8.750
  883POPC   D2A16120  15.983  34.954   8.370
  883POPC   C3A16121  15.878  35.203   8.021
  883POPC   C4A16122  15.803  35.135   7.605
  883POPC   C1B16123  16.212  35.602   8.745
  883POPC   C2B16124  15.995  35.594   8.369
  883POPC   C3B16125  16.184  35.606   7.981
  883POPC   C4B16126  16.327  35.695   7.611
  884POPC   NC316127   4.773   3.088   9.400
  884POPC   PO416128   4.407   2.501   9.541
  884POPC   GL116129   4.334   2.687   9.148
  884POPC   GL216130   4.070   2.905   9.103
  884POPC   C1A16131   4.129   2.524   8.783
  884POPC   D2A16132   4.102   2.504   8.355
  884POPC   C3A16133   4.455   2.655   8.123
  884POPC   C4A16134   4.566   2.369   7.808
  884POPC   C1B16135   4.211   3.050   8.730
  884POPC   C2B16136   4.086   3.010   8.311
  884POPC   C3B16137   4.259   3.136   7.935
  884POPC   C4B16138   4.499   3.057   7.531
  885POPC   NC316139  39.796   1.630   9.570
  885POPC   PO416140  40.009   1.023   9.469
  885POPC   GL116141  40.168   1.262   9.160
  885POPC   GL216142  40.039   1.602   9.115
  885POPC   C1A16143  40.334   1.314   8.761
  885POPC   D2A16144  40.348   1.081   8.389
  885POPC   C3A16145  40.229   1.269   8.037
  885POPC   C4A16146  40.067   1.247   7.604
  885POPC   C1B16147  39.831   1.327   8.789
  885POPC   C2B16148  39.826   1.127   8.403
  885POPC   C3B16149  39.728   1.188   7.991
  885POPC   C4B16150  39.568   1.495   7.685
  886POPC   NC316151  31.020  36.852   9.443
  886POPC   PO416152  30.397  36.727   9.542
  886POPC   GL116153  30.393  36.529   9.132
  886POPC   GL216154  30.750  36.546   9.107
  886POPC   C1A16155  30.386  36.616   8.659
  886POPC   D2A16156  30.559  36.889   8.321
  886POPC   C3A16157  30.509  36.821   7.876
  886POPC   C4A16158  30.736  37.115   7.634
  886POPC   C1B16159  30.876  36.387   8.733
  886POPC   C2B16160  30.818  36.457   8.308
  886POPC   C3B16161  31.010  36.644   7.947
  886POPC   C4B16162  31.207  36.435   7.586
  887POPC   NC316163   1.057  41.000   9.571
  887POPC   PO416164   1.480  40.490   9.589
  887POPC   GL116165   1.380  40.794   9.237
  887POPC   GL216166   1.667  40.926   9.277
  887POPC   C1A16167   1.288  40.927   8.776
  887POPC   D2A16168   1.242  40.759   8.297
  887POPC   C3A16169   1.264  41.054   7.901
  887POPC   C4A16170   1.072  41.267   7.512
  887POPC   C1B16171   1.759  40.785   8.874
  887POPC   C2B16172   1.690  40.918   8.456
  887POPC   C3B16173   1.745  40.785   8.046
  887POPC   C4B16174   1.487  40.582   7.771
  888POPC   NC316175  33.762  10.471   9.670
  888POPC   PO416176  34.047   9.906   9.725
  888POPC   GL116177  33.904  10.207   9.278
  888POPC   GL216178  33.662  10.517   9.191
  888POPC   C1A16179  33.957  10.315   8.820
  888POPC   D2A16180  34.030  10.280   8.394
  888POPC   C3A16181  33.948  10.479   8.012
  888POPC   C4A16182  34.013  10.229   7.651
  888POPC   C1B16183  33.476  10.649   8.806
  888POPC   C2B16184  33.598  10.699   8.381
  888POPC   C3B16185  33.431  10.465   8.060
  888POPC   C4B16186  33.545  10.441   7.681
  889POPC   NC316187   0.056  13.684   9.652
  889POPC   PO416188  44.509  13.743   9.579
  889POPC   GL116189  44.553  13.652   9.123
  889POPC   GL216190  44.222  13.664   9.046
  889POPC   C1A16191  44.664  13.539   8.659
  889POPC   D2A16192  44.892  13.663   8.245
  889POPC   C3A16193  44.687  13.901   7.877
  889POPC   C4A16194  44.863  14.058   7.471
  889POPC   C1B16195  44.272  13.853   8.647
  889POPC   C2B16196  44.379  13.685   8.235
  889POPC   C3B16197  44.580  13.406   7.918
  889POPC   C4B16198  44.525  13.362   7.454
  890POPC   NC316199  34.778   2.174   9.535
  890POPC   PO416200  34.285   1.798   9.389
  890POPC   GL116201  34.569   1.962   9.106
  890POPC   GL216202  34.637   2.310   9.079
  890POPC   C1A16203  34.726   1.896   8.709
  890POPC   D2A16204  34.541   1.795   8.318
  890POPC   C3A16205  34.761   1.715   7.986
  890POPC   C4A16206  34.556   1.907   7.649
  890POPC   C1B16207  34.350   2.303   8.775
  890POPC   C2B16208  34.528   2.295   8.397
  890POPC   C3B16209  34.701   2.237   8.024
  890POPC   C4B16210  34.609   2.406   7.646
  891POPC   NC316211  19.040   6.362   9.561
  891POPC   PO416212  18.732   5.743   9.599
  891POPC   GL116213  18.944   5.899   9.276
  891POPC   GL216214  18.755   6.160   9.183
  891POPC   C1A16215  19.035   5.805   8.859
  891POPC   D2A16216  19.205   5.916   8.454
  891POPC   C3A16217  19.011   5.752   8.113
  891POPC   C4A16218  19.104   5.781   7.700
  891POPC   C1B16219  18.907   6.278   8.733
  891POPC   C2B16220  18.810   6.312   8.294
  891POPC   C3B16221  18.644   6.437   7.890
  891POPC   C4B16222  18.762   6.409   7.431
  892POPC   NC316223  17.992   9.179   9.830
  892POPC   PO416224  18.609   8.989   9.564
  892POPC   GL116225  18.633   9.010   9.117
  892POPC   GL216226  18.831   9.319   9.101
  892POPC   C1A16227  18.313   9.027   8.811
  892POPC   D2A16228  18.005   9.034   8.475
  892POPC   C3A16229  18.141   8.768   8.149
  892POPC   C4A16230  18.341   8.821   7.740
  892POPC   C1B16231  18.722   9.362   8.727
  892POPC   C2B16232  18.658   9.071   8.442
  892POPC   C3B16233  18.515   9.146   8.071
  892POPC   C4B16234  18.726   9.168   7.715
  893POPC   NC316235  35.006   5.219   9.509
  893POPC   PO416236  35.692   5.438   9.413
  893POPC   GL116237  35.685   5.087   9.101
  893POPC   GL216238  35.401   4.916   9.200
  893POPC   C1A16239  35.799   4.942   8.690
  893POPC   D2A16240  35.580   5.131   8.348
  893POPC   C3A16241  35.749   5.237   7.951
  893POPC   C4A16242  35.450   5.198   7.610
  893POPC   C1B16243  35.291   5.037   8.767
  893POPC   C2B16244  35.073   5.228   8.410
  893POPC   C3B16245  35.141   5.072   8.012
  893POPC   C4B16246  35.169   4.755   7.671
  894POPC   NC316247  14.674   2.761   9.439
  894POPC   PO416248  15.372   3.017   9.492
  894POPC   GL116249  15.287   2.943   9.071
  894POPC   GL216250  14.961   3.066   9.124
  894POPC   C1A16251  15.229   2.850   8.608
  894POPC   D2A16252  15.433   2.634   8.248
  894POPC   C3A16253  15.150   2.563   7.909
  894POPC   C4A16254  14.792   2.321   7.865
  894POPC   C1B16255  15.034   3.307   8.769
  894POPC   C2B16256  14.907   3.356   8.353
  894POPC   C3B16257  14.984   3.024   8.070
  894POPC   C4B16258  15.083   3.039   7.641
  895POPC   NC316259  43.570  19.997   9.401
  895POPC   PO416260  44.187  19.654   9.553
  895POPC   GL116261  43.953  19.721   9.191
  895POPC   GL216262  43.641  19.521   9.220
  895POPC   C1A16263  43.911  19.949   8.792
  895POPC   D2A16264  43.765  20.131   8.400
  895POPC   C3A16265  44.038  19.971   8.100
  895POPC   C4A16266  43.837  19.819   7.735
  895POPC   C1B16267  43.807  19.393   8.829
  895POPC   C2B16268  44.043  19.530   8.501
  895POPC   C3B16269  43.975  19.435   8.066
  895POPC   C4B16270  44.286  19.597   7.816
  896POPC   NC316271  10.853  44.612   9.365
  896POPC   PO416272  10.217  44.830   9.582
  896POPC   GL116273  10.420  44.761   9.137
  896POPC   GL216274  10.506  44.367   9.079
  896POPC   C1A16275  10.548  44.785   8.685
  896POPC   D2A16276  10.674   0.021   8.309
  896POPC   C3A16277  10.564  44.802   7.948
  896POPC   C4A16278  10.405  44.800   7.552
  896POPC   C1B16279  10.828  44.346   8.723
  896POPC   C2B16280  10.800  44.484   8.303
  896POPC   C3B16281  10.842  44.384   7.881
  896POPC   C4B16282  10.658  44.372   7.475
  897POPC   NC316283   5.990   8.295   9.501
  897POPC   PO416284   5.376   8.685   9.378
  897POPC   GL116285   5.652   8.471   9.163
  897POPC   GL216286   5.684   8.102   9.149
  897POPC   C1A16287   5.845   8.399   8.780
  897POPC   D2A16288   6.041   8.287   8.417
  897POPC   C3A16289   5.864   8.400   8.033
  897POPC   C4A16290   5.978   8.209   7.671
  897POPC   C1B16291   5.717   7.898   8.768
  897POPC   C2B16292   5.819   7.832   8.359
  897POPC   C3B16293   5.631   7.880   7.988
  897POPC   C4B16294   5.751   7.767   7.571
  898POPC   NC316295  26.337  26.466   9.504
  898POPC   PO416296  25.898  26.949   9.436
  898POPC   GL116297  26.144  26.873   9.109
  898POPC   GL216298  26.045  26.538   9.068
  898POPC   C1A16299  26.199  26.961   8.652
  898POPC   D2A16300  25.987  26.915   8.268
  898POPC   C3A16301  26.217  27.068   7.926
  898POPC   C4A16302  26.119  26.815   7.569
  898POPC   C1B16303  26.415  26.548   8.831
  898POPC   C2B16304  26.399  26.457   8.402
  898POPC   C3B16305  26.281  26.568   7.993
  898POPC   C4B16306  26.482  26.468   7.612
  899POPC   NC316307  22.593  25.132   9.619
  899POPC   PO416308  22.203  25.482   9.585
  899POPC   GL116309  22.375  25.416   9.173
  899POPC   GL216310  22.470  25.078   9.100
  899POPC   C1A16311  22.334  25.467   8.712
  899POPC   D2A16312  22.103  25.532   8.313
  899POPC   C3A16313  22.188  25.456   7.864
  899POPC   C4A16314  21.969  25.221   7.524
  899POPC   C1B16315  22.545  25.008   8.644
  899POPC   C2B16316  22.450  25.127   8.198
  899POPC   C3B16317  22.375  24.981   7.756
  899POPC   C4B16318  22.372  25.012   7.282
  900POPC   NC316319  36.355  18.034   9.594
  900POPC   PO416320  35.852  18.474   9.556
  900POPC   GL116321  36.106  18.297   9.180
  900POPC   GL216322  36.451  18.405   9.187
  900POPC   C1A16323  36.253  18.344   8.703
  900POPC   D2A16324  36.112  18.081   8.357
  900POPC   C3A16325  35.979  18.206   7.957
  900POPC   C4A16326  35.857  18.615   7.880
  900POPC   C1B16327  36.647  18.105   8.908
  900POPC   C2B16328  36.612  18.022   8.469
  900POPC   C3B16329  36.506  18.178   8.067
  900POPC   C4B16330  36.385  18.030   7.680
  901POPC   NC316331   2.695  43.407   9.871
  901POPC   PO416332   2.638  43.952   9.547
  901POPC   GL116333   2.815  43.977   9.106
  901POPC   GL216334   3.140  44.205   9.079
  901POPC   C1A16335   2.973  43.749   8.708
  901POPC   D2A16336   2.995  43.639   8.231
  901POPC   C3A16337   3.126  43.545   7.787
  901POPC   C4A16338   3.004  43.798   7.381
  901POPC   C1B16339   2.906  44.266   8.687
  901POPC   C2B16340   2.706  44.038   8.334
  901POPC   C3B16341   2.794  43.974   7.886
  901POPC   C4B16342   3.023  44.354   7.769
  902POPC   NC316343  20.416  32.187   9.473
  902POPC   PO416344  21.105  32.376   9.494
  902POPC   GL116345  20.916  32.272   9.129
  902POPC   GL216346  20.821  32.619   9.081
  902POPC   C1A16347  20.678  32.165   8.739
  902POPC   D2A16348  20.457  32.017   8.349
  902POPC   C3A16349  20.541  32.216   7.947
  902POPC   C4A16350  20.738  31.959   7.640
  902POPC   C1B16351  21.032  32.595   8.678
  902POPC   C2B16352  20.909  32.537   8.230
  902POPC   C3B16353  20.704  32.701   7.829
  902POPC   C4B16354  20.351  32.630   7.504
  903POPC   NC316355  23.305   1.009   9.497
  903POPC   PO416356  22.683   1.192   9.534
  903POPC   GL116357  22.818   1.384   9.114
  903POPC   GL216358  23.179   1.470   9.093
  903POPC   C1A16359  22.984   1.246   8.693
  903POPC   D2A16360  22.852   0.963   8.387
  903POPC   C3A16361  22.711   1.150   8.024
  903POPC   C4A16362  22.972   1.154   7.682
  903POPC   C1B16363  23.141   1.738   8.692
  903POPC   C2B16364  23.036   1.592   8.266
  903POPC   C3B16365  23.308   1.474   7.927
  903POPC   C4B16366  23.391   1.560   7.478
  904POPC   NC316367  41.028   9.967   9.417
  904POPC   PO416368  40.618   9.359   9.494
  904POPC   GL116369  40.755   9.621   9.147
  904POPC   GL216370  41.104   9.562   9.081
  904POPC   C1A16371  40.871   9.789   8.714
  904POPC   D2A16372  40.741   9.592   8.319
  904POPC   C3A16373  40.817   9.822   7.956
  904POPC   C4A16374  40.778   9.779   7.510
  904POPC   C1B16375  41.335   9.516   8.711
  904POPC   C2B16376  41.303   9.520   8.261
  904POPC   C3B16377  41.124   9.410   7.881
  904POPC   C4B16378  41.194   9.502   7.400
  905POPC   NC316379  23.155   2.629   9.463
  905POPC   PO416380  22.529   2.871   9.635
  905POPC   GL116381  22.676   2.701   9.249
  905POPC   GL216382  22.887   2.978   9.185
  905POPC   C1A16383  22.711   2.699   8.787
  905POPC   D2A16384  22.568   2.817   8.387
  905POPC   C3A16385  22.822   2.694   8.053
  905POPC   C4A16386  22.794   2.732   7.610
  905POPC   C1B16387  23.180   2.921   8.821
  905POPC   C2B16388  23.147   3.012   8.371
  905POPC   C3B16389  23.306   2.859   7.980
  905POPC   C4B16390  23.269   2.937   7.564
  906POPC   NC316391  23.493  44.341   9.609
  906POPC   PO416392  23.882  44.893   9.701
  906POPC   GL116393  23.819  44.563   9.311
  906POPC   GL216394  23.496  44.611   9.154
  906POPC   C1A16395  23.916  44.434   8.890
  906POPC   D2A16396  23.964  44.724   8.552
  906POPC   C3A16397  24.083  44.517   8.160
  906POPC   C4A16398  23.923  44.635   7.765
  906POPC   C1B16399  23.401  44.753   8.716
  906POPC   C2B16400  23.527  44.969   8.331
  906POPC   C3B16401  23.517  44.944   7.887
  906POPC   C4B16402  23.217  44.959   7.546
  907POPC   NC316403  11.529   0.041   9.964
  907POPC   PO416404  11.146  44.481   9.711
  907POPC   GL116405  11.330  44.445   9.227
  907POPC   GL216406  11.547  44.777   9.134
  907POPC   C1A16407  11.339  44.365   8.800
  907POPC   D2A16408  11.281  44.591   8.435
  907POPC   C3A16409  11.453  44.442   8.086
  907POPC   C4A16410  11.298  44.481   7.698
  907POPC   C1B16411  11.217  44.880   8.870
  907POPC   C2B16412  11.148   0.065   8.468
  907POPC   C3B16413  11.197  44.927   8.015
  907POPC   C4B16414  11.507   0.183   7.769
  908POPC   NC316415  21.298  42.839   9.534
  908POPC   PO416416  21.680  43.457   9.440
  908POPC   GL116417  21.496  43.433   9.049
  908POPC   GL216418  21.174  43.236   9.070
  908POPC   C1A16419  21.469  43.229   8.631
  908POPC   D2A16420  21.466  43.215   8.184
  908POPC   C3A16421  21.638  42.882   7.972
  908POPC   C4A16422  21.641  42.886   7.552
  908POPC   C1B16423  21.241  42.828   8.843
  908POPC   C2B16424  21.367  42.733   8.406
  908POPC   C3B16425  21.138  42.706   8.019
  908POPC   C4B16426  21.161  43.024   7.751
  909POPC   NC316427  39.203  23.263   9.470
  909POPC   PO416428  39.147  22.641   9.538
  909POPC   GL116429  39.393  22.849   9.211
  909POPC   GL216430  39.542  22.557   9.083
  909POPC   C1A16431  39.293  23.102   8.814
  909POPC   D2A16432  39.374  23.087   8.407
  909POPC   C3A16433  39.231  23.326   8.097
  909POPC   C4A16434  39.069  23.082   7.775
  909POPC   C1B16435  39.222  22.609   8.771
  909POPC   C2B16436  38.999  22.511   8.426
  909POPC   C3B16437  39.077  22.599   8.002
  909POPC   C4B16438  38.941  22.376   7.647
  910POPC   NC316439  20.931  12.427   9.413
  910POPC   PO416440  20.340  12.561   9.374
  910POPC   GL116441  20.582  12.754   8.988
  910POPC   GL216442  20.884  12.670   8.981
  910POPC   C1A16443  20.805  12.959   8.592
  910POPC   D2A16444  20.714  13.107   8.176
  910POPC   C3A16445  20.368  12.894   7.894
  910POPC   C4A16446  20.319  12.891   7.402
  910POPC   C1B16447  20.850  12.442   8.638
  910POPC   C2B16448  20.631  12.588   8.258
  910POPC   C3B16449  20.877  12.712   7.906
  910POPC   C4B16450  21.171  12.366   7.844
  911POPC   NC316451  40.930  10.669   9.450
  911POPC   PO416452  40.573  10.093   9.473
  911POPC   GL116453  40.528  10.454   9.201
  911POPC   GL216454  40.866  10.381   9.043
  911POPC   C1A16455  40.540  10.735   8.836
  911POPC   D2A16456  40.766  10.600   8.460
  911POPC   C3A16457  40.795  10.800   8.090
  911POPC   C4A16458  40.734  10.807   7.652
  911POPC   C1B16459  40.589  10.217   8.761
  911POPC   C2B16460  40.691  10.120   8.358
  911POPC   C3B16461  40.604  10.322   7.980
  911POPC   C4B16462  40.411  10.034   7.735
  912POPC   NC316463   7.128  15.865   9.554
  912POPC   PO416464   7.723  16.165   9.475
  912POPC   GL116465   7.497  15.894   9.165
  912POPC   GL216466   7.143  15.931   9.054
  912POPC   C1A16467   7.518  15.777   8.732
  912POPC   D2A16468   7.280  15.833   8.365
  912POPC   C3A16469   7.540  16.085   8.079
  912POPC   C4A16470   7.514  16.002   7.614
  912POPC   C1B16471   7.192  16.253   8.728
  912POPC   C2B16472   7.104  16.321   8.269
  912POPC   C3B16473   7.078  16.029   7.882
  912POPC   C4B16474   7.093  16.194   7.435
  913POPC   NC316475   2.514   5.517   9.444
  913POPC   PO416476   2.931   5.949   9.327
  913POPC   GL116477   2.882   5.790   8.950
  913POPC   GL216478   3.064   5.493   9.069
  913POPC   C1A16479   2.690   5.982   8.588
  913POPC   D2A16480   2.841   6.069   8.193
  913POPC   C3A16481   2.560   5.866   7.934
  913POPC   C4A16482   2.563   5.728   7.481
  913POPC   C1B16483   2.911   5.366   8.638
  913POPC   C2B16484   2.798   5.554   8.291
  913POPC   C3B16485   3.074   5.663   7.951
  913POPC   C4B16486   2.988   5.945   7.656
  914POPC   NC316487  29.321   0.258   9.675
  914POPC   PO416488  29.360   0.873   9.460
  914POPC   GL116489  29.335   0.584   9.092
  914POPC   GL216490  29.330   0.250   9.127
  914POPC   C1A16491  29.334   0.433   8.639
  914POPC   D2A16492  29.483   0.167   8.297
  914POPC   C3A16493  29.280   0.277   7.919
  914POPC   C4A16494  29.386   0.659   7.727
  914POPC   C1B16495  28.940   0.183   8.806
  914POPC   C2B16496  28.931   0.249   8.357
  914POPC   C3B16497  28.729   0.307   7.986
  914POPC   C4B16498  28.775  44.978   7.752
  915POPC   NC316499  29.505   1.824   9.535
  915POPC   PO416500  28.896   2.026   9.437
  915POPC   GL116501  28.920   2.093   9.027
  915POPC   GL216502  29.286   2.029   9.083
  915POPC   C1A16503  28.985   1.901   8.620
  915POPC   D2A16504  29.121   1.601   8.295
  915POPC   C3A16505  29.007   1.796   7.922
  915POPC   C4A16506  29.028   2.236   7.880
  915POPC   C1B16507  29.327   2.264   8.720
  915POPC   C2B16508  29.330   2.115   8.293
  915POPC   C3B16509  29.528   2.237   7.921
  915POPC   C4B16510  29.425   2.505   7.602
  916POPC   NC316511  32.431  29.371   9.460
  916POPC   PO416512  32.258  30.130   9.562
  916POPC   GL116513  32.164  30.029   9.132
  916POPC   GL216514  31.862  30.263   9.111
  916POPC   C1A16515  32.332  29.836   8.735
  916POPC   D2A16516  32.403  29.585   8.357
  916POPC   C3A16517  32.357  29.799   8.011
  916POPC   C4A16518  32.265  29.818   7.597
  916POPC   C1B16519  31.840  30.000   8.729
  916POPC   C2B16520  31.941  29.872   8.319
  916POPC   C3B16521  31.861  29.734   7.914
  916POPC   C4B16522  31.802  29.952   7.488
  917POPC   NC316523   4.653  10.231   9.699
  917POPC   PO416524   4.332   9.612   9.526
  917POPC   GL116525   4.529   9.865   9.247
  917POPC   GL216526   4.194   9.851   9.074
  917POPC   C1A16527   4.623  10.001   8.815
  917POPC   D2A16528   4.387  10.003   8.379
  917POPC   C3A16529   4.572   9.836   7.968
  917POPC   C4A16530   4.395   9.462   7.825
  917POPC   C1B16531   3.864   9.799   8.740
  917POPC   C2B16532   3.784   9.700   8.283
  917POPC   C3B16533   4.045   9.847   7.919
  917POPC   C4B16534   4.251  10.146   7.646
  918POPC   NC316535  27.828  42.256   9.718
  918POPC   PO416536  27.201  42.306   9.578
  918POPC   GL116537  27.565  42.494   9.336
  918POPC   GL216538  27.764  42.221   9.203
  918POPC   C1A16539  27.674  42.663   8.932
  918POPC   D2A16540  27.447  42.643   8.525
  918POPC   C3A16541  27.616  42.454   8.136
  918POPC   C4A16542  27.845  42.142   7.862
  918POPC   C1B16543  27.449  42.216   8.865
  918POPC   C2B16544  27.433  42.071   8.422
  918POPC   C3B16545  27.359  42.032   7.951
  918POPC   C4B16546  27.477  41.797   7.585
  919POPC   NC316547   2.328   1.091   9.576
  919POPC   PO416548   1.641   0.974   9.571
  919POPC   GL116549   1.875   1.064   9.176
  919POPC   GL216550   2.197   1.256   9.123
  919POPC   C1A16551   1.814   1.273   8.771
  919POPC   D2A16552   1.570   1.388   8.423
  919POPC   C3A16553   1.676   1.221   8.039
  919POPC   C4A16554   1.802   1.137   7.640
  919POPC   C1B16555   2.351   1.377   8.716
  919POPC   C2B16556   2.093   1.401   8.348
  919POPC   C3B16557   2.150   1.449   7.931
  919POPC   C4B16558   2.313   1.178   7.654
  920POPC   NC316559  43.665  39.402   9.683
  920POPC   PO416560  44.078  39.432   9.324
  920POPC   GL116561  43.926  39.153   9.050
  920POPC   GL216562  43.666  39.023   9.271
  920POPC   C1A16563  43.879  39.171   8.610
  920POPC   D2A16564  43.776  39.486   8.279
  920POPC   C3A16565  44.012  39.382   7.920
  920POPC   C4A16566  44.020  38.987   7.683
  920POPC   C1B16567  43.432  39.091   8.875
  920POPC   C2B16568  43.409  39.136   8.401
  920POPC   C3B16569  43.562  39.145   7.950
  920POPC   C4B16570  43.566  39.301   7.511
  921POPC   NC316571  35.815  26.564   9.430
  921POPC   PO416572  35.197  26.799   9.775
  921POPC   GL116573  35.227  26.808   9.230
  921POPC   GL216574  35.543  26.950   9.130
  921POPC   C1A16575  35.259  26.676   8.776
  921POPC   D2A16576  35.161  26.437   8.392
  921POPC   C3A16577  35.197  26.707   8.031
  921POPC   C4A16578  35.164  27.068   7.765
  921POPC   C1B16579  35.578  27.096   8.669
  921POPC   C2B16580  35.517  27.119   8.197
  921POPC   C3B16581  35.649  26.902   7.804
  921POPC   C4B16582  35.381  26.655   7.503
  922POPC   NC316583  12.682   6.913   9.382
  922POPC   PO416584  13.069   6.368   9.520
  922POPC   GL116585  13.035   6.588   9.155
  922POPC   GL216586  12.671   6.558   9.030
  922POPC   C1A16587  13.074   6.727   8.745
  922POPC   D2A16588  12.793   6.725   8.404
  922POPC   C3A16589  13.029   6.877   8.075
  922POPC   C4A16590  13.320   6.632   7.905
  922POPC   C1B16591  12.792   6.269   8.734
  922POPC   C2B16592  12.713   6.202   8.313
  922POPC   C3B16593  12.765   6.460   7.942
  922POPC   C4B16594  12.763   6.376   7.501
  923POPC   NC316595  20.088  30.031   9.659
  923POPC   PO416596  19.547  29.864   9.534
  923POPC   GL116597  19.799  29.876   9.180
  923POPC   GL216598  20.150  29.732   9.240
  923POPC   C1A16599  19.623  29.952   8.756
  923POPC   D2A16600  19.738  30.239   8.445
  923POPC   C3A16601  19.661  30.195   8.006
  923POPC   C4A16602  19.909  30.278   7.656
  923POPC   C1B16603  20.124  29.795   8.792
  923POPC   C2B16604  19.941  29.764   8.385
  923POPC   C3B16605  20.061  29.868   7.965
  923POPC   C4B16606  20.041  29.594   7.596
  924POPC   NC316607  38.574  19.687   9.526
  924POPC   PO416608  37.928  19.813   9.624
  924POPC   GL116609  38.171  19.807   9.200
  924POPC   GL216610  38.456  20.005   9.151
  924POPC   C1A16611  38.202  19.887   8.736
  924POPC   D2A16612  38.415  19.740   8.372
  924POPC   C3A16613  38.292  19.807   7.979
  924POPC   C4A16614  38.508  19.604   7.695
  924POPC   C1B16615  38.722  19.817   8.825
  924POPC   C2B16616  38.907  19.964   8.446
  924POPC   C3B16617  38.791  19.881   8.032
  924POPC   C4B16618  38.551  20.114   7.671
  925POPC   NC316619   9.535  34.930   9.535
  925POPC   PO416620   9.933  34.391   9.460
  925POPC   GL116621   9.656  34.468   9.152
  925POPC   GL216622   9.382  34.253   9.095
  925POPC   C1A16623   9.729  34.356   8.726
  925POPC   D2A16624   9.937  34.266   8.349
  925POPC   C3A16625   9.844  34.614   8.060
  925POPC   C4A16626  10.080  34.842   7.761
  925POPC   C1B16627   9.221  34.296   8.705
  925POPC   C2B16628   9.384  34.480   8.340
  925POPC   C3B16629   9.428  34.332   7.938
  925POPC   C4B16630   9.316  34.492   7.542
  926POPC   NC316631  29.701  43.480   9.396
  926POPC   PO416632  29.565  42.817   9.602
  926POPC   GL116633  29.590  42.874   9.161
  926POPC   GL216634  29.916  43.040   9.176
  926POPC   C1A16635  29.654  43.171   8.773
  926POPC   D2A16636  29.812  43.373   8.442
  926POPC   C3A16637  29.844  43.088   8.129
  926POPC   C4A16638  29.733  43.271   7.767
  926POPC   C1B16639  30.150  43.273   8.845
  926POPC   C2B16640  30.303  43.223   8.414
  926POPC   C3B16641  30.268  43.336   7.974
  926POPC   C4B16642  30.202  42.960   7.730
  927POPC   NC316643  40.805  31.707   9.559
  927POPC   PO416644  41.037  32.345   9.684
  927POPC   GL116645  40.957  32.280   9.225
  927POPC   GL216646  40.737  32.020   9.183
  927POPC   C1A16647  40.936  32.221   8.764
  927POPC   D2A16648  41.099  32.059   8.387
  927POPC   C3A16649  41.046  32.316   8.037
  927POPC   C4A16650  40.677  32.404   7.802
  927POPC   C1B16651  40.511  31.860   8.853
  927POPC   C2B16652  40.641  31.733   8.468
  927POPC   C3B16653  40.624  31.982   8.111
  927POPC   C4B16654  40.382  31.970   7.759
  928POPC   NC316655   4.085  37.083   9.384
  928POPC   PO416656   4.701  37.016   9.657
  928POPC   GL116657   4.668  36.990   9.200
  928POPC   GL216658   4.462  37.277   9.094
  928POPC   C1A16659   4.467  36.853   8.814
  928POPC   D2A16660   4.289  36.966   8.444
  928POPC   C3A16661   4.376  36.759   8.095
  928POPC   C4A16662   4.544  36.888   7.715
  928POPC   C1B16663   4.165  37.364   8.738
  928POPC   C2B16664   3.901  37.287   8.377
  928POPC   C3B16665   4.046  37.138   7.998
  928POPC   C4B16666   3.838  37.194   7.614
  929POPC   NC316667  26.626   0.164   9.544
  929POPC   PO416668  26.928   0.838   9.486
  929POPC   GL116669  26.665   0.615   9.143
  929POPC   GL216670  26.893   0.394   8.989
  929POPC   C1A16671  26.521   0.588   8.691
  929POPC   D2A16672  26.830   0.394   8.369
  929POPC   C3A16673  27.013   0.619   7.993
  929POPC   C4A16674  26.775   0.676   7.624
  929POPC   C1B16675  26.593   0.093   8.743
  929POPC   C2B16676  26.408   0.030   8.325
  929POPC   C3B16677  26.590   0.179   7.936
  929POPC   C4B16678  27.023   0.130   7.877
  930POPC   NC316679   3.345   8.499   9.352
  930POPC   PO416680   3.888   8.171   9.531
  930POPC   GL116681   3.778   8.322   9.124
  930POPC   GL216682   3.628   7.983   9.000
  930POPC   C1A16683   3.560   8.383   8.718
  930POPC   D2A16684   3.680   8.118   8.409
  930POPC   C3A16685   3.600   8.246   8.021
  930POPC   C4A16686   3.357   8.460   7.709
  930POPC   C1B16687   3.263   7.956   8.696
  930POPC   C2B16688   3.191   8.036   8.277
  930POPC   C3B16689   3.254   7.939   7.861
  930POPC   C4B16690   3.278   8.000   7.443
  931POPC   NC316691  16.513  11.428   9.589
  931POPC   PO416692  16.891  10.942   9.407
  931POPC   GL116693  16.611  11.133   9.137
  931POPC   GL216694  16.670  11.497   9.122
  931POPC   C1A16695  16.599  11.057   8.699
  931POPC   D2A16696  16.627  11.318   8.360
  931POPC   C3A16697  16.707  11.083   8.022
  931POPC   C4A16698  16.540  10.989   7.653
  931POPC   C1B16699  16.894  11.473   8.765
  931POPC   C2B16700  17.163  11.248   8.488
  931POPC   C3B16701  17.131  11.411   8.075
  931POPC   C4B16702  16.960  11.365   7.686
  932POPC   NC316703  38.462  43.648   9.466
  932POPC   PO416704  38.518  42.980   9.697
  932POPC   GL116705  38.484  43.129   9.280
  932POPC   GL216706  38.750  43.326   9.180
  932POPC   C1A16707  38.389  43.207   8.834
  932POPC   D2A16708  38.582  43.086   8.431
  932POPC   C3A16709  38.451  43.188   8.016
  932POPC   C4A16710  38.346  42.877   7.666
  932POPC   C1B16711  38.869  43.423   8.732
  932POPC   C2B16712  39.018  43.367   8.275
  932POPC   C3B16713  38.911  43.376   7.804
  932POPC   C4B16714  38.582  43.281   7.499
  933POPC   NC316715  12.651  42.816   9.398
  933POPC   PO416716  13.098  43.222   9.544
  933POPC   GL116717  12.905  43.215   9.166
  933POPC   GL216718  13.081  42.880   9.125
  933POPC   C1A16719  12.731  43.084   8.761
  933POPC   D2A16720  12.578  43.008   8.333
  933POPC   C3A16721  12.757  43.257   7.985
  933POPC   C4A16722  12.703  43.050   7.601
  933POPC   C1B16723  13.239  43.155   8.789
  933POPC   C2B16724  13.082  43.172   8.373
  933POPC   C3B16725  13.156  42.949   7.970
  933POPC   C4B16726  13.250  43.049   7.560
  934POPC   NC316727  37.663  11.816   9.273
  934POPC   PO416728  37.732  12.533   9.348
  934POPC   GL116729  37.580  12.325   9.047
  934POPC   GL216730  37.305  12.181   9.229
  934POPC   C1A16731  37.804  12.173   8.690
  934POPC   D2A16732  37.829  11.944   8.313
  934POPC   C3A16733  37.855  12.118   7.883
  934POPC   C4A16734  37.776  11.763   7.605
  934POPC   C1B16735  37.271  12.007   8.797
  934POPC   C2B16736  37.337  12.092   8.386
  934POPC   C3B16737  37.216  11.841   8.064
  934POPC   C4B16738  37.261  11.890   7.645
  935POPC   NC316739   3.075  19.379   9.517
  935POPC   PO416740   2.665  18.835   9.595
  935POPC   GL116741   2.578  19.045   9.219
  935POPC   GL216742   2.881  19.165   9.088
  935POPC   C1A16743   2.518  18.901   8.790
  935POPC   D2A16744   2.351  18.912   8.367
  935POPC   C3A16745   2.560  19.034   8.009
  935POPC   C4A16746   2.847  18.869   7.750
  935POPC   C1B16747   3.012  19.373   8.722
  935POPC   C2B16748   2.842  19.360   8.305
  935POPC   C3B16749   2.969  19.339   7.886
  935POPC   C4B16750   3.214  19.345   7.498
  936POPC   NC316751  12.355   0.020   9.401
  936POPC   PO416752  11.786   0.247   9.653
  936POPC   GL116753  11.872   0.326   9.200
  936POPC   GL216754  11.995   0.062   8.989
  936POPC   C1A16755  12.042   0.531   8.808
  936POPC   D2A16756  12.044   0.322   8.407
  936POPC   C3A16757  12.139   0.565   8.058
  936POPC   C4A16758  11.946   0.520   7.649
  936POPC   C1B16759  12.373   0.055   8.702
  936POPC   C2B16760  12.290  44.867   8.307
  936POPC   C3B16761  12.119   0.061   7.948
  936POPC   C4B16762  12.378   0.276   7.701
  937POPC   NC316763   7.828  23.551   9.495
  937POPC   PO416764   8.509  23.629   9.448
  937POPC   GL116765   8.205  23.489   9.114
  937POPC   GL216766   8.374  23.769   8.957
  937POPC   C1A16767   8.070  23.547   8.622
  937POPC   D2A16768   8.287  23.505   8.190
  937POPC   C3A16769   8.102  23.440   7.782
  937POPC   C4A16770   7.756  23.572   7.500
  937POPC   C1B16771   8.725  23.763   8.654
  937POPC   C2B16772   8.716  23.782   8.199
  937POPC   C3B16773   8.478  23.849   7.819
  937POPC   C4B16774   8.065  23.952   7.671
  938POPC   NC316775   1.961  21.421   9.604
  938POPC   PO416776   2.477  21.577   9.239
  938POPC   GL116777   2.063  21.354   9.102
  938POPC   GL216778   1.671  21.455   9.181
  938POPC   C1A16779   2.048  21.054   8.781
  938POPC   D2A16780   2.226  20.930   8.393
  938POPC   C3A16781   1.993  21.140   8.104
  938POPC   C4A16782   2.165  21.348   7.762
  938POPC   C1B16783   1.561  21.602   8.751
  938POPC   C2B16784   1.794  21.549   8.339
  938POPC   C3B16785   1.701  21.487   7.867
  938POPC   C4B16786   1.538  21.416   7.422
  939POPC   NC316787  43.411   1.808   9.323
  939POPC   PO416788  43.110   2.369   9.342
  939POPC   GL116789  43.040   2.166   8.980
  939POPC   GL216790  42.700   2.284   8.931
  939POPC   C1A16791  43.217   1.862   8.683
  939POPC   D2A16792  43.418   1.778   8.274
  939POPC   C3A16793  43.240   1.950   7.911
  939POPC   C4A16794  43.350   2.348   7.687
  939POPC   C1B16795  42.694   2.010   8.597
  939POPC   C2B16796  42.995   2.147   8.319
  939POPC   C3B16797  42.884   2.314   7.930
  939POPC   C4B16798  42.621   2.375   7.624
  940POPC   NC316799   9.748  44.190   9.443
  940POPC   PO416800   9.733  43.536   9.572
  940POPC   GL116801   9.664  43.763   9.174
  940POPC   GL216802   9.388  43.988   9.116
  940POPC   C1A16803   9.676  43.589   8.774
  940POPC   D2A16804   9.761  43.378   8.403
  940POPC   C3A16805   9.728  43.655   8.064
  940POPC   C4A16806   9.659  43.509   7.659
  940POPC   C1B16807   9.675  44.219   8.790
  940POPC   C2B16808   9.894  44.145   8.386
  940POPC   C3B16809   9.730  44.244   7.980
  940POPC   C4B16810   9.739  44.056   7.576
  941POPC   NC316811  11.144  17.207   9.447
  941POPC   PO416812  10.783  17.836   9.501
  941POPC   GL116813  11.116  17.636   9.156
  941POPC   GL216814  11.499  17.729   9.141
  941POPC   C1A16815  11.202  17.454   8.752
  941POPC   D2A16816  11.027  17.601   8.336
  941POPC   C3A16817  11.155  17.415   7.933
  941POPC   C4A16818  11.593  17.368   7.868
  941POPC   C1B16819  11.443  17.915   8.735
  941POPC   C2B16820  11.659  17.900   8.334
  941POPC   C3B16821  11.497  17.895   7.921
  941POPC   C4B16822  11.131  17.863   7.673
  942POPC   NC316823  30.841  18.816   9.442
  942POPC   PO416824  31.230  19.254   9.046
  942POPC   GL116825  31.077  18.819   8.991
  942POPC   GL216826  30.764  18.983   8.978
  942POPC   C1A16827  30.856  18.597   8.637
  942POPC   D2A16828  30.604  18.823   8.321
  942POPC   C3A16829  30.766  18.940   7.882
  942POPC   C4A16830  30.849  19.199   7.485
  942POPC   C1B16831  30.629  19.220   8.651
  942POPC   C2B16832  30.666  19.337   8.214
  942POPC   C3B16833  30.460  19.347   7.807
  942POPC   C4B16834  30.295  19.279   7.407
  943POPC   NC316835  24.148   2.670   9.352
  943POPC   PO416836  23.498   3.019   9.435
  943POPC   GL116837  23.734   2.829   9.108
  943POPC   GL216838  24.005   3.052   8.979
  943POPC   C1A16839  23.886   2.620   8.731
  943POPC   D2A16840  23.623   2.632   8.368
  943POPC   C3A16841  23.835   2.737   7.989
  943POPC   C4A16842  23.638   2.612   7.628
  943POPC   C1B16843  23.649   3.076   8.662
  943POPC   C2B16844  23.640   3.148   8.234
  943POPC   C3B16845  23.810   3.243   7.853
  943POPC   C4B16846  23.959   2.997   7.526
  944POPC   NC316847  35.087  25.975   9.352
  944POPC   PO416848  34.526  26.295   9.645
  944POPC   GL116849  34.635  26.052   9.172
  944POPC   GL216850  34.786  25.781   9.008
  944POPC   C1A16851  34.760  26.181   8.701
  944POPC   D2A16852  34.663  26.384   8.283
  944POPC   C3A16853  34.737  26.134   7.932
  944POPC   C4A16854  34.315  25.938   7.809
  944POPC   C1B16855  34.418  25.787   8.768
  944POPC   C2B16856  34.468  25.880   8.341
  944POPC   C3B16857  34.736  25.657   8.057
  944POPC   C4B16858  34.691  25.669   7.631
  945POPC   NC316859  39.598  29.048   9.592
  945POPC   PO416860  40.276  29.225   9.578
  945POPC   GL116861  40.169  29.189   9.161
  945POPC   GL216862  39.822  29.111   9.153
  945POPC   C1A16863  40.051  29.356   8.765
  945POPC   D2A16864  39.852  29.326   8.391
  945POPC   C3A16865  40.077  29.309   8.003
  945POPC   C4A16866  39.744  29.177   7.765
  945POPC   C1B16867  39.929  28.869   8.805
  945POPC   C2B16868  40.102  28.871   8.423
  945POPC   C3B16869  39.939  28.793   8.030
  945POPC   C4B16870  40.180  28.885   7.697
  946POPC   NC316871  12.415  36.363   9.570
  946POPC   PO416872  11.840  36.788   9.604
  946POPC   GL116873  12.112  36.764   9.271
  946POPC   GL216874  12.181  37.124   9.212
  946POPC   C1A16875  11.882  36.709   8.871
  946POPC   D2A16876  11.871  36.889   8.456
  946POPC   C3A16877  11.660  36.648   8.182
  946POPC   C4A16878  11.784  36.612   7.791
  946POPC   C1B16879  12.225  37.085   8.771
  946POPC   C2B16880  12.286  37.208   8.352
  946POPC   C3B16881  12.297  37.109   7.956
  946POPC   C4B16882  12.418  36.882   7.613
  947POPC   NC316883  28.050  44.450   9.515
  947POPC   PO416884  28.524  44.872   9.689
  947POPC   GL116885  28.456  44.685   9.267
  947POPC   GL216886  28.648  44.938   9.149
  947POPC   C1A16887  28.331  44.536   8.840
  947POPC   D2A16888  28.437  44.290   8.463
  947POPC   C3A16889  28.230  44.460   8.095
  947POPC   C4A16890  28.375  44.533   7.674
  947POPC   C1B16891  28.426   0.036   8.812
  947POPC   C2B16892  28.194  44.863   8.448
  947POPC   C3B16893  28.350  44.939   8.031
  947POPC   C4B16894  28.252   0.024   7.596
  948POPC   NC316895  20.269  31.379   9.292
  948POPC   PO416896  19.657  31.364   9.606
  948POPC   GL116897  19.774  31.542   9.225
  948POPC   GL216898  19.634  31.275   9.108
  948POPC   C1A16899  19.889  31.517   8.750
  948POPC   D2A16900  20.055  31.688   8.382
  948POPC   C3A16901  19.852  31.533   8.047
  948POPC   C4A16902  19.899  31.628   7.625
  948POPC   C1B16903  19.443  31.137   8.775
  948POPC   C2B16904  19.654  31.156   8.414
  948POPC   C3B16905  19.508  31.123   8.044
  948POPC   C4B16906  19.721  31.146   7.702
  949POPC   NC316907  43.511  27.264   9.254
  949POPC   PO416908  43.288  27.706   9.715
  949POPC   GL116909  43.115  27.673   9.229
  949POPC   GL216910  42.853  27.883   9.087
  949POPC   C1A16911  43.210  27.719   8.731
  949POPC   D2A16912  43.507  27.778   8.373
  949POPC   C3A16913  43.243  27.844   8.020
  949POPC   C4A16914  42.983  27.555   7.782
  949POPC   C1B16915  42.700  27.686   8.717
  949POPC   C2B16916  42.885  27.674   8.322
  949POPC   C3B16917  42.736  27.940   7.991
  949POPC   C4B16918  42.521  27.820   7.635
  950POPC   NC316919  10.120  34.768   9.263
  950POPC   PO416920  10.714  34.685   9.355
  950POPC   GL116921  10.496  34.425   9.057
  950POPC   GL216922  10.162  34.290   9.016
  950POPC   C1A16923  10.401  34.601   8.651
  950POPC   D2A16924  10.682  34.772   8.330
  950POPC   C3A16925  10.556  34.683   7.902
  950POPC   C4A16926  10.490  34.885   7.464
  950POPC   C1B16927  10.371  34.096   8.673
  950POPC   C2B16928  10.472  34.260   8.275
  950POPC   C3B16929  10.235  34.301   7.916
  950POPC   C4B16930  10.381  34.374   7.536
  951POPC   NC316931  42.703  19.436   9.541
  951POPC   PO416932  42.137  19.060   9.508
  951POPC   GL116933  42.396  19.180   9.186
  951POPC   GL216934  42.534  18.851   9.165
  951POPC   C1A16935  42.262  19.380   8.797
  951POPC   D2A16936  42.386  19.526   8.384
  951POPC   C3A16937  42.274  19.272   8.020
  951POPC   C4A16938  42.350  19.174   7.574
  951POPC   C1B16939  42.398  18.897   8.746
  951POPC   C2B16940  42.363  18.695   8.351
  951POPC   C3B16941  42.455  18.784   7.941
  951POPC   C4B16942  42.638  18.762   7.571
  952POPC   NC316943  19.793  28.204   9.562
  952POPC   PO416944  20.081  28.756   9.493
  952POPC   GL116945  19.885  28.514   9.140
  952POPC   GL216946  19.636  28.238   9.101
  952POPC   C1A16947  20.040  28.280   8.755
  952POPC   D2A16948  20.185  28.406   8.311
  952POPC   C3A16949  20.088  28.526   7.858
  952POPC   C4A16950  19.719  28.683   7.604
  952POPC   C1B16951  19.553  28.421   8.731
  952POPC   C2B16952  19.682  28.179   8.393
  952POPC   C3B16953  19.843  28.107   8.016
  952POPC   C4B16954  19.536  28.201   7.736
  953POPC   NC316955  44.055  32.311   9.619
  953POPC   PO416956  43.653  32.726   9.453
  953POPC   GL116957  44.050  32.647   9.212
  953POPC   GL216958  44.164  32.966   9.100
  953POPC   C1A16959  44.152  32.553   8.772
  953POPC   D2A16960  43.854  32.624   8.421
  953POPC   C3A16961  43.949  32.716   7.990
  953POPC   C4A16962  43.640  32.900   7.686
  953POPC   C1B16963  44.081  33.061   8.649
  953POPC   C2B16964  44.213  33.101   8.203
  953POPC   C3B16965  44.375  32.948   7.784
  953POPC   C4B16966  44.519  32.926   7.337
  954POPC   NC316967  44.154  31.756   9.429
  954POPC   PO416968  43.631  32.103   9.659
  954POPC   GL116969  43.714  32.254   9.224
  954POPC   GL216970  44.056  32.140   9.131
  954POPC   C1A16971  43.727  32.256   8.768
  954POPC   D2A16972  43.665  31.978   8.422
  954POPC   C3A16973  43.674  32.247   8.085
  954POPC   C4A16974  43.754  32.381   7.677
  954POPC   C1B16975  44.191  32.035   8.735
  954POPC   C2B16976  44.142  32.213   8.333
  954POPC   C3B16977  44.125  32.103   7.891
  954POPC   C4B16978  44.219  32.264   7.493
  955POPC   NC316979  25.020  33.848   9.262
  955POPC   PO416980  25.565  34.106   9.578
  955POPC   GL116981  25.529  33.779   9.182
  955POPC   GL216982  25.301  33.462   9.105
  955POPC   C1A16983  25.336  33.776   8.715
  955POPC   D2A16984  25.225  33.611   8.319
  955POPC   C3A16985  25.436  33.830   7.991
  955POPC   C4A16986  25.409  33.917   7.533
  955POPC   C1B16987  25.607  33.349   8.833
  955POPC   C2B16988  25.554  33.225   8.423
  955POPC   C3B16989  25.613  33.335   8.024
  955POPC   C4B16990  25.369  33.438   7.691
  956POPC   NC316991  28.137  34.893   9.507
  956POPC   PO416992  28.355  34.207   9.370
  956POPC   GL116993  28.203  34.539   9.154
  956POPC   GL216994  28.501  34.804   9.167
  956POPC   C1A16995  27.998  34.504   8.749
  956POPC   D2A16996  28.286  34.498   8.405
  956POPC   C3A16997  28.195  34.565   8.007
  956POPC   C4A16998  28.215  34.797   7.638
  956POPC   C1B16999  28.580  34.558   8.817
  956POPC   C2B17000  28.796  34.588   8.458
  956POPC   C3B17001  28.709  34.750   8.079
  956POPC   C4B17002  28.831  34.635   7.717
  957POPC   NC317003  11.134  29.500   9.374
  957POPC   PO417004  11.575  29.140   9.803
  957POPC   GL117005  11.565  29.259   9.264
  957POPC   GL217006  11.238  29.194   8.988
  957POPC   C1A17007  11.637  29.308   8.761
  957POPC   D2A17008  11.348  29.144   8.420
  957POPC   C3A17009  11.315  29.347   8.013
  957POPC   C4A17010  11.293  29.154   7.590
  957POPC   C1B17011  10.917  29.270   8.674
  957POPC   C2B17012  10.841  29.361   8.272
  957POPC   C3B17013  10.832  29.295   7.852
  957POPC   C4B17014  10.808  29.076   7.502
  958POPC   NC317015   2.256  19.448   9.610
  958POPC   PO417016   1.807  19.979   9.493
  958POPC   GL117017   2.095  19.796   9.141
  958POPC   GL217018   2.353  19.513   9.118
  958POPC   C1A17019   2.089  19.702   8.669
  958POPC   D2A17020   2.183  19.876   8.250
  958POPC   C3A17021   1.995  19.789   7.879
  958POPC   C4A17022   1.892  20.077   7.532
  958POPC   C1B17023   2.498  19.404   8.718
  958POPC   C2B17024   2.335  19.409   8.291
  958POPC   C3B17025   2.525  19.630   7.929
  958POPC   C4B17026   2.348  19.717   7.520
  959POPC   NC317027  14.357  27.436   9.578
  959POPC   PO417028  14.629  28.018   9.781
  959POPC   GL117029  14.609  27.743   9.303
  959POPC   GL217030  14.298  27.757   9.153
  959POPC   C1A17031  14.670  27.748   8.800
  959POPC   D2A17032  14.448  27.554   8.433
  959POPC   C3A17033  14.610  27.636   8.010
  959POPC   C4A17034  14.590  27.773   7.592
  959POPC   C1B17035  14.185  27.361   8.927
  959POPC   C2B17036  14.082  27.183   8.519
  959POPC   C3B17037  14.131  27.261   8.078
  959POPC   C4B17038  14.119  27.630   7.800
  960POPC   NC317039  41.226   6.826   9.560
  960POPC   PO417040  41.734   6.468   9.377
  960POPC   GL117041  41.712   6.847   9.152
  960POPC   GL217042  41.347   6.809   9.071
  960POPC   C1A17043  41.664   6.927   8.702
  960POPC   D2A17044  41.330   6.862   8.405
  960POPC   C3A17045  41.402   6.997   7.991
  960POPC   C4A17046  41.323   6.756   7.608
  960POPC   C1B17047  41.311   6.467   8.757
  960POPC   C2B17048  41.486   6.373   8.344
  960POPC   C3B17049  41.647   6.543   7.955
  960POPC   C4B17050  41.879   6.926   7.830
  961POPC   NC317051  40.883  11.546   9.562
  961POPC   PO417052  40.518  10.897   9.515
  961POPC   GL117053  40.774  11.189   9.193
  961POPC   GL217054  41.019  11.516   9.084
  961POPC   C1A17055  40.664  11.354   8.791
  961POPC   D2A17056  40.731  11.191   8.416
  961POPC   C3A17057  40.534  11.304   8.053
  961POPC   C4A17058  40.534  11.284   7.626
  961POPC   C1B17059  41.182  11.376   8.685
  961POPC   C2B17060  41.216  11.130   8.287
  961POPC   C3B17061  41.045  11.172   7.866
  961POPC   C4B17062  40.969  11.553   7.719
  962POPC   NC317063   4.961  43.256   9.545
  962POPC   PO417064   5.306  42.695   9.624
  962POPC   GL117065   5.034  42.759   9.235
  962POPC   GL217066   4.687  42.931   9.232
  962POPC   C1A17067   5.054  42.855   8.757
  962POPC   D2A17068   5.110  42.972   8.288
  962POPC   C3A17069   4.863  42.956   7.924
  962POPC   C4A17070   4.946  43.294   7.658
  962POPC   C1B17071   4.711  43.276   8.946
  962POPC   C2B17072   4.800  43.267   8.548
  962POPC   C3B17073   4.889  43.420   8.167
  962POPC   C4B17074   4.613  43.608   7.903
  963POPC   NC317075  21.833  11.756   9.502
  963POPC   PO417076  21.319  12.238   9.583
  963POPC   GL117077  21.312  12.130   9.167
  963POPC   GL217078  21.667  12.239   9.186
  963POPC   C1A17079  21.166  12.026   8.740
  963POPC   D2A17080  21.299  12.174   8.329
  963POPC   C3A17081  21.427  11.927   7.973
  963POPC   C4A17082  21.238  11.862   7.581
  963POPC   C1B17083  21.656  12.263   8.747
  963POPC   C2B17084  21.678  12.519   8.374
  963POPC   C3B17085  21.678  12.414   7.948
  963POPC   C4B17086  21.574  12.242   7.556
  964POPC   NC317087  30.040  42.773   9.601
  964POPC   PO417088  29.749  42.190   9.846
  964POPC   GL117089  29.777  42.373   9.394
  964POPC   GL217090  29.724  42.096   9.173
  964POPC   C1A17091  29.892  42.525   8.932
  964POPC   D2A17092  29.764  42.450   8.461
  964POPC   C3A17093  29.935  42.463   8.033
  964POPC   C4A17094  29.751  42.726   7.735
  964POPC   C1B17095  29.777  42.037   8.771
  964POPC   C2B17096  29.967  41.997   8.380
  964POPC   C3B17097  30.061  41.848   8.002
  964POPC   C4B17098  30.012  42.020   7.630
  965POPC   NC317099   8.336   0.646   9.378
  965POPC   PO417100   8.061   0.135   9.419
  965POPC   GL117101   7.993   0.378   9.059
  965POPC   GL217102   8.322   0.474   8.901
  965POPC   C1A17103   7.888   0.513   8.634
  965POPC   D2A17104   8.216   0.556   8.315
  965POPC   C3A17105   8.254   0.367   7.895
  965POPC   C4A17106   8.499   0.016   7.761
  965POPC   C1B17107   8.278   0.891   8.700
  965POPC   C2B17108   8.111   1.067   8.309
  965POPC   C3B17109   8.257   0.872   7.921
  965POPC   C4B17110   8.133   0.731   7.474
  966POPC   NC317111  17.731  11.823   9.430
  966POPC   PO417112  17.709  11.164   9.424
  966POPC   GL117113  17.457  11.122   9.057
  966POPC   GL217114  17.169  11.312   9.162
  966POPC   C1A17115  17.570  10.900   8.686
  966POPC   D2A17116  17.888  11.064   8.402
  966POPC   C3A17117  17.614  11.247   8.117
  966POPC   C4A17118  17.548  11.078   7.727
  966POPC   C1B17119  17.368  11.623   8.867
  966POPC   C2B17120  17.459  11.676   8.418
  966POPC   C3B17121  17.649  11.754   8.010
  966POPC   C4B17122  17.405  11.612   7.673
  967POPC   NC317123  10.962  15.227   9.478
  967POPC   PO417124  11.603  15.371   9.686
  967POPC   GL117125  11.469  15.342   9.254
  967POPC   GL217126  11.197  15.183   9.036
  967POPC   C1A17127  11.654  15.345   8.829
  967POPC   D2A17128  11.732  15.519   8.409
  967POPC   C3A17129  11.399  15.476   8.064
  967POPC   C4A17130  11.434  15.345   7.624
  967POPC   C1B17131  11.133  15.292   8.599
  967POPC   C2B17132  11.158  14.992   8.246
  967POPC   C3B17133  11.383  14.904   7.842
  967POPC   C4B17134  11.212  14.987   7.326
  968POPC   NC317135  10.721   0.147   9.677
  968POPC   PO417136  10.408   0.758   9.745
  968POPC   GL117137  10.646   0.614   9.342
  968POPC   GL217138  10.469   0.305   9.184
  968POPC   C1A17139  10.764   0.623   8.876
  968POPC   D2A17140  10.605   0.566   8.435
  968POPC   C3A17141  10.697   0.626   7.990
  968POPC   C4A17142  10.806   0.232   7.776
  968POPC   C1B17143  10.243   0.202   8.770
  968POPC   C2B17144  10.154   0.026   8.365
  968POPC   C3B17145  10.320   0.245   8.015
  968POPC   C4B17146  10.341   0.380   7.626
  969POPC   NC317147   1.623  33.201   9.511
  969POPC   PO417148   0.984  33.258   9.527
  969POPC   GL117149   1.189  32.896   9.236
  969POPC   GL217150   1.559  32.887   9.098
  969POPC   C1A17151   1.186  32.744   8.779
  969POPC   D2A17152   1.507  32.857   8.477
  969POPC   C3A17153   1.472  32.807   8.042
  969POPC   C4A17154   1.137  32.718   7.789
  969POPC   C1B17155   1.416  33.232   8.813
  969POPC   C2B17156   1.366  33.337   8.353
  969POPC   C3B17157   1.274  33.276   7.912
  969POPC   C4B17158   1.095  33.601   7.617
  970POPC   NC317159  14.098   3.574   9.600
  970POPC   PO417160  14.654   3.171   9.665
  970POPC   GL117161  14.616   3.450   9.243
  970POPC   GL217162  14.672   3.825   9.150
  970POPC   C1A17163  14.337   3.560   8.859
  970POPC   D2A17164  14.401   3.405   8.432
  970POPC   C3A17165  14.310   3.565   8.004
  970POPC   C4A17166  14.369   3.360   7.606
  970POPC   C1B17167  14.799   3.763   8.693
  970POPC   C2B17168  14.677   3.848   8.250
  970POPC   C3B17169  14.622   3.922   7.781
  970POPC   C4B17170  14.643   3.716   7.360
  971POPC   NC317171   9.277  40.494   9.560
  971POPC   PO417172   8.793  40.765   9.610
  971POPC   GL117173   8.858  40.579   9.217
  971POPC   GL217174   9.170  40.770   9.138
  971POPC   C1A17175   8.949  40.483   8.774
  971POPC   D2A17176   9.030  40.753   8.415
  971POPC   C3A17177   8.998  40.595   7.995
  971POPC   C4A17178   8.756  40.624   7.620
  971POPC   C1B17179   9.281  41.040   8.783
  971POPC   C2B17180   9.457  41.012   8.387
  971POPC   C3B17181   9.227  41.058   8.025
  971POPC   C4B17182   9.186  40.927   7.615
  972POPC   NC317183  23.248  31.918   9.263
  972POPC   PO417184  23.006  32.586   9.424
  972POPC   GL117185  22.956  32.323   9.121
  972POPC   GL217186  22.667  32.324   9.032
  972POPC   C1A17187  23.049  32.242   8.694
  972POPC   D2A17188  22.908  32.087   8.317
  972POPC   C3A17189  23.220  32.140   8.068
  972POPC   C4A17190  23.297  32.306   7.694
  972POPC   C1B17191  22.528  32.285   8.597
  972POPC   C2B17192  22.432  31.889   8.316
  972POPC   C3B17193  22.665  31.813   7.952
  972POPC   C4B17194  22.838  32.123   7.741
  973POPC   NC317195  18.332   5.976   9.670
  973POPC   PO417196  17.940   5.410   9.543
  973POPC   GL117197  18.015   5.771   9.285
  973POPC   GL217198  18.384   5.776   9.198
  973POPC   C1A17199  17.985   5.816   8.837
  973POPC   D2A17200  18.153   5.694   8.400
  973POPC   C3A17201  18.014   5.998   8.044
  973POPC   C4A17202  18.180   6.250   7.706
  973POPC   C1B17203  18.463   5.992   8.825
  973POPC   C2B17204  18.669   5.860   8.486
  973POPC   C3B17205  18.520   5.915   8.086
  973POPC   C4B17206  18.637   5.971   7.691
  974POPC   NC317207  30.872   0.055   9.527
  974POPC   PO417208  31.024   0.673   9.476
  974POPC   GL117209  30.705   0.545   9.177
  974POPC   GL217210  30.642   0.200   9.095
  974POPC   C1A17211  30.690   0.674   8.737
  974POPC   D2A17212  30.802   0.564   8.300
  974POPC   C3A17213  30.556   0.713   7.926
  974POPC   C4A17214  30.494   0.706   7.475
  974POPC   C1B17215  30.798   0.173   8.678
  974POPC   C2B17216  30.983   0.086   8.273
  974POPC   C3B17217  30.821   0.236   7.912
  974POPC   C4B17218  30.869   0.350   7.521
  975POPC   NC317219  21.355  41.104  10.035
  975POPC   PO417220  21.160  40.659   9.528
  975POPC   GL117221  21.300  40.799   9.100
  975POPC   GL217222  21.076  41.031   8.950
  975POPC   C1A17223  21.428  40.652   8.709
  975POPC   D2A17224  21.273  40.612   8.277
  975POPC   C3A17225  21.531  40.590   7.890
  975POPC   C4A17226  21.571  40.373   7.475
  975POPC   C1B17227  21.254  41.090   8.543
  975POPC   C2B17228  21.638  40.977   8.337
  975POPC   C3B17229  21.754  41.044   7.909
  975POPC   C4B17230  21.553  41.150   7.527
  976POPC   NC317231   2.936  32.536   9.445
  976POPC   PO417232   2.874  33.183   9.514
  976POPC   GL117233   2.894  32.963   9.164
  976POPC   GL217234   2.545  32.857   9.181
  976POPC   C1A17235   2.815  32.793   8.756
  976POPC   D2A17236   2.488  32.842   8.442
  976POPC   C3A17237   2.756  32.805   8.087
  976POPC   C4A17238   2.878  32.904   7.694
  976POPC   C1B17239   2.594  33.232   8.863
  976POPC   C2B17240   2.431  33.359   8.451
  976POPC   C3B17241   2.347  33.172   8.022
  976POPC   C4B17242   2.495  33.236   7.576
  977POPC   NC317243  32.488   2.582   9.239
  977POPC   PO417244  31.913   2.889   9.429
  977POPC   GL117245  32.034   2.794   9.032
  977POPC   GL217246  32.263   3.048   9.067
  977POPC   C1A17247  32.187   2.575   8.668
  977POPC   D2A17248  32.450   2.453   8.345
  977POPC   C3A17249  32.130   2.434   8.063
  977POPC   C4A17250  31.984   2.761   7.813
  977POPC   C1B17251  32.458   3.013   8.707
  977POPC   C2B17252  32.297   2.948   8.320
  977POPC   C3B17253  32.468   2.798   7.968
  977POPC   C4B17254  32.391   3.024   7.625
  978POPC   NC317255   3.123  18.612   9.565
  978POPC   PO417256   2.495  18.258   9.594
  978POPC   GL117257   2.708  18.173   9.184
  978POPC   GL217258   3.090  18.239   9.205
  978POPC   C1A17259   2.914  18.077   8.773
  978POPC   D2A17260   3.146  18.183   8.444
  978POPC   C3A17261   3.021  18.051   8.042
  978POPC   C4A17262   2.774  18.208   7.736
  978POPC   C1B17263   2.944  18.611   8.919
  978POPC   C2B17264   2.930  18.790   8.481
  978POPC   C3B17265   3.041  18.572   8.111
  978POPC   C4B17266   3.219  18.472   7.737
  979POPC   NC317267   8.921  37.510   9.315
  979POPC   PO417268   9.485  37.892   9.388
  979POPC   GL117269   9.219  37.799   9.006
  979POPC   GL217270   9.362  37.451   8.900
  979POPC   C1A17271   8.788  37.901   8.746
  979POPC   D2A17272   8.483  37.993   8.376
  979POPC   C3A17273   8.756  37.976   7.984
  979POPC   C4A17274   9.139  37.807   7.767
  979POPC   C1B17275   9.156  37.616   8.522
  979POPC   C2B17276   8.771  37.543   8.265
  979POPC   C3B17277   8.699  37.473   7.822
  979POPC   C4B17278   8.992  37.411   7.492
  980POPC   NC317279  31.269  17.913   9.403
  980POPC   PO417280  31.658  17.326   9.606
  980POPC   GL117281  31.522  17.414   9.207
  980POPC   GL217282  31.656  17.721   9.094
  980POPC   C1A17283  31.528  17.210   8.815
  980POPC   D2A17284  31.372  17.323   8.417
  980POPC   C3A17285  31.546  17.192   8.058
  980POPC   C4A17286  31.373  17.228   7.701
  980POPC   C1B17287  31.638  17.726   8.658
  980POPC   C2B17288  31.463  17.824   8.249
  980POPC   C3B17289  31.467  17.727   7.803
  980POPC   C4B17290  31.305  17.908   7.409
  981POPC   NC317291  16.240  12.229   9.376
  981POPC   PO417292  15.742  11.856   9.489
  981POPC   GL117293  15.895  11.982   9.110
  981POPC   GL217294  15.839  12.319   9.012
  981POPC   C1A17295  15.984  11.824   8.748
  981POPC   D2A17296  15.887  12.030   8.397
  981POPC   C3A17297  15.827  11.691   8.157
  981POPC   C4A17298  16.002  11.840   7.816
  981POPC   C1B17299  16.232  12.273   8.742
  981POPC   C2B17300  16.397  12.347   8.346
  981POPC   C3B17301  16.181  12.331   7.978
  981POPC   C4B17302  15.791  12.344   7.798
  982POPC   NC317303  21.596  12.640   9.620
  982POPC   PO417304  20.984  12.908   9.411
  982POPC   GL117305  21.332  12.659   9.190
  982POPC   GL217306  21.655  12.787   9.128
  982POPC   C1A17307  21.323  12.625   8.740
  982POPC   D2A17308  21.181  12.669   8.302
  982POPC   C3A17309  21.387  12.827   7.888
  982POPC   C4A17310  21.185  13.092   7.546
  982POPC   C1B17311  21.763  12.920   8.704
  982POPC   C2B17312  21.704  13.009   8.255
  982POPC   C3B17313  21.943  12.872   7.907
  982POPC   C4B17314  21.921  12.623   7.528
  983POPC   NC317315  23.401   0.094   9.320
  983POPC   PO417316  23.687   0.738   9.495
  983POPC   GL117317  23.477   0.567   9.136
  983POPC   GL217318  23.813   0.542   9.023
  983POPC   C1A17319  23.457   0.361   8.697
  983POPC   D2A17320  23.642   0.520   8.293
  983POPC   C3A17321  23.462   0.441   7.879
  983POPC   C4A17322  23.650   0.269   7.485
  983POPC   C1B17323  24.067   0.718   8.692
  983POPC   C2B17324  24.161   0.555   8.264
  983POPC   C3B17325  23.998   0.207   7.975
  983POPC   C4B17326  24.174   0.056   7.572
  984POPC   NC317327  11.312  29.510   9.841
  984POPC   PO417328  10.909  29.913   9.463
  984POPC   GL117329  11.201  29.969   9.123
  984POPC   GL217330  11.413  29.686   9.001
  984POPC   C1A17331  11.144  29.965   8.700
  984POPC   D2A17332  11.233  29.658   8.431
  984POPC   C3A17333  11.030  29.811   8.072
  984POPC   C4A17334  11.101  30.138   7.761
  984POPC   C1B17335  11.693  29.825   8.669
  984POPC   C2B17336  11.688  29.826   8.214
  984POPC   C3B17337  11.482  29.788   7.811
  984POPC   C4B17338  11.109  29.638   7.607
  985POPC   NC317339  30.011  14.030   9.532
  985POPC   PO417340  29.690  14.705   9.490
  985POPC   GL117341  30.038  14.544   9.196
  985POPC   GL217342  29.912  14.236   9.092
  985POPC   C1A17343  30.084  14.487   8.712
  985POPC   D2A17344  29.807  14.728   8.432
  985POPC   C3A17345  29.910  14.605   8.046
  985POPC   C4A17346  29.952  14.187   7.868
  985POPC   C1B17347  29.612  14.491   8.859
  985POPC   C2B17348  29.387  14.423   8.489
  985POPC   C3B17349  29.462  14.377   8.064
  985POPC   C4B17350  29.510  14.657   7.712
  986POPC   NC317351  38.792  15.737   9.542
  986POPC   PO417352  38.260  16.134   9.883
  986POPC   GL117353  38.139  15.943   9.431
  986POPC   GL217354  38.456  16.032   9.259
  986POPC   C1A17355  38.102  15.895   8.919
  986POPC   D2A17356  38.288  16.146   8.553
  986POPC   C3A17357  38.286  15.971   8.118
  986POPC   C4A17358  38.343  16.199   7.733
  986POPC   C1B17359  38.692  15.939   8.864
  986POPC   C2B17360  38.821  16.156   8.477
  986POPC   C3B17361  38.728  16.264   8.056
  986POPC   C4B17362  38.774  15.916   7.763
  987POPC   NC317363  10.268  13.288   9.552
  987POPC   PO417364  10.694  13.859   9.417
  987POPC   GL117365  10.630  13.709   9.042
  987POPC   GL217366  10.595  13.376   9.149
  987POPC   C1A17367  10.615  13.551   8.631
  987POPC   D2A17368  10.797  13.568   8.250
  987POPC   C3A17369  10.530  13.804   8.008
  987POPC   C4A17370  10.404  13.914   7.621
  987POPC   C1B17371  10.207  13.364   8.873
  987POPC   C2B17372  10.189  13.290   8.408
  987POPC   C3B17373  10.415  13.311   8.002
  987POPC   C4B17374  10.708  13.463   7.661
  988POPC   NC317375   5.507  44.805   9.472
  988POPC   PO417376   6.135  44.791   9.647
  988POPC   GL117377   5.945  44.793   9.210
  988POPC   GL217378   6.016  44.507   9.033
  988POPC   C1A17379   5.677  44.760   8.785
  988POPC   D2A17380   5.753  44.775   8.328
  988POPC   C3A17381   5.467  44.712   7.979
  988POPC   C4A17382   5.585  44.467   7.631
  988POPC   C1B17383   5.904  44.290   8.660
  988POPC   C2B17384   6.065  44.106   8.301
  988POPC   C3B17385   5.909  44.373   8.021
  988POPC   C4B17386   5.964  44.758   7.839
  989POPC   NC317387  44.453   6.190   9.449
  989POPC   PO417388  44.674   6.930   9.516
  989POPC   GL117389  44.779   6.818   9.084
  989POPC   GL217390  44.791   6.441   9.029
  989POPC   C1A17391  44.782   7.090   8.705
  989POPC   D2A17392  44.809   7.066   8.272
  989POPC   C3A17393  44.585   6.795   8.085
  989POPC   C4A17394  44.647   6.649   7.728
  989POPC   C1B17395  44.865   6.604   8.574
  989POPC   C2B17396   0.018   6.530   8.128
  989POPC   C3B17397   0.126   6.584   7.672
  989POPC   C4B17398  44.978   6.666   7.206
  990POPC   NC317399  22.501  39.470   9.672
  990POPC   PO417400  21.978  39.207   9.731
  990POPC   GL117401  21.972  39.281   9.242
  990POPC   GL217402  22.198  39.550   9.117
  990POPC   C1A17403  22.060  39.223   8.747
  990POPC   D2A17404  22.234  39.066   8.320
  990POPC   C3A17405  22.023  39.006   7.894
  990POPC   C4A17406  21.601  39.139   7.706
  990POPC   C1B17407  22.437  39.607   8.686
  990POPC   C2B17408  22.562  39.445   8.256
  990POPC   C3B17409  22.366  39.447   7.837
  990POPC   C4B17410  22.461  39.605   7.397
  991POPC   NC317411  44.822  29.874   9.468
  991POPC   PO417412  44.300  30.298   9.463
  991POPC   GL117413  44.447  29.964   9.097
  991POPC   GL217414  44.717  29.628   9.065
  991POPC   C1A17415  44.497  29.796   8.655
  991POPC   D2A17416  44.381  29.793   8.226
  991POPC   C3A17417  44.624  30.006   7.882
  991POPC   C4A17418  44.620  30.095   7.424
  991POPC   C1B17419  44.929  29.462   8.720
  991POPC   C2B17420  44.764  29.463   8.313
  991POPC   C3B17421  44.908  29.589   7.898
  991POPC   C4B17422  44.954  29.700   7.462
  992POPC   NC317423  27.218  20.607   9.542
  992POPC   PO417424  27.845  20.852   9.472
  992POPC   GL117425  27.838  20.542   9.126
  992POPC   GL217426  27.488  20.437   9.155
  992POPC   C1A17427  27.747  20.300   8.750
  992POPC   D2A17428  27.490  20.331   8.413
  992POPC   C3A17429  27.668  20.325   8.035
  992POPC   C4A17430  27.806  20.320   7.629
  992POPC   C1B17431  27.281  20.596   8.800
  992POPC   C2B17432  27.100  20.649   8.404
  992POPC   C3B17433  27.170  20.506   8.017
  992POPC   C4B17434  27.423  20.655   7.720
  993POPC   NC317435   2.921  21.637   9.425
  993POPC   PO417436   2.842  22.311   9.444
  993POPC   GL117437   2.801  22.011   9.086
  993POPC   GL217438   3.119  21.943   9.091
  993POPC   C1A17439   2.692  21.912   8.647
  993POPC   D2A17440   2.716  22.252   8.342
  993POPC   C3A17441   2.536  22.155   7.921
  993POPC   C4A17442   2.775  21.974   7.535
  993POPC   C1B17443   3.138  22.151   8.712
  993POPC   C2B17444   3.228  21.948   8.342
  993POPC   C3B17445   3.029  22.014   7.986
  993POPC   C4B17446   2.947  22.459   7.930
  994POPC   NC317447  10.967  28.604   9.595
  994POPC   PO417448  11.345  28.048   9.657
  994POPC   GL117449  11.181  28.105   9.197
  994POPC   GL217450  11.073  28.470   9.116
  994POPC   C1A17451  11.254  28.203   8.728
  994POPC   D2A17452  11.139  28.365   8.312
  994POPC   C3A17453  11.441  28.343   7.956
  994POPC   C4A17454  11.779  28.195   7.651
  994POPC   C1B17455  11.104  28.760   8.749
  994POPC   C2B17456  10.909  28.840   8.347
  994POPC   C3B17457  11.061  28.818   7.911
  994POPC   C4B17458  10.983  28.613   7.505
  995POPC   NC317459   6.127  37.007  10.063
  995POPC   PO417460   6.678  36.835   9.631
  995POPC   GL117461   6.540  36.720   9.165
  995POPC   GL217462   6.442  36.998   9.110
  995POPC   C1A17463   6.504  36.782   8.643
  995POPC   D2A17464   6.651  36.568   8.239
  995POPC   C3A17465   6.551  36.748   7.816
  995POPC   C4A17466   6.504  36.560   7.403
  995POPC   C1B17467   6.226  37.295   8.914
  995POPC   C2B17468   6.176  37.245   8.513
  995POPC   C3B17469   6.234  37.030   8.133
  995POPC   C4B17470   6.265  37.181   7.739
  996POPC   NC317471  15.966  44.672   9.537
  996POPC   PO417472  15.306  44.636   9.358
  996POPC   GL117473  15.101  44.909   9.044
  996POPC   GL217474  14.780   0.017   9.151
  996POPC   C1A17475  15.227  44.991   8.630
  996POPC   D2A17476  15.386  44.679   8.327
  996POPC   C3A17477  15.505  44.691   7.889
  996POPC   C4A17478  15.270  44.378   7.623
  996POPC   C1B17479  14.717  44.789   8.747
  996POPC   C2B17480  14.865  44.865   8.314
  996POPC   C3B17481  15.004  44.724   7.914
  996POPC   C4B17482  15.197  44.889   7.515
  997POPC   NC317483  34.647  28.700   9.676
  997POPC   PO417484  34.400  28.044   9.591
  997POPC   GL117485  34.669  28.282   9.246
  997POPC   GL217486  34.687  28.638   9.177
  997POPC   C1A17487  34.825  28.316   8.810
  997POPC   D2A17488  34.786  28.539   8.431
  997POPC   C3A17489  34.598  28.373   8.097
  997POPC   C4A17490  34.516  28.203   7.721
  997POPC   C1B17491  34.565  28.819   8.790
  997POPC   C2B17492  34.657  29.047   8.412
  997POPC   C3B17493  34.825  28.896   8.022
  997POPC   C4B17494  34.869  28.586   7.704
  998POPC   NC317495  41.129  16.127   9.426
  998POPC   PO417496  40.478  16.203   9.476
  998POPC   GL117497  40.445  16.024   9.073
  998POPC   GL217498  40.750  15.875   9.139
  998POPC   C1A17499  40.545  15.778   8.686
  998POPC   D2A17500  40.908  15.615   8.427
  998POPC   C3A17501  40.818  15.765   8.024
  998POPC   C4A17502  40.620  16.156   7.938
  998POPC   C1B17503  41.006  16.008   8.790
  998POPC   C2B17504  40.924  16.178   8.392
  998POPC   C3B17505  41.140  16.250   8.016
  998POPC   C4B17506  41.031  16.049   7.648
  999POPC   NC317507  20.944  25.989   9.694
  999POPC   PO417508  20.361  25.716   9.736
  999POPC   GL117509  20.484  25.958   9.342
  999POPC   GL217510  20.258  26.227   9.261
  999POPC   C1A17511  20.616  26.100   8.904
  999POPC   D2A17512  20.684  26.290   8.484
  999POPC   C3A17513  20.563  26.312   8.053
  999POPC   C4A17514  20.790  26.013   7.821
  999POPC   C1B17515  20.122  26.006   8.877
  999POPC   C2B17516  20.277  25.806   8.534
  999POPC   C3B17517  20.361  25.826   8.094
  999POPC   C4B17518  20.284  26.014   7.717
 1000POPC   NC317519  37.910  15.474   9.661
 1000POPC   PO417520  38.539  15.323   9.473
 1000POPC   GL117521  38.419  15.137   9.131
 1000POPC   GL217522  38.698  15.174   8.939
 1000POPC   C1A17523  38.245  15.236   8.731
 1000POPC   D2A17524  38.151  15.018   8.348
 1000POPC   C3A17525  38.389  15.230   8.041
 1000POPC   C4A17526  38.353  15.591   7.735
 1000POPC   C1B17527  38.717  15.458   8.586
 1000POPC   C2B17528  38.746  15.598   8.147
 1000POPC   C3B17529  38.798  15.323   7.750
 1000POPC   C4B17530  38.564  14.938   7.641
 1001POPC   NC317531   2.502  41.828   9.244
 1001POPC   PO417532   3.004  42.162   9.478
 1001POPC   GL117533   2.872  42.405   9.080
 1001POPC   GL217534   2.773  42.127   8.967
 1001POPC   C1A17535   2.720  42.488   8.625
 1001POPC   D2A17536   2.770  42.693   8.229
 1001POPC   C3A17537   2.934  42.515   7.829
 1001POPC   C4A17538   2.662  42.632   7.441
 1001POPC   C1B17539   2.631  41.972   8.597
 1001POPC   C2B17540   2.452  42.056   8.202
 1001POPC   C3B17541   2.668  42.027   7.829
 1001POPC   C4B17542   2.862  42.177   7.444
 1002POPC   NC317543  38.043   6.937   9.343
 1002POPC   PO417544  37.391   6.787   9.430
 1002POPC   GL117545  37.696   6.586   9.108
 1002POPC   GL217546  37.804   6.179   9.149
 1002POPC   C1A17547  37.775   6.845   8.739
 1002POPC   D2A17548  37.866   7.044   8.338
 1002POPC   C3A17549  37.646   6.943   7.981
 1002POPC   C4A17550  37.583   6.524   7.902
 1002POPC   C1B17551  37.964   6.299   8.756
 1002POPC   C2B17552  37.922   6.527   8.379
 1002POPC   C3B17553  38.069   6.459   8.021
 1002POPC   C4B17554  37.887   6.130   7.766
 1003POPC   NC317555  11.873  13.123   9.382
 1003POPC   PO417556  12.448  12.680   9.543
 1003POPC   GL117557  12.404  12.856   9.147
 1003POPC   GL217558  12.079  12.684   9.141
 1003POPC   C1A17559  12.204  13.064   8.788
 1003POPC   D2A17560  11.973  13.084   8.392
 1003POPC   C3A17561  12.087  13.032   7.963
 1003POPC   C4A17562  11.819  13.003   7.586
 1003POPC   C1B17563  12.261  12.570   8.738
 1003POPC   C2B17564  12.426  12.780   8.370
 1003POPC   C3B17565  12.325  12.590   7.978
 1003POPC   C4B17566  12.120  12.421   7.623
 1004POPC   NC317567  30.870  28.408   9.673
 1004POPC   PO417568  31.230  27.849   9.501
 1004POPC   GL117569  30.991  28.155   9.259
 1004POPC   GL217570  30.634  28.248   9.172
 1004POPC   C1A17571  30.990  28.276   8.833
 1004POPC   D2A17572  30.854  28.356   8.423
 1004POPC   C3A17573  31.102  28.361   8.069
 1004POPC   C4A17574  31.024  28.438   7.643
 1004POPC   C1B17575  30.587  28.591   8.814
 1004POPC   C2B17576  30.445  28.669   8.364
 1004POPC   C3B17577  30.608  28.641   7.939
 1004POPC   C4B17578  30.590  28.631   7.481
 1005POPC   NC317579  35.121  27.188   9.514
 1005POPC   PO417580  35.368  27.801   9.521
 1005POPC   GL117581  35.429  27.612   9.153
 1005POPC   GL217582  35.681  27.847   9.082
 1005POPC   C1A17583  35.216  27.463   8.789
 1005POPC   D2A17584  35.028  27.636   8.415
 1005POPC   C3A17585  35.213  27.523   8.047
 1005POPC   C4A17586  35.177  27.686   7.668
 1005POPC   C1B17587  35.677  27.653   8.694
 1005POPC   C2B17588  35.552  27.826   8.321
 1005POPC   C3B17589  35.651  27.766   7.908
 1005POPC   C4B17590  35.585  27.406   7.642
 1006POPC   NC317591   9.791  18.578   9.382
 1006POPC   PO417592  10.250  19.140   9.406
 1006POPC   GL117593  10.327  19.087   9.012
 1006POPC   GL217594  10.672  18.978   9.039
 1006POPC   C1A17595  10.483  19.129   8.610
 1006POPC   D2A17596  10.542  18.969   8.221
 1006POPC   C3A17597  10.236  19.054   7.926
 1006POPC   C4A17598  10.316  19.218   7.532
 1006POPC   C1B17599  10.751  18.624   8.755
 1006POPC   C2B17600  10.824  18.527   8.319
 1006POPC   C3B17601  10.834  18.718   7.901
 1006POPC   C4B17602  10.536  18.754   7.646
 1007POPC   NC317603  12.874  29.504   9.254
 1007POPC   PO417604  13.119  28.942   9.564
 1007POPC   GL117605  13.119  29.028   9.125
 1007POPC   GL217606  12.786  29.047   9.025
 1007POPC   C1A17607  13.150  29.271   8.719
 1007POPC   D2A17608  13.238  29.377   8.313
 1007POPC   C3A17609  12.968  29.165   8.025
 1007POPC   C4A17610  12.971  29.141   7.570
 1007POPC   C1B17611  12.635  29.339   8.675
 1007POPC   C2B17612  12.556  29.372   8.237
 1007POPC   C3B17613  12.598  29.402   7.775
 1007POPC   C4B17614  12.688  29.492   7.300
 1008POPC   NC317615  12.383  44.231   9.270
 1008POPC   PO417616  12.891  44.008   9.735
 1008POPC   GL117617  12.746  43.874   9.300
 1008POPC   GL217618  12.412  43.716   9.340
 1008POPC   C1A17619  12.784  43.913   8.811
 1008POPC   D2A17620  12.964  43.679   8.440
 1008POPC   C3A17621  13.148  43.913   8.115
 1008POPC   C4A17622  12.922  44.172   7.828
 1008POPC   C1B17623  12.477  43.506   8.947
 1008POPC   C2B17624  12.505  43.480   8.494
 1008POPC   C3B17625  12.435  43.631   8.071
 1008POPC   C4B17626  12.699  43.704   7.716
 1009POPC   NC317627   2.235   5.076   9.790
 1009POPC   PO417628   2.869   4.889   9.537
 1009POPC   GL117629   2.875   4.985   9.114
 1009POPC   GL217630   2.634   5.217   9.021
 1009POPC   C1A17631   2.772   4.829   8.713
 1009POPC   D2A17632   2.710   4.989   8.299
 1009POPC   C3A17633   3.061   5.161   8.087
 1009POPC   C4A17634   2.983   5.066   7.632
 1009POPC   C1B17635   2.440   5.546   8.779
 1009POPC   C2B17636   2.275   5.610   8.391
 1009POPC   C3B17637   2.340   5.312   8.108
 1009POPC   C4B17638   2.664   5.379   7.829
 1010POPC   NC317639  23.440  17.719   9.451
 1010POPC   PO417640  23.179  17.122   9.501
 1010POPC   GL117641  23.467  17.299   9.134
 1010POPC   GL217642  23.847  17.324   9.183
 1010POPC   C1A17643  23.640  17.588   8.789
 1010POPC   D2A17644  23.875  17.636   8.385
 1010POPC   C3A17645  23.638  17.665   7.980
 1010POPC   C4A17646  23.376  17.333   7.796
 1010POPC   C1B17647  24.138  17.431   8.815
 1010POPC   C2B17648  24.195  17.222   8.401
 1010POPC   C3B17649  24.050  17.350   7.993
 1010POPC   C4B17650  23.831  17.420   7.549
 1011POPC   NC317651  26.726   3.053   9.477
 1011POPC   PO417652  27.106   2.479   9.371
 1011POPC   GL117653  26.836   2.679   9.098
 1011POPC   GL217654  26.871   3.025   8.989
 1011POPC   C1A17655  26.585   2.624   8.742
 1011POPC   D2A17656  26.413   2.535   8.350
 1011POPC   C3A17657  26.596   2.684   7.983
 1011POPC   C4A17658  26.730   2.551   7.603
 1011POPC   C1B17659  27.144   3.258   8.690
 1011POPC   C2B17660  27.201   3.280   8.239
 1011POPC   C3B17661  27.011   3.024   7.921
 1011POPC   C4B17662  26.710   3.082   7.645
 1012POPC   NC317663   9.509   2.434   9.366
 1012POPC   PO417664   9.369   3.125   9.467
 1012POPC   GL117665   9.731   2.888   9.246
 1012POPC   GL217666  10.081   2.974   9.158
 1012POPC   C1A17667   9.845   2.705   8.807
 1012POPC   D2A17668   9.762   2.539   8.393
 1012POPC   C3A17669   9.509   2.669   8.106
 1012POPC   C4A17670   9.451   2.520   7.705
 1012POPC   C1B17671  10.103   3.184   8.764
 1012POPC   C2B17672  10.145   3.001   8.363
 1012POPC   C3B17673  10.021   2.773   7.996
 1012POPC   C4B17674  10.062   3.118   7.713
 1013POPC   NC317675   4.267  43.665   9.560
 1013POPC   PO417676   4.681  44.188   9.544
 1013POPC   GL117677   4.433  44.029   9.226
 1013POPC   GL217678   4.087  44.107   9.325
 1013POPC   C1A17679   4.390  43.715   8.904
 1013POPC   D2A17680   4.454  43.616   8.458
 1013POPC   C3A17681   4.123  43.595   8.161
 1013POPC   C4A17682   4.160  43.654   7.712
 1013POPC   C1B17683   4.041  44.109   8.901
 1013POPC   C2B17684   4.301  44.099   8.550
 1013POPC   C3B17685   4.369  44.028   8.134
 1013POPC   C4B17686   4.223  44.157   7.749
 1014POPC   NC317687  37.293  27.310   9.627
 1014POPC   PO417688  37.465  28.014   9.628
 1014POPC   GL117689  37.507  27.715   9.262
 1014POPC   GL217690  37.447  27.384   9.157
 1014POPC   C1A17691  37.624  27.757   8.827
 1014POPC   D2A17692  37.454  27.707   8.415
 1014POPC   C3A17693  37.807  27.773   8.132
 1014POPC   C4A17694  37.612  27.716   7.818
 1014POPC   C1B17695  37.655  27.242   8.793
 1014POPC   C2B17696  37.855  27.364   8.430
 1014POPC   C3B17697  37.882  27.213   8.003
 1014POPC   C4B17698  37.675  27.267   7.631
 1015POPC   NC317699  14.610  41.036   9.937
 1015POPC   PO417700  14.176  41.302   9.654
 1015POPC   GL117701  14.260  41.344   9.188
 1015POPC   GL217702  14.561  41.139   9.130
 1015POPC   C1A17703  14.403  41.514   8.754
 1015POPC   D2A17704  14.499  41.816   8.394
 1015POPC   C3A17705  14.393  41.696   7.953
 1015POPC   C4A17706  14.201  41.348   7.686
 1015POPC   C1B17707  14.837  41.243   8.753
 1015POPC   C2B17708  14.858  41.460   8.346
 1015POPC   C3B17709  14.770  41.358   7.916
 1015POPC   C4B17710  14.724  41.381   7.490
 1016POPC   NC317711  13.579  17.260   9.450
 1016POPC   PO417712  14.024  16.756   9.629
 1016POPC   GL117713  13.868  16.826   9.120
 1016POPC   GL217714  13.567  16.985   8.997
 1016POPC   C1A17715  13.828  16.519   8.737
 1016POPC   D2A17716  13.884  16.322   8.321
 1016POPC   C3A17717  13.634  16.562   8.058
 1016POPC   C4A17718  13.269  16.568   7.793
 1016POPC   C1B17719  13.586  16.922   8.537
 1016POPC   C2B17720  13.753  17.255   8.276
 1016POPC   C3B17721  13.987  17.112   7.915
 1016POPC   C4B17722  13.724  16.845   7.635
 1017POPC   NC317723   9.351  43.396   9.327
 1017POPC   PO417724   8.833  43.348   9.703
 1017POPC   GL117725   8.873  43.209   9.208
 1017POPC   GL217726   8.774  42.852   9.158
 1017POPC   C1A17727   9.134  43.194   8.746
 1017POPC   D2A17728   9.245  43.388   8.310
 1017POPC   C3A17729   9.088  43.209   7.899
 1017POPC   C4A17730   9.190  43.324   7.459
 1017POPC   C1B17731   8.670  42.986   8.745
 1017POPC   C2B17732   8.790  43.055   8.323
 1017POPC   C3B17733   8.745  42.766   7.974
 1017POPC   C4B17734   8.882  42.801   7.569
 1018POPC   NC317735  19.671   8.554   9.444
 1018POPC   PO417736  19.720   7.936   9.414
 1018POPC   GL117737  19.937   8.200   9.120
 1018POPC   GL217738  20.166   8.442   9.318
 1018POPC   C1A17739  19.840   8.302   8.674
 1018POPC   D2A17740  19.641   8.116   8.327
 1018POPC   C3A17741  19.901   8.122   7.992
 1018POPC   C4A17742  19.703   8.006   7.626
 1018POPC   C1B17743  20.273   8.536   8.910
 1018POPC   C2B17744  20.270   8.573   8.483
 1018POPC   C3B17745  20.304   8.738   8.072
 1018POPC   C4B17746  20.199   8.567   7.685
 1019POPC   NC317747  32.897  16.964   9.780
 1019POPC   PO417748  33.318  16.585   9.401
 1019POPC   GL117749  33.347  16.729   8.960
 1019POPC   GL217750  33.329  17.074   8.943
 1019POPC   C1A17751  33.062  16.526   8.632
 1019POPC   D2A17752  32.720  16.677   8.386
 1019POPC   C3A17753  32.894  16.676   7.957
 1019POPC   C4A17754  33.242  16.409   7.770
 1019POPC   C1B17755  33.002  17.031   8.659
 1019POPC   C2B17756  33.124  17.024   8.287
 1019POPC   C3B17757  33.452  17.170   8.072
 1019POPC   C4B17758  33.271  16.964   7.752
 1020POPC   NC317759   4.104  38.886   9.584
 1020POPC   PO417760   4.371  38.164   9.612
 1020POPC   GL117761   4.409  38.295   9.202
 1020POPC   GL217762   4.182  38.566   9.181
 1020POPC   C1A17763   4.354  38.247   8.774
 1020POPC   D2A17764   4.179  38.207   8.358
 1020POPC   C3A17765   4.382  38.391   8.020
 1020POPC   C4A17766   4.706  38.165   7.918
 1020POPC   C1B17767   4.157  38.826   8.802
 1020POPC   C2B17768   4.206  38.724   8.360
 1020POPC   C3B17769   4.149  38.826   7.907
 1020POPC   C4B17770   4.502  38.803   7.645
 1021POPC   NC317771  43.437   3.608   9.633
 1021POPC   PO417772  42.790   3.382   9.441
 1021POPC   GL117773  43.132   3.548   9.160
 1021POPC   GL217774  43.466   3.375   9.077
 1021POPC   C1A17775  43.111   3.596   8.709
 1021POPC   D2A17776  42.855   3.793   8.393
 1021POPC   C3A17777  42.872   3.519   8.063
 1021POPC   C4A17778  43.005   3.619   7.683
 1021POPC   C1B17779  43.609   3.486   8.636
 1021POPC   C2B17780  43.397   3.639   8.248
 1021POPC   C3B17781  43.508   3.658   7.815
 1021POPC   C4B17782  43.427   3.382   7.445
 1022POPC   NC317783  13.260  37.842   9.472
 1022POPC   PO417784  13.337  37.178   9.535
 1022POPC   GL117785  13.471  37.442   9.156
 1022POPC   GL217786  13.688  37.765   9.199
 1022POPC   C1A17787  13.434  37.694   8.748
 1022POPC   D2A17788  13.383  37.838   8.309
 1022POPC   C3A17789  13.590  37.546   8.083
 1022POPC   C4A17790  13.578  37.427   7.698
 1022POPC   C1B17791  13.897  37.909   8.820
 1022POPC   C2B17792  13.883  37.809   8.417
 1022POPC   C3B17793  13.858  37.994   8.012
 1022POPC   C4B17794  13.702  37.912   7.585
 1023POPC   NC317795   7.907  26.063   9.534
 1023POPC   PO417796   8.446  26.160   9.706
 1023POPC   GL117797   8.351  26.122   9.232
 1023POPC   GL217798   8.137  25.843   9.103
 1023POPC   C1A17799   8.287  26.186   8.754
 1023POPC   D2A17800   8.291  25.941   8.347
 1023POPC   C3A17801   8.305  26.100   7.911
 1023POPC   C4A17802   8.220  25.855   7.532
 1023POPC   C1B17803   7.901  25.840   8.674
 1023POPC   C2B17804   7.792  25.889   8.198
 1023POPC   C3B17805   7.798  26.052   7.760
 1023POPC   C4B17806   7.668  26.293   7.384
 1024POPC   NC317807  25.594  27.708   9.493
 1024POPC   PO417808  26.258  27.873   9.468
 1024POPC   GL117809  26.026  27.621   9.183
 1024POPC   GL217810  26.124  27.806   8.932
 1024POPC   C1A17811  25.918  27.375   8.785
 1024POPC   D2A17812  26.085  27.404   8.357
 1024POPC   C3A17813  25.819  27.377   7.988
 1024POPC   C4A17814  25.955  27.559   7.616
 1024POPC   C1B17815  25.719  27.873   8.781
 1024POPC   C2B17816  25.690  27.741   8.366
 1024POPC   C3B17817  26.008  27.853   8.062
 1024POPC   C4B17818  25.771  28.006   7.736
 1025POPC   NC317819   5.635  18.673   9.411
 1025POPC   PO417820   5.858  19.276   9.629
 1025POPC   GL117821   5.857  19.101   9.198
 1025POPC   GL217822   6.088  18.801   9.195
 1025POPC   C1A17823   5.812  19.109   8.736
 1025POPC   D2A17824   5.839  19.243   8.304
 1025POPC   C3A17825   5.595  19.122   7.934
 1025POPC   C4A17826   5.821  19.071   7.522
 1025POPC   C1B17827   5.949  18.635   8.804
 1025POPC   C2B17828   6.088  18.797   8.418
 1025POPC   C3B17829   5.969  18.768   7.994
 1025POPC   C4B17830   6.046  18.473   7.667
 1026POPC   NC317831   8.914   2.916   9.486
 1026POPC   PO417832   8.777   2.343   9.273
 1026POPC   GL117833   9.091   2.616   9.097
 1026POPC   GL217834   8.834   2.796   8.929
 1026POPC   C1A17835   9.311   2.739   8.696
 1026POPC   D2A17836   9.154   2.977   8.325
 1026POPC   C3A17837   9.064   2.829   7.909
 1026POPC   C4A17838   9.092   2.781   7.466
 1026POPC   C1B17839   8.942   2.389   8.654
 1026POPC   C2B17840   9.056   2.408   8.218
 1026POPC   C3B17841   8.842   2.384   7.828
 1026POPC   C4B17842   8.618   2.360   7.433
 1027POPC   NC317843   0.713  32.064   9.463
 1027POPC   PO417844   0.356  32.508   9.738
 1027POPC   GL117845   0.320  32.427   9.245
 1027POPC   GL217846   0.362  32.070   9.111
 1027POPC   C1A17847   0.161  32.376   8.778
 1027POPC   D2A17848   0.207  32.090   8.398
 1027POPC   C3A17849   0.034  32.227   7.990
 1027POPC   C4A17850   0.046  32.157   7.544
 1027POPC   C1B17851   0.617  32.135   8.729
 1027POPC   C2B17852   0.706  32.032   8.286
 1027POPC   C3B17853   0.516  32.135   7.867
 1027POPC   C4B17854   0.505  31.967   7.430
 1028POPC   NC317855  28.160   8.085   9.455
 1028POPC   PO417856  28.777   8.137   9.473
 1028POPC   GL117857  28.713   8.063   9.077
 1028POPC   GL217858  28.475   7.809   9.131
 1028POPC   C1A17859  28.433   8.195   8.773
 1028POPC   D2A17860  28.297   8.086   8.388
 1028POPC   C3A17861  28.585   8.036   8.059
 1028POPC   C4A17862  28.425   8.290   7.728
 1028POPC   C1B17863  28.165   7.722   8.782
 1028POPC   C2B17864  27.987   7.686   8.350
 1028POPC   C3B17865  28.141   7.824   7.959
 1028POPC   C4B17866  28.080   7.976   7.533
 1029POPC   NC317867  37.348  18.699   9.465
 1029POPC   PO417868  36.829  18.257   9.554
 1029POPC   GL117869  36.997  18.343   9.165
 1029POPC   GL217870  37.050  18.643   9.068
 1029POPC   C1A17871  37.131  18.269   8.713
 1029POPC   D2A17872  37.271  18.136   8.281
 1029POPC   C3A17873  37.162  18.449   7.966
 1029POPC   C4A17874  36.866  18.190   7.714
 1029POPC   C1B17875  36.708  18.614   8.772
 1029POPC   C2B17876  36.792  18.503   8.344
 1029POPC   C3B17877  36.674  18.634   7.912
 1029POPC   C4B17878  36.472  18.504   7.524
 1030POPC   NC317879  26.980   3.798   9.498
 1030POPC   PO417880  26.383   3.420   9.488
 1030POPC   GL117881  26.600   3.597   9.178
 1030POPC   GL217882  26.917   3.527   9.077
 1030POPC   C1A17883  26.554   3.449   8.758
 1030POPC   D2A17884  26.624   3.667   8.386
 1030POPC   C3A17885  26.617   3.450   8.012
 1030POPC   C4A17886  26.650   3.628   7.622
 1030POPC   C1B17887  27.026   3.756   8.697
 1030POPC   C2B17888  27.114   3.799   8.235
 1030POPC   C3B17889  27.127   3.587   7.816
 1030POPC   C4B17890  27.159   3.689   7.352
 1031POPC   NC317891  12.483  44.273   9.774
 1031POPC   PO417892  11.940  43.941   9.433
 1031POPC   GL117893  11.997  43.821   9.021
 1031POPC   GL217894  11.718  43.587   9.069
 1031POPC   C1A17895  12.288  43.924   8.647
 1031POPC   D2A17896  12.634  44.074   8.328
 1031POPC   C3A17897  12.428  44.123   7.932
 1031POPC   C4A17898  12.182  43.857   7.675
 1031POPC   C1B17899  11.842  43.431   8.706
 1031POPC   C2B17900  12.026  43.554   8.353
 1031POPC   C3B17901  11.907  43.479   7.938
 1031POPC   C4B17902  11.580  43.705   7.757
 1032POPC   NC317903  21.581  32.388   9.530
 1032POPC   PO417904  21.563  31.764   9.452
 1032POPC   GL117905  21.458  32.078   9.119
 1032POPC   GL217906  21.732  32.285   9.065
 1032POPC   C1A17907  21.195  32.093   8.745
 1032POPC   D2A17908  20.977  31.863   8.415
 1032POPC   C3A17909  21.057  32.065   8.031
 1032POPC   C4A17910  21.203  32.430   7.823
 1032POPC   C1B17911  21.691  32.176   8.659
 1032POPC   C2B17912  21.433  32.357   8.322
 1032POPC   C3B17913  21.658  32.239   7.958
 1032POPC   C4B17914  21.773  32.326   7.530
 1033POPC   NC317915  33.258  18.805   9.401
 1033POPC   PO417916  32.838  19.363   9.427
 1033POPC   GL117917  32.913  19.131   9.093
 1033POPC   GL217918  32.733  18.867   9.162
 1033POPC   C1A17919  33.122  18.918   8.751
 1033POPC   D2A17920  33.292  19.019   8.357
 1033POPC   C3A17921  33.078  18.879   7.992
 1033POPC   C4A17922  32.860  19.177   7.754
 1033POPC   C1B17923  32.603  18.876   8.753
 1033POPC   C2B17924  32.679  18.904   8.321
 1033POPC   C3B17925  32.606  18.729   7.908
 1033POPC   C4B17926  32.709  18.761   7.501
 1034POPC   NC317927   0.043  25.112   9.623
 1034POPC   PO417928  44.445  25.478   9.372
 1034POPC   GL117929  44.420  25.197   9.026
 1034POPC   GL217930  44.757  25.119   9.144
 1034POPC   C1A17931  44.639  24.950   8.664
 1034POPC   D2A17932  44.937  24.874   8.345
 1034POPC   C3A17933  44.851  25.047   7.916
 1034POPC   C4A17934  44.433  25.151   7.758
 1034POPC   C1B17935  44.744  25.444   8.749
 1034POPC   C2B17936  44.385  25.466   8.494
 1034POPC   C3B17937  44.615  25.488   8.111
 1034POPC   C4B17938  44.721  25.569   7.685
 1035POPC   NC317939  43.148  25.393   9.435
 1035POPC   PO417940  43.087  24.646   9.499
 1035POPC   GL117941  43.059  24.980   9.152
 1035POPC   GL217942  43.392  25.160   9.059
 1035POPC   C1A17943  43.005  25.174   8.732
 1035POPC   D2A17944  43.148  24.994   8.342
 1035POPC   C3A17945  42.912  25.190   8.039
 1035POPC   C4A17946  42.813  25.180   7.624
 1035POPC   C1B17947  43.365  25.552   8.786
 1035POPC   C2B17948  43.274  25.495   8.353
 1035POPC   C3B17949  43.426  25.274   7.951
 1035POPC   C4B17950  43.243  24.932   7.707
 1036POPC   NC317951  14.638   2.825   9.986
 1036POPC   PO417952  14.206   2.674   9.452
 1036POPC   GL117953  14.285   2.727   9.061
 1036POPC   GL217954  14.240   3.099   9.131
 1036POPC   C1A17955  14.163   2.466   8.705
 1036POPC   D2A17956  14.049   2.385   8.261
 1036POPC   C3A17957  14.346   2.565   7.957
 1036POPC   C4A17958  14.454   2.478   7.490
 1036POPC   C1B17959  14.558   3.087   8.817
 1036POPC   C2B17960  14.617   2.914   8.424
 1036POPC   C3B17961  14.442   3.063   8.043
 1036POPC   C4B17962  14.596   2.915   7.675
 1037POPC   NC317963  18.698  13.003   9.464
 1037POPC   PO417964  18.074  13.031   9.425
 1037POPC   GL117965  18.080  12.892   9.028
 1037POPC   GL217966  18.404  12.826   9.082
 1037POPC   C1A17967  17.955  13.069   8.654
 1037POPC   D2A17968  17.875  13.148   8.204
 1037POPC   C3A17969  18.220  13.244   7.920
 1037POPC   C4A17970  18.171  13.367   7.472
 1037POPC   C1B17971  18.497  12.674   8.704
 1037POPC   C2B17972  18.266  12.786   8.358
 1037POPC   C3B17973  18.137  12.739   7.947
 1037POPC   C4B17974  18.370  12.906   7.578
 1038POPC   NC317975  34.577   6.920   9.394
 1038POPC   PO417976  34.267   6.327   9.268
 1038POPC   GL117977  34.637   6.490   9.069
 1038POPC   GL217978  34.491   6.349   8.785
 1038POPC   C1A17979  34.935   6.579   8.723
 1038POPC   D2A17980  35.089   6.379   8.361
 1038POPC   C3A17981  34.785   6.465   8.043
 1038POPC   C4A17982  34.553   6.236   7.713
 1038POPC   C1B17983  34.488   6.812   8.666
 1038POPC   C2B17984  34.180   7.051   8.428
 1038POPC   C3B17985  34.069   7.122   7.991
 1038POPC   C4B17986  34.171   7.019   7.524
 1039POPC   NC317987  22.011   6.711   9.813
 1039POPC   PO417988  22.287   6.368   9.298
 1039POPC   GL117989  22.136   6.588   9.006
 1039POPC   GL217990  21.851   6.657   9.179
 1039POPC   C1A17991  22.175   6.591   8.574
 1039POPC   D2A17992  22.272   6.894   8.250
 1039POPC   C3A17993  22.338   6.689   7.902
 1039POPC   C4A17994  22.182   6.283   8.006
 1039POPC   C1B17995  21.842   6.962   8.823
 1039POPC   C2B17996  21.776   6.854   8.384
 1039POPC   C3B17997  21.839   6.778   7.975
 1039POPC   C4B17998  21.971   7.145   7.810
 1040POPC   NC317999  12.915  37.339   9.698
 1040POPC   PO418000  12.869  37.998   9.661
 1040POPC   GL118001  12.789  37.720   9.310
 1040POPC   GL218002  12.525  37.476   9.406
 1040POPC   C1A18003  12.935  37.724   8.890
 1040POPC   D2A18004  12.703  37.903   8.566
 1040POPC   C3A18005  12.880  37.895   8.168
 1040POPC   C4A18006  13.129  37.643   7.890
 1040POPC   C1B18007  12.573  37.386   8.980
 1040POPC   C2B18008  12.703  37.392   8.563
 1040POPC   C3B18009  12.730  37.389   8.137
 1040POPC   C4B18010  12.766  37.252   7.755
 1041POPC   NC318011   7.072  11.009   9.444
 1041POPC   PO418012   6.419  11.142   9.646
 1041POPC   GL118013   6.542  11.299   9.253
 1041POPC   GL218014   6.373  11.616   9.146
 1041POPC   C1A18015   6.627  11.283   8.818
 1041POPC   D2A18016   6.791  11.419   8.414
 1041POPC   C3A18017   6.605  11.239   8.036
 1041POPC   C4A18018   6.222  11.120   7.770
 1041POPC   C1B18019   6.333  11.686   8.677
 1041POPC   C2B18020   6.284  11.645   8.200
 1041POPC   C3B18021   6.538  11.701   7.837
 1041POPC   C4B18022   6.972  11.564   7.780
 1042POPC   NC318023  36.873  16.182   9.623
 1042POPC   PO418024  37.001  15.552   9.555
 1042POPC   GL118025  37.064  15.780   9.163
 1042POPC   GL218026  36.821  16.025   9.144
 1042POPC   C1A18027  37.046  15.841   8.711
 1042POPC   D2A18028  36.883  15.876   8.283
 1042POPC   C3A18029  37.111  15.825   7.861
 1042POPC   C4A18030  37.045  15.599   7.424
 1042POPC   C1B18031  36.696  16.271   8.810
 1042POPC   C2B18032  36.769  16.383   8.390
 1042POPC   C3B18033  36.767  16.238   7.973
 1042POPC   C4B18034  36.964  16.241   7.597
 1043POPC   NC318035  34.766   3.125   9.481
 1043POPC   PO418036  34.438   2.523   9.509
 1043POPC   GL118037  34.505   2.815   9.172
 1043POPC   GL218038  34.880   2.778   9.122
 1043POPC   C1A18039  34.569   3.116   8.838
 1043POPC   D2A18040  34.730   3.061   8.415
 1043POPC   C3A18041  34.482   2.768   8.157
 1043POPC   C4A18042  34.349   2.840   7.722
 1043POPC   C1B18043  34.760   2.639   8.714
 1043POPC   C2B18044  34.958   2.575   8.322
 1043POPC   C3B18045  34.920   2.728   7.906
 1043POPC   C4B18046  34.990   2.703   7.483
 1044POPC   NC318047  40.235  19.528   9.487
 1044POPC   PO418048  39.990  20.083   9.502
 1044POPC   GL118049  40.227  19.945   9.149
 1044POPC   GL218050  40.203  20.137   8.844
 1044POPC   C1A18051  40.109  19.660   8.788
 1044POPC   D2A18052  40.151  19.902   8.382
 1044POPC   C3A18053  40.125  19.668   8.003
 1044POPC   C4A18054  39.817  19.570   7.742
 1044POPC   C1B18055  39.749  20.004   8.713
 1044POPC   C2B18056  39.655  19.822   8.318
 1044POPC   C3B18057  39.737  20.029   7.939
 1044POPC   C4B18058  39.591  19.977   7.494
 1045POPC   NC318059  12.702   9.650   9.520
 1045POPC   PO418060  13.087  10.174   9.319
 1045POPC   GL118061  12.884   9.844   9.098
 1045POPC   GL218062  13.071   9.506   9.171
 1045POPC   C1A18063  12.565   9.755   8.778
 1045POPC   D2A18064  12.409   9.954   8.387
 1045POPC   C3A18065  12.705   9.930   8.059
 1045POPC   C4A18066  12.744   9.945   7.627
 1045POPC   C1B18067  13.137   9.649   8.719
 1045POPC   C2B18068  12.861   9.533   8.390
 1045POPC   C3B18069  12.857   9.421   7.982
 1045POPC   C4B18070  13.052   9.543   7.641
 1046POPC   NC318071  42.740  16.283   9.798
 1046POPC   PO418072  43.316  15.975   9.673
 1046POPC   GL118073  43.045  15.942   9.275
 1046POPC   GL218074  42.817  16.229   9.205
 1046POPC   C1A18075  43.138  16.057   8.818
 1046POPC   D2A18076  43.321  16.128   8.399
 1046POPC   C3A18077  43.178  16.159   7.969
 1046POPC   C4A18078  43.404  16.299   7.581
 1046POPC   C1B18079  42.673  15.896   8.865
 1046POPC   C2B18080  42.860  15.847   8.404
 1046POPC   C3B18081  42.859  15.762   7.907
 1046POPC   C4B18082  42.750  15.752   7.450
 1047POPC   NC318083  29.862  28.573   9.611
 1047POPC   PO418084  30.437  28.455   9.577
 1047POPC   GL118085  30.183  28.557   9.175
 1047POPC   GL218086  29.804  28.647   9.117
 1047POPC   C1A18087  30.139  28.359   8.756
 1047POPC   D2A18088  29.927  28.322   8.353
 1047POPC   C3A18089  30.135  28.439   7.963
 1047POPC   C4A18090  30.077  28.558   7.520
 1047POPC   C1B18091  29.615  28.420   8.772
 1047POPC   C2B18092  29.452  28.540   8.342
 1047POPC   C3B18093  29.619  28.575   7.914
 1047POPC   C4B18094  29.741  28.201   7.672
 1048POPC   NC318095  18.421  35.169   9.420
 1048POPC   PO418096  17.783  35.640   9.455
 1048POPC   GL118097  18.091  35.523   9.130
 1048POPC   GL218098  18.045  35.181   9.089
 1048POPC   C1A18099  18.301  35.424   8.689
 1048POPC   D2A18100  18.600  35.556   8.328
 1048POPC   C3A18101  18.468  35.568   7.863
 1048POPC   C4A18102  18.633  35.243   7.538
 1048POPC   C1B18103  17.927  34.995   8.713
 1048POPC   C2B18104  18.173  34.957   8.325
 1048POPC   C3B18105  18.179  35.124   7.902
 1048POPC   C4B18106  18.121  35.199   7.468
 1049POPC   NC318107  36.587  21.060   9.469
 1049POPC   PO418108  37.011  21.394   9.741
 1049POPC   GL118109  37.008  21.361   9.265
 1049POPC   GL218110  36.692  21.338   9.059
 1049POPC   C1A18111  37.068  21.604   8.871
 1049POPC   D2A18112  37.141  21.474   8.442
 1049POPC   C3A18113  37.125  21.622   8.011
 1049POPC   C4A18114  37.111  21.365   7.648
 1049POPC   C1B18115  36.567  21.179   8.648
 1049POPC   C2B18116  36.718  21.227   8.254
 1049POPC   C3B18117  36.664  21.419   7.884
 1049POPC   C4B18118  36.654  21.223   7.470
 1050POPC   NC318119  32.938   9.364   9.515
 1050POPC   PO418120  32.721   9.952   9.246
 1050POPC   GL118121  33.036   9.883   9.037
 1050POPC   GL218122  33.008   9.541   9.043
 1050POPC   C1A18123  33.249   9.793   8.645
 1050POPC   D2A18124  33.147  10.014   8.261
 1050POPC   C3A18125  33.171   9.774   7.905
 1050POPC   C4A18126  32.856   9.792   7.549
 1050POPC   C1B18127  32.815   9.259   8.771
 1050POPC   C2B18128  32.682   9.331   8.381
 1050POPC   C3B18129  32.790   9.453   7.961
 1050POPC   C4B18130  32.662   9.333   7.538
 1051POPC   NC318131  29.362  34.378   9.585
 1051POPC   PO418132  29.956  34.378   9.503
 1051POPC   GL118133  29.969  34.504   9.075
 1051POPC   GL218134  30.257  34.712   9.097
 1051POPC   C1A18135  29.757  34.830   8.780
 1051POPC   D2A18136  29.598  34.790   8.366
 1051POPC   C3A18137  29.623  34.375   8.164
 1051POPC   C4A18138  29.822  34.269   7.774
 1051POPC   C1B18139  30.240  34.691   8.686
 1051POPC   C2B18140  30.098  34.574   8.329
 1051POPC   C3B18141  30.154  34.646   7.937
 1051POPC   C4B18142  30.079  34.766   7.531
 1052POPC   NC318143  26.706  17.122   9.506
 1052POPC   PO418144  27.055  17.718   9.395
 1052POPC   GL118145  26.838  17.488   9.114
 1052POPC   GL218146  26.488  17.547   9.205
 1052POPC   C1A18147  27.003  17.581   8.706
 1052POPC   D2A18148  26.866  17.878   8.424
 1052POPC   C3A18149  26.761  17.813   7.978
 1052POPC   C4A18150  26.836  17.483   7.680
 1052POPC   C1B18151  26.451  17.669   8.761
 1052POPC   C2B18152  26.464  17.572   8.332
 1052POPC   C3B18153  26.435  17.320   7.981
 1052POPC   C4B18154  26.349  17.633   7.689
 1053POPC   NC318155  28.927   0.785   9.337
 1053POPC   PO418156  29.287   1.411   9.498
 1053POPC   GL118157  29.177   1.261   9.168
 1053POPC   GL218158  29.460   1.125   9.039
 1053POPC   C1A18159  29.139   1.432   8.778
 1053POPC   D2A18160  29.482   1.286   8.503
 1053POPC   C3A18161  29.411   1.219   8.063
 1053POPC   C4A18162  29.117   1.177   7.728
 1053POPC   C1B18163  29.196   0.928   8.754
 1053POPC   C2B18164  28.922   0.753   8.498
 1053POPC   C3B18165  29.039   0.717   8.090
 1053POPC   C4B18166  28.865   0.688   7.679
 1054POPC   NC318167  42.465  17.054   9.601
 1054POPC   PO418168  42.102  16.466   9.655
 1054POPC   GL118169  42.325  16.672   9.223
 1054POPC   GL218170  42.271  17.025   9.157
 1054POPC   C1A18171  42.422  16.818   8.739
 1054POPC   D2A18172  42.440  16.573   8.348
 1054POPC   C3A18173  42.565  16.648   7.886
 1054POPC   C4A18174  42.444  16.554   7.464
 1054POPC   C1B18175  41.987  17.110   8.842
 1054POPC   C2B18176  42.125  17.128   8.445
 1054POPC   C3B18177  42.182  16.938   8.074
 1054POPC   C4B18178  41.942  17.070   7.759
 1055POPC   NC318179  14.475  16.719   9.468
 1055POPC   PO418180  14.788  17.330   9.336
 1055POPC   GL118181  14.624  17.009   9.088
 1055POPC   GL218182  14.288  17.087   9.137
 1055POPC   C1A18183  14.410  16.776   8.753
 1055POPC   D2A18184  14.500  17.029   8.408
 1055POPC   C3A18185  14.488  16.918   7.995
 1055POPC   C4A18186  14.572  16.786   7.571
 1055POPC   C1B18187  14.030  17.088   8.717
 1055POPC   C2B18188  14.049  16.810   8.328
 1055POPC   C3B18189  14.121  16.588   7.911
 1055POPC   C4B18190  14.125  16.611   7.440
 1056POPC   NC318191   3.761   5.856   9.704
 1056POPC   PO418192   3.384   6.296   9.879
 1056POPC   GL118193   3.451   6.020   9.356
 1056POPC   GL218194   3.613   5.744   9.216
 1056POPC   C1A18195   3.436   6.099   8.873
 1056POPC   D2A18196   3.685   6.058   8.490
 1056POPC   C3A18197   3.459   5.990   8.110
 1056POPC   C4A18198   3.473   5.925   7.685
 1056POPC   C1B18199   3.488   5.588   8.807
 1056POPC   C2B18200   3.353   5.553   8.397
 1056POPC   C3B18201   3.583   5.506   8.030
 1056POPC   C4B18202   3.412   5.303   7.731
 1057POPC   NC318203  15.281  13.801   9.494
 1057POPC   PO418204  15.670  13.217   9.482
 1057POPC   GL118205  15.386  13.419   9.126
 1057POPC   GL218206  15.104  13.694   9.050
 1057POPC   C1A18207  15.379  13.249   8.693
 1057POPC   D2A18208  15.326  12.941   8.369
 1057POPC   C3A18209  15.199  13.184   8.058
 1057POPC   C4A18210  15.353  13.497   7.802
 1057POPC   C1B18211  15.055  13.643   8.642
 1057POPC   C2B18212  15.241  13.654   8.267
 1057POPC   C3B18213  15.095  13.921   7.927
 1057POPC   C4B18214  15.017  14.127   7.552
 1058POPC   NC318215  17.931   3.549   9.540
 1058POPC   PO418216  17.327   3.780   9.650
 1058POPC   GL118217  17.438   3.513   9.300
 1058POPC   GL218218  17.686   3.697   9.127
 1058POPC   C1A18219  17.319   3.458   8.854
 1058POPC   D2A18220  17.456   3.406   8.435
 1058POPC   C3A18221  17.187   3.518   8.104
 1058POPC   C4A18222  17.398   3.390   7.745
 1058POPC   C1B18223  17.645   3.861   8.732
 1058POPC   C2B18224  17.402   3.926   8.352
 1058POPC   C3B18225  17.520   3.873   7.903
 1058POPC   C4B18226  17.584   3.773   7.450
 1059POPC   NC318227   8.466   8.955  10.086
 1059POPC   PO418228   8.862   8.703   9.615
 1059POPC   GL118229   8.901   8.840   9.193
 1059POPC   GL218230   8.721   8.578   8.982
 1059POPC   C1A18231   9.062   8.923   8.795
 1059POPC   D2A18232   8.938   8.779   8.437
 1059POPC   C3A18233   9.101   9.033   8.138
 1059POPC   C4A18234   8.978   9.189   7.745
 1059POPC   C1B18235   9.144   8.417   8.864
 1059POPC   C2B18236   9.189   8.306   8.437
 1059POPC   C3B18237   9.008   8.408   8.094
 1059POPC   C4B18238   9.061   8.665   7.777
 1060POPC   NC318239   5.532  37.142   9.507
 1060POPC   PO418240   6.066  36.745   9.673
 1060POPC   GL118241   5.972  36.973   9.293
 1060POPC   GL218242   5.774  36.714   9.229
 1060POPC   C1A18243   5.763  37.067   8.842
 1060POPC   D2A18244   5.684  37.227   8.408
 1060POPC   C3A18245   5.740  37.104   7.948
 1060POPC   C4A18246   5.671  37.158   7.482
 1060POPC   C1B18247   6.078  36.690   8.886
 1060POPC   C2B18248   5.952  36.750   8.446
 1060POPC   C3B18249   5.881  36.611   7.980
 1060POPC   C4B18250   5.631  36.653   7.618
 1061POPC   NC318251  22.598  18.174   9.700
 1061POPC   PO418252  23.183  18.120   9.487
 1061POPC   GL118253  23.038  18.062   9.084
 1061POPC   GL218254  23.138  17.709   9.033
 1061POPC   C1A18255  23.017  18.344   8.702
 1061POPC   D2A18256  23.235  18.521   8.332
 1061POPC   C3A18257  23.056  18.439   7.921
 1061POPC   C4A18258  22.916  18.107   7.645
 1061POPC   C1B18259  23.288  17.922   8.641
 1061POPC   C2B18260  23.146  18.020   8.235
 1061POPC   C3B18261  23.097  17.729   7.907
 1061POPC   C4B18262  22.913  17.556   7.526
 1062POPC   NC318263  13.017   4.559   9.328
 1062POPC   PO418264  12.571   4.141   9.553
 1062POPC   GL118265  12.617   4.127   9.115
 1062POPC   GL218266  12.566   4.459   9.105
 1062POPC   C1A18267  12.750   4.046   8.657
 1062POPC   D2A18268  13.087   3.999   8.311
 1062POPC   C3A18269  13.102   4.283   7.961
 1062POPC   C4A18270  13.010   4.567   7.631
 1062POPC   C1B18271  12.640   4.559   8.712
 1062POPC   C2B18272  12.537   4.421   8.315
 1062POPC   C3B18273  12.606   4.643   7.938
 1062POPC   C4B18274  12.488   4.553   7.515
 1063POPC   NC318275   1.601  36.444  10.043
 1063POPC   PO418276   2.135  36.359   9.776
 1063POPC   GL118277   2.134  36.352   9.271
 1063POPC   GL218278   2.306  36.081   9.115
 1063POPC   C1A18279   1.903  36.186   8.832
 1063POPC   D2A18280   2.091  35.974   8.420
 1063POPC   C3A18281   2.021  36.098   7.947
 1063POPC   C4A18282   1.882  35.953   7.508
 1063POPC   C1B18283   2.339  36.389   8.720
 1063POPC   C2B18284   2.077  36.476   8.314
 1063POPC   C3B18285   2.159  36.594   7.843
 1063POPC   C4B18286   2.464  36.636   7.451
 1064POPC   NC318287  36.675  24.370   9.470
 1064POPC   PO418288  37.335  24.631   9.613
 1064POPC   GL118289  37.078  24.626   9.226
 1064POPC   GL218290  36.717  24.777   9.176
 1064POPC   C1A18291  37.112  24.505   8.796
 1064POPC   D2A18292  37.258  24.184   8.487
 1064POPC   C3A18293  37.083  24.257   8.070
 1064POPC   C4A18294  37.041  24.553   7.731
 1064POPC   C1B18295  36.601  24.548   8.812
 1064POPC   C2B18296  36.752  24.443   8.418
 1064POPC   C3B18297  36.622  24.571   8.022
 1064POPC   C4B18298  36.531  24.425   7.635
 1065POPC   NC318299  24.330  17.218   9.421
 1065POPC   PO418300  24.628  17.827   9.479
 1065POPC   GL118301  24.510  17.652   9.134
 1065POPC   GL218302  24.743  17.396   9.153
 1065POPC   C1A18303  24.657  17.707   8.730
 1065POPC   D2A18304  24.380  17.713   8.397
 1065POPC   C3A18305  24.504  17.590   7.999
 1065POPC   C4A18306  24.250  17.686   7.662
 1065POPC   C1B18307  24.601  17.217   8.787
 1065POPC   C2B18308  24.710  17.295   8.378
 1065POPC   C3B18309  24.542  17.086   8.034
 1065POPC   C4B18310  24.349  17.165   7.648
 1066POPC   NC318311  40.856  17.194   9.462
 1066POPC   PO418312  40.967  17.908   9.334
 1066POPC   GL118313  40.854  17.570   9.128
 1066POPC   GL218314  40.997  17.714   8.859
 1066POPC   C1A18315  40.698  17.325   8.781
 1066POPC   D2A18316  40.751  17.535   8.394
 1066POPC   C3A18317  40.993  17.410   8.051
 1066POPC   C4A18318  40.813  17.175   7.739
 1066POPC   C1B18319  40.641  17.954   8.702
 1066POPC   C2B18320  40.575  17.999   8.257
 1066POPC   C3B18321  40.601  17.723   7.914
 1066POPC   C4B18322  40.905  17.682   7.582
 1067POPC   NC318323  40.131  31.425   9.617
 1067POPC   PO418324  40.364  30.842   9.550
 1067POPC   GL118325  40.172  31.171   9.175
 1067POPC   GL218326  40.194  31.592   9.157
 1067POPC   C1A18327  40.375  31.338   8.782
 1067POPC   D2A18328  40.217  31.251   8.415
 1067POPC   C3A18329  40.324  31.512   8.097
 1067POPC   C4A18330  40.255  31.386   7.701
 1067POPC   C1B18331  39.869  31.470   8.846
 1067POPC   C2B18332  39.721  31.389   8.402
 1067POPC   C3B18333  39.792  31.475   7.943
 1067POPC   C4B18334  39.930  31.753   7.605
 1068POPC   NC318335  30.158  14.974   9.551
 1068POPC   PO418336  29.649  15.514   9.485
 1068POPC   GL118337  29.761  15.505   8.961
 1068POPC   GL218338  30.176  15.408   8.821
 1068POPC   C1A18339  29.775  15.218   8.617
 1068POPC   D2A18340  30.093  15.257   8.351
 1068POPC   C3A18341  29.836  15.299   8.076
 1068POPC   C4A18342  29.745  15.398   7.720
 1068POPC   C1B18343  30.235  14.967   8.762
 1068POPC   C2B18344  30.298  14.788   8.372
 1068POPC   C3B18345  30.300  14.981   7.988
 1068POPC   C4B18346  29.962  14.948   7.685
 1069POPC   NC318347  11.348  37.106   9.487
 1069POPC   PO418348  10.877  36.611   9.404
 1069POPC   GL118349  11.168  36.785   9.115
 1069POPC   GL218350  10.897  36.823   8.923
 1069POPC   C1A18351  11.462  36.974   8.789
 1069POPC   D2A18352  11.404  37.125   8.372
 1069POPC   C3A18353  11.646  37.128   8.004
 1069POPC   C4A18354  11.427  36.931   7.676
 1069POPC   C1B18355  10.934  37.079   8.587
 1069POPC   C2B18356  10.867  37.044   8.165
 1069POPC   C3B18357  10.952  37.144   7.746
 1069POPC   C4B18358  11.108  37.129   7.329
 1070POPC   NC318359  43.040   5.305   9.423
 1070POPC   PO418360  43.651   5.101   9.440
 1070POPC   GL118361  43.431   5.250   9.101
 1070POPC   GL218362  43.180   4.975   9.066
 1070POPC   C1A18363  43.318   5.367   8.689
 1070POPC   D2A18364  43.128   5.237   8.297
 1070POPC   C3A18365  43.296   5.094   7.927
 1070POPC   C4A18366  43.273   5.207   7.502
 1070POPC   C1B18367  42.890   5.059   8.708
 1070POPC   C2B18368  42.713   4.949   8.299
 1070POPC   C3B18369  42.790   5.030   7.857
 1070POPC   C4B18370  42.770   5.084   7.419
 1071POPC   NC318371  31.609  32.482   9.607
 1071POPC   PO418372  31.732  31.793   9.454
 1071POPC   GL118373  31.579  32.120   9.193
 1071POPC   GL218374  31.812  32.386   9.091
 1071POPC   C1A18375  31.429  32.154   8.767
 1071POPC   D2A18376  31.127  32.118   8.410
 1071POPC   C3A18377  31.191  31.947   8.000
 1071POPC   C4A18378  31.608  32.013   7.831
 1071POPC   C1B18379  31.751  32.569   8.658
 1071POPC   C2B18380  31.618  32.304   8.303
 1071POPC   C3B18381  31.329  32.428   7.991
 1071POPC   C4B18382  31.448  32.713   7.711
 1072POPC   NC318383   4.435  41.257   9.446
 1072POPC   PO418384   3.926  41.788   9.378
 1072POPC   GL118385   3.912  41.721   8.974
 1072POPC   GL218386   4.133  41.453   9.016
 1072POPC   C1A18387   4.054  41.794   8.570
 1072POPC   D2A18388   4.445  41.850   8.355
 1072POPC   C3A18389   4.465  41.625   7.997
 1072POPC   C4A18390   4.597  41.656   7.558
 1072POPC   C1B18391   4.445  41.428   8.706
 1072POPC   C2B18392   4.758  41.414   8.383
 1072POPC   C3B18393   4.719  41.180   7.978
 1072POPC   C4B18394   4.366  41.206   7.724
 1073POPC   NC318395   0.712   2.715   9.533
 1073POPC   PO418396   0.349   3.293   9.678
 1073POPC   GL118397   0.460   3.041   9.242
 1073POPC   GL218398   0.296   2.765   9.052
 1073POPC   C1A18399   0.647   2.983   8.804
 1073POPC   D2A18400   0.360   2.845   8.501
 1073POPC   C3A18401   0.552   2.861   8.108
 1073POPC   C4A18402   0.554   3.214   7.829
 1073POPC   C1B18403   0.582   2.467   8.874
 1073POPC   C2B18404   0.589   2.369   8.464
 1073POPC   C3B18405   0.232   2.421   8.211
 1073POPC   C4B18406   0.475   2.397   7.866
 1074POPC   NC318407  33.896  23.120   9.578
 1074POPC   PO418408  34.189  22.571   9.595
 1074POPC   GL118409  34.026  22.796   9.178
 1074POPC   GL218410  34.007  23.166   9.090
 1074POPC   C1A18411  33.939  22.855   8.693
 1074POPC   D2A18412  33.850  23.125   8.314
 1074POPC   C3A18413  33.727  22.931   7.924
 1074POPC   C4A18414  33.692  22.730   7.528
 1074POPC   C1B18415  34.104  23.378   8.699
 1074POPC   C2B18416  34.201  23.523   8.265
 1074POPC   C3B18417  34.024  23.568   7.822
 1074POPC   C4B18418  33.887  23.691   7.398
 1075POPC   NC318419  12.644  28.578   9.553
 1075POPC   PO418420  12.969  27.964   9.678
 1075POPC   GL118421  12.930  28.270   9.293
 1075POPC   GL218422  12.648  28.091   9.268
 1075POPC   C1A18423  12.790  28.518   8.902
 1075POPC   D2A18424  12.861  28.840   8.565
 1075POPC   C3A18425  12.944  28.656   8.180
 1075POPC   C4A18426  13.011  28.670   7.751
 1075POPC   C1B18427  12.535  28.058   8.839
 1075POPC   C2B18428  12.611  28.261   8.416
 1075POPC   C3B18429  12.730  28.247   7.952
 1075POPC   C4B18430  12.950  28.151   7.563
 1076POPC   NC318431  27.756  15.775   9.654
 1076POPC   PO418432  27.514  16.352   9.354
 1076POPC   GL118433  27.652  16.068   9.039
 1076POPC   GL218434  27.794  15.766   9.145
 1076POPC   C1A18435  27.789  16.169   8.632
 1076POPC   D2A18436  27.489  16.332   8.340
 1076POPC   C3A18437  27.374  16.029   8.033
 1076POPC   C4A18438  27.599  15.914   7.697
 1076POPC   C1B18439  27.799  15.661   8.719
 1076POPC   C2B18440  27.724  15.720   8.288
 1076POPC   C3B18441  27.914  15.592   7.914
 1076POPC   C4B18442  27.742  15.490   7.488
 1077POPC   NC318443  12.530   6.203   9.375
 1077POPC   PO418444  12.848   5.622   9.472
 1077POPC   GL118445  12.799   5.842   9.084
 1077POPC   GL218446  13.128   5.814   8.996
 1077POPC   C1A18447  12.664   5.785   8.640
 1077POPC   D2A18448  12.694   5.672   8.202
 1077POPC   C3A18449  12.669   5.959   7.838
 1077POPC   C4A18450  12.699   5.884   7.375
 1077POPC   C1B18451  13.179   5.801   8.551
 1077POPC   C2B18452  13.114   5.952   8.155
 1077POPC   C3B18453  13.130   6.150   7.795
 1077POPC   C4B18454  13.142   5.808   7.607
 1078POPC   NC318455   1.806  40.182   9.439
 1078POPC   PO418456   2.354  39.715   9.519
 1078POPC   GL118457   2.240  40.044   9.130
 1078POPC   GL218458   1.979  40.332   9.000
 1078POPC   C1A18459   2.384  40.202   8.717
 1078POPC   D2A18460   2.363  40.140   8.274
 1078POPC   C3A18461   1.994  40.149   8.058
 1078POPC   C4A18462   1.950  39.921   7.711
 1078POPC   C1B18463   1.888  40.109   8.622
 1078POPC   C2B18464   2.061  39.751   8.393
 1078POPC   C3B18465   1.899  39.540   8.029
 1078POPC   C4B18466   1.560  39.608   7.695
 1079POPC   NC318467  35.994   4.490   9.981
 1079POPC   PO418468  36.568   4.346   9.710
 1079POPC   GL118469  36.305   4.430   9.323
 1079POPC   GL218470  36.059   4.696   9.163
 1079POPC   C1A18471  36.362   4.401   8.881
 1079POPC   D2A18472  36.192   4.106   8.567
 1079POPC   C3A18473  36.156   4.225   8.137
 1079POPC   C4A18474  36.278   4.346   7.717
 1079POPC   C1B18475  35.868   4.450   8.802
 1079POPC   C2B18476  35.689   4.374   8.384
 1079POPC   C3B18477  35.687   4.084   8.022
 1079POPC   C4B18478  35.824   4.068   7.579
 1080POPC   NC318479  34.820  18.706   9.458
 1080POPC   PO418480  34.639  19.449   9.488
 1080POPC   GL118481  34.528  19.087   9.236
 1080POPC   GL218482  34.858  19.083   9.112
 1080POPC   C1A18483  34.508  18.814   8.864
 1080POPC   D2A18484  34.625  18.971   8.481
 1080POPC   C3A18485  34.363  18.896   8.128
 1080POPC   C4A18486  34.394  18.811   7.662
 1080POPC   C1B18487  35.022  18.811   8.779
 1080POPC   C2B18488  34.986  18.644   8.332
 1080POPC   C3B18489  34.844  18.970   8.014
 1080POPC   C4B18490  34.802  19.170   7.613
 1081POPC   NC318491  19.423   8.957   9.868
 1081POPC   PO418492  19.988   8.883   9.550
 1081POPC   GL118493  19.990   8.905   9.130
 1081POPC   GL218494  19.797   8.677   8.986
 1081POPC   C1A18495  20.057   8.987   8.710
 1081POPC   D2A18496  19.904   8.891   8.329
 1081POPC   C3A18497  19.572   9.064   8.099
 1081POPC   C4A18498  19.948   9.057   7.825
 1081POPC   C1B18499  19.540   8.794   8.654
 1081POPC   C2B18500  19.512   8.589   8.272
 1081POPC   C3B18501  19.749   8.593   7.908
 1081POPC   C4B18502  19.735   8.466   7.450
 1082POPC   NC318503  10.951  12.511   9.230
 1082POPC   PO418504  10.746  13.043   9.611
 1082POPC   GL118505  10.468  12.880   9.277
 1082POPC   GL218506  10.327  12.553   9.132
 1082POPC   C1A18507  10.514  12.946   8.827
 1082POPC   D2A18508  10.648  13.065   8.406
 1082POPC   C3A18509  10.547  12.820   8.015
 1082POPC   C4A18510  10.461  12.993   7.564
 1082POPC   C1B18511  10.235  12.426   8.668
 1082POPC   C2B18512  10.075  12.584   8.235
 1082POPC   C3B18513  10.151  12.640   7.768
 1082POPC   C4B18514  10.235  12.549   7.270
 1083POPC   NC318515  42.474  33.607   9.717
 1083POPC   PO418516  42.092  34.047   9.589
 1083POPC   GL118517  42.157  33.688   9.270
 1083POPC   GL218518  41.842  33.596   9.177
 1083POPC   C1A18519  42.183  33.497   8.811
 1083POPC   D2A18520  42.128  33.481   8.337
 1083POPC   C3A18521  42.408  33.616   7.988
 1083POPC   C4A18522  42.469  33.946   7.669
 1083POPC   C1B18523  41.901  33.920   8.873
 1083POPC   C2B18524  41.866  33.920   8.428
 1083POPC   C3B18525  42.007  33.945   7.991
 1083POPC   C4B18526  42.090  34.310   7.753
 1084POPC   NC318527  38.926  18.071   9.497
 1084POPC   PO418528  39.201  18.672   9.612
 1084POPC   GL118529  39.134  18.475   9.207
 1084POPC   GL218530  38.912  18.647   9.022
 1084POPC   C1A18531  39.134  18.217   8.805
 1084POPC   D2A18532  39.002  18.072   8.368
 1084POPC   C3A18533  39.304  17.957   8.023
 1084POPC   C4A18534  39.510  18.119   7.625
 1084POPC   C1B18535  39.295  18.718   8.773
 1084POPC   C2B18536  39.405  18.498   8.391
 1084POPC   C3B18537  39.216  18.448   7.951
 1084POPC   C4B18538  39.158  18.540   7.497
 1085POPC   NC318539  42.037  28.443   9.516
 1085POPC   PO418540  42.642  27.988   9.541
 1085POPC   GL118541  42.504  28.248   9.200
 1085POPC   GL218542  42.160  28.266   9.057
 1085POPC   C1A18543  42.558  28.185   8.763
 1085POPC   D2A18544  42.269  28.281   8.448
 1085POPC   C3A18545  42.540  28.418   8.129
 1085POPC   C4A18546  42.592  28.344   7.701
 1085POPC   C1B18547  41.972  28.579   8.777
 1085POPC   C2B18548  41.899  28.763   8.350
 1085POPC   C3B18549  42.018  28.513   7.987
 1085POPC   C4B18550  41.922  28.677   7.588
 1086POPC   NC318551  14.303  20.376   9.487
 1086POPC   PO418552  14.392  21.027   9.554
 1086POPC   GL118553  14.542  20.744   9.175
 1086POPC   GL218554  14.281  20.580   9.030
 1086POPC   C1A18555  14.681  20.720   8.716
 1086POPC   D2A18556  14.491  20.796   8.274
 1086POPC   C3A18557  14.628  20.627   7.823
 1086POPC   C4A18558  14.744  20.810   7.349
 1086POPC   C1B18559  14.140  20.538   8.639
 1086POPC   C2B18560  14.130  20.213   8.366
 1086POPC   C3B18561  14.195  20.424   8.013
 1086POPC   C4B18562  14.106  20.331   7.655
 1087POPC   NC318563  13.372   6.707   9.568
 1087POPC   PO418564  13.945   6.875   9.671
 1087POPC   GL118565  13.779   6.555   9.301
 1087POPC   GL218566  13.501   6.300   9.238
 1087POPC   C1A18567  13.610   6.631   8.846
 1087POPC   D2A18568  13.623   6.684   8.391
 1087POPC   C3A18569  13.890   6.598   8.046
 1087POPC   C4A18570  13.740   6.755   7.650
 1087POPC   C1B18571  13.295   6.247   8.823
 1087POPC   C2B18572  13.224   6.376   8.386
 1087POPC   C3B18573  13.545   6.216   8.063
 1087POPC   C4B18574  13.581   6.261   7.597
 1088POPC   NC318575  44.896  22.616   9.527
 1088POPC   PO418576  44.530  23.148   9.487
 1088POPC   GL118577  44.491  23.022   9.056
 1088POPC   GL218578  44.570  22.667   9.077
 1088POPC   C1A18579  44.660  22.902   8.652
 1088POPC   D2A18580  44.743  22.709   8.281
 1088POPC   C3A18581  44.645  22.995   7.953
 1088POPC   C4A18582  44.798  23.340   7.694
 1088POPC   C1B18583  44.204  22.662   8.790
 1088POPC   C2B18584  44.193  22.819   8.365
 1088POPC   C3B18585  44.306  22.628   8.000
 1088POPC   C4B18586  44.392  22.613   7.611
 1089POPC   NC318587  19.654  11.012   9.465
 1089POPC   PO418588  19.940  11.654   9.508
 1089POPC   GL118589  19.928  11.366   9.193
 1089POPC   GL218590  19.560  11.395   9.143
 1089POPC   C1A18591  19.836  11.152   8.816
 1089POPC   D2A18592  19.535  10.940   8.559
 1089POPC   C3A18593  19.751  10.923   8.155
 1089POPC   C4A18594  19.834  11.041   7.715
 1089POPC   C1B18595  19.467  11.524   8.736
 1089POPC   C2B18596  19.666  11.391   8.347
 1089POPC   C3B18597  19.544  11.417   7.919
 1089POPC   C4B18598  19.499  11.811   7.753
 1090POPC   NC318599  42.146  29.435   9.462
 1090POPC   PO418600  42.512  28.949   9.506
 1090POPC   GL118601  42.336  29.112   9.133
 1090POPC   GL218602  42.096  28.845   9.183
 1090POPC   C1A18603  42.408  29.412   8.806
 1090POPC   D2A18604  42.435  29.268   8.392
 1090POPC   C3A18605  42.521  29.385   7.969
 1090POPC   C4A18606  42.433  29.320   7.496
 1090POPC   C1B18607  42.450  28.676   8.908
 1090POPC   C2B18608  42.382  28.770   8.498
 1090POPC   C3B18609  42.352  28.896   8.047
 1090POPC   C4B18610  42.414  28.824   7.600
 1091POPC   NC318611  44.499  11.524   9.276
 1091POPC   PO418612  44.388  11.052   9.532
 1091POPC   GL118613  44.509  11.014   9.097
 1091POPC   GL218614  44.825  11.169   9.077
 1091POPC   C1A18615  44.621  10.983   8.634
 1091POPC   D2A18616  44.462  11.102   8.212
 1091POPC   C3A18617  44.603  11.433   7.918
 1091POPC   C4A18618  44.834  11.451   7.512
 1091POPC   C1B18619   0.021  11.294   8.684
 1091POPC   C2B18620  44.976  11.261   8.230
 1091POPC   C3B18621  44.942  11.047   7.809
 1091POPC   C4B18622   0.086  11.014   7.345
 1092POPC   NC318623   7.104  42.028   9.383
 1092POPC   PO418624   7.671  42.370   9.260
 1092POPC   GL118625   7.273  42.561   9.111
 1092POPC   GL218626   7.055  42.331   8.992
 1092POPC   C1A18627   7.208  42.721   8.699
 1092POPC   D2A18628   7.066  42.540   8.336
 1092POPC   C3A18629   7.321  42.455   7.979
 1092POPC   C4A18630   7.739  42.603   7.991
 1092POPC   C1B18631   7.244  42.199   8.665
 1092POPC   C2B18632   7.586  42.319   8.424
 1092POPC   C3B18633   7.579  42.014   8.127
 1092POPC   C4B18634   7.649  41.838   7.742
 1093POPC   NC318635  20.167  44.638  10.152
 1093POPC   PO418636  20.758  44.714   9.783
 1093POPC   GL118637  20.890  44.719   9.338
 1093POPC   GL218638  20.558  44.711   9.197
 1093POPC   C1A18639  20.939  44.549   8.877
 1093POPC   D2A18640  20.696  44.524   8.479
 1093POPC   C3A18641  20.746  44.320   8.079
 1093POPC   C4A18642  20.715  44.581   7.718
 1093POPC   C1B18643  20.379  44.793   8.782
 1093POPC   C2B18644  20.369  44.983   8.409
 1093POPC   C3B18645  20.400  44.806   8.050
 1093POPC   C4B18646  20.227  44.878   7.658
 1094POPC   NC318647  30.762   1.048   9.450
 1094POPC   PO418648  30.657   1.678   9.411
 1094POPC   GL118649  30.648   1.451   9.077
 1094POPC   GL218650  30.984   1.400   9.097
 1094POPC   C1A18651  30.731   1.211   8.704
 1094POPC   D2A18652  30.562   1.015   8.356
 1094POPC   C3A18653  30.428   1.246   8.003
 1094POPC   C4A18654  30.224   1.112   7.624
 1094POPC   C1B18655  31.200   1.066   8.879
 1094POPC   C2B18656  31.129   0.916   8.465
 1094POPC   C3B18657  30.969   0.990   8.034
 1094POPC   C4B18658  30.998   0.828   7.608
 1095POPC   NC318659  35.744  14.908   9.377
 1095POPC   PO418660  36.123  15.375   9.438
 1095POPC   GL118661  36.111  15.443   9.044
 1095POPC   GL218662  35.976  15.127   8.982
 1095POPC   C1A18663  36.266  15.375   8.647
 1095POPC   D2A18664  36.036  15.157   8.407
 1095POPC   C3A18665  36.129  15.239   7.997
 1095POPC   C4A18666  36.476  15.195   7.790
 1095POPC   C1B18667  35.731  14.854   8.695
 1095POPC   C2B18668  35.755  14.774   8.225
 1095POPC   C3B18669  35.637  14.830   7.800
 1095POPC   C4B18670  35.729  14.900   7.338
 1096POPC   NC318671   5.104  40.070   9.565
 1096POPC   PO418672   4.792  40.598   9.430
 1096POPC   GL118673   4.888  40.268   9.099
 1096POPC   GL218674   5.184  40.009   9.082
 1096POPC   C1A18675   4.956  40.152   8.659
 1096POPC   D2A18676   4.844  40.170   8.261
 1096POPC   C3A18677   5.119  40.217   7.934
 1096POPC   C4A18678   4.896  39.972   7.639
 1096POPC   C1B18679   5.452  40.052   8.749
 1096POPC   C2B18680   5.331  39.912   8.352
 1096POPC   C3B18681   5.123  39.705   8.028
 1096POPC   C4B18682   5.405  39.800   7.704
 1097POPC   NC318683  38.695  22.480   9.496
 1097POPC   PO418684  38.458  23.174   9.446
 1097POPC   GL118685  38.529  22.835   9.154
 1097POPC   GL218686  38.881  22.786   9.120
 1097POPC   C1A18687  38.313  22.751   8.783
 1097POPC   D2A18688  38.473  22.668   8.373
 1097POPC   C3A18689  38.139  22.749   8.087
 1097POPC   C4A18690  38.082  22.893   7.656
 1097POPC   C1B18691  38.809  22.924   8.711
 1097POPC   C2B18692  38.871  22.990   8.285
 1097POPC   C3B18693  38.646  22.868   7.943
 1097POPC   C4B18694  38.581  23.181   7.693
 1098POPC   NC318695   6.400  36.430   9.561
 1098POPC   PO418696   6.699  35.828   9.408
 1098POPC   GL118697   6.613  36.192   9.142
 1098POPC   GL218698   6.254  36.274   9.090
 1098POPC   C1A18699   6.617  36.274   8.696
 1098POPC   D2A18700   6.590  36.036   8.313
 1098POPC   C3A18701   6.924  36.127   8.054
 1098POPC   C4A18702   6.828  36.314   7.714
 1098POPC   C1B18703   6.087  36.219   8.672
 1098POPC   C2B18704   6.179  36.331   8.263
 1098POPC   C3B18705   6.354  36.253   7.870
 1098POPC   C4B18706   6.576  35.843   7.801
 1099POPC   NC318707  31.838  20.061   9.578
 1099POPC   PO418708  32.227  19.467   9.569
 1099POPC   GL118709  32.130  19.624   9.198
 1099POPC   GL218710  32.368  19.833   9.061
 1099POPC   C1A18711  32.050  19.490   8.788
 1099POPC   D2A18712  31.999  19.537   8.346
 1099POPC   C3A18713  32.294  19.764   8.090
 1099POPC   C4A18714  32.238  19.887   7.677
 1099POPC   C1B18715  32.543  19.831   8.640
 1099POPC   C2B18716  32.713  20.023   8.284
 1099POPC   C3B18717  32.668  20.122   7.850
 1099POPC   C4B18718  32.681  20.134   7.391
 1100POPC   NC318719  20.086   5.044   9.536
 1100POPC   PO418720  19.710   5.567   9.597
 1100POPC   GL118721  19.863   5.442   9.207
 1100POPC   GL218722  19.707   5.134   9.207
 1100POPC   C1A18723  19.934   5.325   8.770
 1100POPC   D2A18724  20.071   5.231   8.364
 1100POPC   C3A18725  19.818   5.300   8.043
 1100POPC   C4A18726  19.875   5.061   7.710
 1100POPC   C1B18727  19.480   5.005   8.853
 1100POPC   C2B18728  19.558   5.072   8.442
 1100POPC   C3B18729  19.549   4.853   8.049
 1100POPC   C4B18730  19.626   4.567   7.707
 1101POPC   NC318731  44.878  14.978   9.447
 1101POPC   PO418732  44.385  14.743   9.349
 1101POPC   GL118733  44.583  14.982   9.016
 1101POPC   GL218734  44.587  15.323   9.154
 1101POPC   C1A18735  44.381  15.105   8.600
 1101POPC   D2A18736  44.443  14.873   8.200
 1101POPC   C3A18737  44.740  15.022   7.863
 1101POPC   C4A18738  44.670  14.933   7.398
 1101POPC   C1B18739  44.803  15.360   8.758
 1101POPC   C2B18740  44.802  15.252   8.326
 1101POPC   C3B18741  44.843  15.542   7.993
 1101POPC   C4B18742  44.813  16.014   7.916
 1102POPC   NC318743  11.096   2.472   9.390
 1102POPC   PO418744  11.697   2.672   9.664
 1102POPC   GL118745  11.596   2.527   9.248
 1102POPC   GL218746  11.379   2.761   9.085
 1102POPC   C1A18747  11.643   2.414   8.817
 1102POPC   D2A18748  11.567   2.670   8.448
 1102POPC   C3A18749  11.494   2.442   8.070
 1102POPC   C4A18750  11.428   2.550   7.633
 1102POPC   C1B18751  11.118   2.622   8.727
 1102POPC   C2B18752  11.083   2.841   8.328
 1102POPC   C3B18753  11.310   2.924   7.954
 1102POPC   C4B18754  11.044   2.875   7.591
 1103POPC   NC318755  37.011  37.422   9.737
 1103POPC   PO418756  37.026  36.783   9.465
 1103POPC   GL118757  36.962  36.769   9.030
 1103POPC   GL218758  37.242  36.951   8.861
 1103POPC   C1A18759  36.798  36.920   8.630
 1103POPC   D2A18760  37.024  37.028   8.251
 1103POPC   C3A18761  36.785  37.032   7.839
 1103POPC   C4A18762  36.504  36.835   7.503
 1103POPC   C1B18763  37.196  36.589   8.584
 1103POPC   C2B18764  37.207  36.556   8.144
 1103POPC   C3B18765  37.277  36.856   7.846
 1103POPC   C4B18766  37.221  37.243   7.617
 1104POPC   NC318767  29.042  36.581   9.531
 1104POPC   PO418768  28.859  37.233   9.459
 1104POPC   GL118769  29.110  36.932   9.171
 1104POPC   GL218770  29.461  36.855   9.326
 1104POPC   C1A18771  29.006  36.590   8.828
 1104POPC   D2A18772  28.991  36.391   8.380
 1104POPC   C3A18773  29.083  36.675   8.005
 1104POPC   C4A18774  28.946  36.821   7.564
 1104POPC   C1B18775  29.485  36.723   8.903
 1104POPC   C2B18776  29.366  36.840   8.490
 1104POPC   C3B18777  29.564  36.836   8.067
 1104POPC   C4B18778  29.457  36.865   7.626
 1105POPC   NC318779  13.777  36.992   9.574
 1105POPC   PO418780  13.490  36.492   9.340
 1105POPC   GL118781  13.487  36.872   9.138
 1105POPC   GL218782  13.215  36.739   8.914
 1105POPC   C1A18783  13.583  37.082   8.779
 1105POPC   D2A18784  13.423  36.928   8.410
 1105POPC   C3A18785  13.677  37.025   8.073
 1105POPC   C4A18786  13.882  36.994   7.714
 1105POPC   C1B18787  13.612  36.557   8.709
 1105POPC   C2B18788  13.725  36.538   8.279
 1105POPC   C3B18789  13.588  36.555   7.834
 1105POPC   C4B18790  13.807  36.378   7.465
 1106POPC   NC318791  17.754  33.433   9.283
 1106POPC   PO418792  17.467  32.816   9.429
 1106POPC   GL118793  17.625  32.781   9.056
 1106POPC   GL218794  17.524  33.090   8.964
 1106POPC   C1A18795  17.525  32.667   8.668
 1106POPC   D2A18796  17.577  32.928   8.345
 1106POPC   C3A18797  17.394  32.845   8.012
 1106POPC   C4A18798  17.468  32.974   7.602
 1106POPC   C1B18799  17.892  33.121   8.694
 1106POPC   C2B18800  17.931  33.296   8.261
 1106POPC   C3B18801  17.590  33.351   7.969
 1106POPC   C4B18802  17.373  33.486   7.599
 1107POPC   NC318803  39.449  10.147   9.311
 1107POPC   PO418804  38.921   9.782   9.496
 1107POPC   GL118805  39.105   9.726   9.091
 1107POPC   GL218806  39.468   9.678   9.074
 1107POPC   C1A18807  39.163   9.601   8.660
 1107POPC   D2A18808  39.498   9.549   8.377
 1107POPC   C3A18809  39.396   9.611   7.945
 1107POPC   C4A18810  39.023   9.807   7.764
 1107POPC   C1B18811  39.649   9.906   8.714
 1107POPC   C2B18812  39.805   9.995   8.286
 1107POPC   C3B18813  39.604  10.090   7.874
 1107POPC   C4B18814  39.438   9.933   7.505
 1108POPC   NC318815  10.974  21.485   9.530
 1108POPC   PO418816  11.576  21.810   9.850
 1108POPC   GL118817  11.469  21.626   9.343
 1108POPC   GL218818  11.385  21.300   9.243
 1108POPC   C1A18819  11.401  21.640   8.859
 1108POPC   D2A18820  11.146  21.541   8.485
 1108POPC   C3A18821  11.231  21.733   8.085
 1108POPC   C4A18822  11.362  21.609   7.681
 1108POPC   C1B18823  11.157  21.167   8.865
 1108POPC   C2B18824  11.128  21.030   8.424
 1108POPC   C3B18825  11.222  21.214   8.034
 1108POPC   C4B18826  11.048  21.174   7.634
 1109POPC   NC318827  17.210   4.218   9.722
 1109POPC   PO418828  17.759   4.475   9.450
 1109POPC   GL118829  17.448   4.200   9.223
 1109POPC   GL218830  17.365   4.537   9.089
 1109POPC   C1A18831  17.192   4.086   8.831
 1109POPC   D2A18832  17.082   4.357   8.464
 1109POPC   C3A18833  17.259   4.323   8.033
 1109POPC   C4A18834  17.312   4.214   7.566
 1109POPC   C1B18835  17.619   4.371   8.733
 1109POPC   C2B18836  17.841   4.188   8.365
 1109POPC   C3B18837  17.776   4.326   7.944
 1109POPC   C4B18838  17.542   4.640   7.731
 1110POPC   NC318839  15.375   0.075   9.426
 1110POPC   PO418840  14.954   0.540   9.602
 1110POPC   GL118841  15.051   0.456   9.187
 1110POPC   GL218842  14.966   0.781   9.149
 1110POPC   C1A18843  15.224   0.482   8.763
 1110POPC   D2A18844  15.064   0.405   8.349
 1110POPC   C3A18845  15.314   0.146   8.103
 1110POPC   C4A18846  15.406   0.314   7.709
 1110POPC   C1B18847  14.811   0.774   8.790
 1110POPC   C2B18848  14.656   0.755   8.395
 1110POPC   C3B18849  14.807   0.688   7.969
 1110POPC   C4B18850  14.722   0.794   7.532
 1111POPC   NC318851  25.646  19.862   9.743
 1111POPC   PO418852  26.271  19.762   9.637
 1111POPC   GL118853  26.230  19.657   9.187
 1111POPC   GL218854  25.851  19.654   9.163
 1111POPC   C1A18855  26.351  19.477   8.781
 1111POPC   D2A18856  26.154  19.436   8.378
 1111POPC   C3A18857  26.297  19.642   7.989
 1111POPC   C4A18858  26.271  19.915   7.593
 1111POPC   C1B18859  25.959  19.800   8.720
 1111POPC   C2B18860  25.865  19.822   8.241
 1111POPC   C3B18861  25.801  19.957   7.798
 1111POPC   C4B18862  25.483  19.921   7.442
 1112POPC   NC318863  26.816  42.730   9.754
 1112POPC   PO418864  26.574  42.277   9.291
 1112POPC   GL118865  26.938  42.363   9.019
 1112POPC   GL218866  27.165  42.648   9.029
 1112POPC   C1A18867  27.009  42.284   8.597
 1112POPC   D2A18868  27.105  42.425   8.189
 1112POPC   C3A18869  26.900  42.234   7.848
 1112POPC   C4A18870  27.072  42.083   7.475
 1112POPC   C1B18871  26.959  42.793   8.637
 1112POPC   C2B18872  26.728  42.747   8.248
 1112POPC   C3B18873  26.648  42.687   7.812
 1112POPC   C4B18874  26.384  42.792   7.461
 1113POPC   NC318875  38.547  37.333   9.943
 1113POPC   PO418876  38.360  37.819   9.542
 1113POPC   GL118877  38.407  37.617   9.153
 1113POPC   GL218878  38.273  37.920   9.048
 1113POPC   C1A18879  38.510  37.563   8.690
 1113POPC   D2A18880  38.672  37.368   8.288
 1113POPC   C3A18881  38.341  37.336   7.955
 1113POPC   C4A18882  38.156  37.716   7.805
 1113POPC   C1B18883  38.662  37.990   8.886
 1113POPC   C2B18884  38.616  38.010   8.442
 1113POPC   C3B18885  38.556  38.212   8.067
 1113POPC   C4B18886  38.563  38.015   7.687
 1114POPC   NC318887  24.413  43.629   9.709
 1114POPC   PO418888  24.018  44.120   9.521
 1114POPC   GL118889  24.414  43.993   9.325
 1114POPC   GL218890  24.285  43.715   9.226
 1114POPC   C1A18891  24.643  43.872   8.916
 1114POPC   D2A18892  24.472  43.931   8.495
 1114POPC   C3A18893  24.617  43.696   8.169
 1114POPC   C4A18894  24.801  43.821   7.768
 1114POPC   C1B18895  24.119  43.890   8.861
 1114POPC   C2B18896  24.099  43.568   8.554
 1114POPC   C3B18897  24.093  43.556   8.080
 1114POPC   C4B18898  24.285  43.828   7.788
 1115POPC   NC318899  34.881   8.304   9.713
 1115POPC   PO418900  35.280   7.834   9.580
 1115POPC   GL118901  35.176   7.952   9.173
 1115POPC   GL218902  34.980   8.265   9.182
 1115POPC   C1A18903  35.354   7.895   8.774
 1115POPC   D2A18904  35.533   8.143   8.445
 1115POPC   C3A18905  35.324   7.978   8.085
 1115POPC   C4A18906  35.506   7.948   7.682
 1115POPC   C1B18907  35.333   8.369   8.926
 1115POPC   C2B18908  35.567   8.596   8.667
 1115POPC   C3B18909  35.429   8.622   8.246
 1115POPC   C4B18910  35.302   8.421   7.860
 1116POPC   NC318911  38.984  37.212   9.537
 1116POPC   PO418912  39.582  36.937   9.389
 1116POPC   GL118913  39.236  36.903   9.157
 1116POPC   GL218914  38.937  36.724   9.321
 1116POPC   C1A18915  39.270  37.062   8.748
 1116POPC   D2A18916  39.453  37.078   8.314
 1116POPC   C3A18917  39.397  36.869   7.927
 1116POPC   C4A18918  39.454  36.827   7.471
 1116POPC   C1B18919  38.913  36.661   8.863
 1116POPC   C2B18920  38.995  36.807   8.422
 1116POPC   C3B18921  38.978  36.605   8.049
 1116POPC   C4B18922  39.017  36.602   7.631
 1117POPC   NC318923   2.214  18.515   9.321
 1117POPC   PO418924   1.937  19.087   9.563
 1117POPC   GL118925   2.067  19.076   9.138
 1117POPC   GL218926   1.860  18.821   9.042
 1117POPC   C1A18927   2.004  19.169   8.685
 1117POPC   D2A18928   1.713  19.052   8.340
 1117POPC   C3A18929   1.797  19.329   7.990
 1117POPC   C4A18930   2.182  19.292   7.771
 1117POPC   C1B18931   2.083  18.640   8.704
 1117POPC   C2B18932   2.084  18.503   8.271
 1117POPC   C3B18933   1.994  18.812   7.949
 1117POPC   C4B18934   1.559  18.908   7.850
 1118POPC   NC318935  12.281  11.308   9.626
 1118POPC   PO418936  11.784  11.552   9.815
 1118POPC   GL118937  11.854  11.191   9.362
 1118POPC   GL218938  12.183  11.102   9.171
 1118POPC   C1A18939  11.694  11.089   8.908
 1118POPC   D2A18940  11.669  11.272   8.447
 1118POPC   C3A18941  11.883  11.123   8.034
 1118POPC   C4A18942  11.933  11.247   7.627
 1118POPC   C1B18943  12.125  11.324   8.773
 1118POPC   C2B18944  12.221  11.284   8.371
 1118POPC   C3B18945  12.206  11.535   8.026
 1118POPC   C4B18946  12.382  11.457   7.684
 1119POPC   NC318947   7.782  41.305   9.517
 1119POPC   PO418948   7.104  41.564   9.430
 1119POPC   GL118949   7.454  41.480   9.143
 1119POPC   GL218950   7.744  41.699   9.173
 1119POPC   C1A18951   7.528  41.287   8.753
 1119POPC   D2A18952   7.783  41.276   8.385
 1119POPC   C3A18953   7.591  41.327   7.980
 1119POPC   C4A18954   7.354  41.267   7.620
 1119POPC   C1B18955   7.540  41.794   8.749
 1119POPC   C2B18956   7.347  41.601   8.365
 1119POPC   C3B18957   7.205  41.696   7.938
 1119POPC   C4B18958   7.016  42.009   7.644
 1120POPC   NC318959  13.261  35.103   9.326
 1120POPC   PO418960  12.611  35.247   9.509
 1120POPC   GL118961  12.800  35.131   9.120
 1120POPC   GL218962  13.023  35.434   9.031
 1120POPC   C1A18963  12.859  35.073   8.671
 1120POPC   D2A18964  12.938  35.399   8.349
 1120POPC   C3A18965  12.790  35.352   7.921
 1120POPC   C4A18966  12.430  35.280   7.676
 1120POPC   C1B18967  13.256  35.693   8.739
 1120POPC   C2B18968  13.387  35.635   8.328
 1120POPC   C3B18969  13.257  35.719   7.906
 1120POPC   C4B18970  13.167  35.405   7.577
 1121POPC   NC318971  11.834   6.386   9.432
 1121POPC   PO418972  11.419   6.949   9.494
 1121POPC   GL118973  11.412   6.727   9.108
 1121POPC   GL218974  11.255   6.435   9.055
 1121POPC   C1A18975  11.278   6.779   8.697
 1121POPC   D2A18976  11.439   6.616   8.354
 1121POPC   C3A18977  11.499   6.966   8.155
 1121POPC   C4A18978  11.484   6.823   7.752
 1121POPC   C1B18979  11.291   6.255   8.687
 1121POPC   C2B18980  11.017   6.306   8.364
 1121POPC   C3B18981  11.121   6.356   7.964
 1121POPC   C4B18982  11.437   6.316   7.702
 1122POPC   NC318983   3.896  26.751   9.485
 1122POPC   PO418984   3.365  26.656   9.651
 1122POPC   GL118985   3.422  26.717   9.195
 1122POPC   GL218986   3.109  26.658   9.057
 1122POPC   C1A18987   3.472  26.736   8.699
 1122POPC   D2A18988   3.407  26.529   8.270
 1122POPC   C3A18989   3.647  26.681   7.905
 1122POPC   C4A18990   3.571  27.073   7.655
 1122POPC   C1B18991   2.967  26.876   8.659
 1122POPC   C2B18992   2.922  26.733   8.233
 1122POPC   C3B18993   3.160  26.818   7.893
 1122POPC   C4B18994   3.298  26.621   7.516
 1123POPC   NC318995  29.446  41.970   9.563
 1123POPC   PO418996  28.995  41.443   9.862
 1123POPC   GL118997  29.112  41.489   9.370
 1123POPC   GL218998  29.244  41.786   9.141
 1123POPC   C1A18999  29.165  41.292   8.919
 1123POPC   D2A19000  29.440  41.216   8.498
 1123POPC   C3A19001  29.284  41.300   8.032
 1123POPC   C4A19002  28.919  41.493   7.855
 1123POPC   C1B19003  29.426  41.673   8.742
 1123POPC   C2B19004  29.147  41.628   8.408
 1123POPC   C3B19005  29.085  41.915   8.080
 1123POPC   C4B19006  29.276  41.852   7.708
 1124POPC   NC319007  12.894  33.716   9.593
 1124POPC   PO419008  12.498  34.262   9.643
 1124POPC   GL119009  12.534  34.030   9.237
 1124POPC   GL219010  12.882  33.972   9.161
 1124POPC   C1A19011  12.583  34.101   8.771
 1124POPC   D2A19012  12.731  34.036   8.356
 1124POPC   C3A19013  12.457  33.775   8.115
 1124POPC   C4A19014  12.649  33.780   7.739
 1124POPC   C1B19015  13.061  33.887   8.774
 1124POPC   C2B19016  13.191  33.761   8.378
 1124POPC   C3B19017  13.099  33.805   7.957
 1124POPC   C4B19018  13.215  33.587   7.570
 1125POPC   NC319019  14.091  19.709   9.369
 1125POPC   PO419020  13.477  19.474   9.554
 1125POPC   GL119021  13.571  19.758   9.189
 1125POPC   GL219022  13.437  20.116   9.144
 1125POPC   C1A19023  13.485  19.725   8.743
 1125POPC   D2A19024  13.668  19.585   8.354
 1125POPC   C3A19025  13.404  19.703   8.021
 1125POPC   C4A19026  13.603  19.611   7.681
 1125POPC   C1B19027  13.719  20.179   8.759
 1125POPC   C2B19028  13.620  20.093   8.360
 1125POPC   C3B19029  13.780  20.081   7.970
 1125POPC   C4B19030  13.514  20.146   7.643
 1126POPC   NC319031  11.679   8.802   9.500
 1126POPC   PO419032  11.109   9.078   9.732
 1126POPC   GL119033  11.187   8.932   9.267
 1126POPC   GL219034  10.985   8.634   9.180
 1126POPC   C1A19035  11.362   8.789   8.832
 1126POPC   D2A19036  11.357   8.642   8.371
 1126POPC   C3A19037  11.240   8.924   8.020
 1126POPC   C4A19038  11.454   9.111   7.649
 1126POPC   C1B19039  10.842   8.782   8.762
 1126POPC   C2B19040  10.825   8.661   8.325
 1126POPC   C3B19041  10.839   8.594   7.884
 1126POPC   C4B19042  11.016   8.795   7.563
 1127POPC   NC319043  25.429  26.903   9.466
 1127POPC   PO419044  25.244  26.271   9.611
 1127POPC   GL119045  25.220  26.511   9.196
 1127POPC   GL219046  24.875  26.432   9.097
 1127POPC   C1A19047  25.399  26.768   8.800
 1127POPC   D2A19048  25.491  26.719   8.339
 1127POPC   C3A19049  25.599  26.899   7.916
 1127POPC   C4A19050  25.278  27.011   7.596
 1127POPC   C1B19051  25.060  26.398   8.720
 1127POPC   C2B19052  24.982  26.707   8.425
 1127POPC   C3B19053  25.097  26.787   8.019
 1127POPC   C4B19054  25.260  26.501   7.747
 1128POPC   NC319055   3.159  42.643   9.423
 1128POPC   PO419056   2.584  42.968   9.710
 1128POPC   GL119057   2.802  42.998   9.279
 1128POPC   GL219058   2.831  43.349   9.105
 1128POPC   C1A19059   2.742  42.947   8.830
 1128POPC   D2A19060   2.899  43.255   8.543
 1128POPC   C3A19061   2.926  43.153   8.116
 1128POPC   C4A19062   2.845  43.022   7.721
 1128POPC   C1B19063   2.505  43.462   8.806
 1128POPC   C2B19064   2.464  43.589   8.407
 1128POPC   C3B19065   2.544  43.479   7.999
 1128POPC   C4B19066   2.662  43.516   7.589
 1129POPC   NC319067  39.655  15.719   9.515
 1129POPC   PO419068  39.054  16.175   9.572
 1129POPC   GL119069  39.110  15.994   9.208
 1129POPC   GL219070  39.438  15.855   9.092
 1129POPC   C1A19071  39.162  16.192   8.853
 1129POPC   D2A19072  39.372  16.046   8.541
 1129POPC   C3A19073  39.183  16.046   8.119
 1129POPC   C4A19074  39.240  16.176   7.708
 1129POPC   C1B19075  39.146  15.659   8.808
 1129POPC   C2B19076  39.203  15.588   8.401
 1129POPC   C3B19077  39.575  15.748   8.196
 1129POPC   C4B19078  39.577  15.746   7.796
 1130POPC   NC319079   5.358  22.289   9.552
 1130POPC   PO419080   4.743  22.242   9.526
 1130POPC   GL119081   4.937  22.131   9.149
 1130POPC   GL219082   5.214  21.948   9.177
 1130POPC   C1A19083   4.894  22.070   8.720
 1130POPC   D2A19084   4.845  22.246   8.339
 1130POPC   C3A19085   5.148  22.152   8.042
 1130POPC   C4A19086   5.089  22.011   7.662
 1130POPC   C1B19087   5.377  22.153   8.810
 1130POPC   C2B19088   5.524  22.206   8.390
 1130POPC   C3B19089   5.624  22.380   7.985
 1130POPC   C4B19090   5.360  22.432   7.600
 1131POPC   NC319091  28.129  17.611   9.603
 1131POPC   PO419092  28.713  17.516   9.331
 1131POPC   GL119093  28.318  17.501   9.113
 1131POPC   GL219094  28.476  17.297   8.868
 1131POPC   C1A19095  28.052  17.656   8.771
 1131POPC   D2A19096  27.901  17.629   8.333
 1131POPC   C3A19097  28.151  17.451   7.983
 1131POPC   C4A19098  28.437  17.568   7.672
 1131POPC   C1B19099  28.843  17.128   8.628
 1131POPC   C2B19100  28.864  17.178   8.179
 1131POPC   C3B19101  28.580  17.087   7.844
 1131POPC   C4B19102  28.271  17.109   7.499
 1132POPC   NC319103  37.217  41.046   9.614
 1132POPC   PO419104  36.943  40.453   9.611
 1132POPC   GL119105  36.995  40.514   9.137
 1132POPC   GL219106  37.092  40.852   9.033
 1132POPC   C1A19107  36.939  40.544   8.641
 1132POPC   D2A19108  36.962  40.705   8.175
 1132POPC   C3A19109  36.782  40.491   7.794
 1132POPC   C4A19110  36.655  40.195   7.441
 1132POPC   C1B19111  37.283  40.936   8.594
 1132POPC   C2B19112  37.412  40.955   8.132
 1132POPC   C3B19113  37.209  40.855   7.725
 1132POPC   C4B19114  37.294  40.859   7.277
 1133POPC   NC319115  33.518  12.748   9.445
 1133POPC   PO419116  34.068  12.519   9.570
 1133POPC   GL119117  34.003  12.666   9.149
 1133POPC   GL219118  33.771  12.935   9.052
 1133POPC   C1A19119  34.025  12.651   8.691
 1133POPC   D2A19120  33.690  12.805   8.425
 1133POPC   C3A19121  33.724  12.971   8.015
 1133POPC   C4A19122  33.782  12.786   7.605
 1133POPC   C1B19123  33.554  13.193   8.744
 1133POPC   C2B19124  33.276  13.104   8.400
 1133POPC   C3B19125  33.291  13.300   8.008
 1133POPC   C4B19126  33.461  13.184   7.631
 1134POPC   NC319127  42.949  18.543   9.536
 1134POPC   PO419128  43.534  18.208   9.444
 1134POPC   GL119129  43.125  18.143   9.220
 1134POPC   GL219130  43.078  18.480   9.057
 1134POPC   C1A19131  42.915  18.056   8.828
 1134POPC   D2A19132  42.977  18.294   8.421
 1134POPC   C3A19133  43.075  18.054   8.036
 1134POPC   C4A19134  42.896  17.797   7.700
 1134POPC   C1B19135  43.046  18.816   8.776
 1134POPC   C2B19136  43.202  18.804   8.371
 1134POPC   C3B19137  42.973  18.683   8.011
 1134POPC   C4B19138  43.194  18.559   7.650
 1135POPC   NC319139  10.178  40.884   9.666
 1135POPC   PO419140  10.821  40.716   9.579
 1135POPC   GL119141  10.505  40.778   9.221
 1135POPC   GL219142  10.205  40.557   9.257
 1135POPC   C1A19143  10.636  40.865   8.766
 1135POPC   D2A19144  10.835  40.947   8.348
 1135POPC   C3A19145  10.597  40.796   7.983
 1135POPC   C4A19146  10.580  40.496   7.626
 1135POPC   C1B19147  10.151  40.643   8.814
 1135POPC   C2B19148  10.305  40.741   8.391
 1135POPC   C3B19149  10.178  40.500   8.000
 1135POPC   C4B19150  10.051  40.490   7.586
 1136POPC   NC319151  36.904  20.114   9.525
 1136POPC   PO419152  37.111  20.773   9.404
 1136POPC   GL119153  36.835  20.522   9.180
 1136POPC   GL219154  36.653  20.815   9.035
 1136POPC   C1A19155  36.767  20.413   8.760
 1136POPC   D2A19156  36.729  20.717   8.429
 1136POPC   C3A19157  36.557  20.489   8.106
 1136POPC   C4A19158  36.776  20.509   7.733
 1136POPC   C1B19159  37.011  20.994   8.787
 1136POPC   C2B19160  37.162  20.983   8.352
 1136POPC   C3B19161  37.040  20.928   7.928
 1136POPC   C4B19162  37.326  20.912   7.583
 1137POPC   NC319163  40.195  40.925   9.571
 1137POPC   PO419164  39.594  40.610   9.448
 1137POPC   GL119165  39.835  40.905   9.223
 1137POPC   GL219166  40.064  40.674   9.112
 1137POPC   C1A19167  39.800  41.024   8.812
 1137POPC   D2A19168  39.909  40.751   8.454
 1137POPC   C3A19169  39.950  40.863   8.024
 1137POPC   C4A19170  40.122  40.573   7.741
 1137POPC   C1B19171  40.290  41.004   8.905
 1137POPC   C2B19172  40.360  41.056   8.467
 1137POPC   C3B19173  40.462  40.961   8.060
 1137POPC   C4B19174  40.466  41.144   7.696
 1138POPC   NC319175  34.141   6.046   9.610
 1138POPC   PO419176  33.436   5.869   9.584
 1138POPC   GL119177  33.661   5.724   9.227
 1138POPC   GL219178  33.879   6.006   9.150
 1138POPC   C1A19179  33.659   5.737   8.774
 1138POPC   D2A19180  33.414   5.944   8.444
 1138POPC   C3A19181  33.581   6.005   8.024
 1138POPC   C4A19182  33.872   5.676   7.883
 1138POPC   C1B19183  33.954   6.140   8.713
 1138POPC   C2B19184  34.019   5.967   8.305
 1138POPC   C3B19185  34.076   6.135   7.884
 1138POPC   C4B19186  34.092   6.038   7.411
 1139POPC   NC319187  37.598  26.613   9.495
 1139POPC   PO419188  37.774  27.329   9.552
 1139POPC   GL119189  37.785  26.988   9.195
 1139POPC   GL219190  37.432  26.881   9.113
 1139POPC   C1A19191  37.720  26.722   8.756
 1139POPC   D2A19192  37.757  26.877   8.370
 1139POPC   C3A19193  37.846  26.663   8.003
 1139POPC   C4A19194  38.042  26.294   7.825
 1139POPC   C1B19195  37.171  27.032   8.793
 1139POPC   C2B19196  37.335  27.198   8.414
 1139POPC   C3B19197  37.396  27.016   8.037
 1139POPC   C4B19198  37.192  27.150   7.722
 1140POPC   NC319199  22.517  12.320   9.841
 1140POPC   PO419200  22.986  11.906   9.601
 1140POPC   GL119201  22.969  11.990   9.170
 1140POPC   GL219202  22.826  12.320   9.136
 1140POPC   C1A19203  22.948  12.037   8.715
 1140POPC   D2A19204  22.630  12.067   8.374
 1140POPC   C3A19205  22.768  12.147   7.928
 1140POPC   C4A19206  23.030  11.994   7.562
 1140POPC   C1B19207  22.708  12.488   8.709
 1140POPC   C2B19208  22.631  12.564   8.277
 1140POPC   C3B19209  22.858  12.668   7.924
 1140POPC   C4B19210  22.835  12.500   7.521
 1141POPC   NC319211  20.983   0.159   9.903
 1141POPC   PO419212  21.322   0.550   9.447
 1141POPC   GL119213  21.434   0.407   9.078
 1141POPC   GL219214  21.121   0.529   8.960
 1141POPC   C1A19215  21.603   0.539   8.695
 1141POPC   D2A19216  21.393   0.725   8.332
 1141POPC   C3A19217  21.590   0.557   7.984
 1141POPC   C4A19218  21.672   0.772   7.627
 1141POPC   C1B19219  21.132   0.368   8.566
 1141POPC   C2B19220  21.303   0.189   8.189
 1141POPC   C3B19221  21.127   0.389   7.799
 1141POPC   C4B19222  21.081   0.184   7.345
 1142POPC   NC319223   8.535  40.351   9.566
 1142POPC   PO419224   8.001  40.862   9.593
 1142POPC   GL119225   8.287  40.705   9.280
 1142POPC   GL219226   8.513  40.972   9.175
 1142POPC   C1A19227   8.357  40.573   8.863
 1142POPC   D2A19228   8.078  40.538   8.506
 1142POPC   C3A19229   8.076  40.879   8.215
 1142POPC   C4A19230   8.242  40.748   7.835
 1142POPC   C1B19231   8.719  40.959   8.780
 1142POPC   C2B19232   8.572  40.928   8.331
 1142POPC   C3B19233   8.710  41.024   7.912
 1142POPC   C4B19234   8.486  41.058   7.517
 1143POPC   NC319235   1.492   3.340   9.545
 1143POPC   PO419236   0.934   3.720   9.688
 1143POPC   GL119237   0.961   3.709   9.212
 1143POPC   GL219238   1.333   3.749   9.206
 1143POPC   C1A19239   1.038   3.741   8.738
 1143POPC   D2A19240   1.097   3.418   8.397
 1143POPC   C3A19241   0.936   3.504   7.980
 1143POPC   C4A19242   1.049   3.593   7.535
 1143POPC   C1B19243   1.571   3.753   8.804
 1143POPC   C2B19244   1.434   3.789   8.364
 1143POPC   C3B19245   1.435   3.543   7.979
 1143POPC   C4B19246   1.551   3.661   7.584
 1144POPC   NC319247  41.845  19.991   9.550
 1144POPC   PO419248  42.462  19.841   9.554
 1144POPC   GL119249  42.367  19.740   9.196
 1144POPC   GL219250  42.065  19.578   9.237
 1144POPC   C1A19251  42.490  20.038   8.888
 1144POPC   D2A19252  42.384  20.076   8.477
 1144POPC   C3A19253  42.651  19.923   8.150
 1144POPC   C4A19254  42.563  20.051   7.729
 1144POPC   C1B19255  42.035  19.832   8.841
 1144POPC   C2B19256  41.935  19.830   8.421
 1144POPC   C3B19257  42.136  19.938   8.054
 1144POPC   C4B19258  42.238  19.683   7.744
 1145POPC   NC319259  34.620  17.089   9.290
 1145POPC   PO419260  34.386  17.588   9.763
 1145POPC   GL119261  34.437  17.577   9.251
 1145POPC   GL219262  34.737  17.498   9.014
 1145POPC   C1A19263  34.300  17.451   8.802
 1145POPC   D2A19264  34.524  17.335   8.427
 1145POPC   C3A19265  34.407  17.472   8.028
 1145POPC   C4A19266  34.488  17.398   7.609
 1145POPC   C1B19267  34.895  17.698   8.665
 1145POPC   C2B19268  34.829  17.712   8.224
 1145POPC   C3B19269  34.883  17.645   7.806
 1145POPC   C4B19270  34.967  17.227   7.640
 1146POPC   NC319271  37.324  20.356   9.312
 1146POPC   PO419272  37.787  20.801   9.554
 1146POPC   GL119273  37.728  20.638   9.163
 1146POPC   GL219274  37.430  20.766   8.992
 1146POPC   C1A19275  37.833  20.589   8.728
 1146POPC   D2A19276  37.638  20.858   8.449
 1146POPC   C3A19277  37.556  20.716   8.058
 1146POPC   C4A19278  37.762  20.615   7.675
 1146POPC   C1B19279  37.242  20.556   8.621
 1146POPC   C2B19280  37.102  20.474   8.181
 1146POPC   C3B19281  37.278  20.419   7.761
 1146POPC   C4B19282  37.309  20.452   7.307
 1147POPC   NC319283   6.076  11.426   9.546
 1147POPC   PO419284   5.649  10.963   9.705
 1147POPC   GL119285   5.897  11.014   9.298
 1147POPC   GL219286   5.714  11.322   9.199
 1147POPC   C1A19287   6.132  11.222   8.915
 1147POPC   D2A19288   6.283  11.207   8.469
 1147POPC   C3A19289   5.958  11.199   8.205
 1147POPC   C4A19290   5.694  11.151   7.854
 1147POPC   C1B19291   5.876  11.689   8.926
 1147POPC   C2B19292   5.858  11.797   8.470
 1147POPC   C3B19293   5.774  11.660   8.065
 1147POPC   C4B19294   6.030  11.587   7.727
 1148POPC   NC319295  40.942  32.729   9.468
 1148POPC   PO419296  40.506  33.128   9.358
 1148POPC   GL119297  40.729  32.963   9.052
 1148POPC   GL219298  41.108  33.060   9.079
 1148POPC   C1A19299  40.549  32.832   8.651
 1148POPC   D2A19300  40.491  32.616   8.232
 1148POPC   C3A19301  40.447  32.905   7.862
 1148POPC   C4A19302  40.445  33.192   7.466
 1148POPC   C1B19303  41.066  32.730   8.760
 1148POPC   C2B19304  40.954  32.772   8.344
 1148POPC   C3B19305  40.976  32.823   7.915
 1148POPC   C4B19306  40.888  33.195   7.720
 1149POPC   NC319307  31.698  28.179   9.443
 1149POPC   PO419308  31.204  28.670   9.509
 1149POPC   GL119309  31.386  28.449   9.112
 1149POPC   GL219310  31.446  28.076   9.015
 1149POPC   C1A19311  31.422  28.423   8.644
 1149POPC   D2A19312  31.452  28.652   8.290
 1149POPC   C3A19313  31.634  28.414   7.988
 1149POPC   C4A19314  31.489  28.251   7.613
 1149POPC   C1B19315  31.791  28.043   8.664
 1149POPC   C2B19316  31.920  28.070   8.214
 1149POPC   C3B19317  31.614  27.876   7.920
 1149POPC   C4B19318  31.149  27.920   7.813
 1150POPC   NC319319  16.612   7.619   9.477
 1150POPC   PO419320  16.666   6.966   9.501
 1150POPC   GL119321  16.635   7.266   9.069
 1150POPC   GL219322  16.398   7.567   8.911
 1150POPC   C1A19323  16.415   7.149   8.651
 1150POPC   D2A19324  16.286   7.265   8.233
 1150POPC   C3A19325  16.634   7.260   7.954
 1150POPC   C4A19326  16.807   7.491   7.630
 1150POPC   C1B19327  16.519   7.777   8.594
 1150POPC   C2B19328  16.851   7.555   8.452
 1150POPC   C3B19329  16.967   7.647   8.087
 1150POPC   C4B19330  16.682   7.940   7.861
 1151POPC   NC319331  37.943   2.162   9.304
 1151POPC   PO419332  38.488   1.814   9.629
 1151POPC   GL119333  38.465   2.012   9.195
 1151POPC   GL219334  38.680   2.325   9.144
 1151POPC   C1A19335  38.480   1.929   8.719
 1151POPC   D2A19336  38.320   2.110   8.294
 1151POPC   C3A19337  38.405   1.894   7.903
 1151POPC   C4A19338  38.761   2.112   7.733
 1151POPC   C1B19339  38.337   2.404   8.826
 1151POPC   C2B19340  38.014   2.476   8.522
 1151POPC   C3B19341  38.121   2.564   8.107
 1151POPC   C4B19342  38.302   2.376   7.744
 1152POPC   NC319343  40.339  43.962   9.804
 1152POPC   PO419344  40.911  43.810   9.498
 1152POPC   GL119345  40.831  44.089   9.157
 1152POPC   GL219346  40.532  43.956   9.125
 1152POPC   C1A19347  40.871  44.334   8.777
 1152POPC   D2A19348  40.767  44.138   8.403
 1152POPC   C3A19349  41.111  43.986   8.152
 1152POPC   C4A19350  41.129  44.021   7.704
 1152POPC   C1B19351  40.762  43.767   8.774
 1152POPC   C2B19352  40.762  43.628   8.353
 1152POPC   C3B19353  40.755  43.700   7.912
 1152POPC   C4B19354  40.514  43.434   7.671
 1153POPC   NC319355  21.622   1.711   9.585
 1153POPC   PO419356  21.157   2.166   9.570
 1153POPC   GL119357  21.371   2.115   9.179
 1153POPC   GL219358  21.715   1.969   9.164
 1153POPC   C1A19359  21.149   2.107   8.792
 1153POPC   D2A19360  21.190   1.882   8.418
 1153POPC   C3A19361  21.271   2.109   8.052
 1153POPC   C4A19362  21.088   1.843   7.769
 1153POPC   C1B19363  21.608   1.851   8.762
 1153POPC   C2B19364  21.691   1.879   8.370
 1153POPC   C3B19365  21.552   1.674   8.030
 1153POPC   C4B19366  21.663   1.777   7.662
 1154POPC   NC319367  44.248   5.388   9.355
 1154POPC   PO419368  44.737   5.023   9.722
 1154POPC   GL119369  44.751   5.220   9.292
 1154POPC   GL219370  44.520   4.984   9.158
 1154POPC   C1A19371  44.848   5.264   8.817
 1154POPC   D2A19372  44.945   5.209   8.326
 1154POPC   C3A19373  44.870   5.426   7.887
 1154POPC   C4A19374  44.871   5.332   7.435
 1154POPC   C1B19375  44.360   5.085   8.748
 1154POPC   C2B19376  44.453   4.920   8.347
 1154POPC   C3B19377  44.592   4.997   7.946
 1154POPC   C4B19378  44.403   5.306   7.682
 1155POPC   NC319379  16.278  13.916   9.394
 1155POPC   PO419380  16.522  13.367   9.745
 1155POPC   GL119381  16.124  13.464   9.239
 1155POPC   GL219382  16.245  13.655   8.939
 1155POPC   C1A19383  15.820  13.410   8.884
 1155POPC   D2A19384  15.751  13.525   8.462
 1155POPC   C3A19385  15.826  13.401   8.055
 1155POPC   C4A19386  15.820  13.660   7.702
 1155POPC   C1B19387  16.035  13.917   8.668
 1155POPC   C2B19388  16.053  13.892   8.218
 1155POPC   C3B19389  16.279  13.780   7.848
 1155POPC   C4B19390  16.263  13.731   7.403
 1156POPC   NC319391  36.279   3.272   9.459
 1156POPC   PO419392  36.063   2.626   9.607
 1156POPC   GL119393  35.937   2.472   9.192
 1156POPC   GL219394  36.254   2.569   9.030
 1156POPC   C1A19395  35.825   2.594   8.746
 1156POPC   D2A19396  35.746   2.903   8.407
 1156POPC   C3A19397  35.932   2.861   7.984
 1156POPC   C4A19398  36.224   2.531   7.816
 1156POPC   C1B19399  36.206   2.945   8.733
 1156POPC   C2B19400  36.293   3.161   8.325
 1156POPC   C3B19401  36.464   3.008   7.917
 1156POPC   C4B19402  36.501   2.983   7.429
 1157POPC   NC319403  43.952  27.646   9.779
 1157POPC   PO419404  43.630  27.710   9.191
 1157POPC   GL119405  43.879  27.491   8.960
 1157POPC   GL219406  44.178  27.458   9.162
 1157POPC   C1A19407  43.660  27.306   8.631
 1157POPC   D2A19408  43.665  27.128   8.277
 1157POPC   C3A19409  43.423  27.376   8.009
 1157POPC   C4A19410  43.442  27.632   7.596
 1157POPC   C1B19411  44.324  27.490   8.702
 1157POPC   C2B19412  44.026  27.517   8.339
 1157POPC   C3B19413  43.840  27.634   7.944
 1157POPC   C4B19414  43.955  27.602   7.501
 1158POPC   NC319415  22.124  13.407   9.684
 1158POPC   PO419416  22.217  13.997   9.482
 1158POPC   GL119417  22.017  13.651   9.230
 1158POPC   GL219418  22.228  13.788   8.991
 1158POPC   C1A19419  21.996  13.360   8.848
 1158POPC   D2A19420  22.240  13.441   8.467
 1158POPC   C3A19421  22.130  13.393   8.030
 1158POPC   C4A19422  22.365  13.541   7.636
 1158POPC   C1B19423  21.916  13.844   8.704
 1158POPC   C2B19424  22.039  13.883   8.305
 1158POPC   C3B19425  22.386  13.850   8.050
 1158POPC   C4B19426  22.073  13.955   7.776
 1159POPC   NC319427  17.363  24.670   9.330
 1159POPC   PO419428  17.606  24.102   9.578
 1159POPC   GL119429  17.503  24.239   9.087
 1159POPC   GL219430  17.703  24.578   8.939
 1159POPC   C1A19431  17.301  24.399   8.709
 1159POPC   D2A19432  17.517  24.629   8.389
 1159POPC   C3A19433  17.301  24.506   8.035
 1159POPC   C4A19434  17.125  24.441   7.650
 1159POPC   C1B19435  17.981  24.794   8.640
 1159POPC   C2B19436  18.043  24.784   8.192
 1159POPC   C3B19437  17.791  24.527   7.910
 1159POPC   C4B19438  17.778  24.073   7.909
 1160POPC   NC319439   8.037  18.852   9.451
 1160POPC   PO419440   8.684  19.085   9.379
 1160POPC   GL119441   8.326  19.163   9.095
 1160POPC   GL219442   7.936  19.091   9.016
 1160POPC   C1A19443   8.319  19.434   8.746
 1160POPC   D2A19444   8.212  19.505   8.331
 1160POPC   C3A19445   8.461  19.280   8.060
 1160POPC   C4A19446   8.365  18.987   7.728
 1160POPC   C1B19447   8.178  18.769   8.803
 1160POPC   C2B19448   8.347  18.960   8.466
 1160POPC   C3B19449   8.100  18.892   8.135
 1160POPC   C4B19450   8.158  18.530   7.814
 1161POPC   NC319451  38.768   6.734   9.482
 1161POPC   PO419452  38.107   6.482   9.403
 1161POPC   GL119453  38.284   6.603   9.030
 1161POPC   GL219454  38.580   6.814   9.021
 1161POPC   C1A19455  38.388   6.571   8.619
 1161POPC   D2A19456  38.739   6.455   8.405
 1161POPC   C3A19457  38.591   6.427   8.056
 1161POPC   C4A19458  38.762   6.588   7.725
 1161POPC   C1B19459  38.322   7.058   8.706
 1161POPC   C2B19460  38.329   6.894   8.240
 1161POPC   C3B19461  38.317   6.868   7.824
 1161POPC   C4B19462  38.122   7.125   7.510
 1162POPC   NC319463  44.326   5.254   9.843
 1162POPC   PO419464  44.582   5.724   9.362
 1162POPC   GL119465  44.805   5.756   9.007
 1162POPC   GL219466   0.073   5.994   9.099
 1162POPC   C1A19467  44.671   5.672   8.575
 1162POPC   D2A19468  44.491   5.463   8.208
 1162POPC   C3A19469  44.340   5.763   7.887
 1162POPC   C4A19470  44.419   6.231   7.927
 1162POPC   C1B19471   0.035   6.117   8.683
 1162POPC   C2B19472  44.743   6.137   8.367
 1162POPC   C3B19473  44.801   5.910   8.030
 1162POPC   C4B19474  44.911   6.147   7.741
 1163POPC   NC319475  21.853  34.313   9.550
 1163POPC   PO419476  22.138  34.809   9.432
 1163POPC   GL119477  22.020  34.518   9.106
 1163POPC   GL219478  22.303  34.313   9.033
 1163POPC   C1A19479  21.934  34.658   8.688
 1163POPC   D2A19480  22.152  34.755   8.313
 1163POPC   C3A19481  21.979  34.580   7.989
 1163POPC   C4A19482  22.014  34.580   7.566
 1163POPC   C1B19483  22.299  34.318   8.590
 1163POPC   C2B19484  22.289  34.191   8.193
 1163POPC   C3B19485  22.276  34.177   7.766
 1163POPC   C4B19486  22.478  34.387   7.413
 1164POPC   NC319487  26.448   6.138   9.656
 1164POPC   PO419488  26.970   5.694   9.448
 1164POPC   GL119489  26.983   5.740   9.037
 1164POPC   GL219490  27.288   5.560   8.996
 1164POPC   C1A19491  26.904   5.681   8.597
 1164POPC   D2A19492  26.611   5.582   8.297
 1164POPC   C3A19493  26.688   5.976   8.081
 1164POPC   C4A19494  26.786   6.031   7.664
 1164POPC   C1B19495  27.338   5.932   8.704
 1164POPC   C2B19496  27.226   6.273   8.405
 1164POPC   C3B19497  27.163   6.201   7.969
 1164POPC   C4B19498  27.295   5.803   7.787
 1165POPC   NC319499   2.957  30.477   9.428
 1165POPC   PO419500   2.273  30.689   9.452
 1165POPC   GL119501   2.576  30.648   9.130
 1165POPC   GL219502   2.768  30.973   9.136
 1165POPC   C1A19503   2.795  30.676   8.714
 1165POPC   D2A19504   2.911  30.425   8.367
 1165POPC   C3A19505   2.602  30.393   8.076
 1165POPC   C4A19506   2.817  30.612   7.768
 1165POPC   C1B19507   2.418  31.006   8.814
 1165POPC   C2B19508   2.350  30.795   8.425
 1165POPC   C3B19509   2.715  30.880   8.189
 1165POPC   C4B19510   2.742  31.116   7.815
 1166POPC   NC319511  13.214  15.863   9.476
 1166POPC   PO419512  12.867  16.356   9.392
 1166POPC   GL119513  12.789  16.104   9.059
 1166POPC   GL219514  12.763  15.755   9.208
 1166POPC   C1A19515  12.894  16.156   8.629
 1166POPC   D2A19516  12.663  16.149   8.252
 1166POPC   C3A19517  12.950  16.147   7.930
 1166POPC   C4A19518  12.839  16.171   7.520
 1166POPC   C1B19519  12.773  15.673   8.778
 1166POPC   C2B19520  12.647  15.643   8.372
 1166POPC   C3B19521  12.838  15.642   7.994
 1166POPC   C4B19522  13.102  15.717   7.653
 1167POPC   NC319523  30.044  44.836   9.972
 1167POPC   PO419524  30.276  44.958   9.343
 1167POPC   GL119525  30.068  44.865   8.979
 1167POPC   GL219526  29.680  44.818   9.072
 1167POPC   C1A19527  30.102  44.451   8.750
 1167POPC   D2A19528  30.212  44.254   8.364
 1167POPC   C3A19529  30.093  44.589   8.127
 1167POPC   C4A19530  30.135  44.826   7.776
 1167POPC   C1B19531  29.725  44.785   8.623
 1167POPC   C2B19532  29.593  44.628   8.265
 1167POPC   C3B19533  29.645  44.856   7.892
 1167POPC   C4B19534  29.719  44.682   7.479
 1168POPC   NC319535  29.799  29.565   9.501
 1168POPC   PO419536  30.097  28.966   9.525
 1168POPC   GL119537  30.085  29.078   9.107
 1168POPC   GL219538  29.737  29.172   9.069
 1168POPC   C1A19539  30.116  28.867   8.720
 1168POPC   D2A19540  29.945  28.824   8.290
 1168POPC   C3A19541  30.167  28.954   7.921
 1168POPC   C4A19542  30.225  29.383   7.797
 1168POPC   C1B19543  29.606  28.915   8.698
 1168POPC   C2B19544  29.486  29.043   8.304
 1168POPC   C3B19545  29.689  29.167   7.959
 1168POPC   C4B19546  29.764  28.962   7.588
 1169POPC   NC319547   8.998  11.053   9.541
 1169POPC   PO419548   8.820  11.692   9.453
 1169POPC   GL119549   8.994  11.375   9.156
 1169POPC   GL219550   8.792  11.049   9.089
 1169POPC   C1A19551   9.168  11.316   8.778
 1169POPC   D2A19552   8.996  11.523   8.441
 1169POPC   C3A19553   9.129  11.487   8.054
 1169POPC   C4A19554   8.813  11.514   7.711
 1169POPC   C1B19555   8.917  10.856   8.713
 1169POPC   C2B19556   9.093  10.977   8.323
 1169POPC   C3B19557   8.928  11.060   7.890
 1169POPC   C4B19558   9.045  10.977   7.461
 1170POPC   NC319559  35.685  36.314   9.585
 1170POPC   PO419560  35.153  35.844   9.604
 1170POPC   GL119561  35.201  35.753   9.152
 1170POPC   GL219562  34.959  35.984   9.064
 1170POPC   C1A19563  35.419  35.614   8.757
 1170POPC   D2A19564  35.592  35.851   8.396
 1170POPC   C3A19565  35.493  35.885   7.952
 1170POPC   C4A19566  35.398  36.295   7.733
 1170POPC   C1B19567  35.126  36.020   8.643
 1170POPC   C2B19568  35.085  35.807   8.251
 1170POPC   C3B19569  35.016  35.990   7.820
 1170POPC   C4B19570  35.224  35.878   7.416
 1171POPC   NC319571   9.762   8.714   9.585
 1171POPC   PO419572   9.583   9.343   9.391
 1171POPC   GL119573   9.823   9.112   9.109
 1171POPC   GL219574   9.508   9.069   8.946
 1171POPC   C1A19575   9.855   8.751   8.793
 1171POPC   D2A19576   9.469   8.749   8.525
 1171POPC   C3A19577   9.618   8.937   8.154
 1171POPC   C4A19578   9.487   8.925   7.761
 1171POPC   C1B19579   9.714   9.227   8.567
 1171POPC   C2B19580   9.917   9.367   8.162
 1171POPC   C3B19581   9.925   9.214   7.705
 1171POPC   C4B19582   9.825   9.280   7.239
 1172POPC   NC319583  32.053   4.109   9.551
 1172POPC   PO419584  32.645   4.176   9.526
 1172POPC   GL119585  32.387   4.360   9.216
 1172POPC   GL219586  32.134   4.139   9.068
 1172POPC   C1A19587  32.366   4.497   8.807
 1172POPC   D2A19588  32.220   4.253   8.468
 1172POPC   C3A19589  32.348   4.407   8.072
 1172POPC   C4A19590  32.132   4.460   7.694
 1172POPC   C1B19591  31.981   3.909   8.767
 1172POPC   C2B19592  32.101   3.758   8.374
 1172POPC   C3B19593  32.167   3.944   7.976
 1172POPC   C4B19594  31.818   4.030   7.708
 1173POPC   NC319595  12.696  27.579   9.543
 1173POPC   PO419596  13.188  27.867   9.188
 1173POPC   GL119597  12.871  27.696   9.030
 1173POPC   GL219598  12.932  27.386   9.149
 1173POPC   C1A19599  12.849  27.764   8.595
 1173POPC   D2A19600  12.713  27.810   8.195
 1173POPC   C3A19601  13.033  27.819   7.936
 1173POPC   C4A19602  13.131  27.555   7.602
 1173POPC   C1B19603  13.078  27.315   8.720
 1173POPC   C2B19604  13.115  27.444   8.304
 1173POPC   C3B19605  12.864  27.344   7.989
 1173POPC   C4B19606  13.003  27.063   7.763
 1174POPC   NC319607  12.837  12.445   9.704
 1174POPC   PO419608  13.142  13.003   9.478
 1174POPC   GL119609  12.961  12.907   9.114
 1174POPC   GL219610  12.876  12.601   9.210
 1174POPC   C1A19611  12.957  13.040   8.698
 1174POPC   D2A19612  12.909  13.170   8.294
 1174POPC   C3A19613  13.039  13.019   7.921
 1174POPC   C4A19614  12.746  12.725   7.748
 1174POPC   C1B19615  12.774  12.564   8.764
 1174POPC   C2B19616  12.939  12.645   8.333
 1174POPC   C3B19617  13.160  12.508   7.932
 1174POPC   C4B19618  13.062  12.360   7.498
 1175POPC   NC319619  11.109   7.999   9.671
 1175POPC   PO419620  11.635   8.341   9.580
 1175POPC   GL119621  11.385   8.291   9.184
 1175POPC   GL219622  11.337   7.926   9.127
 1175POPC   C1A19623  11.301   8.249   8.707
 1175POPC   D2A19624  11.462   7.925   8.387
 1175POPC   C3A19625  11.517   8.080   7.958
 1175POPC   C4A19626  11.346   8.469   7.804
 1175POPC   C1B19627  11.085   7.774   8.729
 1175POPC   C2B19628  10.838   8.082   8.520
 1175POPC   C3B19629  11.068   8.227   8.185
 1175POPC   C4B19630  11.005   8.091   7.775
 1176POPC   NC319631  18.635   9.474   9.533
 1176POPC   PO419632  18.041   9.811   9.606
 1176POPC   GL119633  18.286   9.769   9.196
 1176POPC   GL219634  18.327   9.435   9.125
 1176POPC   C1A19635  18.402   9.779   8.755
 1176POPC   D2A19636  18.335   9.478   8.409
 1176POPC   C3A19637  18.358   9.648   7.992
 1176POPC   C4A19638  18.377  10.073   7.895
 1176POPC   C1B19639  18.005   9.442   8.804
 1176POPC   C2B19640  17.836   9.516   8.378
 1176POPC   C3B19641  17.995   9.285   8.004
 1176POPC   C4B19642  18.238   9.306   7.593
 1177POPC   NC319643  26.699  18.021   9.335
 1177POPC   PO419644  27.090  18.607   9.343
 1177POPC   GL119645  26.812  18.439   9.057
 1177POPC   GL219646  26.442  18.460   9.100
 1177POPC   C1A19647  26.959  18.335   8.654
 1177POPC   D2A19648  27.148  18.284   8.265
 1177POPC   C3A19649  26.967  18.356   7.877
 1177POPC   C4A19650  27.084  18.465   7.482
 1177POPC   C1B19651  26.467  18.209   8.687
 1177POPC   C2B19652  26.602  18.246   8.209
 1177POPC   C3B19653  26.485  18.221   7.741
 1177POPC   C4B19654  26.332  17.984   7.337
 1178POPC   NC319655  14.545  32.664   9.323
 1178POPC   PO419656  14.275  32.043   9.726
 1178POPC   GL119657  14.442  31.997   9.167
 1178POPC   GL219658  14.435  32.326   8.981
 1178POPC   C1A19659  14.654  31.982   8.734
 1178POPC   D2A19660  14.419  32.172   8.407
 1178POPC   C3A19661  14.396  32.012   7.997
 1178POPC   C4A19662  14.060  32.090   7.679
 1178POPC   C1B19663  14.661  32.562   8.642
 1178POPC   C2B19664  14.702  32.549   8.165
 1178POPC   C3B19665  14.452  32.500   7.786
 1178POPC   C4B19666  14.531  32.533   7.330
 1179POPC   NC319667  38.267  27.131   9.545
 1179POPC   PO419668  38.017  26.548   9.288
 1179POPC   GL119669  38.309  26.845   9.103
 1179POPC   GL219670  38.468  27.217   9.095
 1179POPC   C1A19671  38.141  27.009   8.730
 1179POPC   D2A19672  38.268  27.003   8.301
 1179POPC   C3A19673  38.345  26.600   8.157
 1179POPC   C4A19674  38.402  26.615   7.727
 1179POPC   C1B19675  38.658  27.035   8.747
 1179POPC   C2B19676  38.787  26.848   8.377
 1179POPC   C3B19677  38.715  26.941   7.989
 1179POPC   C4B19678  38.370  27.141   7.784
 1180POPC   NC319679  11.249  41.856   9.276
 1180POPC   PO419680  11.605  41.336   9.604
 1180POPC   GL119681  11.536  41.453   9.183
 1180POPC   GL219682  11.264  41.274   9.040
 1180POPC   C1A19683  11.455  41.641   8.743
 1180POPC   D2A19684  11.261  41.736   8.390
 1180POPC   C3A19685  11.498  41.805   8.048
 1180POPC   C4A19686  11.402  41.696   7.677
 1180POPC   C1B19687  10.995  41.348   8.670
 1180POPC   C2B19688  10.767  41.583   8.349
 1180POPC   C3B19689  10.936  41.654   7.980
 1180POPC   C4B19690  11.158  41.301   7.903
 1181POPC   NC319691  13.359  20.561   9.452
 1181POPC   PO419692  13.906  20.174   9.364
 1181POPC   GL119693  13.746  20.573   9.085
 1181POPC   GL219694  13.434  20.826   9.049
 1181POPC   C1A19695  13.651  20.678   8.629
 1181POPC   D2A19696  13.773  20.561   8.235
 1181POPC   C3A19697  13.732  20.617   7.814
 1181POPC   C4A19698  13.790  20.891   7.455
 1181POPC   C1B19699  13.266  21.007   8.688
 1181POPC   C2B19700  13.355  20.900   8.241
 1181POPC   C3B19701  13.345  20.929   7.784
 1181POPC   C4B19702  13.371  20.621   7.453
 1182POPC   NC319703  42.155  20.942   9.563
 1182POPC   PO419704  42.749  20.671   9.505
 1182POPC   GL119705  42.509  20.512   9.157
 1182POPC   GL219706  42.298  20.799   9.096
 1182POPC   C1A19707  42.437  20.525   8.709
 1182POPC   D2A19708  42.218  20.571   8.328
 1182POPC   C3A19709  42.443  20.647   7.952
 1182POPC   C4A19710  42.649  20.517   7.564
 1182POPC   C1B19711  42.154  20.949   8.683
 1182POPC   C2B19712  41.838  20.997   8.404
 1182POPC   C3B19713  42.091  21.031   8.065
 1182POPC   C4B19714  42.030  20.845   7.683
 1183POPC   NC319715  10.737   4.596   9.605
 1183POPC   PO419716  10.429   4.001   9.609
 1183POPC   GL119717  10.535   4.248   9.249
 1183POPC   GL219718  10.303   4.462   9.098
 1183POPC   C1A19719  10.794   4.446   8.927
 1183POPC   D2A19720  10.897   4.329   8.504
 1183POPC   C3A19721  10.721   4.494   8.121
 1183POPC   C4A19722  10.819   4.359   7.740
 1183POPC   C1B19723  10.303   4.169   8.744
 1183POPC   C2B19724  10.346   4.202   8.290
 1183POPC   C3B19725  10.435   4.019   7.863
 1183POPC   C4B19726  10.305   3.901   7.414
 1184POPC   NC319727  41.106  23.979   9.400
 1184POPC   PO419728  41.806  23.747   9.430
 1184POPC   GL119729  41.578  23.821   9.095
 1184POPC   GL219730  41.796  24.076   8.988
 1184POPC   C1A19731  41.526  23.616   8.704
 1184POPC   D2A19732  41.694  23.690   8.286
 1184POPC   C3A19733  41.407  23.645   7.957
 1184POPC   C4A19734  41.180  23.364   7.705
 1184POPC   C1B19735  41.950  24.098   8.585
 1184POPC   C2B19736  41.864  24.147   8.150
 1184POPC   C3B19737  41.837  23.867   7.780
 1184POPC   C4B19738  41.838  23.572   7.419
 1185POPC   NC319739  41.695  13.686   9.412
 1185POPC   PO419740  41.106  13.878   9.591
 1185POPC   GL119741  41.320  13.775   9.096
 1185POPC   GL219742  41.573  13.510   8.934
 1185POPC   C1A19743  41.525  13.957   8.711
 1185POPC   D2A19744  41.664  13.696   8.370
 1185POPC   C3A19745  41.415  13.788   8.022
 1185POPC   C4A19746  41.298  13.747   7.564
 1185POPC   C1B19747  41.944  13.312   8.725
 1185POPC   C2B19748  42.118  13.118   8.338
 1185POPC   C3B19749  41.952  13.300   7.958
 1185POPC   C4B19750  41.848  13.675   7.793
 1186POPC   NC319751  16.960  12.373   9.463
 1186POPC   PO419752  16.498  11.862   9.442
 1186POPC   GL119753  16.660  12.180   9.112
 1186POPC   GL219754  16.919  11.948   9.032
 1186POPC   C1A19755  16.789  12.312   8.699
 1186POPC   D2A19756  16.813  12.037   8.358
 1186POPC   C3A19757  16.739  12.174   7.962
 1186POPC   C4A19758  16.964  11.868   7.754
 1186POPC   C1B19759  16.528  11.849   8.755
 1186POPC   C2B19760  16.346  11.775   8.342
 1186POPC   C3B19761  16.564  11.648   7.963
 1186POPC   C4B19762  16.589  11.639   7.493
 1187POPC   NC319763  43.087  21.010   9.473
 1187POPC   PO419764  43.255  20.328   9.344
 1187POPC   GL119765  43.265  20.681   9.125
 1187POPC   GL219766  42.927  20.795   9.038
 1187POPC   C1A19767  43.413  20.760   8.743
 1187POPC   D2A19768  43.222  20.638   8.380
 1187POPC   C3A19769  43.434  20.456   8.028
 1187POPC   C4A19770  43.456  20.830   7.787
 1187POPC   C1B19771  42.927  20.439   8.753
 1187POPC   C2B19772  42.755  20.414   8.318
 1187POPC   C3B19773  42.948  20.597   7.962
 1187POPC   C4B19774  43.155  20.478   7.520
 1188POPC   NC319775  21.534   6.360   9.465
 1188POPC   PO419776  21.279   7.019   9.577
 1188POPC   GL119777  21.411   6.953   9.144
 1188POPC   GL219778  21.348   6.596   9.056
 1188POPC   C1A19779  21.363   6.913   8.669
 1188POPC   D2A19780  21.331   6.597   8.350
 1188POPC   C3A19781  21.346   6.666   7.908
 1188POPC   C4A19782  21.233   6.299   7.657
 1188POPC   C1B19783  21.662   6.488   8.744
 1188POPC   C2B19784  21.788   6.319   8.354
 1188POPC   C3B19785  21.680   6.281   7.926
 1188POPC   C4B19786  21.676   6.517   7.538
 1189POPC   NC319787  38.141  24.835   9.445
 1189POPC   PO419788  37.769  25.406   9.477
 1189POPC   GL119789  37.570  25.201   9.096
 1189POPC   GL219790  37.388  25.528   9.035
 1189POPC   C1A19791  37.357  25.161   8.693
 1189POPC   D2A19792  37.313  25.530   8.468
 1189POPC   C3A19793  37.449  25.495   8.060
 1189POPC   C4A19794  37.279  25.480   7.664
 1189POPC   C1B19795  37.778  25.518   8.770
 1189POPC   C2B19796  37.842  25.665   8.362
 1189POPC   C3B19797  37.949  25.430   7.948
 1189POPC   C4B19798  37.787  25.477   7.526
 1190POPC   NC319799  19.513  30.289   9.331
 1190POPC   PO419800  19.031  30.790   9.451
 1190POPC   GL119801  19.032  30.976   9.060
 1190POPC   GL219802  19.081  30.629   8.932
 1190POPC   C1A19803  18.842  30.991   8.657
 1190POPC   D2A19804  18.979  30.660   8.399
 1190POPC   C3A19805  19.079  30.833   8.047
 1190POPC   C4A19806  18.753  30.835   7.797
 1190POPC   C1B19807  19.264  30.323   8.638
 1190POPC   C2B19808  19.224  30.184   8.256
 1190POPC   C3B19809  19.153  30.376   7.848
 1190POPC   C4B19810  19.054  30.610   7.454
 1191POPC   NC319811  12.774   2.362   9.501
 1191POPC   PO419812  12.943   1.754   9.444
 1191POPC   GL119813  12.759   2.007   9.148
 1191POPC   GL219814  13.079   2.141   9.116
 1191POPC   C1A19815  12.786   1.951   8.712
 1191POPC   D2A19816  12.825   1.763   8.315
 1191POPC   C3A19817  12.718   2.009   8.008
 1191POPC   C4A19818  12.945   1.874   7.679
 1191POPC   C1B19819  13.230   2.287   8.741
 1191POPC   C2B19820  13.047   2.246   8.347
 1191POPC   C3B19821  13.162   2.260   7.935
 1191POPC   C4B19822  13.253   2.243   7.507
 1192POPC   NC319823  12.447  16.462   9.246
 1192POPC   PO419824  11.895  16.140   9.350
 1192POPC   GL119825  12.213  16.052   9.067
 1192POPC   GL219826  12.086  16.365   8.903
 1192POPC   C1A19827  12.380  16.017   8.661
 1192POPC   D2A19828  12.174  15.866   8.295
 1192POPC   C3A19829  12.392  15.882   7.894
 1192POPC   C4A19830  12.332  16.088   7.486
 1192POPC   C1B19831  11.832  16.017   8.707
 1192POPC   C2B19832  11.663  16.003   8.302
 1192POPC   C3B19833  11.796  15.842   7.929
 1192POPC   C4B19834  11.853  16.065   7.579
 1193POPC   NC319835  26.515  31.404   9.495
 1193POPC   PO419836  26.877  31.938   9.643
 1193POPC   GL119837  26.778  31.709   9.221
 1193POPC   GL219838  26.946  31.402   9.102
 1193POPC   C1A19839  26.714  31.727   8.763
 1193POPC   D2A19840  26.616  31.517   8.395
 1193POPC   C3A19841  26.667  31.653   7.985
 1193POPC   C4A19842  26.937  31.556   7.640
 1193POPC   C1B19843  26.598  31.225   8.820
 1193POPC   C2B19844  26.564  31.000   8.423
 1193POPC   C3B19845  26.798  31.147   8.083
 1193POPC   C4B19846  26.586  31.181   7.714
 1194POPC   NC319847  39.909   6.090   9.558
 1194POPC   PO419848  39.989   5.472   9.536
 1194POPC   GL119849  40.074   5.763   9.123
 1194POPC   GL219850  39.919   6.103   9.056
 1194POPC   C1A19851  40.070   5.841   8.650
 1194POPC   D2A19852  40.197   5.671   8.253
 1194POPC   C3A19853  39.970   5.719   7.839
 1194POPC   C4A19854  40.212   5.616   7.446
 1194POPC   C1B19855  39.710   6.215   8.685
 1194POPC   C2B19856  39.545   5.947   8.360
 1194POPC   C3B19857  39.548   6.046   7.925
 1194POPC   C4B19858  39.678   6.014   7.492
 1195POPC   NC319859  40.930  26.525   9.491
 1195POPC   PO419860  40.522  25.953   9.422
 1195POPC   GL119861  40.694  25.989   9.063
 1195POPC   GL219862  40.639  26.352   9.080
 1195POPC   C1A19863  40.754  25.721   8.697
 1195POPC   D2A19864  40.639  25.525   8.282
 1195POPC   C3A19865  40.824  25.829   7.960
 1195POPC   C4A19866  40.686  25.867   7.515
 1195POPC   C1B19867  40.966  26.295   8.771
 1195POPC   C2B19868  40.980  26.110   8.384
 1195POPC   C3B19869  40.960  26.335   8.036
 1195POPC   C4B19870  40.924  26.303   7.622
 1196POPC   NC319871  28.729   4.798   9.996
 1196POPC   PO419872  28.288   4.427   9.715
 1196POPC   GL119873  28.257   4.399   9.282
 1196POPC   GL219874  28.277   4.082   9.218
 1196POPC   C1A19875  28.313   4.425   8.822
 1196POPC   D2A19876  28.501   4.406   8.411
 1196POPC   C3A19877  28.207   4.340   8.114
 1196POPC   C4A19878  27.900   4.239   7.807
 1196POPC   C1B19879  28.544   3.972   8.889
 1196POPC   C2B19880  28.470   3.896   8.445
 1196POPC   C3B19881  28.624   3.995   8.039
 1196POPC   C4B19882  28.413   4.132   7.685
 1197POPC   NC319883  22.435   6.786   9.384
 1197POPC   PO419884  23.149   6.875   9.334
 1197POPC   GL119885  22.848   6.680   9.052
 1197POPC   GL219886  22.781   6.334   9.166
 1197POPC   C1A19887  22.656   6.766   8.642
 1197POPC   D2A19888  22.768   6.961   8.237
 1197POPC   C3A19889  22.831   6.777   7.822
 1197POPC   C4A19890  23.011   6.850   7.405
 1197POPC   C1B19891  22.620   6.264   8.726
 1197POPC   C2B19892  22.594   6.413   8.268
 1197POPC   C3B19893  22.662   6.276   7.805
 1197POPC   C4B19894  22.610   6.538   7.420
 1198POPC   NC319895  39.025   7.701   9.499
 1198POPC   PO419896  39.380   7.168   9.621
 1198POPC   GL119897  39.243   7.344   9.220
 1198POPC   GL219898  38.935   7.230   9.276
 1198POPC   C1A19899  39.318   7.416   8.783
 1198POPC   D2A19900  39.249   7.135   8.460
 1198POPC   C3A19901  39.236   7.351   8.092
 1198POPC   C4A19902  39.420   7.476   7.720
 1198POPC   C1B19903  38.879   7.168   8.842
 1198POPC   C2B19904  38.759   6.962   8.473
 1198POPC   C3B19905  38.978   6.826   8.128
 1198POPC   C4B19906  39.076   7.013   7.743
 1199POPC   NC319907  34.637  22.450   9.606
 1199POPC   PO419908  35.042  23.031   9.562
 1199POPC   GL119909  34.829  23.077   9.144
 1199POPC   GL219910  34.478  23.028   9.317
 1199POPC   C1A19911  34.872  23.066   8.661
 1199POPC   D2A19912  34.765  22.733   8.355
 1199POPC   C3A19913  34.626  22.813   7.931
 1199POPC   C4A19914  34.602  23.109   7.594
 1199POPC   C1B19915  34.414  22.990   8.859
 1199POPC   C2B19916  34.341  23.020   8.411
 1199POPC   C3B19917  34.231  23.117   7.964
 1199POPC   C4B19918  34.039  23.127   7.569
 1200POPC   NC319919  35.441   1.735   9.376
 1200POPC   PO419920  35.566   1.080   9.625
 1200POPC   GL119921  35.545   0.990   9.171
 1200POPC   GL219922  35.408   1.321   9.071
 1200POPC   C1A19923  35.445   0.954   8.706
 1200POPC   D2A19924  35.652   1.069   8.340
 1200POPC   C3A19925  35.433   1.158   7.985
 1200POPC   C4A19926  35.622   0.930   7.686
 1200POPC   C1B19927  35.076   1.302   8.745
 1200POPC   C2B19928  35.060   1.065   8.354
 1200POPC   C3B19929  34.898   1.182   7.948
 1200POPC   C4B19930  34.842   1.040   7.522
 1201POPC   NC319931  30.178  35.533   9.467
 1201POPC   PO419932  29.897  36.141   9.721
 1201POPC   GL119933  29.845  35.989   9.303
 1201POPC   GL219934  30.144  35.961   9.166
 1201POPC   C1A19935  29.712  35.935   8.888
 1201POPC   D2A19936  29.933  36.008   8.500
 1201POPC   C3A19937  29.730  36.017   8.086
 1201POPC   C4A19938  29.965  36.236   7.777
 1201POPC   C1B19939  30.248  35.673   8.811
 1201POPC   C2B19940  30.209  35.596   8.363
 1201POPC   C3B19941  30.194  35.865   8.025
 1201POPC   C4B19942  30.393  35.947   7.622
 1202POPC   NC319943  36.001   1.262   9.617
 1202POPC   PO419944  36.540   0.936   9.800
 1202POPC   GL119945  36.385   1.286   9.262
 1202POPC   GL219946  36.000   1.245   9.131
 1202POPC   C1A19947  36.330   1.112   8.779
 1202POPC   D2A19948  36.143   1.212   8.370
 1202POPC   C3A19949  36.054   0.981   7.955
 1202POPC   C4A19950  36.074   0.937   7.453
 1202POPC   C1B19951  35.825   1.284   8.773
 1202POPC   C2B19952  35.813   1.609   8.500
 1202POPC   C3B19953  35.779   1.514   8.089
 1202POPC   C4B19954  35.905   1.378   7.694
 1203POPC   NC319955  34.550  17.144   9.770
 1203POPC   PO419956  34.796  16.659   9.226
 1203POPC   GL119957  34.592  16.768   8.911
 1203POPC   GL219958  34.475  16.480   8.809
 1203POPC   C1A19959  34.289  16.932   8.653
 1203POPC   D2A19960  34.298  16.824   8.222
 1203POPC   C3A19961  34.595  16.972   7.932
 1203POPC   C4A19962  34.583  16.919   7.487
 1203POPC   C1B19963  34.689  16.555   8.462
 1203POPC   C2B19964  34.586  16.402   8.097
 1203POPC   C3B19965  34.533  16.473   7.686
 1203POPC   C4B19966  34.742  16.497   7.248
 1204POPC   NC319967   4.975  39.119   9.458
 1204POPC   PO419968   5.328  39.683   9.450
 1204POPC   GL119969   5.127  39.485   9.144
 1204POPC   GL219970   5.330  39.186   9.075
 1204POPC   C1A19971   4.898  39.271   8.832
 1204POPC   D2A19972   4.873  39.462   8.438
 1204POPC   C3A19973   5.004  39.157   8.188
 1204POPC   C4A19974   4.872  39.108   7.803
 1204POPC   C1B19975   5.330  39.488   8.680
 1204POPC   C2B19976   5.454  39.403   8.271
 1204POPC   C3B19977   5.377  39.272   7.851
 1204POPC   C4B19978   5.331  38.838   7.874
 1205POPC   NC319979   9.912  31.653   9.578
 1205POPC   PO419980   9.289  31.574   9.378
 1205POPC   GL119981   9.560  31.287   9.094
 1205POPC   GL219982   9.941  31.192   9.146
 1205POPC   C1A19983   9.814  31.456   8.722
 1205POPC   D2A19984   9.964  31.725   8.373
 1205POPC   C3A19985   9.692  31.755   8.055
 1205POPC   C4A19986   9.460  31.562   7.767
 1205POPC   C1B19987  10.208  31.136   8.747
 1205POPC   C2B19988  10.227  31.285   8.304
 1205POPC   C3B19989   9.911  31.326   7.950
 1205POPC   C4B19990   9.930  31.394   7.500
 1206POPC   NC319991  39.052   1.816   9.597
 1206POPC   PO419992  39.223   2.492   9.609
 1206POPC   GL119993  39.187   2.199   9.239
 1206POPC   GL219994  39.298   1.848   9.107
 1206POPC   C1A19995  39.101   2.201   8.795
 1206POPC   D2A19996  39.374   1.972   8.507
 1206POPC   C3A19997  39.497   2.100   8.095
 1206POPC   C4A19998  39.245   1.924   7.771
 1206POPC   C1B19999  38.974   1.702   8.743
 1206POPC   C2B20000  38.862   1.490   8.348
 1206POPC   C3B20001  38.850   1.605   7.882
 1206POPC   C4B20002  39.007   1.608   7.431
 1207POPC   NC320003  25.449  28.587   9.529
 1207POPC   PO420004  25.016  28.141   9.702
 1207POPC   GL120005  25.050  28.230   9.230
 1207POPC   GL220006  25.131  28.541   9.151
 1207POPC   C1A20007  25.300  28.205   8.792
 1207POPC   D2A20008  25.573  28.252   8.429
 1207POPC   C3A20009  25.377  28.399   8.059
 1207POPC   C4A20010  25.359  28.286   7.640
 1207POPC   C1B20011  25.114  28.706   8.767
 1207POPC   C2B20012  24.929  28.670   8.386
 1207POPC   C3B20013  25.042  28.858   8.023
 1207POPC   C4B20014  25.245  28.774   7.670
 1208POPC   NC320015   6.895  40.108   9.516
 1208POPC   PO420016   6.249  39.891   9.600
 1208POPC   GL120017   6.544  39.826   9.257
 1208POPC   GL220018   6.504  40.159   9.121
 1208POPC   C1A20019   6.814  39.782   8.869
 1208POPC   D2A20020   6.734  39.909   8.447
 1208POPC   C3A20021   6.763  39.725   8.026
 1208POPC   C4A20022   6.719  39.840   7.574
 1208POPC   C1B20023   6.837  40.311   8.864
 1208POPC   C2B20024   6.880  40.384   8.428
 1208POPC   C3B20025   6.817  40.236   7.993
 1208POPC   C4B20026   6.956  40.314   7.566
 1209POPC   NC320027   0.763  17.493   9.419
 1209POPC   PO420028   0.162  17.588   9.454
 1209POPC   GL120029   0.167  17.384   9.059
 1209POPC   GL220030   0.462  17.450   9.013
 1209POPC   C1A20031   0.208  17.350   8.595
 1209POPC   D2A20032   0.514  17.409   8.297
 1209POPC   C3A20033   0.303  17.354   7.949
 1209POPC   C4A20034   0.196  17.512   7.592
 1209POPC   C1B20035   0.692  17.658   8.717
 1209POPC   C2B20036   0.644  17.896   8.337
 1209POPC   C3B20037   0.575  17.794   7.906
 1209POPC   C4B20038   0.701  17.582   7.525
 1210POPC   NC320039  34.127  26.199   9.399
 1210POPC   PO420040  33.544  26.136   9.551
 1210POPC   GL120041  33.712  26.124   9.104
 1210POPC   GL220042  33.846  26.449   9.051
 1210POPC   C1A20043  33.980  26.104   8.684
 1210POPC   D2A20044  34.138  26.289   8.268
 1210POPC   C3A20045  33.924  26.272   7.851
 1210POPC   C4A20046  34.125  26.255   7.434
 1210POPC   C1B20047  33.527  26.385   8.707
 1210POPC   C2B20048  33.568  26.317   8.238
 1210POPC   C3B20049  33.412  26.122   7.832
 1210POPC   C4B20050  33.262  25.956   7.410
 1211POPC   NC320051  19.246  33.472   9.562
 1211POPC   PO420052  19.083  34.152   9.501
 1211POPC   GL120053  19.081  33.843   9.182
 1211POPC   GL220054  18.884  33.550   9.189
 1211POPC   C1A20055  19.021  33.866   8.764
 1211POPC   D2A20056  19.035  34.094   8.383
 1211POPC   C3A20057  19.072  33.927   7.974
 1211POPC   C4A20058  19.046  33.967   7.498
 1211POPC   C1B20059  18.872  33.377   8.776
 1211POPC   C2B20060  18.978  33.539   8.377
 1211POPC   C3B20061  18.953  33.355   8.003
 1211POPC   C4B20062  19.115  33.495   7.671
 1212POPC   NC320063  29.571  18.188   9.604
 1212POPC   PO420064  30.157  18.453   9.392
 1212POPC   GL120065  29.831  18.322   9.130
 1212POPC   GL220066  29.599  18.560   9.227
 1212POPC   C1A20067  29.840  18.190   8.685
 1212POPC   D2A20068  30.026  17.893   8.424
 1212POPC   C3A20069  30.175  18.085   8.039
 1212POPC   C4A20070  29.949  18.327   7.788
 1212POPC   C1B20071  29.429  18.476   8.839
 1212POPC   C2B20072  29.511  18.607   8.463
 1212POPC   C3B20073  29.567  18.404   8.112
 1212POPC   C4B20074  29.470  18.514   7.712
 1213POPC   NC320075  29.609  12.495   9.534
 1213POPC   PO420076  30.201  12.693   9.371
 1213POPC   GL120077  29.923  12.899   9.068
 1213POPC   GL220078  29.870  13.264   9.138
 1213POPC   C1A20079  30.033  13.080   8.656
 1213POPC   D2A20080  30.273  13.044   8.274
 1213POPC   C3A20081  30.152  12.699   8.033
 1213POPC   C4A20082  29.896  12.682   7.658
 1213POPC   C1B20083  29.717  13.473   8.759
 1213POPC   C2B20084  29.509  13.494   8.351
 1213POPC   C3B20085  29.642  13.296   7.948
 1213POPC   C4B20086  30.056  13.170   7.795
 1214POPC   NC320087  21.056  33.594   9.594
 1214POPC   PO420088  21.466  34.071   9.488
 1214POPC   GL120089  21.319  33.832   9.188
 1214POPC   GL220090  21.019  33.972   9.159
 1214POPC   C1A20091  21.447  33.804   8.775
 1214POPC   D2A20092  21.576  33.803   8.357
 1214POPC   C3A20093  21.304  33.971   8.057
 1214POPC   C4A20094  21.502  33.800   7.680
 1214POPC   C1B20095  20.944  33.692   8.796
 1214POPC   C2B20096  21.129  33.479   8.425
 1214POPC   C3B20097  21.268  33.465   8.005
 1214POPC   C4B20098  21.025  33.710   7.704
 1215POPC   NC320099  25.851  18.531   9.606
 1215POPC   PO420100  26.255  18.086   9.383
 1215POPC   GL120101  25.987  18.167   9.084
 1215POPC   GL220102  25.810  18.433   9.122
 1215POPC   C1A20103  25.942  18.038   8.682
 1215POPC   D2A20104  26.178  18.000   8.308
 1215POPC   C3A20105  26.037  17.995   7.904
 1215POPC   C4A20106  26.002  18.262   7.566
 1215POPC   C1B20107  26.059  18.528   8.748
 1215POPC   C2B20108  26.258  18.564   8.372
 1215POPC   C3B20109  26.101  18.518   7.985
 1215POPC   C4B20110  26.102  18.764   7.627
 1216POPC   NC320111  25.031  18.027   9.422
 1216POPC   PO420112  25.391  18.540   9.600
 1216POPC   GL120113  25.283  18.409   9.181
 1216POPC   GL220114  25.212  18.674   8.971
 1216POPC   C1A20115  25.069  18.216   8.794
 1216POPC   D2A20116  25.107  18.453   8.396
 1216POPC   C3A20117  25.011  18.208   8.043
 1216POPC   C4A20118  25.185  18.073   7.672
 1216POPC   C1B20119  25.536  18.390   8.713
 1216POPC   C2B20120  25.770  18.351   8.329
 1216POPC   C3B20121  25.619  18.295   7.913
 1216POPC   C4B20122  25.299  18.550   7.810
 1217POPC   NC320123  35.198  20.638   9.256
 1217POPC   PO420124  34.646  20.434   9.525
 1217POPC   GL120125  34.480  20.516   9.108
 1217POPC   GL220126  34.780  20.602   8.994
 1217POPC   C1A20127  34.448  20.574   8.633
 1217POPC   D2A20128  34.574  20.776   8.296
 1217POPC   C3A20129  34.385  20.698   7.950
 1217POPC   C4A20130  34.582  20.889   7.658
 1217POPC   C1B20131  35.003  20.366   8.683
 1217POPC   C2B20132  34.798  20.312   8.303
 1217POPC   C3B20133  34.832  20.477   7.888
 1217POPC   C4B20134  34.832  20.240   7.513
 1218POPC   NC320135  26.771  44.310   9.519
 1218POPC   PO420136  27.131  44.929   9.573
 1218POPC   GL120137  27.024  44.664   9.250
 1218POPC   GL220138  26.785  44.882   9.154
 1218POPC   C1A20139  26.842  44.510   8.823
 1218POPC   D2A20140  26.841  44.357   8.413
 1218POPC   C3A20141  26.745  44.226   7.990
 1218POPC   C4A20142  26.673  44.276   7.543
 1218POPC   C1B20143  27.080  44.957   8.828
 1218POPC   C2B20144  26.957  44.872   8.419
 1218POPC   C3B20145  26.767  44.725   8.073
 1218POPC   C4B20146  26.959  44.660   7.712
 1219POPC   NC320147  11.598  39.382   9.571
 1219POPC   PO420148  12.025  38.973   9.853
 1219POPC   GL120149  11.879  38.975   9.377
 1219POPC   GL220150  11.975  39.283   9.222
 1219POPC   C1A20151  11.920  38.984   8.855
 1219POPC   D2A20152  12.107  39.297   8.555
 1219POPC   C3A20153  12.184  39.146   8.131
 1219POPC   C4A20154  12.243  39.259   7.712
 1219POPC   C1B20155  11.717  39.475   8.856
 1219POPC   C2B20156  11.776  39.701   8.450
 1219POPC   C3B20157  12.030  39.643   8.113
 1219POPC   C4B20158  11.872  39.650   7.718
 1220POPC   NC320159  44.700   1.426   9.563
 1220POPC   PO420160  44.828   0.806   9.785
 1220POPC   GL120161  44.826   0.935   9.293
 1220POPC   GL220162  44.566   0.724   9.166
 1220POPC   C1A20163  44.693   1.274   8.926
 1220POPC   D2A20164  44.428   1.349   8.520
 1220POPC   C3A20165  44.358   1.505   8.080
 1220POPC   C4A20166  44.472   1.305   7.682
 1220POPC   C1B20167  44.455   0.864   8.746
 1220POPC   C2B20168  44.678   0.906   8.350
 1220POPC   C3B20169  44.570   0.869   7.898
 1220POPC   C4B20170  44.604   0.865   7.419
 1221POPC   NC320171  44.345   8.072   9.438
 1221POPC   PO420172  44.948   7.849   9.233
 1221POPC   GL120173  44.687   8.131   9.052
 1221POPC   GL220174  44.753   8.470   9.077
 1221POPC   C1A20175  44.756   8.189   8.631
 1221POPC   D2A20176  44.755   7.877   8.329
 1221POPC   C3A20177  44.725   8.018   7.953
 1221POPC   C4A20178  44.501   7.913   7.592
 1221POPC   C1B20179  44.463   8.597   8.684
 1221POPC   C2B20180  44.581   8.624   8.270
 1221POPC   C3B20181  44.751   8.522   7.885
 1221POPC   C4B20182  44.488   8.484   7.510
 1222POPC   NC320183  24.164  19.068   9.408
 1222POPC   PO420184  24.744  18.796   9.374
 1222POPC   GL120185  24.764  18.976   8.990
 1222POPC   GL220186  24.398  18.951   8.957
 1222POPC   C1A20187  24.694  19.034   8.534
 1222POPC   D2A20188  24.286  19.068   8.298
 1222POPC   C3A20189  24.310  18.995   7.863
 1222POPC   C4A20190  24.577  19.096   7.529
 1222POPC   C1B20191  24.330  19.330   8.752
 1222POPC   C2B20192  24.552  19.506   8.387
 1222POPC   C3B20193  24.509  19.452   7.944
 1222POPC   C4B20194  24.238  19.469   7.568
 1223POPC   NC320195  40.247  41.916   9.454
 1223POPC   PO420196  39.934  41.342   9.505
 1223POPC   GL120197  40.022  41.588   9.130
 1223POPC   GL220198  39.783  41.886   9.082
 1223POPC   C1A20199  40.094  41.454   8.720
 1223POPC   D2A20200  39.868  41.271   8.377
 1223POPC   C3A20201  40.090  41.361   8.017
 1223POPC   C4A20202  40.022  41.352   7.591
 1223POPC   C1B20203  39.641  41.715   8.650
 1223POPC   C2B20204  39.670  41.704   8.170
 1223POPC   C3B20205  39.837  41.791   7.735
 1223POPC   C4B20206  39.997  41.769   7.293
 1224POPC   NC320207  11.734   2.204   9.710
 1224POPC   PO420208  12.370   2.116   9.548
 1224POPC   GL120209  12.131   1.920   9.246
 1224POPC   GL220210  11.829   2.068   9.174
 1224POPC   C1A20211  12.304   1.847   8.873
 1224POPC   D2A20212  12.352   1.879   8.409
 1224POPC   C3A20213  12.200   1.986   8.022
 1224POPC   C4A20214  12.170   2.329   7.765
 1224POPC   C1B20215  11.816   1.857   8.779
 1224POPC   C2B20216  11.823   1.909   8.366
 1224POPC   C3B20217  11.709   1.862   7.956
 1224POPC   C4B20218  11.703   2.155   7.688
 1225POPC   NC320219  39.791  44.493   9.579
 1225POPC   PO420220  39.129  44.824   9.474
 1225POPC   GL120221  39.351  44.672   9.142
 1225POPC   GL220222  39.293  44.394   9.221
 1225POPC   C1A20223  39.401  44.793   8.727
 1225POPC   D2A20224  39.144  44.801   8.385
 1225POPC   C3A20225  39.395  44.763   8.067
 1225POPC   C4A20226  39.154  44.820   7.723
 1225POPC   C1B20227  39.286  44.255   8.803
 1225POPC   C2B20228  39.403  44.362   8.412
 1225POPC   C3B20229  39.225  44.292   8.033
 1225POPC   C4B20230  39.285  44.008   7.760
 1226POPC   NC320231  32.796   1.750   9.400
 1226POPC   PO420232  32.963   1.108   9.382
 1226POPC   GL120233  32.768   1.334   9.085
 1226POPC   GL220234  33.071   1.536   9.022
 1226POPC   C1A20235  32.645   1.213   8.687
 1226POPC   D2A20236  32.848   1.120   8.313
 1226POPC   C3A20237  32.713   1.126   7.912
 1226POPC   C4A20238  32.684   1.461   7.604
 1226POPC   C1B20239  33.197   1.202   8.735
 1226POPC   C2B20240  33.348   1.131   8.302
 1226POPC   C3B20241  33.247   1.209   7.884
 1226POPC   C4B20242  33.512   1.175   7.545
 1227POPC   NC320243  42.121   6.702   9.492
 1227POPC   PO420244  42.801   6.879   9.505
 1227POPC   GL120245  42.554   6.662   9.174
 1227POPC   GL220246  42.755   6.911   8.980
 1227POPC   C1A20247  42.248   6.448   8.847
 1227POPC   D2A20248  41.984   6.587   8.464
 1227POPC   C3A20249  42.146   6.515   8.039
 1227POPC   C4A20250  42.259   6.600   7.641
 1227POPC   C1B20251  42.731   6.583   8.722
 1227POPC   C2B20252  42.528   6.545   8.364
 1227POPC   C3B20253  42.697   6.537   7.953
 1227POPC   C4B20254  42.775   6.877   7.641
 1228POPC   NC320255   3.735   1.579   9.388
 1228POPC   PO420256   3.647   0.859   9.489
 1228POPC   GL120257   3.581   1.124   9.181
 1228POPC   GL220258   3.753   0.861   9.008
 1228POPC   C1A20259   3.744   1.316   8.799
 1228POPC   D2A20260   3.895   1.390   8.416
 1228POPC   C3A20261   3.676   1.648   8.153
 1228POPC   C4A20262   3.726   1.620   7.738
 1228POPC   C1B20263   3.494   0.785   8.675
 1228POPC   C2B20264   3.484   0.809   8.251
 1228POPC   C3B20265   3.715   1.106   7.975
 1228POPC   C4B20266   3.578   1.142   7.546
 1229POPC   NC320267  29.342   4.253   9.426
 1229POPC   PO420268  28.771   4.554   9.603
 1229POPC   GL120269  28.819   4.323   9.211
 1229POPC   GL220270  29.049   4.042   9.047
 1229POPC   C1A20271  28.840   4.401   8.783
 1229POPC   D2A20272  28.938   4.130   8.457
 1229POPC   C3A20273  29.008   4.325   8.070
 1229POPC   C4A20274  28.899   4.522   7.694
 1229POPC   C1B20275  29.324   3.903   8.715
 1229POPC   C2B20276  29.460   4.019   8.288
 1229POPC   C3B20277  29.339   4.015   7.848
 1229POPC   C4B20278  29.315   4.302   7.498
 1230POPC   NC320279  37.062  10.547   9.780
 1230POPC   PO420280  36.528  10.642   9.343
 1230POPC   GL120281  36.950  10.552   9.113
 1230POPC   GL220282  37.024  10.201   9.155
 1230POPC   C1A20283  37.092  10.606   8.651
 1230POPC   D2A20284  36.676  10.705   8.439
 1230POPC   C3A20285  36.686  10.714   7.995
 1230POPC   C4A20286  37.087  10.571   7.809
 1230POPC   C1B20287  36.775  10.222   8.737
 1230POPC   C2B20288  36.891  10.278   8.282
 1230POPC   C3B20289  36.698  10.201   7.893
 1230POPC   C4B20290  36.908  10.228   7.505
 1231POPC   NC320291  10.527  26.655   9.738
 1231POPC   PO420292  10.887  27.179   9.471
 1231POPC   GL120293  10.597  26.914   9.133
 1231POPC   GL220294  10.677  26.572   9.216
 1231POPC   C1A20295  10.340  26.931   8.749
 1231POPC   D2A20296  10.265  27.147   8.331
 1231POPC   C3A20297  10.384  26.939   7.944
 1231POPC   C4A20298  10.609  27.111   7.530
 1231POPC   C1B20299  10.696  26.481   8.771
 1231POPC   C2B20300  10.505  26.619   8.374
 1231POPC   C3B20301  10.546  26.463   7.974
 1231POPC   C4B20302  10.719  26.646   7.663
 1232POPC   NC320303  24.602   3.741   9.462
 1232POPC   PO420304  24.429   3.063   9.407
 1232POPC   GL120305  24.332   3.438   9.111
 1232POPC   GL220306  24.278   3.839   9.087
 1232POPC   C1A20307  24.418   3.545   8.679
 1232POPC   D2A20308  24.531   3.322   8.316
 1232POPC   C3A20309  24.449   3.498   7.937
 1232POPC   C4A20310  24.185   3.456   7.578
 1232POPC   C1B20311  24.685   3.967   8.840
 1232POPC   C2B20312  24.836   3.934   8.400
 1232POPC   C3B20313  24.761   3.908   7.939
 1232POPC   C4B20314  24.402   3.918   7.636
 1233POPC   NC320315   9.225   4.226   9.516
 1233POPC   PO420316   8.948   4.673   9.808
 1233POPC   GL120317   8.928   4.531   9.265
 1233POPC   GL220318   8.718   4.229   9.191
 1233POPC   C1A20319   9.084   4.271   8.867
 1233POPC   D2A20320   8.941   4.120   8.481
 1233POPC   C3A20321   9.333   4.077   8.247
 1233POPC   C4A20322   9.228   4.219   7.847
 1233POPC   C1B20323   8.578   4.425   8.804
 1233POPC   C2B20324   8.592   4.632   8.389
 1233POPC   C3B20325   8.680   4.524   7.950
 1233POPC   C4B20326   8.647   4.119   7.775
 1234POPC   NC320327   8.095  38.934   9.454
 1234POPC   PO420328   8.232  39.551   9.511
 1234POPC   GL120329   8.065  39.397   9.134
 1234POPC   GL220330   8.321  39.216   9.054
 1234POPC   C1A20331   7.876  39.361   8.729
 1234POPC   D2A20332   7.973  39.593   8.334
 1234POPC   C3A20333   8.160  39.347   7.986
 1234POPC   C4A20334   7.871  39.263   7.636
 1234POPC   C1B20335   8.394  39.152   8.615
 1234POPC   C2B20336   8.634  38.932   8.306
 1234POPC   C3B20337   8.565  38.763   7.919
 1234POPC   C4B20338   8.155  38.824   7.834
 1235POPC   NC320339  33.707   9.598   9.672
 1235POPC   PO420340  33.193   9.965   9.790
 1235POPC   GL120341  33.491   9.970   9.415
 1235POPC   GL220342  33.449   9.685   9.235
 1235POPC   C1A20343  33.876   9.781   9.027
 1235POPC   D2A20344  33.839   9.809   8.554
 1235POPC   C3A20345  33.733   9.497   8.218
 1235POPC   C4A20346  33.670   9.436   7.773
 1235POPC   C1B20347  33.505  10.100   8.944
 1235POPC   C2B20348  33.539  10.214   8.506
 1235POPC   C3B20349  33.675  10.016   8.092
 1235POPC   C4B20350  33.592   9.923   7.656
 1236POPC   NC320351  34.420  26.758   9.515
 1236POPC   PO420352  33.736  26.924   9.666
 1236POPC   GL120353  33.904  26.922   9.275
 1236POPC   GL220354  34.160  27.154   9.300
 1236POPC   C1A20355  33.734  26.898   8.869
 1236POPC   D2A20356  33.540  26.822   8.455
 1236POPC   C3A20357  33.631  27.035   8.097
 1236POPC   C4A20358  33.669  26.712   7.776
 1236POPC   C1B20359  34.249  27.074   8.871
 1236POPC   C2B20360  34.026  27.055   8.475
 1236POPC   C3B20361  34.076  26.784   8.124
 1236POPC   C4B20362  34.154  26.911   7.729
 1237POPC   NC320363  30.970  29.733   9.673
 1237POPC   PO420364  30.705  30.247   9.402
 1237POPC   GL120365  30.945  30.155   9.048
 1237POPC   GL220366  30.949  29.807   9.118
 1237POPC   C1A20367  30.962  30.266   8.596
 1237POPC   D2A20368  30.735  30.513   8.292
 1237POPC   C3A20369  30.624  30.155   8.003
 1237POPC   C4A20370  30.244  29.907   7.919
 1237POPC   C1B20371  30.884  29.726   8.659
 1237POPC   C2B20372  30.560  29.649   8.299
 1237POPC   C3B20373  30.669  29.624   7.876
 1237POPC   C4B20374  31.001  29.896   7.783
 1238POPC   NC320375  17.533  31.766   9.495
 1238POPC   PO420376  17.791  31.180   9.582
 1238POPC   GL120377  17.704  31.390   9.189
 1238POPC   GL220378  17.439  31.253   9.008
 1238POPC   C1A20379  17.759  31.557   8.756
 1238POPC   D2A20380  17.820  31.431   8.327
 1238POPC   C3A20381  17.527  31.571   8.010
 1238POPC   C4A20382  17.355  31.943   7.770
 1238POPC   C1B20383  17.371  31.200   8.572
 1238POPC   C2B20384  17.089  31.106   8.229
 1238POPC   C3B20385  17.245  31.173   7.846
 1238POPC   C4B20386  17.278  31.489   7.564
 1239POPC   NC320387  26.686  18.809   9.420
 1239POPC   PO420388  26.955  19.432   9.514
 1239POPC   GL120389  26.894  19.177   9.122
 1239POPC   GL220390  26.555  19.092   9.031
 1239POPC   C1A20391  26.877  19.142   8.643
 1239POPC   D2A20392  26.546  19.127   8.335
 1239POPC   C3A20393  26.772  19.168   7.975
 1239POPC   C4A20394  27.019  18.870   7.791
 1239POPC   C1B20395  26.610  18.731   8.711
 1239POPC   C2B20396  26.816  18.700   8.307
 1239POPC   C3B20397  26.560  18.710   7.958
 1239POPC   C4B20398  26.600  18.726   7.542
 1240POPC   NC320399  11.370   1.493   9.684
 1240POPC   PO420400  11.377   2.112   9.426
 1240POPC   GL120401  11.139   2.059   9.023
 1240POPC   GL220402  11.061   1.665   8.891
 1240POPC   C1A20403  11.349   2.035   8.633
 1240POPC   D2A20404  11.318   1.782   8.276
 1240POPC   C3A20405  11.218   2.026   7.880
 1240POPC   C4A20406  11.162   1.894   7.445
 1240POPC   C1B20407  10.877   1.849   8.537
 1240POPC   C2B20408  11.015   2.273   8.320
 1240POPC   C3B20409  10.973   2.495   7.928
 1240POPC   C4B20410  11.005   2.355   7.498
 1241POPC   NC320411   6.660  28.344   9.468
 1241POPC   PO420412   7.092  28.692   9.505
 1241POPC   GL120413   6.948  28.547   9.094
 1241POPC   GL220414   6.627  28.669   9.058
 1241POPC   C1A20415   6.913  28.372   8.672
 1241POPC   D2A20416   6.593  28.288   8.354
 1241POPC   C3A20417   6.629  28.383   7.904
 1241POPC   C4A20418   6.344  28.444   7.538
 1241POPC   C1B20419   6.703  28.839   8.651
 1241POPC   C2B20420   6.903  28.740   8.250
 1241POPC   C3B20421   6.741  28.888   7.857
 1241POPC   C4B20422   6.737  28.756   7.419
 1242POPC   NC320423  21.140  13.362   9.466
 1242POPC   PO420424  21.770  13.107   9.600
 1242POPC   GL120425  21.580  13.302   9.186
 1242POPC   GL220426  21.278  13.137   9.026
 1242POPC   C1A20427  21.499  13.537   8.778
 1242POPC   D2A20428  21.695  13.503   8.353
 1242POPC   C3A20429  21.612  13.806   7.990
 1242POPC   C4A20430  21.220  13.922   7.754
 1242POPC   C1B20431  21.307  13.103   8.594
 1242POPC   C2B20432  21.219  13.165   8.211
 1242POPC   C3B20433  21.479  13.334   7.897
 1242POPC   C4B20434  21.400  13.531   7.492
 1243POPC   NC320435  42.230   0.379   9.697
 1243POPC   PO420436  41.521   0.385   9.658
 1243POPC   GL120437  41.509   0.320   9.121
 1243POPC   GL220438  41.669   0.603   8.913
 1243POPC   C1A20439  41.434   0.212   8.697
 1243POPC   D2A20440  41.436   0.471   8.335
 1243POPC   C3A20441  41.679   0.450   7.987
 1243POPC   C4A20442  41.469   0.222   7.688
 1243POPC   C1B20443  41.253   0.753   8.732
 1243POPC   C2B20444  41.045   0.861   8.328
 1243POPC   C3B20445  41.088   0.647   7.942
 1243POPC   C4B20446  41.387   0.733   7.626
 1244POPC   NC320447  28.380  30.298   9.551
 1244POPC   PO420448  28.062  29.673   9.625
 1244POPC   GL120449  28.203  29.862   9.260
 1244POPC   GL220450  28.146  29.530   9.139
 1244POPC   C1A20451  28.235  30.152   8.915
 1244POPC   D2A20452  28.044  30.180   8.531
 1244POPC   C3A20453  28.219  30.091   8.129
 1244POPC   C4A20454  28.175  30.174   7.700
 1244POPC   C1B20455  28.361  29.665   8.803
 1244POPC   C2B20456  28.553  29.868   8.471
 1244POPC   C3B20457  28.575  29.706   8.048
 1244POPC   C4B20458  28.246  29.676   7.778
 1245POPC   NC320459   7.138  12.748   9.551
 1245POPC   PO420460   7.721  12.509   9.412
 1245POPC   GL120461   7.516  12.595   9.031
 1245POPC   GL220462   7.254  12.871   9.063
 1245POPC   C1A20463   7.754  12.645   8.650
 1245POPC   D2A20464   7.591  12.654   8.246
 1245POPC   C3A20465   7.723  12.837   7.866
 1245POPC   C4A20466   7.637  12.634   7.485
 1245POPC   C1B20467   7.283  12.861   8.631
 1245POPC   C2B20468   7.086  12.741   8.251
 1245POPC   C3B20469   7.234  12.640   7.859
 1245POPC   C4B20470   7.304  12.997   7.616
 1246POPC   NC320471  37.658  36.436   9.597
 1246POPC   PO420472  37.466  35.887   9.526
 1246POPC   GL120473  37.527  36.067   9.146
 1246POPC   GL220474  37.841  36.264   9.147
 1246POPC   C1A20475  37.351  36.092   8.724
 1246POPC   D2A20476  37.540  36.179   8.326
 1246POPC   C3A20477  37.341  36.102   7.939
 1246POPC   C4A20478  37.650  36.104   7.603
 1246POPC   C1B20479  38.066  36.132   8.796
 1246POPC   C2B20480  38.034  35.995   8.386
 1246POPC   C3B20481  38.041  36.165   7.999
 1246POPC   C4B20482  38.155  35.938   7.675
 1247POPC   NC320483  42.659   7.381   9.530
 1247POPC   PO420484  41.941   7.209   9.576
 1247POPC   GL120485  42.192   7.425   9.267
 1247POPC   GL220486  42.330   7.110   9.235
 1247POPC   C1A20487  42.465   7.444   8.876
 1247POPC   D2A20488  42.379   7.589   8.476
 1247POPC   C3A20489  42.657   7.555   8.167
 1247POPC   C4A20490  42.489   7.576   7.756
 1247POPC   C1B20491  42.284   6.957   8.825
 1247POPC   C2B20492  42.569   7.060   8.482
 1247POPC   C3B20493  42.432   6.980   8.062
 1247POPC   C4B20494  42.323   7.103   7.669
 1248POPC   NC320495  42.632   0.455   9.332
 1248POPC   PO420496  41.950   0.454   9.327
 1248POPC   GL120497  42.226   0.361   8.992
 1248POPC   GL220498  42.533   0.549   8.850
 1248POPC   C1A20499  42.221   0.273   8.550
 1248POPC   D2A20500  42.507   0.483   8.302
 1248POPC   C3A20501  42.504   0.310   7.890
 1248POPC   C4A20502  42.532   0.432   7.460
 1248POPC   C1B20503  42.134   0.763   8.728
 1248POPC   C2B20504  41.980   0.695   8.342
 1248POPC   C3B20505  42.209   0.733   7.958
 1248POPC   C4B20506  42.052   0.510   7.632
 1249POPC   NC320507  13.178   5.278   9.511
 1249POPC   PO420508  12.652   4.927   9.336
 1249POPC   GL120509  13.085   4.993   9.099
 1249POPC   GL220510  13.271   5.316   9.020
 1249POPC   C1A20511  13.031   4.892   8.690
 1249POPC   D2A20512  12.612   5.042   8.510
 1249POPC   C3A20513  12.645   5.138   8.086
 1249POPC   C4A20514  13.035   4.993   7.897
 1249POPC   C1B20515  12.936   5.383   8.777
 1249POPC   C2B20516  13.054   5.316   8.365
 1249POPC   C3B20517  13.104   5.478   7.986
 1249POPC   C4B20518  12.781   5.476   7.723
 1250POPC   NC320519  33.247   7.284   9.460
 1250POPC   PO420520  32.975   7.838   9.545
 1250POPC   GL120521  33.260   7.702   9.177
 1250POPC   GL220522  32.990   7.498   9.062
 1250POPC   C1A20523  33.448   7.479   8.815
 1250POPC   D2A20524  33.286   7.257   8.451
 1250POPC   C3A20525  33.218   7.440   8.043
 1250POPC   C4A20526  33.243   7.413   7.628
 1250POPC   C1B20527  32.719   7.695   8.766
 1250POPC   C2B20528  32.918   7.652   8.379
 1250POPC   C3B20529  32.778   7.671   7.941
 1250POPC   C4B20530  32.783   7.603   7.490
 1251POPC   NC320531  36.451  44.639   9.427
 1251POPC   PO420532  35.953   0.159   9.571
 1251POPC   GL120533  35.910  44.942   9.173
 1251POPC   GL220534  35.957  44.641   9.298
 1251POPC   C1A20535  36.127  44.876   8.765
 1251POPC   D2A20536  36.331  44.627   8.420
 1251POPC   C3A20537  36.140  44.542   8.007
 1251POPC   C4A20538  36.196  44.636   7.544
 1251POPC   C1B20539  35.920  44.439   8.904
 1251POPC   C2B20540  35.909  44.328   8.456
 1251POPC   C3B20541  35.802  44.142   8.054
 1251POPC   C4B20542  35.801  44.241   7.669
 1252POPC   NC320543   0.657  44.065   9.505
 1252POPC   PO420544  44.912  44.193   9.579
 1252POPC   GL120545   0.225  44.162   9.192
 1252POPC   GL220546   0.242  43.849   8.962
 1252POPC   C1A20547   0.397  44.301   8.781
 1252POPC   D2A20548   0.390  44.071   8.392
 1252POPC   C3A20549   0.326  44.231   7.980
 1252POPC   C4A20550   0.196  43.835   7.815
 1252POPC   C1B20551   0.659  43.822   8.759
 1252POPC   C2B20552   0.739  43.698   8.320
 1252POPC   C3B20553   0.713  43.889   7.883
 1252POPC   C4B20554   0.547  43.651   7.487
 1253POPC   NC320555  29.280  20.520   9.381
 1253POPC   PO420556  28.787  20.900   9.423
 1253POPC   GL120557  28.859  20.490   9.114
 1253POPC   GL220558  29.063  20.748   8.972
 1253POPC   C1A20559  29.032  20.352   8.662
 1253POPC   D2A20560  29.027  20.662   8.316
 1253POPC   C3A20561  29.113  20.521   7.908
 1253POPC   C4A20562  29.111  20.142   7.670
 1253POPC   C1B20563  28.884  21.106   8.756
 1253POPC   C2B20564  28.756  21.096   8.314
 1253POPC   C3B20565  29.017  21.026   7.907
 1253POPC   C4B20566  29.021  21.031   7.434
 1254POPC   NC320567  33.704  32.020   9.716
 1254POPC   PO420568  33.891  32.615   9.608
 1254POPC   GL120569  33.848  32.331   9.301
 1254POPC   GL220570  33.554  32.408   9.212
 1254POPC   C1A20571  34.019  32.281   8.875
 1254POPC   D2A20572  33.985  32.116   8.418
 1254POPC   C3A20573  34.074  32.318   7.994
 1254POPC   C4A20574  33.913  32.120   7.610
 1254POPC   C1B20575  33.525  32.157   8.872
 1254POPC   C2B20576  33.485  32.250   8.437
 1254POPC   C3B20577  33.606  32.082   8.036
 1254POPC   C4B20578  33.403  32.168   7.624
 1255POPC   NC320579  31.046  30.566   9.388
 1255POPC   PO420580  30.450  30.842   9.646
 1255POPC   GL120581  30.538  30.827   9.184
 1255POPC   GL220582  30.863  30.945   9.104
 1255POPC   C1A20583  30.603  30.875   8.693
 1255POPC   D2A20584  30.812  31.059   8.310
 1255POPC   C3A20585  30.568  31.024   7.919
 1255POPC   C4A20586  30.454  30.592   7.832
 1255POPC   C1B20587  31.121  30.733   8.751
 1255POPC   C2B20588  31.339  30.576   8.382
 1255POPC   C3B20589  31.139  30.366   8.036
 1255POPC   C4B20590  30.954  30.721   7.867
 1256POPC   NC320591  11.746  36.325   9.530
 1256POPC   PO420592  12.262  35.886   9.513
 1256POPC   GL120593  12.131  36.142   9.194
 1256POPC   GL220594  12.481  36.174   9.087
 1256POPC   C1A20595  11.924  36.188   8.802
 1256POPC   D2A20596  12.033  36.378   8.418
 1256POPC   C3A20597  12.173  36.109   8.065
 1256POPC   C4A20598  11.823  36.118   7.793
 1256POPC   C1B20599  12.343  36.547   8.863
 1256POPC   C2B20600  12.410  36.718   8.432
 1256POPC   C3B20601  12.248  36.606   7.996
 1256POPC   C4B20602  12.170  36.437   7.527
 1257POPC   NC320603  12.348  22.559   9.347
 1257POPC   PO420604  12.091  23.165   9.426
 1257POPC   GL120605  12.394  23.065   9.123
 1257POPC   GL220606  12.560  23.352   8.980
 1257POPC   C1A20607  12.270  22.821   8.746
 1257POPC   D2A20608  12.377  22.625   8.376
 1257POPC   C3A20609  12.063  22.722   8.112
 1257POPC   C4A20610  12.131  22.606   7.686
 1257POPC   C1B20611  12.195  23.329   8.734
 1257POPC   C2B20612  11.973  23.170   8.400
 1257POPC   C3B20613  12.050  23.277   8.006
 1257POPC   C4B20614  11.914  23.039   7.762
 1258POPC   NC320615  31.667  10.524   9.871
 1258POPC   PO420616  32.262  10.303   9.648
 1258POPC   GL120617  32.275  10.211   9.194
 1258POPC   GL220618  32.315  10.545   9.100
 1258POPC   C1A20619  32.247  10.201   8.723
 1258POPC   D2A20620  32.136  10.432   8.336
 1258POPC   C3A20621  32.366  10.374   7.934
 1258POPC   C4A20622  32.423  10.142   7.539
 1258POPC   C1B20623  32.220  10.765   8.711
 1258POPC   C2B20624  32.145  10.973   8.327
 1258POPC   C3B20625  32.156  10.837   7.905
 1258POPC   C4B20626  32.360  10.824   7.454
 1259POPC   NC320627  12.074  34.233   9.369
 1259POPC   PO420628  11.784  33.631   9.426
 1259POPC   GL120629  12.067  33.694   9.095
 1259POPC   GL220630  11.893  33.964   8.980
 1259POPC   C1A20631  12.168  33.788   8.621
 1259POPC   D2A20632  11.861  33.744   8.279
 1259POPC   C3A20633  11.997  33.614   7.878
 1259POPC   C4A20634  12.179  33.952   7.670
 1259POPC   C1B20635  11.695  34.121   8.614
 1259POPC   C2B20636  11.746  34.494   8.359
 1259POPC   C3B20637  11.762  34.301   7.951
 1259POPC   C4B20638  11.655  33.979   7.651
 1260POPC   NC320639  17.238  21.673   9.592
 1260POPC   PO420640  17.684  21.276   9.501
 1260POPC   GL120641  17.564  21.562   9.191
 1260POPC   GL220642  17.233  21.436   9.137
 1260POPC   C1A20643  17.580  21.573   8.746
 1260POPC   D2A20644  17.311  21.622   8.383
 1260POPC   C3A20645  17.416  21.431   8.026
 1260POPC   C4A20646  17.720  21.443   7.723
 1260POPC   C1B20647  17.096  21.332   8.737
 1260POPC   C2B20648  17.064  21.082   8.355
 1260POPC   C3B20649  17.033  21.108   7.910
 1260POPC   C4B20650  17.212  21.413   7.564
 1261POPC   NC320651  38.394  35.073   9.672
 1261POPC   PO420652  38.466  35.716   9.617
 1261POPC   GL120653  38.386  35.444   9.272
 1261POPC   GL220654  38.036  35.274   9.357
 1261POPC   C1A20655  38.523  35.280   8.817
 1261POPC   D2A20656  38.640  35.468   8.408
 1261POPC   C3A20657  38.573  35.321   7.999
 1261POPC   C4A20658  38.635  35.246   7.526
 1261POPC   C1B20659  38.022  35.388   8.945
 1261POPC   C2B20660  38.164  35.549   8.570
 1261POPC   C3B20661  38.122  35.516   8.125
 1261POPC   C4B20662  38.189  35.434   7.700
 1262POPC   NC320663   5.733  33.653   9.738
 1262POPC   PO420664   6.273  33.892   9.560
 1262POPC   GL120665   5.894  33.993   9.351
 1262POPC   GL220666   5.794  33.676   9.238
 1262POPC   C1A20667   5.808  34.077   8.921
 1262POPC   D2A20668   5.720  33.900   8.501
 1262POPC   C3A20669   5.939  33.767   8.123
 1262POPC   C4A20670   5.900  34.046   7.765
 1262POPC   C1B20671   5.913  33.537   8.833
 1262POPC   C2B20672   5.772  33.370   8.468
 1262POPC   C3B20673   5.582  33.331   8.090
 1262POPC   C4B20674   5.603  33.570   7.720
 1263POPC   NC320675   8.532  13.503   9.502
 1263POPC   PO420676   7.960  13.982   9.609
 1263POPC   GL120677   8.169  13.800   9.213
 1263POPC   GL220678   8.069  13.425   9.231
 1263POPC   C1A20679   8.313  13.900   8.753
 1263POPC   D2A20680   8.450  13.934   8.274
 1263POPC   C3A20681   8.259  13.707   7.905
 1263POPC   C4A20682   8.123  13.367   7.625
 1263POPC   C1B20683   8.376  13.385   8.886
 1263POPC   C2B20684   8.453  13.448   8.461
 1263POPC   C3B20685   8.590  13.242   8.124
 1263POPC   C4B20686   8.651  13.179   7.698
 1264POPC   NC320687  39.933  40.258   9.412
 1264POPC   PO420688  40.400  39.680   9.454
 1264POPC   GL120689  40.125  39.806   9.144
 1264POPC   GL220690  39.774  39.710   9.221
 1264POPC   C1A20691  40.228  39.995   8.756
 1264POPC   D2A20692  40.050  40.141   8.382
 1264POPC   C3A20693  40.280  40.061   7.983
 1264POPC   C4A20694  40.199  39.699   7.679
 1264POPC   C1B20695  39.721  39.958   8.796
 1264POPC   C2B20696  39.609  39.849   8.367
 1264POPC   C3B20697  39.803  39.885   7.989
 1264POPC   C4B20698  39.890  40.134   7.597
 1265POPC   NC320699   0.898  31.354   9.496
 1265POPC   PO420700   0.301  31.758   9.519
 1265POPC   GL120701   0.307  31.534   9.120
 1265POPC   GL220702   0.610  31.318   9.088
 1265POPC   C1A20703   0.436  31.622   8.690
 1265POPC   D2A20704   0.648  31.505   8.299
 1265POPC   C3A20705   0.345  31.674   8.018
 1265POPC   C4A20706   0.103  31.668   7.653
 1265POPC   C1B20707   0.502  31.106   8.728
 1265POPC   C2B20708   0.261  31.173   8.376
 1265POPC   C3B20709   0.423  31.164   7.942
 1265POPC   C4B20710   0.841  31.141   7.733
 1266POPC   NC320711  17.942  34.412   9.498
 1266POPC   PO420712  17.300  34.363   9.704
 1266POPC   GL120713  17.480  34.542   9.279
 1266POPC   GL220714  17.615  34.857   9.179
 1266POPC   C1A20715  17.706  34.478   8.864
 1266POPC   D2A20716  17.547  34.581   8.471
 1266POPC   C3A20717  17.766  34.456   8.127
 1266POPC   C4A20718  17.548  34.377   7.769
 1266POPC   C1B20719  17.402  34.956   8.799
 1266POPC   C2B20720  17.519  35.088   8.387
 1266POPC   C3B20721  17.482  34.882   7.983
 1266POPC   C4B20722  17.637  35.107   7.635
 1267POPC   NC320723  22.860  43.999   9.479
 1267POPC   PO420724  22.331  43.638   9.680
 1267POPC   GL120725  22.484  43.731   9.181
 1267POPC   GL220726  22.803  43.728   9.054
 1267POPC   C1A20727  22.564  43.988   8.718
 1267POPC   D2A20728  22.813  43.903   8.315
 1267POPC   C3A20729  22.663  43.812   7.885
 1267POPC   C4A20730  22.722  43.537   7.528
 1267POPC   C1B20731  23.101  43.800   8.740
 1267POPC   C2B20732  23.313  43.972   8.395
 1267POPC   C3B20733  23.371  43.989   7.982
 1267POPC   C4B20734  23.031  44.177   7.832
 1268POPC   NC320735  19.487  24.973   9.373
 1268POPC   PO420736  18.787  25.046   9.489
 1268POPC   GL120737  18.991  25.214   9.123
 1268POPC   GL220738  19.271  25.469   9.222
 1268POPC   C1A20739  18.934  25.133   8.659
 1268POPC   D2A20740  19.120  25.362   8.297
 1268POPC   C3A20741  19.032  25.337   7.842
 1268POPC   C4A20742  19.188  25.417   7.406
 1268POPC   C1B20743  19.387  25.353   8.804
 1268POPC   C2B20744  19.451  25.026   8.496
 1268POPC   C3B20745  19.431  25.064   8.025
 1268POPC   C4B20746  19.270  24.911   7.607
 1269POPC   NC320747  34.088  29.461   9.346
 1269POPC   PO420748  34.673  29.154   9.734
 1269POPC   GL120749  34.788  29.143   9.274
 1269POPC   GL220750  34.455  29.132   9.166
 1269POPC   C1A20751  34.793  29.333   8.830
 1269POPC   D2A20752  34.960  29.478   8.410
 1269POPC   C3A20753  34.730  29.412   8.033
 1269POPC   C4A20754  34.795  29.221   7.623
 1269POPC   C1B20755  34.240  29.222   8.755
 1269POPC   C2B20756  34.286  29.405   8.353
 1269POPC   C3B20757  34.238  29.509   7.932
 1269POPC   C4B20758  34.312  29.304   7.523
 1270POPC   NC320759  39.618  28.076   9.470
 1270POPC   PO420760  39.913  28.712   9.658
 1270POPC   GL120761  40.025  28.600   9.228
 1270POPC   GL220762  39.699  28.476   9.073
 1270POPC   C1A20763  40.144  28.402   8.802
 1270POPC   D2A20764  39.917  28.377   8.385
 1270POPC   C3A20765  40.112  28.318   7.962
 1270POPC   C4A20766  40.151  27.986   7.656
 1270POPC   C1B20767  39.718  28.076   8.805
 1270POPC   C2B20768  39.583  27.984   8.371
 1270POPC   C3B20769  39.614  28.158   7.940
 1270POPC   C4B20770  39.688  28.124   7.482
 1271POPC   NC320771  20.312  36.693   9.403
 1271POPC   PO420772  19.788  36.989   9.633
 1271POPC   GL120773  19.942  37.013   9.255
 1271POPC   GL220774  19.845  36.704   9.188
 1271POPC   C1A20775  19.925  37.096   8.846
 1271POPC   D2A20776  19.964  36.882   8.497
 1271POPC   C3A20777  19.853  37.030   8.065
 1271POPC   C4A20778  19.916  37.284   7.738
 1271POPC   C1B20779  19.982  36.497   8.854
 1271POPC   C2B20780  19.840  36.376   8.472
 1271POPC   C3B20781  20.021  36.559   8.123
 1271POPC   C4B20782  20.097  36.714   7.730
 1272POPC   NC320783  40.242   5.120   9.677
 1272POPC   PO420784  40.839   5.153   9.690
 1272POPC   GL120785  40.726   5.303   9.269
 1272POPC   GL220786  40.441   5.454   9.274
 1272POPC   C1A20787  40.870   5.255   8.845
 1272POPC   D2A20788  40.858   4.989   8.474
 1272POPC   C3A20789  41.012   5.205   8.088
 1272POPC   C4A20790  40.866   5.051   7.704
 1272POPC   C1B20791  40.434   5.522   8.798
 1272POPC   C2B20792  40.631   5.439   8.386
 1272POPC   C3B20793  40.504   5.094   8.082
 1272POPC   C4B20794  40.354   5.193   7.680
 1273POPC   NC320795  36.649  30.046   9.431
 1273POPC   PO420796  37.214  29.644   9.544
 1273POPC   GL120797  36.853  29.590   9.234
 1273POPC   GL220798  37.025  29.838   9.058
 1273POPC   C1A20799  36.643  29.630   8.806
 1273POPC   D2A20800  36.878  29.784   8.442
 1273POPC   C3A20801  36.741  29.752   8.041
 1273POPC   C4A20802  36.656  29.903   7.633
 1273POPC   C1B20803  37.140  29.485   8.763
 1273POPC   C2B20804  37.391  29.580   8.391
 1273POPC   C3B20805  37.293  29.829   8.056
 1273POPC   C4B20806  37.128  29.725   7.684
 1274POPC   NC320807   3.225   0.739   9.311
 1274POPC   PO420808   2.962   0.131   9.488
 1274POPC   GL120809   2.904   0.284   9.046
 1274POPC   GL220810   2.792   0.605   9.073
 1274POPC   C1A20811   3.045   0.546   8.643
 1274POPC   D2A20812   2.993   0.571   8.205
 1274POPC   C3A20813   2.632   0.318   8.130
 1274POPC   C4A20814   2.480   0.107   7.755
 1274POPC   C1B20815   2.539   0.549   8.710
 1274POPC   C2B20816   2.483   0.805   8.337
 1274POPC   C3B20817   2.582   0.774   7.880
 1274POPC   C4B20818   2.589   0.532   7.480
 1275POPC   NC320819   3.133  38.305   9.764
 1275POPC   PO420820   3.785  38.456   9.542
 1275POPC   GL120821   3.684  38.424   9.138
 1275POPC   GL220822   3.342  38.343   9.179
 1275POPC   C1A20823   3.866  38.393   8.739
 1275POPC   D2A20824   3.684  38.280   8.359
 1275POPC   C3A20825   3.847  38.422   7.984
 1275POPC   C4A20826   3.454  38.425   7.852
 1275POPC   C1B20827   3.344  38.461   8.719
 1275POPC   C2B20828   3.236  38.730   8.331
 1275POPC   C3B20829   3.041  38.709   7.906
 1275POPC   C4B20830   3.232  38.647   7.467
 1276POPC   NC320831  44.821  21.818   9.414
 1276POPC   PO420832  44.460  22.414   9.486
 1276POPC   GL120833  44.389  22.069   9.227
 1276POPC   GL220834  44.696  22.161   9.051
 1276POPC   C1A20835  44.279  22.005   8.788
 1276POPC   D2A20836  44.636  22.018   8.511
 1276POPC   C3A20837  44.581  21.860   8.110
 1276POPC   C4A20838  44.446  22.109   7.754
 1276POPC   C1B20839   0.043  21.955   8.827
 1276POPC   C2B20840   0.128  21.897   8.421
 1276POPC   C3B20841   0.047  22.091   8.018
 1276POPC   C4B20842  44.839  22.472   7.843
 1277POPC   NC320843  16.464  29.210   9.705
 1277POPC   PO420844  16.740  29.845   9.605
 1277POPC   GL120845  16.566  29.892   9.193
 1277POPC   GL220846  16.344  29.688   8.998
 1277POPC   C1A20847  16.644  30.128   8.826
 1277POPC   D2A20848  16.773  30.314   8.448
 1277POPC   C3A20849  16.825  30.099   8.045
 1277POPC   C4A20850  16.600  29.960   7.701
 1277POPC   C1B20851  16.771  29.616   8.813
 1277POPC   C2B20852  16.854  29.799   8.461
 1277POPC   C3B20853  16.617  29.624   8.116
 1277POPC   C4B20854  16.776  29.489   7.743
 1278POPC   NC320855  44.904  42.485   9.554
 1278POPC   PO420856  44.261  42.199   9.482
 1278POPC   GL120857  44.581  42.378   9.170
 1278POPC   GL220858  44.974  42.240   9.117
 1278POPC   C1A20859  44.716  42.481   8.744
 1278POPC   D2A20860  44.757  42.704   8.365
 1278POPC   C3A20861  44.564  42.430   8.105
 1278POPC   C4A20862  44.654  42.211   7.765
 1278POPC   C1B20863   0.073  42.122   8.691
 1278POPC   C2B20864  44.973  42.153   8.284
 1278POPC   C3B20865   0.100  42.423   7.987
 1278POPC   C4B20866   0.158  42.215   7.620
 1279POPC   NC320867  10.211  16.845   9.459
 1279POPC   PO420868   9.581  16.555   9.476
 1279POPC   GL120869   9.839  16.640   9.141
 1279POPC   GL220870  10.112  16.418   9.144
 1279POPC   C1A20871   9.798  16.865   8.768
 1279POPC   D2A20872   9.845  17.070   8.383
 1279POPC   C3A20873   9.579  16.883   8.113
 1279POPC   C4A20874   9.704  16.871   7.707
 1279POPC   C1B20875   9.874  16.318   8.733
 1279POPC   C2B20876   9.620  16.386   8.347
 1279POPC   C3B20877   9.787  16.406   7.917
 1279POPC   C4B20878  10.135  16.449   7.619
 1280POPC   NC320879  27.638   7.668   9.534
 1280POPC   PO420880  27.850   7.048   9.548
 1280POPC   GL120881  27.773   7.314   9.140
 1280POPC   GL220882  27.469   7.493   9.083
 1280POPC   C1A20883  27.729   7.417   8.683
 1280POPC   D2A20884  27.622   7.314   8.286
 1280POPC   C3A20885  27.712   7.540   7.920
 1280POPC   C4A20886  27.463   7.378   7.636
 1280POPC   C1B20887  27.240   7.689   8.738
 1280POPC   C2B20888  27.419   7.787   8.356
 1280POPC   C3B20889  27.258   7.726   7.968
 1280POPC   C4B20890  27.232   7.829   7.555
 1281POPC   NC320891  43.335  13.934   9.477
 1281POPC   PO420892  42.805  13.518   9.534
 1281POPC   GL120893  43.069  13.552   9.226
 1281POPC   GL220894  42.930  13.849   9.131
 1281POPC   C1A20895  42.945  13.420   8.793
 1281POPC   D2A20896  42.868  13.688   8.454
 1281POPC   C3A20897  43.061  13.546   8.075
 1281POPC   C4A20898  43.164  13.601   7.672
 1281POPC   C1B20899  43.282  13.797   8.835
 1281POPC   C2B20900  43.385  13.761   8.414
 1281POPC   C3B20901  43.426  13.953   7.996
 1281POPC   C4B20902  43.492  13.969   7.559
 1282POPC   NC320903   9.585  33.352   9.498
 1282POPC   PO420904  10.112  32.959   9.522
 1282POPC   GL120905   9.812  33.041   9.178
 1282POPC   GL220906   9.906  33.391   9.073
 1282POPC   C1A20907   9.533  33.090   8.802
 1282POPC   D2A20908   9.616  33.058   8.363
 1282POPC   C3A20909   9.719  33.073   7.935
 1282POPC   C4A20910   9.481  33.369   7.666
 1282POPC   C1B20911  10.026  33.121   8.726
 1282POPC   C2B20912  10.125  33.183   8.320
 1282POPC   C3B20913  10.244  33.365   7.959
 1282POPC   C4B20914  10.094  33.240   7.610
 1283POPC   NC320915   4.121   8.570   9.509
 1283POPC   PO420916   4.735   8.201   9.516
 1283POPC   GL120917   4.396   8.196   9.188
 1283POPC   GL220918   4.128   7.934   9.165
 1283POPC   C1A20919   4.477   8.324   8.757
 1283POPC   D2A20920   4.459   8.099   8.360
 1283POPC   C3A20921   4.507   8.245   7.964
 1283POPC   C4A20922   4.371   8.619   7.828
 1283POPC   C1B20923   4.062   8.031   8.748
 1283POPC   C2B20924   4.064   7.780   8.394
 1283POPC   C3B20925   4.122   7.914   7.987
 1283POPC   C4B20926   4.016   8.289   7.750
 1284POPC   NC320927  22.183  10.745   9.547
 1284POPC   PO420928  22.427  11.231   9.296
 1284POPC   GL120929  22.058  10.886   9.058
 1284POPC   GL220930  22.108  10.512   9.108
 1284POPC   C1A20931  21.861  10.569   8.683
 1284POPC   D2A20932  22.051  10.224   8.462
 1284POPC   C3A20933  22.031  10.250   8.020
 1284POPC   C4A20934  21.817  10.463   7.726
 1284POPC   C1B20935  22.354  10.620   8.710
 1284POPC   C2B20936  22.240  10.663   8.250
 1284POPC   C3B20937  22.314  10.645   7.773
 1284POPC   C4B20938  22.455  10.680   7.316
 1285POPC   NC320939  42.304  25.057   9.617
 1285POPC   PO420940  42.702  25.556   9.454
 1285POPC   GL120941  42.347  25.358   9.206
 1285POPC   GL220942  42.551  25.103   9.053
 1285POPC   C1A20943  42.014  25.094   8.953
 1285POPC   D2A20944  41.942  24.993   8.493
 1285POPC   C3A20945  42.319  25.068   8.233
 1285POPC   C4A20946  42.342  25.123   7.778
 1285POPC   C1B20947  42.606  25.508   8.796
 1285POPC   C2B20948  42.669  25.498   8.364
 1285POPC   C3B20949  42.534  25.574   7.936
 1285POPC   C4B20950  42.493  25.570   7.465
 1286POPC   NC320951  17.766  27.109   9.461
 1286POPC   PO420952  17.794  26.487   9.542
 1286POPC   GL120953  17.968  26.659   9.135
 1286POPC   GL220954  18.329  26.707   9.133
 1286POPC   C1A20955  18.133  26.559   8.682
 1286POPC   D2A20956  18.014  26.672   8.254
 1286POPC   C3A20957  18.401  26.758   8.041
 1286POPC   C4A20958  18.678  26.685   7.688
 1286POPC   C1B20959  18.468  26.960   8.756
 1286POPC   C2B20960  18.235  27.120   8.413
 1286POPC   C3B20961  18.055  27.138   8.009
 1286POPC   C4B20962  18.261  27.057   7.657
 1287POPC   NC320963   4.842  12.642   9.557
 1287POPC   PO420964   5.232  13.160   9.482
 1287POPC   GL120965   5.313  12.963   9.101
 1287POPC   GL220966   5.279  12.627   9.167
 1287POPC   C1A20967   5.052  13.049   8.704
 1287POPC   D2A20968   5.216  13.104   8.328
 1287POPC   C3A20969   5.008  13.047   7.963
 1287POPC   C4A20970   5.392  12.964   7.806
 1287POPC   C1B20971   5.362  12.657   8.690
 1287POPC   C2B20972   5.349  12.614   8.234
 1287POPC   C3B20973   5.210  12.491   7.826
 1287POPC   C4B20974   5.202  12.199   7.504
 1288POPC   NC320975  26.014  44.372   9.537
 1288POPC   PO420976  26.532  44.705   9.556
 1288POPC   GL120977  26.401  44.493   9.148
 1288POPC   GL220978  26.021  44.448   9.033
 1288POPC   C1A20979  26.362  44.636   8.692
 1288POPC   D2A20980  26.359  44.457   8.286
 1288POPC   C3A20981  26.262  44.694   7.920
 1288POPC   C4A20982  26.083  44.509   7.551
 1288POPC   C1B20983  25.871  44.780   8.721
 1288POPC   C2B20984  25.889  44.916   8.286
 1288POPC   C3B20985  25.761  44.838   7.856
 1288POPC   C4B20986  25.640  44.698   7.418
 1289POPC   NC320987  38.262  23.602   9.467
 1289POPC   PO420988  38.654  24.149   9.547
 1289POPC   GL120989  38.549  23.879   9.121
 1289POPC   GL220990  38.202  23.718   8.992
 1289POPC   C1A20991  38.599  23.668   8.679
 1289POPC   D2A20992  38.732  23.495   8.254
 1289POPC   C3A20993  38.478  23.638   7.888
 1289POPC   C4A20994  38.576  23.626   7.450
 1289POPC   C1B20995  38.144  23.290   8.832
 1289POPC   C2B20996  38.399  23.165   8.500
 1289POPC   C3B20997  38.308  23.219   8.109
 1289POPC   C4B20998  38.025  23.363   7.816
 1290POPC   NC320999   7.710  40.469   9.556
 1290POPC   PO421000   7.362  41.090   9.453
 1290POPC   GL121001   7.462  40.800   9.102
 1290POPC   GL221002   7.803  40.602   9.073
 1290POPC   C1A21003   7.310  40.565   8.691
 1290POPC   D2A21004   7.344  40.339   8.240
 1290POPC   C3A21005   7.243  40.616   7.880
 1290POPC   C4A21006   7.298  40.665   7.406
 1290POPC   C1B21007   7.746  40.848   8.695
 1290POPC   C2B21008   7.571  40.799   8.302
 1290POPC   C3B21009   7.739  40.574   7.964
 1290POPC   C4B21010   7.696  40.885   7.664
 1291POPC   NC321011  11.645  40.942   9.371
 1291POPC   PO421012  12.151  40.501   9.527
 1291POPC   GL121013  12.220  40.691   9.098
 1291POPC   GL221014  11.913  40.786   8.964
 1291POPC   C1A21015  12.252  40.559   8.640
 1291POPC   D2A21016  12.058  40.551   8.218
 1291POPC   C3A21017  12.141  40.492   7.761
 1291POPC   C4A21018  12.397  40.678   7.431
 1291POPC   C1B21019  12.158  41.066   8.674
 1291POPC   C2B21020  12.121  41.220   8.257
 1291POPC   C3B21021  12.075  40.980   7.889
 1291POPC   C4B21022  11.841  40.908   7.516
 1292POPC   NC321023  40.444  23.743   9.385
 1292POPC   PO421024  41.083  23.472   9.473
 1292POPC   GL121025  41.112  23.583   9.065
 1292POPC   GL221026  40.751  23.577   9.024
 1292POPC   C1A21027  41.079  23.875   8.728
 1292POPC   D2A21028  40.906  23.838   8.326
 1292POPC   C3A21029  41.039  24.006   7.923
 1292POPC   C4A21030  40.903  23.808   7.516
 1292POPC   C1B21031  40.594  23.335   8.690
 1292POPC   C2B21032  40.708  23.355   8.291
 1292POPC   C3B21033  40.766  23.547   7.927
 1292POPC   C4B21034  40.693  23.355   7.532
 1293POPC   NC321035  17.071  24.585   9.753
 1293POPC   PO421036  16.613  24.192   9.704
 1293POPC   GL121037  16.629  24.481   9.303
 1293POPC   GL221038  16.868  24.731   9.247
 1293POPC   C1A21039  16.732  24.417   8.839
 1293POPC   D2A21040  16.537  24.369   8.458
 1293POPC   C3A21041  16.742  24.319   8.057
 1293POPC   C4A21042  16.438  24.478   7.782
 1293POPC   C1B21043  17.028  24.838   8.818
 1293POPC   C2B21044  16.961  24.652   8.411
 1293POPC   C3B21045  16.885  24.803   8.004
 1293POPC   C4B21046  16.780  24.787   7.572
 1294POPC   NC321047  14.684  22.640   9.252
 1294POPC   PO421048  14.574  23.272   9.542
 1294POPC   GL121049  14.670  23.136   9.149
 1294POPC   GL221050  14.321  23.040   9.149
 1294POPC   C1A21051  14.586  23.000   8.717
 1294POPC   D2A21052  14.704  23.080   8.346
 1294POPC   C3A21053  14.560  22.731   8.124
 1294POPC   C4A21054  14.545  22.537   7.739
 1294POPC   C1B21055  14.180  23.287   8.786
 1294POPC   C2B21056  14.180  23.112   8.350
 1294POPC   C3B21057  14.109  22.894   7.954
 1294POPC   C4B21058  14.269  22.954   7.585
 1295POPC   NC321059  19.267   1.282   9.489
 1295POPC   PO421060  18.871   0.766   9.505
 1295POPC   GL121061  18.948   0.792   9.076
 1295POPC   GL221062  19.279   0.934   9.116
 1295POPC   C1A21063  19.061   0.923   8.631
 1295POPC   D2A21064  19.284   1.309   8.455
 1295POPC   C3A21065  19.107   1.440   8.076
 1295POPC   C4A21066  18.966   1.191   7.713
 1295POPC   C1B21067  19.544   1.034   8.791
 1295POPC   C2B21068  19.554   0.875   8.375
 1295POPC   C3B21069  19.431   1.046   8.030
 1295POPC   C4B21070  19.453   1.071   7.631
 1296POPC   NC321071   9.403  17.656   9.375
 1296POPC   PO421072   9.981  17.277   9.416
 1296POPC   GL121073   9.846  17.542   9.115
 1296POPC   GL221074  10.011  17.838   9.121
 1296POPC   C1A21075   9.710  17.430   8.725
 1296POPC   D2A21076   9.430  17.362   8.400
 1296POPC   C3A21077   9.634  17.400   8.010
 1296POPC   C4A21078   9.593  17.351   7.554
 1296POPC   C1B21079  10.122  17.738   8.717
 1296POPC   C2B21080  10.090  17.519   8.352
 1296POPC   C3B21081  10.151  17.752   8.029
 1296POPC   C4B21082   9.907  17.748   7.708
 1297POPC   NC321083  27.294  38.071   9.983
 1297POPC   PO421084  27.673  38.248   9.611
 1297POPC   GL121085  27.612  38.399   9.156
 1297POPC   GL221086  27.481  38.114   8.993
 1297POPC   C1A21087  27.797  38.409   8.713
 1297POPC   D2A21088  27.681  38.212   8.304
 1297POPC   C3A21089  27.661  38.451   7.915
 1297POPC   C4A21090  27.321  38.352   7.613
 1297POPC   C1B21091  27.287  38.328   8.630
 1297POPC   C2B21092  27.224  38.443   8.188
 1297POPC   C3B21093  27.161  38.754   7.869
 1297POPC   C4B21094  27.032  38.776   7.441
 1298POPC   NC321095  40.437  30.515   9.247
 1298POPC   PO421096  41.102  30.436   9.255
 1298POPC   GL121097  40.892  30.743   8.985
 1298POPC   GL221098  40.630  30.969   9.092
 1298POPC   C1A21099  40.917  30.747   8.550
 1298POPC   D2A21100  41.179  30.540   8.331
 1298POPC   C3A21101  40.996  30.376   8.016
 1298POPC   C4A21102  40.769  30.616   7.790
 1298POPC   C1B21103  40.442  30.847   8.681
 1298POPC   C2B21104  40.467  30.677   8.264
 1298POPC   C3B21105  40.262  30.580   7.880
 1298POPC   C4B21106  40.394  30.886   7.594
 1299POPC   NC321107  20.718  29.281   9.859
 1299POPC   PO421108  20.578  29.970   9.536
 1299POPC   GL121109  20.624  29.912   9.123
 1299POPC   GL221110  20.914  29.720   9.110
 1299POPC   C1A21111  20.523  30.084   8.722
 1299POPC   D2A21112  20.448  29.799   8.370
 1299POPC   C3A21113  20.600  29.847   7.977
 1299POPC   C4A21114  20.424  29.943   7.601
 1299POPC   C1B21115  20.761  29.578   8.716
 1299POPC   C2B21116  20.945  29.641   8.324
 1299POPC   C3B21117  21.070  29.611   7.898
 1299POPC   C4B21118  20.906  29.757   7.516
 1300POPC   NC321119  23.089   4.508   9.696
 1300POPC   PO421120  22.800   3.833   9.664
 1300POPC   GL121121  22.794   4.169   9.362
 1300POPC   GL221122  23.154   4.168   9.278
 1300POPC   C1A21123  22.760   4.296   8.919
 1300POPC   D2A21124  22.952   4.383   8.504
 1300POPC   C3A21125  22.773   4.167   8.140
 1300POPC   C4A21126  22.861   4.329   7.756
 1300POPC   C1B21127  23.362   4.182   8.869
 1300POPC   C2B21128  23.506   4.314   8.463
 1300POPC   C3B21129  23.280   4.392   8.064
 1300POPC   C4B21130  23.267   4.024   7.783
 1301POPC   NC321131  32.766  44.453   9.641
 1301POPC   PO421132  33.286  44.897   9.594
 1301POPC   GL121133  33.134  44.627   9.279
 1301POPC   GL221134  32.765  44.672   9.184
 1301POPC   C1A21135  33.178  44.636   8.843
 1301POPC   D2A21136  33.360  44.780   8.461
 1301POPC   C3A21137  33.069  44.844   8.106
 1301POPC   C4A21138  33.013  44.583   7.738
 1301POPC   C1B21139  32.702  44.449   8.799
 1301POPC   C2B21140  32.920  44.429   8.399
 1301POPC   C3B21141  32.930  44.174   8.026
 1301POPC   C4B21142  32.769  44.160   7.627
 1302POPC   NC321143  42.526  21.834   9.542
 1302POPC   PO421144  42.057  21.347   9.759
 1302POPC   GL121145  42.246  21.493   9.265
 1302POPC   GL221146  42.548  21.622   9.067
 1302POPC   C1A21147  42.166  21.480   8.769
 1302POPC   D2A21148  42.384  21.377   8.398
 1302POPC   C3A21149  42.269  21.527   7.989
 1302POPC   C4A21150  42.000  21.364   7.666
 1302POPC   C1B21151  42.583  21.178   8.864
 1302POPC   C2B21152  42.631  20.927   8.432
 1302POPC   C3B21153  42.597  21.119   8.001
 1302POPC   C4B21154  42.796  21.467   7.820
 1303POPC   NC321155  20.991   5.735   9.415
 1303POPC   PO421156  20.373   6.201   9.389
 1303POPC   GL121157  20.558   5.845   9.158
 1303POPC   GL221158  20.275   5.697   9.031
 1303POPC   C1A21159  20.653   5.603   8.733
 1303POPC   D2A21160  20.557   5.428   8.311
 1303POPC   C3A21161  20.523   5.781   8.016
 1303POPC   C4A21162  20.845   5.975   7.751
 1303POPC   C1B21163  20.374   6.074   8.746
 1303POPC   C2B21164  20.254   6.253   8.329
 1303POPC   C3B21165  20.244   6.202   7.866
 1303POPC   C4B21166  20.371   5.929   7.524
 1304POPC   NC321167   8.831  36.759   9.630
 1304POPC   PO421168   9.295  37.211   9.365
 1304POPC   GL121169   8.981  36.855   9.161
 1304POPC   GL221170   9.064  36.513   8.970
 1304POPC   C1A21171   8.620  36.693   8.863
 1304POPC   D2A21172   8.742  36.533   8.430
 1304POPC   C3A21173   8.893  36.905   8.157
 1304POPC   C4A21174   8.807  36.968   7.710
 1304POPC   C1B21175   9.073  36.872   8.669
 1304POPC   C2B21176   9.334  37.141   8.448
 1304POPC   C3B21177   9.225  37.344   8.062
 1304POPC   C4B21178   9.286  37.074   7.722
 1305POPC   NC321179   6.428  19.828   9.487
 1305POPC   PO421180   6.879  19.401   9.488
 1305POPC   GL121181   6.731  19.703   9.090
 1305POPC   GL221182   6.471  20.028   9.032
 1305POPC   C1A21183   6.882  19.988   8.731
 1305POPC   D2A21184   7.160  19.983   8.382
 1305POPC   C3A21185   6.914  19.877   8.036
 1305POPC   C4A21186   6.679  20.091   7.762
 1305POPC   C1B21187   6.376  20.050   8.585
 1305POPC   C2B21188   6.352  20.159   8.146
 1305POPC   C3B21189   6.229  19.904   7.838
 1305POPC   C4B21190   6.517  19.549   7.820
 1306POPC   NC321191   5.556  16.338   9.482
 1306POPC   PO421192   5.819  15.711   9.437
 1306POPC   GL121193   5.894  15.785   9.037
 1306POPC   GL221194   5.816  16.123   9.086
 1306POPC   C1A21195   5.852  15.653   8.609
 1306POPC   D2A21196   5.651  15.800   8.225
 1306POPC   C3A21197   5.888  15.814   7.833
 1306POPC   C4A21198   5.726  15.876   7.375
 1306POPC   C1B21199   6.004  16.303   8.744
 1306POPC   C2B21200   5.873  16.443   8.385
 1306POPC   C3B21201   5.722  16.277   8.037
 1306POPC   C4B21202   5.859  16.287   7.640
 1307POPC   NC321203  40.754  36.748   9.778
 1307POPC   PO421204  40.370  37.290   9.719
 1307POPC   GL121205  40.490  37.014   9.336
 1307POPC   GL221206  40.863  36.911   9.291
 1307POPC   C1A21207  40.541  37.032   8.849
 1307POPC   D2A21208  40.835  37.099   8.465
 1307POPC   C3A21209  40.761  37.120   7.985
 1307POPC   C4A21210  40.867  37.053   7.531
 1307POPC   C1B21211  40.958  36.737   8.869
 1307POPC   C2B21212  40.828  36.587   8.447
 1307POPC   C3B21213  40.748  36.610   7.994
 1307POPC   C4B21214  40.962  36.567   7.633
 1308POPC   NC321215  37.592  11.389   9.678
 1308POPC   PO421216  38.065  11.029   9.444
 1308POPC   GL121217  37.805  11.235   9.116
 1308POPC   GL221218  37.517  11.279   9.200
 1308POPC   C1A21219  37.672  11.408   8.712
 1308POPC   D2A21220  37.839  11.436   8.286
 1308POPC   C3A21221  37.540  11.465   7.951
 1308POPC   C4A21222  37.425  11.432   7.483
 1308POPC   C1B21223  37.368  11.004   8.873
 1308POPC   C2B21224  37.300  11.086   8.502
 1308POPC   C3B21225  37.266  10.853   8.177
 1308POPC   C4B21226  37.344  11.030   7.777
 1309POPC   NC321227   4.381  22.514   9.589
 1309POPC   PO421228   3.821  22.183   9.603
 1309POPC   GL121229   4.158  22.047   9.309
 1309POPC   GL221230   3.986  22.235   9.052
 1309POPC   C1A21231   4.451  22.144   8.939
 1309POPC   D2A21232   4.309  22.196   8.496
 1309POPC   C3A21233   4.444  22.062   8.070
 1309POPC   C4A21234   4.612  22.159   7.676
 1309POPC   C1B21235   4.070  21.829   8.828
 1309POPC   C2B21236   4.126  21.733   8.398
 1309POPC   C3B21237   3.991  21.863   7.998
 1309POPC   C4B21238   4.096  22.146   7.628
 1310POPC   NC321239  24.898  44.016   9.500
 1310POPC   PO421240  25.566  44.247   9.610
 1310POPC   GL121241  25.335  44.006   9.261
 1310POPC   GL221242  25.121  43.709   9.152
 1310POPC   C1A21243  25.120  44.128   8.849
 1310POPC   D2A21244  24.952  44.104   8.426
 1310POPC   C3A21245  25.198  44.111   8.040
 1310POPC   C4A21246  25.283  43.978   7.630
 1310POPC   C1B21247  25.055  43.653   8.687
 1310POPC   C2B21248  25.124  43.644   8.236
 1310POPC   C3B21249  25.190  43.500   7.816
 1310POPC   C4B21250  25.006  43.517   7.392
 1311POPC   NC321251  23.996   1.091   9.461
 1311POPC   PO421252  23.360   1.459   9.569
 1311POPC   GL121253  23.663   1.390   9.235
 1311POPC   GL221254  23.619   1.062   9.092
 1311POPC   C1A21255  23.951   1.351   8.862
 1311POPC   D2A21256  23.684   1.319   8.507
 1311POPC   C3A21257  23.826   1.231   8.120
 1311POPC   C4A21258  23.751   1.303   7.734
 1311POPC   C1B21259  23.586   0.870   8.686
 1311POPC   C2B21260  23.361   0.995   8.291
 1311POPC   C3B21261  23.422   0.956   7.857
 1311POPC   C4B21262  23.682   0.777   7.516
 1312POPC   NC321263  19.141  29.650   9.549
 1312POPC   PO421264  19.080  30.194   9.227
 1312POPC   GL121265  19.139  29.969   8.974
 1312POPC   GL221266  18.951  29.693   9.072
 1312POPC   C1A21267  18.915  29.919   8.594
 1312POPC   D2A21268  18.894  29.664   8.263
 1312POPC   C3A21269  19.045  29.878   7.888
 1312POPC   C4A21270  19.066  30.037   7.470
 1312POPC   C1B21271  19.260  29.561   8.740
 1312POPC   C2B21272  19.403  29.681   8.344
 1312POPC   C3B21273  19.256  29.426   8.001
 1312POPC   C4B21274  19.236  29.519   7.587
 1313POPC   NC321275  40.163   9.472   9.496
 1313POPC   PO421276  39.837  10.001   9.496
 1313POPC   GL121277  39.973   9.816   9.117
 1313POPC   GL221278  40.306   9.902   9.092
 1313POPC   C1A21279  39.976   9.468   8.805
 1313POPC   D2A21280  40.215   9.344   8.415
 1313POPC   C3A21281  39.926   9.511   8.114
 1313POPC   C4A21282  39.966   9.764   7.800
 1313POPC   C1B21283  40.362   9.774   8.657
 1313POPC   C2B21284  40.298   9.845   8.215
 1313POPC   C3B21285  40.401   9.541   7.903
 1313POPC   C4B21286  40.232   9.381   7.531
 1314POPC   NC321287  38.965   5.934   9.442
 1314POPC   PO421288  39.525   6.291   9.722
 1314POPC   GL121289  39.462   6.027   9.288
 1314POPC   GL221290  39.604   5.722   9.300
 1314POPC   C1A21291  39.246   6.028   8.835
 1314POPC   D2A21292  38.960   5.981   8.476
 1314POPC   C3A21293  39.099   5.807   8.061
 1314POPC   C4A21294  39.133   6.032   7.633
 1314POPC   C1B21295  39.629   5.708   8.855
 1314POPC   C2B21296  39.532   5.422   8.504
 1314POPC   C3B21297  39.498   5.384   8.068
 1314POPC   C4B21298  39.410   5.588   7.682
 1315POPC   NC321299   3.051  20.171   9.423
 1315POPC   PO421300   2.685  19.635   9.605
 1315POPC   GL121301   2.634  19.905   9.269
 1315POPC   GL221302   2.901  19.713   9.129
 1315POPC   C1A21303   2.514  19.939   8.835
 1315POPC   D2A21304   2.664  19.818   8.423
 1315POPC   C3A21305   2.609  20.130   8.113
 1315POPC   C4A21306   2.435  20.178   7.698
 1315POPC   C1B21307   3.042  19.876   8.763
 1315POPC   C2B21308   3.218  19.738   8.379
 1315POPC   C3B21309   3.009  19.817   7.992
 1315POPC   C4B21310   2.883  19.783   7.534
 1316POPC   NC321311  35.581   5.885   9.499
 1316POPC   PO421312  34.911   5.710   9.539
 1316POPC   GL121313  35.146   5.647   9.163
 1316POPC   GL221314  35.185   6.000   9.179
 1316POPC   C1A21315  35.352   5.537   8.745
 1316POPC   D2A21316  35.579   5.641   8.341
 1316POPC   C3A21317  35.437   5.644   7.890
 1316POPC   C4A21318  35.642   5.647   7.486
 1316POPC   C1B21319  35.438   6.027   8.834
 1316POPC   C2B21320  35.634   6.133   8.456
 1316POPC   C3B21321  35.561   6.124   8.048
 1316POPC   C4B21322  35.184   6.130   7.824
 1317POPC   NC321323  42.529  27.590   9.341
 1317POPC   PO421324  41.991  27.226   9.346
 1317POPC   GL121325  42.122  27.437   9.047
 1317POPC   GL221326  42.017  27.766   9.146
 1317POPC   C1A21327  42.256  27.348   8.641
 1317POPC   D2A21328  42.630  27.253   8.435
 1317POPC   C3A21329  42.567  27.408   8.024
 1317POPC   C4A21330  42.180  27.522   7.922
 1317POPC   C1B21331  42.196  27.846   8.749
 1317POPC   C2B21332  42.379  27.794   8.334
 1317POPC   C3B21333  42.211  28.034   7.986
 1317POPC   C4B21334  42.126  28.160   7.557
 1318POPC   NC321335  22.250  27.824   9.636
 1318POPC   PO421336  22.430  27.158   9.435
 1318POPC   GL121337  22.122  27.512   9.243
 1318POPC   GL221338  22.227  27.862   9.144
 1318POPC   C1A21339  21.872  27.612   8.850
 1318POPC   D2A21340  21.811  27.405   8.437
 1318POPC   C3A21341  21.989  27.530   8.035
 1318POPC   C4A21342  22.339  27.572   7.732
 1318POPC   C1B21343  22.346  27.768   8.726
 1318POPC   C2B21344  22.218  27.925   8.320
 1318POPC   C3B21345  22.273  28.045   7.901
 1318POPC   C4B21346  22.366  27.995   7.444
 1319POPC   NC321347  28.736  43.738   9.364
 1319POPC   PO421348  28.063  44.029   9.328
 1319POPC   GL121349  28.223  44.041   8.926
 1319POPC   GL221350  28.597  44.116   8.969
 1319POPC   C1A21351  28.022  43.862   8.566
 1319POPC   D2A21352  27.885  43.701   8.173
 1319POPC   C3A21353  28.057  44.017   7.929
 1319POPC   C4A21354  28.501  44.067   7.899
 1319POPC   C1B21355  28.595  43.804   8.631
 1319POPC   C2B21356  28.783  43.702   8.213
 1319POPC   C3B21357  28.846  43.689   7.753
 1319POPC   C4B21358  28.862  43.704   7.315
 1320POPC   NC321359  10.251   8.207   9.569
 1320POPC   PO421360  10.844   8.025   9.283
 1320POPC   GL121361  10.438   8.101   9.117
 1320POPC   GL221362  10.095   7.872   9.220
 1320POPC   C1A21363  10.361   8.436   8.802
 1320POPC   D2A21364  10.331   8.494   8.356
 1320POPC   C3A21365  10.556   8.223   8.102
 1320POPC   C4A21366  10.530   8.229   7.688
 1320POPC   C1B21367  10.057   8.001   8.819
 1320POPC   C2B21368  10.299   8.001   8.506
 1320POPC   C3B21369  10.078   8.058   8.160
 1320POPC   C4B21370  10.052   8.338   7.830
 1321POPC   NC321371   2.409  31.158   9.483
 1321POPC   PO421372   2.819  31.678   9.525
 1321POPC   GL121373   2.924  31.484   9.096
 1321POPC   GL221374   3.156  31.775   9.078
 1321POPC   C1A21375   2.624  31.464   8.724
 1321POPC   D2A21376   2.480  31.315   8.322
 1321POPC   C3A21377   2.566  31.559   7.943
 1321POPC   C4A21378   2.477  31.453   7.488
 1321POPC   C1B21379   2.969  31.819   8.685
 1321POPC   C2B21380   2.960  31.639   8.286
 1321POPC   C3B21381   3.040  31.805   7.897
 1321POPC   C4B21382   3.167  32.073   7.526
 1322POPC   NC321383   6.416  41.923   9.524
 1322POPC   PO421384   6.858  42.416   9.460
 1322POPC   GL121385   6.599  42.496   9.100
 1322POPC   GL221386   6.325  42.389   9.267
 1322POPC   C1A21387   6.684  42.329   8.652
 1322POPC   D2A21388   6.870  42.064   8.295
 1322POPC   C3A21389   6.803  42.343   7.950
 1322POPC   C4A21390   6.637  42.611   7.660
 1322POPC   C1B21391   6.337  42.052   8.916
 1322POPC   C2B21392   6.437  41.888   8.522
 1322POPC   C3B21393   6.306  41.927   8.108
 1322POPC   C4B21394   6.463  42.050   7.707
 1323POPC   NC321395   3.858   1.783   9.868
 1323POPC   PO421396   3.340   1.436   9.574
 1323POPC   GL121397   3.305   1.639   9.134
 1323POPC   GL221398   3.344   1.984   9.250
 1323POPC   C1A21399   3.635   1.823   8.807
 1323POPC   D2A21400   3.708   2.233   8.635
 1323POPC   C3A21401   3.740   2.182   8.193
 1323POPC   C4A21402   3.870   2.293   7.791
 1323POPC   C1B21403   3.194   2.071   8.824
 1323POPC   C2B21404   3.326   1.939   8.403
 1323POPC   C3B21405   3.328   2.029   7.931
 1323POPC   C4B21406   3.186   1.981   7.494
 1324POPC   NC321407  14.033  30.815   9.312
 1324POPC   PO421408  14.571  30.335   9.459
 1324POPC   GL121409  14.508  30.505   9.060
 1324POPC   GL221410  14.522  30.882   9.050
 1324POPC   C1A21411  14.549  30.394   8.611
 1324POPC   D2A21412  14.725  30.654   8.274
 1324POPC   C3A21413  14.487  30.571   7.899
 1324POPC   C4A21414  14.657  30.351   7.589
 1324POPC   C1B21415  14.221  30.789   8.710
 1324POPC   C2B21416  14.228  30.736   8.313
 1324POPC   C3B21417  14.299  31.030   8.012
 1324POPC   C4B21418  14.258  30.943   7.609
 1325POPC   NC321419   6.240  34.825   9.465
 1325POPC   PO421420   6.911  34.578   9.515
 1325POPC   GL121421   6.691  34.761   9.195
 1325POPC   GL221422   6.552  34.447   9.101
 1325POPC   C1A21423   6.513  34.852   8.783
 1325POPC   D2A21424   6.670  34.911   8.383
 1325POPC   C3A21425   6.646  34.641   8.038
 1325POPC   C4A21426   6.875  34.718   7.723
 1325POPC   C1B21427   6.834  34.243   8.832
 1325POPC   C2B21428   6.867  34.358   8.418
 1325POPC   C3B21429   7.032  34.296   8.030
 1325POPC   C4B21430   6.942  34.115   7.664
 1326POPC   NC321431  37.913  27.895   9.513
 1326POPC   PO421432  38.519  27.558   9.518
 1326POPC   GL121433  38.261  27.680   9.224
 1326POPC   GL221434  38.236  28.038   9.139
 1326POPC   C1A21435  38.079  27.507   8.891
 1326POPC   D2A21436  38.346  27.428   8.557
 1326POPC   C3A21437  38.257  27.529   8.141
 1326POPC   C4A21438  38.099  27.587   7.718
 1326POPC   C1B21439  38.410  27.879   8.777
 1326POPC   C2B21440  38.617  27.829   8.370
 1326POPC   C3B21441  38.499  27.955   7.948
 1326POPC   C4B21442  38.392  27.938   7.513
 1327POPC   NC321443  27.318  30.905   9.442
 1327POPC   PO421444  27.887  30.475   9.499
 1327POPC   GL121445  27.636  30.604   9.161
 1327POPC   GL221446  27.721  30.934   9.113
 1327POPC   C1A21447  27.430  30.606   8.750
 1327POPC   D2A21448  27.614  30.437   8.385
 1327POPC   C3A21449  27.480  30.522   7.993
 1327POPC   C4A21450  27.310  30.606   7.605
 1327POPC   C1B21451  27.617  31.121   8.752
 1327POPC   C2B21452  27.462  30.997   8.370
 1327POPC   C3B21453  27.314  31.012   7.964
 1327POPC   C4B21454  27.683  30.944   7.744
 1328POPC   NC321455   9.902  19.330   9.636
 1328POPC   PO421456   9.547  18.761   9.751
 1328POPC   GL121457   9.713  19.050   9.270
 1328POPC   GL221458   9.860  19.356   9.121
 1328POPC   C1A21459   9.836  18.944   8.797
 1328POPC   D2A21460   9.917  19.043   8.339
 1328POPC   C3A21461   9.766  18.761   7.995
 1328POPC   C4A21462   9.638  18.809   7.522
 1328POPC   C1B21463  10.058  19.429   8.698
 1328POPC   C2B21464  10.269  19.456   8.281
 1328POPC   C3B21465  10.092  19.531   7.900
 1328POPC   C4B21466   9.747  19.241   7.821
 1329POPC   NC321467  35.520   7.463   9.689
 1329POPC   PO421468  34.974   7.183   9.391
 1329POPC   GL121469  35.247   7.407   9.104
 1329POPC   GL221470  34.963   7.512   8.956
 1329POPC   C1A21471  35.297   7.421   8.612
 1329POPC   D2A21472  35.581   7.651   8.364
 1329POPC   C3A21473  35.612   7.527   7.957
 1329POPC   C4A21474  35.483   7.432   7.540
 1329POPC   C1B21475  34.871   7.144   8.724
 1329POPC   C2B21476  35.104   6.960   8.393
 1329POPC   C3B21477  35.172   7.230   8.034
 1329POPC   C4B21478  34.962   7.387   7.668
 1330POPC   NC321479  42.606  26.004   9.512
 1330POPC   PO421480  42.044  26.351   9.526
 1330POPC   GL121481  42.173  26.059   9.175
 1330POPC   GL221482  42.541  26.033   9.021
 1330POPC   C1A21483  42.154  25.866   8.764
 1330POPC   D2A21484  42.484  25.972   8.487
 1330POPC   C3A21485  42.246  25.995   8.143
 1330POPC   C4A21486  42.264  25.961   7.740
 1330POPC   C1B21487  42.758  26.331   8.769
 1330POPC   C2B21488  42.919  26.298   8.357
 1330POPC   C3B21489  42.696  26.216   7.957
 1330POPC   C4B21490  42.710  26.457   7.583
 1331POPC   NC321491  40.573  29.609   9.650
 1331POPC   PO421492  40.703  30.297   9.554
 1331POPC   GL121493  40.558  29.988   9.239
 1331POPC   GL221494  40.284  29.701   9.247
 1331POPC   C1A21495  40.699  30.054   8.821
 1331POPC   D2A21496  40.692  30.240   8.434
 1331POPC   C3A21497  40.763  29.926   8.136
 1331POPC   C4A21498  40.702  30.066   7.739
 1331POPC   C1B21499  40.470  29.609   8.874
 1331POPC   C2B21500  40.358  29.816   8.482
 1331POPC   C3B21501  40.263  29.802   8.058
 1331POPC   C4B21502  40.415  29.638   7.681
 1332POPC   NC321503  18.097  10.919   9.460
 1332POPC   PO421504  18.264  11.632   9.460
 1332POPC   GL121505  18.178  11.308   9.107
 1332POPC   GL221506  17.979  11.012   8.974
 1332POPC   C1A21507  18.445  11.188   8.747
 1332POPC   D2A21508  18.427  11.333   8.357
 1332POPC   C3A21509  18.583  11.351   7.948
 1332POPC   C4A21510  18.340  11.224   7.619
 1332POPC   C1B21511  17.820  11.410   8.776
 1332POPC   C2B21512  17.959  11.599   8.411
 1332POPC   C3B21513  18.071  11.429   8.014
 1332POPC   C4B21514  17.874  11.462   7.643
 1333POPC   NC321515  22.659  11.615   9.420
 1333POPC   PO421516  22.174  12.090   9.642
 1333POPC   GL121517  22.154  12.016   9.166
 1333POPC   GL221518  22.455  12.023   8.936
 1333POPC   C1A21519  21.977  11.868   8.748
 1333POPC   D2A21520  21.814  12.026   8.313
 1333POPC   C3A21521  22.034  12.046   7.897
 1333POPC   C4A21522  22.058  12.141   7.451
 1333POPC   C1B21523  22.220  12.306   8.613
 1333POPC   C2B21524  22.148  12.452   8.178
 1333POPC   C3B21525  22.364  12.482   7.765
 1333POPC   C4B21526  22.377  12.517   7.276
 1334POPC   NC321527   6.292   7.355   9.531
 1334POPC   PO421528   5.861   7.815   9.511
 1334POPC   GL121529   5.993   7.628   9.130
 1334POPC   GL221530   5.881   7.286   9.110
 1334POPC   C1A21531   6.067   7.528   8.697
 1334POPC   D2A21532   6.100   7.378   8.280
 1334POPC   C3A21533   6.092   7.607   7.948
 1334POPC   C4A21534   6.071   7.336   7.588
 1334POPC   C1B21535   5.571   7.391   8.758
 1334POPC   C2B21536   5.587   7.382   8.323
 1334POPC   C3B21537   5.639   7.369   7.889
 1334POPC   C4B21538   5.593   7.304   7.453
 1335POPC   NC321539  44.199  10.645   9.644
 1335POPC   PO421540  43.605  10.490   9.798
 1335POPC   GL121541  43.814  10.435   9.352
 1335POPC   GL221542  44.158  10.487   9.172
 1335POPC   C1A21543  43.725  10.457   8.886
 1335POPC   D2A21544  43.560  10.303   8.479
 1335POPC   C3A21545  43.751  10.495   8.146
 1335POPC   C4A21546  43.672  10.529   7.737
 1335POPC   C1B21547  44.221  10.220   8.817
 1335POPC   C2B21548  44.085  10.184   8.394
 1335POPC   C3B21549  44.283  10.286   7.982
 1335POPC   C4B21550  44.545  10.240   7.586
 1336POPC   NC321551   4.842   2.534   9.679
 1336POPC   PO421552   5.259   2.946   9.316
 1336POPC   GL121553   5.182   2.653   9.061
 1336POPC   GL221554   4.838   2.635   9.129
 1336POPC   C1A21555   5.115   2.697   8.639
 1336POPC   D2A21556   4.985   2.695   8.249
 1336POPC   C3A21557   5.336   2.699   7.982
 1336POPC   C4A21558   5.377   2.771   7.537
 1336POPC   C1B21559   4.622   2.722   8.728
 1336POPC   C2B21560   4.663   3.074   8.436
 1336POPC   C3B21561   4.758   3.087   7.998
 1336POPC   C4B21562   4.891   2.753   7.738
 1337POPC   NC321563  35.739  18.966   9.426
 1337POPC   PO421564  36.510  19.159   9.404
 1337POPC   GL121565  36.299  18.985   9.033
 1337POPC   GL221566  35.993  18.793   9.032
 1337POPC   C1A21567  36.212  18.839   8.591
 1337POPC   D2A21568  36.246  18.621   8.219
 1337POPC   C3A21569  36.207  19.001   7.963
 1337POPC   C4A21570  36.304  19.401   7.736
 1337POPC   C1B21571  35.893  19.202   8.779
 1337POPC   C2B21572  35.933  19.416   8.389
 1337POPC   C3B21573  35.849  19.390   7.974
 1337POPC   C4B21574  35.701  19.092   7.732
 1338POPC   NC321575   3.026   9.970   9.639
 1338POPC   PO421576   2.855   9.344   9.656
 1338POPC   GL121577   2.865   9.616   9.235
 1338POPC   GL221578   3.010   9.977   9.145
 1338POPC   C1A21579   2.720   9.761   8.801
 1338POPC   D2A21580   2.842   9.875   8.385
 1338POPC   C3A21581   2.800   9.645   8.020
 1338POPC   C4A21582   2.505   9.706   7.688
 1338POPC   C1B21583   3.094  10.150   8.736
 1338POPC   C2B21584   3.276  10.102   8.302
 1338POPC   C3B21585   3.036  10.085   7.870
 1338POPC   C4B21586   3.210  10.026   7.435
 1339POPC   NC321587  36.359   7.137   9.261
 1339POPC   PO421588  35.796   7.081   9.705
 1339POPC   GL121589  35.810   7.464   9.288
 1339POPC   GL221590  36.132   7.581   9.132
 1339POPC   C1A21591  35.761   7.476   8.803
 1339POPC   D2A21592  36.048   7.459   8.415
 1339POPC   C3A21593  36.065   7.210   8.086
 1339POPC   C4A21594  36.030   7.295   7.678
 1339POPC   C1B21595  36.404   7.585   8.741
 1339POPC   C2B21596  36.532   7.682   8.318
 1339POPC   C3B21597  36.461   7.483   7.923
 1339POPC   C4B21598  36.474   7.071   7.778
 1340POPC   NC321599  18.638  32.807   9.525
 1340POPC   PO421600  18.140  33.190   9.380
 1340POPC   GL121601  18.431  33.167   9.066
 1340POPC   GL221602  18.375  32.805   9.081
 1340POPC   C1A21603  18.368  33.301   8.627
 1340POPC   D2A21604  18.471  33.457   8.209
 1340POPC   C3A21605  18.288  33.268   7.872
 1340POPC   C4A21606  18.269  32.989   7.525
 1340POPC   C1B21607  18.266  32.766   8.659
 1340POPC   C2B21608  18.223  32.889   8.230
 1340POPC   C3B21609  17.904  32.916   7.888
 1340POPC   C4B21610  17.866  32.678   7.471
 1341POPC   NC321611  41.442  29.352   9.459
 1341POPC   PO421612  41.650  28.722   9.468
 1341POPC   GL121613  41.597  29.001   9.111
 1341POPC   GL221614  41.807  29.284   9.117
 1341POPC   C1A21615  41.375  29.198   8.771
 1341POPC   D2A21616  41.392  29.141   8.324
 1341POPC   C3A21617  41.184  29.299   7.947
 1341POPC   C4A21618  41.511  29.109   7.717
 1341POPC   C1B21619  41.957  29.120   8.739
 1341POPC   C2B21620  41.902  29.296   8.333
 1341POPC   C3B21621  42.004  29.269   7.899
 1341POPC   C4B21622  41.924  29.321   7.471
 1342POPC   NC321623  12.299  26.208   9.533
 1342POPC   PO421624  12.952  26.100   9.417
 1342POPC   GL121625  12.596  26.109   9.121
 1342POPC   GL221626  12.678  26.444   9.114
 1342POPC   C1A21627  12.505  25.797   8.774
 1342POPC   D2A21628  12.354  25.648   8.376
 1342POPC   C3A21629  12.490  25.844   7.992
 1342POPC   C4A21630  12.838  25.738   7.728
 1342POPC   C1B21631  12.712  26.291   8.669
 1342POPC   C2B21632  12.821  25.969   8.400
 1342POPC   C3B21633  12.954  26.101   8.032
 1342POPC   C4B21634  12.719  26.235   7.700
 1343POPC   NC321635  25.890   9.830   9.728
 1343POPC   PO421636  26.123   9.349   9.598
 1343POPC   GL121637  26.211   9.596   9.201
 1343POPC   GL221638  26.504   9.433   9.088
 1343POPC   C1A21639  26.100   9.788   8.752
 1343POPC   D2A21640  25.853   9.881   8.358
 1343POPC   C3A21641  26.067   9.910   7.945
 1343POPC   C4A21642  25.910  10.021   7.508
 1343POPC   C1B21643  26.278   9.311   8.702
 1343POPC   C2B21644  26.232   9.533   8.293
 1343POPC   C3B21645  26.258   9.433   7.837
 1343POPC   C4B21646  26.237   9.338   7.381
 1344POPC   NC321647   2.432  21.102   9.373
 1344POPC   PO421648   2.656  20.420   9.345
 1344POPC   GL121649   2.864  20.305   8.980
 1344POPC   GL221650   3.068  20.595   8.942
 1344POPC   C1A21651   2.784  20.301   8.576
 1344POPC   D2A21652   2.616  20.609   8.351
 1344POPC   C3A21653   2.800  20.600   7.976
 1344POPC   C4A21654   2.948  20.260   7.747
 1344POPC   C1B21655   3.092  20.724   8.493
 1344POPC   C2B21656   2.872  21.043   8.218
 1344POPC   C3B21657   2.629  21.125   7.798
 1344POPC   C4B21658   2.351  21.082   7.369
 1345POPC   NC321659  35.784   8.393   9.434
 1345POPC   PO421660  36.271   7.928   9.486
 1345POPC   GL121661  36.156   8.128   9.125
 1345POPC   GL221662  35.795   7.995   9.078
 1345POPC   C1A21663  36.030   8.381   8.782
 1345POPC   D2A21664  35.954   8.484   8.354
 1345POPC   C3A21665  35.794   8.318   7.990
 1345POPC   C4A21666  36.134   8.251   7.713
 1345POPC   C1B21667  35.988   7.901   8.674
 1345POPC   C2B21668  36.010   7.943   8.243
 1345POPC   C3B21669  36.031   7.780   7.846
 1345POPC   C4B21670  36.306   7.738   7.508
 1346POPC   NC321671  33.613   6.355   9.417
 1346POPC   PO421672  34.118   6.593   9.694
 1346POPC   GL121673  33.910   6.692   9.201
 1346POPC   GL221674  34.154   6.933   9.077
 1346POPC   C1A21675  33.544   6.623   8.829
 1346POPC   D2A21676  33.462   6.447   8.392
 1346POPC   C3A21677  33.784   6.532   8.066
 1346POPC   C4A21678  33.716   6.759   7.683
 1346POPC   C1B21679  34.030   6.638   8.716
 1346POPC   C2B21680  34.216   6.460   8.354
 1346POPC   C3B21681  34.290   6.639   7.947
 1346POPC   C4B21682  34.111   6.515   7.557
 1347POPC   NC321683  18.421   5.379   9.530
 1347POPC   PO421684  18.394   4.716   9.597
 1347POPC   GL121685  18.286   4.976   9.195
 1347POPC   GL221686  18.160   5.319   9.091
 1347POPC   C1A21687  18.237   4.989   8.732
 1347POPC   D2A21688  18.528   4.848   8.414
 1347POPC   C3A21689  18.379   4.922   8.016
 1347POPC   C4A21690  18.046   4.782   7.739
 1347POPC   C1B21691  18.478   5.450   8.761
 1347POPC   C2B21692  18.624   5.377   8.306
 1347POPC   C3B21693  18.678   5.479   7.848
 1347POPC   C4B21694  18.386   5.597   7.452
 1348POPC   NC321695  16.950  36.706   9.285
 1348POPC   PO421696  16.357  36.637   9.399
 1348POPC   GL121697  16.500  36.804   9.010
 1348POPC   GL221698  16.788  37.064   8.979
 1348POPC   C1A21699  16.404  36.612   8.622
 1348POPC   D2A21700  16.580  36.710   8.219
 1348POPC   C3A21701  16.404  36.643   7.879
 1348POPC   C4A21702  16.485  36.827   7.524
 1348POPC   C1B21703  17.072  37.202   8.641
 1348POPC   C2B21704  17.043  36.993   8.230
 1348POPC   C3B21705  16.893  36.918   7.833
 1348POPC   C4B21706  17.099  37.141   7.479
 1349POPC   NC321707  44.381  20.085   9.530
 1349POPC   PO421708   0.123  20.061   9.415
 1349POPC   GL121709  44.781  20.001   9.150
 1349POPC   GL221710  44.560  20.312   9.109
 1349POPC   C1A21711  44.660  19.679   8.841
 1349POPC   D2A21712  44.534  19.774   8.415
 1349POPC   C3A21713  44.889  19.832   8.140
 1349POPC   C4A21714  44.767  19.685   7.754
 1349POPC   C1B21715  44.820  20.329   8.721
 1349POPC   C2B21716  44.684  20.295   8.302
 1349POPC   C3B21717  44.567  20.150   7.897
 1349POPC   C4B21718  44.798  20.135   7.509
 1350POPC   NC321719  12.518  21.948   9.665
 1350POPC   PO421720  11.995  22.174   9.519
 1350POPC   GL121721  12.084  22.112   9.128
 1350POPC   GL221722  11.966  21.787   9.088
 1350POPC   C1A21723  12.139  22.301   8.726
 1350POPC   D2A21724  11.888  22.312   8.353
 1350POPC   C3A21725  12.187  22.228   8.026
 1350POPC   C4A21726  12.217  22.097   7.621
 1350POPC   C1B21727  12.165  21.787   8.734
 1350POPC   C2B21728  12.113  21.849   8.351
 1350POPC   C3B21729  12.254  21.676   8.001
 1350POPC   C4B21730  12.000  21.607   7.687
 1351POPC   NC321731  44.947   0.458   9.510
 1351POPC   PO421732  44.430   0.068   9.699
 1351POPC   GL121733  44.494   0.227   9.256
 1351POPC   GL221734  44.836   0.269   9.045
 1351POPC   C1A21735  44.421   0.368   8.825
 1351POPC   D2A21736  44.664   0.316   8.497
 1351POPC   C3A21737  44.450   0.450   8.159
 1351POPC   C4A21738  44.558   0.399   7.694
 1351POPC   C1B21739  44.929   0.638   8.809
 1351POPC   C2B21740   0.077   0.586   8.396
 1351POPC   C3B21741  44.930   0.503   8.034
 1351POPC   C4B21742   0.006   0.641   7.641
 1352POPC   NC321743  18.600  11.334   9.364
 1352POPC   PO421744  19.237  11.281   9.530
 1352POPC   GL121745  19.072  11.181   9.163
 1352POPC   GL221746  19.050  11.535   9.096
 1352POPC   C1A21747  19.063  11.182   8.716
 1352POPC   D2A21748  18.855  11.030   8.365
 1352POPC   C3A21749  19.062  11.120   7.965
 1352POPC   C4A21750  18.875  11.178   7.551
 1352POPC   C1B21751  18.829  11.657   8.712
 1352POPC   C2B21752  18.896  11.581   8.276
 1352POPC   C3B21753  19.032  11.615   7.831
 1352POPC   C4B21754  19.178  11.570   7.411
 1353POPC   NC321755   6.951  41.107   9.687
 1353POPC   PO421756   6.606  40.540   9.487
 1353POPC   GL121757   6.348  40.679   9.157
 1353POPC   GL221758   6.550  40.935   9.077
 1353POPC   C1A21759   6.386  40.540   8.749
 1353POPC   D2A21760   6.422  40.640   8.319
 1353POPC   C3A21761   6.788  40.736   8.079
 1353POPC   C4A21762   6.590  40.662   7.710
 1353POPC   C1B21763   6.824  40.810   8.693
 1353POPC   C2B21764   7.108  41.048   8.433
 1353POPC   C3B21765   7.054  41.202   8.027
 1353POPC   C4B21766   6.969  40.968   7.634
 1354POPC   NC321767  18.822   3.156   9.315
 1354POPC   PO421768  19.341   2.617   9.440
 1354POPC   GL121769  19.120   2.793   9.134
 1354POPC   GL221770  19.377   3.006   9.105
 1354POPC   C1A21771  19.011   2.828   8.705
 1354POPC   D2A21772  19.266   2.525   8.515
 1354POPC   C3A21773  19.252   2.457   8.061
 1354POPC   C4A21774  18.982   2.630   7.727
 1354POPC   C1B21775  19.370   3.212   8.748
 1354POPC   C2B21776  19.367   3.066   8.379
 1354POPC   C3B21777  19.121   2.955   8.087
 1354POPC   C4B21778  19.195   3.227   7.742
 1355POPC   NC321779  11.295  23.916   9.377
 1355POPC   PO421780  11.181  23.344   9.500
 1355POPC   GL121781  11.299  23.495   9.091
 1355POPC   GL221782  10.956  23.649   9.076
 1355POPC   C1A21783  11.434  23.816   8.746
 1355POPC   D2A21784  11.322  24.079   8.380
 1355POPC   C3A21785  11.433  23.876   7.983
 1355POPC   C4A21786  11.410  23.725   7.547
 1355POPC   C1B21787  10.932  23.841   8.663
 1355POPC   C2B21788  11.079  23.621   8.292
 1355POPC   C3B21789  11.024  23.620   7.852
 1355POPC   C4B21790  10.929  23.670   7.400
 1356POPC   NC321791  13.029  26.641   9.447
 1356POPC   PO421792  12.593  27.122   9.497
 1356POPC   GL121793  12.707  26.943   9.128
 1356POPC   GL221794  13.049  26.909   9.019
 1356POPC   C1A21795  12.647  26.855   8.720
 1356POPC   D2A21796  12.847  26.961   8.370
 1356POPC   C3A21797  12.586  26.909   8.040
 1356POPC   C4A21798  12.613  26.735   7.640
 1356POPC   C1B21799  13.116  26.599   8.744
 1356POPC   C2B21800  13.068  26.490   8.331
 1356POPC   C3B21801  13.092  26.583   7.895
 1356POPC   C4B21802  13.188  26.362   7.528
 1357POPC   NC321803   0.567  29.736   9.578
 1357POPC   PO421804   0.147  30.206   9.416
 1357POPC   GL121805   0.256  29.879   9.142
 1357POPC   GL221806   0.572  30.016   9.159
 1357POPC   C1A21807   0.388  29.727   8.707
 1357POPC   D2A21808   0.129  29.820   8.311
 1357POPC   C3A21809   0.259  29.960   7.877
 1357POPC   C4A21810   0.128  30.157   7.499
 1357POPC   C1B21811   0.678  30.177   8.801
 1357POPC   C2B21812   0.527  30.133   8.403
 1357POPC   C3B21813   0.719  29.932   8.069
 1357POPC   C4B21814   0.734  30.128   7.691
 1358POPC   NC321815  33.324  14.293   9.669
 1358POPC   PO421816  32.957  14.826   9.510
 1358POPC   GL121817  33.122  14.507   9.203
 1358POPC   GL221818  32.952  14.177   9.248
 1358POPC   C1A21819  33.177  14.438   8.733
 1358POPC   D2A21820  33.026  14.703   8.357
 1358POPC   C3A21821  33.068  14.575   7.929
 1358POPC   C4A21822  33.066  14.490   7.477
 1358POPC   C1B21823  32.692  14.300   8.919
 1358POPC   C2B21824  32.745  14.298   8.472
 1358POPC   C3B21825  32.518  14.353   8.104
 1358POPC   C4B21826  32.598  14.525   7.695
 1359POPC   NC321827  43.179  40.242   9.842
 1359POPC   PO421828  43.363  39.718   9.800
 1359POPC   GL121829  43.281  39.917   9.363
 1359POPC   GL221830  43.350  40.259   9.249
 1359POPC   C1A21831  43.254  39.903   8.873
 1359POPC   D2A21832  43.105  40.072   8.437
 1359POPC   C3A21833  43.275  39.981   8.010
 1359POPC   C4A21834  43.617  39.717   7.815
 1359POPC   C1B21835  42.998  40.351   8.897
 1359POPC   C2B21836  42.839  40.504   8.452
 1359POPC   C3B21837  42.805  40.374   8.000
 1359POPC   C4B21838  42.828  40.023   7.706
 1360POPC   NC321839  14.281  11.488   9.421
 1360POPC   PO421840  14.601  10.971   9.587
 1360POPC   GL121841  14.674  11.185   9.214
 1360POPC   GL221842  14.383  11.181   9.044
 1360POPC   C1A21843  14.813  11.164   8.778
 1360POPC   D2A21844  14.593  11.195   8.392
 1360POPC   C3A21845  14.741  11.412   8.036
 1360POPC   C4A21846  14.698  11.174   7.684
 1360POPC   C1B21847  14.298  11.458   8.726
 1360POPC   C2B21848  14.098  11.377   8.339
 1360POPC   C3B21849  14.260  11.234   7.958
 1360POPC   C4B21850  14.274  11.427   7.543
 1361POPC   NC321851  43.932  41.941   9.681
 1361POPC   PO421852  43.833  41.295   9.484
 1361POPC   GL121853  43.955  41.524   9.139
 1361POPC   GL221854  44.174  41.755   9.247
 1361POPC   C1A21855  43.808  41.607   8.733
 1361POPC   D2A21856  43.667  41.708   8.323
 1361POPC   C3A21857  43.716  41.432   7.983
 1361POPC   C4A21858  43.674  41.067   7.701
 1361POPC   C1B21859  44.113  41.990   8.866
 1361POPC   C2B21860  44.000  42.089   8.456
 1361POPC   C3B21861  44.130  42.076   8.045
 1361POPC   C4B21862  44.098  41.756   7.755
 1362POPC   NC321863  17.164   1.942   9.537
 1362POPC   PO421864  17.805   2.147   9.497
 1362POPC   GL121865  17.587   1.980   9.187
 1362POPC   GL221866  17.292   2.194   9.112
 1362POPC   C1A21867  17.718   2.057   8.784
 1362POPC   D2A21868  17.532   2.010   8.405
 1362POPC   C3A21869  17.703   2.090   8.009
 1362POPC   C4A21870  17.574   2.005   7.585
 1362POPC   C1B21871  17.214   1.871   8.809
 1362POPC   C2B21872  17.054   1.842   8.385
 1362POPC   C3B21873  17.241   1.852   7.981
 1362POPC   C4B21874  17.116   1.707   7.586
 1363POPC   NC321875  34.392  36.942  10.158
 1363POPC   PO421876  34.347  37.017   9.696
 1363POPC   GL121877  34.489  37.082   9.230
 1363POPC   GL221878  34.804  36.922   9.138
 1363POPC   C1A21879  34.484  37.053   8.743
 1363POPC   D2A21880  34.744  37.072   8.341
 1363POPC   C3A21881  34.604  36.881   7.912
 1363POPC   C4A21882  34.494  36.553   7.570
 1363POPC   C1B21883  34.901  36.738   8.714
 1363POPC   C2B21884  34.836  36.554   8.279
 1363POPC   C3B21885  34.939  36.500   7.828
 1363POPC   C4B21886  34.938  36.306   7.404
 1364POPC   NC321887  39.022  42.967   9.653
 1364POPC   PO421888  39.294  43.547   9.565
 1364POPC   GL121889  39.256  43.332   9.140
 1364POPC   GL221890  39.150  43.002   9.168
 1364POPC   C1A21891  39.342  43.191   8.716
 1364POPC   D2A21892  39.566  43.014   8.389
 1364POPC   C3A21893  39.370  42.992   8.032
 1364POPC   C4A21894  39.341  43.124   7.655
 1364POPC   C1B21895  38.879  42.930   8.836
 1364POPC   C2B21896  39.035  42.874   8.407
 1364POPC   C3B21897  38.872  42.904   7.973
 1364POPC   C4B21898  38.899  42.865   7.507
 1365POPC   NC321899  14.775  21.048   9.821
 1365POPC   PO421900  14.495  21.570   9.436
 1365POPC   GL121901  14.537  21.521   8.979
 1365POPC   GL221902  14.714  21.242   8.796
 1365POPC   C1A21903  14.288  21.541   8.614
 1365POPC   D2A21904  14.379  21.304   8.255
 1365POPC   C3A21905  14.175  21.442   7.892
 1365POPC   C4A21906  14.466  21.665   7.645
 1365POPC   C1B21907  14.279  21.046   8.757
 1365POPC   C2B21908  14.001  20.988   8.382
 1365POPC   C3B21909  14.126  20.935   7.940
 1365POPC   C4B21910  14.534  21.116   7.771
 1366POPC   NC321911  27.179  27.261   9.525
 1366POPC   PO421912  27.589  27.775   9.717
 1366POPC   GL121913  27.592  27.687   9.205
 1366POPC   GL221914  27.493  27.377   9.120
 1366POPC   C1A21915  27.377  27.683   8.749
 1366POPC   D2A21916  27.580  27.584   8.360
 1366POPC   C3A21917  27.387  27.515   7.963
 1366POPC   C4A21918  27.454  27.842   7.685
 1366POPC   C1B21919  27.853  27.457   8.783
 1366POPC   C2B21920  27.992  27.305   8.360
 1366POPC   C3B21921  27.909  27.439   7.908
 1366POPC   C4B21922  28.027  27.200   7.509
 1367POPC   NC321923  21.065  29.935   9.581
 1367POPC   PO421924  21.539  30.305   9.595
 1367POPC   GL121925  21.316  30.035   9.167
 1367POPC   GL221926  21.013  30.243   9.148
 1367POPC   C1A21927  21.475  29.864   8.690
 1367POPC   D2A21928  21.407  29.823   8.238
 1367POPC   C3A21929  21.600  29.980   7.864
 1367POPC   C4A21930  21.407  29.824   7.525
 1367POPC   C1B21931  21.013  30.035   8.736
 1367POPC   C2B21932  20.855  30.151   8.337
 1367POPC   C3B21933  21.046  30.116   7.948
 1367POPC   C4B21934  21.167  30.266   7.557
 1368POPC   NC321935  30.242  11.861   9.509
 1368POPC   PO421936  29.487  12.031   9.599
 1368POPC   GL121937  29.823  12.062   9.262
 1368POPC   GL221938  29.891  11.716   9.155
 1368POPC   C1A21939  30.163  12.179   8.900
 1368POPC   D2A21940  30.275  12.360   8.445
 1368POPC   C3A21941  30.122  12.168   8.015
 1368POPC   C4A21942  30.090  11.981   7.570
 1368POPC   C1B21943  29.736  11.932   8.775
 1368POPC   C2B21944  29.856  11.866   8.343
 1368POPC   C3B21945  29.742  11.835   7.920
 1368POPC   C4B21946  29.548  11.803   7.510
 1369POPC   NC321947   7.357  22.921   9.575
 1369POPC   PO421948   7.363  23.568   9.546
 1369POPC   GL121949   7.486  23.253   9.185
 1369POPC   GL221950   7.570  22.888   9.124
 1369POPC   C1A21951   7.377  23.180   8.734
 1369POPC   D2A21952   7.174  23.247   8.331
 1369POPC   C3A21953   7.416  23.257   7.931
 1369POPC   C4A21954   7.303  23.134   7.498
 1369POPC   C1B21955   7.585  22.713   8.695
 1369POPC   C2B21956   7.492  22.797   8.264
 1369POPC   C3B21957   7.491  22.762   7.813
 1369POPC   C4B21958   7.514  22.649   7.357
 1370POPC   NC321959   9.011  44.300   9.584
 1370POPC   PO421960   8.633  44.819   9.510
 1370POPC   GL121961   8.798  44.547   9.166
 1370POPC   GL221962   9.172  44.465   9.133
 1370POPC   C1A21963   8.885  44.696   8.757
 1370POPC   D2A21964   9.111  44.913   8.456
 1370POPC   C3A21965   8.892  44.904   8.084
 1370POPC   C4A21966   9.010   0.030   7.681
 1370POPC   C1B21967   9.178  44.268   8.738
 1370POPC   C2B21968   9.293  44.422   8.364
 1370POPC   C3B21969   9.096  44.451   7.991
 1370POPC   C4B21970   9.287  44.231   7.682
 1371POPC   NC321971  28.924  17.914   9.452
 1371POPC   PO421972  29.230  18.496   9.570
 1371POPC   GL121973  29.036  18.387   9.176
 1371POPC   GL221974  29.286  18.129   9.168
 1371POPC   C1A21975  28.987  18.194   8.734
 1371POPC   D2A21976  29.083  18.381   8.317
 1371POPC   C3A21977  28.935  18.454   7.890
 1371POPC   C4A21978  28.924  18.128   7.589
 1371POPC   C1B21979  29.425  17.932   8.819
 1371POPC   C2B21980  29.426  18.004   8.388
 1371POPC   C3B21981  29.273  18.045   7.947
 1371POPC   C4B21982  29.570  18.063   7.528
 1372POPC   NC321983  21.159   9.238   9.469
 1372POPC   PO421984  21.656   8.752   9.638
 1372POPC   GL121985  21.468   8.753   9.225
 1372POPC   GL221986  21.132   8.629   9.235
 1372POPC   C1A21987  21.493   9.061   8.857
 1372POPC   D2A21988  21.541   9.225   8.407
 1372POPC   C3A21989  21.641   8.969   8.017
 1372POPC   C4A21990  21.666   9.077   7.579
 1372POPC   C1B21991  21.057   8.800   8.846
 1372POPC   C2B21992  21.301   8.771   8.479
 1372POPC   C3B21993  21.167   8.893   8.128
 1372POPC   C4B21994  21.176   8.813   7.750
 1373POPC   NC321995  41.275  28.422   9.496
 1373POPC   PO421996  41.808  28.028   9.527
 1373POPC   GL121997  41.664  28.218   9.176
 1373POPC   GL221998  41.483  28.491   9.043
 1373POPC   C1A21999  41.740  28.108   8.776
 1373POPC   D2A22000  41.752  28.287   8.407
 1373POPC   C3A22001  41.496  28.138   8.143
 1373POPC   C4A22002  41.607  28.216   7.716
 1373POPC   C1B22003  41.502  28.706   8.688
 1373POPC   C2B22004  41.341  28.625   8.326
 1373POPC   C3B22005  41.527  28.653   7.965
 1373POPC   C4B22006  41.404  28.632   7.538
 1374POPC   NC322007  11.518  31.236   9.464
 1374POPC   PO422008  11.071  31.689   9.470
 1374POPC   GL122009  11.224  31.514   9.128
 1374POPC   GL222010  10.958  31.267   9.129
 1374POPC   C1A22011  11.588  31.494   8.839
 1374POPC   D2A22012  11.579  31.703   8.447
 1374POPC   C3A22013  11.686  31.530   8.059
 1374POPC   C4A22014  11.549  31.392   7.677
 1374POPC   C1B22015  11.241  31.104   8.819
 1374POPC   C2B22016  11.411  31.214   8.438
 1374POPC   C3B22017  11.246  31.299   8.080
 1374POPC   C4B22018  11.074  31.149   7.754
 1375POPC   NC322019  17.052   6.723   9.539
 1375POPC   PO422020  16.509   6.443   9.227
 1375POPC   GL122021  16.847   6.479   8.997
 1375POPC   GL222022  16.865   6.816   9.032
 1375POPC   C1A22023  16.926   6.590   8.549
 1375POPC   D2A22024  16.642   6.861   8.289
 1375POPC   C3A22025  16.541   6.745   7.874
 1375POPC   C4A22026  16.793   6.458   7.681
 1375POPC   C1B22027  16.935   7.091   8.675
 1375POPC   C2B22028  17.086   7.132   8.255
 1375POPC   C3B22029  17.021   6.918   7.891
 1375POPC   C4B22030  17.177   6.976   7.489
 1376POPC   NC322031  28.894  28.139   9.555
 1376POPC   PO422032  29.404  28.548   9.563
 1376POPC   GL122033  29.233  28.381   9.172
 1376POPC   GL222034  28.909  28.503   9.172
 1376POPC   C1A22035  29.111  28.460   8.713
 1376POPC   D2A22036  28.853  28.412   8.335
 1376POPC   C3A22037  29.138  28.300   7.985
 1376POPC   C4A22038  29.162  28.373   7.552
 1376POPC   C1B22039  28.701  28.191   8.838
 1376POPC   C2B22040  28.615  27.951   8.426
 1376POPC   C3B22041  28.777  27.935   8.012
 1376POPC   C4B22042  28.988  27.889   7.609
 1377POPC   NC322043  26.292   6.671   9.218
 1377POPC   PO422044  25.917   6.163   9.476
 1377POPC   GL122045  25.957   6.318   9.046
 1377POPC   GL222046  25.819   6.677   9.068
 1377POPC   C1A22047  26.142   6.457   8.607
 1377POPC   D2A22048  26.283   6.782   8.270
 1377POPC   C3A22049  26.313   6.611   7.836
 1377POPC   C4A22050  26.310   6.178   7.780
 1377POPC   C1B22051  25.916   6.898   8.701
 1377POPC   C2B22052  25.762   6.747   8.338
 1377POPC   C3B22053  25.771   6.742   7.913
 1377POPC   C4B22054  25.696   6.590   7.508
 1378POPC   NC322055  27.182  28.148   9.301
 1378POPC   PO422056  26.674  28.591   9.366
 1378POPC   GL122057  26.753  28.283   9.061
 1378POPC   GL222058  26.434  28.176   9.092
 1378POPC   C1A22059  26.957  28.227   8.641
 1378POPC   D2A22060  26.958  28.559   8.295
 1378POPC   C3A22061  27.028  28.489   7.856
 1378POPC   C4A22062  27.072  28.649   7.434
 1378POPC   C1B22063  26.484  28.043   8.683
 1378POPC   C2B22064  26.341  28.229   8.319
 1378POPC   C3B22065  26.515  28.473   7.994
 1378POPC   C4B22066  26.661  28.272   7.587
 1379POPC   NC322067  42.370  32.672   9.378
 1379POPC   PO422068  42.172  33.282   9.592
 1379POPC   GL122069  42.134  33.124   9.179
 1379POPC   GL222070  42.504  33.086   9.098
 1379POPC   C1A22071  42.177  32.989   8.738
 1379POPC   D2A22072  42.439  33.070   8.383
 1379POPC   C3A22073  42.274  33.110   7.970
 1379POPC   C4A22074  42.216  32.917   7.563
 1379POPC   C1B22075  42.676  32.787   8.754
 1379POPC   C2B22076  42.695  32.619   8.304
 1379POPC   C3B22077  42.616  32.733   7.847
 1379POPC   C4B22078  42.691  32.735   7.377
 1380POPC   NC322079  11.947  43.474   9.503
 1380POPC   PO422080  12.176  42.831   9.467
 1380POPC   GL122081  12.029  43.104   9.130
 1380POPC   GL222082  11.664  43.067   9.063
 1380POPC   C1A22083  12.214  43.097   8.717
 1380POPC   D2A22084  12.039  43.049   8.314
 1380POPC   C3A22085  12.266  43.118   7.928
 1380POPC   C4A22086  12.318  43.385   7.557
 1380POPC   C1B22087  11.526  42.922   8.637
 1380POPC   C2B22088  11.600  42.848   8.176
 1380POPC   C3B22089  11.782  42.952   7.764
 1380POPC   C4B22090  11.732  42.717   7.363
 1381POPC   NC322091  33.941   2.128   9.406
 1381POPC   PO422092  33.294   1.768   9.521
 1381POPC   GL122093  33.594   1.806   9.176
 1381POPC   GL222094  33.594   2.171   9.057
 1381POPC   C1A22095  33.863   1.845   8.791
 1381POPC   D2A22096  34.074   2.027   8.441
 1381POPC   C3A22097  33.880   1.925   8.076
 1381POPC   C4A22098  34.045   1.937   7.669
 1381POPC   C1B22099  33.811   2.378   8.710
 1381POPC   C2B22100  34.080   2.547   8.386
 1381POPC   C3B22101  34.198   2.370   7.977
 1381POPC   C4B22102  34.108   2.450   7.525
 1382POPC   NC322103  15.101   7.752   9.486
 1382POPC   PO422104  15.498   7.214   9.626
 1382POPC   GL122105  15.477   7.490   9.267
 1382POPC   GL222106  15.134   7.363   9.125
 1382POPC   C1A22107  15.503   7.578   8.843
 1382POPC   D2A22108  15.247   7.357   8.564
 1382POPC   C3A22109  15.470   7.293   8.235
 1382POPC   C4A22110  15.492   7.464   7.824
 1382POPC   C1B22111  14.971   7.704   8.852
 1382POPC   C2B22112  14.861   7.678   8.448
 1382POPC   C3B22113  15.005   7.480   8.084
 1382POPC   C4B22114  15.063   7.752   7.716
 1383POPC   NC322115  15.115  19.101   9.614
 1383POPC   PO422116  15.330  18.598   9.249
 1383POPC   GL122117  15.140  19.002   9.110
 1383POPC   GL222118  15.442  19.194   9.173
 1383POPC   C1A22119  14.964  19.027   8.699
 1383POPC   D2A22120  15.133  18.738   8.383
 1383POPC   C3A22121  15.076  18.888   7.977
 1383POPC   C4A22122  14.813  19.222   7.968
 1383POPC   C1B22123  15.460  19.189   8.704
 1383POPC   C2B22124  15.234  19.285   8.298
 1383POPC   C3B22125  15.361  19.320   7.857
 1383POPC   C4B22126  15.554  19.320   7.430
 1384POPC   NC322127  26.222  28.421   9.483
 1384POPC   PO422128  25.537  28.153   9.385
 1384POPC   GL122129  25.885  28.199   9.162
 1384POPC   GL222130  25.852  28.558   9.150
 1384POPC   C1A22131  26.036  28.302   8.751
 1384POPC   D2A22132  25.965  28.594   8.418
 1384POPC   C3A22133  25.939  28.386   8.038
 1384POPC   C4A22134  26.165  28.368   7.652
 1384POPC   C1B22135  25.609  28.624   8.803
 1384POPC   C2B22136  25.467  28.790   8.399
 1384POPC   C3B22137  25.659  28.812   8.005
 1384POPC   C4B22138  25.730  28.605   7.623
 1385POPC   NC322139  20.008  23.283   9.551
 1385POPC   PO422140  19.945  22.641   9.672
 1385POPC   GL122141  19.899  22.662   9.210
 1385POPC   GL222142  20.070  22.941   9.166
 1385POPC   C1A22143  19.765  22.776   8.739
 1385POPC   D2A22144  19.622  22.690   8.277
 1385POPC   C3A22145  19.801  22.839   7.871
 1385POPC   C4A22146  19.608  23.055   7.502
 1385POPC   C1B22147  20.188  23.070   8.754
 1385POPC   C2B22148  20.075  22.951   8.334
 1385POPC   C3B22149  20.221  23.117   7.951
 1385POPC   C4B22150  20.124  23.158   7.556
 1386POPC   NC322151  18.855   0.306   9.395
 1386POPC   PO422152  18.225   0.251   9.642
 1386POPC   GL122153  18.301   0.487   9.253
 1386POPC   GL222154  18.003   0.733   9.259
 1386POPC   C1A22155  18.385   0.594   8.809
 1386POPC   D2A22156  18.105   0.561   8.444
 1386POPC   C3A22157  18.283   0.507   8.041
 1386POPC   C4A22158  18.562   0.742   7.763
 1386POPC   C1B22159  17.968   0.908   8.828
 1386POPC   C2B22160  17.832   1.093   8.434
 1386POPC   C3B22161  17.865   0.835   8.049
 1386POPC   C4B22162  17.875   0.538   7.692
 1387POPC   NC322163   3.214  36.610   9.511
 1387POPC   PO422164   3.502  36.024   9.479
 1387POPC   GL122165   3.552  36.182   9.099
 1387POPC   GL222166   3.473  36.514   9.066
 1387POPC   C1A22167   3.625  35.949   8.761
 1387POPC   D2A22168   3.426  36.040   8.383
 1387POPC   C3A22169   3.534  35.960   7.981
 1387POPC   C4A22170   3.867  35.956   7.693
 1387POPC   C1B22171   3.393  36.592   8.614
 1387POPC   C2B22172   3.429  36.495   8.178
 1387POPC   C3B22173   3.677  36.402   7.787
 1387POPC   C4B22174   3.505  36.275   7.344
 1388POPC   NC322175  12.061  41.439   9.658
 1388POPC   PO422176  12.463  41.927   9.552
 1388POPC   GL122177  12.221  41.632   9.187
 1388POPC   GL222178  12.023  41.272   9.157
 1388POPC   C1A22179  12.047  41.571   8.734
 1388POPC   D2A22180  12.250  41.707   8.355
 1388POPC   C3A22181  12.244  41.624   7.907
 1388POPC   C4A22182  12.411  41.995   7.658
 1388POPC   C1B22183  11.702  41.210   8.788
 1388POPC   C2B22184  11.635  41.350   8.375
 1388POPC   C3B22185  11.661  41.282   7.961
 1388POPC   C4B22186  11.863  41.402   7.635
 1389POPC   NC322187   8.229  11.693   9.560
 1389POPC   PO422188   8.205  11.024   9.719
 1389POPC   GL122189   8.211  11.189   9.254
 1389POPC   GL222190   8.463  11.431   9.183
 1389POPC   C1A22191   8.097  11.443   8.825
 1389POPC   D2A22192   8.178  11.355   8.418
 1389POPC   C3A22193   7.939  11.420   8.070
 1389POPC   C4A22194   7.876  11.200   7.724
 1389POPC   C1B22195   8.613  11.373   8.752
 1389POPC   C2B22196   8.613  11.106   8.385
 1389POPC   C3B22197   8.361  11.070   8.025
 1389POPC   C4B22198   8.321  11.426   7.716
 1390POPC   NC322199  31.920  34.006   9.467
 1390POPC   PO422200  31.266  33.723   9.375
 1390POPC   GL122201  31.483  34.021   9.148
 1390POPC   GL222202  31.793  33.823   9.000
 1390POPC   C1A22203  31.542  34.160   8.742
 1390POPC   D2A22204  31.843  33.990   8.458
 1390POPC   C3A22205  31.624  33.965   8.058
 1390POPC   C4A22206  31.265  33.732   7.886
 1390POPC   C1B22207  31.531  33.619   8.646
 1390POPC   C2B22208  31.668  33.432   8.245
 1390POPC   C3B22209  31.728  33.529   7.795
 1390POPC   C4B22210  31.827  33.550   7.369
 1391POPC   NC322211  31.703  15.900   9.515
 1391POPC   PO422212  30.990  15.753   9.438
 1391POPC   GL122213  31.261  16.032   9.200
 1391POPC   GL222214  31.424  15.770   9.120
 1391POPC   C1A22215  31.531  16.221   8.855
 1391POPC   D2A22216  31.688  16.331   8.427
 1391POPC   C3A22217  31.558  16.141   8.035
 1391POPC   C4A22218  31.376  16.169   7.643
 1391POPC   C1B22219  31.414  15.597   8.752
 1391POPC   C2B22220  31.603  15.772   8.399
 1391POPC   C3B22221  31.462  15.611   8.013
 1391POPC   C4B22222  31.517  15.675   7.606
 1392POPC   NC322223  43.208  17.144   9.557
 1392POPC   PO422224  42.767  16.754   9.763
 1392POPC   GL122225  42.824  16.814   9.294
 1392POPC   GL222226  42.771  17.100   9.050
 1392POPC   C1A22227  42.880  16.637   8.874
 1392POPC   D2A22228  42.872  16.875   8.482
 1392POPC   C3A22229  42.997  16.610   8.166
 1392POPC   C4A22230  43.131  16.677   7.766
 1392POPC   C1B22231  43.179  17.085   8.838
 1392POPC   C2B22232  43.396  17.186   8.465
 1392POPC   C3B22233  43.301  17.110   8.030
 1392POPC   C4B22234  43.210  17.146   7.591
 1393POPC   NC322235  43.169  44.443   9.821
 1393POPC   PO422236  42.888   0.073   9.477
 1393POPC   GL122237  43.115  44.791   9.174
 1393POPC   GL222238  42.864  44.605   9.001
 1393POPC   C1A22239  43.355  44.478   8.872
 1393POPC   D2A22240  43.568  44.474   8.459
 1393POPC   C3A22241  43.382  44.419   8.027
 1393POPC   C4A22242  43.009  44.499   7.732
 1393POPC   C1B22243  42.987  44.871   8.673
 1393POPC   C2B22244  43.248  44.881   8.309
 1393POPC   C3B22245  43.240  44.919   7.877
 1393POPC   C4B22246  42.947   0.170   7.610
 1394POPC   NC322247  11.572   4.065   9.463
 1394POPC   PO422248  11.194   4.553   9.587
 1394POPC   GL122249  11.344   4.445   9.200
 1394POPC   GL222250  11.453   4.719   9.065
 1394POPC   C1A22251  11.261   4.188   8.838
 1394POPC   D2A22252  11.426   4.239   8.425
 1394POPC   C3A22253  11.151   4.182   8.089
 1394POPC   C4A22254  11.318   4.281   7.725
 1394POPC   C1B22255  11.212   4.696   8.692
 1394POPC   C2B22256  11.201   4.675   8.225
 1394POPC   C3B22257  11.045   4.804   7.798
 1394POPC   C4B22258  10.732   4.818   7.457
 1395POPC   NC322259  13.461  29.995   9.340
 1395POPC   PO422260  13.902  29.564   9.549
 1395POPC   GL122261  13.824  29.753   9.098
 1395POPC   GL222262  13.467  29.719   8.868
 1395POPC   C1A22263  13.837  29.972   8.682
 1395POPC   D2A22264  13.580  29.800   8.321
 1395POPC   C3A22265  13.745  29.841   7.888
 1395POPC   C4A22266  13.494  29.850   7.527
 1395POPC   C1B22267  13.299  30.115   8.710
 1395POPC   C2B22268  13.374  30.302   8.322
 1395POPC   C3B22269  13.302  30.119   7.935
 1395POPC   C4B22270  13.206  30.300   7.545
 1396POPC   NC322271  18.883  40.909   9.731
 1396POPC   PO422272  19.365  40.637   9.684
 1396POPC   GL122273  19.274  40.779   9.260
 1396POPC   GL222274  18.933  40.901   9.201
 1396POPC   C1A22275  19.249  40.767   8.791
 1396POPC   D2A22276  18.891  40.706   8.506
 1396POPC   C3A22277  18.892  40.898   8.112
 1396POPC   C4A22278  19.272  40.984   7.831
 1396POPC   C1B22279  18.912  41.152   8.794
 1396POPC   C2B22280  19.109  41.265   8.374
 1396POPC   C3B22281  18.937  41.359   7.927
 1396POPC   C4B22282  18.614  41.072   7.719
 1397POPC   NC322283   5.696   0.786   9.498
 1397POPC   PO422284   5.275   0.222   9.374
 1397POPC   GL122285   5.723   0.301   9.224
 1397POPC   GL222286   5.857   0.632   9.050
 1397POPC   C1A22287   5.959   0.187   8.845
 1397POPC   D2A22288   5.776   0.275   8.429
 1397POPC   C3A22289   5.999   0.205   8.046
 1397POPC   C4A22290   5.881   0.175   7.580
 1397POPC   C1B22291   5.810   0.750   8.616
 1397POPC   C2B22292   6.046   0.696   8.219
 1397POPC   C3B22293   5.814   0.621   7.826
 1397POPC   C4B22294   5.745   0.655   7.379
 1398POPC   NC322295  35.859  15.729   9.578
 1398POPC   PO422296  36.425  16.099   9.492
 1398POPC   GL122297  36.204  15.913   9.205
 1398POPC   GL222298  35.901  16.129   9.231
 1398POPC   C1A22299  36.417  15.831   8.815
 1398POPC   D2A22300  36.370  15.990   8.395
 1398POPC   C3A22301  36.453  15.623   8.132
 1398POPC   C4A22302  36.631  15.688   7.732
 1398POPC   C1B22303  36.104  16.238   8.826
 1398POPC   C2B22304  35.945  16.346   8.452
 1398POPC   C3B22305  35.893  16.196   8.069
 1398POPC   C4B22306  36.183  15.937   7.837
 1399POPC   NC322307   6.459  20.427   9.427
 1399POPC   PO422308   6.910  20.947   9.488
 1399POPC   GL122309   6.795  20.738   9.142
 1399POPC   GL222310   6.455  20.844   9.123
 1399POPC   C1A22311   6.713  20.469   8.821
 1399POPC   D2A22312   6.586  20.511   8.437
 1399POPC   C3A22313   6.881  20.415   8.129
 1399POPC   C4A22314   6.814  20.581   7.721
 1399POPC   C1B22315   6.327  20.914   8.711
 1399POPC   C2B22316   6.383  20.956   8.287
 1399POPC   C3B22317   6.368  20.659   7.976
 1399POPC   C4B22318   6.094  20.411   7.730
 1400POPC   NC322319  14.934  23.009   9.682
 1400POPC   PO422320  15.406  22.598   9.428
 1400POPC   GL122321  15.151  22.900   9.213
 1400POPC   GL222322  15.463  22.960   9.043
 1400POPC   C1A22323  15.067  23.104   8.788
 1400POPC   D2A22324  15.257  23.109   8.354
 1400POPC   C3A22325  15.001  23.295   8.013
 1400POPC   C4A22326  14.761  23.006   7.737
 1400POPC   C1B22327  15.229  22.638   8.775
 1400POPC   C2B22328  14.987  22.654   8.407
 1400POPC   C3B22329  15.080  22.634   7.963
 1400POPC   C4B22330  15.414  22.382   7.748
 1401POPC   NC322331  44.019   0.086   9.508
 1401POPC   PO422332  44.021  44.499   9.653
 1401POPC   GL122333  43.760  44.619   9.275
 1401POPC   GL222334  43.611  44.968   9.213
 1401POPC   C1A22335  43.872  44.637   8.845
 1401POPC   D2A22336  44.074  44.574   8.457
 1401POPC   C3A22337  43.872  44.637   8.044
 1401POPC   C4A22338  44.126  44.645   7.687
 1401POPC   C1B22339  43.494  44.948   8.769
 1401POPC   C2B22340  43.732  44.988   8.401
 1401POPC   C3B22341  43.761   0.131   7.975
 1401POPC   C4B22342  43.666  44.991   7.617
 1402POPC   NC322343   6.649   0.875   9.409
 1402POPC   PO422344   6.539   1.555   9.421
 1402POPC   GL122345   6.414   1.259   9.141
 1402POPC   GL222346   6.048   1.138   9.168
 1402POPC   C1A22347   6.676   1.259   8.776
 1402POPC   D2A22348   6.737   1.485   8.382
 1402POPC   C3A22349   6.877   1.282   8.002
 1402POPC   C4A22350   6.724   1.003   7.715
 1402POPC   C1B22351   6.262   0.909   8.807
 1402POPC   C2B22352   6.465   0.976   8.416
 1402POPC   C3B22353   6.373   1.164   8.064
 1402POPC   C4B22354   6.182   0.938   7.746
 1403POPC   NC322355  22.351   4.888   9.524
 1403POPC   PO422356  22.548   5.508   9.450
 1403POPC   GL122357  22.365   5.319   9.062
 1403POPC   GL222358  22.107   5.071   9.113
 1403POPC   C1A22359  22.253   5.163   8.622
 1403POPC   D2A22360  21.884   5.218   8.335
 1403POPC   C3A22361  22.057   5.314   7.953
 1403POPC   C4A22362  22.441   5.113   7.832
 1403POPC   C1B22363  21.859   4.899   8.775
 1403POPC   C2B22364  21.929   4.690   8.422
 1403POPC   C3B22365  22.106   4.794   8.050
 1403POPC   C4B22366  21.943   4.722   7.625
 1404POPC   NC322367  13.411  25.828   9.448
 1404POPC   PO422368  13.924  26.241   9.607
 1404POPC   GL122369  13.885  26.189   9.168
 1404POPC   GL222370  14.140  25.978   9.020
 1404POPC   C1A22371  13.676  25.988   8.814
 1404POPC   D2A22372  13.360  25.949   8.483
 1404POPC   C3A22373  13.452  26.175   8.111
 1404POPC   C4A22374  13.352  25.911   7.757
 1404POPC   C1B22375  14.131  26.241   8.684
 1404POPC   C2B22376  13.919  26.022   8.353
 1404POPC   C3B22377  13.886  25.968   7.912
 1404POPC   C4B22378  13.697  26.282   7.654
 1405POPC   NC322379   6.621  42.901   9.501
 1405POPC   PO422380   6.265  43.506   9.688
 1405POPC   GL122381   6.384  43.327   9.250
 1405POPC   GL222382   6.347  42.958   9.077
 1405POPC   C1A22383   6.424  43.380   8.808
 1405POPC   D2A22384   6.495  43.561   8.430
 1405POPC   C3A22385   6.469  43.229   8.123
 1405POPC   C4A22386   6.704  43.204   7.707
 1405POPC   C1B22387   6.762  42.968   8.860
 1405POPC   C2B22388   6.880  43.069   8.442
 1405POPC   C3B22389   6.833  42.873   8.056
 1405POPC   C4B22390   7.099  42.851   7.716
 1406POPC   NC322391   3.949  34.185   9.419
 1406POPC   PO422392   4.123  34.888   9.463
 1406POPC   GL122393   4.200  34.574   9.132
 1406POPC   GL222394   4.425  34.277   9.140
 1406POPC   C1A22395   4.414  34.589   8.728
 1406POPC   D2A22396   4.456  34.897   8.406
 1406POPC   C3A22397   4.260  34.748   8.044
 1406POPC   C4A22398   4.481  34.595   7.715
 1406POPC   C1B22399   4.131  34.152   8.800
 1406POPC   C2B22400   4.078  34.326   8.387
 1406POPC   C3B22401   3.979  34.109   8.013
 1406POPC   C4B22402   4.073  34.303   7.627
 1407POPC   NC322403  15.211  34.355   9.529
 1407POPC   PO422404  15.406  35.033   9.393
 1407POPC   GL122405  15.139  34.684   9.161
 1407POPC   GL222406  15.390  34.360   9.053
 1407POPC   C1A22407  15.004  34.431   8.759
 1407POPC   D2A22408  15.178  34.560   8.366
 1407POPC   C3A22409  15.265  34.346   8.007
 1407POPC   C4A22410  14.977  34.274   7.717
 1407POPC   C1B22411  15.434  34.750   8.784
 1407POPC   C2B22412  15.480  35.006   8.446
 1407POPC   C3B22413  15.539  34.829   8.072
 1407POPC   C4B22414  15.528  34.720   7.665
 1408POPC   NC322415  37.380  37.113   9.330
 1408POPC   PO422416  37.918  36.774   9.429
 1408POPC   GL122417  37.695  36.780   9.105
 1408POPC   GL222418  37.422  36.561   9.131
 1408POPC   C1A22419  37.732  36.991   8.724
 1408POPC   D2A22420  37.593  37.202   8.378
 1408POPC   C3A22421  37.882  37.113   8.067
 1408POPC   C4A22422  37.741  36.977   7.696
 1408POPC   C1B22423  37.671  36.482   8.718
 1408POPC   C2B22424  37.658  36.692   8.304
 1408POPC   C3B22425  37.655  36.512   7.898
 1408POPC   C4B22426  37.502  36.580   7.473
 1409POPC   NC322427   0.652  20.161   9.564
 1409POPC   PO422428   0.274  20.856   9.465
 1409POPC   GL122429   0.421  20.714   9.093
 1409POPC   GL222430   0.475  20.371   9.141
 1409POPC   C1A22431   0.428  20.561   8.662
 1409POPC   D2A22432   0.592  20.794   8.306
 1409POPC   C3A22433   0.429  20.718   7.888
 1409POPC   C4A22434   0.517  20.747   7.443
 1409POPC   C1B22435   0.820  20.222   8.886
 1409POPC   C2B22436   0.849  20.316   8.458
 1409POPC   C3B22437   0.608  20.282   8.073
 1409POPC   C4B22438   0.760  20.377   7.669
 1410POPC   NC322439  39.902  29.526   9.545
 1410POPC   PO422440  40.301  29.972   9.701
 1410POPC   GL122441  40.077  30.155   9.314
 1410POPC   GL222442  39.769  29.972   9.309
 1410POPC   C1A22443  40.143  30.134   8.824
 1410POPC   D2A22444  40.124  30.285   8.362
 1410POPC   C3A22445  39.936  30.180   7.937
 1410POPC   C4A22446  40.204  30.108   7.603
 1410POPC   C1B22447  39.816  29.767   8.925
 1410POPC   C2B22448  39.822  29.864   8.481
 1410POPC   C3B22449  39.752  29.715   8.079
 1410POPC   C4B22450  39.881  29.708   7.680
 1411POPC   NC322451   1.504   6.931   9.306
 1411POPC   PO422452   1.325   7.633   9.419
 1411POPC   GL122453   1.072   7.605   9.093
 1411POPC   GL222454   1.256   7.334   8.974
 1411POPC   C1A22455   1.150   7.831   8.754
 1411POPC   D2A22456   1.328   7.579   8.473
 1411POPC   C3A22457   1.220   7.637   8.090
 1411POPC   C4A22458   1.379   7.522   7.708
 1411POPC   C1B22459   1.265   7.091   8.613
 1411POPC   C2B22460   1.197   7.139   8.199
 1411POPC   C3B22461   1.087   7.070   7.816
 1411POPC   C4B22462   0.682   7.025   7.642
 1412POPC   NC322463   9.318   7.186   9.567
 1412POPC   PO422464   9.936   7.528   9.575
 1412POPC   GL122465   9.759   7.312   9.225
 1412POPC   GL222466  10.108   7.209   9.166
 1412POPC   C1A22467   9.626   7.294   8.748
 1412POPC   D2A22468   9.821   7.123   8.381
 1412POPC   C3A22469   9.640   7.198   7.967
 1412POPC   C4A22470   9.765   7.444   7.604
 1412POPC   C1B22471  10.060   7.488   8.856
 1412POPC   C2B22472  10.125   7.525   8.454
 1412POPC   C3B22473   9.950   7.590   8.065
 1412POPC   C4B22474  10.188   7.807   7.729
 1413POPC   NC322475  39.195  40.407   9.299
 1413POPC   PO422476  39.044  40.934   9.683
 1413POPC   GL122477  39.039  40.896   9.216
 1413POPC   GL222478  39.358  40.914   9.095
 1413POPC   C1A22479  39.074  40.764   8.734
 1413POPC   D2A22480  39.319  40.778   8.340
 1413POPC   C3A22481  39.081  40.634   7.991
 1413POPC   C4A22482  38.877  40.821   7.644
 1413POPC   C1B22483  39.553  40.578   8.797
 1413POPC   C2B22484  39.577  40.343   8.435
 1413POPC   C3B22485  39.738  40.388   8.053
 1413POPC   C4B22486  39.542  40.624   7.766
 1414POPC   NC322487   9.906  38.177   9.612
 1414POPC   PO422488   9.499  38.715   9.582
 1414POPC   GL122489   9.719  38.472   9.198
 1414POPC   GL222490  10.046  38.465   9.123
 1414POPC   C1A22491   9.779  38.346   8.732
 1414POPC   D2A22492   9.789  38.705   8.492
 1414POPC   C3A22493   9.909  38.715   8.066
 1414POPC   C4A22494   9.785  38.432   7.703
 1414POPC   C1B22495  10.243  38.595   8.767
 1414POPC   C2B22496  10.206  38.414   8.401
 1414POPC   C3B22497  10.128  38.269   8.027
 1414POPC   C4B22498  10.289  38.365   7.623
 1415POPC   NC322499  34.706  35.685   9.605
 1415POPC   PO422500  34.937  35.069   9.448
 1415POPC   GL122501  34.663  35.198   9.123
 1415POPC   GL222502  34.735  35.517   9.132
 1415POPC   C1A22503  34.597  35.141   8.677
 1415POPC   D2A22504  34.737  34.882   8.299
 1415POPC   C3A22505  34.632  35.119   7.901
 1415POPC   C4A22506  34.356  35.471   7.641
 1415POPC   C1B22507  34.888  35.567   8.722
 1415POPC   C2B22508  34.647  35.541   8.341
 1415POPC   C3B22509  34.751  35.592   7.927
 1415POPC   C4B22510  35.152  35.493   7.764
 1416POPC   NC322511  31.111   1.768   9.471
 1416POPC   PO422512  30.659   2.295   9.485
 1416POPC   GL122513  30.820   2.059   9.134
 1416POPC   GL222514  30.495   1.987   8.996
 1416POPC   C1A22515  30.888   1.781   8.756
 1416POPC   D2A22516  30.700   1.617   8.366
 1416POPC   C3A22517  30.953   1.747   8.014
 1416POPC   C4A22518  30.754   1.923   7.653
 1416POPC   C1B22519  30.308   2.277   8.696
 1416POPC   C2B22520  30.375   2.369   8.268
 1416POPC   C3B22521  30.351   2.154   7.873
 1416POPC   C4B22522  30.281   2.151   7.457
 1417POPC   NC322523  42.667   9.899   9.428
 1417POPC   PO422524  43.330   9.632   9.364
 1417POPC   GL122525  43.108   9.751   9.024
 1417POPC   GL222526  43.025  10.071   9.109
 1417POPC   C1A22527  43.273   9.900   8.658
 1417POPC   D2A22528  43.259   9.688   8.294
 1417POPC   C3A22529  43.363   9.858   7.921
 1417POPC   C4A22530  43.083   9.638   7.675
 1417POPC   C1B22531  42.723  10.096   8.775
 1417POPC   C2B22532  42.828   9.925   8.415
 1417POPC   C3B22533  42.880  10.005   8.005
 1417POPC   C4B22534  42.775  10.387   7.894
 1418POPC   NC322535  13.072  38.448   9.726
 1418POPC   PO422536  12.591  38.393   9.269
 1418POPC   GL122537  12.784  38.205   8.982
 1418POPC   GL222538  13.136  38.150   9.098
 1418POPC   C1A22539  12.694  38.410   8.580
 1418POPC   D2A22540  12.342  38.247   8.373
 1418POPC   C3A22541  12.453  38.157   7.967
 1418POPC   C4A22542  12.855  38.313   7.844
 1418POPC   C1B22543  13.156  38.140   8.650
 1418POPC   C2B22544  13.179  38.317   8.241
 1418POPC   C3B22545  13.327  38.119   7.855
 1418POPC   C4B22546  13.064  37.982   7.490
 1419POPC   NC322547   8.461  19.475   9.495
 1419POPC   PO422548   8.445  20.164   9.433
 1419POPC   GL122549   8.231  19.907   9.119
 1419POPC   GL222550   8.018  19.597   9.143
 1419POPC   C1A22551   8.138  19.935   8.687
 1419POPC   D2A22552   8.340  19.992   8.302
 1419POPC   C3A22553   8.181  19.951   7.860
 1419POPC   C4A22554   8.160  20.261   7.467
 1419POPC   C1B22555   7.811  19.538   8.700
 1419POPC   C2B22556   7.741  19.343   8.256
 1419POPC   C3B22557   7.970  19.378   7.863
 1419POPC   C4B22558   8.309  19.475   7.607
 1420POPC   NC322559  10.167  21.256   9.343
 1420POPC   PO422560  10.592  21.662   9.743
 1420POPC   GL122561  10.585  21.649   9.220
 1420POPC   GL222562  10.544  21.343   8.993
 1420POPC   C1A22563  10.759  21.755   8.767
 1420POPC   D2A22564  10.788  21.847   8.310
 1420POPC   C3A22565  10.753  21.490   8.011
 1420POPC   C4A22566  10.388  21.588   7.741
 1420POPC   C1B22567  10.575  21.347   8.531
 1420POPC   C2B22568  10.291  21.314   8.185
 1420POPC   C3B22569  10.404  21.102   7.856
 1420POPC   C4B22570  10.577  21.172   7.432
 1421POPC   NC322571  29.012   7.760   9.368
 1421POPC   PO422572  29.032   7.170   9.485
 1421POPC   GL122573  29.345   7.133   9.119
 1421POPC   GL222574  29.076   7.284   8.978
 1421POPC   C1A22575  29.376   7.114   8.617
 1421POPC   D2A22576  29.445   7.424   8.267
 1421POPC   C3A22577  29.297   7.351   7.868
 1421POPC   C4A22578  29.375   7.390   7.439
 1421POPC   C1B22579  29.146   7.571   8.659
 1421POPC   C2B22580  29.001   7.806   8.300
 1421POPC   C3B22581  28.995   7.760   7.862
 1421POPC   C4B22582  28.880   7.422   7.539
 1422POPC   NC322583  37.898  28.557   9.843
 1422POPC   PO422584  37.518  29.043   9.502
 1422POPC   GL122585  37.778  29.105   9.153
 1422POPC   GL222586  38.006  29.344   9.278
 1422POPC   C1A22587  37.878  28.934   8.726
 1422POPC   D2A22588  37.745  29.142   8.346
 1422POPC   C3A22589  37.706  29.043   7.912
 1422POPC   C4A22590  37.608  28.961   7.461
 1422POPC   C1B22591  38.178  29.326   8.903
 1422POPC   C2B22592  38.272  29.232   8.484
 1422POPC   C3B22593  38.130  29.285   8.049
 1422POPC   C4B22594  38.076  29.442   7.654
 1423POPC   NC322595  20.587  39.337   9.679
 1423POPC   PO422596  20.340  38.864   9.473
 1423POPC   GL122597  20.478  38.997   9.080
 1423POPC   GL222598  20.735  39.246   9.152
 1423POPC   C1A22599  20.599  38.808   8.696
 1423POPC   D2A22600  20.890  38.936   8.405
 1423POPC   C3A22601  20.744  39.165   8.093
 1423POPC   C4A22602  20.712  39.153   7.674
 1423POPC   C1B22603  20.715  39.323   8.696
 1423POPC   C2B22604  20.512  39.538   8.323
 1423POPC   C3B22605  20.578  39.604   7.853
 1423POPC   C4B22606  20.808  39.581   7.425
 1424POPC   NC322607  39.400  14.247   9.490
 1424POPC   PO422608  38.819  14.560   9.446
 1424POPC   GL122609  39.016  14.400   9.108
 1424POPC   GL222610  38.898  14.709   8.959
 1424POPC   C1A22611  39.268  14.139   8.810
 1424POPC   D2A22612  39.471  14.275   8.428
 1424POPC   C3A22613  39.294  14.221   8.039
 1424POPC   C4A22614  39.343  14.421   7.679
 1424POPC   C1B22615  38.937  14.494   8.600
 1424POPC   C2B22616  39.100  14.652   8.243
 1424POPC   C3B22617  39.013  14.791   7.825
 1424POPC   C4B22618  38.875  14.560   7.466
 1425POPC   NC322619  33.950  33.484   9.498
 1425POPC   PO422620  33.463  33.899   9.336
 1425POPC   GL122621  33.694  33.601   9.059
 1425POPC   GL222622  34.069  33.701   9.062
 1425POPC   C1A22623  33.865  33.635   8.613
 1425POPC   D2A22624  33.833  33.982   8.340
 1425POPC   C3A22625  33.791  33.851   7.897
 1425POPC   C4A22626  33.555  33.886   7.512
 1425POPC   C1B22627  34.220  34.016   8.736
 1425POPC   C2B22628  34.356  33.924   8.316
 1425POPC   C3B22629  34.140  33.583   8.153
 1425POPC   C4B22630  34.092  33.463   7.719
 1426POPC   NC322631  30.907  14.315   9.486
 1426POPC   PO422632  31.330  14.813   9.457
 1426POPC   GL122633  30.984  14.686   9.130
 1426POPC   GL222634  30.601  14.600   9.177
 1426POPC   C1A22635  31.033  14.380   8.774
 1426POPC   D2A22636  31.152  14.471   8.331
 1426POPC   C3A22637  30.918  14.272   7.998
 1426POPC   C4A22638  30.828  14.442   7.642
 1426POPC   C1B22639  30.539  14.295   8.826
 1426POPC   C2B22640  30.495  14.295   8.355
 1426POPC   C3B22641  30.391  14.479   7.919
 1426POPC   C4B22642  30.441  14.787   7.553
 1427POPC   NC322643  38.953  29.492   9.445
 1427POPC   PO422644  39.172  28.893   9.548
 1427POPC   GL122645  39.303  29.154   9.183
 1427POPC   GL222646  39.095  29.082   8.937
 1427POPC   C1A22647  39.514  29.352   8.794
 1427POPC   D2A22648  39.338  29.223   8.381
 1427POPC   C3A22649  39.349  29.429   7.935
 1427POPC   C4A22650  39.091  29.433   7.498
 1427POPC   C1B22651  39.424  28.844   8.772
 1427POPC   C2B22652  39.583  28.767   8.395
 1427POPC   C3B22653  39.405  28.898   8.010
 1427POPC   C4B22654  39.008  29.088   7.846
 1428POPC   NC322655  27.292  31.781   9.453
 1428POPC   PO422656  27.687  31.243   9.509
 1428POPC   GL122657  27.522  31.422   9.159
 1428POPC   GL222658  27.694  31.713   9.130
 1428POPC   C1A22659  27.329  31.567   8.778
 1428POPC   D2A22660  27.110  31.380   8.439
 1428POPC   C3A22661  27.241  31.515   8.033
 1428POPC   C4A22662  27.430  31.369   7.605
 1428POPC   C1B22663  27.869  31.594   8.748
 1428POPC   C2B22664  27.652  31.496   8.381
 1428POPC   C3B22665  27.740  31.380   8.000
 1428POPC   C4B22666  27.898  31.628   7.675
 1429POPC   NC322667  14.140  25.827   9.491
 1429POPC   PO422668  14.720  26.262   9.675
 1429POPC   GL122669  14.514  26.139   9.317
 1429POPC   GL222670  14.332  26.404   9.311
 1429POPC   C1A22671  14.616  25.984   8.863
 1429POPC   D2A22672  14.434  25.890   8.428
 1429POPC   C3A22673  14.599  25.955   7.996
 1429POPC   C4A22674  14.754  25.787   7.607
 1429POPC   C1B22675  14.610  26.485   8.967
 1429POPC   C2B22676  14.605  26.383   8.503
 1429POPC   C3B22677  14.277  26.321   8.147
 1429POPC   C4B22678  14.282  26.262   7.689
 1430POPC   NC322679  26.470   0.937   9.491
 1430POPC   PO422680  25.790   1.121   9.565
 1430POPC   GL122681  26.041   1.211   9.189
 1430POPC   GL222682  26.297   1.011   9.040
 1430POPC   C1A22683  26.115   1.424   8.806
 1430POPC   D2A22684  25.964   1.330   8.404
 1430POPC   C3A22685  26.194   1.291   8.076
 1430POPC   C4A22686  26.064   1.320   7.709
 1430POPC   C1B22687  26.472   1.111   8.674
 1430POPC   C2B22688  26.240   0.887   8.378
 1430POPC   C3B22689  26.233   0.803   7.947
 1430POPC   C4B22690  26.493   1.083   7.696
 1431POPC   NC322691  41.653  16.571   9.657
 1431POPC   PO422692  41.518  15.904   9.626
 1431POPC   GL122693  41.604  15.901   9.210
 1431POPC   GL222694  41.821  15.604   9.196
 1431POPC   C1A22695  41.541  16.038   8.784
 1431POPC   D2A22696  41.378  15.886   8.397
 1431POPC   C3A22697  41.621  16.078   8.088
 1431POPC   C4A22698  41.581  16.263   7.673
 1431POPC   C1B22699  41.522  15.519   8.847
 1431POPC   C2B22700  41.542  15.374   8.412
 1431POPC   C3B22701  41.628  15.561   8.037
 1431POPC   C4B22702  41.433  15.753   7.694
 1432POPC   NC322703  39.157  31.529   9.729
 1432POPC   PO422704  38.535  31.395   9.592
 1432POPC   GL122705  38.550  31.515   9.169
 1432POPC   GL222706  38.651  31.241   8.939
 1432POPC   C1A22707  38.280  31.617   8.828
 1432POPC   D2A22708  38.197  31.417   8.436
 1432POPC   C3A22709  38.294  31.639   8.055
 1432POPC   C4A22710  38.070  31.540   7.684
 1432POPC   C1B22711  38.784  31.590   8.642
 1432POPC   C2B22712  38.880  31.690   8.192
 1432POPC   C3B22713  38.765  31.568   7.780
 1432POPC   C4B22714  38.459  31.237   7.744
 1433POPC   NC322715  19.110  35.742   9.470
 1433POPC   PO422716  18.883  35.127   9.594
 1433POPC   GL122717  18.902  35.282   9.191
 1433POPC   GL222718  19.243  35.335   9.148
 1433POPC   C1A22719  18.857  35.213   8.740
 1433POPC   D2A22720  18.716  34.921   8.410
 1433POPC   C3A22721  18.685  35.130   8.034
 1433POPC   C4A22722  18.973  35.462   7.867
 1433POPC   C1B22723  19.266  35.555   8.762
 1433POPC   C2B22724  19.163  35.648   8.346
 1433POPC   C3B22725  19.381  35.787   7.976
 1433POPC   C4B22726  19.331  35.673   7.537
 1434POPC   NC322727  17.775  13.353   9.303
 1434POPC   PO422728  17.425  13.782   9.634
 1434POPC   GL122729  17.274  13.572   9.183
 1434POPC   GL222730  17.088  13.826   8.990
 1434POPC   C1A22731  17.160  13.389   8.739
 1434POPC   D2A22732  17.103  13.562   8.305
 1434POPC   C3A22733  17.409  13.467   7.986
 1434POPC   C4A22734  17.813  13.532   7.827
 1434POPC   C1B22735  17.491  13.773   8.736
 1434POPC   C2B22736  17.672  13.781   8.306
 1434POPC   C3B22737  17.552  13.968   7.914
 1434POPC   C4B22738  17.111  13.947   7.875
 1435POPC   NC322739  23.783   8.060   9.507
 1435POPC   PO422740  23.274   8.561   9.522
 1435POPC   GL122741  23.486   8.300   9.151
 1435POPC   GL222742  23.545   7.915   9.080
 1435POPC   C1A22743  23.392   8.214   8.709
 1435POPC   D2A22744  23.568   8.070   8.342
 1435POPC   C3A22745  23.386   8.177   8.006
 1435POPC   C4A22746  23.554   8.321   7.670
 1435POPC   C1B22747  23.781   7.752   8.679
 1435POPC   C2B22748  24.047   7.879   8.330
 1435POPC   C3B22749  23.901   8.038   7.951
 1435POPC   C4B22750  23.934   7.952   7.567
 1436POPC   NC322751  43.232  21.985   9.577
 1436POPC   PO422752  42.809  21.477   9.482
 1436POPC   GL122753  43.040  21.424   9.104
 1436POPC   GL222754  43.310  21.188   9.062
 1436POPC   C1A22755  43.238  21.589   8.728
 1436POPC   D2A22756  43.469  21.610   8.331
 1436POPC   C3A22757  43.300  21.582   7.932
 1436POPC   C4A22758  43.308  21.298   7.600
 1436POPC   C1B22759  43.053  21.123   8.691
 1436POPC   C2B22760  42.962  21.346   8.334
 1436POPC   C3B22761  43.097  21.096   8.016
 1436POPC   C4B22762  42.949  20.942   7.621
 1437POPC   NC322763  35.105  43.421   9.628
 1437POPC   PO422764  35.578  42.899   9.558
 1437POPC   GL122765  35.355  43.150   9.230
 1437POPC   GL222766  35.578  43.411   9.146
 1437POPC   C1A22767  35.258  43.262   8.766
 1437POPC   D2A22768  35.308  43.507   8.390
 1437POPC   C3A22769  35.664  43.531   8.102
 1437POPC   C4A22770  35.862  43.393   7.701
 1437POPC   C1B22771  35.710  43.045   8.876
 1437POPC   C2B22772  35.626  43.062   8.422
 1437POPC   C3B22773  35.345  43.108   8.084
 1437POPC   C4B22774  35.190  43.457   7.884
 1438POPC   NC322775  35.224  25.208   9.399
 1438POPC   PO422776  35.413  25.833   9.636
 1438POPC   GL122777  35.563  25.667   9.225
 1438POPC   GL222778  35.297  25.643   9.019
 1438POPC   C1A22779  35.787  25.381   8.889
 1438POPC   D2A22780  35.696  25.072   8.527
 1438POPC   C3A22781  35.611  25.179   8.062
 1438POPC   C4A22782  35.514  25.185   7.600
 1438POPC   C1B22783  35.342  25.436   8.618
 1438POPC   C2B22784  35.248  25.566   8.199
 1438POPC   C3B22785  35.150  25.517   7.762
 1438POPC   C4B22786  35.026  25.527   7.286
 1439POPC   NC322787  33.258  33.483   9.377
 1439POPC   PO422788  33.032  34.064   9.604
 1439POPC   GL122789  32.958  33.858   9.138
 1439POPC   GL222790  33.032  33.527   8.947
 1439POPC   C1A22791  32.875  33.914   8.673
 1439POPC   D2A22792  33.007  34.142   8.290
 1439POPC   C3A22793  32.758  34.026   7.942
 1439POPC   C4A22794  32.751  33.638   7.722
 1439POPC   C1B22795  33.357  33.707   8.680
 1439POPC   C2B22796  33.467  33.621   8.242
 1439POPC   C3B22797  33.234  33.766   7.876
 1439POPC   C4B22798  33.174  33.521   7.452
 1440POPC   NC322799  38.092  22.878   9.411
 1440POPC   PO422800  37.527  22.573   9.448
 1440POPC   GL122801  37.689  22.687   9.086
 1440POPC   GL222802  37.569  23.030   9.128
 1440POPC   C1A22803  37.819  22.844   8.692
 1440POPC   D2A22804  37.888  23.110   8.374
 1440POPC   C3A22805  37.673  22.992   8.008
 1440POPC   C4A22806  37.549  22.877   7.598
 1440POPC   C1B22807  37.293  22.878   8.776
 1440POPC   C2B22808  37.255  22.811   8.301
 1440POPC   C3B22809  37.158  23.072   7.893
 1440POPC   C4B22810  37.226  23.209   7.384
 1441POPC   NC322811  27.654  28.228   9.685
 1441POPC   PO422812  27.337  28.558   9.148
 1441POPC   GL122813  27.746  28.462   9.103
 1441POPC   GL222814  27.686  28.171   9.172
 1441POPC   C1A22815  27.928  28.632   8.755
 1441POPC   D2A22816  27.658  28.684   8.402
 1441POPC   C3A22817  27.759  28.517   8.025
 1441POPC   C4A22818  27.498  28.341   7.742
 1441POPC   C1B22819  27.784  27.973   8.820
 1441POPC   C2B22820  27.794  28.200   8.465
 1441POPC   C3B22821  27.719  28.004   8.089
 1441POPC   C4B22822  27.930  27.978   7.734
 1442POPC   NC322823   3.079  35.765   9.580
 1442POPC   PO422824   3.539  35.245   9.550
 1442POPC   GL122825   3.554  35.458   9.141
 1442POPC   GL222826   3.299  35.721   9.099
 1442POPC   C1A22827   3.669  35.422   8.698
 1442POPC   D2A22828   3.879  35.700   8.406
 1442POPC   C3A22829   3.867  35.556   8.012
 1442POPC   C4A22830   3.561  35.510   7.718
 1442POPC   C1B22831   3.205  35.663   8.648
 1442POPC   C2B22832   3.339  35.548   8.214
 1442POPC   C3B22833   3.068  35.501   7.833
 1442POPC   C4B22834   2.766  35.403   7.482
 1443POPC   NC322835   2.265  30.197   9.540
 1443POPC   PO422836   1.587  30.351   9.638
 1443POPC   GL122837   1.888  30.430   9.234
 1443POPC   GL222838   2.148  30.323   9.050
 1443POPC   C1A22839   1.976  30.762   8.861
 1443POPC   D2A22840   1.827  30.944   8.482
 1443POPC   C3A22841   1.941  30.832   8.067
 1443POPC   C4A22842   2.335  30.775   7.852
 1443POPC   C1B22843   1.753  30.327   8.765
 1443POPC   C2B22844   1.935  30.410   8.373
 1443POPC   C3B22845   2.057  30.329   7.956
 1443POPC   C4B22846   1.983  30.527   7.571
 1444POPC   NC322847   1.570  31.452   9.723
 1444POPC   PO422848   1.121  31.844   9.486
 1444POPC   GL122849   1.079  31.621   9.117
 1444POPC   GL222850   0.777  31.775   9.057
 1444POPC   C1A22851   1.038  31.257   8.819
 1444POPC   D2A22852   1.279  31.113   8.456
 1444POPC   C3A22853   1.134  31.337   8.103
 1444POPC   C4A22854   1.256  31.438   7.666
 1444POPC   C1B22855   0.937  31.735   8.660
 1444POPC   C2B22856   1.295  31.721   8.471
 1444POPC   C3B22857   1.266  31.823   8.078
 1444POPC   C4B22858   0.858  31.741   7.848
 1445POPC   NC322859  19.267  32.635   9.468
 1445POPC   PO422860  18.851  33.212   9.561
 1445POPC   GL122861  18.920  33.017   9.168
 1445POPC   GL222862  19.186  33.146   9.110
 1445POPC   C1A22863  18.758  32.884   8.760
 1445POPC   D2A22864  18.724  33.062   8.372
 1445POPC   C3A22865  18.671  32.935   7.967
 1445POPC   C4A22866  19.031  32.865   7.722
 1445POPC   C1B22867  19.377  33.460   8.860
 1445POPC   C2B22868  19.568  33.357   8.471
 1445POPC   C3B22869  19.447  33.482   8.083
 1445POPC   C4B22870  19.603  33.358   7.701
 1446POPC   NC322871   1.494  19.253   9.419
 1446POPC   PO422872   1.023  18.680   9.544
 1446POPC   GL122873   1.239  18.872   9.225
 1446POPC   GL222874   1.418  18.612   9.153
 1446POPC   C1A22875   1.390  18.996   8.795
 1446POPC   D2A22876   1.111  19.148   8.476
 1446POPC   C3A22877   1.280  19.267   8.096
 1446POPC   C4A22878   1.061  19.480   7.786
 1446POPC   C1B22879   1.031  18.616   8.853
 1446POPC   C2B22880   1.115  18.629   8.425
 1446POPC   C3B22881   0.897  18.817   8.107
 1446POPC   C4B22882   1.072  18.951   7.756
 1447POPC   NC322883  42.514  11.442   9.556
 1447POPC   PO422884  42.054  10.890   9.495
 1447POPC   GL122885  42.308  11.041   9.154
 1447POPC   GL222886  42.456  11.359   9.075
 1447POPC   C1A22887  42.355  11.013   8.710
 1447POPC   D2A22888  42.596  11.298   8.469
 1447POPC   C3A22889  42.416  11.225   8.089
 1447POPC   C4A22890  42.310  11.279   7.686
 1447POPC   C1B22891  42.140  11.470   8.845
 1447POPC   C2B22892  42.097  11.464   8.417
 1447POPC   C3B22893  41.963  11.489   7.987
 1447POPC   C4B22894  41.859  11.665   7.594
 1448POPC   NC322895  24.047   4.129   9.609
 1448POPC   PO422896  23.549   4.495   9.626
 1448POPC   GL122897  23.751   4.439   9.235
 1448POPC   GL222898  23.843   4.129   9.154
 1448POPC   C1A22899  23.802   4.537   8.813
 1448POPC   D2A22900  23.905   4.795   8.479
 1448POPC   C3A22901  23.826   4.642   8.081
 1448POPC   C4A22902  23.633   4.552   7.701
 1448POPC   C1B22903  23.834   3.988   8.780
 1448POPC   C2B22904  23.730   3.871   8.391
 1448POPC   C3B22905  23.712   4.133   8.010
 1448POPC   C4B22906  23.958   4.169   7.623
 1449POPC   NC322907  25.056   2.102  10.021
 1449POPC   PO422908  25.559   1.889   9.561
 1449POPC   GL122909  25.376   1.930   9.163
 1449POPC   GL222910  25.095   1.747   9.165
 1449POPC   C1A22911  25.345   2.044   8.722
 1449POPC   D2A22912  25.332   1.782   8.353
 1449POPC   C3A22913  25.397   1.972   7.963
 1449POPC   C4A22914  25.450   1.714   7.623
 1449POPC   C1B22915  24.879   1.838   8.759
 1449POPC   C2B22916  24.922   2.095   8.380
 1449POPC   C3B22917  24.867   1.875   7.991
 1449POPC   C4B22918  24.983   1.890   7.582
 1450POPC   NC322919  33.396   5.385   9.529
 1450POPC   PO422920  33.928   4.955   9.509
 1450POPC   GL122921  33.636   5.098   9.189
 1450POPC   GL222922  33.445   4.821   9.120
 1450POPC   C1A22923  33.565   5.222   8.755
 1450POPC   D2A22924  33.809   5.425   8.406
 1450POPC   C3A22925  33.742   5.225   8.032
 1450POPC   C4A22926  34.103   5.207   7.745
 1450POPC   C1B22927  33.821   4.765   8.840
 1450POPC   C2B22928  33.838   4.893   8.422
 1450POPC   C3B22929  33.839   4.742   7.987
 1450POPC   C4B22930  33.743   4.865   7.560
 1451POPC   NC322931   9.206   6.536   9.710
 1451POPC   PO422932   8.668   6.344   9.292
 1451POPC   GL122933   8.899   6.688   9.119
 1451POPC   GL222934   9.273   6.758   9.231
 1451POPC   C1A22935   8.992   6.710   8.717
 1451POPC   D2A22936   8.885   6.428   8.411
 1451POPC   C3A22937   8.740   6.669   8.077
 1451POPC   C4A22938   8.849   6.433   7.739
 1451POPC   C1B22939   9.464   6.840   8.843
 1451POPC   C2B22940   9.363   6.900   8.392
 1451POPC   C3B22941   9.283   6.649   8.021
 1451POPC   C4B22942   9.276   6.679   7.560
 1452POPC   NC322943  13.124  22.721   9.475
 1452POPC   PO422944  12.832  23.349   9.415
 1452POPC   GL122945  12.956  23.038   9.108
 1452POPC   GL222946  12.771  22.718   9.040
 1452POPC   C1A22947  13.215  22.971   8.762
 1452POPC   D2A22948  13.235  23.153   8.371
 1452POPC   C3A22949  12.930  22.998   8.127
 1452POPC   C4A22950  12.940  22.827   7.746
 1452POPC   C1B22951  12.728  23.004   8.642
 1452POPC   C2B22952  12.467  23.141   8.302
 1452POPC   C3B22953  12.450  22.964   7.885
 1452POPC   C4B22954  12.525  22.923   7.455
 1453POPC   NC322955   9.155   9.430   9.538
 1453POPC   PO422956   8.680   9.756   9.270
 1453POPC   GL122957   8.978   9.699   8.958
 1453POPC   GL222958   9.098   9.375   9.042
 1453POPC   C1A22959   8.988   9.956   8.574
 1453POPC   D2A22960   8.770  10.175   8.255
 1453POPC   C3A22961   8.791   9.866   7.931
 1453POPC   C4A22962   9.105   9.682   7.711
 1453POPC   C1B22963   9.222   9.414   8.617
 1453POPC   C2B22964   9.130   9.548   8.208
 1453POPC   C3B22965   9.445   9.394   7.922
 1453POPC   C4B22966   9.376   9.305   7.453
 1454POPC   NC322967  31.114   7.463   9.447
 1454POPC   PO422968  31.710   7.608   9.256
 1454POPC   GL122969  31.465   7.270   9.119
 1454POPC   GL222970  31.288   7.546   8.943
 1454POPC   C1A22971  31.305   7.057   8.742
 1454POPC   D2A22972  31.533   7.038   8.321
 1454POPC   C3A22973  31.344   7.180   7.943
 1454POPC   C4A22974  31.515   7.101   7.528
 1454POPC   C1B22975  31.670   7.416   8.653
 1454POPC   C2B22976  31.926   7.444   8.286
 1454POPC   C3B22977  31.813   7.391   7.872
 1454POPC   C4B22978  31.461   7.638   7.748
 1455POPC   NC322979   0.066  44.588   9.426
 1455POPC   PO422980   0.707  44.595   9.406
 1455POPC   GL122981   0.497  44.744   9.025
 1455POPC   GL222982   0.244  44.951   9.092
 1455POPC   C1A22983   0.396  44.952   8.608
 1455POPC   D2A22984   0.246   0.080   8.199
 1455POPC   C3A22985   0.391  44.774   7.914
 1455POPC   C4A22986   0.526  44.521   7.582
 1455POPC   C1B22987   0.009  44.663   8.792
 1455POPC   C2B22988   0.061  44.467   8.378
 1455POPC   C3B22989  44.926  44.576   7.967
 1455POPC   C4B22990   0.040  44.669   7.541
 1456POPC   NC322991   6.380  37.232   9.564
 1456POPC   PO422992   6.794  37.795   9.650
 1456POPC   GL122993   6.708  37.801   9.200
 1456POPC   GL222994   6.647  37.469   9.184
 1456POPC   C1A22995   6.544  37.738   8.768
 1456POPC   D2A22996   6.785  37.722   8.378
 1456POPC   C3A22997   6.574  37.965   8.051
 1456POPC   C4A22998   6.307  37.808   7.764
 1456POPC   C1B22999   6.761  37.254   8.791
 1456POPC   C2B23000   6.674  37.194   8.365
 1456POPC   C3B23001   6.661  37.414   7.978
 1456POPC   C4B23002   6.886  37.196   7.691
 1457POPC   NC323003  42.818  23.416   9.809
 1457POPC   PO423004  43.057  22.896   9.477
 1457POPC   GL123005  43.111  23.006   9.067
 1457POPC   GL223006  42.899  22.744   8.961
 1457POPC   C1A23007  42.920  23.167   8.691
 1457POPC   D2A23008  42.783  22.879   8.352
 1457POPC   C3A23009  42.998  22.914   7.920
 1457POPC   C4A23010  43.083  23.164   7.452
 1457POPC   C1B23011  43.217  22.763   8.631
 1457POPC   C2B23012  43.247  22.584   8.245
 1457POPC   C3B23013  43.386  22.585   7.824
 1457POPC   C4B23014  43.185  22.692   7.420
 1458POPC   NC323015  14.667  31.783   9.587
 1458POPC   PO423016  14.337  31.140   9.476
 1458POPC   GL123017  14.641  31.361   9.252
 1458POPC   GL223018  14.357  31.518   9.132
 1458POPC   C1A23019  14.713  31.429   8.802
 1458POPC   D2A23020  14.503  31.240   8.454
 1458POPC   C3A23021  14.594  31.458   8.078
 1458POPC   C4A23022  14.682  31.212   7.723
 1458POPC   C1B23023  14.206  31.775   8.778
 1458POPC   C2B23024  14.194  31.674   8.373
 1458POPC   C3B23025  14.060  31.621   7.975
 1458POPC   C4B23026  14.336  31.602   7.636
 1459POPC   NC323027  38.656  27.998   9.462
 1459POPC   PO423028  38.353  28.548   9.740
 1459POPC   GL123029  38.444  28.493   9.259
 1459POPC   GL223030  38.734  28.395   9.167
 1459POPC   C1A23031  38.375  28.389   8.782
 1459POPC   D2A23032  38.224  28.148   8.396
 1459POPC   C3A23033  38.107  28.295   8.023
 1459POPC   C4A23034  38.249  28.450   7.613
 1459POPC   C1B23035  38.836  28.151   8.801
 1459POPC   C2B23036  38.761  28.309   8.395
 1459POPC   C3B23037  38.612  28.450   8.014
 1459POPC   C4B23038  38.718  28.296   7.607
 1460POPC   NC323039  28.829  17.444   9.770
 1460POPC   PO423040  29.397  17.767   9.522
 1460POPC   GL123041  29.214  17.595   9.140
 1460POPC   GL223042  29.068  17.285   9.077
 1460POPC   C1A23043  29.359  17.442   8.703
 1460POPC   D2A23044  29.614  17.530   8.355
 1460POPC   C3A23045  29.344  17.514   7.989
 1460POPC   C4A23046  29.219  17.718   7.578
 1460POPC   C1B23047  28.909  17.642   8.735
 1460POPC   C2B23048  28.935  17.847   8.320
 1460POPC   C3B23049  28.864  17.636   7.926
 1460POPC   C4B23050  28.979  17.287   7.648
 1461POPC   NC323051  10.744  42.627   9.415
 1461POPC   PO423052  10.831  41.961   9.486
 1461POPC   GL123053  10.585  42.173   9.159
 1461POPC   GL223054  10.302  42.380   9.290
 1461POPC   C1A23055  10.603  42.360   8.729
 1461POPC   D2A23056  10.424  42.490   8.326
 1461POPC   C3A23057  10.590  42.266   7.969
 1461POPC   C4A23058  10.830  42.587   7.794
 1461POPC   C1B23059  10.159  42.547   8.900
 1461POPC   C2B23060  10.070  42.806   8.544
 1461POPC   C3B23061  10.051  42.798   8.106
 1461POPC   C4B23062  10.280  42.593   7.763
 1462POPC   NC323063   7.989  20.336   9.360
 1462POPC   PO423064   8.415  20.809   9.613
 1462POPC   GL123065   8.389  20.644   9.210
 1462POPC   GL223066   8.067  20.810   9.175
 1462POPC   C1A23067   8.521  20.384   8.820
 1462POPC   D2A23068   8.587  20.570   8.403
 1462POPC   C3A23069   8.323  20.794   8.113
 1462POPC   C4A23070   8.287  20.708   7.673
 1462POPC   C1B23071   8.215  20.775   8.747
 1462POPC   C2B23072   8.094  20.419   8.459
 1462POPC   C3B23073   7.992  20.407   8.012
 1462POPC   C4B23074   7.789  20.567   7.643
 1463POPC   NC323075  28.508  16.038   9.558
 1463POPC   PO423076  27.888  16.228   9.790
 1463POPC   GL123077  28.055  16.157   9.345
 1463POPC   GL223078  28.029  16.415   9.088
 1463POPC   C1A23079  28.205  15.939   8.922
 1463POPC   D2A23080  28.182  15.898   8.442
 1463POPC   C3A23081  28.474  15.961   8.085
 1463POPC   C4A23082  28.532  15.706   7.696
 1463POPC   C1B23083  28.270  16.389   8.692
 1463POPC   C2B23084  28.218  16.403   8.259
 1463POPC   C3B23085  27.914  16.161   8.075
 1463POPC   C4B23086  28.099  16.003   7.729
 1464POPC   NC323087  23.889  31.455   9.504
 1464POPC   PO423088  23.277  31.149   9.369
 1464POPC   GL123089  23.696  31.209   9.099
 1464POPC   GL223090  23.927  31.558   9.015
 1464POPC   C1A23091  23.783  31.226   8.654
 1464POPC   D2A23092  23.599  31.409   8.300
 1464POPC   C3A23093  23.945  31.449   8.065
 1464POPC   C4A23094  24.079  31.204   7.771
 1464POPC   C1B23095  23.974  31.927   8.722
 1464POPC   C2B23096  23.830  31.916   8.312
 1464POPC   C3B23097  23.634  31.827   7.921
 1464POPC   C4B23098  23.581  31.453   7.715
 1465POPC   NC323099  22.573  29.572   9.620
 1465POPC   PO423100  22.702  28.902   9.572
 1465POPC   GL123101  22.850  29.006   9.138
 1465POPC   GL223102  22.804  29.362   9.210
 1465POPC   C1A23103  22.687  29.206   8.736
 1465POPC   D2A23104  22.640  29.232   8.280
 1465POPC   C3A23105  22.909  28.937   8.100
 1465POPC   C4A23106  22.868  28.808   7.701
 1465POPC   C1B23107  23.118  29.470   8.917
 1465POPC   C2B23108  23.182  29.277   8.515
 1465POPC   C3B23109  23.140  29.432   8.104
 1465POPC   C4B23110  23.060  29.269   7.722
 1466POPC   NC323111  21.471  26.447   9.478
 1466POPC   PO423112  21.366  25.821   9.616
 1466POPC   GL123113  21.396  26.022   9.226
 1466POPC   GL223114  21.074  26.210   9.218
 1466POPC   C1A23115  21.456  26.186   8.796
 1466POPC   D2A23116  21.177  26.124   8.422
 1466POPC   C3A23117  21.294  25.959   7.994
 1466POPC   C4A23118  21.452  25.973   7.566
 1466POPC   C1B23119  21.015  26.427   8.832
 1466POPC   C2B23120  21.103  26.624   8.412
 1466POPC   C3B23121  21.067  26.410   8.007
 1466POPC   C4B23122  21.090  26.333   7.563
 1467POPC   NC323123  33.940   7.011   9.580
 1467POPC   PO423124  33.644   7.622   9.496
 1467POPC   GL123125  33.865   7.450   9.156
 1467POPC   GL223126  33.674   7.171   9.175
 1467POPC   C1A23127  34.035   7.512   8.747
 1467POPC   D2A23128  33.780   7.401   8.389
 1467POPC   C3A23129  33.716   7.585   8.030
 1467POPC   C4A23130  34.076   7.710   7.882
 1467POPC   C1B23131  33.771   7.075   8.781
 1467POPC   C2B23132  33.674   6.905   8.400
 1467POPC   C3B23133  33.550   7.073   8.024
 1467POPC   C4B23134  33.731   7.260   7.644
 1468POPC   NC323135   7.116   4.725   9.478
 1468POPC   PO423136   7.746   5.011   9.356
 1468POPC   GL123137   7.349   5.027   9.135
 1468POPC   GL223138   7.227   4.730   8.974
 1468POPC   C1A23139   7.227   5.297   8.814
 1468POPC   D2A23140   7.379   5.535   8.450
 1468POPC   C3A23141   7.331   5.312   8.041
 1468POPC   C4A23142   7.553   5.145   7.668
 1468POPC   C1B23143   7.576   4.905   8.689
 1468POPC   C2B23144   7.616   4.955   8.248
 1468POPC   C3B23145   7.831   4.782   7.900
 1468POPC   C4B23146   7.731   4.646   7.480
 1469POPC   NC323147  41.946  42.181   9.402
 1469POPC   PO423148  41.340  42.404   9.358
 1469POPC   GL123149  41.651  42.469   9.069
 1469POPC   GL223150  41.657  42.114   8.992
 1469POPC   C1A23151  41.816  42.456   8.663
 1469POPC   D2A23152  41.815  42.227   8.299
 1469POPC   C3A23153  41.591  42.512   8.022
 1469POPC   C4A23154  41.751  42.721   7.687
 1469POPC   C1B23155  41.334  42.138   8.664
 1469POPC   C2B23156  41.334  42.112   8.214
 1469POPC   C3B23157  41.210  42.221   7.810
 1469POPC   C4B23158  41.260  41.913   7.487
 1470POPC   NC323159  34.493  19.964   9.476
 1470POPC   PO423160  35.153  20.181   9.453
 1470POPC   GL123161  34.822  20.101   9.125
 1470POPC   GL223162  34.716  19.716   9.069
 1470POPC   C1A23163  34.582  20.083   8.735
 1470POPC   D2A23164  34.626  19.822   8.362
 1470POPC   C3A23165  34.577  19.949   7.909
 1470POPC   C4A23166  34.607  19.670   7.526
 1470POPC   C1B23167  34.476  19.396   8.814
 1470POPC   C2B23168  34.347  19.380   8.379
 1470POPC   C3B23169  34.580  19.423   8.036
 1470POPC   C4B23170  34.330  19.313   7.760
 1471POPC   NC323171   4.669  18.931   9.430
 1471POPC   PO423172   4.260  19.529   9.388
 1471POPC   GL123173   4.235  19.177   9.127
 1471POPC   GL223174   4.054  19.405   8.914
 1471POPC   C1A23175   4.455  18.957   8.779
 1471POPC   D2A23176   4.635  19.075   8.376
 1471POPC   C3A23177   4.427  18.809   8.052
 1471POPC   C4A23178   4.129  18.836   7.720
 1471POPC   C1B23179   4.398  19.480   8.698
 1471POPC   C2B23180   4.219  19.387   8.327
 1471POPC   C3B23181   4.375  19.293   7.966
 1471POPC   C4B23182   4.454  19.289   7.574
 1472POPC   NC323183  35.016  29.601   9.447
 1472POPC   PO423184  35.346  30.150   9.538
 1472POPC   GL123185  35.417  30.049   9.126
 1472POPC   GL223186  35.218  29.751   9.017
 1472POPC   C1A23187  35.279  30.149   8.707
 1472POPC   D2A23188  35.416  30.300   8.311
 1472POPC   C3A23189  35.208  30.091   8.011
 1472POPC   C4A23190  35.112  30.207   7.611
 1472POPC   C1B23191  35.592  29.711   8.784
 1472POPC   C2B23192  35.528  29.810   8.396
 1472POPC   C3B23193  35.615  29.758   8.003
 1472POPC   C4B23194  35.362  29.747   7.660
 1473POPC   NC323195  36.223  22.732   9.515
 1473POPC   PO423196  35.891  23.223   9.627
 1473POPC   GL123197  35.973  23.171   9.187
 1473POPC   GL223198  36.100  22.850   9.048
 1473POPC   C1A23199  36.150  23.253   8.766
 1473POPC   D2A23200  36.280  23.022   8.447
 1473POPC   C3A23201  36.148  23.207   8.094
 1473POPC   C4A23202  35.956  23.012   7.782
 1473POPC   C1B23203  36.404  22.651   8.808
 1473POPC   C2B23204  36.431  22.466   8.404
 1473POPC   C3B23205  36.315  22.690   8.038
 1473POPC   C4B23206  36.410  22.786   7.611
 1474POPC   NC323207   8.788  29.579   9.589
 1474POPC   PO423208   9.384  29.760   9.768
 1474POPC   GL123209   9.183  29.914   9.362
 1474POPC   GL223210   8.798  29.984   9.283
 1474POPC   C1A23211   9.189  30.003   8.923
 1474POPC   D2A23212   9.031  29.950   8.497
 1474POPC   C3A23213   8.867  30.053   8.104
 1474POPC   C4A23214   8.926  29.897   7.724
 1474POPC   C1B23215   8.692  29.822   8.857
 1474POPC   C2B23216   8.516  29.842   8.404
 1474POPC   C3B23217   8.475  29.776   7.917
 1474POPC   C4B23218   8.511  29.967   7.456
 1475POPC   NC323219  36.329  28.575   9.459
 1475POPC   PO423220  36.022  27.994   9.423
 1475POPC   GL123221  36.032  28.320   9.106
 1475POPC   GL223222  35.718  28.494   9.005
 1475POPC   C1A23223  36.238  28.359   8.705
 1475POPC   D2A23224  36.472  28.199   8.342
 1475POPC   C3A23225  36.338  28.230   7.891
 1475POPC   C4A23226  36.294  28.169   7.421
 1475POPC   C1B23227  35.750  28.164   8.702
 1475POPC   C2B23228  35.938  28.187   8.318
 1475POPC   C3B23229  35.937  28.511   8.033
 1475POPC   C4B23230  35.872  28.276   7.686
 1476POPC   NC323231  37.667  10.824   9.399
 1476POPC   PO423232  37.918  10.174   9.660
 1476POPC   GL123233  37.778  10.364   9.227
 1476POPC   GL223234  37.989  10.637   9.050
 1476POPC   C1A23235  37.564  10.460   8.826
 1476POPC   D2A23236  37.801  10.442   8.436
 1476POPC   C3A23237  37.578  10.444   8.051
 1476POPC   C4A23238  37.583  10.625   7.664
 1476POPC   C1B23239  37.814  10.895   8.702
 1476POPC   C2B23240  37.785  10.931   8.248
 1476POPC   C3B23241  38.006  10.738   7.916
 1476POPC   C4B23242  38.052  10.688   7.443
 1477POPC   NC323243  17.362  36.026   9.892
 1477POPC   PO423244  16.825  35.937   9.483
 1477POPC   GL123245  16.980  36.052   9.123
 1477POPC   GL223246  16.978  35.724   9.036
 1477POPC   C1A23247  16.775  36.238   8.799
 1477POPC   D2A23248  16.713  36.249   8.372
 1477POPC   C3A23249  16.917  36.393   7.988
 1477POPC   C4A23250  16.678  36.321   7.602
 1477POPC   C1B23251  16.724  35.675   8.691
 1477POPC   C2B23252  16.492  35.797   8.337
 1477POPC   C3B23253  16.664  35.928   7.919
 1477POPC   C4B23254  16.877  35.839   7.507
 1478POPC   NC323255  28.044  32.439   9.502
 1478POPC   PO423256  28.634  32.166   9.363
 1478POPC   GL123257  28.379  32.229   9.077
 1478POPC   GL223258  28.105  32.011   9.158
 1478POPC   C1A23259  28.618  32.131   8.690
 1478POPC   D2A23260  28.544  31.977   8.285
 1478POPC   C3A23261  28.591  32.264   7.928
 1478POPC   C4A23262  28.592  32.149   7.492
 1478POPC   C1B23263  28.112  32.076   8.671
 1478POPC   C2B23264  28.135  32.291   8.247
 1478POPC   C3B23265  27.993  32.213   7.817
 1478POPC   C4B23266  27.755  32.111   7.461
 1479POPC   NC323267  23.545  27.002   9.548
 1479POPC   PO423268  24.162  26.832   9.481
 1479POPC   GL123269  23.899  26.860   9.085
 1479POPC   GL223270  23.591  27.061   9.056
 1479POPC   C1A23271  23.699  26.757   8.655
 1479POPC   D2A23272  23.753  26.668   8.205
 1479POPC   C3A23273  23.520  26.689   7.796
 1479POPC   C4A23274  23.714  26.414   7.454
 1479POPC   C1B23275  23.840  27.243   8.729
 1479POPC   C2B23276  23.733  27.405   8.330
 1479POPC   C3B23277  23.790  27.120   7.965
 1479POPC   C4B23278  23.955  26.841   7.602
 1480POPC   NC323279  33.263  16.106   9.418
 1480POPC   PO423280  32.738  16.596   9.509
 1480POPC   GL123281  32.965  16.377   9.106
 1480POPC   GL223282  33.347  16.233   8.948
 1480POPC   C1A23283  32.912  16.024   8.800
 1480POPC   D2A23284  33.135  16.028   8.410
 1480POPC   C3A23285  32.976  16.031   7.998
 1480POPC   C4A23286  32.904  15.850   7.604
 1480POPC   C1B23287  33.397  15.794   8.792
 1480POPC   C2B23288  33.430  15.594   8.356
 1480POPC   C3B23289  33.279  15.610   7.910
 1480POPC   C4B23290  33.408  15.896   7.580
 1481POPC   NC323291  24.999  22.054   9.795
 1481POPC   PO423292  25.640  21.903   9.962
 1481POPC   GL123293  25.513  22.027   9.456
 1481POPC   GL223294  25.376  21.775   9.225
 1481POPC   C1A23295  25.554  22.166   8.950
 1481POPC   D2A23296  25.422  22.200   8.463
 1481POPC   C3A23297  25.523  22.051   8.001
 1481POPC   C4A23298  25.368  22.233   7.594
 1481POPC   C1B23299  25.148  21.886   8.797
 1481POPC   C2B23300  25.012  21.910   8.332
 1481POPC   C3B23301  25.035  21.975   7.879
 1481POPC   C4B23302  24.984  21.923   7.431
 1482POPC   NC323303  27.155   4.549   9.476
 1482POPC   PO423304  26.640   4.133   9.470
 1482POPC   GL123305  26.833   4.052   9.075
 1482POPC   GL223306  27.197   4.115   9.038
 1482POPC   C1A23307  26.820   4.254   8.690
 1482POPC   D2A23308  26.651   4.575   8.437
 1482POPC   C3A23309  26.571   4.397   8.049
 1482POPC   C4A23310  26.807   4.578   7.763
 1482POPC   C1B23311  27.314   4.156   8.567
 1482POPC   C2B23312  27.056   4.335   8.223
 1482POPC   C3B23313  26.969   4.102   7.839
 1482POPC   C4B23314  27.031   4.181   7.377
 1483POPC   NC323315  14.933  25.479   9.253
 1483POPC   PO423316  15.477  25.266   9.611
 1483POPC   GL123317  15.337  25.178   9.152
 1483POPC   GL223318  15.064  24.978   9.097
 1483POPC   C1A23319  15.157  25.268   8.688
 1483POPC   D2A23320  14.799  25.490   8.458
 1483POPC   C3A23321  14.910  25.539   8.034
 1483POPC   C4A23322  15.200  25.318   7.773
 1483POPC   C1B23323  14.972  24.779   8.715
 1483POPC   C2B23324  14.946  24.859   8.277
 1483POPC   C3B23325  15.129  24.771   7.860
 1483POPC   C4B23326  15.301  24.856   7.430
 1484POPC   NC323327  25.966  22.083   9.679
 1484POPC   PO423328  26.414  22.255   9.436
 1484POPC   GL123329  26.060  22.163   9.144
 1484POPC   GL223330  25.900  21.849   9.141
 1484POPC   C1A23331  25.982  22.264   8.680
 1484POPC   D2A23332  25.861  22.333   8.241
 1484POPC   C3A23333  26.122  22.318   7.872
 1484POPC   C4A23334  26.343  22.528   7.520
 1484POPC   C1B23335  26.152  21.793   8.760
 1484POPC   C2B23336  26.147  21.906   8.300
 1484POPC   C3B23337  25.968  21.799   7.891
 1484POPC   C4B23338  25.998  21.593   7.490
 1485POPC   NC323339   9.852  20.318   9.487
 1485POPC   PO423340   9.592  19.652   9.526
 1485POPC   GL123341   9.673  19.842   9.139
 1485POPC   GL223342  10.017  19.851   9.167
 1485POPC   C1A23343   9.662  19.782   8.682
 1485POPC   D2A23344   9.700  19.532   8.289
 1485POPC   C3A23345   9.647  19.780   7.908
 1485POPC   C4A23346   9.658  19.613   7.493
 1485POPC   C1B23347  10.151  19.944   8.756
 1485POPC   C2B23348  10.051  19.900   8.350
 1485POPC   C3B23349  10.082  20.047   7.986
 1485POPC   C4B23350  10.076  19.943   7.594
 1486POPC   NC323351   6.409  33.447   9.488
 1486POPC   PO423352   6.846  32.900   9.545
 1486POPC   GL123353   6.692  33.100   9.203
 1486POPC   GL223354   6.342  32.977   9.150
 1486POPC   C1A23355   6.745  32.904   8.811
 1486POPC   D2A23356   6.561  32.752   8.471
 1486POPC   C3A23357   6.854  32.647   8.228
 1486POPC   C4A23358   7.056  32.804   7.898
 1486POPC   C1B23359   6.399  33.309   8.822
 1486POPC   C2B23360   6.292  33.547   8.454
 1486POPC   C3B23361   6.370  33.397   8.045
 1486POPC   C4B23362   6.603  33.058   7.838
 1487POPC   NC323363   3.631  23.308   9.577
 1487POPC   PO423364   3.246  22.810   9.576
 1487POPC   GL123365   3.466  22.958   9.214
 1487POPC   GL223366   3.202  23.187   9.168
 1487POPC   C1A23367   3.612  23.017   8.762
 1487POPC   D2A23368   3.702  22.817   8.335
 1487POPC   C3A23369   3.724  23.034   7.945
 1487POPC   C4A23370   3.899  22.999   7.536
 1487POPC   C1B23371   3.104  22.854   8.873
 1487POPC   C2B23372   3.215  22.906   8.471
 1487POPC   C3B23373   3.160  22.950   8.042
 1487POPC   C4B23374   3.315  23.155   7.673
 1488POPC   NC323375  13.761   0.308   9.555
 1488POPC   PO423376  13.067   0.389   9.759
 1488POPC   GL123377  13.306   0.480   9.313
 1488POPC   GL223378  13.428   0.195   9.170
 1488POPC   C1A23379  13.416   0.481   8.789
 1488POPC   D2A23380  13.731   0.548   8.457
 1488POPC   C3A23381  13.613   0.448   8.031
 1488POPC   C4A23382  13.296   0.314   7.737
 1488POPC   C1B23383  13.761   0.118   8.889
 1488POPC   C2B23384  13.875   0.026   8.485
 1488POPC   C3B23385  14.071   0.191   8.118
 1488POPC   C4B23386  13.958   0.281   7.699
 1489POPC   NC323387  29.438  36.047   9.595
 1489POPC   PO423388  28.734  36.241   9.450
 1489POPC   GL123389  29.095  36.157   9.158
 1489POPC   GL223390  29.411  36.322   9.176
 1489POPC   C1A23391  29.211  35.828   8.853
 1489POPC   D2A23392  29.059  35.816   8.444
 1489POPC   C3A23393  29.220  36.024   8.084
 1489POPC   C4A23394  29.015  36.238   7.756
 1489POPC   C1B23395  29.394  36.276   8.700
 1489POPC   C2B23396  29.504  36.398   8.300
 1489POPC   C3B23397  29.489  36.395   7.838
 1489POPC   C4B23398  29.533  36.087   7.525
 1490POPC   NC323399  28.070  28.577   9.472
 1490POPC   PO423400  28.502  28.175   9.783
 1490POPC   GL123401  28.453  28.266   9.293
 1490POPC   GL223402  28.422  28.601   9.094
 1490POPC   C1A23403  28.196  28.232   8.889
 1490POPC   D2A23404  28.308  28.348   8.490
 1490POPC   C3A23405  28.188  28.243   8.098
 1490POPC   C4A23406  28.410  28.156   7.716
 1490POPC   C1B23407  28.438  28.790   8.699
 1490POPC   C2B23408  28.153  28.815   8.330
 1490POPC   C3B23409  28.217  28.722   7.905
 1490POPC   C4B23410  28.454  28.624   7.500
 1491POPC   NC323411  36.378  10.027   9.269
 1491POPC   PO423412  36.154  10.528   9.756
 1491POPC   GL123413  36.021  10.521   9.260
 1491POPC   GL223414  35.993  10.854   9.092
 1491POPC   C1A23415  35.880  10.411   8.797
 1491POPC   D2A23416  35.795  10.294   8.328
 1491POPC   C3A23417  36.154  10.371   8.031
 1491POPC   C4A23418  36.334  10.419   7.615
 1491POPC   C1B23419  36.269  10.960   8.717
 1491POPC   C2B23420  36.229  10.874   8.255
 1491POPC   C3B23421  36.061  10.841   7.821
 1491POPC   C4B23422  35.776  10.987   7.446
 1492POPC   NC323423  38.387   1.334   9.616
 1492POPC   PO423424  39.026   1.458   9.321
 1492POPC   GL123425  38.642   1.510   9.128
 1492POPC   GL223426  38.556   1.172   9.157
 1492POPC   C1A23427  38.467   1.416   8.706
 1492POPC   D2A23428  38.360   1.586   8.314
 1492POPC   C3A23429  38.440   1.297   7.973
 1492POPC   C4A23430  38.642   1.275   7.561
 1492POPC   C1B23431  38.826   1.070   8.791
 1492POPC   C2B23432  38.688   1.000   8.353
 1492POPC   C3B23433  38.838   0.951   7.945
 1492POPC   C4B23434  38.743   0.774   7.539
 1493POPC   NC323435  39.556   6.763   9.770
 1493POPC   PO423436  39.169   6.428   9.332
 1493POPC   GL123437  39.132   6.785   9.114
 1493POPC   GL223438  39.434   6.930   9.013
 1493POPC   C1A23439  39.098   6.689   8.701
 1493POPC   D2A23440  39.270   6.383   8.449
 1493POPC   C3A23441  39.113   6.332   8.051
 1493POPC   C4A23442  39.273   6.540   7.683
 1493POPC   C1B23443  39.601   6.759   8.621
 1493POPC   C2B23444  39.496   6.753   8.166
 1493POPC   C3B23445  39.581   6.966   7.781
 1493POPC   C4B23446  39.396   6.986   7.361
 1494POPC   NC323447  37.027   9.293   9.472
 1494POPC   PO423448  37.049   8.556   9.457
 1494POPC   GL123449  36.989   8.837   9.143
 1494POPC   GL223450  36.669   9.000   9.182
 1494POPC   C1A23451  36.934   8.735   8.727
 1494POPC   D2A23452  36.822   8.817   8.297
 1494POPC   C3A23453  37.159   8.910   8.021
 1494POPC   C4A23454  37.319   8.804   7.613
 1494POPC   C1B23455  36.431   9.146   8.795
 1494POPC   C2B23456  36.564   9.256   8.374
 1494POPC   C3B23457  36.559   9.070   7.941
 1494POPC   C4B23458  36.491   9.399   7.728
 1495POPC   NC323459  18.427   0.826   9.625
 1495POPC   PO423460  17.980   1.217   9.561
 1495POPC   GL123461  18.162   1.257   9.182
 1495POPC   GL223462  18.428   0.995   9.135
 1495POPC   C1A23463  18.233   1.330   8.761
 1495POPC   D2A23464  18.340   1.028   8.466
 1495POPC   C3A23465  18.175   1.234   8.092
 1495POPC   C4A23466  18.020   1.180   7.679
 1495POPC   C1B23467  18.725   1.279   8.951
 1495POPC   C2B23468  18.771   1.374   8.513
 1495POPC   C3B23469  18.681   1.160   8.119
 1495POPC   C4B23470  18.500   1.369   7.736
 1496POPC   NC323471   5.500   9.731   9.607
 1496POPC   PO423472   6.084   9.454   9.537
 1496POPC   GL123473   5.850   9.707   9.227
 1496POPC   GL223474   6.033   9.998   9.102
 1496POPC   C1A23475   5.624   9.856   8.847
 1496POPC   D2A23476   5.802   9.782   8.463
 1496POPC   C3A23477   5.623   9.883   8.083
 1496POPC   C4A23478   5.862   9.844   7.703
 1496POPC   C1B23479   6.098  10.245   8.747
 1496POPC   C2B23480   5.998  10.239   8.320
 1496POPC   C3B23481   6.183  10.180   7.927
 1496POPC   C4B23482   6.317  10.049   7.495
 1497POPC   NC323483  41.887  14.667   9.437
 1497POPC   PO423484  42.564  14.392   9.453
 1497POPC   GL123485  42.370  14.360   9.092
 1497POPC   GL223486  42.108  14.138   9.107
 1497POPC   C1A23487  42.423  14.246   8.680
 1497POPC   D2A23488  42.281  14.496   8.333
 1497POPC   C3A23489  42.542  14.385   7.977
 1497POPC   C4A23490  42.646  14.409   7.538
 1497POPC   C1B23491  41.923  14.304   8.735
 1497POPC   C2B23492  41.807  14.216   8.302
 1497POPC   C3B23493  41.975  14.418   7.928
 1497POPC   C4B23494  42.135  14.290   7.534
 1498POPC   NC323495  14.940  28.546   9.470
 1498POPC   PO423496  15.488  28.225   9.313
 1498POPC   GL123497  15.303  28.561   9.061
 1498POPC   GL223498  15.017  28.445   8.903
 1498POPC   C1A23499  15.250  28.745   8.594
 1498POPC   D2A23500  15.035  28.443   8.297
 1498POPC   C3A23501  15.244  28.454   7.912
 1498POPC   C4A23502  15.315  28.629   7.497
 1498POPC   C1B23503  14.708  28.253   8.646
 1498POPC   C2B23504  14.646  28.043   8.306
 1498POPC   C3B23505  14.782  28.154   7.915
 1498POPC   C4B23506  15.034  28.118   7.546
 1499POPC   NC323507  11.903  28.951   9.537
 1499POPC   PO423508  12.420  29.429   9.354
 1499POPC   GL123509  12.309  29.024   9.187
 1499POPC   GL223510  12.012  29.097   9.038
 1499POPC   C1A23511  12.368  28.900   8.738
 1499POPC   D2A23512  12.070  28.878   8.361
 1499POPC   C3A23513  12.194  29.113   7.982
 1499POPC   C4A23514  12.560  28.894   7.918
 1499POPC   C1B23515  12.119  29.348   8.636
 1499POPC   C2B23516  11.824  29.330   8.283
 1499POPC   C3B23517  11.681  28.997   8.009
 1499POPC   C4B23518  11.775  29.266   7.700
 1500POPC   NC323519  21.163  43.601   9.444
 1500POPC   PO423520  21.560  44.132   9.641
 1500POPC   GL123521  21.556  43.944   9.230
 1500POPC   GL223522  21.226  44.009   9.117
 1500POPC   C1A23523  21.566  44.004   8.752
 1500POPC   D2A23524  21.290  44.202   8.402
 1500POPC   C3A23525  21.566  44.137   8.038
 1500POPC   C4A23526  21.564  43.735   7.927
 1500POPC   C1B23527  21.154  43.684   8.779
 1500POPC   C2B23528  21.028  43.403   8.445
 1500POPC   C3B23529  21.088  43.512   8.021
 1500POPC   C4B23530  21.080  43.940   7.951
 1501POPC   NC323531  11.104  25.412   9.727
 1501POPC   PO423532  11.613  24.937   9.535
 1501POPC   GL123533  11.459  25.339   9.334
 1501POPC   GL223534  11.529  25.150   9.064
 1501POPC   C1A23535  11.182  25.493   8.948
 1501POPC   D2A23536  11.222  25.644   8.502
 1501POPC   C3A23537  11.111  25.390   8.137
 1501POPC   C4A23538  11.259  25.235   7.752
 1501POPC   C1B23539  11.633  25.351   8.703
 1501POPC   C2B23540  11.738  25.575   8.341
 1501POPC   C3B23541  11.621  25.567   7.923
 1501POPC   C4B23542  11.520  25.588   7.496
 1502POPC   NC323543  10.802  37.086   9.358
 1502POPC   PO423544  10.117  37.198   9.414
 1502POPC   GL123545  10.356  37.119   9.097
 1502POPC   GL223546  10.397  36.772   9.198
 1502POPC   C1A23547  10.434  36.967   8.708
 1502POPC   D2A23548  10.242  36.731   8.394
 1502POPC   C3A23549  10.180  36.949   8.021
 1502POPC   C4A23550  10.483  36.943   7.729
 1502POPC   C1B23551  10.488  36.489   8.870
 1502POPC   C2B23552  10.723  36.596   8.498
 1502POPC   C3B23553  10.630  36.593   8.068
 1502POPC   C4B23554  10.891  36.644   7.671
 1503POPC   NC323555   7.038   7.635   9.267
 1503POPC   PO423556   6.521   7.099   9.238
 1503POPC   GL123557   6.534   7.512   9.095
 1503POPC   GL223558   6.799   7.457   8.859
 1503POPC   C1A23559   6.425   7.876   8.840
 1503POPC   D2A23560   6.341   7.862   8.386
 1503POPC   C3A23561   6.581   7.547   8.160
 1503POPC   C4A23562   6.553   7.374   7.766
 1503POPC   C1B23563   6.495   7.279   8.604
 1503POPC   C2B23564   6.386   6.950   8.332
 1503POPC   C3B23565   6.256   6.960   7.900
 1503POPC   C4B23566   6.206   6.863   7.462
 1504POPC   NC323567  31.885   1.587   9.512
 1504POPC   PO423568  31.236   1.275   9.518
 1504POPC   GL123569  31.478   1.462   9.221
 1504POPC   GL223570  31.721   1.264   9.073
 1504POPC   C1A23571  31.370   1.579   8.816
 1504POPC   D2A23572  31.150   1.417   8.478
 1504POPC   C3A23573  31.388   1.240   8.157
 1504POPC   C4A23574  31.305   1.225   7.700
 1504POPC   C1B23575  31.645   1.173   8.635
 1504POPC   C2B23576  31.679   0.850   8.324
 1504POPC   C3B23577  31.771   0.687   7.932
 1504POPC   C4B23578  31.525   0.781   7.596
 1505POPC   NC323579  44.026  20.879   9.515
 1505POPC   PO423580  43.972  20.234   9.386
 1505POPC   GL123581  44.058  20.572   9.105
 1505POPC   GL223582  43.784  20.858   9.072
 1505POPC   C1A23583  43.889  20.516   8.710
 1505POPC   D2A23584  43.750  20.719   8.340
 1505POPC   C3A23585  43.931  20.634   7.944
 1505POPC   C4A23586  44.124  20.291   7.701
 1505POPC   C1B23587  44.060  20.999   8.717
 1505POPC   C2B23588  44.155  21.037   8.259
 1505POPC   C3B23589  44.156  21.058   7.784
 1505POPC   C4B23590  43.817  20.927   7.449
 1506POPC   NC323591  40.318  13.991   9.361
 1506POPC   PO423592  39.814  14.467   9.492
 1506POPC   GL123593  39.919  14.305   9.139
 1506POPC   GL223594  40.220  14.439   9.101
 1506POPC   C1A23595  39.854  14.426   8.729
 1506POPC   D2A23596  40.069  14.524   8.364
 1506POPC   C3A23597  39.783  14.432   8.018
 1506POPC   C4A23598  39.823  14.261   7.606
 1506POPC   C1B23599  40.327  14.209   8.712
 1506POPC   C2B23600  40.445  14.036   8.304
 1506POPC   C3B23601  40.260  14.205   7.920
 1506POPC   C4B23602  40.358  14.494   7.573
 1507POPC   NC323603  11.446  10.399   9.605
 1507POPC   PO423604  10.792  10.499   9.494
 1507POPC   GL123605  11.166  10.556   9.209
 1507POPC   GL223606  11.378  10.885   9.281
 1507POPC   C1A23607  11.396  10.413   8.836
 1507POPC   D2A23608  11.229  10.261   8.422
 1507POPC   C3A23609  11.317  10.487   8.049
 1507POPC   C4A23610  11.524  10.424   7.668
 1507POPC   C1B23611  11.117  10.951   8.886
 1507POPC   C2B23612  11.045  10.766   8.467
 1507POPC   C3B23613  10.918  10.865   8.044
 1507POPC   C4B23614  11.122  10.808   7.679
 1508POPC   NC323615  13.389  27.484   9.331
 1508POPC   PO423616  13.943  27.808   9.534
 1508POPC   GL123617  13.788  27.769   9.087
 1508POPC   GL223618  13.607  28.044   8.954
 1508POPC   C1A23619  13.866  27.654   8.630
 1508POPC   D2A23620  13.634  27.374   8.327
 1508POPC   C3A23621  13.656  27.424   7.861
 1508POPC   C4A23622  13.931  27.147   7.595
 1508POPC   C1B23623  13.392  27.829   8.573
 1508POPC   C2B23624  13.505  27.835   8.128
 1508POPC   C3B23625  13.460  27.945   7.680
 1508POPC   C4B23626  13.284  27.899   7.249
 1509POPC   NC323627  27.373  44.513   9.682
 1509POPC   PO423628  27.842  44.969   9.463
 1509POPC   GL123629  27.551  44.720   9.235
 1509POPC   GL223630  27.578  44.333   9.254
 1509POPC   C1A23631  27.565  44.853   8.812
 1509POPC   D2A23632  27.682  44.814   8.420
 1509POPC   C3A23633  27.390  44.863   8.126
 1509POPC   C4A23634  27.466  44.783   7.738
 1509POPC   C1B23635  27.829  44.429   8.885
 1509POPC   C2B23636  27.915  44.364   8.482
 1509POPC   C3B23637  27.723  44.437   8.079
 1509POPC   C4B23638  27.852  44.456   7.691
 1510POPC   NC323639  10.047  40.180   9.564
 1510POPC   PO423640  10.638  39.938   9.471
 1510POPC   GL123641  10.556  39.861   9.070
 1510POPC   GL223642  10.290  40.079   9.092
 1510POPC   C1A23643  10.454  39.966   8.633
 1510POPC   D2A23644  10.286  40.239   8.428
 1510POPC   C3A23645  10.219  40.005   8.116
 1510POPC   C4A23646  10.323  40.030   7.704
 1510POPC   C1B23647  10.580  40.364   8.901
 1510POPC   C2B23648  10.755  40.434   8.495
 1510POPC   C3B23649  10.657  40.290   8.090
 1510POPC   C4B23650  10.850  40.084   7.768
 1511POPC   NC323651   8.543   5.928   9.526
 1511POPC   PO423652   7.879   5.722   9.498
 1511POPC   GL123653   8.045   5.978   9.219
 1511POPC   GL223654   8.271   5.754   9.063
 1511POPC   C1A23655   8.024   6.092   8.788
 1511POPC   D2A23656   8.230   5.832   8.503
 1511POPC   C3A23657   8.151   5.778   8.099
 1511POPC   C4A23658   7.973   6.050   7.811
 1511POPC   C1B23659   7.924   5.566   8.811
 1511POPC   C2B23660   7.881   5.407   8.387
 1511POPC   C3B23661   7.971   5.305   7.948
 1511POPC   C4B23662   7.921   5.589   7.570
 1512POPC   NC323663  25.934  29.404   9.630
 1512POPC   PO423664  25.880  28.745   9.622
 1512POPC   GL123665  26.020  29.044   9.258
 1512POPC   GL223666  25.850  29.382   9.132
 1512POPC   C1A23667  25.994  28.985   8.805
 1512POPC   D2A23668  25.898  29.097   8.369
 1512POPC   C3A23669  26.172  28.937   8.049
 1512POPC   C4A23670  26.123  28.928   7.617
 1512POPC   C1B23671  25.885  29.488   8.690
 1512POPC   C2B23672  25.868  29.626   8.257
 1512POPC   C3B23673  26.109  29.448   7.878
 1512POPC   C4B23674  25.996  29.382   7.428
 1513POPC   NC323675   7.928  33.185   9.511
 1513POPC   PO423676   8.447  32.701   9.379
 1513POPC   GL123677   8.204  32.938   9.118
 1513POPC   GL223678   8.388  33.254   9.073
 1513POPC   C1A23679   8.231  32.897   8.681
 1513POPC   D2A23680   8.405  33.133   8.368
 1513POPC   C3A23681   8.330  32.926   7.994
 1513POPC   C4A23682   8.276  33.079   7.595
 1513POPC   C1B23683   8.020  33.340   8.803
 1513POPC   C2B23684   7.888  33.189   8.382
 1513POPC   C3B23685   7.971  33.325   7.950
 1513POPC   C4B23686   7.828  33.275   7.466
 1514POPC   NC323687  16.513  10.702   9.469
 1514POPC   PO423688  17.136  10.360   9.579
 1514POPC   GL123689  16.885  10.455   9.204
 1514POPC   GL223690  17.074  10.181   9.085
 1514POPC   C1A23691  16.606  10.554   8.835
 1514POPC   D2A23692  16.573  10.419   8.398
 1514POPC   C3A23693  16.355  10.696   8.119
 1514POPC   C4A23694  16.322  10.522   7.716
 1514POPC   C1B23695  17.014  10.283   8.676
 1514POPC   C2B23696  17.067  10.043   8.294
 1514POPC   C3B23697  16.950  10.136   7.898
 1514POPC   C4B23698  16.800  10.567   7.873
 1515POPC   NC323699   7.191   7.699   9.800
 1515POPC   PO423700   7.441   7.838   9.169
 1515POPC   GL123701   7.287   8.249   9.076
 1515POPC   GL223702   7.599   8.413   9.128
 1515POPC   C1A23703   7.294   8.432   8.659
 1515POPC   D2A23704   7.567   8.434   8.284
 1515POPC   C3A23705   7.383   8.110   8.032
 1515POPC   C4A23706   7.213   8.181   7.668
 1515POPC   C1B23707   7.766   8.249   8.745
 1515POPC   C2B23708   7.659   7.954   8.446
 1515POPC   C3B23709   7.818   7.843   8.021
 1515POPC   C4B23710   7.648   7.856   7.622
 1516POPC   NC323711   6.724   6.779   9.528
 1516POPC   PO423712   7.208   7.300   9.551
 1516POPC   GL123713   7.016   6.986   9.160
 1516POPC   GL223714   6.938   6.585   9.098
 1516POPC   C1A23715   6.818   6.872   8.709
 1516POPC   D2A23716   6.990   6.711   8.314
 1516POPC   C3A23717   6.708   6.721   7.971
 1516POPC   C4A23718   6.395   6.415   7.813
 1516POPC   C1B23719   7.106   6.259   8.797
 1516POPC   C2B23720   7.216   6.214   8.354
 1516POPC   C3B23721   6.941   6.256   7.972
 1516POPC   C4B23722   6.916   6.472   7.571
 1517POPC   NC323723  21.358   4.827   9.617
 1517POPC   PO423724  21.394   5.462   9.526
 1517POPC   GL123725  21.609   5.236   9.165
 1517POPC   GL223726  21.631   4.872   9.204
 1517POPC   C1A23727  21.560   5.343   8.710
 1517POPC   D2A23728  21.166   5.289   8.419
 1517POPC   C3A23729  21.336   5.219   7.980
 1517POPC   C4A23730  21.628   5.476   7.729
 1517POPC   C1B23731  21.342   4.920   8.849
 1517POPC   C2B23732  21.453   4.885   8.408
 1517POPC   C3B23733  21.607   4.801   8.002
 1517POPC   C4B23734  21.500   4.963   7.554
 1518POPC   NC323735  31.777  19.275   9.527
 1518POPC   PO423736  31.219  18.993   9.619
 1518POPC   GL123737  31.561  18.919   9.210
 1518POPC   GL223738  31.762  19.157   9.038
 1518POPC   C1A23739  31.537  18.722   8.814
 1518POPC   D2A23740  31.280  18.791   8.435
 1518POPC   C3A23741  31.445  19.098   8.145
 1518POPC   C4A23742  31.264  19.279   7.777
 1518POPC   C1B23743  31.716  19.139   8.594
 1518POPC   C2B23744  31.780  18.746   8.370
 1518POPC   C3B23745  31.740  18.693   7.965
 1518POPC   C4B23746  31.732  19.034   7.718
 1519POPC   NC323747  27.187  26.592   9.552
 1519POPC   PO423748  26.751  27.090   9.537
 1519POPC   GL123749  26.675  26.772   9.238
 1519POPC   GL223750  26.614  27.016   8.987
 1519POPC   C1A23751  26.913  26.605   8.892
 1519POPC   D2A23752  26.868  26.860   8.542
 1519POPC   C3A23753  26.721  26.766   8.133
 1519POPC   C4A23754  26.985  26.595   7.818
 1519POPC   C1B23755  26.960  27.273   8.863
 1519POPC   C2B23756  27.170  27.288   8.477
 1519POPC   C3B23757  27.087  27.111   8.098
 1519POPC   C4B23758  27.142  27.095   7.687
 1520POPC   NC323759  30.475  32.182   9.577
 1520POPC   PO423760  31.189  32.252   9.536
 1520POPC   GL123761  30.894  31.963   9.253
 1520POPC   GL223762  30.502  31.859   9.186
 1520POPC   C1A23763  30.826  31.981   8.800
 1520POPC   D2A23764  30.696  32.373   8.548
 1520POPC   C3A23765  30.779  32.320   8.103
 1520POPC   C4A23766  30.764  32.080   7.718
 1520POPC   C1B23767  30.319  31.917   8.767
 1520POPC   C2B23768  30.523  31.908   8.347
 1520POPC   C3B23769  30.315  32.030   7.958
 1520POPC   C4B23770  30.203  32.347   7.670
 1521POPC   NC323771  40.473  21.037   9.372
 1521POPC   PO423772  40.494  21.751   9.449
 1521POPC   GL123773  40.778  21.558   9.112
 1521POPC   GL223774  40.893  21.219   9.051
 1521POPC   C1A23775  40.995  21.659   8.723
 1521POPC   D2A23776  41.039  21.605   8.265
 1521POPC   C3A23777  40.879  21.288   8.000
 1521POPC   C4A23778  41.142  21.020   7.785
 1521POPC   C1B23779  40.590  21.330   8.698
 1521POPC   C2B23780  40.430  21.350   8.277
 1521POPC   C3B23781  40.402  21.301   7.809
 1521POPC   C4B23782  40.653  21.273   7.450
 1522POPC   NC323783  23.814  43.712   9.407
 1522POPC   PO423784  23.286  43.933   9.674
 1522POPC   GL123785  23.361  43.882   9.196
 1522POPC   GL223786  23.622  44.104   9.165
 1522POPC   C1A23787  23.623  43.775   8.754
 1522POPC   D2A23788  23.820  43.916   8.324
 1522POPC   C3A23789  23.857  44.089   7.890
 1522POPC   C4A23790  23.725  43.816   7.558
 1522POPC   C1B23791  23.437  44.242   8.814
 1522POPC   C2B23792  23.626  44.362   8.463
 1522POPC   C3B23793  23.572  44.468   8.092
 1522POPC   C4B23794  23.415  44.483   7.707
 1523POPC   NC323795  24.079  35.443   9.460
 1523POPC   PO423796  23.643  34.999   9.684
 1523POPC   GL123797  23.572  35.183   9.251
 1523POPC   GL223798  23.384  34.945   9.067
 1523POPC   C1A23799  23.719  35.256   8.805
 1523POPC   D2A23800  23.962  35.319   8.410
 1523POPC   C3A23801  23.726  35.571   8.099
 1523POPC   C4A23802  23.617  35.574   7.678
 1523POPC   C1B23803  23.469  34.854   8.654
 1523POPC   C2B23804  23.516  35.115   8.294
 1523POPC   C3B23805  23.728  35.097   7.896
 1523POPC   C4B23806  23.601  35.130   7.447
 1524POPC   NC323807   0.670  24.228   9.570
 1524POPC   PO423808   0.094  23.788   9.606
 1524POPC   GL123809   0.052  23.645   9.136
 1524POPC   GL223810   0.332  23.825   9.106
 1524POPC   C1A23811   0.172  23.617   8.669
 1524POPC   D2A23812   0.543  23.418   8.437
 1524POPC   C3A23813   0.484  23.366   7.985
 1524POPC   C4A23814   0.196  23.644   7.832
 1524POPC   C1B23815   0.643  23.828   8.773
 1524POPC   C2B23816   0.744  24.004   8.370
 1524POPC   C3B23817   0.643  23.866   7.951
 1524POPC   C4B23818   0.503  23.957   7.512
 1525POPC   NC323819  24.264  24.650   9.486
 1525POPC   PO423820  24.877  24.616   9.414
 1525POPC   GL123821  24.580  24.601   9.095
 1525POPC   GL223822  24.463  24.936   9.095
 1525POPC   C1A23823  24.348  24.602   8.693
 1525POPC   D2A23824  24.210  24.573   8.245
 1525POPC   C3A23825  24.517  24.419   7.939
 1525POPC   C4A23826  24.663  24.410   7.487
 1525POPC   C1B23827  24.730  24.944   8.750
 1525POPC   C2B23828  24.682  24.768   8.317
 1525POPC   C3B23829  24.663  24.905   7.861
 1525POPC   C4B23830  24.780  24.909   7.419
 1526POPC   NC323831  25.466   1.444   9.468
 1526POPC   PO423832  24.941   1.092   9.503
 1526POPC   GL123833  25.162   1.233   9.124
 1526POPC   GL223834  25.541   1.194   9.043
 1526POPC   C1A23835  25.208   1.445   8.745
 1526POPC   D2A23836  25.458   1.266   8.420
 1526POPC   C3A23837  25.345   1.377   8.007
 1526POPC   C4A23838  25.113   1.333   7.639
 1526POPC   C1B23839  25.801   0.997   8.750
 1526POPC   C2B23840  25.725   0.820   8.359
 1526POPC   C3B23841  25.734   1.040   7.986
 1526POPC   C4B23842  25.613   1.184   7.566
 1527POPC   NC323843   5.163  17.350   9.682
 1527POPC   PO423844   4.701  17.726   9.341
 1527POPC   GL123845   4.969  17.451   9.175
 1527POPC   GL223846   5.207  17.700   9.126
 1527POPC   C1A23847   5.097  17.435   8.735
 1527POPC   D2A23848   5.126  17.717   8.388
 1527POPC   C3A23849   4.964  17.631   7.981
 1527POPC   C4A23850   5.097  17.335   7.683
 1527POPC   C1B23851   5.485  17.785   8.791
 1527POPC   C2B23852   5.543  17.975   8.379
 1527POPC   C3B23853   5.479  17.762   7.981
 1527POPC   C4B23854   5.260  17.817   7.591
 1528POPC   NC323855   0.645  18.339   9.431
 1528POPC   PO423856   0.007  18.296   9.590
 1528POPC   GL123857   0.213  18.215   9.175
 1528POPC   GL223858   0.488  17.954   9.130
 1528POPC   C1A23859   0.281  18.358   8.749
 1528POPC   D2A23860   0.105  18.320   8.372
 1528POPC   C3A23861   0.305  18.211   8.043
 1528POPC   C4A23862   0.149  18.500   7.743
 1528POPC   C1B23863   0.749  18.173   8.772
 1528POPC   C2B23864   0.677  18.396   8.342
 1528POPC   C3B23865   0.724  18.401   7.857
 1528POPC   C4B23866   0.815  18.096   7.519
 1529POPC   NC323867  20.823   6.299   9.450
 1529POPC   PO423868  20.440   6.772   9.647
 1529POPC   GL123869  20.549   6.715   9.228
 1529POPC   GL223870  20.903   6.801   9.224
 1529POPC   C1A23871  20.382   6.591   8.823
 1529POPC   D2A23872  20.363   6.770   8.412
 1529POPC   C3A23873  20.576   6.574   8.066
 1529POPC   C4A23874  20.420   6.639   7.664
 1529POPC   C1B23875  20.897   6.683   8.807
 1529POPC   C2B23876  20.893   6.880   8.421
 1529POPC   C3B23877  20.938   6.945   7.995
 1529POPC   C4B23878  20.912   6.672   7.624
 1530POPC   NC323879  40.096  11.048   9.626
 1530POPC   PO423880  39.727  11.527   9.367
 1530POPC   GL123881  39.597  11.476   8.953
 1530POPC   GL223882  39.786  11.177   8.881
 1530POPC   C1A23883  39.767  11.526   8.511
 1530POPC   D2A23884  40.047  11.254   8.259
 1530POPC   C3A23885  40.048  11.292   7.843
 1530POPC   C4A23886  39.750  11.563   7.706
 1530POPC   C1B23887  40.210  11.141   8.723
 1530POPC   C2B23888  40.338  10.861   8.373
 1530POPC   C3B23889  40.288  10.847   7.926
 1530POPC   C4B23890  40.163  10.972   7.467
 1531POPC   NC323891  38.644  36.095   9.854
 1531POPC   PO423892  38.042  36.174   9.602
 1531POPC   GL123893  38.291  36.011   9.248
 1531POPC   GL223894  38.643  36.137   9.272
 1531POPC   C1A23895  38.479  35.808   8.883
 1531POPC   D2A23896  38.576  36.001   8.485
 1531POPC   C3A23897  38.478  35.861   8.094
 1531POPC   C4A23898  38.638  35.742   7.723
 1531POPC   C1B23899  38.531  36.328   8.876
 1531POPC   C2B23900  38.581  36.528   8.503
 1531POPC   C3B23901  38.510  36.377   8.118
 1531POPC   C4B23902  38.599  36.259   7.725
 1532POPC   NC323903  38.752  17.330   9.497
 1532POPC   PO423904  39.377  17.751   9.522
 1532POPC   GL123905  39.344  17.599   9.124
 1532POPC   GL223906  38.990  17.556   9.096
 1532POPC   C1A23907  39.290  17.725   8.695
 1532POPC   D2A23908  39.100  17.559   8.326
 1532POPC   C3A23909  39.372  17.455   7.982
 1532POPC   C4A23910  39.446  17.619   7.569
 1532POPC   C1B23911  39.126  17.226   8.799
 1532POPC   C2B23912  39.097  17.041   8.396
 1532POPC   C3B23913  38.936  17.172   8.021
 1532POPC   C4B23914  39.086  17.216   7.632
 1533POPC   NC323915  21.825  28.196   9.265
 1533POPC   PO423916  22.399  28.289   9.501
 1533POPC   GL123917  22.284  28.374   9.096
 1533POPC   GL223918  21.973  28.553   8.943
 1533POPC   C1A23919  22.355  28.311   8.667
 1533POPC   D2A23920  22.063  28.559   8.450
 1533POPC   C3A23921  21.913  28.389   8.112
 1533POPC   C4A23922  22.059  28.440   7.690
 1533POPC   C1B23923  21.857  28.131   8.638
 1533POPC   C2B23924  21.706  27.910   8.236
 1533POPC   C3B23925  21.742  28.044   7.781
 1533POPC   C4B23926  21.578  28.393   7.495
 1534POPC   NC323927   1.248  27.273   9.462
 1534POPC   PO423928   1.020  27.821   9.358
 1534POPC   GL123929   1.113  27.554   9.054
 1534POPC   GL223930   1.335  27.775   8.890
 1534POPC   C1A23931   0.972  27.470   8.674
 1534POPC   D2A23932   1.130  27.406   8.284
 1534POPC   C3A23933   1.194  27.680   7.965
 1534POPC   C4A23934   1.207  27.359   7.663
 1534POPC   C1B23935   1.502  27.418   8.661
 1534POPC   C2B23936   1.604  27.198   8.270
 1534POPC   C3B23937   1.682  27.439   7.869
 1534POPC   C4B23938   1.530  27.734   7.523
 1535POPC   NC323939  39.951  24.650   9.328
 1535POPC   PO423940  40.225  24.113   9.568
 1535POPC   GL123941  40.069  24.165   9.133
 1535POPC   GL223942  39.766  24.327   9.002
 1535POPC   C1A23943  40.150  24.343   8.691
 1535POPC   D2A23944  40.049  24.210   8.254
 1535POPC   C3A23945  40.252  24.410   7.886
 1535POPC   C4A23946  40.263  24.318   7.405
 1535POPC   C1B23947  39.552  24.600   8.729
 1535POPC   C2B23948  39.610  24.558   8.298
 1535POPC   C3B23949  39.749  24.457   7.900
 1535POPC   C4B23950  39.953  24.681   7.550
 1536POPC   NC323951  18.913  28.678   9.567
 1536POPC   PO423952  19.293  29.227   9.665
 1536POPC   GL123953  19.246  29.008   9.275
 1536POPC   GL223954  18.901  28.977   9.102
 1536POPC   C1A23955  19.352  29.071   8.846
 1536POPC   D2A23956  19.164  29.141   8.435
 1536POPC   C3A23957  19.396  28.944   8.088
 1536POPC   C4A23958  19.223  28.874   7.637
 1536POPC   C1B23959  18.645  28.864   8.718
 1536POPC   C2B23960  18.796  28.754   8.296
 1536POPC   C3B23961  18.901  29.022   7.978
 1536POPC   C4B23962  18.778  29.404   7.781
 1537POPC   NC323963  43.050  12.339   9.485
 1537POPC   PO423964  42.780  11.816   9.693
 1537POPC   GL123965  42.981  11.906   9.222
 1537POPC   GL223966  43.262  12.157   9.081
 1537POPC   C1A23967  42.873  12.100   8.790
 1537POPC   D2A23968  43.076  12.224   8.415
 1537POPC   C3A23969  42.873  12.045   8.078
 1537POPC   C4A23970  42.820  12.019   7.675
 1537POPC   C1B23971  43.320  11.812   8.810
 1537POPC   C2B23972  43.474  11.855   8.396
 1537POPC   C3B23973  43.499  12.194   8.107
 1537POPC   C4B23974  43.275  12.206   7.758
 1538POPC   NC323975  43.599   6.707   9.402
 1538POPC   PO423976  43.992   6.200   9.472
 1538POPC   GL123977  44.029   6.557   9.170
 1538POPC   GL223978  44.246   6.859   9.218
 1538POPC   C1A23979  43.891   6.830   8.816
 1538POPC   D2A23980  43.835   6.734   8.424
 1538POPC   C3A23981  43.644   6.935   8.098
 1538POPC   C4A23982  43.691   6.720   7.705
 1538POPC   C1B23983  44.379   6.634   8.812
 1538POPC   C2B23984  44.314   6.467   8.393
 1538POPC   C3B23985  44.113   6.630   8.005
 1538POPC   C4B23986  44.182   6.570   7.566
 1539POPC   NC323987  31.909  10.530   9.424
 1539POPC   PO423988  31.382  10.170   9.784
 1539POPC   GL123989  31.317  10.386   9.287
 1539POPC   GL223990  31.527  10.622   9.123
 1539POPC   C1A23991  31.240  10.384   8.790
 1539POPC   D2A23992  31.432  10.335   8.364
 1539POPC   C3A23993  31.250  10.450   7.977
 1539POPC   C4A23994  31.097  10.122   7.735
 1539POPC   C1B23995  31.688  10.712   8.701
 1539POPC   C2B23996  31.693  10.758   8.240
 1539POPC   C3B23997  31.801  10.448   7.960
 1539POPC   C4B23998  32.023  10.477   7.561
 1540POPC   NC323999  11.832  24.377   9.574
 1540POPC   PO424000  12.317  24.754   9.614
 1540POPC   GL124001  12.262  24.414   9.270
 1540POPC   GL224002  11.947  24.523   9.102
 1540POPC   C1A24003  12.249  24.221   8.844
 1540POPC   D2A24004  12.150  24.441   8.474
 1540POPC   C3A24005  12.218  24.284   8.054
 1540POPC   C4A24006  12.285  24.541   7.720
 1540POPC   C1B24007  11.737  24.248   8.779
 1540POPC   C2B24008  11.814  24.095   8.336
 1540POPC   C3B24009  11.728  24.276   7.967
 1540POPC   C4B24010  11.802  24.045   7.618
 1541POPC   NC324011  16.419  21.997   9.730
 1541POPC   PO424012  16.544  22.506   9.276
 1541POPC   GL124013  16.854  22.308   9.057
 1541POPC   GL224014  17.048  22.046   9.248
 1541POPC   C1A24015  16.692  22.257   8.662
 1541POPC   D2A24016  16.425  21.990   8.430
 1541POPC   C3A24017  16.428  22.135   8.024
 1541POPC   C4A24018  16.762  22.252   7.708
 1541POPC   C1B24019  17.138  21.932   8.802
 1541POPC   C2B24020  16.969  21.986   8.357
 1541POPC   C3B24021  16.929  21.822   7.962
 1541POPC   C4B24022  16.949  21.829   7.519
 1542POPC   NC324023   1.376  23.523   9.510
 1542POPC   PO424024   0.733  23.765   9.436
 1542POPC   GL124025   1.015  23.654   9.072
 1542POPC   GL224026   1.360  23.770   9.067
 1542POPC   C1A24027   1.128  23.734   8.608
 1542POPC   D2A24028   1.265  24.035   8.279
 1542POPC   C3A24029   1.118  24.059   7.896
 1542POPC   C4A24030   1.021  23.733   7.656
 1542POPC   C1B24031   1.410  23.365   8.865
 1542POPC   C2B24032   1.290  23.269   8.456
 1542POPC   C3B24033   1.232  23.538   8.104
 1542POPC   C4B24034   1.440  23.467   7.722
 1543POPC   NC324035  34.991  24.251   9.575
 1543POPC   PO424036  35.392  24.761   9.435
 1543POPC   GL124037  35.504  24.620   9.018
 1543POPC   GL224038  35.350  24.933   8.874
 1543POPC   C1A24039  35.448  24.213   8.787
 1543POPC   D2A24040  35.343  24.132   8.365
 1543POPC   C3A24041  35.406  24.470   8.080
 1543POPC   C4A24042  35.626  24.239   7.796
 1543POPC   C1B24043  35.186  24.601   8.571
 1543POPC   C2B24044  34.913  24.383   8.246
 1543POPC   C3B24045  34.942  24.504   7.810
 1543POPC   C4B24046  35.291  24.699   7.601
 1544POPC   NC324047  10.293  17.622   9.495
 1544POPC   PO424048  10.652  17.011   9.545
 1544POPC   GL124049  10.674  17.375   9.222
 1544POPC   GL224050  10.354  17.408   9.057
 1544POPC   C1A24051  10.721  17.663   8.819
 1544POPC   D2A24052  10.546  17.752   8.393
 1544POPC   C3A24053  10.691  17.719   7.926
 1544POPC   C4A24054  10.405  17.713   7.546
 1544POPC   C1B24055  10.200  17.195   8.742
 1544POPC   C2B24056  10.368  17.073   8.352
 1544POPC   C3B24057  10.411  17.303   7.991
 1544POPC   C4B24058  10.056  17.264   7.758
 1545POPC   NC324059  41.661  34.000   9.483
 1545POPC   PO424060  41.299  33.460   9.425
 1545POPC   GL124061  41.360  33.761   9.123
 1545POPC   GL224062  41.195  33.558   8.915
 1545POPC   C1A24063  41.406  34.014   8.738
 1545POPC   D2A24064  41.375  33.931   8.290
 1545POPC   C3A24065  41.488  34.159   7.904
 1545POPC   C4A24066  41.539  34.064   7.457
 1545POPC   C1B24067  41.599  33.542   8.700
 1545POPC   C2B24068  41.629  33.480   8.280
 1545POPC   C3B24069  41.600  33.667   7.924
 1545POPC   C4B24070  41.716  33.556   7.588
 1546POPC   NC324071   0.054   3.871   9.400
 1546POPC   PO424072  44.571   3.334   9.500
 1546POPC   GL124073  44.468   3.364   9.126
 1546POPC   GL224074  44.676   3.651   9.077
 1546POPC   C1A24075  44.637   3.243   8.739
 1546POPC   D2A24076  44.657   3.428   8.340
 1546POPC   C3A24077  44.447   3.302   7.970
 1546POPC   C4A24078  44.615   3.426   7.554
 1546POPC   C1B24079  44.779   3.873   8.713
 1546POPC   C2B24080  44.909   3.966   8.297
 1546POPC   C3B24081  44.933   3.681   7.961
 1546POPC   C4B24082   0.092   3.720   7.517
 1547POPC   NC324083   2.354  35.940   9.757
 1547POPC   PO424084   2.842  36.317   9.564
 1547POPC   GL124085   3.036  36.167   9.220
 1547POPC   GL224086   2.753  36.276   9.045
 1547POPC   C1A24087   3.155  36.167   8.789
 1547POPC   D2A24088   2.981  36.348   8.423
 1547POPC   C3A24089   3.051  36.162   8.036
 1547POPC   C4A24090   3.198  36.384   7.719
 1547POPC   C1B24091   2.669  36.017   8.669
 1547POPC   C2B24092   2.528  36.195   8.265
 1547POPC   C3B24093   2.592  36.340   7.869
 1547POPC   C4B24094   2.350  36.162   7.530
 1548POPC   NC324095  22.588   3.403   9.746
 1548POPC   PO424096  21.965   3.593   9.515
 1548POPC   GL124097  22.075   3.636   9.086
 1548POPC   GL224098  21.845   3.943   9.063
 1548POPC   C1A24099  22.249   3.402   8.689
 1548POPC   D2A24100  22.147   3.141   8.323
 1548POPC   C3A24101  22.093   3.313   7.901
 1548POPC   C4A24102  22.418   3.623   7.872
 1548POPC   C1B24103  21.874   3.747   8.635
 1548POPC   C2B24104  22.070   3.718   8.248
 1548POPC   C3B24105  21.923   3.788   7.832
 1548POPC   C4B24106  21.728   3.835   7.390
 1549POPC   NC324107  44.966  21.215   9.580
 1549POPC   PO424108  44.401  21.624   9.527
 1549POPC   GL124109  44.606  21.400   9.197
 1549POPC   GL224110  44.627  21.655   8.974
 1549POPC   C1A24111  44.541  21.173   8.790
 1549POPC   D2A24112  44.644  20.987   8.397
 1549POPC   C3A24113  44.593  21.221   8.040
 1549POPC   C4A24114  44.652  21.115   7.615
 1549POPC   C1B24115  44.972  21.433   8.813
 1549POPC   C2B24116  44.828  21.484   8.422
 1549POPC   C3B24117   0.001  21.551   8.035
 1549POPC   C4B24118  44.910  21.574   7.610
 1550POPC   NC324119  26.612  25.745   9.545
 1550POPC   PO424120  26.788  26.368   9.534
 1550POPC   GL124121  26.599  26.169   9.172
 1550POPC   GL224122  26.872  25.946   9.163
 1550POPC   C1A24123  26.711  26.157   8.727
 1550POPC   D2A24124  26.915  26.362   8.387
 1550POPC   C3A24125  26.693  26.224   8.035
 1550POPC   C4A24126  26.607  25.969   7.697
 1550POPC   C1B24127  27.105  25.812   8.811
 1550POPC   C2B24128  26.982  25.852   8.406
 1550POPC   C3B24129  26.991  25.785   7.986
 1550POPC   C4B24130  27.159  26.113   7.777
 1551POPC   NC324131  14.991   8.387   9.518
 1551POPC   PO424132  15.494   8.003   9.436
 1551POPC   GL124133  15.265   8.053   9.066
 1551POPC   GL224134  15.170   8.387   9.036
 1551POPC   C1A24135  15.342   7.997   8.604
 1551POPC   D2A24136  15.355   7.840   8.182
 1551POPC   C3A24137  15.329   8.204   7.897
 1551POPC   C4A24138  15.325   8.620   7.683
 1551POPC   C1B24139  14.909   8.245   8.685
 1551POPC   C2B24140  14.913   8.122   8.238
 1551POPC   C3B24141  14.801   8.197   7.827
 1551POPC   C4B24142  14.831   8.551   7.580
 1552POPC   NC324143  18.789   7.329   9.530
 1552POPC   PO424144  18.722   8.009   9.405
 1552POPC   GL124145  18.902   7.669   9.140
 1552POPC   GL224146  19.122   7.847   8.967
 1552POPC   C1A24147  18.994   7.390   8.763
 1552POPC   D2A24148  18.794   7.334   8.355
 1552POPC   C3A24149  18.969   7.402   7.956
 1552POPC   C4A24150  19.134   7.131   7.678
 1552POPC   C1B24151  19.312   7.830   8.601
 1552POPC   C2B24152  19.292   7.516   8.345
 1552POPC   C3B24153  19.473   7.287   8.042
 1552POPC   C4B24154  19.449   7.576   7.710
 1553POPC   NC324155  39.568  35.536   9.584
 1553POPC   PO424156  40.247  35.524   9.541
 1553POPC   GL124157  39.917  35.346   9.260
 1553POPC   GL224158  39.693  35.611   9.094
 1553POPC   C1A24159  39.863  35.168   8.860
 1553POPC   D2A24160  40.118  35.114   8.485
 1553POPC   C3A24161  39.935  35.362   8.140
 1553POPC   C4A24162  39.777  35.235   7.770
 1553POPC   C1B24163  39.452  35.810   8.749
 1553POPC   C2B24164  39.507  35.631   8.307
 1553POPC   C3B24165  39.525  35.662   7.846
 1553POPC   C4B24166  39.844  35.625   7.460
 1554POPC   NC324167  19.983   9.333   9.411
 1554POPC   PO424168  19.904   9.958   9.420
 1554POPC   GL124169  19.883   9.725   9.098
 1554POPC   GL224170  19.574   9.561   9.114
 1554POPC   C1A24171  19.919   9.753   8.704
 1554POPC   D2A24172  19.807   9.914   8.322
 1554POPC   C3A24173  20.066   9.931   7.985
 1554POPC   C4A24174  20.027   9.767   7.601
 1554POPC   C1B24175  19.670   9.309   8.746
 1554POPC   C2B24176  19.870   9.400   8.347
 1554POPC   C3B24177  19.759   9.516   7.939
 1554POPC   C4B24178  19.688   9.360   7.510
 1555POPC   NC324179  37.551  25.818   9.440
 1555POPC   PO424180  37.905  26.358   9.753
 1555POPC   GL124181  37.966  26.064   9.304
 1555POPC   GL224182  37.663  26.203   9.114
 1555POPC   C1A24183  38.035  26.006   8.793
 1555POPC   D2A24184  37.951  26.162   8.314
 1555POPC   C3A24185  37.760  25.894   7.908
 1555POPC   C4A24186  37.777  26.036   7.462
 1555POPC   C1B24187  37.515  25.953   8.745
 1555POPC   C2B24188  37.461  26.014   8.310
 1555POPC   C3B24189  37.464  26.291   7.936
 1555POPC   C4B24190  37.289  26.192   7.488
 1556POPC   NC324191  32.309  33.168   9.410
 1556POPC   PO424192  32.130  32.582   9.617
 1556POPC   GL124193  32.190  32.716   9.178
 1556POPC   GL224194  31.931  32.986   9.107
 1556POPC   C1A24195  32.365  32.777   8.746
 1556POPC   D2A24196  32.594  32.689   8.350
 1556POPC   C3A24197  32.357  32.850   7.985
 1556POPC   C4A24198  32.508  33.201   7.767
 1556POPC   C1B24199  32.024  33.183   8.714
 1556POPC   C2B24200  32.008  32.993   8.316
 1556POPC   C3B24201  31.891  33.044   7.858
 1556POPC   C4B24202  31.650  33.097   7.464
 1557POPC   NC324203   4.231  32.702   9.793
 1557POPC   PO424204   4.564  33.164   9.507
 1557POPC   GL124205   4.501  33.000   9.099
 1557POPC   GL224206   4.204  32.869   9.121
 1557POPC   C1A24207   4.437  33.152   8.695
 1557POPC   D2A24208   4.298  33.173   8.284
 1557POPC   C3A24209   4.555  33.153   7.913
 1557POPC   C4A24210   4.288  33.300   7.548
 1557POPC   C1B24211   4.217  32.671   8.712
 1557POPC   C2B24212   4.057  32.713   8.274
 1557POPC   C3B24213   4.158  32.851   7.854
 1557POPC   C4B24214   4.413  32.834   7.455
 1558POPC   NC324215  42.760  26.728   9.578
 1558POPC   PO424216  43.458  26.771   9.406
 1558POPC   GL124217  43.116  26.667   9.168
 1558POPC   GL224218  42.990  27.000   9.207
 1558POPC   C1A24219  43.004  26.776   8.739
 1558POPC   D2A24220  42.779  26.777   8.348
 1558POPC   C3A24221  43.003  26.635   7.965
 1558POPC   C4A24222  43.248  26.574   7.575
 1558POPC   C1B24223  42.965  27.276   8.867
 1558POPC   C2B24224  43.161  27.250   8.469
 1558POPC   C3B24225  43.001  27.137   8.087
 1558POPC   C4B24226  43.136  27.072   7.687
 1559POPC   NC324227  41.599  12.700   9.510
 1559POPC   PO424228  41.363  13.339   9.367
 1559POPC   GL124229  41.468  13.011   9.084
 1559POPC   GL224230  41.344  12.660   9.070
 1559POPC   C1A24231  41.561  12.946   8.663
 1559POPC   D2A24232  41.571  12.708   8.297
 1559POPC   C3A24233  41.615  12.931   7.918
 1559POPC   C4A24234  41.441  13.320   7.802
 1559POPC   C1B24235  41.256  12.439   8.678
 1559POPC   C2B24236  41.154  12.406   8.231
 1559POPC   C3B24237  41.499  12.378   7.900
 1559POPC   C4B24238  41.672  12.561   7.553
 1560POPC   NC324239  22.468   5.972   9.451
 1560POPC   PO424240  21.906   6.261   9.755
 1560POPC   GL124241  21.907   6.047   9.305
 1560POPC   GL224242  22.080   5.739   9.187
 1560POPC   C1A24243  21.998   6.115   8.826
 1560POPC   D2A24244  22.222   6.051   8.457
 1560POPC   C3A24245  21.937   5.855   8.140
 1560POPC   C4A24246  21.954   5.921   7.696
 1560POPC   C1B24247  22.092   5.623   8.730
 1560POPC   C2B24248  22.331   5.574   8.314
 1560POPC   C3B24249  22.396   5.808   7.927
 1560POPC   C4B24250  22.312   5.542   7.564
 1561POPC   NC324251  23.449  16.746   9.469
 1561POPC   PO424252  24.100  16.808   9.403
 1561POPC   GL124253  23.926  16.567   9.081
 1561POPC   GL224254  23.684  16.831   9.025
 1561POPC   C1A24255  23.835  16.580   8.623
 1561POPC   D2A24256  23.896  16.780   8.263
 1561POPC   C3A24257  23.742  16.515   7.923
 1561POPC   C4A24258  23.932  16.519   7.501
 1561POPC   C1B24259  23.766  17.100   8.668
 1561POPC   C2B24260  23.630  17.207   8.235
 1561POPC   C3B24261  23.748  16.995   7.808
 1561POPC   C4B24262  23.520  16.916   7.421
 1562POPC   NC324263  41.105   0.333   9.472
 1562POPC   PO424264  40.500   0.326   9.807
 1562POPC   GL124265  40.597   0.361   9.306
 1562POPC   GL224266  40.492   0.676   9.090
 1562POPC   C1A24267  40.827   0.329   8.882
 1562POPC   D2A24268  40.957   0.377   8.463
 1562POPC   C3A24269  40.783   0.215   8.088
 1562POPC   C4A24270  40.908   0.212   7.659
 1562POPC   C1B24271  40.516   0.637   8.603
 1562POPC   C2B24272  40.581   0.695   8.128
 1562POPC   C3B24273  40.469   0.504   7.696
 1562POPC   C4B24274  40.422   0.452   7.205
 1563POPC   NC324275   7.707  12.976   9.296
 1563POPC   PO424276   8.342  13.046   9.496
 1563POPC   GL124277   8.213  12.903   9.110
 1563POPC   GL224278   8.077  12.568   9.049
 1563POPC   C1A24279   8.258  12.893   8.673
 1563POPC   D2A24280   8.363  12.665   8.309
 1563POPC   C3A24281   8.238  12.918   7.936
 1563POPC   C4A24282   8.114  12.830   7.517
 1563POPC   C1B24283   8.296  12.355   8.737
 1563POPC   C2B24284   8.007  12.262   8.410
 1563POPC   C3B24285   8.005  12.435   8.016
 1563POPC   C4B24286   8.397  12.459   7.799
 1564POPC   NC324287  13.760  12.063   9.737
 1564POPC   PO424288  13.240  11.714   9.411
 1564POPC   GL124289  13.508  11.896   9.075
 1564POPC   GL224290  13.777  12.105   9.206
 1564POPC   C1A24291  13.507  11.858   8.626
 1564POPC   D2A24292  13.723  12.001   8.257
 1564POPC   C3A24293  13.436  12.080   7.923
 1564POPC   C4A24294  13.469  12.036   7.466
 1564POPC   C1B24295  13.783  12.282   8.769
 1564POPC   C2B24296  14.043  12.413   8.438
 1564POPC   C3B24297  14.096  12.259   8.030
 1564POPC   C4B24298  13.829  12.352   7.666
 1565POPC   NC324299  23.955  27.875   9.448
 1565POPC   PO424300  23.384  27.458   9.437
 1565POPC   GL124301  23.607  27.583   9.074
 1565POPC   GL224302  23.479  27.901   9.028
 1565POPC   C1A24303  23.962  27.725   8.774
 1565POPC   D2A24304  24.077  27.923   8.355
 1565POPC   C3A24305  23.997  27.663   7.975
 1565POPC   C4A24306  23.566  27.554   7.847
 1565POPC   C1B24307  23.486  27.800   8.621
 1565POPC   C2B24308  23.536  27.958   8.239
 1565POPC   C3B24309  23.260  27.946   7.870
 1565POPC   C4B24310  23.347  27.976   7.434
 1566POPC   NC324311  34.103   7.800   9.437
 1566POPC   PO424312  33.724   8.431   9.481
 1566POPC   GL124313  33.723   8.074   9.178
 1566POPC   GL224314  33.987   8.172   9.079
 1566POPC   C1A24315  33.723   7.909   8.758
 1566POPC   D2A24316  33.958   7.907   8.364
 1566POPC   C3A24317  33.753   8.102   8.012
 1566POPC   C4A24318  33.526   8.305   7.673
 1566POPC   C1B24319  33.946   8.375   8.648
 1566POPC   C2B24320  33.883   8.600   8.254
 1566POPC   C3B24321  34.010   8.509   7.835
 1566POPC   C4B24322  34.012   8.119   7.569
 1567POPC   NC324323   2.304  29.449   9.457
 1567POPC   PO424324   2.718  30.053   9.584
 1567POPC   GL124325   2.626  30.124   9.172
 1567POPC   GL224326   2.361  29.869   9.137
 1567POPC   C1A24327   2.835  30.154   8.784
 1567POPC   D2A24328   2.920  29.906   8.388
 1567POPC   C3A24329   2.673  29.893   7.996
 1567POPC   C4A24330   2.752  30.133   7.654
 1567POPC   C1B24331   2.470  29.797   8.683
 1567POPC   C2B24332   2.352  29.590   8.268
 1567POPC   C3B24333   2.434  29.455   7.812
 1567POPC   C4B24334   2.609  29.672   7.460
 1568POPC   NC324335   3.958   2.551   9.470
 1568POPC   PO424336   3.433   2.975   9.492
 1568POPC   GL124337   3.577   2.799   9.141
 1568POPC   GL224338   3.585   2.440   9.108
 1568POPC   C1A24339   3.722   2.854   8.724
 1568POPC   D2A24340   3.610   2.658   8.356
 1568POPC   C3A24341   3.757   2.783   7.966
 1568POPC   C4A24342   3.484   3.056   7.764
 1568POPC   C1B24343   3.268   2.581   8.776
 1568POPC   C2B24344   3.148   2.411   8.367
 1568POPC   C3B24345   3.233   2.599   8.001
 1568POPC   C4B24346   3.416   2.487   7.662
 1569POPC   NC324347   5.832  43.467   9.831
 1569POPC   PO424348   6.145  42.969   9.530
 1569POPC   GL124349   5.847  43.145   9.244
 1569POPC   GL224350   5.931  43.364   8.951
 1569POPC   C1A24351   5.521  43.054   8.928
 1569POPC   D2A24352   5.555  42.903   8.502
 1569POPC   C3A24353   5.631  43.185   8.135
 1569POPC   C4A24354   5.928  43.304   7.784
 1569POPC   C1B24355   6.009  43.011   8.718
 1569POPC   C2B24356   6.016  42.794   8.330
 1569POPC   C3B24357   5.905  42.798   7.918
 1569POPC   C4B24358   6.268  42.928   7.747
 1570POPC   NC324359  11.626  23.236   9.480
 1570POPC   PO424360  11.254  22.709   9.730
 1570POPC   GL124361  11.219  22.860   9.276
 1570POPC   GL224362  10.962  23.095   9.136
 1570POPC   C1A24363  11.380  22.924   8.854
 1570POPC   D2A24364  11.661  22.771   8.505
 1570POPC   C3A24365  11.540  22.829   8.060
 1570POPC   C4A24366  11.210  22.642   7.782
 1570POPC   C1B24367  11.015  23.264   8.720
 1570POPC   C2B24368  11.298  23.168   8.399
 1570POPC   C3B24369  11.123  23.129   8.018
 1570POPC   C4B24370  11.182  23.178   7.606
 1571POPC   NC324371  21.051  32.882   9.496
 1571POPC   PO424372  20.444  33.117   9.613
 1571POPC   GL124373  20.652  33.101   9.208
 1571POPC   GL224374  20.986  33.285   9.173
 1571POPC   C1A24375  20.467  32.910   8.812
 1571POPC   D2A24376  20.267  33.108   8.455
 1571POPC   C3A24377  20.373  33.023   8.053
 1571POPC   C4A24378  20.483  33.139   7.645
 1571POPC   C1B24379  20.922  33.121   8.767
 1571POPC   C2B24380  20.805  33.042   8.352
 1571POPC   C3B24381  20.790  33.316   7.989
 1571POPC   C4B24382  20.957  33.254   7.562
 1572POPC   NC324383  38.617  41.148   9.642
 1572POPC   PO424384  38.600  40.513   9.501
 1572POPC   GL124385  38.525  40.836   9.212
 1572POPC   GL224386  38.210  41.001   9.322
 1572POPC   C1A24387  38.570  40.698   8.769
 1572POPC   D2A24388  38.748  40.777   8.347
 1572POPC   C3A24389  38.491  40.788   7.988
 1572POPC   C4A24390  38.163  40.469   7.891
 1572POPC   C1B24391  38.220  41.060   8.857
 1572POPC   C2B24392  38.193  40.826   8.429
 1572POPC   C3B24393  38.002  40.953   8.029
 1572POPC   C4B24394  38.176  41.140   7.662
 1573POPC   NC324395  34.693   6.148   9.450
 1573POPC   PO424396  34.306   5.617   9.582
 1573POPC   GL124397  34.364   5.836   9.151
 1573POPC   GL224398  34.695   5.901   9.043
 1573POPC   C1A24399  34.389   5.859   8.670
 1573POPC   D2A24400  34.601   6.082   8.347
 1573POPC   C3A24401  34.473   5.843   8.042
 1573POPC   C4A24402  34.330   5.686   7.684
 1573POPC   C1B24403  34.928   6.061   8.746
 1573POPC   C2B24404  35.121   5.868   8.412
 1573POPC   C3B24405  34.968   5.664   8.070
 1573POPC   C4B24406  34.828   5.808   7.674
 1574POPC   NC324407  12.267  42.354   9.494
 1574POPC   PO424408  11.557  42.243   9.464
 1574POPC   GL124409  11.878  42.403   9.166
 1574POPC   GL224410  12.168  42.150   9.054
 1574POPC   C1A24411  11.948  42.647   8.812
 1574POPC   D2A24412  11.858  42.471   8.407
 1574POPC   C3A24413  12.058  42.608   8.038
 1574POPC   C4A24414  12.045  42.417   7.651
 1574POPC   C1B24415  11.800  41.994   8.880
 1574POPC   C2B24416  11.766  41.939   8.458
 1574POPC   C3B24417  11.977  42.056   8.084
 1574POPC   C4B24418  11.884  41.911   7.699
 1575POPC   NC324419  16.371  21.185   9.488
 1575POPC   PO424420  16.777  21.699   9.621
 1575POPC   GL124421  16.733  21.648   9.190
 1575POPC   GL224422  16.708  21.320   9.109
 1575POPC   C1A24423  16.690  21.680   8.745
 1575POPC   D2A24424  16.766  21.510   8.374
 1575POPC   C3A24425  16.486  21.595   8.072
 1575POPC   C4A24426  16.705  21.430   7.714
 1575POPC   C1B24427  16.632  21.107   8.710
 1575POPC   C2B24428  16.530  21.057   8.280
 1575POPC   C3B24429  16.349  21.138   7.919
 1575POPC   C4B24430  16.338  21.208   7.458
 1576POPC   NC324431  14.561  10.526   9.660
 1576POPC   PO424432  14.019  10.186   9.344
 1576POPC   GL124433  14.446  10.372   9.175
 1576POPC   GL224434  14.563  10.694   9.145
 1576POPC   C1A24435  14.496  10.300   8.756
 1576POPC   D2A24436  14.531  10.071   8.377
 1576POPC   C3A24437  14.447  10.194   7.946
 1576POPC   C4A24438  14.082  10.313   7.678
 1576POPC   C1B24439  14.399  10.804   8.736
 1576POPC   C2B24440  14.202  10.866   8.345
 1576POPC   C3B24441  14.263  10.708   7.961
 1576POPC   C4B24442  14.300  10.860   7.566
 1577POPC   NC324443  14.046  21.343   9.468
 1577POPC   PO424444  13.393  21.018   9.538
 1577POPC   GL124445  13.618  21.264   9.218
 1577POPC   GL224446  13.780  21.573   9.110
 1577POPC   C1A24447  13.759  21.165   8.803
 1577POPC   D2A24448  13.587  21.317   8.416
 1577POPC   C3A24449  13.709  21.235   8.000
 1577POPC   C4A24450  13.751  21.375   7.577
 1577POPC   C1B24451  13.804  21.680   8.707
 1577POPC   C2B24452  13.818  21.767   8.284
 1577POPC   C3B24453  13.831  21.806   7.858
 1577POPC   C4B24454  14.005  21.912   7.457
 1578POPC   NC324455  42.660  22.659   9.403
 1578POPC   PO424456  42.131  22.208   9.558
 1578POPC   GL124457  42.239  22.040   9.182
 1578POPC   GL224458  42.526  22.225   9.136
 1578POPC   C1A24459  42.303  21.975   8.754
 1578POPC   D2A24460  42.136  21.857   8.382
 1578POPC   C3A24461  42.284  22.075   8.046
 1578POPC   C4A24462  42.259  21.923   7.657
 1578POPC   C1B24463  42.705  22.344   8.728
 1578POPC   C2B24464  42.732  22.355   8.270
 1578POPC   C3B24465  42.473  22.563   7.953
 1578POPC   C4B24466  42.352  22.411   7.533
 1579POPC   NC324467   4.129  12.742  10.251
 1579POPC   PO424468   4.462  12.601   9.791
 1579POPC   GL124469   4.466  12.800   9.271
 1579POPC   GL224470   4.809  12.963   9.168
 1579POPC   C1A24471   4.496  12.944   8.770
 1579POPC   D2A24472   4.617  13.076   8.317
 1579POPC   C3A24473   4.329  12.959   7.960
 1579POPC   C4A24474   3.973  12.788   7.683
 1579POPC   C1B24475   4.867  12.607   8.852
 1579POPC   C2B24476   4.871  12.647   8.377
 1579POPC   C3B24477   4.716  12.627   7.921
 1579POPC   C4B24478   4.714  12.354   7.511
 1580POPC   NC324479  22.039  32.989   9.615
 1580POPC   PO424480  21.380  33.235   9.516
 1580POPC   GL124481  21.412  33.011   9.119
 1580POPC   GL224482  21.344  32.641   9.117
 1580POPC   C1A24483  21.411  33.139   8.682
 1580POPC   D2A24484  21.304  32.872   8.333
 1580POPC   C3A24485  21.138  32.954   7.939
 1580POPC   C4A24486  21.177  32.822   7.505
 1580POPC   C1B24487  21.586  32.667   8.734
 1580POPC   C2B24488  21.793  32.723   8.317
 1580POPC   C3B24489  21.593  32.750   7.860
 1580POPC   C4B24490  21.681  32.821   7.401
 1581POPC   NC324491  27.317   8.615   9.545
 1581POPC   PO424492  27.714   8.138   9.550
 1581POPC   GL124493  27.514   8.002   9.175
 1581POPC   GL224494  27.151   7.917   9.179
 1581POPC   C1A24495  27.690   7.918   8.783
 1581POPC   D2A24496  27.766   8.156   8.416
 1581POPC   C3A24497  27.683   8.055   7.989
 1581POPC   C4A24498  27.910   8.389   7.802
 1581POPC   C1B24499  27.252   8.212   8.798
 1581POPC   C2B24500  27.209   8.275   8.330
 1581POPC   C3B24501  27.308   8.392   7.873
 1581POPC   C4B24502  27.162   8.327   7.435
 1582POPC   NC324503   7.114  18.024   9.346
 1582POPC   PO424504   7.253  17.353   9.437
 1582POPC   GL124505   7.474  17.384   9.048
 1582POPC   GL224506   7.440  17.726   9.037
 1582POPC   C1A24507   7.705  17.392   8.662
 1582POPC   D2A24508   7.587  17.708   8.381
 1582POPC   C3A24509   7.544  17.636   7.949
 1582POPC   C4A24510   7.338  17.317   7.779
 1582POPC   C1B24511   7.152  17.639   8.692
 1582POPC   C2B24512   7.087  17.506   8.274
 1582POPC   C3B24513   7.072  17.763   7.911
 1582POPC   C4B24514   7.176  17.700   7.477
 1583POPC   NC324515   8.426  41.007   9.675
 1583POPC   PO424516   8.226  41.586   9.536
 1583POPC   GL124517   8.183  41.375   9.153
 1583POPC   GL224518   7.961  41.090   9.098
 1583POPC   C1A24519   8.013  41.531   8.777
 1583POPC   D2A24520   7.969  41.843   8.477
 1583POPC   C3A24521   7.966  41.669   8.103
 1583POPC   C4A24522   8.166  41.813   7.771
 1583POPC   C1B24523   8.211  41.060   8.713
 1583POPC   C2B24524   8.290  41.349   8.374
 1583POPC   C3B24525   8.383  41.397   7.979
 1583POPC   C4B24526   8.065  41.231   7.783
 1584POPC   NC324527  22.036  42.419   9.559
 1584POPC   PO424528  22.525  42.024   9.503
 1584POPC   GL124529  22.338  42.322   9.140
 1584POPC   GL224530  22.037  42.545   9.073
 1584POPC   C1A24531  22.337  42.394   8.678
 1584POPC   D2A24532  22.644  42.339   8.324
 1584POPC   C3A24533  22.455  42.198   7.924
 1584POPC   C4A24534  22.155  42.492   7.797
 1584POPC   C1B24535  21.863  42.092   9.001
 1584POPC   C2B24536  21.845  41.921   8.577
 1584POPC   C3B24537  21.968  42.154   8.192
 1584POPC   C4B24538  21.983  42.009   7.770
 1585POPC   NC324539  36.330  35.587   9.387
 1585POPC   PO424540  36.147  36.308   9.508
 1585POPC   GL124541  36.153  36.012   9.159
 1585POPC   GL224542  36.498  36.013   9.044
 1585POPC   C1A24543  35.947  35.910   8.761
 1585POPC   D2A24544  36.089  35.829   8.301
 1585POPC   C3A24545  36.004  36.152   7.980
 1585POPC   C4A24546  36.329  36.491   7.864
 1585POPC   C1B24547  36.411  35.724   8.702
 1585POPC   C2B24548  36.607  35.709   8.264
 1585POPC   C3B24549  36.356  35.792   7.867
 1585POPC   C4B24550  35.922  35.642   7.839
 1586POPC   NC324551   0.970  25.765   9.688
 1586POPC   PO424552   1.500  26.186   9.556
 1586POPC   GL124553   1.142  26.117   9.225
 1586POPC   GL224554   1.045  25.777   9.190
 1586POPC   C1A24555   1.104  26.227   8.776
 1586POPC   D2A24556   0.938  26.168   8.359
 1586POPC   C3A24557   0.989  26.308   7.928
 1586POPC   C4A24558   1.040  26.120   7.480
 1586POPC   C1B24559   0.957  25.709   8.782
 1586POPC   C2B24560   1.102  25.698   8.354
 1586POPC   C3B24561   1.078  25.802   7.914
 1586POPC   C4B24562   1.251  25.605   7.557
 1587POPC   NC324563  35.654  33.451   9.610
 1587POPC   PO424564  35.240  33.927   9.429
 1587POPC   GL124565  35.314  33.866   9.034
 1587POPC   GL224566  35.413  33.571   9.075
 1587POPC   C1A24567  35.337  34.104   8.665
 1587POPC   D2A24568  35.609  34.231   8.314
 1587POPC   C3A24569  35.470  34.159   7.895
 1587POPC   C4A24570  35.541  34.042   7.464
 1587POPC   C1B24571  35.540  33.612   8.637
 1587POPC   C2B24572  35.411  33.760   8.231
 1587POPC   C3B24573  35.356  33.628   7.818
 1587POPC   C4B24574  34.993  33.421   7.703
 1588POPC   NC324575   2.565  44.397   9.540
 1588POPC   PO424576   3.176  44.470   9.544
 1588POPC   GL124577   2.973  44.692   9.198
 1588POPC   GL224578   2.699  44.505   9.082
 1588POPC   C1A24579   2.997  44.832   8.755
 1588POPC   D2A24580   3.051   0.057   8.354
 1588POPC   C3A24581   2.825  44.841   8.000
 1588POPC   C4A24582   2.910  44.801   7.555
 1588POPC   C1B24583   2.508  44.673   8.754
 1588POPC   C2B24584   2.615  44.544   8.371
 1588POPC   C3B24585   2.505  44.400   7.992
 1588POPC   C4B24586   2.266  44.631   7.717
 1589POPC   NC324587  17.418  14.244   9.583
 1589POPC   PO424588  17.216  14.710   9.336
 1589POPC   GL124589  17.183  14.338   9.054
 1589POPC   GL224590  17.503  14.215   9.023
 1589POPC   C1A24591  17.241  14.197   8.586
 1589POPC   D2A24592  17.611  14.298   8.321
 1589POPC   C3A24593  17.644  14.484   7.898
 1589POPC   C4A24594  17.946  14.678   7.561
 1589POPC   C1B24595  17.518  14.617   8.726
 1589POPC   C2B24596  17.695  14.837   8.322
 1589POPC   C3B24597  17.697  14.990   7.880
 1589POPC   C4B24598  17.446  14.782   7.511
 1590POPC   NC324599  14.292   7.134   9.495
 1590POPC   PO424600  14.646   7.706   9.444
 1590POPC   GL124601  14.488   7.445   9.108
 1590POPC   GL224602  14.632   7.070   9.113
 1590POPC   C1A24603  14.207   7.448   8.729
 1590POPC   D2A24604  14.008   7.275   8.316
 1590POPC   C3A24605  14.136   7.499   7.950
 1590POPC   C4A24606  14.331   7.407   7.531
 1590POPC   C1B24607  14.754   7.257   8.722
 1590POPC   C2B24608  14.525   7.301   8.349
 1590POPC   C3B24609  14.569   7.250   7.953
 1590POPC   C4B24610  14.860   7.276   7.630
 1591POPC   NC324611  19.503  36.013   9.998
 1591POPC   PO424612  20.030  36.345   9.615
 1591POPC   GL124613  19.729  36.222   9.265
 1591POPC   GL224614  19.881  36.054   9.083
 1591POPC   C1A24615  19.504  36.281   8.836
 1591POPC   D2A24616  19.390  36.108   8.403
 1591POPC   C3A24617  19.623  36.253   8.027
 1591POPC   C4A24618  20.081  36.146   7.857
 1591POPC   C1B24619  19.803  35.876   8.674
 1591POPC   C2B24620  19.879  35.870   8.240
 1591POPC   C3B24621  19.870  35.677   7.823
 1591POPC   C4B24622  20.240  35.748   7.522
 1592POPC   NC324623  28.589  41.461   9.594
 1592POPC   PO424624  28.156  41.935   9.630
 1592POPC   GL124625  28.385  41.892   9.230
 1592POPC   GL224626  28.748  41.868   9.279
 1592POPC   C1A24627  28.317  41.738   8.774
 1592POPC   D2A24628  28.451  41.430   8.415
 1592POPC   C3A24629  28.269  41.448   7.976
 1592POPC   C4A24630  28.028  41.703   7.650
 1592POPC   C1B24631  28.817  41.685   8.862
 1592POPC   C2B24632  28.707  41.866   8.437
 1592POPC   C3B24633  28.545  41.880   8.021
 1592POPC   C4B24634  28.533  41.688   7.605
 1593POPC   NC324635  32.508  19.087   9.574
 1593POPC   PO424636  31.936  18.765   9.558
 1593POPC   GL124637  32.199  18.774   9.219
 1593POPC   GL224638  32.277  19.132   9.124
 1593POPC   C1A24639  32.068  18.782   8.811
 1593POPC   D2A24640  32.202  19.059   8.491
 1593POPC   C3A24641  32.180  18.881   8.097
 1593POPC   C4A24642  32.198  18.835   7.637
 1593POPC   C1B24643  32.528  19.360   8.824
 1593POPC   C2B24644  32.558  19.400   8.358
 1593POPC   C3B24645  32.389  19.298   7.907
 1593POPC   C4B24646  32.100  19.389   7.560
 1594POPC   NC324647  14.746   4.983   9.535
 1594POPC   PO424648  14.032   5.012   9.607
 1594POPC   GL124649  14.109   4.920   9.203
 1594POPC   GL224650  14.399   5.119   9.161
 1594POPC   C1A24651  14.149   4.788   8.791
 1594POPC   D2A24652  14.346   4.764   8.379
 1594POPC   C3A24653  14.458   5.127   8.164
 1594POPC   C4A24654  14.358   5.174   7.705
 1594POPC   C1B24655  14.484   5.194   8.719
 1594POPC   C2B24656  14.299   5.535   8.467
 1594POPC   C3B24657  14.078   5.590   8.082
 1594POPC   C4B24658  14.180   5.640   7.659
 1595POPC   NC324659   3.125   6.344   9.494
 1595POPC   PO424660   2.659   6.841   9.465
 1595POPC   GL124661   2.634   6.696   9.067
 1595POPC   GL224662   2.650   6.323   9.087
 1595POPC   C1A24663   2.806   6.846   8.685
 1595POPC   D2A24664   2.819   6.608   8.300
 1595POPC   C3A24665   2.902   6.786   7.918
 1595POPC   C4A24666   3.185   7.029   7.670
 1595POPC   C1B24667   2.986   6.368   8.774
 1595POPC   C2B24668   3.239   6.343   8.391
 1595POPC   C3B24669   3.163   6.357   7.918
 1595POPC   C4B24670   2.717   6.347   7.755
 1596POPC   NC324671  11.800  20.738   9.840
 1596POPC   PO424672  11.251  20.389   9.573
 1596POPC   GL124673  11.109  20.456   9.168
 1596POPC   GL224674  10.964  20.158   9.181
 1596POPC   C1A24675  11.233  20.643   8.771
 1596POPC   D2A24676  11.530  20.695   8.422
 1596POPC   C3A24677  11.297  20.704   8.043
 1596POPC   C4A24678  11.174  20.675   7.613
 1596POPC   C1B24679  11.063  20.152   8.719
 1596POPC   C2B24680  10.950  20.460   8.370
 1596POPC   C3B24681  10.928  20.346   7.932
 1596POPC   C4B24682  10.892  20.006   7.656
 1597POPC   NC324683  20.509  41.108   9.730
 1597POPC   PO424684  20.965  41.539   9.506
 1597POPC   GL124685  21.039  41.531   9.085
 1597POPC   GL224686  20.717  41.377   9.057
 1597POPC   C1A24687  20.869  41.803   8.745
 1597POPC   D2A24688  20.723  41.910   8.314
 1597POPC   C3A24689  20.591  41.679   7.939
 1597POPC   C4A24690  20.657  41.579   7.499
 1597POPC   C1B24691  20.801  41.316   8.611
 1597POPC   C2B24692  20.929  41.413   8.199
 1597POPC   C3B24693  20.754  41.206   7.820
 1597POPC   C4B24694  20.770  40.897   7.493
 1598POPC   NC324695  27.548   2.580   9.375
 1598POPC   PO424696  27.860   3.135   9.342
 1598POPC   GL124697  27.739   2.869   9.016
 1598POPC   GL224698  27.363   2.841   8.978
 1598POPC   C1A24699  27.760   2.718   8.606
 1598POPC   D2A24700  27.978   2.625   8.225
 1598POPC   C3A24701  27.630   2.620   7.925
 1598POPC   C4A24702  27.510   3.071   7.864
 1598POPC   C1B24703  27.183   2.499   8.723
 1598POPC   C2B24704  26.938   2.468   8.351
 1598POPC   C3B24705  27.109   2.473   7.924
 1598POPC   C4B24706  27.253   2.716   7.560
 1599POPC   NC324707  29.074  28.877   9.523
 1599POPC   PO424708  29.335  29.539   9.453
 1599POPC   GL124709  29.210  29.240   9.130
 1599POPC   GL224710  29.309  28.877   9.089
 1599POPC   C1A24711  29.253  29.281   8.693
 1599POPC   D2A24712  29.365  29.534   8.345
 1599POPC   C3A24713  29.174  29.339   8.007
 1599POPC   C4A24714  29.345  29.352   7.624
 1599POPC   C1B24715  28.928  28.912   8.839
 1599POPC   C2B24716  28.986  28.912   8.398
 1599POPC   C3B24717  29.158  28.813   7.986
 1599POPC   C4B24718  29.270  28.869   7.552
 1600POPC   NC324719   6.394  12.379   9.532
 1600POPC   PO424720   6.798  12.908   9.305
 1600POPC   GL124721   6.646  12.789   8.984
 1600POPC   GL224722   6.347  12.633   9.074
 1600POPC   C1A24723   6.764  12.925   8.626
 1600POPC   D2A24724   6.587  13.055   8.289
 1600POPC   C3A24725   6.773  13.042   7.908
 1600POPC   C4A24726   6.455  13.033   7.601
 1600POPC   C1B24727   6.351  12.597   8.624
 1600POPC   C2B24728   6.620  12.548   8.300
 1600POPC   C3B24729   6.410  12.688   7.972
 1600POPC   C4B24730   6.175  12.587   7.663
 1601POPC   NC324731  35.557  22.061   9.667
 1601POPC   PO424732  34.912  22.041   9.623
 1601POPC   GL124733  35.212  22.231   9.324
 1601POPC   GL224734  35.297  21.900   9.249
 1601POPC   C1A24735  35.492  22.312   8.953
 1601POPC   D2A24736  35.556  22.210   8.506
 1601POPC   C3A24737  35.330  22.326   8.168
 1601POPC   C4A24738  35.483  22.275   7.748
 1601POPC   C1B24739  35.297  21.851   8.801
 1601POPC   C2B24740  35.111  21.872   8.361
 1601POPC   C3B24741  35.115  21.919   7.900
 1601POPC   C4B24742  34.958  21.713   7.530
 1602POPC   NC324743  23.768  34.730   9.339
 1602POPC   PO424744  23.849  34.076   9.294
 1602POPC   GL124745  23.819  34.377   8.988
 1602POPC   GL224746  23.509  34.454   8.956
 1602POPC   C1A24747  23.921  34.664   8.652
 1602POPC   D2A24748  23.683  34.630   8.231
 1602POPC   C3A24749  23.934  34.615   7.869
 1602POPC   C4A24750  24.027  34.878   7.504
 1602POPC   C1B24751  23.253  34.360   8.596
 1602POPC   C2B24752  23.310  34.139   8.214
 1602POPC   C3B24753  23.439  34.337   7.840
 1602POPC   C4B24754  23.408  34.748   7.710
 1603POPC   NC324755   0.819   8.678   9.772
 1603POPC   PO424756   1.026   9.258   9.494
 1603POPC   GL124757   1.297   9.054   9.183
 1603POPC   GL224758   1.053   9.143   8.973
 1603POPC   C1A24759   1.456   8.938   8.752
 1603POPC   D2A24760   1.356   8.634   8.439
 1603POPC   C3A24761   1.134   8.802   8.111
 1603POPC   C4A24762   1.252   8.795   7.688
 1603POPC   C1B24763   0.977   8.988   8.589
 1603POPC   C2B24764   0.959   9.272   8.257
 1603POPC   C3B24765   1.159   9.261   7.882
 1603POPC   C4B24766   0.817   9.036   7.730
 1604POPC   NC324767  43.257  43.460   9.354
 1604POPC   PO424768  42.923  42.990   9.703
 1604POPC   GL124769  43.179  42.973   9.228
 1604POPC   GL224770  43.499  42.796   9.226
 1604POPC   C1A24771  43.046  42.934   8.738
 1604POPC   D2A24772  43.170  42.836   8.281
 1604POPC   C3A24773  43.143  42.983   7.861
 1604POPC   C4A24774  43.050  43.363   7.670
 1604POPC   C1B24775  43.521  43.085   8.855
 1604POPC   C2B24776  43.449  43.235   8.444
 1604POPC   C3B24777  43.438  43.397   8.041
 1604POPC   C4B24778  43.598  43.243   7.680
 1605POPC   NC324779   9.879  11.522   9.485
 1605POPC   PO424780   9.452  10.920   9.506
 1605POPC   GL124781   9.598  11.200   9.159
 1605POPC   GL224782   9.984  11.191   9.113
 1605POPC   C1A24783   9.703  11.313   8.722
 1605POPC   D2A24784   9.482  11.292   8.373
 1605POPC   C3A24785   9.627  11.357   7.993
 1605POPC   C4A24786   9.362  11.343   7.640
 1605POPC   C1B24787  10.016  10.946   8.703
 1605POPC   C2B24788   9.986  11.090   8.289
 1605POPC   C3B24789   9.901  10.945   7.870
 1605POPC   C4B24790   9.850  11.304   7.537
 1606POPC   NC324791   4.018   9.966   9.580
 1606POPC   PO424792   3.427   9.766   9.811
 1606POPC   GL124793   3.377   9.610   9.343
 1606POPC   GL224794   3.713   9.550   9.194
 1606POPC   C1A24795   3.229   9.607   8.857
 1606POPC   D2A24796   3.223   9.414   8.409
 1606POPC   C3A24797   3.318   9.669   8.031
 1606POPC   C4A24798   3.553  10.017   7.869
 1606POPC   C1B24799   3.647   9.328   8.789
 1606POPC   C2B24800   3.624   9.053   8.436
 1606POPC   C3B24801   3.619   9.254   8.046
 1606POPC   C4B24802   3.866   9.422   7.704
 1607POPC   NC324803  25.944  33.840   9.569
 1607POPC   PO424804  26.527  33.609   9.654
 1607POPC   GL124805  26.300  33.658   9.252
 1607POPC   GL224806  26.252  34.030   9.205
 1607POPC   C1A24807  25.980  33.699   8.911
 1607POPC   D2A24808  25.785  33.675   8.490
 1607POPC   C3A24809  25.930  33.792   8.105
 1607POPC   C4A24810  25.925  33.865   7.657
 1607POPC   C1B24811  26.242  34.098   8.770
 1607POPC   C2B24812  26.369  33.907   8.380
 1607POPC   C3B24813  26.328  34.058   7.976
 1607POPC   C4B24814  26.053  34.376   7.815
 1608POPC   NC324815  15.486   4.270   9.545
 1608POPC   PO424816  14.933   4.597   9.669
 1608POPC   GL124817  15.016   4.591   9.197
 1608POPC   GL224818  15.289   4.369   9.112
 1608POPC   C1A24819  14.919   4.257   8.820
 1608POPC   D2A24820  15.182   4.197   8.475
 1608POPC   C3A24821  15.018   4.205   8.062
 1608POPC   C4A24822  14.906   4.398   7.700
 1608POPC   C1B24823  15.305   4.629   8.792
 1608POPC   C2B24824  15.545   4.655   8.455
 1608POPC   C3B24825  15.514   4.425   8.118
 1608POPC   C4B24826  15.421   4.308   7.722
 1609POPC   NC324827  12.969   3.907   9.430
 1609POPC   PO424828  12.716   3.267   9.417
 1609POPC   GL124829  12.662   3.338   9.027
 1609POPC   GL224830  12.822   3.660   8.985
 1609POPC   C1A24831  12.533   3.373   8.637
 1609POPC   D2A24832  12.866   3.546   8.453
 1609POPC   C3A24833  12.681   3.725   8.143
 1609POPC   C4A24834  12.621   3.450   7.819
 1609POPC   C1B24835  13.236   3.741   8.752
 1609POPC   C2B24836  13.402   3.586   8.334
 1609POPC   C3B24837  13.128   3.509   7.981
 1609POPC   C4B24838  12.952   3.838   7.737
 1610POPC   NC324839  40.603  43.479   9.407
 1610POPC   PO424840  41.135  43.043   9.531
 1610POPC   GL124841  40.859  43.083   9.211
 1610POPC   GL224842  40.496  42.987   9.255
 1610POPC   C1A24843  40.860  43.249   8.810
 1610POPC   D2A24844  40.774  43.014   8.458
 1610POPC   C3A24845  40.756  43.196   8.076
 1610POPC   C4A24846  40.977  43.231   7.705
 1610POPC   C1B24847  40.377  43.102   8.826
 1610POPC   C2B24848  40.248  43.129   8.376
 1610POPC   C3B24849  40.252  43.075   7.921
 1610POPC   C4B24850  40.592  42.921   7.667
 1611POPC   NC324851  36.985  39.081   9.727
 1611POPC   PO424852  37.289  39.620   9.553
 1611POPC   GL124853  37.096  39.420   9.179
 1611POPC   GL224854  37.097  39.063   9.083
 1611POPC   C1A24855  37.022  39.449   8.711
 1611POPC   D2A24856  36.765  39.254   8.360
 1611POPC   C3A24857  36.740  39.327   7.893
 1611POPC   C4A24858  36.590  39.646   7.563
 1611POPC   C1B24859  37.143  38.974   8.594
 1611POPC   C2B24860  37.297  39.266   8.251
 1611POPC   C3B24861  37.245  39.150   7.810
 1611POPC   C4B24862  36.947  38.872   7.540
 1612POPC   NC324863  30.361  31.284   9.513
 1612POPC   PO424864  31.007  31.270   9.488
 1612POPC   GL124865  30.812  31.451   9.136
 1612POPC   GL224866  30.475  31.331   9.030
 1612POPC   C1A24867  30.837  31.423   8.691
 1612POPC   D2A24868  30.974  31.616   8.333
 1612POPC   C3A24869  30.950  31.402   7.935
 1612POPC   C4A24870  30.909  31.584   7.520
 1612POPC   C1B24871  30.325  31.311   8.610
 1612POPC   C2B24872  30.455  31.430   8.212
 1612POPC   C3B24873  30.484  31.566   7.796
 1612POPC   C4B24874  30.472  31.310   7.407
 1613POPC   NC324875  11.017   7.606   9.341
 1613POPC   PO424876  11.584   7.680   9.602
 1613POPC   GL124877  11.528   7.446   9.203
 1613POPC   GL224878  11.252   7.221   9.080
 1613POPC   C1A24879  11.560   7.589   8.797
 1613POPC   D2A24880  11.385   7.417   8.447
 1613POPC   C3A24881  11.508   7.483   8.025
 1613POPC   C4A24882  11.179   7.207   7.855
 1613POPC   C1B24883  10.973   7.211   8.716
 1613POPC   C2B24884  10.926   7.304   8.278
 1613POPC   C3B24885  11.012   7.665   8.058
 1613POPC   C4B24886  11.027   7.612   7.601
 1614POPC   NC324887   0.812  19.107   9.456
 1614POPC   PO424888   0.376  18.710   9.285
 1614POPC   GL124889   0.376  19.038   9.043
 1614POPC   GL224890   0.534  19.333   9.101
 1614POPC   C1A24891   0.610  19.052   8.664
 1614POPC   D2A24892   0.372  18.803   8.389
 1614POPC   C3A24893   0.375  18.903   7.983
 1614POPC   C4A24894   0.588  18.855   7.632
 1614POPC   C1B24895   0.247  19.435   8.768
 1614POPC   C2B24896   0.397  19.411   8.371
 1614POPC   C3B24897   0.697  19.292   8.087
 1614POPC   C4B24898   0.521  19.365   7.671
 1615POPC   NC324899  37.383  25.130   9.544
 1615POPC   PO424900  36.794  25.479   9.618
 1615POPC   GL124901  36.774  25.300   9.200
 1615POPC   GL224902  37.065  25.138   9.126
 1615POPC   C1A24903  36.885  25.471   8.780
 1615POPC   D2A24904  36.705  25.373   8.401
 1615POPC   C3A24905  36.918  25.477   8.058
 1615POPC   C4A24906  36.753  25.392   7.660
 1615POPC   C1B24907  36.874  24.970   8.727
 1615POPC   C2B24908  36.960  24.915   8.276
 1615POPC   C3B24909  37.101  25.039   7.858
 1615POPC   C4B24910  37.085  25.094   7.389
 1616POPC   NC324911  12.018   9.926   9.607
 1616POPC   PO424912  12.370   9.380   9.684
 1616POPC   GL124913  12.244   9.552   9.269
 1616POPC   GL224914  12.247   9.882   9.148
 1616POPC   C1A24915  12.051   9.513   8.849
 1616POPC   D2A24916  11.935   9.770   8.504
 1616POPC   C3A24917  11.943   9.652   8.065
 1616POPC   C4A24918  12.287   9.771   7.794
 1616POPC   C1B24919  11.845  10.065   8.934
 1616POPC   C2B24920  11.777  10.251   8.479
 1616POPC   C3B24921  11.994  10.159   8.050
 1616POPC   C4B24922  11.909  10.040   7.594
 1617POPC   NC324923  40.927  14.930   9.349
 1617POPC   PO424924  41.018  15.551   9.417
 1617POPC   GL124925  40.727  15.351   9.104
 1617POPC   GL224926  40.453  15.084   9.180
 1617POPC   C1A24927  40.803  15.167   8.692
 1617POPC   D2A24928  40.778  15.016   8.244
 1617POPC   C3A24929  40.905  15.279   7.863
 1617POPC   C4A24930  40.984  15.100   7.390
 1617POPC   C1B24931  40.291  15.336   8.818
 1617POPC   C2B24932  40.448  15.377   8.379
 1617POPC   C3B24933  40.387  15.229   7.964
 1617POPC   C4B24934  40.519  15.317   7.520
 1618POPC   NC324935  24.519  27.108   9.374
 1618POPC   PO424936  24.439  27.773   9.416
 1618POPC   GL124937  24.630  27.747   9.064
 1618POPC   GL224938  24.760  27.416   9.038
 1618POPC   C1A24939  24.456  27.887   8.715
 1618POPC   D2A24940  24.632  27.784   8.365
 1618POPC   C3A24941  24.538  27.914   7.974
 1618POPC   C4A24942  24.869  27.672   7.810
 1618POPC   C1B24943  24.348  27.382   8.826
 1618POPC   C2B24944  24.237  27.441   8.428
 1618POPC   C3B24945  24.439  27.419   8.059
 1618POPC   C4B24946  24.264  27.177   7.799
 1619POPC   NC324947  35.290  35.399   9.510
 1619POPC   PO424948  35.581  34.856   9.567
 1619POPC   GL124949  35.478  35.071   9.156
 1619POPC   GL224950  35.183  35.244   9.038
 1619POPC   C1A24951  35.601  35.128   8.721
 1619POPC   D2A24952  35.544  35.355   8.316
 1619POPC   C3A24953  35.599  35.240   7.882
 1619POPC   C4A24954  35.570  35.494   7.473
 1619POPC   C1B24955  35.100  35.103   8.641
 1619POPC   C2B24956  35.060  35.260   8.229
 1619POPC   C3B24957  35.133  34.988   7.895
 1619POPC   C4B24958  35.155  35.031   7.483
 1620POPC   NC324959   1.931  26.404   9.549
 1620POPC   PO424960   1.484  26.890   9.441
 1620POPC   GL124961   1.816  26.848   9.131
 1620POPC   GL224962   2.152  26.667   9.146
 1620POPC   C1A24963   1.847  27.024   8.712
 1620POPC   D2A24964   2.092  26.926   8.351
 1620POPC   C3A24965   2.009  26.962   7.921
 1620POPC   C4A24966   2.090  27.215   7.561
 1620POPC   C1B24967   2.028  26.545   8.707
 1620POPC   C2B24968   2.020  26.421   8.234
 1620POPC   C3B24969   1.931  26.460   7.800
 1620POPC   C4B24970   1.964  26.289   7.371
 1621POPC   NC324971  32.743  12.591   9.220
 1621POPC   PO424972  32.727  13.286   9.482
 1621POPC   GL124973  32.901  13.073   9.149
 1621POPC   GL224974  33.249  13.021   9.114
 1621POPC   C1A24975  32.860  12.959   8.708
 1621POPC   D2A24976  32.649  12.872   8.347
 1621POPC   C3A24977  32.833  13.109   8.071
 1621POPC   C4A24978  32.955  13.104   7.653
 1621POPC   C1B24979  33.304  12.709   8.766
 1621POPC   C2B24980  33.108  12.619   8.356
 1621POPC   C3B24981  33.234  12.783   7.955
 1621POPC   C4B24982  33.307  12.658   7.521
 1622POPC   NC324983  20.537  43.453   9.762
 1622POPC   PO424984  20.996  43.179   9.568
 1622POPC   GL124985  20.688  43.229   9.273
 1622POPC   GL224986  20.468  43.516   9.260
 1622POPC   C1A24987  20.735  43.023   8.855
 1622POPC   D2A24988  20.897  42.903   8.452
 1622POPC   C3A24989  20.781  43.109   8.077
 1622POPC   C4A24990  20.569  42.922   7.764
 1622POPC   C1B24991  20.678  43.520   8.839
 1622POPC   C2B24992  20.515  43.344   8.437
 1622POPC   C3B24993  20.335  43.385   7.990
 1622POPC   C4B24994  20.356  43.305   7.523
 1623POPC   NC324995  23.419  12.035   9.517
 1623POPC   PO424996  23.906  12.176   9.315
 1623POPC   GL124997  23.556  12.083   9.012
 1623POPC   GL224998  23.338  12.341   9.076
 1623POPC   C1A24999  23.438  12.034   8.554
 1623POPC   D2A25000  23.401  11.916   8.096
 1623POPC   C3A25001  23.819  11.922   7.927
 1623POPC   C4A25002  24.066  12.030   7.567
 1623POPC   C1B25003  23.224  12.490   8.661
 1623POPC   C2B25004  23.090  12.319   8.277
 1623POPC   C3B25005  23.259  12.342   7.847
 1623POPC   C4B25006  23.677  12.374   7.667
 1624POPC   NC325007   5.384  15.536   9.335
 1624POPC   PO425008   5.134  16.123   9.459
 1624POPC   GL125009   5.331  16.020   9.100
 1624POPC   GL225010   5.019  16.001   8.930
 1624POPC   C1A25011   5.509  16.068   8.680
 1624POPC   D2A25012   5.163  15.985   8.412
 1624POPC   C3A25013   5.189  15.806   8.019
 1624POPC   C4A25014   5.392  16.009   7.707
 1624POPC   C1B25015   4.726  16.186   8.590
 1624POPC   C2B25016   4.746  16.157   8.112
 1624POPC   C3B25017   4.803  15.889   7.704
 1624POPC   C4B25018   4.752  15.617   7.311
 1625POPC   NC325019  13.850  33.597   9.601
 1625POPC   PO425020  13.926  32.898   9.616
 1625POPC   GL125021  13.696  33.075   9.244
 1625POPC   GL225022  13.683  33.419   9.164
 1625POPC   C1A25023  13.667  32.845   8.837
 1625POPC   D2A25024  13.703  32.591   8.442
 1625POPC   C3A25025  13.581  32.840   8.095
 1625POPC   C4A25026  13.279  32.833   7.748
 1625POPC   C1B25027  13.971  33.286   8.853
 1625POPC   C2B25028  13.989  33.090   8.466
 1625POPC   C3B25029  13.933  33.250   8.075
 1625POPC   C4B25030  13.674  33.180   7.709
 1626POPC   NC325031   8.641   4.362   9.666
 1626POPC   PO425032   8.067   4.069   9.458
 1626POPC   GL125033   8.201   4.137   9.074
 1626POPC   GL225034   8.390   3.867   9.066
 1626POPC   C1A25035   7.994   4.213   8.690
 1626POPC   D2A25036   7.852   4.494   8.359
 1626POPC   C3A25037   8.180   4.465   8.093
 1626POPC   C4A25038   8.216   4.355   7.688
 1626POPC   C1B25039   8.455   3.922   8.648
 1626POPC   C2B25040   8.424   4.024   8.241
 1626POPC   C3B25041   8.161   3.903   7.903
 1626POPC   C4B25042   8.399   3.739   7.553
 1627POPC   NC325043  44.387  19.215   9.479
 1627POPC   PO425044  43.751  18.910   9.555
 1627POPC   GL125045  43.766  18.992   9.154
 1627POPC   GL225046  44.103  19.002   9.104
 1627POPC   C1A25047  43.590  18.903   8.752
 1627POPC   D2A25048  43.690  19.131   8.388
 1627POPC   C3A25049  43.700  18.979   7.972
 1627POPC   C4A25050  43.905  19.158   7.595
 1627POPC   C1B25051  44.104  18.744   8.733
 1627POPC   C2B25052  44.126  18.815   8.285
 1627POPC   C3B25053  44.158  18.797   7.842
 1627POPC   C4B25054  44.192  18.775   7.384
 1628POPC   NC325055   2.577   8.248   9.462
 1628POPC   PO425056   3.233   8.033   9.322
 1628POPC   GL125057   2.815   7.970   9.043
 1628POPC   GL225058   2.421   8.025   9.037
 1628POPC   C1A25059   2.729   8.012   8.585
 1628POPC   D2A25060   2.819   8.388   8.327
 1628POPC   C3A25061   2.906   8.315   7.900
 1628POPC   C4A25062   2.807   7.986   7.626
 1628POPC   C1B25063   2.397   8.380   8.753
 1628POPC   C2B25064   2.315   8.272   8.310
 1628POPC   C3B25065   2.408   8.144   7.895
 1628POPC   C4B25066   2.481   8.436   7.535
 1629POPC   NC325067  41.889   2.688   9.456
 1629POPC   PO425068  41.243   2.936   9.481
 1629POPC   GL125069  41.399   2.942   9.079
 1629POPC   GL225070  41.713   3.025   9.058
 1629POPC   C1A25071  41.438   2.963   8.629
 1629POPC   D2A25072  41.387   2.553   8.431
 1629POPC   C3A25073  41.446   2.543   7.998
 1629POPC   C4A25074  41.528   2.785   7.677
 1629POPC   C1B25075  41.712   2.582   8.838
 1629POPC   C2B25076  41.878   2.372   8.429
 1629POPC   C3B25077  41.959   2.471   7.978
 1629POPC   C4B25078  41.795   2.362   7.580
 1630POPC   NC325079  19.959   3.471   9.671
 1630POPC   PO425080  20.615   3.683   9.586
 1630POPC   GL125081  20.543   3.771   9.161
 1630POPC   GL225082  20.620   3.431   9.048
 1630POPC   C1A25083  20.404   4.024   8.810
 1630POPC   D2A25084  20.508   4.050   8.376
 1630POPC   C3A25085  20.542   3.663   8.143
 1630POPC   C4A25086  20.465   3.544   7.711
 1630POPC   C1B25087  20.722   3.422   8.598
 1630POPC   C2B25088  20.867   3.241   8.203
 1630POPC   C3B25089  20.799   3.143   7.766
 1630POPC   C4B25090  20.827   3.333   7.311
 1631POPC   NC325091   4.961   5.169   9.610
 1631POPC   PO425092   5.540   5.247   9.286
 1631POPC   GL125093   5.237   5.236   8.989
 1631POPC   GL225094   4.909   5.126   9.069
 1631POPC   C1A25095   5.105   5.181   8.564
 1631POPC   D2A25096   5.211   4.933   8.216
 1631POPC   C3A25097   5.209   5.173   7.825
 1631POPC   C4A25098   4.985   5.210   7.447
 1631POPC   C1B25099   4.670   4.920   8.727
 1631POPC   C2B25100   4.728   4.780   8.299
 1631POPC   C3B25101   4.827   4.833   7.832
 1631POPC   C4B25102   4.657   4.821   7.390
 1632POPC   NC325103   2.018  44.154   9.666
 1632POPC   PO425104   1.829  43.532   9.423
 1632POPC   GL125105   2.174  43.727   9.171
 1632POPC   GL225106   2.268  44.093   9.213
 1632POPC   C1A25107   2.075  43.760   8.730
 1632POPC   D2A25108   1.698  43.956   8.547
 1632POPC   C3A25109   1.688  43.994   8.098
 1632POPC   C4A25110   1.851  43.769   7.756
 1632POPC   C1B25111   2.422  44.145   8.801
 1632POPC   C2B25112   2.209  44.155   8.414
 1632POPC   C3B25113   2.225  43.905   8.080
 1632POPC   C4B25114   2.317  44.020   7.698
 1633POPC   NC325115  25.060  29.502   9.426
 1633POPC   PO425116  24.901  28.891   9.484
 1633POPC   GL125117  25.140  29.058   9.161
 1633POPC   GL225118  25.502  28.966   9.192
 1633POPC   C1A25119  24.962  29.207   8.786
 1633POPC   D2A25120  24.752  29.160   8.409
 1633POPC   C3A25121  25.006  29.365   8.141
 1633POPC   C4A25122  25.190  29.303   7.734
 1633POPC   C1B25123  25.490  29.151   8.782
 1633POPC   C2B25124  25.451  29.337   8.372
 1633POPC   C3B25125  25.636  29.306   7.950
 1633POPC   C4B25126  25.619  29.085   7.568
 1634POPC   NC325127  35.587  16.518   9.525
 1634POPC   PO425128  35.087  16.893   9.764
 1634POPC   GL125129  35.253  16.860   9.332
 1634POPC   GL225130  35.265  16.498   9.164
 1634POPC   C1A25131  35.414  16.913   8.903
 1634POPC   D2A25132  35.380  17.014   8.444
 1634POPC   C3A25133  35.062  16.814   8.161
 1634POPC   C4A25134  35.011  16.702   7.709
 1634POPC   C1B25135  35.555  16.357   8.854
 1634POPC   C2B25136  35.445  16.503   8.467
 1634POPC   C3B25137  35.401  16.443   8.041
 1634POPC   C4B25138  35.493  16.177   7.721
 1635POPC   NC325139  29.985  36.991   9.534
 1635POPC   PO425140  29.475  36.517   9.722
 1635POPC   GL125141  29.859  36.512   9.349
 1635POPC   GL225142  29.940  36.809   9.085
 1635POPC   C1A25143  29.957  36.371   8.891
 1635POPC   D2A25144  29.859  36.679   8.561
 1635POPC   C3A25145  30.076  36.773   8.202
 1635POPC   C4A25146  30.004  36.781   7.778
 1635POPC   C1B25147  29.743  37.135   8.824
 1635POPC   C2B25148  29.750  37.181   8.378
 1635POPC   C3B25149  29.778  37.256   7.909
 1635POPC   C4B25150  29.837  37.155   7.474
 1636POPC   NC325151  26.024  36.329   9.727
 1636POPC   PO425152  26.344  35.900   9.525
 1636POPC   GL125153  26.034  35.914   9.201
 1636POPC   GL225154  26.001  35.585   9.072
 1636POPC   C1A25155  25.941  36.020   8.745
 1636POPC   D2A25156  26.210  36.127   8.377
 1636POPC   C3A25157  26.077  36.112   7.925
 1636POPC   C4A25158  26.162  36.058   7.478
 1636POPC   C1B25159  26.271  35.636   8.688
 1636POPC   C2B25160  26.325  35.653   8.228
 1636POPC   C3B25161  26.160  35.614   7.813
 1636POPC   C4B25162  25.770  35.758   7.635
 1637POPC   NC325163  38.232  40.235   9.504
 1637POPC   PO425164  38.869  39.950   9.644
 1637POPC   GL125165  38.561  39.921   9.283
 1637POPC   GL225166  38.299  39.696   9.371
 1637POPC   C1A25167  38.478  40.143   8.846
 1637POPC   D2A25168  38.474  40.355   8.402
 1637POPC   C3A25169  38.651  40.298   7.975
 1637POPC   C4A25170  38.392  40.009   7.708
 1637POPC   C1B25171  38.356  39.620   8.932
 1637POPC   C2B25172  38.335  39.763   8.523
 1637POPC   C3B25173  38.327  39.681   8.100
 1637POPC   C4B25174  38.181  39.504   7.738
 1638POPC   NC325175  10.049   4.241   9.496
 1638POPC   PO425176   9.446   4.635   9.426
 1638POPC   GL125177   9.518   4.373   9.111
 1638POPC   GL225178   9.827   4.207   9.049
 1638POPC   C1A25179   9.553   4.507   8.713
 1638POPC   D2A25180   9.821   4.658   8.432
 1638POPC   C3A25181   9.593   4.521   8.108
 1638POPC   C4A25182   9.619   4.508   7.687
 1638POPC   C1B25183   9.580   3.999   8.733
 1638POPC   C2B25184   9.845   4.116   8.396
 1638POPC   C3B25185   9.952   4.184   7.961
 1638POPC   C4B25186   9.672   4.017   7.701
 1639POPC   NC325187  39.107  34.748   9.459
 1639POPC   PO425188  39.477  34.194   9.369
 1639POPC   GL125189  39.401  34.517   9.082
 1639POPC   GL225190  39.397  34.901   9.068
 1639POPC   C1A25191  39.228  34.547   8.678
 1639POPC   D2A25192  39.205  34.762   8.309
 1639POPC   C3A25193  39.176  34.533   7.932
 1639POPC   C4A25194  39.288  34.429   7.521
 1639POPC   C1B25195  38.977  34.970   8.812
 1639POPC   C2B25196  38.742  34.942   8.408
 1639POPC   C3B25197  38.900  34.966   7.958
 1639POPC   C4B25198  38.872  34.771   7.559
 1640POPC   NC325199  17.313  33.902   9.786
 1640POPC   PO425200  17.309  33.494   9.210
 1640POPC   GL125201  17.222  33.827   9.012
 1640POPC   GL225202  17.253  34.084   9.256
 1640POPC   C1A25203  17.313  33.852   8.604
 1640POPC   D2A25204  17.662  34.079   8.477
 1640POPC   C3A25205  17.692  33.938   8.080
 1640POPC   C4A25206  17.655  33.890   7.657
 1640POPC   C1B25207  17.231  34.300   8.826
 1640POPC   C2B25208  17.099  34.261   8.365
 1640POPC   C3B25209  17.186  34.049   7.950
 1640POPC   C4B25210  17.202  34.128   7.470
 1641POPC   NC325211  25.416   3.969   9.460
 1641POPC   PO425212  24.679   4.197   9.475
 1641POPC   GL125213  25.024   4.188   9.227
 1641POPC   GL225214  25.315   4.422   9.250
 1641POPC   C1A25215  25.208   4.066   8.838
 1641POPC   D2A25216  25.237   4.234   8.443
 1641POPC   C3A25217  25.252   4.012   8.051
 1641POPC   C4A25218  25.199   4.263   7.690
 1641POPC   C1B25219  25.550   4.488   8.877
 1641POPC   C2B25220  25.704   4.375   8.489
 1641POPC   C3B25221  25.543   4.451   8.078
 1641POPC   C4B25222  25.594   4.609   7.682
 1642POPC   NC325223   8.194  12.563   9.532
 1642POPC   PO425224   7.919  11.977   9.780
 1642POPC   GL125225   7.984  12.082   9.314
 1642POPC   GL225226   8.318  12.114   9.229
 1642POPC   C1A25227   7.980  11.964   8.848
 1642POPC   D2A25228   7.810  11.780   8.443
 1642POPC   C3A25229   7.965  11.919   8.012
 1642POPC   C4A25230   8.041  12.137   7.613
 1642POPC   C1B25231   8.490  11.866   8.900
 1642POPC   C2B25232   8.359  11.833   8.493
 1642POPC   C3B25233   8.425  12.098   8.154
 1642POPC   C4B25234   8.483  11.933   7.746
 1643POPC   NC325235  10.162  21.489   9.800
 1643POPC   PO425236   9.699  21.189   9.366
 1643POPC   GL125237   9.769  21.443   9.039
 1643POPC   GL225238  10.099  21.632   8.921
 1643POPC   C1A25239   9.503  21.404   8.693
 1643POPC   D2A25240   9.398  21.583   8.301
 1643POPC   C3A25241   9.706  21.555   7.944
 1643POPC   C4A25242   9.436  21.649   7.657
 1643POPC   C1B25243  10.051  21.324   8.634
 1643POPC   C2B25244   9.784  21.209   8.304
 1643POPC   C3B25245   9.873  21.058   7.891
 1643POPC   C4B25246  10.068  21.241   7.500
 1644POPC   NC325247  28.480  29.491   9.520
 1644POPC   PO425248  28.625  28.866   9.458
 1644POPC   GL125249  28.246  29.043   9.273
 1644POPC   GL225250  28.511  29.176   9.066
 1644POPC   C1A25251  28.071  29.131   8.839
 1644POPC   D2A25252  28.350  29.263   8.503
 1644POPC   C3A25253  28.188  29.278   8.104
 1644POPC   C4A25254  28.308  29.165   7.715
 1644POPC   C1B25255  28.789  29.412   8.849
 1644POPC   C2B25256  28.836  29.414   8.400
 1644POPC   C3B25257  28.687  29.174   8.062
 1644POPC   C4B25258  28.786  28.980   7.676
 1645POPC   NC325259  35.830  21.214   9.779
 1645POPC   PO425260  36.415  21.526   9.462
 1645POPC   GL125261  36.188  21.371   9.136
 1645POPC   GL225262  36.203  21.109   8.979
 1645POPC   C1A25263  36.178  21.516   8.686
 1645POPC   D2A25264  35.966  21.383   8.316
 1645POPC   C3A25265  36.172  21.363   7.953
 1645POPC   C4A25266  36.252  21.563   7.547
 1645POPC   C1B25267  35.891  20.971   8.643
 1645POPC   C2B25268  35.722  20.899   8.232
 1645POPC   C3B25269  35.676  21.169   7.951
 1645POPC   C4B25270  35.903  21.142   7.596
 1646POPC   NC325271  36.385   0.359   9.730
 1646POPC   PO425272  36.192   0.885   9.422
 1646POPC   GL125273  36.133   0.726   9.078
 1646POPC   GL225274  36.159   0.392   9.165
 1646POPC   C1A25275  35.928   0.771   8.713
 1646POPC   D2A25276  36.136   0.689   8.354
 1646POPC   C3A25277  35.896   0.511   8.021
 1646POPC   C4A25278  36.011   0.481   7.640
 1646POPC   C1B25279  36.269   0.366   8.734
 1646POPC   C2B25280  36.164   0.168   8.339
 1646POPC   C3B25281  36.120   0.041   7.898
 1646POPC   C4B25282  36.404   0.177   7.556
 1647POPC   NC325283  30.804  33.558   9.473
 1647POPC   PO425284  30.182  33.450   9.206
 1647POPC   GL125285  30.540  33.709   9.054
 1647POPC   GL225286  30.879  33.862   9.086
 1647POPC   C1A25287  30.629  33.818   8.656
 1647POPC   D2A25288  30.743  33.631   8.340
 1647POPC   C3A25289  30.501  33.689   7.989
 1647POPC   C4A25290  30.525  33.875   7.620
 1647POPC   C1B25291  31.033  34.125   8.765
 1647POPC   C2B25292  31.176  33.936   8.377
 1647POPC   C3B25293  30.884  34.026   8.041
 1647POPC   C4B25294  30.796  34.309   7.741
 1648POPC   NC325295  23.117  29.153   9.558
 1648POPC   PO425296  23.798  29.294   9.499
 1648POPC   GL125297  23.866  29.087   9.141
 1648POPC   GL225298  23.474  29.048   9.127
 1648POPC   C1A25299  24.066  28.843   8.840
 1648POPC   D2A25300  24.014  29.033   8.441
 1648POPC   C3A25301  24.002  28.829   8.050
 1648POPC   C4A25302  23.803  28.888   7.626
 1648POPC   C1B25303  23.621  29.331   8.783
 1648POPC   C2B25304  23.778  29.471   8.402
 1648POPC   C3B25305  23.845  29.316   7.969
 1648POPC   C4B25306  23.551  29.311   7.630
 1649POPC   NC325307  18.471  33.482   9.508
 1649POPC   PO425308  18.100  33.992   9.565
 1649POPC   GL125309  18.200  33.882   9.204
 1649POPC   GL225310  18.563  33.944   9.283
 1649POPC   C1A25311  18.133  34.029   8.761
 1649POPC   D2A25312  18.091  33.754   8.391
 1649POPC   C3A25313  18.146  33.772   7.928
 1649POPC   C4A25314  18.055  34.172   7.770
 1649POPC   C1B25315  18.527  33.721   8.882
 1649POPC   C2B25316  18.576  33.872   8.510
 1649POPC   C3B25317  18.587  33.943   8.135
 1649POPC   C4B25318  18.651  33.699   7.763
 1650POPC   NC325319  12.130  27.059   9.581
 1650POPC   PO425320  11.622  26.546   9.448
 1650POPC   GL125321  11.871  26.837   9.169
 1650POPC   GL225322  12.246  26.747   9.197
 1650POPC   C1A25323  12.060  26.945   8.753
 1650POPC   D2A25324  12.145  27.108   8.344
 1650POPC   C3A25325  12.054  26.878   7.980
 1650POPC   C4A25326  11.674  26.875   7.768
 1650POPC   C1B25327  12.292  26.508   8.824
 1650POPC   C2B25328  12.351  26.615   8.378
 1650POPC   C3B25329  12.296  26.403   7.946
 1650POPC   C4B25330  12.284  26.353   7.451
 1651POPC   NC325331  42.349  41.467   9.495
 1651POPC   PO425332  42.886  41.116   9.350
 1651POPC   GL125333  42.634  41.370   9.085
 1651POPC   GL225334  42.624  41.734   9.159
 1651POPC   C1A25335  42.391  41.480   8.717
 1651POPC   D2A25336  42.394  41.291   8.336
 1651POPC   C3A25337  42.378  41.494   7.975
 1651POPC   C4A25338  42.047  41.621   7.738
 1651POPC   C1B25339  42.765  41.815   8.751
 1651POPC   C2B25340  42.685  42.021   8.395
 1651POPC   C3B25341  42.854  42.004   8.013
 1651POPC   C4B25342  42.705  41.779   7.672
 1652POPC   NC325343  35.779  29.987   9.534
 1652POPC   PO425344  36.353  29.702   9.429
 1652POPC   GL125345  36.262  29.922   9.077
 1652POPC   GL225346  35.932  29.983   9.060
 1652POPC   C1A25347  36.198  29.857   8.632
 1652POPC   D2A25348  36.409  30.079   8.299
 1652POPC   C3A25349  36.239  29.922   7.939
 1652POPC   C4A25350  36.319  29.469   7.926
 1652POPC   C1B25351  35.794  30.211   8.706
 1652POPC   C2B25352  35.901  30.144   8.283
 1652POPC   C3B25353  35.748  30.274   7.889
 1652POPC   C4B25354  35.945  30.440   7.508
 1653POPC   NC325355  30.004  44.583   9.394
 1653POPC   PO425356  29.929  43.887   9.472
 1653POPC   GL125357  29.969  44.048   9.097
 1653POPC   GL225358  29.736  44.302   9.076
 1653POPC   C1A25359  29.959  43.754   8.770
 1653POPC   D2A25360  30.186  43.721   8.421
 1653POPC   C3A25361  29.933  43.710   8.041
 1653POPC   C4A25362  30.091  43.883   7.666
 1653POPC   C1B25363  29.685  44.151   8.652
 1653POPC   C2B25364  29.726  44.135   8.238
 1653POPC   C3B25365  29.823  44.277   7.840
 1653POPC   C4B25366  29.607  44.164   7.491
 1654POPC   NC325367  29.366   5.190   9.515
 1654POPC   PO425368  28.724   5.164   9.718
 1654POPC   GL125369  28.906   5.035   9.293
 1654POPC   GL225370  29.164   4.752   9.291
 1654POPC   C1A25371  29.113   5.079   8.860
 1654POPC   D2A25372  29.208   5.203   8.410
 1654POPC   C3A25373  28.881   5.203   8.105
 1654POPC   C4A25374  29.028   5.138   7.706
 1654POPC   C1B25375  29.305   4.589   8.881
 1654POPC   C2B25376  29.281   4.533   8.454
 1654POPC   C3B25377  29.197   4.796   8.080
 1654POPC   C4B25378  29.363   4.775   7.667
 1655POPC   NC325379  10.200  25.042   9.512
 1655POPC   PO425380  10.824  25.014   9.647
 1655POPC   GL125381  10.831  25.262   9.242
 1655POPC   GL225382  10.490  25.309   9.181
 1655POPC   C1A25383  10.747  25.287   8.753
 1655POPC   D2A25384  10.441  25.239   8.414
 1655POPC   C3A25385  10.604  25.218   8.014
 1655POPC   C4A25386  10.769  25.334   7.632
 1655POPC   C1B25387  10.277  25.024   8.862
 1655POPC   C2B25388  10.140  24.852   8.458
 1655POPC   C3B25389  10.049  24.923   8.020
 1655POPC   C4B25390  10.233  25.136   7.664
 1656POPC   NC325391  17.088   1.259   9.439
 1656POPC   PO425392  16.467   0.894   9.549
 1656POPC   GL125393  16.701   1.082   9.171
 1656POPC   GL225394  16.675   1.380   9.081
 1656POPC   C1A25395  16.946   1.134   8.758
 1656POPC   D2A25396  16.900   1.354   8.350
 1656POPC   C3A25397  16.692   1.164   7.970
 1656POPC   C4A25398  16.778   0.895   7.625
 1656POPC   C1B25399  16.730   1.671   8.764
 1656POPC   C2B25400  16.558   1.742   8.372
 1656POPC   C3B25401  16.755   1.667   7.976
 1656POPC   C4B25402  16.485   1.551   7.672
 1657POPC   NC325403  40.968  21.905   9.420
 1657POPC   PO425404  40.890  22.511   9.530
 1657POPC   GL125405  40.631  22.391   9.176
 1657POPC   GL225406  40.571  22.033   9.045
 1657POPC   C1A25407  40.381  22.439   8.823
 1657POPC   D2A25408  40.612  22.379   8.470
 1657POPC   C3A25409  40.512  22.251   8.090
 1657POPC   C4A25410  40.637  22.175   7.666
 1657POPC   C1B25411  40.924  22.175   8.811
 1657POPC   C2B25412  41.045  22.101   8.394
 1657POPC   C3B25413  40.994  22.058   8.000
 1657POPC   C4B25414  41.052  21.720   7.740
 1658POPC   NC325415  18.524  37.064   9.561
 1658POPC   PO425416  18.268  36.514   9.456
 1658POPC   GL125417  18.391  36.760   9.120
 1658POPC   GL225418  18.129  36.968   9.119
 1658POPC   C1A25419  18.287  36.883   8.657
 1658POPC   D2A25420  18.407  37.079   8.292
 1658POPC   C3A25421  18.304  36.754   8.013
 1658POPC   C4A25422  18.424  36.721   7.585
 1658POPC   C1B25423  17.879  37.193   8.786
 1658POPC   C2B25424  17.985  37.365   8.361
 1658POPC   C3B25425  17.978  37.158   7.961
 1658POPC   C4B25426  17.835  36.748   7.825
 1659POPC   NC325427   1.843  42.422   9.301
 1659POPC   PO425428   1.244  42.070   9.408
 1659POPC   GL125429   1.026  42.260   9.045
 1659POPC   GL225430   1.136  42.614   9.111
 1659POPC   C1A25431   1.001  42.285   8.588
 1659POPC   D2A25432   1.329  42.141   8.317
 1659POPC   C3A25433   1.160  42.078   7.913
 1659POPC   C4A25434   1.008  42.377   7.630
 1659POPC   C1B25435   1.411  42.509   8.795
 1659POPC   C2B25436   1.315  42.671   8.424
 1659POPC   C3B25437   1.273  42.585   8.029
 1659POPC   C4B25438   1.516  42.457   7.716
 1660POPC   NC325439  28.812  31.049   9.911
 1660POPC   PO425440  29.185  30.629   9.501
 1660POPC   GL125441  29.142  30.569   9.096
 1660POPC   GL225442  28.900  30.753   8.948
 1660POPC   C1A25443  29.307  30.671   8.689
 1660POPC   D2A25444  28.964  30.800   8.402
 1660POPC   C3A25445  29.159  30.818   7.979
 1660POPC   C4A25446  29.507  30.645   7.713
 1660POPC   C1B25447  28.649  31.060   8.784
 1660POPC   C2B25448  28.476  30.981   8.394
 1660POPC   C3B25449  28.655  30.969   7.998
 1660POPC   C4B25450  28.799  31.179   7.656
 1661POPC   NC325451   7.898  34.008   9.487
 1661POPC   PO425452   8.313  33.477   9.539
 1661POPC   GL125453   8.211  33.735   9.164
 1661POPC   GL225454   8.066  34.056   9.029
 1661POPC   C1A25455   8.329  33.744   8.737
 1661POPC   D2A25456   8.196  33.616   8.347
 1661POPC   C3A25457   8.276  33.852   7.992
 1661POPC   C4A25458   8.184  33.618   7.605
 1661POPC   C1B25459   8.131  34.236   8.674
 1661POPC   C2B25460   7.950  34.139   8.307
 1661POPC   C3B25461   7.959  34.259   7.925
 1661POPC   C4B25462   8.081  34.108   7.593
 1662POPC   NC325463   5.094  31.324   9.680
 1662POPC   PO425464   5.477  31.861   9.632
 1662POPC   GL125465   5.267  31.589   9.290
 1662POPC   GL225466   4.885  31.666   9.252
 1662POPC   C1A25467   5.306  31.336   8.887
 1662POPC   D2A25468   5.166  31.379   8.429
 1662POPC   C3A25469   5.355  31.496   7.995
 1662POPC   C4A25470   5.161  31.373   7.578
 1662POPC   C1B25471   4.783  31.441   8.856
 1662POPC   C2B25472   4.654  31.508   8.416
 1662POPC   C3B25473   4.836  31.456   7.999
 1662POPC   C4B25474   4.668  31.560   7.600
 1663POPC   NC325475  26.189  43.092  10.083
 1663POPC   PO425476  26.760  43.203   9.621
 1663POPC   GL125477  26.734  43.232   9.186
 1663POPC   GL225478  26.384  43.349   9.207
 1663POPC   C1A25479  26.968  43.285   8.786
 1663POPC   D2A25480  26.887  43.501   8.414
 1663POPC   C3A25481  26.874  43.217   8.092
 1663POPC   C4A25482  27.050  42.985   7.779
 1663POPC   C1B25483  26.506  43.508   8.794
 1663POPC   C2B25484  26.514  43.163   8.477
 1663POPC   C3B25485  26.384  43.085   8.040
 1663POPC   C4B25486  26.583  43.226   7.675
 1664POPC   NC325487  20.801   7.070   9.633
 1664POPC   PO425488  20.428   7.593   9.426
 1664POPC   GL125489  20.566   7.270   9.181
 1664POPC   GL225490  20.705   7.571   8.985
 1664POPC   C1A25491  20.527   7.081   8.786
 1664POPC   D2A25492  20.574   7.264   8.370
 1664POPC   C3A25493  20.446   7.069   7.982
 1664POPC   C4A25494  20.667   7.107   7.585
 1664POPC   C1B25495  20.327   7.558   8.728
 1664POPC   C2B25496  20.300   7.685   8.280
 1664POPC   C3B25497  20.538   7.572   7.893
 1664POPC   C4B25498  20.370   7.526   7.490
 1665POPC   NC325499  30.386   7.301   9.468
 1665POPC   PO425500  30.782   7.720   9.611
 1665POPC   GL125501  30.675   7.744   9.151
 1665POPC   GL225502  30.437   7.508   9.017
 1665POPC   C1A25503  30.842   7.665   8.726
 1665POPC   D2A25504  31.177   7.484   8.444
 1665POPC   C3A25505  31.047   7.610   8.032
 1665POPC   C4A25506  30.786   7.791   7.717
 1665POPC   C1B25507  30.626   7.201   8.726
 1665POPC   C2B25508  30.718   7.287   8.289
 1665POPC   C3B25509  30.642   7.321   7.846
 1665POPC   C4B25510  30.343   7.592   7.579
 1666POPC   NC325511  27.926  34.042   9.539
 1666POPC   PO425512  27.417  33.610   9.712
 1666POPC   GL125513  27.610  33.676   9.259
 1666POPC   GL225514  27.451  33.469   8.991
 1666POPC   C1A25515  27.675  33.923   8.831
 1666POPC   D2A25516  27.446  34.089   8.405
 1666POPC   C3A25517  27.627  34.017   7.981
 1666POPC   C4A25518  28.001  34.137   7.801
 1666POPC   C1B25519  27.323  33.641   8.604
 1666POPC   C2B25520  27.544  33.583   8.221
 1666POPC   C3B25521  27.420  33.476   7.803
 1666POPC   C4B25522  27.410  33.660   7.385
 1667POPC   NC325523   8.906  35.611   9.407
 1667POPC   PO425524   8.846  36.327   9.444
 1667POPC   GL125525   8.934  36.036   9.137
 1667POPC   GL225526   9.286  36.047   9.198
 1667POPC   C1A25527   8.802  35.758   8.765
 1667POPC   D2A25528   8.739  35.947   8.363
 1667POPC   C3A25529   8.987  36.078   8.025
 1667POPC   C4A25530   8.986  36.502   7.857
 1667POPC   C1B25531   9.212  36.069   8.732
 1667POPC   C2B25532   9.330  35.906   8.367
 1667POPC   C3B25533   9.518  36.160   8.081
 1667POPC   C4B25534   9.355  36.207   7.679
 1668POPC   NC325535   1.836  28.739   9.558
 1668POPC   PO425536   2.195  28.210   9.636
 1668POPC   GL125537   2.100  28.414   9.217
 1668POPC   GL225538   1.740  28.506   9.125
 1668POPC   C1A25539   2.032  28.314   8.753
 1668POPC   D2A25540   2.042  28.114   8.346
 1668POPC   C3A25541   1.989  28.379   7.999
 1668POPC   C4A25542   2.156  28.360   7.587
 1668POPC   C1B25543   1.520  28.249   8.821
 1668POPC   C2B25544   1.560  27.963   8.449
 1668POPC   C3B25545   1.658  27.961   7.996
 1668POPC   C4B25546   1.564  28.319   7.716
 1669POPC   NC325547   2.273   2.088   9.513
 1669POPC   PO425548   2.461   1.526   9.497
 1669POPC   GL125549   2.233   1.756   9.128
 1669POPC   GL225550   1.898   1.947   9.169
 1669POPC   C1A25551   2.018   1.756   8.731
 1669POPC   D2A25552   2.064   1.972   8.391
 1669POPC   C3A25553   1.809   1.790   8.104
 1669POPC   C4A25554   1.919   1.876   7.693
 1669POPC   C1B25555   1.746   2.195   8.786
 1669POPC   C2B25556   1.621   2.245   8.333
 1669POPC   C3B25557   1.889   2.296   7.968
 1669POPC   C4B25558   1.874   2.355   7.508
 1670POPC   NC325559  10.986  40.286   9.474
 1670POPC   PO425560  11.466  39.814   9.634
 1670POPC   GL125561  11.404  40.007   9.232
 1670POPC   GL225562  11.072  39.873   9.163
 1670POPC   C1A25563  11.462  39.928   8.793
 1670POPC   D2A25564  11.293  39.904   8.374
 1670POPC   C3A25565  11.292  40.142   8.025
 1670POPC   C4A25566  11.457  39.971   7.669
 1670POPC   C1B25567  10.940  39.945   8.735
 1670POPC   C2B25568  10.800  39.839   8.295
 1670POPC   C3B25569  10.945  39.617   7.941
 1670POPC   C4B25570  10.730  39.651   7.544
 1671POPC   NC325571  40.201   7.956   9.515
 1671POPC   PO425572  39.593   8.187   9.656
 1671POPC   GL125573  39.847   8.265   9.231
 1671POPC   GL225574  40.206   8.181   9.070
 1671POPC   C1A25575  39.745   8.405   8.806
 1671POPC   D2A25576  39.557   8.296   8.404
 1671POPC   C3A25577  39.875   8.184   8.134
 1671POPC   C4A25578  39.962   8.326   7.734
 1671POPC   C1B25579  40.162   8.028   8.648
 1671POPC   C2B25580  40.222   7.807   8.245
 1671POPC   C3B25581  40.311   7.984   7.835
 1671POPC   C4B25582  40.479   7.959   7.391
 1672POPC   NC325583   0.749   0.050   9.355
 1672POPC   PO425584   0.397   0.573   9.419
 1672POPC   GL125585   0.345   0.460   9.046
 1672POPC   GL225586   0.623   0.281   8.936
 1672POPC   C1A25587   0.462   0.692   8.697
 1672POPC   D2A25588   0.570   0.449   8.366
 1672POPC   C3A25589   0.416   0.585   7.979
 1672POPC   C4A25590   0.487   0.492   7.548
 1672POPC   C1B25591   0.897   0.066   8.681
 1672POPC   C2B25592   0.787  44.989   8.259
 1672POPC   C3B25593   0.706   0.170   7.896
 1672POPC   C4B25594   0.981   0.315   7.609
 1673POPC   NC325595  32.575  26.701   9.460
 1673POPC   PO425596  32.204  27.226   9.335
 1673POPC   GL125597  32.392  26.948   9.047
 1673POPC   GL225598  32.144  26.727   9.048
 1673POPC   C1A25599  32.515  26.784   8.643
 1673POPC   D2A25600  32.454  26.608   8.242
 1673POPC   C3A25601  32.368  26.911   7.920
 1673POPC   C4A25602  32.012  27.035   7.708
 1673POPC   C1B25603  32.000  26.826   8.616
 1673POPC   C2B25604  31.963  26.768   8.172
 1673POPC   C3B25605  31.762  26.599   7.805
 1673POPC   C4B25606  31.716  26.752   7.371
 1674POPC   NC325607  24.400   6.522   9.527
 1674POPC   PO425608  24.559   7.172   9.333
 1674POPC   GL125609  24.352   6.845   9.051
 1674POPC   GL225610  24.324   6.451   9.044
 1674POPC   C1A25611  24.419   6.722   8.602
 1674POPC   D2A25612  24.222   6.788   8.193
 1674POPC   C3A25613  24.591   6.843   7.969
 1674POPC   C4A25614  24.873   6.595   7.730
 1674POPC   C1B25615  24.210   6.220   8.707
 1674POPC   C2B25616  24.302   6.286   8.298
 1674POPC   C3B25617  24.429   6.380   7.887
 1674POPC   C4B25618  24.419   6.672   7.508
 1675POPC   NC325619   8.982  23.765   9.480
 1675POPC   PO425620   8.940  23.158   9.644
 1675POPC   GL125621   9.040  23.297   9.211
 1675POPC   GL225622   8.732  23.378   9.079
 1675POPC   C1A25623   9.119  23.423   8.747
 1675POPC   D2A25624   9.190  23.632   8.328
 1675POPC   C3A25625   9.067  23.638   7.868
 1675POPC   C4A25626   9.096  23.372   7.490
 1675POPC   C1B25627   8.500  23.321   8.740
 1675POPC   C2B25628   8.709  23.302   8.394
 1675POPC   C3B25629   8.821  23.241   8.018
 1675POPC   C4B25630   8.619  23.384   7.681
 1676POPC   NC325631  15.572   1.705   9.374
 1676POPC   PO425632  16.023   2.211   9.403
 1676POPC   GL125633  15.915   2.362   9.024
 1676POPC   GL225634  15.633   2.142   9.009
 1676POPC   C1A25635  15.876   2.302   8.587
 1676POPC   D2A25636  16.079   2.043   8.322
 1676POPC   C3A25637  15.985   2.205   7.929
 1676POPC   C4A25638  15.574   2.303   7.814
 1676POPC   C1B25639  15.816   1.820   8.743
 1676POPC   C2B25640  15.642   1.700   8.339
 1676POPC   C3B25641  15.629   1.806   7.912
 1676POPC   C4B25642  15.651   1.905   7.459
 1677POPC   NC325643  38.497   4.467   9.591
 1677POPC   PO425644  37.957   4.050   9.564
 1677POPC   GL125645  38.244   4.094   9.222
 1677POPC   GL225646  38.097   4.405   9.200
 1677POPC   C1A25647  38.507   4.334   8.902
 1677POPC   D2A25648  38.526   4.678   8.579
 1677POPC   C3A25649  38.731   4.572   8.199
 1677POPC   C4A25650  38.596   4.474   7.780
 1677POPC   C1B25651  38.104   4.649   8.868
 1677POPC   C2B25652  37.993   4.586   8.478
 1677POPC   C3B25653  38.198   4.532   8.123
 1677POPC   C4B25654  38.069   4.512   7.729
 1678POPC   NC325655  39.506  18.295   9.513
 1678POPC   PO425656  40.198  18.322   9.522
 1678POPC   GL125657  39.974  18.311   9.158
 1678POPC   GL225658  40.264  18.151   9.044
 1678POPC   C1A25659  39.670  18.241   8.811
 1678POPC   D2A25660  39.617  18.029   8.416
 1678POPC   C3A25661  39.754  18.290   8.049
 1678POPC   C4A25662  40.075  18.613   7.854
 1678POPC   C1B25663  40.166  18.361   8.671
 1678POPC   C2B25664  40.213  18.349   8.259
 1678POPC   C3B25665  40.211  18.106   7.850
 1678POPC   C4B25666  40.426  17.931   7.476
 1679POPC   NC325667  30.429   3.509   9.520
 1679POPC   PO425668  31.066   3.643   9.601
 1679POPC   GL125669  30.808   3.645   9.217
 1679POPC   GL225670  30.641   3.961   9.249
 1679POPC   C1A25671  30.715   3.393   8.821
 1679POPC   D2A25672  30.628   3.222   8.371
 1679POPC   C3A25673  30.481   3.392   7.968
 1679POPC   C4A25674  30.706   3.337   7.545
 1679POPC   C1B25675  30.443   3.843   8.849
 1679POPC   C2B25676  30.480   3.759   8.400
 1679POPC   C3B25677  30.342   3.885   7.974
 1679POPC   C4B25678  30.447   3.753   7.547
 1680POPC   NC325679   5.076   8.617   9.747
 1680POPC   PO425680   5.267   9.259   9.561
 1680POPC   GL125681   5.108   9.073   9.148
 1680POPC   GL225682   5.341   8.851   8.908
 1680POPC   C1A25683   4.983   9.150   8.701
 1680POPC   D2A25684   5.279   9.018   8.361
 1680POPC   C3A25685   5.108   8.982   7.952
 1680POPC   C4A25686   4.970   9.367   7.766
 1680POPC   C1B25687   5.043   8.647   8.612
 1680POPC   C2B25688   4.814   8.583   8.227
 1680POPC   C3B25689   4.877   8.556   7.779
 1680POPC   C4B25690   5.049   8.465   7.403
 1681POPC   NC325691  28.120  43.029   9.709
 1681POPC   PO425692  28.688  43.252   9.396
 1681POPC   GL125693  28.366  43.105   9.103
 1681POPC   GL225694  28.087  42.857   9.195
 1681POPC   C1A25695  28.437  43.247   8.674
 1681POPC   D2A25696  28.303  43.484   8.332
 1681POPC   C3A25697  28.443  43.389   7.919
 1681POPC   C4A25698  28.420  42.971   7.770
 1681POPC   C1B25699  28.066  42.897   8.719
 1681POPC   C2B25700  28.215  42.917   8.279
 1681POPC   C3B25701  27.975  42.755   7.935
 1681POPC   C4B25702  27.769  42.899   7.571
 1682POPC   NC325703   4.660  35.921   9.340
 1682POPC   PO425704   5.213  36.238   9.545
 1682POPC   GL125705   5.073  36.155   9.135
 1682POPC   GL225706   5.055  35.807   9.048
 1682POPC   C1A25707   5.260  36.166   8.737
 1682POPC   D2A25708   5.163  36.408   8.392
 1682POPC   C3A25709   5.316  36.371   7.978
 1682POPC   C4A25710   5.132  36.127   7.707
 1682POPC   C1B25711   4.963  35.796   8.587
 1682POPC   C2B25712   5.273  35.875   8.224
 1682POPC   C3B25713   5.245  35.645   7.806
 1682POPC   C4B25714   4.917  35.723   7.487
 1683POPC   NC325715  42.838  24.275   9.296
 1683POPC   PO425716  42.300  24.607   9.558
 1683POPC   GL125717  42.418  24.599   9.132
 1683POPC   GL225718  42.241  24.349   8.957
 1683POPC   C1A25719  42.349  24.763   8.705
 1683POPC   D2A25720  42.188  24.518   8.359
 1683POPC   C3A25721  42.309  24.634   7.944
 1683POPC   C4A25722  42.275  24.698   7.481
 1683POPC   C1B25723  42.560  24.271   8.645
 1683POPC   C2B25724  42.615  24.075   8.241
 1683POPC   C3B25725  42.309  24.105   7.900
 1683POPC   C4B25726  41.956  24.365   7.703
 1684POPC   NC325727  35.122  30.459   9.287
 1684POPC   PO425728  35.531  30.987   9.302
 1684POPC   GL125729  35.591  30.592   9.098
 1684POPC   GL225730  35.914  30.484   9.138
 1684POPC   C1A25731  35.463  30.632   8.681
 1684POPC   D2A25732  35.296  30.819   8.283
 1684POPC   C3A25733  35.340  30.590   7.892
 1684POPC   C4A25734  35.158  30.733   7.558
 1684POPC   C1B25735  35.969  30.724   8.741
 1684POPC   C2B25736  35.842  30.654   8.319
 1684POPC   C3B25737  35.718  30.902   7.986
 1684POPC   C4B25738  35.654  30.861   7.540
 1685POPC   NC325739  15.499  22.187   9.614
 1685POPC   PO425740  14.873  22.474   9.638
 1685POPC   GL125741  15.062  22.298   9.238
 1685POPC   GL225742  15.269  21.996   9.204
 1685POPC   C1A25743  14.981  22.200   8.845
 1685POPC   D2A25744  15.074  22.148   8.452
 1685POPC   C3A25745  14.776  22.223   8.125
 1685POPC   C4A25746  14.913  22.152   7.709
 1685POPC   C1B25747  15.449  21.897   8.797
 1685POPC   C2B25748  15.551  21.971   8.378
 1685POPC   C3B25749  15.280  21.973   8.016
 1685POPC   C4B25750  15.381  21.882   7.579
 1686POPC   NC325751  40.848  33.444   9.310
 1686POPC   PO425752  40.433  33.959   9.458
 1686POPC   GL125753  40.338  33.779   9.040
 1686POPC   GL225754  40.485  33.433   8.920
 1686POPC   C1A25755  40.422  33.860   8.594
 1686POPC   D2A25756  40.655  33.591   8.280
 1686POPC   C3A25757  40.638  33.647   7.827
 1686POPC   C4A25758  40.419  33.729   7.449
 1686POPC   C1B25759  40.851  33.263   8.662
 1686POPC   C2B25760  41.144  33.470   8.424
 1686POPC   C3B25761  41.110  33.575   8.024
 1686POPC   C4B25762  41.160  33.793   7.647
 1687POPC   NC325763  41.210  14.217   9.274
 1687POPC   PO425764  40.630  14.636   9.531
 1687POPC   GL125765  40.675  14.619   9.071
 1687POPC   GL225766  40.773  14.346   8.880
 1687POPC   C1A25767  40.485  14.746   8.704
 1687POPC   D2A25768  40.599  14.518   8.359
 1687POPC   C3A25769  40.437  14.699   8.030
 1687POPC   C4A25770  40.652  14.875   7.710
 1687POPC   C1B25771  40.994  14.028   8.690
 1687POPC   C2B25772  40.998  13.845   8.312
 1687POPC   C3B25773  40.995  14.045   7.917
 1687POPC   C4B25774  40.834  14.427   7.871
 1688POPC   NC325775  30.208  26.824   9.423
 1688POPC   PO425776  29.564  26.967   9.516
 1688POPC   GL125777  29.719  26.726   9.179
 1688POPC   GL225778  29.891  26.974   9.034
 1688POPC   C1A25779  29.594  26.646   8.750
 1688POPC   D2A25780  29.423  26.669   8.319
 1688POPC   C3A25781  29.712  26.723   7.948
 1688POPC   C4A25782  29.966  27.111   7.826
 1688POPC   C1B25783  30.109  26.703   8.736
 1688POPC   C2B25784  30.051  26.602   8.299
 1688POPC   C3B25785  30.261  26.704   7.909
 1688POPC   C4B25786  30.505  27.101   7.850
 1689POPC   NC325787  11.894  21.693   9.559
 1689POPC   PO425788  11.737  21.003   9.473
 1689POPC   GL125789  11.926  21.285   9.237
 1689POPC   GL225790  12.260  21.358   9.276
 1689POPC   C1A25791  11.840  21.374   8.832
 1689POPC   D2A25792  11.583  21.279   8.480
 1689POPC   C3A25793  11.688  21.442   8.078
 1689POPC   C4A25794  11.663  21.185   7.711
 1689POPC   C1B25795  12.368  21.334   8.822
 1689POPC   C2B25796  12.112  21.338   8.411
 1689POPC   C3B25797  12.111  21.169   7.999
 1689POPC   C4B25798  12.436  21.176   7.738
 1690POPC   NC325799  31.201  15.270   9.528
 1690POPC   PO425800  30.579  15.154   9.560
 1690POPC   GL125801  30.828  15.301   9.147
 1690POPC   GL225802  30.678  15.065   8.980
 1690POPC   C1A25803  30.671  15.466   8.702
 1690POPC   D2A25804  30.626  15.195   8.364
 1690POPC   C3A25805  30.787  15.380   8.003
 1690POPC   C4A25806  30.645  15.269   7.603
 1690POPC   C1B25807  30.744  14.770   8.640
 1690POPC   C2B25808  30.743  14.713   8.192
 1690POPC   C3B25809  30.840  14.896   7.862
 1690POPC   C4B25810  30.919  14.903   7.419
 1691POPC   NC325811  14.642  17.770   9.462
 1691POPC   PO425812  13.942  17.600   9.583
 1691POPC   GL125813  14.232  17.582   9.218
 1691POPC   GL225814  14.188  17.890   9.122
 1691POPC   C1A25815  14.385  17.451   8.787
 1691POPC   D2A25816  14.208  17.450   8.366
 1691POPC   C3A25817  14.386  17.448   7.993
 1691POPC   C4A25818  14.416  17.265   7.600
 1691POPC   C1B25819  14.297  17.939   8.716
 1691POPC   C2B25820  14.473  17.893   8.341
 1691POPC   C3B25821  14.382  17.965   7.941
 1691POPC   C4B25822  14.534  17.760   7.607
 1692POPC   NC325823   8.539  16.159   9.577
 1692POPC   PO425824   9.184  15.804   9.566
 1692POPC   GL125825   9.138  15.864   9.164
 1692POPC   GL225826   8.809  16.020   9.165
 1692POPC   C1A25827   8.971  15.711   8.773
 1692POPC   D2A25828   8.797  15.618   8.377
 1692POPC   C3A25829   9.014  15.765   8.006
 1692POPC   C4A25830   9.297  15.732   7.619
 1692POPC   C1B25831   8.911  16.210   8.780
 1692POPC   C2B25832   8.754  16.116   8.385
 1692POPC   C3B25833   8.800  16.231   8.001
 1692POPC   C4B25834   9.035  16.171   7.631
 1693POPC   NC325835  37.441  24.338   9.983
 1693POPC   PO425836  37.923  24.426   9.540
 1693POPC   GL125837  37.717  24.611   9.206
 1693POPC   GL225838  38.015  24.655   8.992
 1693POPC   C1A25839  37.612  24.397   8.826
 1693POPC   D2A25840  37.819  24.409   8.458
 1693POPC   C3A25841  37.631  24.262   8.106
 1693POPC   C4A25842  37.534  24.477   7.720
 1693POPC   C1B25843  37.810  24.919   8.740
 1693POPC   C2B25844  37.797  25.155   8.374
 1693POPC   C3B25845  37.729  24.877   8.039
 1693POPC   C4B25846  38.018  24.539   7.891
 1694POPC   NC325847  13.445  24.968   9.496
 1694POPC   PO425848  13.777  25.535   9.442
 1694POPC   GL125849  13.600  25.284   9.087
 1694POPC   GL225850  13.337  25.004   9.008
 1694POPC   C1A25851  13.560  25.504   8.697
 1694POPC   D2A25852  13.707  25.566   8.277
 1694POPC   C3A25853  13.849  25.183   8.094
 1694POPC   C4A25854  13.973  25.185   7.685
 1694POPC   C1B25855  13.217  25.156   8.604
 1694POPC   C2B25856  13.218  25.403   8.226
 1694POPC   C3B25857  13.456  25.379   7.822
 1694POPC   C4B25858  13.552  25.178   7.405
 1695POPC   NC325859  44.214  22.797   9.452
 1695POPC   PO425860  43.572  23.119   9.651
 1695POPC   GL125861  43.676  23.204   9.239
 1695POPC   GL225862  44.046  23.235   9.221
 1695POPC   C1A25863  43.614  22.877   8.964
 1695POPC   D2A25864  43.731  22.771   8.579
 1695POPC   C3A25865  43.709  22.833   8.167
 1695POPC   C4A25866  43.854  22.781   7.770
 1695POPC   C1B25867  44.036  23.155   8.773
 1695POPC   C2B25868  43.868  23.293   8.371
 1695POPC   C3B25869  43.911  23.294   7.923
 1695POPC   C4B25870  44.232  23.093   7.696
 1696POPC   NC325871   7.730  21.794   9.498
 1696POPC   PO425872   7.505  22.476   9.479
 1696POPC   GL125873   7.402  22.379   9.050
 1696POPC   GL225874   7.339  21.996   9.047
 1696POPC   C1A25875   7.312  22.291   8.638
 1696POPC   D2A25876   7.534  22.068   8.376
 1696POPC   C3A25877   7.409  22.317   8.074
 1696POPC   C4A25878   7.550  22.265   7.704
 1696POPC   C1B25879   6.990  21.908   8.716
 1696POPC   C2B25880   7.036  21.958   8.253
 1696POPC   C3B25881   7.366  21.829   7.930
 1696POPC   C4B25882   7.575  21.817   7.466
 1697POPC   NC325883  39.353  19.112   9.709
 1697POPC   PO425884  39.650  18.681   9.324
 1697POPC   GL125885  39.526  19.079   9.215
 1697POPC   GL225886  39.178  19.083   9.144
 1697POPC   C1A25887  39.596  19.286   8.828
 1697POPC   D2A25888  39.498  19.082   8.443
 1697POPC   C3A25889  39.478  19.258   8.031
 1697POPC   C4A25890  39.225  19.021   7.709
 1697POPC   C1B25891  38.958  19.300   8.782
 1697POPC   C2B25892  38.769  19.372   8.361
 1697POPC   C3B25893  38.897  19.366   7.917
 1697POPC   C4B25894  38.964  19.413   7.464
 1698POPC   NC325895   7.495  35.863   9.538
 1698POPC   PO425896   7.473  36.524   9.406
 1698POPC   GL125897   7.623  36.127   9.130
 1698POPC   GL225898   7.709  35.722   9.108
 1698POPC   C1A25899   7.347  35.967   8.816
 1698POPC   D2A25900   7.129  36.251   8.506
 1698POPC   C3A25901   7.378  36.427   8.159
 1698POPC   C4A25902   7.327  36.355   7.723
 1698POPC   C1B25903   7.714  35.603   8.685
 1698POPC   C2B25904   7.609  35.906   8.386
 1698POPC   C3B25905   7.398  35.921   8.038
 1698POPC   C4B25906   7.582  35.834   7.679
 1699POPC   NC325907   8.850  32.834   9.533
 1699POPC   PO425908   9.466  32.864   9.551
 1699POPC   GL125909   9.240  33.044   9.226
 1699POPC   GL225910   8.979  33.300   9.306
 1699POPC   C1A25911   9.012  33.002   8.836
 1699POPC   D2A25912   9.105  32.918   8.407
 1699POPC   C3A25913   8.848  33.063   8.125
 1699POPC   C4A25914   8.764  33.033   7.728
 1699POPC   C1B25915   9.192  33.458   8.935
 1699POPC   C2B25916   9.245  33.429   8.519
 1699POPC   C3B25917   9.272  33.362   8.123
 1699POPC   C4B25918   9.001  33.486   7.818
 1700POPC   NC325919  12.913   0.837   9.516
 1700POPC   PO425920  12.690   0.279   9.226
 1700POPC   GL125921  12.959   0.370   8.953
 1700POPC   GL225922  12.948   0.699   9.012
 1700POPC   C1A25923  12.904   0.273   8.543
 1700POPC   D2A25924  12.575   0.297   8.262
 1700POPC   C3A25925  12.813   0.249   7.924
 1700POPC   C4A25926  12.847   0.454   7.546
 1700POPC   C1B25927  12.585   0.643   8.694
 1700POPC   C2B25928  12.614   0.819   8.290
 1700POPC   C3B25929  12.755   0.821   7.883
 1700POPC   C4B25930  12.928   0.995   7.494
 1701POPC   NC325931  27.780  30.026   9.564
 1701POPC   PO425932  27.278  29.756   9.833
 1701POPC   GL125933  27.354  29.904   9.331
 1701POPC   GL225934  27.643  29.674   9.223
 1701POPC   C1A25935  27.423  30.030   8.864
 1701POPC   D2A25936  27.599  29.919   8.429
 1701POPC   C3A25937  27.404  29.909   8.035
 1701POPC   C4A25938  27.440  30.110   7.655
 1701POPC   C1B25939  27.868  29.774   8.824
 1701POPC   C2B25940  28.049  29.681   8.398
 1701POPC   C3B25941  27.809  29.608   8.020
 1701POPC   C4B25942  27.819  29.330   7.669
 1702POPC   NC325943  25.136  34.278   9.674
 1702POPC   PO425944  25.212  34.857   9.370
 1702POPC   GL125945  25.358  34.549   9.077
 1702POPC   GL225946  25.301  34.251   9.158
 1702POPC   C1A25947  25.453  34.553   8.660
 1702POPC   D2A25948  25.101  34.630   8.415
 1702POPC   C3A25949  25.120  34.657   7.980
 1702POPC   C4A25950  25.055  34.872   7.581
 1702POPC   C1B25951  25.078  34.228   8.749
 1702POPC   C2B25952  25.090  34.108   8.323
 1702POPC   C3B25953  25.061  34.149   7.889
 1702POPC   C4B25954  25.250  34.401   7.571
 1703POPC   NC325955  42.411  12.369   9.665
 1703POPC   PO425956  42.150  11.746   9.567
 1703POPC   GL125957  42.470  11.877   9.259
 1703POPC   GL225958  42.592  12.246   9.208
 1703POPC   C1A25959  42.413  11.904   8.818
 1703POPC   D2A25960  42.144  11.983   8.468
 1703POPC   C3A25961  42.356  11.817   8.112
 1703POPC   C4A25962  42.358  11.790   7.669
 1703POPC   C1B25963  42.469  12.436   8.808
 1703POPC   C2B25964  42.566  12.338   8.368
 1703POPC   C3B25965  42.434  12.297   7.930
 1703POPC   C4B25966  42.452  12.281   7.464
 1704POPC   NC325967  17.342  10.877   9.498
 1704POPC   PO425968  17.932  10.449   9.489
 1704POPC   GL125969  17.706  10.590   9.127
 1704POPC   GL225970  17.349  10.617   9.089
 1704POPC   C1A25971  17.556  10.339   8.759
 1704POPC   D2A25972  17.370  10.480   8.383
 1704POPC   C3A25973  17.481  10.278   8.019
 1704POPC   C4A25974  17.619  10.555   7.727
 1704POPC   C1B25975  17.067  10.801   8.798
 1704POPC   C2B25976  16.937  10.784   8.386
 1704POPC   C3B25977  17.193  10.874   8.040
 1704POPC   C4B25978  17.087  10.892   7.607
 1705POPC   NC325979  22.691   9.664   9.557
 1705POPC   PO425980  23.225   9.407   9.529
 1705POPC   GL125981  23.054   9.675   9.166
 1705POPC   GL225982  23.195   9.882   8.878
 1705POPC   C1A25983  22.759   9.628   8.799
 1705POPC   D2A25984  22.612   9.703   8.351
 1705POPC   C3A25985  22.884   9.689   7.970
 1705POPC   C4A25986  22.872   9.832   7.526
 1705POPC   C1B25987  23.186   9.592   8.495
 1705POPC   C2B25988  23.355   9.496   8.070
 1705POPC   C3B25989  23.294   9.565   7.608
 1705POPC   C4B25990  23.103   9.425   7.189
 1706POPC   NC325991  22.084  26.847   9.501
 1706POPC   PO425992  21.882  26.266   9.344
 1706POPC   GL125993  21.830  26.685   9.080
 1706POPC   GL225994  21.852  27.089   9.119
 1706POPC   C1A25995  21.853  26.910   8.652
 1706POPC   D2A25996  21.890  26.936   8.220
 1706POPC   C3A25997  22.134  26.602   8.039
 1706POPC   C4A25998  22.568  26.599   7.890
 1706POPC   C1B25999  22.204  27.240   8.798
 1706POPC   C2B26000  22.337  27.220   8.334
 1706POPC   C3B26001  22.233  27.088   7.885
 1706POPC   C4B26002  21.872  26.877   7.701
 1707POPC   NC326003  30.394   6.544   9.411
 1707POPC   PO426004  30.898   7.032   9.381
 1707POPC   GL126005  30.686   6.824   9.081
 1707POPC   GL226006  30.354   6.962   9.103
 1707POPC   C1A26007  30.722   6.491   8.771
 1707POPC   D2A26008  30.477   6.420   8.389
 1707POPC   C3A26009  30.748   6.551   8.079
 1707POPC   C4A26010  30.958   6.331   7.762
 1707POPC   C1B26011  30.292   6.769   8.734
 1707POPC   C2B26012  30.363   6.917   8.335
 1707POPC   C3B26013  30.286   6.749   7.937
 1707POPC   C4B26014  30.421   6.366   7.736
 1708POPC   NC326015  21.040  26.895   9.862
 1708POPC   PO426016  21.627  26.868   9.607
 1708POPC   GL126017  21.385  26.894   9.225
 1708POPC   GL226018  21.191  27.163   9.156
 1708POPC   C1A26019  21.407  26.731   8.804
 1708POPC   D2A26020  21.601  26.528   8.414
 1708POPC   C3A26021  21.488  26.690   8.002
 1708POPC   C4A26022  21.160  26.824   7.721
 1708POPC   C1B26023  21.466  27.240   8.798
 1708POPC   C2B26024  21.420  27.054   8.373
 1708POPC   C3B26025  21.544  27.202   7.928
 1708POPC   C4B26026  21.487  27.072   7.457
 1709POPC   NC326027  41.464  21.040   9.339
 1709POPC   PO426028  41.685  20.439   9.565
 1709POPC   GL126029  41.677  20.285   9.162
 1709POPC   GL226030  42.062  20.226   9.153
 1709POPC   C1A26031  41.414  20.434   8.828
 1709POPC   D2A26032  41.301  20.709   8.499
 1709POPC   C3A26033  41.371  20.640   8.051
 1709POPC   C4A26034  41.463  20.333   7.707
 1709POPC   C1B26035  41.961  20.328   8.732
 1709POPC   C2B26036  41.710  20.396   8.391
 1709POPC   C3B26037  41.850  20.492   7.992
 1709POPC   C4B26038  42.130  20.336   7.724
 1710POPC   NC326039  33.275  28.892   9.468
 1710POPC   PO426040  32.618  28.940   9.248
 1710POPC   GL126041  32.822  29.314   9.107
 1710POPC   GL226042  33.190  29.343   9.199
 1710POPC   C1A26043  32.786  29.499   8.699
 1710POPC   D2A26044  32.900  29.229   8.336
 1710POPC   C3A26045  32.827  29.141   7.889
 1710POPC   C4A26046  33.177  28.871   7.694
 1710POPC   C1B26047  33.303  29.433   8.770
 1710POPC   C2B26048  33.247  29.598   8.347
 1710POPC   C3B26049  33.298  29.320   7.966
 1710POPC   C4B26050  33.120  29.341   7.516
 1711POPC   NC326051  27.322  34.771   9.552
 1711POPC   PO426052  27.977  34.492   9.658
 1711POPC   GL126053  27.688  34.443   9.305
 1711POPC   GL226054  27.734  34.742   9.185
 1711POPC   C1A26055  27.493  34.411   8.862
 1711POPC   D2A26056  27.557  34.590   8.424
 1711POPC   C3A26057  27.381  34.464   8.012
 1711POPC   C4A26058  27.553  34.480   7.596
 1711POPC   C1B26059  27.708  34.932   8.776
 1711POPC   C2B26060  27.923  34.951   8.360
 1711POPC   C3B26061  27.762  34.836   7.942
 1711POPC   C4B26062  27.349  34.932   7.751
 1712POPC   NC326063  43.880  30.099   9.452
 1712POPC   PO426064  43.787  30.769   9.580
 1712POPC   GL126065  43.877  30.609   9.166
 1712POPC   GL226066  44.119  30.375   9.012
 1712POPC   C1A26067  43.980  30.808   8.789
 1712POPC   D2A26068  43.860  30.979   8.401
 1712POPC   C3A26069  44.037  30.750   8.038
 1712POPC   C4A26070  43.993  30.757   7.631
 1712POPC   C1B26071  44.218  30.330   8.584
 1712POPC   C2B26072  44.207  30.268   8.138
 1712POPC   C3B26073  44.341  30.409   7.725
 1712POPC   C4B26074  44.138  30.368   7.297
 1713POPC   NC326075  15.057  10.882   9.451
 1713POPC   PO426076  15.265  11.562   9.644
 1713POPC   GL126077  15.043  11.517   9.250
 1713POPC   GL226078  15.249  11.242   9.103
 1713POPC   C1A26079  15.070  11.621   8.772
 1713POPC   D2A26080  15.106  11.429   8.398
 1713POPC   C3A26081  15.271  11.553   8.022
 1713POPC   C4A26082  15.105  11.473   7.656
 1713POPC   C1B26083  15.310  11.041   8.686
 1713POPC   C2B26084  15.040  10.939   8.317
 1713POPC   C3B26085  15.146  11.021   7.899
 1713POPC   C4B26086  15.489  10.916   7.637
 1714POPC   NC326087   0.076  32.167   9.637
 1714POPC   PO426088  44.456  32.089   9.561
 1714POPC   GL126089  44.534  32.303   9.196
 1714POPC   GL226090  44.863  32.160   9.166
 1714POPC   C1A26091  44.624  32.324   8.756
 1714POPC   D2A26092  44.678  32.114   8.390
 1714POPC   C3A26093  44.543  32.367   8.015
 1714POPC   C4A26094  44.676  32.504   7.589
 1714POPC   C1B26095  44.976  31.857   8.833
 1714POPC   C2B26096  44.981  31.632   8.431
 1714POPC   C3B26097  44.808  31.776   8.041
 1714POPC   C4B26098  44.608  31.963   7.701
 1715POPC   NC326099  38.311  34.107   9.535
 1715POPC   PO426100  38.650  34.732   9.535
 1715POPC   GL126101  38.386  34.610   9.219
 1715POPC   GL226102  38.346  34.938   9.140
 1715POPC   C1A26103  38.524  34.601   8.786
 1715POPC   D2A26104  38.315  34.600   8.405
 1715POPC   C3A26105  38.525  34.619   8.028
 1715POPC   C4A26106  38.676  34.345   7.728
 1715POPC   C1B26107  38.135  34.947   8.741
 1715POPC   C2B26108  38.269  35.097   8.360
 1715POPC   C3B26109  38.166  34.980   7.955
 1715POPC   C4B26110  38.360  34.819   7.575
 1716POPC   NC326111   0.883   5.564   9.487
 1716POPC   PO426112   1.286   5.994   9.772
 1716POPC   GL126113   1.270   5.853   9.309
 1716POPC   GL226114   1.494   6.054   9.155
 1716POPC   C1A26115   1.220   5.790   8.817
 1716POPC   D2A26116   1.199   6.020   8.390
 1716POPC   C3A26117   1.158   5.782   7.995
 1716POPC   C4A26118   0.779   5.791   7.740
 1716POPC   C1B26119   1.696   6.158   8.788
 1716POPC   C2B26120   1.684   6.321   8.353
 1716POPC   C3B26121   1.550   6.121   8.006
 1716POPC   C4B26122   1.360   6.122   7.642
 1717POPC   NC326123  36.558   8.338   9.448
 1717POPC   PO426124  36.985   7.728   9.470
 1717POPC   GL126125  36.970   8.120   9.173
 1717POPC   GL226126  37.246   8.325   9.050
 1717POPC   C1A26127  36.762   8.235   8.775
 1717POPC   D2A26128  36.412   8.176   8.464
 1717POPC   C3A26129  36.494   8.442   8.088
 1717POPC   C4A26130  36.867   8.495   7.791
 1717POPC   C1B26131  37.394   7.979   8.786
 1717POPC   C2B26132  37.463   7.949   8.322
 1717POPC   C3B26133  37.146   8.109   7.993
 1717POPC   C4B26134  36.991   8.017   7.543
 1718POPC   NC326135  20.411  44.404   9.585
 1718POPC   PO426136  20.759  43.823   9.573
 1718POPC   GL126137  20.734  43.929   9.156
 1718POPC   GL226138  20.749  44.237   9.230
 1718POPC   C1A26139  20.805  44.064   8.733
 1718POPC   D2A26140  20.704  43.823   8.406
 1718POPC   C3A26141  20.542  43.863   8.021
 1718POPC   C4A26142  20.710  43.621   7.707
 1718POPC   C1B26143  20.405  44.311   8.926
 1718POPC   C2B26144  20.287  44.232   8.502
 1718POPC   C3B26145  20.230  44.325   8.066
 1718POPC   C4B26146  20.387  44.213   7.668
 1719POPC   NC326147   3.989  16.944   9.677
 1719POPC   PO426148   4.609  16.876   9.555
 1719POPC   GL126149   4.457  16.647   9.200
 1719POPC   GL226150   4.688  16.394   9.078
 1719POPC   C1A26151   4.289  16.708   8.751
 1719POPC   D2A26152   4.394  17.038   8.426
 1719POPC   C3A26153   4.264  16.955   8.003
 1719POPC   C4A26154   4.188  16.539   7.814
 1719POPC   C1B26155   4.776  16.758   8.817
 1719POPC   C2B26156   4.801  16.658   8.378
 1719POPC   C3B26157   4.680  16.654   7.951
 1719POPC   C4B26158   4.609  16.625   7.506
 1720POPC   NC326159   9.325  36.519   9.388
 1720POPC   PO426160   9.819  36.100   9.393
 1720POPC   GL126161   9.732  36.397   9.111
 1720POPC   GL226162   9.675  36.170   8.898
 1720POPC   C1A26163   9.976  36.553   8.789
 1720POPC   D2A26164   9.869  36.320   8.417
 1720POPC   C3A26165   9.967  36.480   8.012
 1720POPC   C4A26166   9.886  36.513   7.568
 1720POPC   C1B26167   9.706  35.823   8.699
 1720POPC   C2B26168   9.975  35.713   8.383
 1720POPC   C3B26169   9.947  35.719   7.963
 1720POPC   C4B26170   9.848  36.036   7.723
 1721POPC   NC326171  39.096  24.892   9.377
 1721POPC   PO426172  39.518  24.368   9.431
 1721POPC   GL126173  39.261  24.261   9.057
 1721POPC   GL226174  38.904  24.270   9.096
 1721POPC   C1A26175  39.239  24.199   8.586
 1721POPC   D2A26176  39.145  24.364   8.159
 1721POPC   C3A26177  39.318  24.231   7.772
 1721POPC   C4A26178  39.448  24.605   7.516
 1721POPC   C1B26179  39.021  24.621   8.805
 1721POPC   C2B26180  38.845  24.669   8.432
 1721POPC   C3B26181  38.863  24.885   8.042
 1721POPC   C4B26182  38.958  24.593   7.704
 1722POPC   NC326183  27.979  35.349   9.858
 1722POPC   PO426184  28.522  35.180   9.530
 1722POPC   GL126185  28.469  35.334   9.132
 1722POPC   GL226186  28.179  35.214   9.128
 1722POPC   C1A26187  28.338  35.431   8.712
 1722POPC   D2A26188  28.132  35.471   8.330
 1722POPC   C3A26189  28.339  35.557   7.920
 1722POPC   C4A26190  28.093  35.299   7.609
 1722POPC   C1B26191  28.216  34.952   8.796
 1722POPC   C2B26192  28.439  34.987   8.453
 1722POPC   C3B26193  28.315  35.072   8.042
 1722POPC   C4B26194  28.578  35.140   7.666
 1723POPC   NC326195  40.282  22.177   9.475
 1723POPC   PO426196  39.653  21.837   9.550
 1723POPC   GL126197  39.724  22.042   9.150
 1723POPC   GL226198  40.042  21.942   9.093
 1723POPC   C1A26199  39.886  22.296   8.773
 1723POPC   D2A26200  40.133  22.133   8.439
 1723POPC   C3A26201  39.993  22.246   8.027
 1723POPC   C4A26202  40.248  22.485   7.730
 1723POPC   C1B26203  39.803  21.791   8.704
 1723POPC   C2B26204  39.913  21.714   8.249
 1723POPC   C3B26205  39.685  21.829   7.851
 1723POPC   C4B26206  39.832  21.972   7.415
 1724POPC   NC326207   0.964  28.253   9.495
 1724POPC   PO426208   1.364  28.765   9.596
 1724POPC   GL126209   1.222  28.543   9.188
 1724POPC   GL226210   0.908  28.676   9.132
 1724POPC   C1A26211   1.012  28.267   8.835
 1724POPC   D2A26212   1.058  27.966   8.475
 1724POPC   C3A26213   1.214  28.192   8.104
 1724POPC   C4A26214   1.051  28.389   7.738
 1724POPC   C1B26215   0.907  28.762   8.710
 1724POPC   C2B26216   0.921  28.604   8.296
 1724POPC   C3B26217   0.697  28.682   7.944
 1724POPC   C4B26218   0.854  28.843   7.581
 1725POPC   NC326219  13.208   5.932   9.484
 1725POPC   PO426220  13.600   5.455   9.633
 1725POPC   GL126221  13.667   5.771   9.288
 1725POPC   GL226222  13.953   6.034   9.274
 1725POPC   C1A26223  13.617   5.710   8.856
 1725POPC   D2A26224  13.550   5.431   8.516
 1725POPC   C3A26225  13.553   5.672   8.136
 1725POPC   C4A26226  13.674   5.755   7.722
 1725POPC   C1B26227  13.874   6.172   8.835
 1725POPC   C2B26228  13.873   6.004   8.381
 1725POPC   C3B26229  14.026   6.095   7.899
 1725POPC   C4B26230  13.983   6.036   7.398
 1726POPC   NC326231  20.051   6.542   9.472
 1726POPC   PO426232  19.788   7.110   9.233
 1726POPC   GL126233  19.932   6.807   9.008
 1726POPC   GL226234  19.683   6.579   9.067
 1726POPC   C1A26235  19.745   6.780   8.609
 1726POPC   D2A26236  19.726   6.840   8.226
 1726POPC   C3A26237  20.046   6.668   8.019
 1726POPC   C4A26238  19.922   6.572   7.622
 1726POPC   C1B26239  19.933   6.341   8.770
 1726POPC   C2B26240  19.773   6.112   8.397
 1726POPC   C3B26241  19.733   6.237   7.985
 1726POPC   C4B26242  19.835   5.975   7.640
 1727POPC   NC326243  21.159  11.740   9.601
 1727POPC   PO426244  20.549  11.823   9.414
 1727POPC   GL126245  20.787  11.983   9.114
 1727POPC   GL226246  20.583  12.247   9.069
 1727POPC   C1A26247  20.640  11.967   8.668
 1727POPC   D2A26248  20.799  12.093   8.280
 1727POPC   C3A26249  20.883  11.822   7.957
 1727POPC   C4A26250  20.577  11.537   7.842
 1727POPC   C1B26251  20.347  12.401   8.699
 1727POPC   C2B26252  20.127  12.303   8.317
 1727POPC   C3B26253  20.243  12.395   7.912
 1727POPC   C4B26254  20.668  12.267   7.824
 1728POPC   NC326255  24.036   7.263   9.364
 1728POPC   PO426256  23.507   7.677   9.575
 1728POPC   GL126257  23.563   7.398   9.189
 1728POPC   GL226258  23.260   7.246   9.023
 1728POPC   C1A26259  23.719   7.220   8.785
 1728POPC   D2A26260  23.992   7.185   8.438
 1728POPC   C3A26261  23.799   7.115   8.036
 1728POPC   C4A26262  23.812   7.331   7.638
 1728POPC   C1B26263  23.310   7.561   8.766
 1728POPC   C2B26264  23.470   7.443   8.378
 1728POPC   C3B26265  23.681   7.618   8.082
 1728POPC   C4B26266  23.504   7.777   7.714
 1729POPC   NC326267  39.741  17.327   9.522
 1729POPC   PO426268  40.398  17.086   9.368
 1729POPC   GL126269  40.144  17.379   9.130
 1729POPC   GL226270  40.360  17.648   9.052
 1729POPC   C1A26271  39.762  17.415   8.860
 1729POPC   D2A26272  39.549  17.336   8.463
 1729POPC   C3A26273  39.841  17.304   8.129
 1729POPC   C4A26274  39.761  17.222   7.690
 1729POPC   C1B26275  40.100  17.812   8.715
 1729POPC   C2B26276  40.071  17.847   8.281
 1729POPC   C3B26277  39.795  17.786   7.941
 1729POPC   C4B26278  39.966  17.690   7.557
 1730POPC   NC326279  17.882  24.386   9.367
 1730POPC   PO426280  18.455  24.336   9.563
 1730POPC   GL126281  18.337  24.321   9.130
 1730POPC   GL226282  18.217  24.652   9.098
 1730POPC   C1A26283  18.140  24.306   8.718
 1730POPC   D2A26284  18.122  24.027   8.358
 1730POPC   C3A26285  18.247  24.298   8.028
 1730POPC   C4A26286  18.250  24.645   7.737
 1730POPC   C1B26287  18.525  24.710   8.814
 1730POPC   C2B26288  18.522  24.571   8.401
 1730POPC   C3B26289  18.575  24.801   8.068
 1730POPC   C4B26290  18.746  24.937   7.693
 1731POPC   NC326291  22.615  44.886   9.380
 1731POPC   PO426292  23.075  44.437   9.421
 1731POPC   GL126293  22.993  44.232   9.041
 1731POPC   GL226294  22.691  44.364   9.033
 1731POPC   C1A26295  22.965  44.322   8.585
 1731POPC   D2A26296  23.126  44.614   8.268
 1731POPC   C3A26297  22.924  44.678   7.861
 1731POPC   C4A26298  22.703  44.734   7.474
 1731POPC   C1B26299  22.681  44.741   8.758
 1731POPC   C2B26300  22.619  44.706   8.346
 1731POPC   C3B26301  22.655  44.347   8.132
 1731POPC   C4B26302  22.533  44.296   7.720
 1732POPC   NC326303   5.689  41.736   9.884
 1732POPC   PO426304   5.566  41.184   9.516
 1732POPC   GL126305   5.727  41.519   9.183
 1732POPC   GL226306   6.054  41.702   9.204
 1732POPC   C1A26307   5.579  41.647   8.772
 1732POPC   D2A26308   5.767  41.698   8.337
 1732POPC   C3A26309   5.563  41.662   7.923
 1732POPC   C4A26310   5.841  41.593   7.549
 1732POPC   C1B26311   6.080  41.606   8.772
 1732POPC   C2B26312   6.206  41.470   8.373
 1732POPC   C3B26313   6.119  41.475   7.962
 1732POPC   C4B26314   6.345  41.562   7.575
 1733POPC   NC326315  32.332  28.601   9.405
 1733POPC   PO426316  32.056  29.158   9.680
 1733POPC   GL126317  32.100  29.079   9.185
 1733POPC   GL226318  32.306  29.370   8.976
 1733POPC   C1A26319  32.115  28.993   8.728
 1733POPC   D2A26320  32.430  29.099   8.485
 1733POPC   C3A26321  32.428  28.900   8.102
 1733POPC   C4A26322  32.350  28.854   7.653
 1733POPC   C1B26323  32.001  29.460   8.633
 1733POPC   C2B26324  31.975  29.295   8.238
 1733POPC   C3B26325  32.159  29.314   7.831
 1733POPC   C4B26326  31.888  29.446   7.498
 1734POPC   NC326327  37.519  18.707  10.061
 1734POPC   PO426328  37.721  18.157   9.753
 1734POPC   GL126329  37.730  18.354   9.330
 1734POPC   GL226330  37.471  18.166   9.157
 1734POPC   C1A26331  37.875  18.382   8.882
 1734POPC   D2A26332  37.622  18.430   8.497
 1734POPC   C3A26333  37.762  18.566   8.087
 1734POPC   C4A26334  37.667  18.433   7.657
 1734POPC   C1B26335  37.696  17.902   8.848
 1734POPC   C2B26336  37.941  18.012   8.453
 1734POPC   C3B26337  37.741  18.032   8.019
 1734POPC   C4B26338  37.356  18.041   7.747
 1735POPC   NC326339  38.794   9.162   9.859
 1735POPC   PO426340  39.165   8.834   9.382
 1735POPC   GL126341  39.404   8.840   9.033
 1735POPC   GL226342  39.328   9.175   8.932
 1735POPC   C1A26343  39.380   8.783   8.597
 1735POPC   D2A26344  39.227   9.116   8.319
 1735POPC   C3A26345  39.357   9.019   7.899
 1735POPC   C4A26346  39.114   8.698   7.629
 1735POPC   C1B26347  38.921   9.029   8.750
 1735POPC   C2B26348  38.696   9.368   8.581
 1735POPC   C3B26349  38.910   9.549   8.210
 1735POPC   C4B26350  38.959   9.306   7.822
 1736POPC   NC326351   8.519  23.134   9.472
 1736POPC   PO426352   7.869  23.067   9.508
 1736POPC   GL126353   8.170  22.953   9.154
 1736POPC   GL226354   7.996  22.679   8.983
 1736POPC   C1A26355   8.380  22.840   8.746
 1736POPC   D2A26356   8.241  23.037   8.375
 1736POPC   C3A26357   8.394  22.989   7.960
 1736POPC   C4A26358   8.457  22.630   7.741
 1736POPC   C1B26359   7.897  23.098   8.775
 1736POPC   C2B26360   7.757  23.219   8.366
 1736POPC   C3B26361   7.885  23.026   7.981
 1736POPC   C4B26362   7.800  23.062   7.536
 1737POPC   NC326363  32.123  34.679   9.341
 1737POPC   PO426364  32.394  34.110   9.511
 1737POPC   GL126365  32.483  34.313   9.124
 1737POPC   GL226366  32.587  34.669   9.136
 1737POPC   C1A26367  32.312  34.440   8.728
 1737POPC   D2A26368  32.418  34.319   8.315
 1737POPC   C3A26369  32.108  34.536   8.056
 1737POPC   C4A26370  31.817  34.383   7.764
 1737POPC   C1B26371  32.576  34.885   8.760
 1737POPC   C2B26372  32.398  34.848   8.367
 1737POPC   C3B26373  32.466  35.033   7.973
 1737POPC   C4B26374  32.153  34.915   7.699
 1738POPC   NC326375   5.719  13.114   9.468
 1738POPC   PO426376   5.938  12.479   9.582
 1738POPC   GL126377   5.828  12.691   9.178
 1738POPC   GL226378   6.002  13.025   9.068
 1738POPC   C1A26379   5.860  12.684   8.735
 1738POPC   D2A26380   5.767  12.883   8.351
 1738POPC   C3A26381   5.777  12.621   7.974
 1738POPC   C4A26382   5.689  12.394   7.610
 1738POPC   C1B26383   6.273  13.134   8.745
 1738POPC   C2B26384   6.151  13.289   8.342
 1738POPC   C3B26385   6.035  13.068   7.941
 1738POPC   C4B26386   5.825  12.918   7.552
 1739POPC   NC326387  30.926  35.323   9.471
 1739POPC   PO426388  30.256  35.059   9.470
 1739POPC   GL126389  30.617  35.100   9.119
 1739POPC   GL226390  31.037  35.010   9.096
 1739POPC   C1A26391  30.720  35.411   8.793
 1739POPC   D2A26392  30.689  35.362   8.358
 1739POPC   C3A26393  30.597  35.598   8.018
 1739POPC   C4A26394  30.269  35.419   7.772
 1739POPC   C1B26395  31.068  35.051   8.666
 1739POPC   C2B26396  31.053  35.040   8.219
 1739POPC   C3B26397  30.770  35.138   7.868
 1739POPC   C4B26398  30.921  35.072   7.399
 1740POPC   NC326399  17.892  30.178   9.443
 1740POPC   PO426400  18.488  29.791   9.482
 1740POPC   GL126401  18.359  30.120   9.209
 1740POPC   GL226402  18.631  30.112   8.995
 1740POPC   C1A26403  18.131  30.231   8.844
 1740POPC   D2A26404  17.975  30.060   8.476
 1740POPC   C3A26405  18.191  30.177   8.100
 1740POPC   C4A26406  18.186  30.045   7.674
 1740POPC   C1B26407  18.438  29.786   8.774
 1740POPC   C2B26408  18.385  29.732   8.331
 1740POPC   C3B26409  18.546  29.825   7.929
 1740POPC   C4B26410  18.622  29.806   7.478
 1741POPC   NC326411  19.446  11.774   9.454
 1741POPC   PO426412  18.882  12.215   9.503
 1741POPC   GL126413  18.978  12.044   9.098
 1741POPC   GL226414  18.637  11.865   9.141
 1741POPC   C1A26415  19.232  12.000   8.672
 1741POPC   D2A26416  19.291  11.914   8.207
 1741POPC   C3A26417  19.155  12.174   7.811
 1741POPC   C4A26418  19.304  12.057   7.355
 1741POPC   C1B26419  18.586  12.137   8.774
 1741POPC   C2B26420  18.827  12.117   8.356
 1741POPC   C3B26421  18.688  11.965   7.943
 1741POPC   C4B26422  18.710  12.085   7.504
 1742POPC   NC326423   7.544   6.968   9.469
 1742POPC   PO426424   7.621   7.533   9.865
 1742POPC   GL126425   7.694   7.407   9.321
 1742POPC   GL226426   7.411   7.308   9.110
 1742POPC   C1A26427   7.733   7.385   8.772
 1742POPC   D2A26428   7.425   7.508   8.408
 1742POPC   C3A26429   7.417   7.513   7.942
 1742POPC   C4A26430   7.534   7.371   7.522
 1742POPC   C1B26431   7.217   7.185   8.746
 1742POPC   C2B26432   6.957   7.239   8.373
 1742POPC   C3B26433   6.995   7.176   7.940
 1742POPC   C4B26434   7.001   7.343   7.500
 1743POPC   NC326435  40.935  30.846   9.485
 1743POPC   PO426436  40.550  31.329   9.459
 1743POPC   GL126437  40.732  31.491   9.118
 1743POPC   GL226438  41.042  31.318   9.187
 1743POPC   C1A26439  41.018  31.702   8.821
 1743POPC   D2A26440  41.182  31.561   8.427
 1743POPC   C3A26441  40.929  31.554   8.081
 1743POPC   C4A26442  40.703  31.570   7.755
 1743POPC   C1B26443  40.899  31.211   8.750
 1743POPC   C2B26444  40.713  31.210   8.390
 1743POPC   C3B26445  40.624  31.102   7.994
 1743POPC   C4B26446  40.960  31.102   7.714
 1744POPC   NC326447  28.570  35.793   9.460
 1744POPC   PO426448  27.866  35.660   9.539
 1744POPC   GL126449  28.140  35.740   9.131
 1744POPC   GL226450  28.362  36.058   9.094
 1744POPC   C1A26451  28.137  35.889   8.669
 1744POPC   D2A26452  28.319  36.177   8.341
 1744POPC   C3A26453  28.232  36.077   7.886
 1744POPC   C4A26454  28.089  35.815   7.534
 1744POPC   C1B26455  28.652  35.829   8.813
 1744POPC   C2B26456  28.572  35.738   8.387
 1744POPC   C3B26457  28.700  35.962   8.058
 1744POPC   C4B26458  28.656  35.886   7.632
 1745POPC   NC326459  11.134  41.066   9.622
 1745POPC   PO426460  11.450  40.519   9.419
 1745POPC   GL126461  11.202  40.786   9.169
 1745POPC   GL226462  10.971  40.610   9.073
 1745POPC   C1A26463  11.290  40.894   8.722
 1745POPC   D2A26464  11.692  40.800   8.488
 1745POPC   C3A26465  11.629  40.756   8.058
 1745POPC   C4A26466  11.382  40.885   7.739
 1745POPC   C1B26467  11.216  40.390   8.759
 1745POPC   C2B26468  11.233  40.553   8.334
 1745POPC   C3B26469  11.045  40.577   7.935
 1745POPC   C4B26470  11.129  40.432   7.527
 1746POPC   NC326471   8.329   2.517   9.317
 1746POPC   PO426472   8.276   1.812   9.504
 1746POPC   GL126473   8.329   2.036   9.134
 1746POPC   GL226474   7.985   2.164   9.112
 1746POPC   C1A26475   8.410   1.985   8.700
 1746POPC   D2A26476   8.284   1.649   8.405
 1746POPC   C3A26477   8.335   1.840   8.018
 1746POPC   C4A26478   8.283   2.036   7.640
 1746POPC   C1B26479   7.922   1.868   8.768
 1746POPC   C2B26480   7.988   2.058   8.369
 1746POPC   C3B26481   7.913   2.171   7.960
 1746POPC   C4B26482   7.754   1.964   7.635
 1747POPC   NC326483   9.375  25.538   9.667
 1747POPC   PO426484   9.767  24.999   9.629
 1747POPC   GL126485   9.825  25.080   9.179
 1747POPC   GL226486   9.992  25.406   9.174
 1747POPC   C1A26487   9.805  25.197   8.750
 1747POPC   D2A26488   9.932  25.311   8.384
 1747POPC   C3A26489   9.651  25.320   8.075
 1747POPC   C4A26490   9.721  25.193   7.684
 1747POPC   C1B26491  10.256  25.552   8.796
 1747POPC   C2B26492  10.207  25.719   8.374
 1747POPC   C3B26493  10.148  25.520   7.958
 1747POPC   C4B26494   9.935  25.595   7.487
 1748POPC   NC326495  35.182   9.237   9.908
 1748POPC   PO426496  35.070   8.684   9.500
 1748POPC   GL126497  35.406   8.796   9.179
 1748POPC   GL226498  35.085   8.830   9.000
 1748POPC   C1A26499  35.505   9.078   8.804
 1748POPC   D2A26500  35.279   9.153   8.395
 1748POPC   C3A26501  35.502   9.170   7.995
 1748POPC   C4A26502  35.631   8.813   7.829
 1748POPC   C1B26503  35.084   8.722   8.617
 1748POPC   C2B26504  34.916   8.720   8.230
 1748POPC   C3B26505  35.071   8.886   7.880
 1748POPC   C4B26506  34.969   9.207   7.613
 1749POPC   NC326507  38.112  28.835   9.425
 1749POPC   PO426508  38.311  29.249   9.805
 1749POPC   GL126509  38.508  29.224   9.321
 1749POPC   GL226510  38.722  28.931   9.252
 1749POPC   C1A26511  38.670  29.332   8.862
 1749POPC   D2A26512  38.838  29.311   8.444
 1749POPC   C3A26513  38.599  29.152   8.101
 1749POPC   C4A26514  38.566  29.331   7.670
 1749POPC   C1B26515  38.452  28.879   8.863
 1749POPC   C2B26516  38.435  28.743   8.408
 1749POPC   C3B26517  38.203  28.793   8.007
 1749POPC   C4B26518  38.109  28.951   7.584
 1750POPC   NC326519  25.209  14.249   9.509
 1750POPC   PO426520  25.570  13.883   9.278
 1750POPC   GL126521  25.370  14.238   9.019
 1750POPC   GL226522  25.221  14.583   9.089
 1750POPC   C1A26523  25.143  14.338   8.643
 1750POPC   D2A26524  25.312  14.507   8.278
 1750POPC   C3A26525  25.132  14.379   7.892
 1750POPC   C4A26526  25.235  14.475   7.471
 1750POPC   C1B26527  25.016  14.825   8.717
 1750POPC   C2B26528  25.122  14.980   8.267
 1750POPC   C3B26529  24.990  14.879   7.832
 1750POPC   C4B26530  24.676  14.867   7.485
 1751POPC   NC326531  28.422   4.858   9.511
 1751POPC   PO426532  27.924   5.353   9.621
 1751POPC   GL126533  28.188   5.186   9.175
 1751POPC   GL226534  28.178   4.847   9.066
 1751POPC   C1A26535  28.215   5.113   8.657
 1751POPC   D2A26536  28.168   5.332   8.265
 1751POPC   C3A26537  28.399   5.170   7.906
 1751POPC   C4A26538  28.199   5.404   7.643
 1751POPC   C1B26539  28.621   4.864   8.882
 1751POPC   C2B26540  28.831   4.821   8.469
 1751POPC   C3B26541  28.638   4.743   8.051
 1751POPC   C4B26542  28.311   4.647   7.708
 1752POPC   NC326543  30.806   2.736   9.455
 1752POPC   PO426544  30.239   3.092   9.491
 1752POPC   GL126545  30.446   2.929   9.119
 1752POPC   GL226546  30.506   2.550   9.072
 1752POPC   C1A26547  30.694   2.878   8.737
 1752POPC   D2A26548  30.789   2.688   8.333
 1752POPC   C3A26549  30.706   2.895   7.926
 1752POPC   C4A26550  30.348   2.981   7.672
 1752POPC   C1B26551  30.816   2.374   8.756
 1752POPC   C2B26552  30.837   2.142   8.373
 1752POPC   C3B26553  30.813   2.337   7.965
 1752POPC   C4B26554  30.691   2.453   7.580
 1753POPC   NC326555  13.568  28.930   9.405
 1753POPC   PO426556  13.360  29.524   9.303
 1753POPC   GL126557  13.572  29.242   9.011
 1753POPC   GL226558  13.887  29.244   9.150
 1753POPC   C1A26559  13.458  28.864   8.745
 1753POPC   D2A26560  13.616  28.740   8.352
 1753POPC   C3A26561  13.420  28.975   8.019
 1753POPC   C4A26562  13.353  29.416   7.807
 1753POPC   C1B26563  13.967  29.425   8.742
 1753POPC   C2B26564  13.739  29.254   8.409
 1753POPC   C3B26565  13.823  29.346   7.999
 1753POPC   C4B26566  14.200  29.510   7.790
 1754POPC   NC326567  39.273   4.950   9.853
 1754POPC   PO426568  39.212   5.434   9.433
 1754POPC   GL126569  39.149   5.094   9.148
 1754POPC   GL226570  39.377   5.290   8.968
 1754POPC   C1A26571  39.089   4.992   8.673
 1754POPC   D2A26572  39.214   4.967   8.236
 1754POPC   C3A26573  38.992   4.834   7.847
 1754POPC   C4A26574  38.889   5.241   7.644
 1754POPC   C1B26575  39.594   4.949   8.794
 1754POPC   C2B26576  39.712   4.936   8.386
 1754POPC   C3B26577  39.629   4.865   7.961
 1754POPC   C4B26578  39.382   5.069   7.669
 1755POPC   NC326579  33.191   3.071   9.266
 1755POPC   PO426580  33.417   3.711   9.306
 1755POPC   GL126581  33.021   3.681   9.010
 1755POPC   GL226582  32.758   3.399   9.000
 1755POPC   C1A26583  32.950   3.646   8.573
 1755POPC   D2A26584  33.158   3.423   8.249
 1755POPC   C3A26585  33.165   3.597   7.871
 1755POPC   C4A26586  32.923   3.671   7.494
 1755POPC   C1B26587  32.949   3.152   8.658
 1755POPC   C2B26588  32.789   3.066   8.252
 1755POPC   C3B26589  32.786   3.275   7.848
 1755POPC   C4B26590  33.136   3.222   7.547
 1756POPC   NC326591  21.118  31.885   9.443
 1756POPC   PO426592  21.389  31.177   9.468
 1756POPC   GL126593  21.247  31.259   9.099
 1756POPC   GL226594  21.233  31.600   9.044
 1756POPC   C1A26595  21.321  31.220   8.689
 1756POPC   D2A26596  21.268  31.428   8.319
 1756POPC   C3A26597  21.286  31.266   7.929
 1756POPC   C4A26598  20.976  31.550   7.785
 1756POPC   C1B26599  21.516  31.692   8.727
 1756POPC   C2B26600  21.502  31.863   8.319
 1756POPC   C3B26601  21.449  31.751   7.937
 1756POPC   C4B26602  21.714  31.829   7.646
 1757POPC   NC326603  35.987  34.711   9.727
 1757POPC   PO426604  35.896  35.348   9.386
 1757POPC   GL126605  35.960  35.439   9.001
 1757POPC   GL226606  36.274  35.261   8.958
 1757POPC   C1A26607  35.981  35.430   8.579
 1757POPC   D2A26608  36.341  35.300   8.393
 1757POPC   C3A26609  36.266  35.295   7.974
 1757POPC   C4A26610  36.454  35.374   7.579
 1757POPC   C1B26611  36.076  34.936   8.650
 1757POPC   C2B26612  35.917  34.994   8.243
 1757POPC   C3B26613  36.036  34.882   7.815
 1757POPC   C4B26614  35.992  35.215   7.501
 1758POPC   NC326615  32.757  34.416   9.565
 1758POPC   PO426616  33.244  34.843   9.581
 1758POPC   GL126617  33.084  34.713   9.198
 1758POPC   GL226618  33.024  34.362   9.135
 1758POPC   C1A26619  33.275  34.649   8.791
 1758POPC   D2A26620  33.324  34.867   8.420
 1758POPC   C3A26621  33.345  34.594   8.106
 1758POPC   C4A26622  33.106  34.377   7.797
 1758POPC   C1B26623  32.823  34.432   8.709
 1758POPC   C2B26624  32.849  34.634   8.279
 1758POPC   C3B26625  32.609  34.551   7.896
 1758POPC   C4B26626  32.677  34.357   7.514
 1759POPC   NC326627  32.455  15.507   9.423
 1759POPC   PO426628  32.108  14.886   9.496
 1759POPC   GL126629  32.081  15.205   9.163
 1759POPC   GL226630  31.983  15.558   9.238
 1759POPC   C1A26631  32.287  15.240   8.766
 1759POPC   D2A26632  32.568  15.232   8.393
 1759POPC   C3A26633  32.314  15.260   8.014
 1759POPC   C4A26634  32.299  15.114   7.609
 1759POPC   C1B26635  31.925  15.627   8.805
 1759POPC   C2B26636  32.023  15.461   8.378
 1759POPC   C3B26637  31.966  15.615   7.932
 1759POPC   C4B26638  32.053  15.534   7.460
 1760POPC   NC326639  34.310  14.297   9.871
 1760POPC   PO426640  33.772  14.356   9.586
 1760POPC   GL126641  33.881  14.418   9.191
 1760POPC   GL226642  34.210  14.292   9.241
 1760POPC   C1A26643  33.726  14.395   8.750
 1760POPC   D2A26644  33.696  14.078   8.416
 1760POPC   C3A26645  33.487  14.274   8.046
 1760POPC   C4A26646  33.540  14.554   7.703
 1760POPC   C1B26647  34.122  14.102   8.855
 1760POPC   C2B26648  34.210  14.246   8.456
 1760POPC   C3B26649  33.973  14.398   8.136
 1760POPC   C4B26650  33.874  14.110   7.766
 1761POPC   NC326651   9.896  42.718   9.511
 1761POPC   PO426652   9.546  42.213   9.413
 1761POPC   GL126653   9.464  42.257   9.029
 1761POPC   GL226654   9.404  41.914   8.907
 1761POPC   C1A26655   9.681  42.497   8.722
 1761POPC   D2A26656   9.995  42.247   8.495
 1761POPC   C3A26657  10.014  42.275   8.053
 1761POPC   C4A26658   9.763  42.549   7.771
 1761POPC   C1B26659   9.312  42.198   8.555
 1761POPC   C2B26660   9.538  42.376   8.234
 1761POPC   C3B26661   9.502  42.145   7.883
 1761POPC   C4B26662   9.263  41.970   7.581
 1762POPC   NC326663  26.456  33.118   9.502
 1762POPC   PO426664  25.799  33.411   9.471
 1762POPC   GL126665  26.065  33.145   9.147
 1762POPC   GL226666  26.427  33.221   9.004
 1762POPC   C1A26667  26.167  32.824   8.805
 1762POPC   D2A26668  26.322  32.847   8.398
 1762POPC   C3A26669  26.115  32.889   7.977
 1762POPC   C4A26670  26.252  32.916   7.568
 1762POPC   C1B26671  26.122  33.295   8.657
 1762POPC   C2B26672  26.079  33.312   8.246
 1762POPC   C3B26673  26.164  33.399   7.820
 1762POPC   C4B26674  26.173  33.411   7.369
 1763POPC   NC326675  33.657  35.152   9.553
 1763POPC   PO426676  34.352  35.384   9.563
 1763POPC   GL126677  34.095  35.232   9.200
 1763POPC   GL226678  33.777  35.407   9.136
 1763POPC   C1A26679  34.101  35.286   8.748
 1763POPC   D2A26680  34.151  35.451   8.320
 1763POPC   C3A26681  34.096  35.184   7.960
 1763POPC   C4A26682  33.931  35.135   7.507
 1763POPC   C1B26683  33.483  35.352   8.801
 1763POPC   C2B26684  33.280  35.408   8.398
 1763POPC   C3B26685  33.436  35.533   7.983
 1763POPC   C4B26686  33.514  35.731   7.541
 1764POPC   NC326687  38.255  13.155   9.268
 1764POPC   PO426688  38.618  12.871   9.666
 1764POPC   GL126689  38.620  12.787   9.198
 1764POPC   GL226690  38.341  12.554   9.040
 1764POPC   C1A26691  38.503  12.925   8.743
 1764POPC   D2A26692  38.158  13.150   8.567
 1764POPC   C3A26693  38.231  13.182   8.133
 1764POPC   C4A26694  38.354  12.976   7.767
 1764POPC   C1B26695  38.152  12.592   8.608
 1764POPC   C2B26696  38.375  12.693   8.236
 1764POPC   C3B26697  38.490  12.458   7.855
 1764POPC   C4B26698  38.573  12.359   7.386
 1765POPC   NC326699   3.980   5.042   9.459
 1765POPC   PO426700   4.548   5.215   9.410
 1765POPC   GL126701   4.327   5.133   9.061
 1765POPC   GL226702   4.294   4.789   9.129
 1765POPC   C1A26703   4.337   5.371   8.679
 1765POPC   D2A26704   4.578   5.286   8.323
 1765POPC   C3A26705   4.387   5.014   8.016
 1765POPC   C4A26706   4.473   5.194   7.657
 1765POPC   C1B26707   4.036   4.754   8.763
 1765POPC   C2B26708   4.016   4.931   8.366
 1765POPC   C3B26709   3.970   4.697   7.991
 1765POPC   C4B26710   4.182   4.757   7.604
 1766POPC   NC326711  30.177  10.864   9.540
 1766POPC   PO426712  29.944  10.281   9.377
 1766POPC   GL126713  30.106  10.601   9.109
 1766POPC   GL226714  29.795  10.777   9.212
 1766POPC   C1A26715  30.210  10.461   8.697
 1766POPC   D2A26716  30.038  10.304   8.306
 1766POPC   C3A26717  30.179  10.391   7.881
 1766POPC   C4A26718  30.241  10.462   7.437
 1766POPC   C1B26719  29.711  10.611   8.784
 1766POPC   C2B26720  29.626  10.762   8.362
 1766POPC   C3B26721  29.691  10.514   7.976
 1766POPC   C4B26722  29.791  10.062   7.902
 1767POPC   NC326723  38.682  33.282   9.809
 1767POPC   PO426724  38.206  32.900   9.512
 1767POPC   GL126725  38.523  32.889   9.181
 1767POPC   GL226726  38.583  32.612   9.093
 1767POPC   C1A26727  38.626  33.049   8.768
 1767POPC   D2A26728  38.452  33.241   8.408
 1767POPC   C3A26729  38.636  33.285   8.006
 1767POPC   C4A26730  38.345  33.193   7.699
 1767POPC   C1B26731  38.268  32.645   8.801
 1767POPC   C2B26732  38.454  32.573   8.427
 1767POPC   C3B26733  38.441  32.783   8.037
 1767POPC   C4B26734  38.408  32.695   7.612
 1768POPC   NC326735   3.347   0.773   9.836
 1768POPC   PO426736   2.692   0.791   9.531
 1768POPC   GL126737   2.700   1.106   9.221
 1768POPC   GL226738   3.026   1.208   9.234
 1768POPC   C1A26739   2.726   1.032   8.793
 1768POPC   D2A26740   2.946   1.025   8.420
 1768POPC   C3A26741   2.702   1.238   8.099
 1768POPC   C4A26742   2.807   1.232   7.670
 1768POPC   C1B26743   3.230   1.216   8.826
 1768POPC   C2B26744   3.392   1.281   8.407
 1768POPC   C3B26745   3.222   1.199   7.993
 1768POPC   C4B26746   3.234   1.508   7.678
 1769POPC   NC326747  33.354  29.751   9.520
 1769POPC   PO426748  34.021  29.880   9.581
 1769POPC   GL126749  33.970  29.934   9.129
 1769POPC   GL226750  33.942  30.306   9.082
 1769POPC   C1A26751  33.785  29.655   8.783
 1769POPC   D2A26752  33.747  29.445   8.371
 1769POPC   C3A26753  33.652  29.768   8.083
 1769POPC   C4A26754  33.766  29.895   7.695
 1769POPC   C1B26755  33.617  30.247   8.788
 1769POPC   C2B26756  33.696  30.251   8.366
 1769POPC   C3B26757  33.603  30.296   7.965
 1769POPC   C4B26758  33.829  30.461   7.626
 1770POPC   NC326759  13.224  44.292   9.555
 1770POPC   PO426760  13.556  44.865   9.505
 1770POPC   GL126761  13.493  44.665   9.169
 1770POPC   GL226762  13.178  44.607   9.158
 1770POPC   C1A26763  13.643  44.623   8.783
 1770POPC   D2A26764  13.518  44.618   8.387
 1770POPC   C3A26765  13.788  44.733   8.081
 1770POPC   C4A26766  13.608  44.925   7.770
 1770POPC   C1B26767  13.157  44.458   8.746
 1770POPC   C2B26768  13.085  44.386   8.297
 1770POPC   C3B26769  13.318  44.481   7.899
 1770POPC   C4B26770  13.383  44.185   7.590
 1771POPC   NC326771  17.908  32.594   9.441
 1771POPC   PO426772  17.360  32.183   9.618
 1771POPC   GL126773  17.329  32.357   9.210
 1771POPC   GL226774  17.649  32.269   9.135
 1771POPC   C1A26775  17.151  32.337   8.797
 1771POPC   D2A26776  17.217  32.096   8.402
 1771POPC   C3A26777  17.505  32.299   8.127
 1771POPC   C4A26778  17.480  32.453   7.707
 1771POPC   C1B26779  17.657  32.163   8.703
 1771POPC   C2B26780  17.854  31.946   8.363
 1771POPC   C3B26781  17.852  31.950   7.933
 1771POPC   C4B26782  17.868  32.167   7.542
 1772POPC   NC326783  39.122  24.129   9.541
 1772POPC   PO426784  39.389  23.591   9.738
 1772POPC   GL126785  39.303  23.767   9.281
 1772POPC   GL226786  39.578  23.866   9.064
 1772POPC   C1A26787  39.104  23.784   8.882
 1772POPC   D2A26788  39.303  23.681   8.481
 1772POPC   C3A26789  39.087  23.851   8.114
 1772POPC   C4A26790  38.967  23.602   7.769
 1772POPC   C1B26791  39.720  23.994   8.633
 1772POPC   C2B26792  39.574  24.034   8.203
 1772POPC   C3B26793  39.523  23.771   7.852
 1772POPC   C4B26794  39.559  23.873   7.398
 1773POPC   NC326795  10.883  23.023   9.647
 1773POPC   PO426796  10.345  22.588   9.491
 1773POPC   GL126797  10.525  22.818   9.225
 1773POPC   GL226798  10.416  22.582   8.940
 1773POPC   C1A26799  10.540  23.055   8.890
 1773POPC   D2A26800  10.595  22.898   8.521
 1773POPC   C3A26801  10.650  23.214   8.232
 1773POPC   C4A26802  10.671  23.272   7.804
 1773POPC   C1B26803  10.885  22.657   8.892
 1773POPC   C2B26804  11.073  22.698   8.467
 1773POPC   C3B26805  10.809  22.737   8.086
 1773POPC   C4B26806  10.749  22.808   7.641
 1774POPC   NC326807  21.761  10.031   9.559
 1774POPC   PO426808  21.246   9.668   9.618
 1774POPC   GL126809  21.206   9.666   9.177
 1774POPC   GL226810  21.441   9.923   9.099
 1774POPC   C1A26811  21.281   9.581   8.718
 1774POPC   D2A26812  21.400   9.758   8.307
 1774POPC   C3A26813  21.511   9.497   7.954
 1774POPC   C4A26814  21.224   9.301   7.685
 1774POPC   C1B26815  21.619  10.056   8.696
 1774POPC   C2B26816  21.546  10.244   8.284
 1774POPC   C3B26817  21.567  10.034   7.881
 1774POPC   C4B26818  21.948   9.836   7.722
 1775POPC   NC326819  27.444  25.290   9.564
 1775POPC   PO426820  27.905  24.978   9.519
 1775POPC   GL126821  27.624  25.080   9.134
 1775POPC   GL226822  27.256  25.021   9.113
 1775POPC   C1A26823  27.455  25.432   8.870
 1775POPC   D2A26824  27.350  25.500   8.419
 1775POPC   C3A26825  27.646  25.444   8.068
 1775POPC   C4A26826  27.602  25.190   7.682
 1775POPC   C1B26827  27.394  24.984   8.634
 1775POPC   C2B26828  27.518  24.960   8.171
 1775POPC   C3B26829  27.531  24.690   7.787
 1775POPC   C4B26830  27.400  24.825   7.342
 1776POPC   NC326831   8.716   1.936   9.495
 1776POPC   PO426832   9.284   2.142   9.634
 1776POPC   GL126833   9.145   1.955   9.219
 1776POPC   GL226834   9.275   2.143   8.999
 1776POPC   C1A26835   8.872   1.831   8.867
 1776POPC   D2A26836   8.789   1.691   8.456
 1776POPC   C3A26837   8.851   1.915   8.084
 1776POPC   C4A26838   8.799   1.917   7.635
 1776POPC   C1B26839   9.348   1.873   8.659
 1776POPC   C2B26840   9.453   2.108   8.303
 1776POPC   C3B26841   9.301   2.057   7.887
 1776POPC   C4B26842   9.389   1.636   7.779
 1777POPC   NC326843  42.578  15.373   9.591
 1777POPC   PO426844  41.934  15.165   9.525
 1777POPC   GL126845  42.216  15.002   9.181
 1777POPC   GL226846  42.041  14.745   8.955
 1777POPC   C1A26847  42.511  15.248   8.908
 1777POPC   D2A26848  42.371  15.563   8.623
 1777POPC   C3A26849  42.493  15.540   8.217
 1777POPC   C4A26850  42.420  15.521   7.772
 1777POPC   C1B26851  42.434  14.764   8.762
 1777POPC   C2B26852  42.569  15.038   8.427
 1777POPC   C3B26853  42.415  15.011   8.037
 1777POPC   C4B26854  42.300  14.757   7.705
 1778POPC   NC326855   7.493   1.032   9.418
 1778POPC   PO426856   7.358   1.684   9.543
 1778POPC   GL126857   7.273   1.409   9.160
 1778POPC   GL226858   7.627   1.325   9.017
 1778POPC   C1A26859   7.216   1.233   8.725
 1778POPC   D2A26860   7.251   1.450   8.334
 1778POPC   C3A26861   7.401   1.226   7.984
 1778POPC   C4A26862   7.207   1.166   7.556
 1778POPC   C1B26863   7.704   1.000   8.685
 1778POPC   C2B26864   7.631   0.818   8.257
 1778POPC   C3B26865   7.736   0.870   7.800
 1778POPC   C4B26866   7.760   1.053   7.337
 1779POPC   NC326867   9.498  28.944   9.305
 1779POPC   PO426868   9.990  29.362   9.495
 1779POPC   GL126869   9.922  29.189   9.103
 1779POPC   GL226870   9.635  29.341   8.958
 1779POPC   C1A26871   9.873  28.907   8.741
 1779POPC   D2A26872   9.895  28.937   8.292
 1779POPC   C3A26873   9.622  29.001   7.973
 1779POPC   C4A26874   9.842  29.149   7.691
 1779POPC   C1B26875   9.925  29.407   8.613
 1779POPC   C2B26876   9.924  29.673   8.232
 1779POPC   C3B26877   9.588  29.585   7.940
 1779POPC   C4B26878   9.345  29.330   7.672
 1780POPC   NC326879   5.903  30.932   9.833
 1780POPC   PO426880   5.304  30.916   9.645
 1780POPC   GL126881   5.653  31.016   9.303
 1780POPC   GL226882   6.011  30.877   9.258
 1780POPC   C1A26883   5.706  30.979   8.834
 1780POPC   D2A26884   5.790  30.761   8.425
 1780POPC   C3A26885   5.868  30.900   7.986
 1780POPC   C4A26886   5.593  31.070   7.649
 1780POPC   C1B26887   6.133  30.681   8.820
 1780POPC   C2B26888   6.250  30.544   8.368
 1780POPC   C3B26889   6.159  30.467   7.908
 1780POPC   C4B26890   6.185  30.233   7.489
 1781POPC   NC326891  15.400  37.375   9.354
 1781POPC   PO426892  15.406  37.945   9.734
 1781POPC   GL126893  15.173  37.879   9.284
 1781POPC   GL226894  15.340  37.719   9.001
 1781POPC   C1A26895  14.892  37.915   8.859
 1781POPC   D2A26896  14.867  37.954   8.363
 1781POPC   C3A26897  14.978  37.604   8.015
 1781POPC   C4A26898  15.286  37.287   7.822
 1781POPC   C1B26899  15.573  37.857   8.652
 1781POPC   C2B26900  15.457  37.965   8.246
 1781POPC   C3B26901  15.422  37.798   7.848
 1781POPC   C4B26902  15.688  37.763   7.492
 1782POPC   NC326903   4.046  21.019   9.365
 1782POPC   PO426904   3.761  20.391   9.458
 1782POPC   GL126905   3.538  20.438   9.104
 1782POPC   GL226906   3.369  20.155   9.039
 1782POPC   C1A26907   3.547  20.722   8.764
 1782POPC   D2A26908   3.651  20.704   8.343
 1782POPC   C3A26909   3.301  20.707   8.039
 1782POPC   C4A26910   3.127  20.994   7.761
 1782POPC   C1B26911   3.311  20.278   8.619
 1782POPC   C2B26912   3.165  20.246   8.213
 1782POPC   C3B26913   3.445  20.268   7.839
 1782POPC   C4B26914   3.816  20.537   7.877
 1783POPC   NC326915  43.251   0.378   9.505
 1783POPC   PO426916  42.869   0.843   9.266
 1783POPC   GL126917  43.053   0.586   8.966
 1783POPC   GL226918  43.236   0.292   9.019
 1783POPC   C1A26919  42.978   0.372   8.569
 1783POPC   D2A26920  42.953   0.277   8.128
 1783POPC   C3A26921  42.883   0.643   7.842
 1783POPC   C4A26922  42.757   0.897   7.469
 1783POPC   C1B26923  43.494   0.434   8.666
 1783POPC   C2B26924  43.434   0.396   8.252
 1783POPC   C3B26925  43.360   0.397   7.818
 1783POPC   C4B26926  43.375   0.291   7.357
 1784POPC   NC326927  16.469   5.334   9.392
 1784POPC   PO426928  16.170   4.874   9.757
 1784POPC   GL126929  16.008   4.940   9.271
 1784POPC   GL226930  15.895   5.294   9.230
 1784POPC   C1A26931  16.149   4.933   8.778
 1784POPC   D2A26932  16.408   4.843   8.367
 1784POPC   C3A26933  16.185   5.009   8.023
 1784POPC   C4A26934  15.804   4.809   7.914
 1784POPC   C1B26935  15.952   5.421   8.804
 1784POPC   C2B26936  16.127   5.427   8.367
 1784POPC   C3B26937  15.874   5.431   7.976
 1784POPC   C4B26938  15.595   5.211   7.680
 1785POPC   NC326939  14.145  29.970   9.512
 1785POPC   PO426940  14.535  29.518   9.676
 1785POPC   GL126941  14.534  29.758   9.284
 1785POPC   GL226942  14.304  29.532   9.139
 1785POPC   C1A26943  14.347  29.994   8.903
 1785POPC   D2A26944  14.297  29.861   8.489
 1785POPC   C3A26945  14.400  30.147   8.170
 1785POPC   C4A26946  14.205  30.153   7.768
 1785POPC   C1B26947  14.643  29.584   8.823
 1785POPC   C2B26948  14.803  29.801   8.451
 1785POPC   C3B26949  14.627  29.695   8.078
 1785POPC   C4B26950  14.634  29.858   7.701
 1786POPC   NC326951   7.162  20.499   9.441
 1786POPC   PO426952   7.630  20.061   9.464
 1786POPC   GL126953   7.487  20.344   9.073
 1786POPC   GL226954   7.315  20.716   9.026
 1786POPC   C1A26955   7.238  20.389   8.671
 1786POPC   D2A26956   7.453  20.564   8.312
 1786POPC   C3A26957   7.285  20.697   7.937
 1786POPC   C4A26958   7.282  20.541   7.527
 1786POPC   C1B26959   7.698  20.695   8.761
 1786POPC   C2B26960   7.875  20.869   8.381
 1786POPC   C3B26961   7.738  20.922   7.991
 1786POPC   C4B26962   7.522  20.997   7.574
 1787POPC   NC326963   7.754  15.662   9.543
 1787POPC   PO426964   8.439  15.660   9.601
 1787POPC   GL126965   8.372  15.725   9.198
 1787POPC   GL226966   8.138  15.475   9.167
 1787POPC   C1A26967   8.469  15.820   8.779
 1787POPC   D2A26968   8.270  16.082   8.503
 1787POPC   C3A26969   8.317  15.954   8.086
 1787POPC   C4A26970   7.968  16.022   7.815
 1787POPC   C1B26971   7.983  15.547   8.742
 1787POPC   C2B26972   7.898  15.752   8.322
 1787POPC   C3B26973   8.010  15.530   7.926
 1787POPC   C4B26974   7.798  15.584   7.540
 1788POPC   NC326975   7.615   6.147   9.672
 1788POPC   PO426976   7.227   6.650   9.505
 1788POPC   GL126977   7.459   6.636   9.101
 1788POPC   GL226978   7.645   6.320   9.156
 1788POPC   C1A26979   7.622   6.871   8.717
 1788POPC   D2A26980   7.422   7.011   8.314
 1788POPC   C3A26981   7.520   7.011   7.904
 1788POPC   C4A26982   7.217   6.888   7.588
 1788POPC   C1B26983   7.604   6.361   8.699
 1788POPC   C2B26984   7.632   6.548   8.299
 1788POPC   C3B26985   7.347   6.549   7.975
 1788POPC   C4B26986   7.444   6.137   7.882
 1789POPC   NC326987  11.697  16.679   9.525
 1789POPC   PO426988  12.433  16.919   9.387
 1789POPC   GL126989  12.245  16.878   8.998
 1789POPC   GL226990  11.891  16.840   9.074
 1789POPC   C1A26991  12.114  16.771   8.584
 1789POPC   D2A26992  12.028  16.369   8.395
 1789POPC   C3A26993  12.096  16.282   7.994
 1789POPC   C4A26994  12.076  16.527   7.643
 1789POPC   C1B26995  11.695  17.064   8.740
 1789POPC   C2B26996  11.686  16.922   8.349
 1789POPC   C3B26997  11.953  16.790   8.069
 1789POPC   C4B26998  11.790  16.931   7.702
 1790POPC   NC326999  43.580  28.882   9.503
 1790POPC   PO427000  44.221  28.975   9.582
 1790POPC   GL127001  43.957  28.948   9.176
 1790POPC   GL227002  43.710  29.223   9.135
 1790POPC   C1A27003  43.751  28.894   8.751
 1790POPC   D2A27004  43.679  29.140   8.378
 1790POPC   C3A27005  43.770  28.917   8.012
 1790POPC   C4A27006  44.129  28.969   7.780
 1790POPC   C1B27007  43.968  29.368   8.785
 1790POPC   C2B27008  43.947  29.572   8.382
 1790POPC   C3B27009  43.894  29.410   7.959
 1790POPC   C4B27010  43.916  29.423   7.517
 1791POPC   NC327011  12.566  18.527   9.331
 1791POPC   PO427012  12.432  17.836   9.393
 1791POPC   GL127013  12.653  18.058   9.125
 1791POPC   GL227014  12.354  18.184   8.975
 1791POPC   C1A27015  13.005  18.085   8.858
 1791POPC   D2A27016  13.117  18.051   8.434
 1791POPC   C3A27017  12.918  18.356   8.206
 1791POPC   C4A27018  13.009  18.392   7.815
 1791POPC   C1B27019  12.586  18.238   8.617
 1791POPC   C2B27020  12.607  17.958   8.292
 1791POPC   C3B27021  12.474  18.030   7.890
 1791POPC   C4B27022  12.569  18.245   7.573
 1792POPC   NC327023  36.638  23.639   9.584
 1792POPC   PO427024  36.063  24.019   9.448
 1792POPC   GL127025  36.192  23.668   9.152
 1792POPC   GL227026  36.470  23.374   9.154
 1792POPC   C1A27027  36.078  23.775   8.747
 1792POPC   D2A27028  35.855  24.027   8.439
 1792POPC   C3A27029  35.983  23.893   8.033
 1792POPC   C4A27030  35.918  23.532   7.758
 1792POPC   C1B27031  36.547  23.574   8.722
 1792POPC   C2B27032  36.361  23.638   8.310
 1792POPC   C3B27033  36.403  23.582   7.856
 1792POPC   C4B27034  36.559  23.694   7.474
 1793POPC   NC327035  31.284   4.021   9.434
 1793POPC   PO427036  31.350   4.727   9.506
 1793POPC   GL127037  31.648   4.442   9.233
 1793POPC   GL227038  31.478   4.177   8.999
 1793POPC   C1A27039  31.843   4.456   8.812
 1793POPC   D2A27040  31.710   4.212   8.462
 1793POPC   C3A27041  31.817   4.394   8.092
 1793POPC   C4A27042  31.616   4.513   7.710
 1793POPC   C1B27043  31.292   4.450   8.705
 1793POPC   C2B27044  31.288   4.411   8.256
 1793POPC   C3B27045  31.225   4.239   7.876
 1793POPC   C4B27046  31.096   4.521   7.566
 1794POPC   NC327047  31.020  10.987   9.429
 1794POPC   PO427048  31.136  11.583   9.451
 1794POPC   GL127049  30.847  11.396   9.135
 1794POPC   GL227050  30.510  11.211   9.234
 1794POPC   C1A27051  30.883  11.252   8.701
 1794POPC   D2A27052  30.604  11.168   8.328
 1794POPC   C3A27053  30.897  11.104   7.965
 1794POPC   C4A27054  31.147  10.866   7.646
 1794POPC   C1B27055  30.406  11.365   8.802
 1794POPC   C2B27056  30.334  11.690   8.452
 1794POPC   C3B27057  30.227  11.656   8.009
 1794POPC   C4B27058  30.336  11.240   7.874
 1795POPC   NC327059  31.412   3.439   9.827
 1795POPC   PO427060  31.714   3.856   9.350
 1795POPC   GL127061  31.579   3.681   9.017
 1795POPC   GL227062  31.307   3.550   9.166
 1795POPC   C1A27063  31.533   3.745   8.588
 1795POPC   D2A27064  31.349   3.876   8.219
 1795POPC   C3A27065  31.507   3.587   7.926
 1795POPC   C4A27066  31.538   3.644   7.502
 1795POPC   C1B27067  31.093   3.774   8.829
 1795POPC   C2B27068  30.982   3.597   8.446
 1795POPC   C3B27069  30.994   3.439   8.053
 1795POPC   C4B27070  31.070   3.669   7.681
 1796POPC   NC327071  25.364  33.310   9.572
 1796POPC   PO427072  25.239  32.624   9.535
 1796POPC   GL127073  25.236  32.937   9.198
 1796POPC   GL227074  25.564  33.009   9.208
 1796POPC   C1A27075  25.169  33.058   8.760
 1796POPC   D2A27076  25.177  32.880   8.338
 1796POPC   C3A27077  25.054  33.214   8.043
 1796POPC   C4A27078  24.945  33.173   7.583
 1796POPC   C1B27079  25.626  32.847   8.793
 1796POPC   C2B27080  25.829  32.813   8.414
 1796POPC   C3B27081  25.631  32.789   8.041
 1796POPC   C4B27082  25.347  32.921   7.775
 1797POPC   NC327083  13.596  15.358   9.442
 1797POPC   PO427084  13.879  14.773   9.395
 1797POPC   GL127085  13.622  14.975   9.086
 1797POPC   GL227086  13.726  15.317   8.944
 1797POPC   C1A27087  13.407  15.010   8.724
 1797POPC   D2A27088  13.589  15.296   8.421
 1797POPC   C3A27089  13.610  15.141   7.994
 1797POPC   C4A27090  13.519  15.140   7.590
 1797POPC   C1B27091  13.358  15.564   8.801
 1797POPC   C2B27092  13.189  15.756   8.428
 1797POPC   C3B27093  13.370  15.602   8.076
 1797POPC   C4B27094  13.608  15.629   7.715
 1798POPC   NC327095  26.487  32.178   9.477
 1798POPC   PO427096  27.095  32.065   9.154
 1798POPC   GL127097  26.995  32.447   8.996
 1798POPC   GL227098  26.659  32.448   9.085
 1798POPC   C1A27099  26.960  32.383   8.567
 1798POPC   D2A27100  26.887  31.990   8.322
 1798POPC   C3A27101  27.041  32.006   7.899
 1798POPC   C4A27102  26.899  32.259   7.526
 1798POPC   C1B27103  26.465  32.431   8.692
 1798POPC   C2B27104  26.567  32.429   8.261
 1798POPC   C3B27105  26.570  32.189   7.933
 1798POPC   C4B27106  26.382  32.362   7.603
 1799POPC   NC327107  34.182  14.751   9.501
 1799POPC   PO427108  33.737  15.315   9.618
 1799POPC   GL127109  33.810  15.289   9.189
 1799POPC   GL227110  33.863  14.946   9.142
 1799POPC   C1A27111  33.748  15.283   8.735
 1799POPC   D2A27112  33.876  15.096   8.318
 1799POPC   C3A27113  33.615  15.210   7.943
 1799POPC   C4A27114  33.554  15.397   7.510
 1799POPC   C1B27115  34.145  14.708   8.852
 1799POPC   C2B27116  34.332  14.745   8.466
 1799POPC   C3B27117  34.268  14.877   8.055
 1799POPC   C4B27118  33.953  14.819   7.818
 1800POPC   NC327119  16.386   8.988   9.425
 1800POPC   PO427120  17.039   8.664   9.456
 1800POPC   GL127121  16.785   8.816   9.149
 1800POPC   GL227122  16.782   9.186   9.151
 1800POPC   C1A27123  16.582   8.926   8.772
 1800POPC   D2A27124  16.730   9.145   8.415
 1800POPC   C3A27125  16.586   9.068   7.999
 1800POPC   C4A27126  16.515   9.209   7.574
 1800POPC   C1B27127  17.058   9.141   8.817
 1800POPC   C2B27128  17.110   8.810   8.533
 1800POPC   C3B27129  17.142   8.659   8.117
 1800POPC   C4B27130  16.978   8.871   7.711
 1801POPC   NC327131  27.757  33.338   9.832
 1801POPC   PO427132  27.791  32.835   9.426
 1801POPC   GL127133  27.730  33.012   9.056
 1801POPC   GL227134  27.940  33.278   9.141
 1801POPC   C1A27135  27.888  32.849   8.676
 1801POPC   D2A27136  28.080  32.808   8.282
 1801POPC   C3A27137  27.757  32.643   7.983
 1801POPC   C4A27138  27.744  32.633   7.507
 1801POPC   C1B27139  27.883  33.410   8.735
 1801POPC   C2B27140  27.546  33.194   8.548
 1801POPC   C3B27141  27.482  33.070   8.137
 1801POPC   C4B27142  27.463  32.970   7.732
 1802POPC   NC327143  18.051  36.097   9.470
 1802POPC   PO427144  18.691  35.937   9.349
 1802POPC   GL127145  18.451  36.199   9.088
 1802POPC   GL227146  18.099  36.317   9.024
 1802POPC   C1A27147  18.506  36.425   8.761
 1802POPC   D2A27148  18.190  36.407   8.472
 1802POPC   C3A27149  18.429  36.277   8.161
 1802POPC   C4A27150  18.547  36.230   7.780
 1802POPC   C1B27151  18.112  35.931   8.802
 1802POPC   C2B27152  18.173  35.865   8.381
 1802POPC   C3B27153  18.082  35.957   7.959
 1802POPC   C4B27154  18.175  35.846   7.531
 1803POPC   NC327155  37.253   3.166   9.491
 1803POPC   PO427156  36.641   3.438   9.698
 1803POPC   GL127157  36.664   3.461   9.177
 1803POPC   GL227158  36.945   3.298   9.129
 1803POPC   C1A27159  36.950   3.636   8.774
 1803POPC   D2A27160  37.030   3.923   8.424
 1803POPC   C3A27161  36.983   3.668   8.090
 1803POPC   C4A27162  36.906   3.510   7.698
 1803POPC   C1B27163  37.204   3.179   8.791
 1803POPC   C2B27164  37.379   3.262   8.395
 1803POPC   C3B27165  37.393   3.408   7.963
 1803POPC   C4B27166  37.364   3.209   7.570
 1804POPC   NC327167  16.206  24.345   9.582
 1804POPC   PO427168  15.625  24.683   9.501
 1804POPC   GL127169  15.897  24.481   9.192
 1804POPC   GL227170  15.795  24.182   9.041
 1804POPC   C1A27171  16.163  24.493   8.817
 1804POPC   D2A27172  15.957  24.720   8.490
 1804POPC   C3A27173  16.081  24.709   8.069
 1804POPC   C4A27174  15.994  24.666   7.655
 1804POPC   C1B27175  15.797  24.166   8.617
 1804POPC   C2B27176  16.067  24.242   8.288
 1804POPC   C3B27177  15.957  24.218   7.884
 1804POPC   C4B27178  15.939  24.091   7.475
 1805POPC   NC327179  40.054  33.192   9.421
 1805POPC   PO427180  39.638  32.661   9.526
 1805POPC   GL127181  39.839  32.836   9.124
 1805POPC   GL227182  40.207  32.803   9.082
 1805POPC   C1A27183  39.926  33.153   8.772
 1805POPC   D2A27184  39.630  33.331   8.467
 1805POPC   C3A27185  39.811  33.317   8.065
 1805POPC   C4A27186  40.058  33.450   7.694
 1805POPC   C1B27187  40.058  32.672   8.670
 1805POPC   C2B27188  40.089  32.933   8.288
 1805POPC   C3B27189  39.915  32.860   7.865
 1805POPC   C4B27190  39.772  32.526   7.580
 1806POPC   NC327191  18.196   2.371   9.433
 1806POPC   PO427192  18.484   2.879   9.443
 1806POPC   GL127193  18.218   2.796   9.116
 1806POPC   GL227194  18.469   2.531   9.032
 1806POPC   C1A27195  17.995   2.524   8.806
 1806POPC   D2A27196  17.942   2.385   8.385
 1806POPC   C3A27197  18.180   2.699   8.134
 1806POPC   C4A27198  18.159   3.005   7.789
 1806POPC   C1B27199  18.465   2.770   8.656
 1806POPC   C2B27200  18.663   3.045   8.350
 1806POPC   C3B27201  18.642   2.967   7.919
 1806POPC   C4B27202  18.461   2.569   7.714
 1807POPC   NC327203  18.973  26.269   9.436
 1807POPC   PO427204  19.222  26.926   9.428
 1807POPC   GL127205  19.130  26.719   9.084
 1807POPC   GL227206  18.823  26.614   9.096
 1807POPC   C1A27207  19.024  26.899   8.695
 1807POPC   D2A27208  18.792  26.903   8.333
 1807POPC   C3A27209  19.032  26.945   7.961
 1807POPC   C4A27210  19.147  27.227   7.638
 1807POPC   C1B27211  18.710  26.502   8.679
 1807POPC   C2B27212  19.012  26.442   8.322
 1807POPC   C3B27213  18.979  26.330   7.902
 1807POPC   C4B27214  19.140  26.402   7.493
 1808POPC   NC327215   2.548  40.850   9.488
 1808POPC   PO427216   3.003  40.400   9.505
 1808POPC   GL127217   2.906  40.678   9.162
 1808POPC   GL227218   3.114  40.973   9.211
 1808POPC   C1A27219   2.746  40.789   8.756
 1808POPC   D2A27220   2.646  40.542   8.409
 1808POPC   C3A27221   2.791  40.676   8.016
 1808POPC   C4A27222   2.640  40.893   7.658
 1808POPC   C1B27223   3.221  41.076   8.786
 1808POPC   C2B27224   3.127  40.890   8.369
 1808POPC   C3B27225   3.092  41.113   8.011
 1808POPC   C4B27226   3.022  41.244   7.619
 1809POPC   NC327227   9.971   0.161   9.362
 1809POPC   PO427228   9.394   0.395   9.535
 1809POPC   GL127229   9.641   0.617   9.208
 1809POPC   GL227230   9.525   0.947   9.087
 1809POPC   C1A27231   9.773   0.493   8.789
 1809POPC   D2A27232   9.664   0.193   8.441
 1809POPC   C3A27233   9.822   0.314   8.042
 1809POPC   C4A27234   9.892   0.573   7.669
 1809POPC   C1B27235   9.349   0.815   8.716
 1809POPC   C2B27236   9.582   0.702   8.352
 1809POPC   C3B27237   9.490   0.689   7.935
 1809POPC   C4B27238   9.472   0.741   7.445
 1810POPC   NC327239  23.766  19.556  10.185
 1810POPC   PO427240  24.034  19.453   9.626
 1810POPC   GL127241  23.950  19.452   9.140
 1810POPC   GL227242  23.885  19.115   8.982
 1810POPC   C1A27243  23.982  19.699   8.730
 1810POPC   D2A27244  24.124  19.763   8.292
 1810POPC   C3A27245  23.830  19.872   7.934
 1810POPC   C4A27246  23.825  20.064   7.502
 1810POPC   C1B27247  23.594  19.371   8.742
 1810POPC   C2B27248  23.660  19.534   8.319
 1810POPC   C3B27249  23.940  19.360   7.986
 1810POPC   C4B27250  23.856  19.035   7.649
 1811POPC   NC327251   0.778  16.781  10.120
 1811POPC   PO427252   0.376  16.865   9.627
 1811POPC   GL127253   0.404  16.945   9.189
 1811POPC   GL227254   0.737  17.040   9.145
 1811POPC   C1A27255   0.221  16.859   8.763
 1811POPC   D2A27256   0.328  16.935   8.306
 1811POPC   C3A27257   0.243  16.634   7.981
 1811POPC   C4A27258   0.049  16.430   7.615
 1811POPC   C1B27259   0.668  17.102   8.698
 1811POPC   C2B27260   0.833  17.014   8.278
 1811POPC   C3B27261   0.653  16.996   7.862
 1811POPC   C4B27262   0.693  17.065   7.403
 1812POPC   NC327263  16.573  31.398   9.433
 1812POPC   PO427264  17.232  31.427   9.424
 1812POPC   GL127265  16.942  31.273   9.097
 1812POPC   GL227266  16.708  31.564   8.980
 1812POPC   C1A27267  16.888  31.143   8.703
 1812POPC   D2A27268  16.924  31.548   8.498
 1812POPC   C3A27269  17.021  31.599   8.084
 1812POPC   C4A27270  16.784  31.399   7.798
 1812POPC   C1B27271  16.428  31.348   8.688
 1812POPC   C2B27272  16.512  31.326   8.243
 1812POPC   C3B27273  16.501  31.742   8.047
 1812POPC   C4B27274  16.805  31.981   7.826
 1813POPC   NC327275  40.925  40.606   9.505
 1813POPC   PO427276  40.581  41.106   9.748
 1813POPC   GL127277  40.673  40.994   9.272
 1813POPC   GL227278  40.616  40.657   9.064
 1813POPC   C1A27279  40.983  40.942   8.904
 1813POPC   D2A27280  40.776  40.743   8.568
 1813POPC   C3A27281  40.963  40.804   8.176
 1813POPC   C4A27282  40.916  40.939   7.776
 1813POPC   C1B27283  40.317  40.537   8.697
 1813POPC   C2B27284  40.353  40.517   8.249
 1813POPC   C3B27285  40.608  40.501   7.873
 1813POPC   C4B27286  40.578  40.629   7.462
 1814POPC   NC327287   3.663   7.068   9.706
 1814POPC   PO427288   3.684   6.472   9.369
 1814POPC   GL127289   3.521   6.809   9.183
 1814POPC   GL227290   3.829   6.796   8.972
 1814POPC   C1A27291   3.357   6.749   8.776
 1814POPC   D2A27292   3.660   6.595   8.483
 1814POPC   C3A27293   3.480   6.736   8.087
 1814POPC   C4A27294   3.684   6.992   7.802
 1814POPC   C1B27295   4.039   6.389   8.794
 1814POPC   C2B27296   4.132   6.333   8.359
 1814POPC   C3B27297   3.830   6.364   8.038
 1814POPC   C4B27298   3.650   6.454   7.662
 1815POPC   NC327299  20.534   4.793   9.353
 1815POPC   PO427300  20.395   5.473   9.491
 1815POPC   GL127301  20.607   5.313   9.180
 1815POPC   GL227302  20.309   5.187   9.076
 1815POPC   C1A27303  20.926   5.202   8.889
 1815POPC   D2A27304  20.912   4.871   8.570
 1815POPC   C3A27305  20.873   4.979   8.120
 1815POPC   C4A27306  21.127   4.749   7.841
 1815POPC   C1B27307  20.456   5.098   8.699
 1815POPC   C2B27308  20.423   4.852   8.347
 1815POPC   C3B27309  20.335   4.947   7.950
 1815POPC   C4B27310  20.158   4.644   7.708
 1816POPC   NC327311  37.456  24.193   9.430
 1816POPC   PO427312  37.793  23.536   9.417
 1816POPC   GL127313  37.737  23.877   9.118
 1816POPC   GL227314  37.419  23.809   9.051
 1816POPC   C1A27315  37.722  23.901   8.641
 1816POPC   D2A27316  37.868  23.615   8.284
 1816POPC   C3A27317  37.791  23.816   7.888
 1816POPC   C4A27318  37.379  23.962   7.773
 1816POPC   C1B27319  37.588  23.428   8.802
 1816POPC   C2B27320  37.405  23.277   8.448
 1816POPC   C3B27321  37.372  23.511   8.099
 1816POPC   C4B27322  37.524  23.405   7.738
 1817POPC   NC327323  39.662   7.508   9.482
 1817POPC   PO427324  40.334   7.508   9.477
 1817POPC   GL127325  40.064   7.426   9.151
 1817POPC   GL227326  39.914   7.755   9.091
 1817POPC   C1A27327  39.810   7.332   8.786
 1817POPC   D2A27328  39.752   7.173   8.364
 1817POPC   C3A27329  40.085   7.288   8.106
 1817POPC   C4A27330  39.963   7.310   7.702
 1817POPC   C1B27331  39.674   7.854   8.705
 1817POPC   C2B27332  39.724   7.677   8.312
 1817POPC   C3B27333  39.839   7.746   7.890
 1817POPC   C4B27334  40.016   7.771   7.469
 1818POPC   NC327335  10.527  20.528   9.563
 1818POPC   PO427336  10.634  21.168   9.463
 1818POPC   GL127337  10.797  20.887   9.156
 1818POPC   GL227338  10.603  20.584   9.079
 1818POPC   C1A27339  10.745  20.871   8.711
 1818POPC   D2A27340  10.515  20.851   8.352
 1818POPC   C3A27341  10.811  20.864   8.037
 1818POPC   C4A27342  10.685  20.731   7.666
 1818POPC   C1B27343  10.183  20.484   8.904
 1818POPC   C2B27344  10.145  20.392   8.475
 1818POPC   C3B27345  10.451  20.370   8.139
 1818POPC   C4B27346  10.449  20.284   7.691
 1819POPC   NC327347  43.743  26.668   9.756
 1819POPC   PO427348  44.161  27.219   9.744
 1819POPC   GL127349  43.991  26.999   9.301
 1819POPC   GL227350  43.862  26.668   9.125
 1819POPC   C1A27351  44.043  27.019   8.817
 1819POPC   D2A27352  44.153  26.777   8.418
 1819POPC   C3A27353  44.022  26.913   7.978
 1819POPC   C4A27354  44.215  27.306   7.826
 1819POPC   C1B27355  43.576  26.743   8.743
 1819POPC   C2B27356  43.335  26.711   8.351
 1819POPC   C3B27357  43.496  26.807   7.938
 1819POPC   C4B27358  43.664  27.138   7.647
 1820POPC   NC327359  31.224  11.996   9.638
 1820POPC   PO427360  30.576  12.131   9.666
 1820POPC   GL127361  30.583  12.175   9.239
 1820POPC   GL227362  30.869  11.985   9.246
 1820POPC   C1A27363  30.657  12.365   8.846
 1820POPC   D2A27364  30.820  12.249   8.478
 1820POPC   C3A27365  30.587  12.060   8.169
 1820POPC   C4A27366  30.603  11.992   7.738
 1820POPC   C1B27367  30.673  11.825   8.864
 1820POPC   C2B27368  30.839  11.719   8.477
 1820POPC   C3B27369  30.725  11.588   8.076
 1820POPC   C4B27370  30.930  11.569   7.733
 1821POPC   NC327371  28.055   1.059   9.447
 1821POPC   PO427372  27.527   1.451   9.300
 1821POPC   GL127373  27.332   1.207   9.006
 1821POPC   GL227374  27.275   0.852   9.104
 1821POPC   C1A27375  27.523   1.335   8.638
 1821POPC   D2A27376  27.814   1.230   8.330
 1821POPC   C3A27377  27.766   1.430   7.936
 1821POPC   C4A27378  27.715   1.267   7.537
 1821POPC   C1B27379  27.432   0.831   8.672
 1821POPC   C2B27380  27.273   1.018   8.324
 1821POPC   C3B27381  27.455   1.033   7.963
 1821POPC   C4B27382  27.581   0.773   7.674
 1822POPC   NC327383   2.408  10.751   9.550
 1822POPC   PO427384   2.791  10.330   9.498
 1822POPC   GL127385   2.778  10.457   9.082
 1822POPC   GL227386   2.506  10.661   8.993
 1822POPC   C1A27387   2.911  10.636   8.668
 1822POPC   D2A27388   2.875  10.405   8.270
 1822POPC   C3A27389   2.831  10.583   7.848
 1822POPC   C4A27390   2.932  10.499   7.408
 1822POPC   C1B27391   2.552  10.272   8.666
 1822POPC   C2B27392   2.440  10.144   8.212
 1822POPC   C3B27393   2.487  10.219   7.756
 1822POPC   C4B27394   2.410  10.517   7.390
 1823POPC   NC327395  43.307  31.838   9.424
 1823POPC   PO427396  43.229  31.187   9.667
 1823POPC   GL127397  43.195  31.379   9.218
 1823POPC   GL227398  42.893  31.524   9.069
 1823POPC   C1A27399  43.305  31.526   8.770
 1823POPC   D2A27400  43.064  31.757   8.432
 1823POPC   C3A27401  43.258  31.682   8.067
 1823POPC   C4A27402  43.408  31.353   7.868
 1823POPC   C1B27403  42.929  31.181   8.697
 1823POPC   C2B27404  42.733  31.134   8.291
 1823POPC   C3B27405  42.849  31.393   7.941
 1823POPC   C4B27406  42.850  31.300   7.486
 1824POPC   NC327407  44.912  18.681   9.365
 1824POPC   PO427408  44.873  19.326   9.452
 1824POPC   GL127409  44.833  19.078   9.062
 1824POPC   GL227410  44.595  18.794   8.947
 1824POPC   C1A27411  44.943  19.033   8.637
 1824POPC   D2A27412  44.892  19.382   8.370
 1824POPC   C3A27413   0.074  19.330   7.955
 1824POPC   C4A27414  44.990  18.999   7.640
 1824POPC   C1B27415  44.426  19.182   8.745
 1824POPC   C2B27416  44.409  19.248   8.315
 1824POPC   C3B27417  44.605  19.030   8.014
 1824POPC   C4B27418  44.448  19.146   7.648
 1825POPC   NC327419   8.636  30.537   9.478
 1825POPC   PO427420   8.065  30.715   9.368
 1825POPC   GL127421   8.216  30.817   8.981
 1825POPC   GL227422   8.540  30.737   9.019
 1825POPC   C1A27423   8.223  30.694   8.577
 1825POPC   D2A27424   7.920  30.464   8.356
 1825POPC   C3A27425   8.010  30.486   7.945
 1825POPC   C4A27426   7.933  30.775   7.676
 1825POPC   C1B27427   8.763  30.905   8.707
 1825POPC   C2B27428   8.714  30.753   8.339
 1825POPC   C3B27429   8.376  30.851   8.088
 1825POPC   C4B27430   8.432  30.784   7.675
 1826POPC   NC327431  36.464  27.825   9.409
 1826POPC   PO427432  36.892  27.428   9.845
 1826POPC   GL127433  36.964  27.516   9.311
 1826POPC   GL227434  36.697  27.452   9.035
 1826POPC   C1A27435  37.132  27.559   8.825
 1826POPC   D2A27436  36.855  27.406   8.517
 1826POPC   C3A27437  36.986  27.436   8.099
 1826POPC   C4A27438  36.898  27.548   7.664
 1826POPC   C1B27439  36.707  27.844   8.801
 1826POPC   C2B27440  36.874  27.892   8.412
 1826POPC   C3B27441  36.672  27.855   8.018
 1826POPC   C4B27442  36.744  28.033   7.622
 1827POPC   NC327443  30.605  12.573   9.560
 1827POPC   PO427444  30.815  13.155   9.390
 1827POPC   GL127445  30.776  12.813   9.123
 1827POPC   GL227446  30.994  12.528   9.190
 1827POPC   C1A27447  30.883  12.839   8.702
 1827POPC   D2A27448  30.698  12.750   8.335
 1827POPC   C3A27449  30.841  12.942   7.959
 1827POPC   C4A27450  30.493  12.895   7.698
 1827POPC   C1B27451  31.224  12.467   8.770
 1827POPC   C2B27452  31.191  12.553   8.312
 1827POPC   C3B27453  30.884  12.432   7.989
 1827POPC   C4B27454  30.849  12.519   7.572
 1828POPC   NC327455  19.543  22.414   9.724
 1828POPC   PO427456  18.948  22.672   9.603
 1828POPC   GL127457  18.973  22.893   9.178
 1828POPC   GL227458  18.665  22.943   9.029
 1828POPC   C1A27459  19.063  23.071   8.732
 1828POPC   D2A27460  19.148  22.929   8.302
 1828POPC   C3A27461  18.955  23.156   7.925
 1828POPC   C4A27462  19.027  23.337   7.492
 1828POPC   C1B27463  18.747  22.670   8.713
 1828POPC   C2B27464  18.670  22.716   8.315
 1828POPC   C3B27465  18.892  22.651   7.963
 1828POPC   C4B27466  19.289  22.771   7.813
 1829POPC   NC327467   1.682  41.776   9.483
 1829POPC   PO427468   2.296  41.452   9.364
 1829POPC   GL127469   2.046  41.604   9.109
 1829POPC   GL227470   1.789  41.397   9.161
 1829POPC   C1A27471   2.161  41.716   8.683
 1829POPC   D2A27472   2.427  41.572   8.357
 1829POPC   C3A27473   2.159  41.557   8.052
 1829POPC   C4A27474   2.159  41.830   7.706
 1829POPC   C1B27475   1.891  41.261   8.778
 1829POPC   C2B27476   1.786  41.441   8.413
 1829POPC   C3B27477   1.703  41.282   8.043
 1829POPC   C4B27478   1.824  41.423   7.691
 1830POPC   NC327479  39.762  32.205   9.526
 1830POPC   PO427480  40.327  31.846   9.619
 1830POPC   GL127481  40.232  32.117   9.274
 1830POPC   GL227482  40.458  32.427   9.349
 1830POPC   C1A27483  40.012  32.011   8.879
 1830POPC   D2A27484  40.127  31.746   8.511
 1830POPC   C3A27485  40.009  31.920   8.114
 1830POPC   C4A27486  39.671  32.130   7.895
 1830POPC   C1B27487  40.467  32.382   8.898
 1830POPC   C2B27488  40.298  32.228   8.510
 1830POPC   C3B27489  40.014  32.418   8.221
 1830POPC   C4B27490  40.174  32.416   7.855
 1831POPC   NC327491  13.468  14.568   9.365
 1831POPC   PO427492  13.856  14.040   9.448
 1831POPC   GL127493  13.753  14.223   9.072
 1831POPC   GL227494  13.400  14.213   9.011
 1831POPC   C1A27495  13.722  14.524   8.729
 1831POPC   D2A27496  13.648  14.775   8.345
 1831POPC   C3A27497  13.879  14.680   7.962
 1831POPC   C4A27498  13.767  14.279   7.811
 1831POPC   C1B27499  13.209  14.539   8.741
 1831POPC   C2B27500  13.180  14.524   8.319
 1831POPC   C3B27501  13.352  14.679   7.910
 1831POPC   C4B27502  13.126  14.831   7.540
 1832POPC   NC327503  29.741   5.793   9.504
 1832POPC   PO427504  30.150   6.239   9.176
 1832POPC   GL127505  29.845   5.978   9.047
 1832POPC   GL227506  29.515   6.059   9.084
 1832POPC   C1A27507  29.892   5.836   8.684
 1832POPC   D2A27508  30.207   5.986   8.391
 1832POPC   C3A27509  30.192   5.776   8.045
 1832POPC   C4A27510  30.271   5.898   7.672
 1832POPC   C1B27511  29.389   5.939   8.693
 1832POPC   C2B27512  29.502   5.658   8.389
 1832POPC   C3B27513  29.696   5.645   8.013
 1832POPC   C4B27514  29.529   5.373   7.727
 1833POPC   NC327515   7.363  31.725   9.506
 1833POPC   PO427516   7.764  31.208   9.459
 1833POPC   GL127517   7.593  31.511   9.101
 1833POPC   GL227518   7.216  31.519   9.069
 1833POPC   C1A27519   7.449  31.553   8.643
 1833POPC   D2A27520   7.375  31.274   8.297
 1833POPC   C3A27521   7.309  31.530   7.953
 1833POPC   C4A27522   7.705  31.624   7.755
 1833POPC   C1B27523   7.112  31.173   8.748
 1833POPC   C2B27524   7.034  30.910   8.357
 1833POPC   C3B27525   7.087  31.022   7.924
 1833POPC   C4B27526   7.140  31.212   7.555
 1834POPC   NC327527   8.894  26.004   9.670
 1834POPC   PO427528   9.381  26.424   9.466
 1834POPC   GL127529   9.131  26.079   9.230
 1834POPC   GL227530   8.810  25.872   9.185
 1834POPC   C1A27531   9.253  25.858   8.869
 1834POPC   D2A27532   9.240  26.107   8.505
 1834POPC   C3A27533   9.290  25.965   8.112
 1834POPC   C4A27534   9.372  26.139   7.754
 1834POPC   C1B27535   8.755  25.965   8.728
 1834POPC   C2B27536   8.790  25.958   8.261
 1834POPC   C3B27537   8.851  26.134   7.854
 1834POPC   C4B27538   8.993  25.911   7.494
 1835POPC   NC327539  10.596  10.921   9.540
 1835POPC   PO427540  10.148  10.397   9.685
 1835POPC   GL127541  10.336  10.512   9.222
 1835POPC   GL227542  10.267  10.769   9.103
 1835POPC   C1A27543  10.689  10.492   8.857
 1835POPC   D2A27544  10.688  10.212   8.464
 1835POPC   C3A27545  10.821  10.381   8.089
 1835POPC   C4A27546  10.630  10.533   7.736
 1835POPC   C1B27547  10.210  10.491   8.711
 1835POPC   C2B27548  10.058  10.583   8.286
 1835POPC   C3B27549  10.131  10.463   7.873
 1835POPC   C4B27550  10.203  10.711   7.498
 1836POPC   NC327551  23.887  36.299   9.941
 1836POPC   PO427552  24.090  35.886   9.613
 1836POPC   GL127553  23.868  35.948   9.193
 1836POPC   GL227554  23.691  35.658   9.122
 1836POPC   C1A27555  23.712  36.028   8.718
 1836POPC   D2A27556  23.772  36.222   8.257
 1836POPC   C3A27557  23.703  36.066   7.807
 1836POPC   C4A27558  23.461  35.975   7.407
 1836POPC   C1B27559  24.046  35.652   8.809
 1836POPC   C2B27560  24.061  35.827   8.389
 1836POPC   C3B27561  24.148  35.855   7.944
 1836POPC   C4B27562  24.221  36.223   7.663
 1837POPC   NC327563  10.224   1.118   9.503
 1837POPC   PO427564   9.566   1.242   9.508
 1837POPC   GL127565   9.756   1.404   9.159
 1837POPC   GL227566   9.449   1.537   9.037
 1837POPC   C1A27567  10.080   1.261   8.840
 1837POPC   D2A27568   9.970   1.047   8.459
 1837POPC   C3A27569  10.026   1.232   8.057
 1837POPC   C4A27570   9.819   1.089   7.672
 1837POPC   C1B27571   9.558   1.280   8.645
 1837POPC   C2B27572   9.529   1.183   8.168
 1837POPC   C3B27573   9.309   1.119   7.766
 1837POPC   C4B27574   9.414   1.269   7.348
 1838POPC   NC327575  31.302   9.654   9.541
 1838POPC   PO427576  31.736  10.117   9.306
 1838POPC   GL127577  31.586   9.748   9.114
 1838POPC   GL227578  31.330   9.943   9.004
 1838POPC   C1A27579  31.313   9.499   8.796
 1838POPC   D2A27580  31.348   9.766   8.437
 1838POPC   C3A27581  31.378   9.515   8.104
 1838POPC   C4A27582  31.167   9.611   7.728
 1838POPC   C1B27583  31.692  10.057   8.695
 1838POPC   C2B27584  31.829  10.008   8.286
 1838POPC   C3B27585  31.524   9.984   7.955
 1838POPC   C4B27586  31.544   9.864   7.503
 1839POPC   NC327587  36.022  39.295   9.568
 1839POPC   PO427588  36.521  39.088   9.709
 1839POPC   GL127589  36.497  39.254   9.255
 1839POPC   GL227590  36.190  39.104   9.095
 1839POPC   C1A27591  36.478  39.393   8.780
 1839POPC   D2A27592  36.162  39.422   8.408
 1839POPC   C3A27593  36.241  39.445   7.943
 1839POPC   C4A27594  36.119  39.470   7.513
 1839POPC   C1B27595  36.248  38.955   8.642
 1839POPC   C2B27596  36.356  38.997   8.189
 1839POPC   C3B27597  36.224  38.950   7.768
 1839POPC   C4B27598  36.415  38.664   7.462
 1840POPC   NC327599  41.690  40.337   9.474
 1840POPC   PO427600  41.108  40.219   9.693
 1840POPC   GL127601  41.065  40.221   9.193
 1840POPC   GL227602  41.406  40.157   9.084
 1840POPC   C1A27603  41.155  40.414   8.733
 1840POPC   D2A27604  41.339  40.446   8.292
 1840POPC   C3A27605  41.543  40.199   7.946
 1840POPC   C4A27606  41.863  40.266   7.616
 1840POPC   C1B27607  41.652  40.302   8.710
 1840POPC   C2B27608  41.883  40.354   8.305
 1840POPC   C3B27609  42.220  40.205   8.006
 1840POPC   C4B27610  42.316  40.014   7.586
 1841POPC   NC327611  19.925  10.272   9.751
 1841POPC   PO427612  20.123  10.921   9.478
 1841POPC   GL127613  19.955  10.729   9.096
 1841POPC   GL227614  19.932  10.385   9.162
 1841POPC   C1A27615  20.006  10.724   8.615
 1841POPC   D2A27616  20.248  10.725   8.224
 1841POPC   C3A27617  19.989  10.551   7.888
 1841POPC   C4A27618  19.549  10.637   7.770
 1841POPC   C1B27619  19.809  10.258   8.737
 1841POPC   C2B27620  19.730  10.417   8.304
 1841POPC   C3B27621  19.605  10.173   7.945
 1841POPC   C4B27622  19.720  10.188   7.522
 1842POPC   NC327623  31.567  11.446   9.633
 1842POPC   PO427624  31.389  10.789   9.613
 1842POPC   GL127625  31.527  11.107   9.263
 1842POPC   GL227626  31.802  11.405   9.199
 1842POPC   C1A27627  31.420  11.221   8.860
 1842POPC   D2A27628  31.306  11.554   8.603
 1842POPC   C3A27629  31.216  11.459   8.185
 1842POPC   C4A27630  31.379  11.297   7.796
 1842POPC   C1B27631  31.779  11.633   8.811
 1842POPC   C2B27632  31.723  11.780   8.379
 1842POPC   C3B27633  31.602  11.725   7.960
 1842POPC   C4B27634  31.849  11.649   7.600
 1843POPC   NC327635   7.412  38.766   9.365
 1843POPC   PO427636   7.053  38.182   9.321
 1843POPC   GL127637   7.182  38.429   9.047
 1843POPC   GL227638   7.542  38.344   9.037
 1843POPC   C1A27639   7.221  38.516   8.660
 1843POPC   D2A27640   7.502  38.361   8.397
 1843POPC   C3A27641   7.349  38.481   8.026
 1843POPC   C4A27642   7.497  38.305   7.689
 1843POPC   C1B27643   7.726  38.671   8.760
 1843POPC   C2B27644   7.943  38.919   8.458
 1843POPC   C3B27645   7.774  39.052   8.083
 1843POPC   C4B27646   7.659  38.794   7.746
 1844POPC   NC327647  36.087  29.321   9.411
 1844POPC   PO427648  35.868  28.665   9.469
 1844POPC   GL127649  36.026  28.892   9.125
 1844POPC   GL227650  36.340  28.773   8.986
 1844POPC   C1A27651  35.843  29.117   8.776
 1844POPC   D2A27652  35.813  28.967   8.355
 1844POPC   C3A27653  35.833  29.250   8.012
 1844POPC   C4A27654  35.846  28.925   7.752
 1844POPC   C1B27655  36.370  29.193   8.805
 1844POPC   C2B27656  36.221  29.307   8.408
 1844POPC   C3B27657  36.273  28.981   8.076
 1844POPC   C4B27658  36.376  29.019   7.638
 1845POPC   NC327659   5.623  20.320   9.462
 1845POPC   PO427660   5.329  20.921   9.469
 1845POPC   GL127661   5.586  20.727   9.144
 1845POPC   GL227662   5.968  20.620   9.211
 1845POPC   C1A27663   5.765  20.724   8.747
 1845POPC   D2A27664   5.886  20.965   8.411
 1845POPC   C3A27665   5.836  20.752   8.036
 1845POPC   C4A27666   5.537  20.494   7.840
 1845POPC   C1B27667   6.176  20.442   8.840
 1845POPC   C2B27668   6.061  20.469   8.410
 1845POPC   C3B27669   5.832  20.172   8.139
 1845POPC   C4B27670   5.729  20.023   7.717
 1846POPC   NC327671   5.382   1.720   9.465
 1846POPC   PO427672   5.261   2.365   9.700
 1846POPC   GL127673   5.045   2.206   9.298
 1846POPC   GL227674   5.036   1.901   9.140
 1846POPC   C1A27675   4.969   2.246   8.793
 1846POPC   D2A27676   4.747   2.246   8.365
 1846POPC   C3A27677   5.042   2.241   7.991
 1846POPC   C4A27678   5.413   2.271   7.727
 1846POPC   C1B27679   5.153   1.679   8.795
 1846POPC   C2B27680   5.134   1.875   8.401
 1846POPC   C3B27681   5.153   1.702   8.010
 1846POPC   C4B27682   4.970   1.453   7.685
 1847POPC   NC327683   2.809  41.753   9.715
 1847POPC   PO427684   2.447  41.181   9.789
 1847POPC   GL127685   2.777  41.316   9.411
 1847POPC   GL227686   2.953  41.628   9.236
 1847POPC   C1A27687   2.769  41.259   8.947
 1847POPC   D2A27688   2.850  41.288   8.488
 1847POPC   C3A27689   2.600  41.155   8.120
 1847POPC   C4A27690   2.512  41.396   7.736
 1847POPC   C1B27691   3.007  41.690   8.815
 1847POPC   C2B27692   3.069  41.727   8.388
 1847POPC   C3B27693   2.877  41.604   8.026
 1847POPC   C4B27694   3.012  41.731   7.601
 1848POPC   NC327695  13.395   1.976   9.486
 1848POPC   PO427696  14.082   1.775   9.478
 1848POPC   GL127697  13.855   1.888   9.068
 1848POPC   GL227698  13.483   1.840   8.975
 1848POPC   C1A27699  13.742   2.168   8.706
 1848POPC   D2A27700  13.539   2.132   8.274
 1848POPC   C3A27701  13.696   2.298   7.876
 1848POPC   C4A27702  14.091   2.204   7.732
 1848POPC   C1B27703  13.265   1.801   8.587
 1848POPC   C2B27704  13.299   1.677   8.161
 1848POPC   C3B27705  13.431   1.850   7.798
 1848POPC   C4B27706  13.622   1.585   7.551
 1849POPC   NC327707  24.981   2.304   9.306
 1849POPC   PO427708  25.401   2.865   9.534
 1849POPC   GL127709  25.322   2.759   9.135
 1849POPC   GL227710  25.427   2.432   9.063
 1849POPC   C1A27711  25.514   3.027   8.836
 1849POPC   D2A27712  25.342   3.229   8.497
 1849POPC   C3A27713  25.303   2.987   8.122
 1849POPC   C4A27714  25.371   2.784   7.717
 1849POPC   C1B27715  25.349   2.582   8.621
 1849POPC   C2B27716  25.350   2.467   8.168
 1849POPC   C3B27717  25.094   2.360   7.798
 1849POPC   C4B27718  24.986   2.351   7.335
 1850POPC   NC327719   9.138  42.444   9.547
 1850POPC   PO427720   9.139  41.769   9.693
 1850POPC   GL127721   9.023  42.030   9.256
 1850POPC   GL227722   8.979  42.377   9.089
 1850POPC   C1A27723   8.892  42.018   8.775
 1850POPC   D2A27724   8.965  41.920   8.306
 1850POPC   C3A27725   8.999  42.250   7.947
 1850POPC   C4A27726   8.853  42.284   7.494
 1850POPC   C1B27727   9.149  42.652   8.788
 1850POPC   C2B27728   9.085  42.629   8.352
 1850POPC   C3B27729   9.259  42.699   7.951
 1850POPC   C4B27730   9.301  42.508   7.543
 1851POPC   NC327731  13.860  22.318   9.349
 1851POPC   PO427732  13.510  21.712   9.504
 1851POPC   GL127733  13.466  21.987   9.159
 1851POPC   GL227734  13.311  22.313   9.210
 1851POPC   C1A27735  13.533  22.112   8.757
 1851POPC   D2A27736  13.653  22.255   8.378
 1851POPC   C3A27737  13.448  22.106   8.074
 1851POPC   C4A27738  13.542  22.171   7.679
 1851POPC   C1B27739  13.146  22.456   8.801
 1851POPC   C2B27740  13.266  22.628   8.375
 1851POPC   C3B27741  13.472  22.616   7.987
 1851POPC   C4B27742  13.350  22.605   7.552
 1852POPC   NC327743   5.963   6.411   9.546
 1852POPC   PO427744   6.298   6.943   9.732
 1852POPC   GL127745   6.088   6.815   9.239
 1852POPC   GL227746   6.217   6.937   8.886
 1852POPC   C1A27747   5.864   6.578   8.816
 1852POPC   D2A27748   6.005   6.329   8.404
 1852POPC   C3A27749   5.888   6.466   7.964
 1852POPC   C4A27750   5.965   6.426   7.489
 1852POPC   C1B27751   5.909   7.036   8.593
 1852POPC   C2B27752   5.809   6.941   8.165
 1852POPC   C3B27753   5.773   6.898   7.723
 1852POPC   C4B27754   5.688   6.842   7.285
 1853POPC   NC327755  32.467  37.304   9.550
 1853POPC   PO427756  32.514  36.735   9.554
 1853POPC   GL127757  32.331  36.823   9.167
 1853POPC   GL227758  32.134  36.544   9.098
 1853POPC   C1A27759  32.222  36.936   8.719
 1853POPC   D2A27760  32.291  37.054   8.260
 1853POPC   C3A27761  32.081  36.763   7.956
 1853POPC   C4A27762  32.202  36.598   7.551
 1853POPC   C1B27763  32.486  36.501   8.787
 1853POPC   C2B27764  32.338  36.560   8.359
 1853POPC   C3B27765  32.533  36.518   7.937
 1853POPC   C4B27766  32.709  36.398   7.526
 1854POPC   NC327767   7.218  37.793   9.486
 1854POPC   PO427768   7.675  37.401   9.281
 1854POPC   GL127769   7.563  37.782   9.086
 1854POPC   GL227770   7.185  37.845   8.976
 1854POPC   C1A27771   7.588  37.951   8.700
 1854POPC   D2A27772   7.272  37.886   8.429
 1854POPC   C3A27773   7.457  37.956   8.056
 1854POPC   C4A27774   7.457  37.812   7.647
 1854POPC   C1B27775   7.246  37.480   8.765
 1854POPC   C2B27776   7.184  37.322   8.373
 1854POPC   C3B27777   7.221  37.482   7.972
 1854POPC   C4B27778   7.394  37.291   7.592
 1855POPC   NC327779  15.181  27.917   9.480
 1855POPC   PO427780  14.805  27.302   9.504
 1855POPC   GL127781  15.028  27.479   9.138
 1855POPC   GL227782  15.389  27.618   9.127
 1855POPC   C1A27783  15.160  27.409   8.713
 1855POPC   D2A27784  14.986  27.634   8.387
 1855POPC   C3A27785  15.116  27.438   8.043
 1855POPC   C4A27786  14.943  27.354   7.657
 1855POPC   C1B27787  15.192  27.905   8.798
 1855POPC   C2B27788  15.329  28.029   8.408
 1855POPC   C3B27789  15.231  27.937   7.998
 1855POPC   C4B27790  15.317  27.689   7.623
 1856POPC   NC327791   7.005  41.199   9.165
 1856POPC   PO427792   6.434  41.463   9.467
 1856POPC   GL127793   6.661  41.669   9.149
 1856POPC   GL227794   6.527  41.430   8.923
 1856POPC   C1A27795   6.875  41.811   8.771
 1856POPC   D2A27796   6.826  41.542   8.398
 1856POPC   C3A27797   6.704  41.649   7.975
 1856POPC   C4A27798   6.884  41.481   7.591
 1856POPC   C1B27799   6.418  41.096   8.621
 1856POPC   C2B27800   6.563  41.137   8.247
 1856POPC   C3B27801   6.565  41.175   7.850
 1856POPC   C4B27802   6.551  41.129   7.396
 1857POPC   NC327803   3.125  43.929   9.512
 1857POPC   PO427804   3.811  43.714   9.566
 1857POPC   GL127805   3.852  43.634   9.136
 1857POPC   GL227806   3.618  43.911   9.129
 1857POPC   C1A27807   3.921  43.669   8.669
 1857POPC   D2A27808   3.830  44.003   8.375
 1857POPC   C3A27809   3.815  43.953   7.971
 1857POPC   C4A27810   3.656  43.595   7.827
 1857POPC   C1B27811   3.474  43.993   8.743
 1857POPC   C2B27812   3.262  44.056   8.379
 1857POPC   C3B27813   3.311  43.979   7.971
 1857POPC   C4B27814   3.386  44.069   7.550
 1858POPC   NC327815  34.818   0.003   9.436
 1858POPC   PO427816  34.173   0.134   9.372
 1858POPC   GL127817  34.438  44.950   9.084
 1858POPC   GL227818  34.548  44.620   9.202
 1858POPC   C1A27819  34.731  44.986   8.743
 1858POPC   D2A27820  34.739  44.758   8.348
 1858POPC   C3A27821  34.690  44.834   7.892
 1858POPC   C4A27822  34.843  44.529   7.598
 1858POPC   C1B27823  34.643  44.470   8.779
 1858POPC   C2B27824  34.444  44.343   8.375
 1858POPC   C3B27825  34.376  44.425   7.930
 1858POPC   C4B27826  34.104  44.167   7.656
 1859POPC   NC327827   2.792  22.774   9.480
 1859POPC   PO427828   2.384  23.309   9.491
 1859POPC   GL127829   2.362  22.956   9.196
 1859POPC   GL227830   2.682  23.098   9.101
 1859POPC   C1A27831   2.508  22.741   8.795
 1859POPC   D2A27832   2.744  22.796   8.405
 1859POPC   C3A27833   2.635  22.992   8.023
 1859POPC   C4A27834   2.495  22.661   7.824
 1859POPC   C1B27835   2.812  23.239   8.707
 1859POPC   C2B27836   2.966  23.337   8.307
 1859POPC   C3B27837   2.911  23.421   7.876
 1859POPC   C4B27838   2.466  23.449   7.755
 1860POPC   NC327839  10.485  10.143   9.502
 1860POPC   PO427840  10.678   9.505   9.488
 1860POPC   GL127841  10.681   9.801   9.157
 1860POPC   GL227842  10.932  10.061   9.269
 1860POPC   C1A27843  10.520   9.777   8.728
 1860POPC   D2A27844  10.478   9.467   8.383
 1860POPC   C3A27845  10.664   9.591   8.001
 1860POPC   C4A27846  10.559  10.017   7.857
 1860POPC   C1B27847  10.988  10.072   8.842
 1860POPC   C2B27848  10.985   9.765   8.492
 1860POPC   C3B27849  11.030   9.924   8.083
 1860POPC   C4B27850  11.036   9.807   7.668
 1861POPC   NC327851  39.225  10.594   9.793
 1861POPC   PO427852  39.487  10.592   9.203
 1861POPC   GL127853  39.047  10.527   9.201
 1861POPC   GL227854  38.884  10.200   9.158
 1861POPC   C1A27855  38.928  10.564   8.766
 1861POPC   D2A27856  39.135  10.521   8.406
 1861POPC   C3A27857  39.182  10.840   8.126
 1861POPC   C4A27858  39.323  10.705   7.730
 1861POPC   C1B27859  39.167  10.115   8.754
 1861POPC   C2B27860  39.298  10.026   8.330
 1861POPC   C3B27861  39.153  10.245   7.985
 1861POPC   C4B27862  39.060  10.299   7.560
 1862POPC   NC327863  31.490  35.910   9.419
 1862POPC   PO427864  31.096  36.413   9.503
 1862POPC   GL127865  31.368  36.376   9.124
 1862POPC   GL227866  31.711  36.221   9.082
 1862POPC   C1A27867  31.363  36.243   8.689
 1862POPC   D2A27868  31.336  36.387   8.272
 1862POPC   C3A27869  31.542  36.182   7.923
 1862POPC   C4A27870  31.749  36.355   7.571
 1862POPC   C1B27871  31.689  35.877   8.759
 1862POPC   C2B27872  31.523  35.839   8.341
 1862POPC   C3B27873  31.803  35.726   8.032
 1862POPC   C4B27874  31.859  35.851   7.608
 1863POPC   NC327875  20.236  33.491   9.442
 1863POPC   PO427876  20.749  33.986   9.598
 1863POPC   GL127877  20.476  33.915   9.269
 1863POPC   GL227878  20.635  33.638   9.192
 1863POPC   C1A27879  20.310  33.890   8.868
 1863POPC   D2A27880  20.460  33.995   8.480
 1863POPC   C3A27881  20.264  34.007   8.097
 1863POPC   C4A27882  20.381  34.232   7.753
 1863POPC   C1B27883  20.490  33.422   8.825
 1863POPC   C2B27884  20.615  33.511   8.430
 1863POPC   C3B27885  20.762  33.810   8.120
 1863POPC   C4B27886  20.519  33.725   7.733
 1864POPC   NC327887  36.919  13.878   9.506
 1864POPC   PO427888  36.977  13.186   9.402
 1864POPC   GL127889  36.989  13.483   9.089
 1864POPC   GL227890  36.703  13.720   9.065
 1864POPC   C1A27891  36.901  13.427   8.659
 1864POPC   D2A27892  36.684  13.494   8.308
 1864POPC   C3A27893  36.674  13.250   7.954
 1864POPC   C4A27894  37.089  13.264   7.792
 1864POPC   C1B27895  36.705  13.901   8.645
 1864POPC   C2B27896  37.027  13.863   8.317
 1864POPC   C3B27897  36.921  13.763   7.880
 1864POPC   C4B27898  36.989  14.001   7.502
 1865POPC   NC327899   6.901  10.759  10.051
 1865POPC   PO427900   6.455  10.371   9.686
 1865POPC   GL127901   6.676  10.400   9.292
 1865POPC   GL227902   6.631  10.766   9.306
 1865POPC   C1A27903   6.611  10.198   8.872
 1865POPC   D2A27904   6.505  10.343   8.450
 1865POPC   C3A27905   6.816  10.375   8.137
 1865POPC   C4A27906   6.634  10.343   7.758
 1865POPC   C1B27907   6.555  10.733   8.865
 1865POPC   C2B27908   6.662  10.853   8.451
 1865POPC   C3B27909   6.484  10.749   8.074
 1865POPC   C4B27910   6.636  10.841   7.698
 1866POPC   NC327911  31.193  20.762   9.882
 1866POPC   PO427912  31.722  20.542   9.650
 1866POPC   GL127913  31.552  20.382   9.270
 1866POPC   GL227914  31.204  20.392   9.179
 1866POPC   C1A27915  31.573  20.356   8.822
 1866POPC   D2A27916  31.529  20.593   8.443
 1866POPC   C3A27917  31.665  20.442   8.038
 1866POPC   C4A27918  31.922  20.712   7.775
 1866POPC   C1B27919  31.092  20.570   8.755
 1866POPC   C2B27920  31.046  20.733   8.314
 1866POPC   C3B27921  31.243  20.699   7.904
 1866POPC   C4B27922  31.395  20.441   7.568
 1867POPC   NC327923  10.459  29.121   9.518
 1867POPC   PO427924  11.133  28.996   9.419
 1867POPC   GL127925  10.805  28.913   9.193
 1867POPC   GL227926  10.749  29.239   9.136
 1867POPC   C1A27927  10.601  28.871   8.811
 1867POPC   D2A27928  10.350  29.019   8.497
 1867POPC   C3A27929  10.491  28.998   8.094
 1867POPC   C4A27930  10.345  29.085   7.702
 1867POPC   C1B27931  10.379  29.348   8.885
 1867POPC   C2B27932  10.396  29.534   8.472
 1867POPC   C3B27933  10.405  29.510   8.036
 1867POPC   C4B27934  10.131  29.549   7.720
 1868POPC   NC327935  24.817  32.863   9.495
 1868POPC   PO427936  24.916  33.458   9.464
 1868POPC   GL127937  24.556  33.225   9.256
 1868POPC   GL227938  24.754  33.082   9.036
 1868POPC   C1A27939  24.287  33.181   8.854
 1868POPC   D2A27940  24.151  32.875   8.528
 1868POPC   C3A27941  24.365  32.939   8.136
 1868POPC   C4A27942  24.259  33.016   7.695
 1868POPC   C1B27943  24.727  32.715   8.789
 1868POPC   C2B27944  24.699  32.588   8.369
 1868POPC   C3B27945  24.842  32.744   7.957
 1868POPC   C4B27946  24.979  32.672   7.536
 1869POPC   NC327947  11.650  11.843   9.486
 1869POPC   PO427948  11.291  12.364   9.502
 1869POPC   GL127949  11.272  12.054   9.163
 1869POPC   GL227950  10.926  11.994   9.086
 1869POPC   C1A27951  11.455  12.089   8.750
 1869POPC   D2A27952  11.491  12.321   8.344
 1869POPC   C3A27953  11.628  12.114   7.951
 1869POPC   C4A27954  11.412  12.070   7.546
 1869POPC   C1B27955  10.965  12.114   8.651
 1869POPC   C2B27956  11.189  11.899   8.308
 1869POPC   C3B27957  11.201  11.758   7.890
 1869POPC   C4B27958  10.914  11.970   7.581
 1870POPC   NC327959   2.561  28.445   9.540
 1870POPC   PO427960   2.247  28.987   9.480
 1870POPC   GL127961   2.480  28.756   9.126
 1870POPC   GL227962   2.841  28.722   9.186
 1870POPC   C1A27963   2.534  28.391   8.817
 1870POPC   D2A27964   2.551  28.083   8.439
 1870POPC   C3A27965   2.484  28.228   7.997
 1870POPC   C4A27966   2.656  28.229   7.557
 1870POPC   C1B27967   2.956  28.669   8.738
 1870POPC   C2B27968   2.836  28.501   8.304
 1870POPC   C3B27969   2.999  28.220   7.971
 1870POPC   C4B27970   3.160  28.109   7.556
 1871POPC   NC327971  25.519  25.907   9.637
 1871POPC   PO427972  26.204  26.003   9.540
 1871POPC   GL127973  26.084  26.033   9.146
 1871POPC   GL227974  25.810  25.834   9.216
 1871POPC   C1A27975  26.190  26.113   8.731
 1871POPC   D2A27976  26.004  26.021   8.337
 1871POPC   C3A27977  26.188  26.081   7.966
 1871POPC   C4A27978  26.007  26.292   7.597
 1871POPC   C1B27979  25.640  25.684   8.868
 1871POPC   C2B27980  25.678  25.685   8.487
 1871POPC   C3B27981  25.457  25.744   8.134
 1871POPC   C4B27982  25.520  25.531   7.740
 1872POPC   NC327983   3.467  44.782   9.342
 1872POPC   PO427984   3.571   0.366   9.749
 1872POPC   GL127985   3.676   0.401   9.288
 1872POPC   GL227986   3.390   0.266   9.218
 1872POPC   C1A27987   3.847   0.410   8.823
 1872POPC   D2A27988   4.067   0.401   8.386
 1872POPC   C3A27989   3.862   0.543   7.999
 1872POPC   C4A27990   3.498   0.688   7.759
 1872POPC   C1B27991   3.371   0.198   8.795
 1872POPC   C2B27992   3.543   0.322   8.409
 1872POPC   C3B27993   3.385   0.272   8.015
 1872POPC   C4B27994   2.986   0.292   7.770
 1873POPC   NC327995   0.247  19.599   9.422
 1873POPC   PO427996   0.849  19.740   9.652
 1873POPC   GL127997   0.691  19.801   9.204
 1873POPC   GL227998   0.381  19.875   9.021
 1873POPC   C1A27999   0.738  19.656   8.755
 1873POPC   D2A28000   0.588  19.889   8.430
 1873POPC   C3A28001   0.510  19.765   8.014
 1873POPC   C4A28002   0.230  19.854   7.732
 1873POPC   C1B28003   0.112  19.911   8.666
 1873POPC   C2B28004   0.185  20.196   8.350
 1873POPC   C3B28005   0.061  20.331   7.949
 1873POPC   C4B28006   0.257  20.331   7.585
 1874POPC   NC328007  35.149   4.546   9.466
 1874POPC   PO428008  35.772   4.696   9.635
 1874POPC   GL128009  35.590   4.444   9.224
 1874POPC   GL228010  35.319   4.152   9.170
 1874POPC   C1A28011  35.354   4.511   8.795
 1874POPC   D2A28012  35.256   4.713   8.374
 1874POPC   C3A28013  35.544   4.732   8.039
 1874POPC   C4A28014  35.599   4.477   7.709
 1874POPC   C1B28015  35.035   4.081   8.792
 1874POPC   C2B28016  35.146   4.211   8.382
 1874POPC   C3B28017  35.211   4.315   7.982
 1874POPC   C4B28018  35.210   4.001   7.665
 1875POPC   NC328019   4.614   7.737   9.641
 1875POPC   PO428020   3.960   7.405   9.600
 1875POPC   GL128021   4.247   7.433   9.228
 1875POPC   GL228022   4.542   7.651   9.163
 1875POPC   C1A28023   4.342   7.317   8.803
 1875POPC   D2A28024   4.401   7.403   8.370
 1875POPC   C3A28025   4.273   7.200   7.993
 1875POPC   C4A28026   3.993   7.432   7.723
 1875POPC   C1B28027   4.545   7.808   8.778
 1875POPC   C2B28028   4.795   7.706   8.444
 1875POPC   C3B28029   4.682   7.732   8.059
 1875POPC   C4B28030   4.472   7.600   7.757
 1876POPC   NC328031   5.579   2.505   9.391
 1876POPC   PO428032   6.166   2.780   9.705
 1876POPC   GL128033   5.997   2.946   9.277
 1876POPC   GL228034   5.680   2.911   9.060
 1876POPC   C1A28035   6.105   3.000   8.834
 1876POPC   D2A28036   6.069   2.717   8.499
 1876POPC   C3A28037   6.016   2.928   8.135
 1876POPC   C4A28038   6.217   2.981   7.747
 1876POPC   C1B28039   5.608   2.606   8.723
 1876POPC   C2B28040   5.423   2.347   8.387
 1876POPC   C3B28041   5.742   2.339   8.085
 1876POPC   C4B28042   5.807   2.626   7.773
 1877POPC   NC328043  34.308  32.277   9.536
 1877POPC   PO428044  34.919  32.275   9.808
 1877POPC   GL128045  34.799  32.270   9.334
 1877POPC   GL228046  34.884  32.574   9.152
 1877POPC   C1A28047  34.538  32.292   8.924
 1877POPC   D2A28048  34.356  32.452   8.539
 1877POPC   C3A28049  34.476  32.136   8.251
 1877POPC   C4A28050  34.548  32.025   7.815
 1877POPC   C1B28051  34.779  32.710   8.739
 1877POPC   C2B28052  34.792  32.560   8.319
 1877POPC   C3B28053  34.571  32.535   7.941
 1877POPC   C4B28054  34.684  32.593   7.518
 1878POPC   NC328055  11.658   5.612   9.549
 1878POPC   PO428056  11.251   6.170   9.467
 1878POPC   GL128057  11.152   5.923   9.064
 1878POPC   GL228058  11.269   5.622   9.146
 1878POPC   C1A28059  11.241   5.748   8.624
 1878POPC   D2A28060  11.419   5.977   8.252
 1878POPC   C3A28061  11.284   5.853   7.843
 1878POPC   C4A28062  11.161   5.633   7.471
 1878POPC   C1B28063  11.663   5.580   8.861
 1878POPC   C2B28064  11.827   5.709   8.447
 1878POPC   C3B28065  11.754   5.627   8.026
 1878POPC   C4B28066  11.703   5.733   7.611
 1879POPC   NC328067  17.537  27.837   9.613
 1879POPC   PO428068  16.900  27.685   9.558
 1879POPC   GL128069  17.254  27.766   9.200
 1879POPC   GL228070  17.530  27.495   9.201
 1879POPC   C1A28071  17.426  27.723   8.757
 1879POPC   D2A28072  17.338  27.546   8.343
 1879POPC   C3A28073  17.501  27.822   8.011
 1879POPC   C4A28074  17.436  27.759   7.553
 1879POPC   C1B28075  17.850  27.438   8.838
 1879POPC   C2B28076  17.824  27.433   8.361
 1879POPC   C3B28077  17.612  27.355   7.906
 1879POPC   C4B28078  17.795  27.260   7.494
 1880POPC   NC328079  33.322  15.118   9.532
 1880POPC   PO428080  32.894  15.622   9.346
 1880POPC   GL128081  32.971  15.229   9.159
 1880POPC   GL228082  33.310  15.345   9.045
 1880POPC   C1A28083  33.101  14.952   8.816
 1880POPC   D2A28084  33.354  15.092   8.451
 1880POPC   C3A28085  33.093  15.150   8.093
 1880POPC   C4A28086  32.702  14.938   7.966
 1880POPC   C1B28087  33.022  15.459   8.671
 1880POPC   C2B28088  32.888  15.597   8.249
 1880POPC   C3B28089  32.739  15.439   7.826
 1880POPC   C4B28090  32.571  15.492   7.371
 1881POPC   NC328091  38.351  30.288   9.496
 1881POPC   PO428092  38.861  29.896   9.277
 1881POPC   GL128093  38.500  29.752   9.086
 1881POPC   GL228094  38.267  30.029   9.056
 1881POPC   C1A28095  38.363  29.732   8.658
 1881POPC   D2A28096  38.253  29.984   8.338
 1881POPC   C3A28097  38.347  29.733   7.994
 1881POPC   C4A28098  38.365  29.845   7.583
 1881POPC   C1B28099  38.606  30.196   8.756
 1881POPC   C2B28100  38.608  30.373   8.351
 1881POPC   C3B28101  38.492  30.221   7.946
 1881POPC   C4B28102  38.619  30.276   7.544
 1882POPC   NC328103   7.790   3.029   9.544
 1882POPC   PO428104   8.454   2.960   9.434
 1882POPC   GL128105   8.081   2.921   9.132
 1882POPC   GL228106   8.319   2.918   8.907
 1882POPC   C1A28107   7.911   2.661   8.751
 1882POPC   D2A28108   7.973   2.566   8.294
 1882POPC   C3A28109   8.088   2.878   7.971
 1882POPC   C4A28110   7.865   3.047   7.625
 1882POPC   C1B28111   8.430   2.558   8.665
 1882POPC   C2B28112   8.698   2.751   8.381
 1882POPC   C3B28113   8.636   3.040   8.064
 1882POPC   C4B28114   8.590   2.815   7.675
 1883POPC   NC328115  10.908  27.642   9.501
 1883POPC   PO428116  11.509  27.385   9.675
 1883POPC   GL128117  11.664  27.405   9.240
 1883POPC   GL228118  11.287  27.401   9.148
 1883POPC   C1A28119  11.630  27.230   8.814
 1883POPC   D2A28120  11.318  27.228   8.471
 1883POPC   C3A28121  11.410  27.281   8.040
 1883POPC   C4A28122  11.551  27.361   7.618
 1883POPC   C1B28123  11.345  27.665   8.765
 1883POPC   C2B28124  11.351  27.859   8.328
 1883POPC   C3B28125  11.485  27.805   7.889
 1883POPC   C4B28126  11.193  27.719   7.546
 1884POPC   NC328127  27.649  14.914   9.588
 1884POPC   PO428128  27.448  15.431   9.739
 1884POPC   GL128129  27.662  15.306   9.285
 1884POPC   GL228130  27.445  15.054   9.130
 1884POPC   C1A28131  27.818  15.170   8.823
 1884POPC   D2A28132  27.609  15.234   8.458
 1884POPC   C3A28133  27.597  14.977   8.114
 1884POPC   C4A28134  27.868  15.114   7.813
 1884POPC   C1B28135  27.190  15.155   8.745
 1884POPC   C2B28136  27.155  15.395   8.333
 1884POPC   C3B28137  27.425  15.433   7.959
 1884POPC   C4B28138  27.397  15.106   7.630
 1885POPC   NC328139  32.481  27.565   9.464
 1885POPC   PO428140  32.162  28.163   9.682
 1885POPC   GL128141  32.114  27.833   9.307
 1885POPC   GL228142  32.470  27.979   9.162
 1885POPC   C1A28143  32.174  27.700   8.839
 1885POPC   D2A28144  32.252  27.730   8.379
 1885POPC   C3A28145  32.020  27.535   8.013
 1885POPC   C4A28146  31.781  27.485   7.607
 1885POPC   C1B28147  32.582  28.041   8.693
 1885POPC   C2B28148  32.710  27.887   8.246
 1885POPC   C3B28149  32.401  27.871   7.886
 1885POPC   C4B28150  32.495  27.871   7.441
 1886POPC   NC328151  43.281   2.790   9.460
 1886POPC   PO428152  42.683   2.627   9.654
 1886POPC   GL128153  42.849   2.759   9.180
 1886POPC   GL228154  43.032   3.051   9.108
 1886POPC   C1A28155  43.076   2.656   8.767
 1886POPC   D2A28156  42.914   2.675   8.342
 1886POPC   C3A28157  43.116   2.751   7.949
 1886POPC   C4A28158  43.002   2.651   7.486
 1886POPC   C1B28159  42.911   3.126   8.676
 1886POPC   C2B28160  43.163   3.177   8.334
 1886POPC   C3B28161  43.352   3.197   7.944
 1886POPC   C4B28162  43.437   2.883   7.587
 1887POPC   NC328163  41.000  14.352   9.682
 1887POPC   PO428164  41.674  14.215   9.360
 1887POPC   GL128165  41.554  14.552   9.050
 1887POPC   GL228166  41.183  14.632   9.005
 1887POPC   C1A28167  41.468  14.479   8.623
 1887POPC   D2A28168  41.262  14.279   8.310
 1887POPC   C3A28169  41.423  14.397   7.932
 1887POPC   C4A28170  41.645  14.112   7.703
 1887POPC   C1B28171  41.006  14.698   8.621
 1887POPC   C2B28172  41.230  14.791   8.279
 1887POPC   C3B28173  41.132  14.826   7.883
 1887POPC   C4B28174  41.304  14.736   7.528
 1888POPC   NC328175  16.400  22.053   9.201
 1888POPC   PO428176  15.954  22.267   9.648
 1888POPC   GL128177  15.924  22.242   9.169
 1888POPC   GL228178  15.826  21.883   9.132
 1888POPC   C1A28179  16.144  22.353   8.720
 1888POPC   D2A28180  15.978  22.240   8.313
 1888POPC   C3A28181  15.963  22.424   7.915
 1888POPC   C4A28182  16.278  22.401   7.596
 1888POPC   C1B28183  15.970  21.855   8.684
 1888POPC   C2B28184  16.012  21.734   8.236
 1888POPC   C3B28185  15.792  21.926   7.919
 1888POPC   C4B28186  15.960  22.001   7.551
 1889POPC   NC328187   8.790  12.871   9.479
 1889POPC   PO428188   9.469  12.627   9.380
 1889POPC   GL128189   9.100  12.844   9.095
 1889POPC   GL228190   8.800  13.136   9.056
 1889POPC   C1A28191   8.724  12.713   8.816
 1889POPC   D2A28192   8.841  12.916   8.434
 1889POPC   C3A28193   8.753  12.775   8.008
 1889POPC   C4A28194   9.001  12.788   7.672
 1889POPC   C1B28195   9.146  13.266   8.800
 1889POPC   C2B28196   9.310  13.221   8.417
 1889POPC   C3B28197   9.120  13.146   8.040
 1889POPC   C4B28198   9.225  13.250   7.653
 1890POPC   NC328199  38.905  35.727   9.445
 1890POPC   PO428200  39.295  35.164   9.533
 1890POPC   GL128201  39.232  35.384   9.191
 1890POPC   GL228202  38.877  35.276   9.194
 1890POPC   C1A28203  39.374  35.309   8.766
 1890POPC   D2A28204  39.136  35.264   8.408
 1890POPC   C3A28205  39.345  35.209   8.039
 1890POPC   C4A28206  39.328  34.959   7.666
 1890POPC   C1B28207  38.941  35.567   8.820
 1890POPC   C2B28208  39.040  35.764   8.442
 1890POPC   C3B28209  39.015  35.603   8.038
 1890POPC   C4B28210  39.098  35.430   7.644
 1891POPC   NC328211  39.964   3.500   9.556
 1891POPC   PO428212  39.725   4.003   9.138
 1891POPC   GL128213  39.787   3.509   9.068
 1891POPC   GL228214  40.152   3.341   9.121
 1891POPC   C1A28215  39.727   3.258   8.653
 1891POPC   D2A28216  39.627   3.431   8.243
 1891POPC   C3A28217  39.847   3.614   7.893
 1891POPC   C4A28218  40.136   3.973   7.890
 1891POPC   C1B28219  40.143   3.542   8.716
 1891POPC   C2B28220  40.260   3.772   8.369
 1891POPC   C3B28221  40.353   3.537   8.027
 1891POPC   C4B28222  40.258   3.232   7.795
 1892POPC   NC328223   9.845  44.826   9.889
 1892POPC   PO428224   9.441  44.493   9.578
 1892POPC   GL128225   9.713  44.707   9.255
 1892POPC   GL228226   9.989  44.506   9.142
 1892POPC   C1A28227   9.827  44.853   8.804
 1892POPC   D2A28228   9.773  44.637   8.423
 1892POPC   C3A28229   9.788  44.781   8.014
 1892POPC   C4A28230   9.451  44.730   7.702
 1892POPC   C1B28231  10.154  44.443   8.725
 1892POPC   C2B28232  10.275  44.518   8.287
 1892POPC   C3B28233  10.224  44.404   7.846
 1892POPC   C4B28234   9.933  44.552   7.508
 1893POPC   NC328235  34.656   8.659   9.284
 1893POPC   PO428236  34.545   8.055   9.495
 1893POPC   GL128237  34.477   8.226   9.089
 1893POPC   GL228238  34.326   8.539   8.932
 1893POPC   C1A28239  34.309   8.023   8.725
 1893POPC   D2A28240  34.516   8.015   8.365
 1893POPC   C3A28241  34.336   8.136   7.996
 1893POPC   C4A28242  34.476   7.924   7.643
 1893POPC   C1B28243  34.686   8.418   8.670
 1893POPC   C2B28244  35.015   8.250   8.429
 1893POPC   C3B28245  34.852   8.234   8.028
 1893POPC   C4B28246  34.874   8.365   7.605
 1894POPC   NC328247   2.415   2.711   9.470
 1894POPC   PO428248   1.900   2.354   9.480
 1894POPC   GL128249   2.170   2.411   9.135
 1894POPC   GL228250   2.157   2.754   9.013
 1894POPC   C1A28251   2.258   2.315   8.748
 1894POPC   D2A28252   2.052   2.495   8.439
 1894POPC   C3A28253   2.250   2.624   8.109
 1894POPC   C4A28254   2.042   2.761   7.743
 1894POPC   C1B28255   2.056   2.995   8.601
 1894POPC   C2B28256   2.033   3.076   8.149
 1894POPC   C3B28257   1.700   3.130   7.825
 1894POPC   C4B28258   1.365   3.189   7.522
 1895POPC   NC328259   4.324  17.880   9.570
 1895POPC   PO428260   4.362  18.592   9.570
 1895POPC   GL128261   4.432  18.533   9.170
 1895POPC   GL228262   4.496  18.184   9.180
 1895POPC   C1A28263   4.255  18.463   8.760
 1895POPC   D2A28264   4.296  18.262   8.381
 1895POPC   C3A28265   4.109  18.350   8.004
 1895POPC   C4A28266   4.161  18.034   7.682
 1895POPC   C1B28267   4.540  18.004   8.775
 1895POPC   C2B28268   4.739  18.032   8.402
 1895POPC   C3B28269   4.561  17.972   8.029
 1895POPC   C4B28270   4.782  18.012   7.671
 1896POPC   NC328271   0.379  23.457   9.468
 1896POPC   PO428272   0.435  22.724   9.507
 1896POPC   GL128273   0.590  22.999   9.165
 1896POPC   GL228274   0.490  23.328   8.984
 1896POPC   C1A28275   0.546  22.833   8.769
 1896POPC   D2A28276   0.411  22.912   8.388
 1896POPC   C3A28277   0.743  22.960   8.147
 1896POPC   C4A28278   0.600  22.856   7.758
 1896POPC   C1B28279   0.117  23.130   8.768
 1896POPC   C2B28280  44.981  23.170   8.316
 1896POPC   C3B28281   0.137  22.982   7.901
 1896POPC   C4B28282   0.266  23.101   7.452
 1897POPC   NC328283  27.134   6.131   9.395
 1897POPC   PO428284  26.658   6.643   9.496
 1897POPC   GL128285  26.942   6.563   9.172
 1897POPC   GL228286  27.008   6.892   9.139
 1897POPC   C1A28287  26.875   6.310   8.800
 1897POPC   D2A28288  26.676   6.433   8.422
 1897POPC   C3A28289  26.942   6.649   8.151
 1897POPC   C4A28290  26.860   6.556   7.747
 1897POPC   C1B28291  26.744   6.855   8.751
 1897POPC   C2B28292  26.711   7.072   8.355
 1897POPC   C3B28293  26.643   7.016   7.920
 1897POPC   C4B28294  26.600   6.892   7.472
 1898POPC   NC328295  29.684  31.223   9.454
 1898POPC   PO428296  30.165  31.802   9.576
 1898POPC   GL128297  30.042  31.586   9.209
 1898POPC   GL228298  29.721  31.700   9.248
 1898POPC   C1A28299  29.921  31.584   8.768
 1898POPC   D2A28300  29.928  31.858   8.385
 1898POPC   C3A28301  30.005  31.619   8.009
 1898POPC   C4A28302  30.115  31.228   7.829
 1898POPC   C1B28303  29.434  31.548   8.938
 1898POPC   C2B28304  29.459  31.592   8.533
 1898POPC   C3B28305  29.501  31.678   8.117
 1898POPC   C4B28306  29.584  31.549   7.703
 1899POPC   NC328307  38.675  38.163   9.553
 1899POPC   PO428308  38.033  38.391   9.492
 1899POPC   GL128309  38.412  38.410   9.196
 1899POPC   GL228310  38.659  38.660   9.359
 1899POPC   C1A28311  38.445  38.459   8.743
 1899POPC   D2A28312  38.282  38.759   8.440
 1899POPC   C3A28313  38.222  38.611   8.019
 1899POPC   C4A28314  38.487  38.527   7.656
 1899POPC   C1B28315  38.799  38.778   8.958
 1899POPC   C2B28316  38.802  38.842   8.515
 1899POPC   C3B28317  38.672  38.868   8.099
 1899POPC   C4B28318  38.908  38.823   7.750
 1900POPC   NC328319  16.951  34.542   9.452
 1900POPC   PO428320  16.341  34.223   9.456
 1900POPC   GL128321  16.451  34.452   9.060
 1900POPC   GL228322  16.605  34.780   9.125
 1900POPC   C1A28323  16.413  34.676   8.647
 1900POPC   D2A28324  16.668  34.550   8.330
 1900POPC   C3A28325  16.623  34.580   7.915
 1900POPC   C4A28326  17.060  34.525   7.796
 1900POPC   C1B28327  16.905  34.671   8.780
 1900POPC   C2B28328  17.091  34.812   8.382
 1900POPC   C3B28329  16.947  34.981   7.996
 1900POPC   C4B28330  17.125  34.992   7.596
 1901POPC   NC328331  24.237  44.604   9.569
 1901POPC   PO428332  23.833   0.035   9.163
 1901POPC   GL128333  24.235  44.836   9.110
 1901POPC   GL228334  24.365  44.458   9.115
 1901POPC   C1A28335  24.440  44.805   8.740
 1901POPC   D2A28336  24.369  44.924   8.315
 1901POPC   C3A28337  24.688  44.830   8.028
 1901POPC   C4A28338  24.456  44.646   7.766
 1901POPC   C1B28339  24.656  44.359   8.797
 1901POPC   C2B28340  24.550  44.433   8.379
 1901POPC   C3B28341  24.618  44.224   8.029
 1901POPC   C4B28342  24.903  44.350   7.725
 1902POPC   NC328343  23.828  33.303   9.992
 1902POPC   PO428344  23.490  32.816   9.775
 1902POPC   GL128345  23.564  32.835   9.307
 1902POPC   GL228346  23.517  33.163   9.248
 1902POPC   C1A28347  23.755  32.971   8.860
 1902POPC   D2A28348  23.735  33.217   8.464
 1902POPC   C3A28349  23.846  33.046   8.026
 1902POPC   C4A28350  23.802  33.161   7.557
 1902POPC   C1B28351  23.240  33.191   8.895
 1902POPC   C2B28352  23.094  33.198   8.485
 1902POPC   C3B28353  23.360  33.200   8.110
 1902POPC   C4B28354  23.381  33.370   7.721
 1903POPC   NC328355  42.999   8.241   9.526
 1903POPC   PO428356  43.629   8.138   9.591
 1903POPC   GL128357  43.391   8.121   9.183
 1903POPC   GL228358  43.001   8.071   9.061
 1903POPC   C1A28359  43.359   8.340   8.779
 1903POPC   D2A28360  43.173   8.177   8.404
 1903POPC   C3A28361  43.344   8.284   7.985
 1903POPC   C4A28362  43.158   8.312   7.573
 1903POPC   C1B28363  42.795   7.841   8.722
 1903POPC   C2B28364  42.651   8.069   8.365
 1903POPC   C3B28365  42.790   8.174   7.948
 1903POPC   C4B28366  42.890   7.882   7.595
 1904POPC   NC328367  15.491   5.178   9.529
 1904POPC   PO428368  14.817   5.425   9.442
 1904POPC   GL128369  14.917   5.167   9.064
 1904POPC   GL228370  15.256   5.043   9.103
 1904POPC   C1A28371  15.072   5.067   8.631
 1904POPC   D2A28372  15.039   4.685   8.378
 1904POPC   C3A28373  14.817   4.751   8.051
 1904POPC   C4A28374  14.832   5.083   7.811
 1904POPC   C1B28375  15.617   5.039   8.809
 1904POPC   C2B28376  15.638   5.145   8.363
 1904POPC   C3B28377  15.327   4.936   8.035
 1904POPC   C4B28378  15.192   4.804   7.605
 1905POPC   NC328379  31.610  33.419   9.257
 1905POPC   PO428380  31.506  32.758   9.265
 1905POPC   GL128381  31.360  33.044   9.007
 1905POPC   GL228382  31.121  33.229   9.207
 1905POPC   C1A28383  31.516  33.057   8.602
 1905POPC   D2A28384  31.542  32.855   8.207
 1905POPC   C3A28385  31.384  33.156   7.918
 1905POPC   C4A28386  31.134  33.101   7.544
 1905POPC   C1B28387  31.045  33.441   8.798
 1905POPC   C2B28388  31.155  33.337   8.364
 1905POPC   C3B28389  30.931  33.353   7.972
 1905POPC   C4B28390  30.861  33.526   7.572
 1906POPC   NC328391  28.701  34.484   9.495
 1906POPC   PO428392  29.336  34.815   9.456
 1906POPC   GL128393  29.099  34.550   9.181
 1906POPC   GL228394  29.431  34.492   9.038
 1906POPC   C1A28395  29.000  34.266   8.838
 1906POPC   D2A28396  29.195  34.241   8.455
 1906POPC   C3A28397  28.972  34.264   8.091
 1906POPC   C4A28398  29.218  34.272   7.726
 1906POPC   C1B28399  29.201  34.780   8.748
 1906POPC   C2B28400  29.113  34.972   8.362
 1906POPC   C3B28401  29.235  34.692   8.031
 1906POPC   C4B28402  29.364  34.739   7.596
 1907POPC   NC328403  21.019  35.149   9.506
 1907POPC   PO428404  20.385  35.437   9.392
 1907POPC   GL128405  20.708  35.269   9.125
 1907POPC   GL228406  20.913  35.568   9.154
 1907POPC   C1A28407  20.901  35.250   8.725
 1907POPC   D2A28408  20.654  35.294   8.380
 1907POPC   C3A28409  20.892  35.275   8.035
 1907POPC   C4A28410  20.853  35.104   7.633
 1907POPC   C1B28411  20.611  35.670   8.802
 1907POPC   C2B28412  20.329  35.691   8.439
 1907POPC   C3B28413  20.338  35.558   8.012
 1907POPC   C4B28414  20.686  35.604   7.709
 1908POPC   NC328415  27.466  13.932   9.537
 1908POPC   PO428416  27.634  14.466   9.555
 1908POPC   GL128417  27.486  14.539   9.137
 1908POPC   GL228418  27.403  14.198   9.078
 1908POPC   C1A28419  27.540  14.762   8.701
 1908POPC   D2A28420  27.942  14.813   8.453
 1908POPC   C3A28421  28.013  14.676   8.026
 1908POPC   C4A28422  27.706  14.666   7.680
 1908POPC   C1B28423  27.600  14.265   8.662
 1908POPC   C2B28424  27.583  14.462   8.239
 1908POPC   C3B28425  27.530  14.228   7.842
 1908POPC   C4B28426  27.763  14.064   7.478
 1909POPC   NC328427  19.833   1.662   9.849
 1909POPC   PO428428  19.553   2.028   9.338
 1909POPC   GL128429  19.613   1.971   8.990
 1909POPC   GL228430  19.931   2.096   9.009
 1909POPC   C1A28431  19.607   2.093   8.600
 1909POPC   D2A28432  19.769   1.863   8.297
 1909POPC   C3A28433  19.767   2.174   7.991
 1909POPC   C4A28434  19.652   1.922   7.690
 1909POPC   C1B28435  20.139   1.971   8.684
 1909POPC   C2B28436  20.194   2.139   8.297
 1909POPC   C3B28437  20.283   2.184   7.873
 1909POPC   C4B28438  20.034   2.314   7.556
 1910POPC   NC328439  43.203  10.696   9.708
 1910POPC   PO428440  42.742  10.358   9.424
 1910POPC   GL128441  42.967  10.581   9.127
 1910POPC   GL228442  43.312  10.530   9.217
 1910POPC   C1A28443  43.137  10.400   8.743
 1910POPC   D2A28444  43.001  10.382   8.348
 1910POPC   C3A28445  43.265  10.385   8.002
 1910POPC   C4A28446  43.129  10.650   7.645
 1910POPC   C1B28447  43.346  10.837   8.854
 1910POPC   C2B28448  43.323  10.774   8.391
 1910POPC   C3B28449  43.437  10.916   7.978
 1910POPC   C4B28450  43.488  10.977   7.527
 1911POPC   NC328451  12.429  10.579   9.591
 1911POPC   PO428452  11.738  10.759   9.665
 1911POPC   GL128453  11.801  10.565   9.263
 1911POPC   GL228454  12.089  10.351   9.264
 1911POPC   C1A28455  11.910  10.609   8.842
 1911POPC   D2A28456  11.947  10.848   8.480
 1911POPC   C3A28457  11.815  10.629   8.102
 1911POPC   C4A28458  11.985  10.606   7.686
 1911POPC   C1B28459  12.275  10.260   8.800
 1911POPC   C2B28460  12.269  10.461   8.419
 1911POPC   C3B28461  12.376  10.522   7.999
 1911POPC   C4B28462  12.369  10.284   7.632
 1912POPC   NC328463   6.942   8.593   9.427
 1912POPC   PO428464   6.851   7.943   9.579
 1912POPC   GL128465   6.775   8.131   9.173
 1912POPC   GL228466   6.468   8.360   9.150
 1912POPC   C1A28467   6.782   8.303   8.750
 1912POPC   D2A28468   6.567   8.354   8.341
 1912POPC   C3A28469   6.784   8.162   7.971
 1912POPC   C4A28470   6.973   7.746   7.851
 1912POPC   C1B28471   6.318   8.576   8.749
 1912POPC   C2B28472   6.225   8.757   8.312
 1912POPC   C3B28473   6.402   8.570   7.903
 1912POPC   C4B28474   6.485   8.244   7.548
 1913POPC   NC328475  19.541  34.262   9.442
 1913POPC   PO428476  20.032  33.867   9.600
 1913POPC   GL128477  19.900  33.860   9.192
 1913POPC   GL228478  19.581  33.735   9.250
 1913POPC   C1A28479  19.869  33.646   8.789
 1913POPC   D2A28480  20.101  33.591   8.413
 1913POPC   C3A28481  19.943  33.624   7.990
 1913POPC   C4A28482  19.979  33.944   7.641
 1913POPC   C1B28483  19.507  33.989   8.870
 1913POPC   C2B28484  19.475  33.860   8.471
 1913POPC   C3B28485  19.595  33.983   8.089
 1913POPC   C4B28486  19.495  33.857   7.707
 1914POPC   NC328487  11.566  44.642   9.607
 1914POPC   PO428488  12.217  44.597   9.550
 1914POPC   GL128489  12.042  44.592   9.155
 1914POPC   GL228490  11.815  44.332   9.026
 1914POPC   C1A28491  12.190  44.582   8.738
 1914POPC   D2A28492  12.194  44.352   8.339
 1914POPC   C3A28493  12.153  44.544   7.921
 1914POPC   C4A28494  12.198  44.805   7.516
 1914POPC   C1B28495  11.717  44.693   8.672
 1914POPC   C2B28496  11.744  44.840   8.217
 1914POPC   C3B28497  11.733  44.734   7.738
 1914POPC   C4B28498  11.667  44.476   7.330
 1915POPC   NC328499  43.730   1.256   9.485
 1915POPC   PO428500  44.396   1.048   9.513
 1915POPC   GL128501  44.172   1.134   9.121
 1915POPC   GL228502  43.876   0.956   9.123
 1915POPC   C1A28503  43.995   1.145   8.676
 1915POPC   D2A28504  44.163   0.921   8.308
 1915POPC   C3A28505  44.065   1.100   7.938
 1915POPC   C4A28506  43.992   1.465   7.667
 1915POPC   C1B28507  43.556   0.910   8.820
 1915POPC   C2B28508  43.647   0.860   8.392
 1915POPC   C3B28509  43.619   0.806   7.970
 1915POPC   C4B28510  43.649   1.067   7.595
 1916POPC   NC328511  39.477  37.940   9.875
 1916POPC   PO428512  38.938  37.553   9.841
 1916POPC   GL128513  38.894  37.689   9.354
 1916POPC   GL228514  39.206  37.853   9.268
 1916POPC   C1A28515  39.001  37.528   8.888
 1916POPC   D2A28516  39.360  37.533   8.533
 1916POPC   C3A28517  39.307  37.493   8.033
 1916POPC   C4A28518  39.166  37.225   7.647
 1916POPC   C1B28519  39.241  37.976   8.839
 1916POPC   C2B28520  39.121  37.952   8.390
 1916POPC   C3B28521  38.972  37.898   7.983
 1916POPC   C4B28522  38.774  37.548   7.791
 1917POPC   NC328523  16.771  27.207   9.489
 1917POPC   PO428524  16.900  26.524   9.578
 1917POPC   GL128525  16.664  26.723   9.229
 1917POPC   GL228526  16.926  26.919   9.088
 1917POPC   C1A28527  16.535  26.831   8.769
 1917POPC   D2A28528  16.559  26.600   8.343
 1917POPC   C3A28529  16.684  26.812   7.959
 1917POPC   C4A28530  16.547  27.249   7.868
 1917POPC   C1B28531  16.954  27.194   8.712
 1917POPC   C2B28532  16.883  27.299   8.268
 1917POPC   C3B28533  17.102  27.114   7.890
 1917POPC   C4B28534  17.061  26.804   7.538
 1918POPC   NC328535  18.486  31.853   9.783
 1918POPC   PO428536  18.387  32.424   9.428
 1918POPC   GL128537  18.174  32.288   9.051
 1918POPC   GL228538  18.023  31.934   8.997
 1918POPC   C1A28539  18.177  32.259   8.613
 1918POPC   D2A28540  17.906  32.497   8.365
 1918POPC   C3A28541  17.997  32.429   7.965
 1918POPC   C4A28542  18.350  32.572   7.806
 1918POPC   C1B28543  18.250  31.724   8.669
 1918POPC   C2B28544  18.568  31.939   8.449
 1918POPC   C3B28545  18.464  32.108   8.047
 1918POPC   C4B28546  18.284  31.925   7.673
 1919POPC   NC328547  28.611   4.070   9.621
 1919POPC   PO428548  28.206   3.482   9.684
 1919POPC   GL128549  28.263   3.570   9.240
 1919POPC   GL228550  27.963   3.569   9.068
 1919POPC   C1A28551  28.365   3.447   8.794
 1919POPC   D2A28552  28.195   3.469   8.392
 1919POPC   C3A28553  28.518   3.492   8.098
 1919POPC   C4A28554  28.477   3.561   7.674
 1919POPC   C1B28555  28.051   3.867   8.773
 1919POPC   C2B28556  27.928   3.963   8.366
 1919POPC   C3B28557  28.133   3.837   8.009
 1919POPC   C4B28558  28.026   3.804   7.573
 1920POPC   NC328559  44.267  43.250   9.652
 1920POPC   PO428560  44.913  42.953   9.565
 1920POPC   GL128561  44.682  43.257   9.307
 1920POPC   GL228562  44.404  43.081   9.201
 1920POPC   C1A28563  44.648  43.376   8.857
 1920POPC   D2A28564  44.879  43.334   8.468
 1920POPC   C3A28565  44.743  43.284   8.043
 1920POPC   C4A28566  44.884  42.868   7.849
 1920POPC   C1B28567  44.430  42.905   8.812
 1920POPC   C2B28568  44.383  43.072   8.411
 1920POPC   C3B28569  44.408  42.915   8.003
 1920POPC   C4B28570  44.349  42.631   7.687
 1921POPC   NC328571   4.828   0.344   9.271
 1921POPC   PO428572   5.243   0.648   9.709
 1921POPC   GL128573   5.164   0.732   9.211
 1921POPC   GL228574   5.240   0.474   8.944
 1921POPC   C1A28575   4.879   0.817   8.796
 1921POPC   D2A28576   4.998   0.814   8.323
 1921POPC   C3A28577   5.416   0.598   8.211
 1921POPC   C4A28578   5.473   0.256   7.891
 1921POPC   C1B28579   5.275   0.060   8.735
 1921POPC   C2B28580   5.305   0.064   8.332
 1921POPC   C3B28581   4.982   0.311   8.158
 1921POPC   C4B28582   4.922   0.473   7.763
 1922POPC   NC328583  39.631  43.650   9.250
 1922POPC   PO428584  39.905  44.118   9.848
 1922POPC   GL128585  40.112  44.142   9.391
 1922POPC   GL228586  40.113  43.783   9.353
 1922POPC   C1A28587  40.052  44.062   8.931
 1922POPC   D2A28588  39.778  44.040   8.571
 1922POPC   C3A28589  39.922  43.926   8.171
 1922POPC   C4A28590  39.764  43.895   7.760
 1922POPC   C1B28591  40.212  43.588   8.919
 1922POPC   C2B28592  40.259  43.708   8.514
 1922POPC   C3B28593  40.277  43.575   8.097
 1922POPC   C4B28594  40.270  43.886   7.763
 1923POPC   NC328595  44.065  13.739   9.529
 1923POPC   PO428596  43.530  13.538   9.607
 1923POPC   GL128597  43.682  13.548   9.190
 1923POPC   GL228598  43.903  13.274   9.098
 1923POPC   C1A28599  43.781  13.743   8.782
 1923POPC   D2A28600  43.883  13.723   8.333
 1923POPC   C3A28601  43.652  13.514   8.034
 1923POPC   C4A28602  43.647  13.473   7.582
 1923POPC   C1B28603  44.091  13.348   8.656
 1923POPC   C2B28604  44.095  13.263   8.195
 1923POPC   C3B28605  44.107  13.531   7.814
 1923POPC   C4B28606  43.932  13.933   7.820
 1924POPC   NC328607  33.039   3.971   9.426
 1924POPC   PO428608  33.208   4.605   9.536
 1924POPC   GL128609  33.060   4.425   9.165
 1924POPC   GL228610  32.821   4.178   9.032
 1924POPC   C1A28611  32.915   4.606   8.796
 1924POPC   D2A28612  32.713   4.437   8.443
 1924POPC   C3A28613  32.861   4.401   8.037
 1924POPC   C4A28614  32.621   4.254   7.674
 1924POPC   C1B28615  33.061   4.119   8.658
 1924POPC   C2B28616  33.089   3.984   8.210
 1924POPC   C3B28617  33.131   4.079   7.739
 1924POPC   C4B28618  33.445   4.143   7.414
 1925POPC   NC328619  39.542   8.611   9.489
 1925POPC   PO428620  40.055   9.066   9.776
 1925POPC   GL128621  40.018   8.934   9.315
 1925POPC   GL228622  40.243   8.665   9.210
 1925POPC   C1A28623  39.880   8.937   8.857
 1925POPC   D2A28624  39.757   9.109   8.439
 1925POPC   C3A28625  39.990   9.025   8.048
 1925POPC   C4A28626  39.792   8.796   7.751
 1925POPC   C1B28627  40.240   8.581   8.762
 1925POPC   C2B28628  40.068   8.616   8.342
 1925POPC   C3B28629  40.329   8.654   7.931
 1925POPC   C4B28630  40.430   8.440   7.550
 1926POPC   NC328631  41.870   9.719   9.479
 1926POPC   PO428632  42.503   9.429   9.442
 1926POPC   GL128633  42.282   9.678   9.156
 1926POPC   GL228634  42.602   9.647   8.968
 1926POPC   C1A28635  42.192   9.828   8.757
 1926POPC   D2A28636  42.379   9.726   8.391
 1926POPC   C3A28637  42.110   9.610   8.100
 1926POPC   C4A28638  42.028   9.863   7.723
 1926POPC   C1B28639  42.818   9.456   8.595
 1926POPC   C2B28640  42.805   9.508   8.127
 1926POPC   C3B28641  42.571   9.669   7.752
 1926POPC   C4B28642  42.499   9.421   7.363
 1927POPC   NC328643   4.756   5.959   9.672
 1927POPC   PO428644   4.167   6.078   9.744
 1927POPC   GL128645   4.166   5.947   9.290
 1927POPC   GL228646   4.099   5.562   9.259
 1927POPC   C1A28647   4.429   5.979   8.877
 1927POPC   D2A28648   4.656   5.811   8.493
 1927POPC   C3A28649   4.476   5.897   8.085
 1927POPC   C4A28650   4.385   5.688   7.741
 1927POPC   C1B28651   3.975   5.751   8.857
 1927POPC   C2B28652   4.145   5.839   8.461
 1927POPC   C3B28653   3.961   5.886   8.055
 1927POPC   C4B28654   3.906   5.704   7.656
 1928POPC   NC328655  19.944   1.737   9.345
 1928POPC   PO428656  19.672   1.050   9.513
 1928POPC   GL128657  19.656   1.358   9.169
 1928POPC   GL228658  19.999   1.249   9.093
 1928POPC   C1A28659  19.709   1.533   8.735
 1928POPC   D2A28660  19.892   1.268   8.426
 1928POPC   C3A28661  19.878   1.262   7.971
 1928POPC   C4A28662  19.945   1.016   7.579
 1928POPC   C1B28663  20.234   1.464   8.762
 1928POPC   C2B28664  20.265   1.627   8.331
 1928POPC   C3B28665  20.109   1.711   7.910
 1928POPC   C4B28666  20.291   1.443   7.615
 1929POPC   NC328667  35.123   9.142   9.395
 1929POPC   PO428668  34.451   9.028   9.468
 1929POPC   GL128669  34.457   9.066   9.041
 1929POPC   GL228670  34.770   9.256   9.066
 1929POPC   C1A28671  34.333   9.348   8.728
 1929POPC   D2A28672  34.577   9.532   8.429
 1929POPC   C3A28673  34.792   9.244   8.158
 1929POPC   C4A28674  34.507   9.151   7.829
 1929POPC   C1B28675  34.833   9.159   8.672
 1929POPC   C2B28676  34.529   8.891   8.535
 1929POPC   C3B28677  34.402   8.586   8.255
 1929POPC   C4B28678  34.543   8.637   7.851
 1930POPC   NC328679  28.300   7.111   9.637
 1930POPC   PO428680  28.100   7.634   9.442
 1930POPC   GL128681  28.274   7.318   9.160
 1930POPC   GL228682  28.608   7.224   9.194
 1930POPC   C1A28683  28.210   7.202   8.741
 1930POPC   D2A28684  28.371   7.079   8.348
 1930POPC   C3A28685  28.118   7.283   8.042
 1930POPC   C4A28686  28.129   7.477   7.590
 1930POPC   C1B28687  28.644   7.484   8.799
 1930POPC   C2B28688  28.509   7.609   8.402
 1930POPC   C3B28689  28.594   7.476   8.009
 1930POPC   C4B28690  28.479   7.150   7.729
 1931POPC   NC328691  14.788  22.008   9.544
 1931POPC   PO428692  14.304  22.378   9.212
 1931POPC   GL128693  14.514  22.035   9.095
 1931POPC   GL228694  14.187  21.877   9.043
 1931POPC   C1A28695  14.583  21.959   8.672
 1931POPC   D2A28696  14.674  21.742   8.332
 1931POPC   C3A28697  14.320  21.846   8.150
 1931POPC   C4A28698  14.315  22.103   7.825
 1931POPC   C1B28699  14.082  22.095   8.644
 1931POPC   C2B28700  14.171  22.337   8.277
 1931POPC   C3B28701  13.929  22.406   7.915
 1931POPC   C4B28702  14.085  22.430   7.488
 1932POPC   NC328703  14.387   8.924   9.561
 1932POPC   PO428704  14.711   9.468   9.409
 1932POPC   GL128705  14.650   9.051   9.132
 1932POPC   GL228706  14.291   8.886   9.072
 1932POPC   C1A28707  14.606   8.929   8.679
 1932POPC   D2A28708  14.582   9.119   8.286
 1932POPC   C3A28709  14.496   8.853   7.929
 1932POPC   C4A28710  14.562   8.972   7.487
 1932POPC   C1B28711  14.298   9.303   8.867
 1932POPC   C2B28712  14.217   9.463   8.483
 1932POPC   C3B28713  14.118   9.251   8.090
 1932POPC   C4B28714  14.102   9.186   7.631
 1933POPC   NC328715  14.035  31.810   9.417
 1933POPC   PO428716  13.638  31.309   9.492
 1933POPC   GL128717  13.530  31.398   9.107
 1933POPC   GL228718  13.842  31.522   9.039
 1933POPC   C1A28719  13.456  31.518   8.703
 1933POPC   D2A28720  13.660  31.628   8.341
 1933POPC   C3A28721  13.371  31.530   8.033
 1933POPC   C4A28722  13.409  31.294   7.668
 1933POPC   C1B28723  14.084  31.284   8.770
 1933POPC   C2B28724  13.977  31.192   8.370
 1933POPC   C3B28725  13.810  31.179   7.962
 1933POPC   C4B28726  13.923  31.307   7.541
 1934POPC   NC328727  29.495  17.301   9.479
 1934POPC   PO428728  30.135  17.092   9.541
 1934POPC   GL128729  30.070  17.379   9.188
 1934POPC   GL228730  29.735  17.562   9.098
 1934POPC   C1A28731  30.206  17.524   8.775
 1934POPC   D2A28732  30.289  17.369   8.367
 1934POPC   C3A28733  30.106  17.583   8.034
 1934POPC   C4A28734  29.736  17.854   7.973
 1934POPC   C1B28735  29.782  17.209   8.798
 1934POPC   C2B28736  29.843  17.085   8.378
 1934POPC   C3B28737  29.777  17.225   7.956
 1934POPC   C4B28738  29.669  17.499   7.600
 1935POPC   NC328739   4.780  37.435   9.484
 1935POPC   PO428740   5.189  37.911   9.582
 1935POPC   GL128741   5.111  38.047   9.154
 1935POPC   GL228742   5.214  37.711   9.061
 1935POPC   C1A28743   4.870  38.049   8.739
 1935POPC   D2A28744   4.874  37.724   8.366
 1935POPC   C3A28745   5.064  37.775   7.961
 1935POPC   C4A28746   5.483  37.860   7.774
 1935POPC   C1B28747   5.273  37.438   8.677
 1935POPC   C2B28748   5.211  37.295   8.239
 1935POPC   C3B28749   5.294  37.359   7.793
 1935POPC   C4B28750   4.902  37.290   7.569
 1936POPC   NC328751  25.887  17.834   9.464
 1936POPC   PO428752  26.254  17.237   9.554
 1936POPC   GL128753  25.994  17.341   9.212
 1936POPC   GL228754  26.009  17.659   9.020
 1936POPC   C1A28755  25.894  17.256   8.783
 1936POPC   D2A28756  25.969  17.569   8.487
 1936POPC   C3A28757  25.964  17.513   8.063
 1936POPC   C4A28758  25.994  17.274   7.698
 1936POPC   C1B28759  25.575  17.687   8.799
 1936POPC   C2B28760  25.464  17.944   8.420
 1936POPC   C3B28761  25.522  17.792   7.988
 1936POPC   C4B28762  25.729  17.697   7.597
 1937POPC   NC328763  11.859  19.515   9.354
 1937POPC   PO428764  12.213  18.829   9.440
 1937POPC   GL128765  12.225  19.110   9.143
 1937POPC   GL228766  11.888  19.095   9.055
 1937POPC   C1A28767  12.296  19.277   8.770
 1937POPC   D2A28768  12.069  19.113   8.466
 1937POPC   C3A28769  12.290  19.094   8.098
 1937POPC   C4A28770  12.135  19.174   7.691
 1937POPC   C1B28771  11.706  18.790   8.804
 1937POPC   C2B28772  11.870  18.651   8.426
 1937POPC   C3B28773  11.921  18.749   8.008
 1937POPC   C4B28774  11.656  18.909   7.690
 1938POPC   NC328775   7.338  21.245   9.537
 1938POPC   PO428776   7.622  20.679   9.436
 1938POPC   GL128777   7.643  21.091   9.160
 1938POPC   GL228778   7.542  21.476   9.130
 1938POPC   C1A28779   7.408  21.136   8.769
 1938POPC   D2A28780   7.545  21.250   8.381
 1938POPC   C3A28781   7.345  21.242   8.019
 1938POPC   C4A28782   7.662  21.444   7.792
 1938POPC   C1B28783   7.416  21.636   8.698
 1938POPC   C2B28784   7.062  21.469   8.414
 1938POPC   C3B28785   6.923  21.519   7.961
 1938POPC   C4B28786   7.195  21.497   7.584
 1939POPC   NC328787  29.695  39.815   9.374
 1939POPC   PO428788  30.132  40.150   9.414
 1939POPC   GL128789  30.112  39.822   9.071
 1939POPC   GL228790  29.798  39.862   8.885
 1939POPC   C1A28791  30.245  39.670   8.674
 1939POPC   D2A28792  29.941  39.817   8.402
 1939POPC   C3A28793  30.028  39.793   8.032
 1939POPC   C4A28794  30.160  40.157   7.847
 1939POPC   C1B28795  29.450  39.733   8.592
 1939POPC   C2B28796  29.509  39.627   8.167
 1939POPC   C3B28797  29.575  39.794   7.759
 1939POPC   C4B28798  29.510  39.890   7.323
 1940POPC   NC328799  10.078  12.474   9.716
 1940POPC   PO428800   9.649  11.982   9.448
 1940POPC   GL128801   9.558  12.002   9.040
 1940POPC   GL228802   9.671  11.693   9.028
 1940POPC   C1A28803   9.575  12.263   8.642
 1940POPC   D2A28804   9.797  12.126   8.257
 1940POPC   C3A28805   9.745  12.305   7.846
 1940POPC   C4A28806   9.724  12.154   7.373
 1940POPC   C1B28807   9.539  11.756   8.601
 1940POPC   C2B28808   9.877  11.625   8.350
 1940POPC   C3B28809  10.011  11.722   7.956
 1940POPC   C4B28810   9.663  11.806   7.740
 1941POPC   NC328811  24.394  42.986   9.505
 1941POPC   PO428812  24.843  43.557   9.570
 1941POPC   GL128813  24.668  43.393   9.138
 1941POPC   GL228814  24.316  43.231   9.056
 1941POPC   C1A28815  24.583  43.421   8.661
 1941POPC   D2A28816  24.366  43.179   8.322
 1941POPC   C3A28817  24.483  43.277   7.888
 1941POPC   C4A28818  24.504  43.170   7.470
 1941POPC   C1B28819  24.515  42.913   8.776
 1941POPC   C2B28820  24.682  42.760   8.382
 1941POPC   C3B28821  24.563  42.765   7.956
 1941POPC   C4B28822  24.202  42.786   7.661
 1942POPC   NC328823  31.548   2.564   9.362
 1942POPC   PO428824  31.585   1.948   9.512
 1942POPC   GL128825  31.585   1.950   9.090
 1942POPC   GL228826  31.886   1.761   9.038
 1942POPC   C1A28827  31.297   2.105   8.754
 1942POPC   D2A28828  31.256   2.441   8.441
 1942POPC   C3A28829  31.268   2.191   8.079
 1942POPC   C4A28830  31.540   2.140   7.796
 1942POPC   C1B28831  31.786   1.806   8.623
 1942POPC   C2B28832  31.452   1.793   8.333
 1942POPC   C3B28833  31.469   1.669   7.918
 1942POPC   C4B28834  31.811   1.661   7.639
 1943POPC   NC328835  38.803  44.496   9.424
 1943POPC   PO428836  38.333   0.019   9.437
 1943POPC   GL128837  38.332  44.897   9.056
 1943POPC   GL228838  38.672  44.840   9.093
 1943POPC   C1A28839  38.104  44.733   8.751
 1943POPC   D2A28840  38.229  44.560   8.384
 1943POPC   C3A28841  38.039  44.666   8.030
 1943POPC   C4A28842  38.171  44.608   7.648
 1943POPC   C1B28843  38.920  44.625   8.806
 1943POPC   C2B28844  38.872  44.371   8.436
 1943POPC   C3B28845  38.804  44.570   8.032
 1943POPC   C4B28846  38.670  44.598   7.603
 1944POPC   NC328847  17.415   7.490   9.474
 1944POPC   PO428848  17.809   6.885   9.220
 1944POPC   GL128849  17.616   7.265   9.075
 1944POPC   GL228850  17.225   7.249   9.057
 1944POPC   C1A28851  17.443   7.680   8.858
 1944POPC   D2A28852  17.346   7.724   8.421
 1944POPC   C3A28853  17.517   7.402   8.134
 1944POPC   C4A28854  17.303   7.364   7.775
 1944POPC   C1B28855  17.439   7.247   8.617
 1944POPC   C2B28856  17.874   7.248   8.475
 1944POPC   C3B28857  17.895   7.006   8.126
 1944POPC   C4B28858  17.535   6.919   7.869
 1945POPC   NC328859   9.133   6.259   9.240
 1945POPC   PO428860   8.861   6.147   9.787
 1945POPC   GL128861   8.998   5.797   9.365
 1945POPC   GL228862   8.770   5.878   9.090
 1945POPC   C1A28863   9.162   5.682   8.888
 1945POPC   D2A28864   9.169   5.962   8.505
 1945POPC   C3A28865   9.190   5.797   8.072
 1945POPC   C4A28866   9.044   5.969   7.682
 1945POPC   C1B28867   8.680   5.999   8.698
 1945POPC   C2B28868   8.706   5.822   8.305
 1945POPC   C3B28869   8.613   5.972   7.935
 1945POPC   C4B28870   8.390   5.805   7.643
 1946POPC   NC328871  21.150  41.119   9.457
 1946POPC   PO428872  21.669  41.517   9.605
 1946POPC   GL128873  21.558  41.612   9.156
 1946POPC   GL228874  21.516  41.304   8.962
 1946POPC   C1A28875  21.375  41.845   8.801
 1946POPC   D2A28876  21.220  41.804   8.373
 1946POPC   C3A28877  21.557  41.858   8.092
 1946POPC   C4A28878  21.483  41.936   7.698
 1946POPC   C1B28879  21.563  41.477   8.522
 1946POPC   C2B28880  21.434  41.381   8.111
 1946POPC   C3B28881  21.201  41.500   7.764
 1946POPC   C4B28882  21.076  41.291   7.400
 1947POPC   NC328883  33.389  27.272   9.568
 1947POPC   PO428884  32.873  27.841   9.509
 1947POPC   GL128885  33.193  27.629   9.249
 1947POPC   GL228886  33.042  27.338   9.179
 1947POPC   C1A28887  33.299  27.646   8.818
 1947POPC   D2A28888  33.018  27.509   8.487
 1947POPC   C3A28889  33.132  27.470   8.059
 1947POPC   C4A28890  32.874  27.664   7.769
 1947POPC   C1B28891  32.780  27.204   8.852
 1947POPC   C2B28892  32.508  27.301   8.511
 1947POPC   C3B28893  32.543  27.394   8.073
 1947POPC   C4B28894  32.774  27.174   7.762
 1948POPC   NC328895   9.807  35.646   9.461
 1948POPC   PO428896   9.229  35.313   9.578
 1948POPC   GL128897   9.479  35.194   9.130
 1948POPC   GL228898   9.730  35.428   9.004
 1948POPC   C1A28899   9.588  34.866   8.822
 1948POPC   D2A28900   9.939  34.823   8.514
 1948POPC   C3A28901   9.958  35.149   8.149
 1948POPC   C4A28902   9.748  35.298   7.747
 1948POPC   C1B28903   9.704  35.306   8.580
 1948POPC   C2B28904   9.527  35.437   8.193
 1948POPC   C3B28905   9.414  35.707   7.892
 1948POPC   C4B28906   9.461  35.750   7.488
 1949POPC   NC328907  38.463  11.678   9.461
 1949POPC   PO428908  38.562  12.353   9.465
 1949POPC   GL128909  38.517  12.078   9.124
 1949POPC   GL228910  38.140  12.013   9.142
 1949POPC   C1A28911  38.377  12.151   8.700
 1949POPC   D2A28912  38.271  12.188   8.275
 1949POPC   C3A28913  38.598  11.974   8.067
 1949POPC   C4A28914  38.517  11.958   7.698
 1949POPC   C1B28915  38.084  11.739   8.763
 1949POPC   C2B28916  38.296  11.673   8.383
 1949POPC   C3B28917  38.156  11.722   7.964
 1949POPC   C4B28918  38.234  11.570   7.527
 1950POPC   NC328919  15.722  23.371   9.577
 1950POPC   PO428920  15.946  23.988   9.479
 1950POPC   GL128921  15.836  23.688   9.193
 1950POPC   GL228922  16.175  23.595   9.151
 1950POPC   C1A28923  15.818  23.644   8.757
 1950POPC   D2A28924  15.992  23.745   8.368
 1950POPC   C3A28925  15.778  23.760   8.011
 1950POPC   C4A28926  15.691  23.617   7.614
 1950POPC   C1B28927  16.290  23.411   8.767
 1950POPC   C2B28928  16.237  23.311   8.329
 1950POPC   C3B28929  16.435  23.323   7.902
 1950POPC   C4B28930  16.277  23.285   7.435
 1951POPC   NC328931  14.088  10.642   9.385
 1951POPC   PO428932  13.357  10.724   9.487
 1951POPC   GL128933  13.621  10.557   9.130
 1951POPC   GL228934  13.674  10.880   9.079
 1951POPC   C1A28935  13.951  10.524   8.757
 1951POPC   D2A28936  14.088  10.377   8.339
 1951POPC   C3A28937  13.778  10.525   8.023
 1951POPC   C4A28938  13.487  10.403   7.690
 1951POPC   C1B28939  13.272  10.923   8.836
 1951POPC   C2B28940  13.112  10.871   8.405
 1951POPC   C3B28941  13.295  10.770   8.000
 1951POPC   C4B28942  13.228  10.822   7.540
 1952POPC   NC328943  38.590  10.072   9.641
 1952POPC   PO428944  38.462   9.368   9.594
 1952POPC   GL128945  38.332   9.534   9.197
 1952POPC   GL228946  38.510   9.823   9.190
 1952POPC   C1A28947  38.236   9.697   8.743
 1952POPC   D2A28948  38.437   9.721   8.331
 1952POPC   C3A28949  38.481   9.588   7.918
 1952POPC   C4A28950  38.200   9.887   7.767
 1952POPC   C1B28951  38.714   9.866   8.782
 1952POPC   C2B28952  38.796  10.089   8.397
 1952POPC   C3B28953  38.646  10.083   7.992
 1952POPC   C4B28954  38.619  10.022   7.534
 1953POPC   NC328955  11.929   7.983   9.508
 1953POPC   PO428956  12.190   8.605   9.449
 1953POPC   GL128957  11.912   8.394   9.161
 1953POPC   GL228958  12.194   8.179   9.097
 1953POPC   C1A28959  11.743   8.062   8.868
 1953POPC   D2A28960  11.981   7.808   8.578
 1953POPC   C3A28961  11.941   7.833   8.139
 1953POPC   C4A28962  12.072   8.213   7.902
 1953POPC   C1B28963  12.095   8.349   8.686
 1953POPC   C2B28964  11.807   8.317   8.357
 1953POPC   C3B28965  11.766   8.633   8.044
 1953POPC   C4B28966  11.846   8.774   7.631
 1954POPC   NC328967  22.073   8.942   9.745
 1954POPC   PO428968  22.243   9.599   9.596
 1954POPC   GL128969  22.035   9.198   9.292
 1954POPC   GL228970  22.015   8.777   9.263
 1954POPC   C1A28971  21.997   9.107   8.817
 1954POPC   D2A28972  22.057   9.301   8.384
 1954POPC   C3A28973  22.008   9.309   7.920
 1954POPC   C4A28974  22.340   9.232   7.631
 1954POPC   C1B28975  21.814   8.622   8.875
 1954POPC   C2B28976  21.830   8.767   8.454
 1954POPC   C3B28977  22.129   8.835   8.130
 1954POPC   C4B28978  22.066   8.789   7.711
 1955POPC   NC328979  13.823   2.945   9.420
 1955POPC   PO428980  13.306   2.463   9.490
 1955POPC   GL128981  13.457   2.691   9.180
 1955POPC   GL228982  13.787   2.549   9.080
 1955POPC   C1A28983  13.395   2.763   8.790
 1955POPC   D2A28984  13.637   2.602   8.470
 1955POPC   C3A28985  13.435   2.651   8.119
 1955POPC   C4A28986  13.294   2.710   7.734
 1955POPC   C1B28987  13.888   2.914   8.788
 1955POPC   C2B28988  14.100   2.893   8.423
 1955POPC   C3B28989  13.918   2.857   8.049
 1955POPC   C4B28990  13.935   3.178   7.736
 1956POPC   NC328991  17.183  23.815   9.428
 1956POPC   PO428992  17.832  23.592   9.395
 1956POPC   GL128993  17.623  23.422   9.053
 1956POPC   GL228994  17.497  23.736   9.028
 1956POPC   C1A28995  17.489  23.499   8.594
 1956POPC   D2A28996  17.569  23.826   8.329
 1956POPC   C3A28997  17.526  23.611   7.961
 1956POPC   C4A28998  17.640  23.361   7.629
 1956POPC   C1B28999  17.194  23.902   8.754
 1956POPC   C2B29000  17.058  24.029   8.342
 1956POPC   C3B29001  17.208  24.006   7.899
 1956POPC   C4B29002  17.087  23.946   7.454
 1957POPC   NC329003   6.515  39.197   9.466
 1957POPC   PO429004   6.987  39.616   9.491
 1957POPC   GL129005   6.902  39.322   9.139
 1957POPC   GL229006   6.522  39.375   8.995
 1957POPC   C1A29007   6.875  39.180   8.699
 1957POPC   D2A29008   6.637  39.353   8.365
 1957POPC   C3A29009   6.766  39.212   7.947
 1957POPC   C4A29010   7.053  39.468   7.683
 1957POPC   C1B29011   6.346  39.041   8.707
 1957POPC   C2B29012   6.405  38.922   8.258
 1957POPC   C3B29013   6.250  39.215   7.982
 1957POPC   C4B29014   6.363  39.505   7.760
 1958POPC   NC329015  42.730  42.797   9.328
 1958POPC   PO429016  42.061  42.692   9.391
 1958POPC   GL129017  42.170  42.471   9.051
 1958POPC   GL229018  42.435  42.237   9.126
 1958POPC   C1A29019  42.313  42.542   8.677
 1958POPC   D2A29020  42.310  42.346   8.302
 1958POPC   C3A29021  42.092  42.405   7.898
 1958POPC   C4A29022  42.423  42.525   7.628
 1958POPC   C1B29023  42.267  42.030   8.749
 1958POPC   C2B29024  42.201  41.820   8.355
 1958POPC   C3B29025  42.343  41.982   7.967
 1958POPC   C4B29026  42.259  42.053   7.553
 1959POPC   NC329027  12.271  31.709   9.608
 1959POPC   PO429028  11.909  31.197   9.703
 1959POPC   GL129029  12.035  31.321   9.250
 1959POPC   GL229030  12.275  31.607   9.119
 1959POPC   C1A29031  12.090  31.258   8.802
 1959POPC   D2A29032  11.921  31.221   8.393
 1959POPC   C3A29033  12.161  31.361   8.007
 1959POPC   C4A29034  12.406  31.103   7.768
 1959POPC   C1B29035  12.064  31.776   8.770
 1959POPC   C2B29036  12.073  31.757   8.352
 1959POPC   C3B29037  11.853  32.004   8.046
 1959POPC   C4B29038  11.824  31.834   7.633
 1960POPC   NC329039  28.053  38.357   9.399
 1960POPC   PO429040  28.656  38.339   9.451
 1960POPC   GL129041  28.487  38.436   9.081
 1960POPC   GL229042  28.316  38.126   9.018
 1960POPC   C1A29043  28.282  38.594   8.697
 1960POPC   D2A29044  28.118  38.479   8.262
 1960POPC   C3A29045  28.186  38.426   7.795
 1960POPC   C4A29046  28.196  38.044   7.529
 1960POPC   C1B29047  28.579  38.183   8.642
 1960POPC   C2B29048  28.679  38.531   8.375
 1960POPC   C3B29049  28.653  38.574   7.955
 1960POPC   C4B29050  28.652  38.244   7.634
 1961POPC   NC329051  21.846   8.330   9.546
 1961POPC   PO429052  22.416   8.617   9.676
 1961POPC   GL129053  22.446   8.286   9.267
 1961POPC   GL229054  22.103   8.187   9.155
 1961POPC   C1A29055  22.426   8.055   8.822
 1961POPC   D2A29056  22.196   8.238   8.459
 1961POPC   C3A29057  22.263   8.053   8.030
 1961POPC   C4A29058  22.344   8.366   7.710
 1961POPC   C1B29059  21.820   8.108   8.813
 1961POPC   C2B29060  21.666   8.276   8.429
 1961POPC   C3B29061  21.875   8.388   8.060
 1961POPC   C4B29062  21.884   8.150   7.691
 1962POPC   NC329063  35.343   9.905   9.465
 1962POPC   PO429064  35.533   9.245   9.604
 1962POPC   GL129065  35.475   9.446   9.193
 1962POPC   GL229066  35.626   9.727   9.041
 1962POPC   C1A29067  35.213   9.493   8.825
 1962POPC   D2A29068  35.058   9.633   8.464
 1962POPC   C3A29069  35.222   9.570   8.097
 1962POPC   C4A29070  35.319   9.567   7.708
 1962POPC   C1B29071  35.373  10.009   8.773
 1962POPC   C2B29072  35.357  10.019   8.321
 1962POPC   C3B29073  35.235  10.062   7.892
 1962POPC   C4B29074  35.461  10.054   7.494
 1963POPC   NC329075   9.826  23.903   9.563
 1963POPC   PO429076   9.765  23.297   9.340
 1963POPC   GL129077   9.632  23.684   9.147
 1963POPC   GL229078   9.953  23.831   9.080
 1963POPC   C1A29079   9.560  23.732   8.725
 1963POPC   D2A29080   9.647  23.420   8.424
 1963POPC   C3A29081   9.703  23.621   8.048
 1963POPC   C4A29082   9.522  23.589   7.649
 1963POPC   C1B29083  10.035  23.495   8.779
 1963POPC   C2B29084  10.165  23.360   8.375
 1963POPC   C3B29085  10.214  23.461   7.959
 1963POPC   C4B29086  10.070  23.836   7.757
 1964POPC   NC329087   8.535  43.786   9.439
 1964POPC   PO429088   8.026  43.360   9.442
 1964POPC   GL129089   8.160  43.633   9.099
 1964POPC   GL229090   8.324  43.972   8.992
 1964POPC   C1A29091   7.965  43.765   8.725
 1964POPC   D2A29092   8.120  43.874   8.341
 1964POPC   C3A29093   8.128  43.619   7.992
 1964POPC   C4A29094   7.909  43.791   7.606
 1964POPC   C1B29095   8.494  44.340   8.784
 1964POPC   C2B29096   8.765  44.311   8.426
 1964POPC   C3B29097   8.570  44.058   8.165
 1964POPC   C4B29098   8.304  44.057   7.805
 1965POPC   NC329099  39.896  23.099   9.460
 1965POPC   PO429100  39.898  22.430   9.430
 1965POPC   GL129101  40.046  22.769   9.101
 1965POPC   GL229102  39.810  23.039   8.964
 1965POPC   C1A29103  40.227  22.931   8.712
 1965POPC   D2A29104  40.150  22.633   8.406
 1965POPC   C3A29105  39.971  22.753   8.084
 1965POPC   C4A29106  40.050  22.959   7.740
 1965POPC   C1B29107  39.714  22.759   8.663
 1965POPC   C2B29108  39.524  22.616   8.315
 1965POPC   C3B29109  39.514  22.885   7.942
 1965POPC   C4B29110  39.720  23.289   7.941
 1966POPC   NC329111  11.656  42.739   9.470
 1966POPC   PO429112  11.495  43.390   9.519
 1966POPC   GL129113  11.252  43.380   9.170
 1966POPC   GL229114  11.127  43.048   9.088
 1966POPC   C1A29115  11.328  43.411   8.748
 1966POPC   D2A29116  11.158  43.389   8.345
 1966POPC   C3A29117  11.360  43.271   7.955
 1966POPC   C4A29118  10.994  43.140   7.733
 1966POPC   C1B29119  11.013  42.706   8.788
 1966POPC   C2B29120  10.939  42.581   8.391
 1966POPC   C3B29121  11.106  42.840   8.120
 1966POPC   C4B29122  11.324  42.734   7.727
 1967POPC   NC329123   1.004  28.881   9.858
 1967POPC   PO429124   0.968  29.475   9.491
 1967POPC   GL129125   1.107  29.355   9.119
 1967POPC   GL229126   1.254  29.059   9.171
 1967POPC   C1A29127   1.270  29.340   8.723
 1967POPC   D2A29128   1.211  29.038   8.411
 1967POPC   C3A29129   0.972  29.111   8.078
 1967POPC   C4A29130   1.181  29.225   7.693
 1967POPC   C1B29131   1.426  28.797   8.817
 1967POPC   C2B29132   1.414  28.556   8.419
 1967POPC   C3B29133   1.329  28.728   7.984
 1967POPC   C4B29134   1.348  28.774   7.515
 1968POPC   NC329135  42.557  40.807   9.299
 1968POPC   PO429136  43.087  40.677   9.732
 1968POPC   GL129137  43.146  40.721   9.223
 1968POPC   GL229138  43.469  40.824   9.040
 1968POPC   C1A29139  43.049  40.839   8.769
 1968POPC   D2A29140  43.299  40.803   8.439
 1968POPC   C3A29141  43.279  40.490   8.151
 1968POPC   C4A29142  43.289  40.523   7.706
 1968POPC   C1B29143  43.541  41.170   8.703
 1968POPC   C2B29144  43.308  41.303   8.328
 1968POPC   C3B29145  43.215  41.011   7.976
 1968POPC   C4B29146  42.878  40.814   7.747
 1969POPC   NC329147  41.961  16.026   9.584
 1969POPC   PO429148  42.584  15.841   9.579
 1969POPC   GL129149  42.328  16.146   9.256
 1969POPC   GL229150  41.965  16.286   9.173
 1969POPC   C1A29151  42.381  16.313   8.825
 1969POPC   D2A29152  42.378  16.050   8.447
 1969POPC   C3A29153  42.606  16.166   8.079
 1969POPC   C4A29154  42.424  16.078   7.703
 1969POPC   C1B29155  42.041  15.932   8.874
 1969POPC   C2B29156  41.897  15.754   8.495
 1969POPC   C3B29157  42.076  15.786   8.101
 1969POPC   C4B29158  41.943  15.907   7.734
 1970POPC   NC329159  40.497  24.655   9.542
 1970POPC   PO429160  40.686  24.097   9.220
 1970POPC   GL129161  40.848  24.511   9.184
 1970POPC   GL229162  40.539  24.646   9.033
 1970POPC   C1A29163  41.058  24.736   8.867
 1970POPC   D2A29164  41.157  24.576   8.442
 1970POPC   C3A29165  40.867  24.524   8.097
 1970POPC   C4A29166  41.027  24.555   7.685
 1970POPC   C1B29167  40.669  24.503   8.636
 1970POPC   C2B29168  40.537  24.173   8.388
 1970POPC   C3B29169  40.512  23.992   8.003
 1970POPC   C4B29170  40.667  24.221   7.653
 1971POPC   NC329171  40.424   6.923   9.759
 1971POPC   PO429172  40.956   7.172   9.394
 1971POPC   GL129173  40.620   7.345   9.068
 1971POPC   GL229174  40.468   7.730   9.040
 1971POPC   C1A29175  40.834   7.521   8.723
 1971POPC   D2A29176  41.053   7.283   8.435
 1971POPC   C3A29177  41.118   7.429   8.054
 1971POPC   C4A29178  41.093   7.230   7.665
 1971POPC   C1B29179  40.301   7.504   8.678
 1971POPC   C2B29180  40.558   7.418   8.312
 1971POPC   C3B29181  40.632   7.315   7.918
 1971POPC   C4B29182  40.422   7.530   7.662
 1972POPC   NC329183  10.854   1.118   9.480
 1972POPC   PO429184  10.333   1.553   9.524
 1972POPC   GL129185  10.540   1.389   9.153
 1972POPC   GL229186  10.499   1.034   9.070
 1972POPC   C1A29187  10.602   1.391   8.708
 1972POPC   D2A29188  10.466   1.077   8.375
 1972POPC   C3A29189  10.553   1.154   7.933
 1972POPC   C4A29190  10.277   1.370   7.632
 1972POPC   C1B29191  10.249   0.738   8.806
 1972POPC   C2B29192  10.101   0.557   8.400
 1972POPC   C3B29193  10.201   0.756   8.016
 1972POPC   C4B29194  10.295   0.875   7.569
 1973POPC   NC329195  38.931  27.361   9.596
 1973POPC   PO429196  39.456  27.083   9.352
 1973POPC   GL129197  39.326  27.556   9.178
 1973POPC   GL229198  38.952  27.671   9.178
 1973POPC   C1A29199  39.234  27.820   8.770
 1973POPC   D2A29200  39.118  27.751   8.310
 1973POPC   C3A29201  39.326  27.737   7.872
 1973POPC   C4A29202  39.378  27.402   7.574
 1973POPC   C1B29203  38.782  27.543   8.797
 1973POPC   C2B29204  38.800  27.353   8.367
 1973POPC   C3B29205  38.721  27.491   7.958
 1973POPC   C4B29206  38.884  27.732   7.644
 1974POPC   NC329207  13.155  43.667   9.562
 1974POPC   PO429208  13.660  44.146   9.473
 1974POPC   GL129209  13.487  44.164   9.041
 1974POPC   GL229210  13.164  44.082   9.098
 1974POPC   C1A29211  13.427  44.068   8.565
 1974POPC   D2A29212  13.620  44.160   8.143
 1974POPC   C3A29213  13.681  43.836   7.814
 1974POPC   C4A29214  13.972  43.808   7.447
 1974POPC   C1B29215  13.246  43.679   8.880
 1974POPC   C2B29216  13.450  43.533   8.481
 1974POPC   C3B29217  13.390  43.425   8.040
 1974POPC   C4B29218  13.212  43.617   7.711
 1975POPC   NC329219  41.721  17.694   9.507
 1975POPC   PO429220  41.214  17.431   9.620
 1975POPC   GL129221  41.357  17.563   9.206
 1975POPC   GL229222  41.608  17.316   9.119
 1975POPC   C1A29223  41.483  17.654   8.767
 1975POPC   D2A29224  41.675  17.354   8.522
 1975POPC   C3A29225  41.858  17.463   8.147
 1975POPC   C4A29226  41.726  17.512   7.733
 1975POPC   C1B29227  41.208  17.212   8.890
 1975POPC   C2B29228  41.200  17.179   8.453
 1975POPC   C3B29229  41.453  17.139   8.067
 1975POPC   C4B29230  41.298  17.265   7.646
 1976POPC   NC329231  19.688  28.985   9.581
 1976POPC   PO429232  20.311  29.231   9.655
 1976POPC   GL129233  19.973  29.256   9.277
 1976POPC   GL229234  19.613  29.402   9.284
 1976POPC   C1A29235  19.854  28.965   8.901
 1976POPC   D2A29236  20.063  28.875   8.495
 1976POPC   C3A29237  19.927  28.971   8.060
 1976POPC   C4A29238  20.095  29.087   7.637
 1976POPC   C1B29239  19.740  29.460   8.859
 1976POPC   C2B29240  19.729  29.290   8.449
 1976POPC   C3B29241  19.756  29.444   8.015
 1976POPC   C4B29242  19.610  29.184   7.690
 1977POPC   NC329243  19.290  38.055   9.481
 1977POPC   PO429244  19.750  38.480   9.598
 1977POPC   GL129245  19.792  38.128   9.266
 1977POPC   GL229246  20.098  38.204   9.077
 1977POPC   C1A29247  19.672  38.002   8.815
 1977POPC   D2A29248  19.723  38.091   8.328
 1977POPC   C3A29249  19.596  38.482   8.038
 1977POPC   C4A29250  19.475  38.711   7.635
 1977POPC   C1B29251  20.125  38.623   8.806
 1977POPC   C2B29252  20.209  38.821   8.345
 1977POPC   C3B29253  20.090  38.648   7.928
 1977POPC   C4B29254  20.009  38.207   7.908
 1978POPC   NC329255  10.904   5.842   9.503
 1978POPC   PO429256  10.312   6.066   9.650
 1978POPC   GL129257  10.464   6.124   9.247
 1978POPC   GL229258  10.755   6.312   9.268
 1978POPC   C1A29259  10.359   5.908   8.889
 1978POPC   D2A29260  10.314   5.639   8.533
 1978POPC   C3A29261  10.400   5.882   8.135
 1978POPC   C4A29262  10.280   5.961   7.704
 1978POPC   C1B29263  10.806   6.234   8.852
 1978POPC   C2B29264  10.757   5.910   8.568
 1978POPC   C3B29265  10.915   5.823   8.195
 1978POPC   C4B29266  10.784   5.803   7.801
 1979POPC   NC329267  34.806  23.430   9.501
 1979POPC   PO429268  34.150  23.474   9.471
 1979POPC   GL129269  34.462  23.481   9.080
 1979POPC   GL229270  34.788  23.688   9.070
 1979POPC   C1A29271  34.605  23.493   8.622
 1979POPC   D2A29272  34.700  23.292   8.215
 1979POPC   C3A29273  34.547  23.524   7.877
 1979POPC   C4A29274  34.784  23.630   7.540
 1979POPC   C1B29275  34.934  23.941   8.716
 1979POPC   C2B29276  34.925  23.827   8.272
 1979POPC   C3B29277  34.717  24.011   7.907
 1979POPC   C4B29278  34.796  24.143   7.484
 1980POPC   NC329279  38.862  20.645   9.531
 1980POPC   PO429280  39.395  20.305   9.362
 1980POPC   GL129281  39.148  20.544   9.118
 1980POPC   GL229282  38.801  20.378   9.113
 1980POPC   C1A29283  39.262  20.790   8.765
 1980POPC   D2A29284  39.389  20.957   8.382
 1980POPC   C3A29285  39.211  20.769   8.046
 1980POPC   C4A29286  39.404  20.794   7.673
 1980POPC   C1B29287  38.788  20.572   8.758
 1980POPC   C2B29288  38.940  20.506   8.390
 1980POPC   C3B29289  38.822  20.395   8.009
 1980POPC   C4B29290  38.914  20.602   7.622
 1981POPC   NC329291   7.269  34.881   9.547
 1981POPC   PO429292   7.625  34.363   9.626
 1981POPC   GL129293   7.539  34.276   9.203
 1981POPC   GL229294   7.250  34.523   9.129
 1981POPC   C1A29295   7.628  34.270   8.778
 1981POPC   D2A29296   7.661  34.559   8.440
 1981POPC   C3A29297   7.515  34.460   8.033
 1981POPC   C4A29298   7.495  34.203   7.679
 1981POPC   C1B29299   7.026  34.721   8.775
 1981POPC   C2B29300   7.188  34.769   8.372
 1981POPC   C3B29301   7.511  34.950   8.135
 1981POPC   C4B29302   7.372  34.853   7.735
 1982POPC   NC329303  39.613  20.722   9.345
 1982POPC   PO429304  40.189  20.830   9.670
 1982POPC   GL129305  40.091  20.533   9.183
 1982POPC   GL229306  39.816  20.330   9.099
 1982POPC   C1A29307  40.214  20.604   8.705
 1982POPC   D2A29308  40.405  20.824   8.360
 1982POPC   C3A29309  40.201  20.696   7.993
 1982POPC   C4A29310  39.918  20.904   7.715
 1982POPC   C1B29311  39.705  20.512   8.717
 1982POPC   C2B29312  39.902  20.392   8.353
 1982POPC   C3B29313  39.709  20.564   8.027
 1982POPC   C4B29314  39.762  20.437   7.609
 1983POPC   NC329315   5.290  32.288   9.582
 1983POPC   PO429316   4.659  32.170   9.441
 1983POPC   GL129317   5.002  32.168   9.165
 1983POPC   GL229318   5.377  32.058   9.145
 1983POPC   C1A29319   5.110  32.324   8.768
 1983POPC   D2A29320   5.302  32.405   8.384
 1983POPC   C3A29321   4.969  32.345   8.122
 1983POPC   C4A29322   5.062  32.395   7.736
 1983POPC   C1B29323   5.158  31.815   8.819
 1983POPC   C2B29324   5.200  31.888   8.394
 1983POPC   C3B29325   5.330  32.017   8.010
 1983POPC   C4B29326   5.081  31.862   7.714
 1984POPC   NC329327  31.777   4.959   9.492
 1984POPC   PO429328  31.147   5.381   9.471
 1984POPC   GL129329  31.318   5.325   9.082
 1984POPC   GL229330  31.624   5.330   9.175
 1984POPC   C1A29331  31.514   4.974   8.814
 1984POPC   D2A29332  31.638   4.736   8.437
 1984POPC   C3A29333  31.607   4.931   8.031
 1984POPC   C4A29334  31.459   4.979   7.633
 1984POPC   C1B29335  31.779   5.439   8.790
 1984POPC   C2B29336  31.751   5.257   8.404
 1984POPC   C3B29337  31.906   5.373   8.011
 1984POPC   C4B29338  31.918   5.258   7.619
 1985POPC   NC329339  15.288   9.338   9.431
 1985POPC   PO429340  15.324   8.679   9.460
 1985POPC   GL129341  15.156   8.916   9.119
 1985POPC   GL229342  15.395   9.163   8.983
 1985POPC   C1A29343  15.088   8.759   8.705
 1985POPC   D2A29344  15.263   8.489   8.381
 1985POPC   C3A29345  14.986   8.623   8.067
 1985POPC   C4A29346  14.967   9.009   7.836
 1985POPC   C1B29347  15.037   9.275   8.730
 1985POPC   C2B29348  15.078   9.256   8.279
 1985POPC   C3B29349  15.271   9.416   7.898
 1985POPC   C4B29350  15.454   9.288   7.517
 1986POPC   NC329351   8.846   4.976   9.486
 1986POPC   PO429352   8.571   5.494   9.379
 1986POPC   GL129353   8.838   5.302   9.079
 1986POPC   GL229354   8.735   4.940   8.988
 1986POPC   C1A29355   9.011   5.255   8.658
 1986POPC   D2A29356   8.874   5.059   8.304
 1986POPC   C3A29357   9.015   5.216   7.920
 1986POPC   C4A29358   8.754   4.980   7.631
 1986POPC   C1B29359   9.091   4.767   8.788
 1986POPC   C2B29360   9.136   4.573   8.392
 1986POPC   C3B29361   9.149   4.730   7.993
 1986POPC   C4B29362   9.480   4.966   7.785
 1987POPC   NC329363  22.783  42.924   9.558
 1987POPC   PO429364  23.112  43.443   9.323
 1987POPC   GL129365  22.858  43.229   9.151
 1987POPC   GL229366  23.030  42.973   9.114
 1987POPC   C1A29367  22.812  43.188   8.711
 1987POPC   D2A29368  22.941  43.414   8.371
 1987POPC   C3A29369  22.847  43.278   7.969
 1987POPC   C4A29370  22.628  43.072   7.632
 1987POPC   C1B29371  23.377  42.857   8.888
 1987POPC   C2B29372  23.533  42.825   8.473
 1987POPC   C3B29373  23.314  42.995   8.111
 1987POPC   C4B29374  23.242  43.126   7.687
 1988POPC   NC329375  43.977  29.406   9.538
 1988POPC   PO429376  43.500  29.838   9.397
 1988POPC   GL129377  43.844  29.720   9.129
 1988POPC   GL229378  43.569  29.703   8.886
 1988POPC   C1A29379  44.007  29.907   8.762
 1988POPC   D2A29380  43.671  30.004   8.437
 1988POPC   C3A29381  43.753  29.890   8.025
 1988POPC   C4A29382  44.147  29.834   7.777
 1988POPC   C1B29383  43.621  30.228   8.882
 1988POPC   C2B29384  43.668  30.515   8.534
 1988POPC   C3B29385  43.684  30.401   8.114
 1988POPC   C4B29386  43.864  30.270   7.724
 1989POPC   NC329387   0.079  34.340   9.700
 1989POPC   PO429388  44.576  34.575   9.708
 1989POPC   GL129389  44.743  34.548   9.228
 1989POPC   GL229390   0.032  34.302   9.186
 1989POPC   C1A29391  44.628  34.745   8.758
 1989POPC   D2A29392  44.423  34.870   8.328
 1989POPC   C3A29393  44.608  34.778   7.891
 1989POPC   C4A29394  44.349  34.579   7.520
 1989POPC   C1B29395  44.885  34.309   8.740
 1989POPC   C2B29396  44.742  34.469   8.316
 1989POPC   C3B29397  44.778  34.280   7.896
 1989POPC   C4B29398  44.561  34.115   7.523
 1990POPC   NC329399   5.422   7.838   9.629
 1990POPC   PO429400   4.952   7.383   9.647
 1990POPC   GL129401   5.049   7.626   9.276
 1990POPC   GL229402   5.427   7.642   9.172
 1990POPC   C1A29403   4.899   7.419   8.882
 1990POPC   D2A29404   5.100   7.314   8.495
 1990POPC   C3A29405   4.821   7.230   8.150
 1990POPC   C4A29406   4.879   7.286   7.723
 1990POPC   C1B29407   5.224   7.789   8.814
 1990POPC   C2B29408   5.301   7.791   8.414
 1990POPC   C3B29409   5.183   7.596   8.046
 1990POPC   C4B29410   5.253   7.655   7.623
 1991POPC   NC329411  42.654   2.231   9.427
 1991POPC   PO429412  42.344   1.635   9.483
 1991POPC   GL129413  42.347   1.892   9.130
 1991POPC   GL229414  42.684   1.800   9.093
 1991POPC   C1A29415  42.074   2.015   8.786
 1991POPC   D2A29416  41.991   1.881   8.370
 1991POPC   C3A29417  42.272   2.090   8.103
 1991POPC   C4A29418  42.218   2.098   7.663
 1991POPC   C1B29419  42.823   1.527   8.764
 1991POPC   C2B29420  42.935   1.593   8.334
 1991POPC   C3B29421  42.724   1.841   8.014
 1991POPC   C4B29422  42.687   1.866   7.592
 1992POPC   NC329423  42.591   4.486   9.542
 1992POPC   PO429424  42.094   4.005   9.519
 1992POPC   GL129425  42.251   4.205   9.189
 1992POPC   GL229426  42.144   3.952   8.968
 1992POPC   C1A29427  42.070   4.438   8.841
 1992POPC   D2A29428  41.950   4.242   8.488
 1992POPC   C3A29429  42.160   4.241   8.111
 1992POPC   C4A29430  42.028   4.432   7.714
 1992POPC   C1B29431  42.519   4.185   8.753
 1992POPC   C2B29432  42.783   4.317   8.400
 1992POPC   C3B29433  42.687   4.164   8.021
 1992POPC   C4B29434  42.475   4.199   7.666
 1993POPC   NC329435  30.213  33.018   9.376
 1993POPC   PO429436  29.707  33.411   9.564
 1993POPC   GL129437  29.770  33.132   9.123
 1993POPC   GL229438  29.995  32.784   9.003
 1993POPC   C1A29439  29.903  33.137   8.663
 1993POPC   D2A29440  29.961  32.931   8.270
 1993POPC   C3A29441  29.836  33.148   7.906
 1993POPC   C4A29442  29.885  33.068   7.471
 1993POPC   C1B29443  30.317  32.774   8.630
 1993POPC   C2B29444  30.439  32.706   8.179
 1993POPC   C3B29445  30.207  32.827   7.797
 1993POPC   C4B29446  30.313  32.830   7.352
 1994POPC   NC329447  34.175  12.992   9.593
 1994POPC   PO429448  34.770  13.227   9.488
 1994POPC   GL129449  34.743  12.904   9.194
 1994POPC   GL229450  34.420  12.987   9.168
 1994POPC   C1A29451  34.572  12.680   8.813
 1994POPC   D2A29452  34.758  12.726   8.430
 1994POPC   C3A29453  34.556  12.831   8.044
 1994POPC   C4A29454  34.706  12.578   7.703
 1994POPC   C1B29455  34.206  13.116   8.861
 1994POPC   C2B29456  34.311  13.061   8.455
 1994POPC   C3B29457  34.153  13.243   8.103
 1994POPC   C4B29458  34.168  13.126   7.676
 1995POPC   NC329459  37.037  33.202   9.355
 1995POPC   PO429460  36.494  32.805   9.461
 1995POPC   GL129461  36.608  33.044   9.124
 1995POPC   GL229462  36.905  32.832   8.992
 1995POPC   C1A29463  36.694  33.213   8.735
 1995POPC   D2A29464  36.821  32.946   8.412
 1995POPC   C3A29465  36.708  33.111   8.040
 1995POPC   C4A29466  36.710  32.832   7.714
 1995POPC   C1B29467  37.200  33.102   8.726
 1995POPC   C2B29468  37.332  33.052   8.304
 1995POPC   C3B29469  37.164  32.824   7.982
 1995POPC   C4B29470  37.095  33.173   7.711
 1996POPC   NC329471  30.316   1.976   9.476
 1996POPC   PO429472  29.847   1.595   9.737
 1996POPC   GL129473  29.889   1.593   9.262
 1996POPC   GL229474  29.574   1.607   9.076
 1996POPC   C1A29475  29.953   1.913   8.898
 1996POPC   D2A29476  29.811   2.212   8.551
 1996POPC   C3A29477  29.943   2.084   8.157
 1996POPC   C4A29478  29.888   1.919   7.722
 1996POPC   C1B29479  29.513   1.777   8.645
 1996POPC   C2B29480  29.599   1.703   8.178
 1996POPC   C3B29481  29.465   1.622   7.729
 1996POPC   C4B29482  29.523   1.779   7.280
 1997POPC   NC329483   4.711  32.625   9.364
 1997POPC   PO429484   4.205  32.256   9.724
 1997POPC   GL129485   4.216  32.359   9.233
 1997POPC   GL229486   4.344  32.080   9.074
 1997POPC   C1A29487   3.962  32.209   8.801
 1997POPC   D2A29488   3.901  32.208   8.349
 1997POPC   C3A29489   4.286  32.302   8.085
 1997POPC   C4A29490   4.588  32.563   7.850
 1997POPC   C1B29491   4.656  31.933   8.815
 1997POPC   C2B29492   4.712  32.023   8.404
 1997POPC   C3B29493   4.619  31.930   7.967
 1997POPC   C4B29494   4.669  32.079   7.534
 1998POPC   NC329495   0.555   1.940   9.504
 1998POPC   PO429496   0.250   2.600   9.509
 1998POPC   GL129497   0.211   2.268   9.155
 1998POPC   GL229498   0.362   1.980   9.048
 1998POPC   C1A29499   0.126   2.267   8.708
 1998POPC   D2A29500   0.291   1.931   8.446
 1998POPC   C3A29501   0.202   1.949   7.984
 1998POPC   C4A29502   0.610   1.928   7.785
 1998POPC   C1B29503   0.597   1.702   8.845
 1998POPC   C2B29504   0.546   1.439   8.528
 1998POPC   C3B29505   0.359   1.501   8.167
 1998POPC   C4B29506   0.352   1.485   7.763
 1999POPC   NC329507   0.482  43.082   9.566
 1999POPC   PO429508   0.367  43.715   9.420
 1999POPC   GL129509   0.335  43.350   9.117
 1999POPC   GL229510   0.617  43.110   9.090
 1999POPC   C1A29511   0.221  43.014   8.781
 1999POPC   D2A29512   0.296  42.736   8.403
 1999POPC   C3A29513   0.361  42.988   8.027
 1999POPC   C4A29514   0.189  43.334   7.767
 1999POPC   C1B29515   0.708  43.301   8.721
 1999POPC   C2B29516   0.788  43.189   8.301
 1999POPC   C3B29517   0.699  43.376   7.899
 1999POPC   C4B29518   0.582  43.101   7.561
 2000POPC   NC329519   8.458   1.372   9.520
 2000POPC   PO429520   7.932   0.880   9.392
 2000POPC   GL129521   8.158   1.140   9.134
 2000POPC   GL229522   8.506   1.061   9.126
 2000POPC   C1A29523   8.067   1.363   8.761
 2000POPC   D2A29524   7.766   1.456   8.435
 2000POPC   C3A29525   7.947   1.494   8.025
 2000POPC   C4A29526   8.061   1.260   7.687
 2000POPC   C1B29527   8.570   1.360   8.820
 2000POPC   C2B29528   8.587   1.229   8.406
 2000POPC   C3B29529   8.488   1.350   8.003
 2000POPC   C4B29530   8.455   1.555   7.596
 2001POPC   NC329531  14.793  36.808   9.380
 2001POPC   PO429532  15.492  36.917   9.472
 2001POPC   GL129533  15.208  36.908   9.120
 2001POPC   GL229534  15.108  36.532   9.085
 2001POPC   C1A29535  14.892  36.913   8.737
 2001POPC   D2A29536  14.734  36.776   8.308
 2001POPC   C3A29537  14.828  37.066   7.952
 2001POPC   C4A29538  14.844  37.268   7.545
 2001POPC   C1B29539  15.350  36.689   8.706
 2001POPC   C2B29540  15.236  36.934   8.332
 2001POPC   C3B29541  15.258  36.772   7.934
 2001POPC   C4B29542  15.500  36.785   7.572
 2002POPC   NC329543  23.288  15.925   9.629
 2002POPC   PO429544  23.969  15.848   9.651
 2002POPC   GL129545  23.758  16.069   9.270
 2002POPC   GL229546  23.487  16.291   9.191
 2002POPC   C1A29547  23.822  16.111   8.796
 2002POPC   D2A29548  23.624  16.163   8.363
 2002POPC   C3A29549  23.783  16.010   7.947
 2002POPC   C4A29550  23.591  16.170   7.552
 2002POPC   C1B29551  23.395  15.892   8.937
 2002POPC   C2B29552  23.486  15.686   8.503
 2002POPC   C3B29553  23.365  15.741   8.039
 2002POPC   C4B29554  23.203  15.858   7.630
 2003POPC   NC329555  27.808  20.193   9.487
 2003POPC   PO429556  27.952  19.514   9.533
 2003POPC   GL129557  27.773  19.601   9.146
 2003POPC   GL229558  27.667  19.934   9.079
 2003POPC   C1A29559  27.698  19.581   8.726
 2003POPC   D2A29560  27.645  19.851   8.445
 2003POPC   C3A29561  27.608  19.611   8.122
 2003POPC   C4A29562  27.559  19.736   7.756
 2003POPC   C1B29563  27.314  20.064   8.830
 2003POPC   C2B29564  27.131  19.930   8.481
 2003POPC   C3B29565  27.262  20.006   8.078
 2003POPC   C4B29566  27.307  20.160   7.668
 2004POPC   NC329567  27.447  19.451   9.519
 2004POPC   PO429568  27.877  18.798   9.522
 2004POPC   GL129569  27.748  19.084   9.227
 2004POPC   GL229570  27.400  19.010   9.223
 2004POPC   C1A29571  27.719  19.019   8.788
 2004POPC   D2A29572  27.770  19.177   8.375
 2004POPC   C3A29573  27.800  18.835   8.101
 2004POPC   C4A29574  27.489  18.721   7.806
 2004POPC   C1B29575  27.318  19.316   8.901
 2004POPC   C2B29576  27.271  19.433   8.476
 2004POPC   C3B29577  27.287  19.191   8.119
 2004POPC   C4B29578  27.202  19.345   7.728
 2005POPC   NC329579  27.086  32.342   9.517
 2005POPC   PO429580  27.702  31.988   9.568
 2005POPC   GL129581  27.621  32.224   9.184
 2005POPC   GL229582  27.884  32.457   9.016
 2005POPC   C1A29583  27.608  32.070   8.743
 2005POPC   D2A29584  27.385  31.925   8.358
 2005POPC   C3A29585  27.553  31.909   7.920
 2005POPC   C4A29586  27.327  31.855   7.497
 2005POPC   C1B29587  27.476  32.584   8.847
 2005POPC   C2B29588  27.271  32.768   8.489
 2005POPC   C3B29589  27.170  32.645   8.037
 2005POPC   C4B29590  27.373  32.360   7.718
 2006POPC   NC329591  15.804  25.071   9.355
 2006POPC   PO429592  16.292  25.437   9.444
 2006POPC   GL129593  16.144  25.312   9.051
 2006POPC   GL229594  15.777  25.360   8.948
 2006POPC   C1A29595  16.150  25.186   8.634
 2006POPC   D2A29596  16.249  25.367   8.259
 2006POPC   C3A29597  15.974  25.207   7.944
 2006POPC   C4A29598  15.623  25.016   7.788
 2006POPC   C1B29599  15.552  25.602   8.638
 2006POPC   C2B29600  15.426  25.607   8.188
 2006POPC   C3B29601  15.657  25.579   7.781
 2006POPC   C4B29602  15.704  25.771   7.347
 2007POPC   NC329603   9.229  22.798   9.552
 2007POPC   PO429604   8.490  22.640   9.418
 2007POPC   GL129605   8.822  22.834   9.176
 2007POPC   GL229606   9.118  22.656   9.025
 2007POPC   C1A29607   8.864  22.978   8.758
 2007POPC   D2A29608   8.716  22.774   8.358
 2007POPC   C3A29609   8.971  22.754   7.986
 2007POPC   C4A29610   8.845  22.932   7.586
 2007POPC   C1B29611   9.199  22.661   8.550
 2007POPC   C2B29612   9.169  23.082   8.360
 2007POPC   C3B29613   9.350  23.232   8.018
 2007POPC   C4B29614   9.354  22.979   7.695
 2008POPC   NC329615  13.493  17.221   9.948
 2008POPC   PO429616  13.423  17.745   9.489
 2008POPC   GL129617  13.729  17.626   9.135
 2008POPC   GL229618  13.470  17.511   9.004
 2008POPC   C1A29619  13.869  17.575   8.714
 2008POPC   D2A29620  13.513  17.715   8.480
 2008POPC   C3A29621  13.460  17.766   8.043
 2008POPC   C4A29622  13.446  18.107   7.745
 2008POPC   C1B29623  13.302  17.304   8.697
 2008POPC   C2B29624  13.127  17.051   8.369
 2008POPC   C3B29625  13.392  17.002   8.027
 2008POPC   C4B29626  13.558  17.344   7.773
 2009POPC   NC329627   4.784  21.769   9.477
 2009POPC   PO429628   4.232  21.384   9.571
 2009POPC   GL129629   4.197  21.475   9.159
 2009POPC   GL229630   4.540  21.416   9.143
 2009POPC   C1A29631   4.195  21.331   8.709
 2009POPC   D2A29632   3.966  21.239   8.301
 2009POPC   C3A29633   4.009  21.379   7.840
 2009POPC   C4A29634   4.060  21.359   7.369
 2009POPC   C1B29635   4.577  21.672   8.798
 2009POPC   C2B29636   4.675  21.749   8.384
 2009POPC   C3B29637   4.452  21.528   8.072
 2009POPC   C4B29638   4.364  21.705   7.687
 2010POPC   NC329639  40.281   0.672   9.580
 2010POPC   PO429640  39.919   0.003   9.599
 2010POPC   GL129641  40.075   0.242   9.208
 2010POPC   GL229642  39.964   0.604   9.166
 2010POPC   C1A29643  39.975   0.309   8.738
 2010POPC   D2A29644  39.855   0.093   8.341
 2010POPC   C3A29645  40.022   0.275   7.961
 2010POPC   C4A29646  39.735   0.531   7.740
 2010POPC   C1B29647  40.060   0.833   8.776
 2010POPC   C2B29648  40.058   0.660   8.334
 2010POPC   C3B29649  40.112   0.808   7.906
 2010POPC   C4B29650  40.074   0.737   7.449
 2011POPC   NC329651   0.161  41.718   9.539
 2011POPC   PO429652   0.690  41.290   9.475
 2011POPC   GL129653   0.450  41.359   9.145
 2011POPC   GL229654   0.497  41.720   9.135
 2011POPC   C1A29655   0.524  41.454   8.703
 2011POPC   D2A29656   0.350  41.754   8.428
 2011POPC   C3A29657   0.420  41.583   8.043
 2011POPC   C4A29658   0.363  41.703   7.656
 2011POPC   C1B29659   0.083  41.666   8.904
 2011POPC   C2B29660  44.837  41.670   8.518
 2011POPC   C3B29661  44.917  41.465   8.133
 2011POPC   C4B29662   0.070  41.293   7.769
 2012POPC   NC329663  35.133  11.350   9.444
 2012POPC   PO429664  35.791  11.129   9.510
 2012POPC   GL129665  35.518  11.160   9.158
 2012POPC   GL229666  35.206  10.929   9.143
 2012POPC   C1A29667  35.381  11.459   8.835
 2012POPC   D2A29668  35.211  11.506   8.434
 2012POPC   C3A29669  35.453  11.470   8.059
 2012POPC   C4A29670  35.385  11.555   7.647
 2012POPC   C1B29671  35.131  11.017   8.698
 2012POPC   C2B29672  35.232  11.030   8.250
 2012POPC   C3B29673  35.134  11.150   7.801
 2012POPC   C4B29674  35.294  11.126   7.377
 2013POPC   NC329675  11.416  27.002   9.443
 2013POPC   PO429676  10.977  26.539   9.695
 2013POPC   GL129677  11.180  26.579   9.228
 2013POPC   GL229678  11.086  26.877   9.103
 2013POPC   C1A29679  11.454  26.758   8.816
 2013POPC   D2A29680  11.661  26.881   8.406
 2013POPC   C3A29681  11.308  26.798   8.138
 2013POPC   C4A29682  11.216  26.653   7.719
 2013POPC   C1B29683  10.958  27.147   8.809
 2013POPC   C2B29684  10.792  27.049   8.400
 2013POPC   C3B29685  10.883  27.046   7.977
 2013POPC   C4B29686  11.097  27.165   7.627
 2014POPC   NC329687  39.506   0.085   9.405
 2014POPC   PO429688  39.120   0.570   9.400
 2014POPC   GL129689  39.027   0.434   9.040
 2014POPC   GL229690  39.115   0.114   9.051
 2014POPC   C1A29691  39.054   0.614   8.670
 2014POPC   D2A29692  39.000   0.586   8.277
 2014POPC   C3A29693  38.948   0.182   8.097
 2014POPC   C4A29694  39.059   0.457   7.782
 2014POPC   C1B29695  39.453   0.301   8.806
 2014POPC   C2B29696  39.364   0.246   8.425
 2014POPC   C3B29697  39.452   0.259   8.030
 2014POPC   C4B29698  39.629   0.030   7.687
 2015POPC   NC329699  29.433  41.283   9.747
 2015POPC   PO429700  29.653  41.595   9.369
 2015POPC   GL129701  29.877  41.601   9.022
 2015POPC   GL229702  30.137  41.761   9.207
 2015POPC   C1A29703  29.896  41.530   8.569
 2015POPC   D2A29704  29.628  41.619   8.217
 2015POPC   C3A29705  29.704  41.583   7.742
 2015POPC   C4A29706  29.777  41.429   7.271
 2015POPC   C1B29707  30.262  41.849   8.777
 2015POPC   C2B29708  30.391  41.683   8.367
 2015POPC   C3B29709  30.493  41.613   7.915
 2015POPC   C4B29710  30.182  41.533   7.569
 2016POPC   NC329711  28.358  33.206   9.431
 2016POPC   PO429712  28.440  32.642   9.642
 2016POPC   GL129713  28.270  32.772   9.193
 2016POPC   GL229714  28.585  32.716   9.075
 2016POPC   C1A29715  28.319  33.072   8.810
 2016POPC   D2A29716  28.562  33.094   8.433
 2016POPC   C3A29717  28.290  33.250   8.120
 2016POPC   C4A29718  27.956  33.142   7.821
 2016POPC   C1B29719  28.335  32.572   8.716
 2016POPC   C2B29720  28.565  32.563   8.368
 2016POPC   C3B29721  28.579  32.759   8.015
 2016POPC   C4B29722  28.223  32.675   7.798
 2017POPC   NC329723   4.955  33.376   9.644
 2017POPC   PO429724   5.154  32.736   9.491
 2017POPC   GL129725   5.008  33.063   9.186
 2017POPC   GL229726   5.061  33.447   9.158
 2017POPC   C1A29727   4.909  32.937   8.754
 2017POPC   D2A29728   4.685  32.784   8.374
 2017POPC   C3A29729   4.978  32.844   8.043
 2017POPC   C4A29730   4.947  32.920   7.614
 2017POPC   C1B29731   4.864  33.443   8.771
 2017POPC   C2B29732   4.848  33.282   8.334
 2017POPC   C3B29733   5.093  33.323   7.927
 2017POPC   C4B29734   5.185  33.441   7.442
 2018POPC   NC329735   4.358  41.873   9.193
 2018POPC   PO429736   4.580  42.469   9.401
 2018POPC   GL129737   4.371  42.373   9.036
 2018POPC   GL229738   4.018  42.253   9.078
 2018POPC   C1A29739   4.314  42.275   8.620
 2018POPC   D2A29740   4.026  42.228   8.288
 2018POPC   C3A29741   4.264  42.120   7.902
 2018POPC   C4A29742   4.704  42.067   7.931
 2018POPC   C1B29743   3.914  42.582   8.743
 2018POPC   C2B29744   3.874  42.722   8.291
 2018POPC   C3B29745   4.232  42.720   8.004
 2018POPC   C4B29746   4.552  42.600   7.709
 2019POPC   NC329747   4.026  20.018   9.481
 2019POPC   PO429748   3.380  19.732   9.392
 2019POPC   GL129749   3.440  19.649   8.986
 2019POPC   GL229750   3.764  19.841   8.969
 2019POPC   C1A29751   3.603  19.432   8.660
 2019POPC   D2A29752   3.733  19.574   8.269
 2019POPC   C3A29753   3.458  19.496   7.956
 2019POPC   C4A29754   3.406  19.769   7.675
 2019POPC   C1B29755   3.807  20.210   8.719
 2019POPC   C2B29756   3.717  20.199   8.274
 2019POPC   C3B29757   3.848  19.965   7.901
 2019POPC   C4B29758   3.795  20.001   7.452
 2020POPC   NC329759  43.268  30.712   9.595
 2020POPC   PO429760  42.770  31.055   9.292
 2020POPC   GL129761  43.129  30.854   9.115
 2020POPC   GL229762  43.493  30.969   9.210
 2020POPC   C1A29763  43.200  30.547   8.772
 2020POPC   D2A29764  43.228  30.334   8.349
 2020POPC   C3A29765  43.097  30.552   7.986
 2020POPC   C4A29766  43.068  30.954   7.826
 2020POPC   C1B29767  43.475  31.016   8.768
 2020POPC   C2B29768  43.296  30.896   8.374
 2020POPC   C3B29769  43.536  30.883   8.015
 2020POPC   C4B29770  43.503  30.633   7.700
 2021POPC   NC329771   0.004  17.164   9.616
 2021POPC   PO429772  44.482  17.447   9.646
 2021POPC   GL129773  44.678  17.527   9.177
 2021POPC   GL229774  44.910  17.816   9.091
 2021POPC   C1A29775  44.754  17.619   8.671
 2021POPC   D2A29776  44.512  17.365   8.435
 2021POPC   C3A29777  44.439  17.198   8.057
 2021POPC   C4A29778  44.332  17.428   7.733
 2021POPC   C1B29779   0.212  17.846   8.729
 2021POPC   C2B29780   0.146  17.773   8.295
 2021POPC   C3B29781  44.830  17.575   8.056
 2021POPC   C4B29782  44.731  17.722   7.657
 2022POPC   NC329783  29.777  32.135   9.551
 2022POPC   PO429784  30.281  32.543   9.378
 2022POPC   GL129785  30.048  32.251   9.127
 2022POPC   GL229786  29.686  32.356   9.116
 2022POPC   C1A29787  29.992  32.350   8.704
 2022POPC   D2A29788  30.214  32.299   8.388
 2022POPC   C3A29789  29.995  32.446   8.111
 2022POPC   C4A29790  29.762  32.603   7.807
 2022POPC   C1B29791  29.634  32.020   8.820
 2022POPC   C2B29792  29.460  32.103   8.430
 2022POPC   C3B29793  29.574  32.176   8.034
 2022POPC   C4B29794  29.824  32.017   7.739
 2023POPC   NC329795  27.530   5.395   9.855
 2023POPC   PO429796  27.791   4.903   9.392
 2023POPC   GL129797  27.682   4.978   9.012
 2023POPC   GL229798  27.310   4.949   9.083
 2023POPC   C1A29799  27.771   4.864   8.633
 2023POPC   D2A29800  27.711   5.106   8.295
 2023POPC   C3A29801  27.931   4.984   7.946
 2023POPC   C4A29802  27.755   5.140   7.613
 2023POPC   C1B29803  27.342   5.169   8.693
 2023POPC   C2B29804  27.259   5.395   8.341
 2023POPC   C3B29805  27.348   5.252   7.951
 2023POPC   C4B29806  27.116   4.981   7.708
 2024POPC   NC329807  37.037  17.021   9.798
 2024POPC   PO429808  37.548  16.718   9.494
 2024POPC   GL129809  37.671  16.583   9.108
 2024POPC   GL229810  37.942  16.324   9.114
 2024POPC   C1A29811  37.495  16.760   8.714
 2024POPC   D2A29812  37.265  16.712   8.322
 2024POPC   C3A29813  37.550  16.829   8.005
 2024POPC   C4A29814  37.609  16.668   7.608
 2024POPC   C1B29815  37.840  16.362   8.700
 2024POPC   C2B29816  37.739  16.474   8.313
 2024POPC   C3B29817  37.835  16.334   7.910
 2024POPC   C4B29818  37.948  16.333   7.453
 2025POPC   NC329819  37.806   4.538   9.599
 2025POPC   PO429820  37.187   4.272   9.636
 2025POPC   GL129821  37.505   4.329   9.260
 2025POPC   GL229822  37.733   4.042   9.112
 2025POPC   C1A29823  37.642   4.455   8.865
 2025POPC   D2A29824  37.557   4.245   8.492
 2025POPC   C3A29825  37.663   4.435   8.107
 2025POPC   C4A29826  37.429   4.385   7.731
 2025POPC   C1B29827  38.008   4.126   8.737
 2025POPC   C2B29828  37.958   4.037   8.275
 2025POPC   C3B29829  37.863   4.068   7.813
 2025POPC   C4B29830  38.071   4.102   7.435
 2026POPC   NC329831  34.168  19.328   9.520
 2026POPC   PO429832  33.720  18.894   9.434
 2026POPC   GL129833  34.012  19.005   9.113
 2026POPC   GL229834  33.717  19.173   8.954
 2026POPC   C1A29835  34.098  19.015   8.666
 2026POPC   D2A29836  33.799  19.123   8.376
 2026POPC   C3A29837  33.926  19.061   7.980
 2026POPC   C4A29838  33.882  18.722   7.687
 2026POPC   C1B29839  33.647  18.737   8.782
 2026POPC   C2B29840  33.481  18.513   8.435
 2026POPC   C3B29841  33.556  18.696   8.060
 2026POPC   C4B29842  33.478  19.069   7.756
 2027POPC   NC329843  20.819   1.100   9.607
 2027POPC   PO429844  20.364   1.564   9.474
 2027POPC   GL129845  20.595   1.355   9.184
 2027POPC   GL229846  20.477   1.022   9.208
 2027POPC   C1A29847  20.738   1.294   8.772
 2027POPC   D2A29848  20.841   1.482   8.375
 2027POPC   C3A29849  20.711   1.308   7.977
 2027POPC   C4A29850  20.800   1.424   7.578
 2027POPC   C1B29851  20.336   0.962   8.786
 2027POPC   C2B29852  20.421   1.133   8.369
 2027POPC   C3B29853  20.317   1.015   7.925
 2027POPC   C4B29854  20.436   0.980   7.454
 2028POPC   NC329855  34.927  21.562   9.526
 2028POPC   PO429856  34.325  21.360   9.326
 2028POPC   GL129857  34.713  21.419   9.081
 2028POPC   GL229858  34.861  21.091   9.104
 2028POPC   C1A29859  34.756  21.611   8.647
 2028POPC   D2A29860  34.650  21.627   8.189
 2028POPC   C3A29861  34.399  21.230   8.066
 2028POPC   C4A29862  34.124  21.122   7.736
 2028POPC   C1B29863  34.649  21.092   8.696
 2028POPC   C2B29864  34.865  21.193   8.298
 2028POPC   C3B29865  34.845  21.290   7.832
 2028POPC   C4B29866  34.842  21.223   7.370
 2029POPC   NC329867  43.606   6.083   9.695
 2029POPC   PO429868  44.074   5.632   9.715
 2029POPC   GL129869  44.004   5.790   9.202
 2029POPC   GL229870  43.676   5.985   9.151
 2029POPC   C1A29871  44.170   5.970   8.804
 2029POPC   D2A29872  44.269   5.926   8.358
 2029POPC   C3A29873  43.892   5.760   8.119
 2029POPC   C4A29874  43.742   5.781   7.708
 2029POPC   C1B29875  43.736   6.294   8.808
 2029POPC   C2B29876  43.862   6.222   8.382
 2029POPC   C3B29877  43.781   6.253   7.947
 2029POPC   C4B29878  43.472   6.225   7.649
 2030POPC   NC329879   7.764  29.947   9.648
 2030POPC   PO429880   8.398  29.803   9.606
 2030POPC   GL129881   8.142  30.037   9.308
 2030POPC   GL229882   8.309  30.302   9.159
 2030POPC   C1A29883   8.028  29.968   8.882
 2030POPC   D2A29884   8.031  29.733   8.508
 2030POPC   C3A29885   8.074  30.001   8.145
 2030POPC   C4A29886   8.059  30.021   7.712
 2030POPC   C1B29887   8.439  30.259   8.728
 2030POPC   C2B29888   8.445  30.334   8.271
 2030POPC   C3B29889   8.469  30.301   7.831
 2030POPC   C4B29890   8.231  30.401   7.399
 2031POPC   NC329891  39.251  33.788   9.414
 2031POPC   PO429892  38.883  33.207   9.391
 2031POPC   GL129893  39.167  33.407   9.083
 2031POPC   GL229894  39.477  33.241   8.984
 2031POPC   C1A29895  39.321  33.670   8.739
 2031POPC   D2A29896  39.491  33.818   8.357
 2031POPC   C3A29897  39.273  34.038   7.998
 2031POPC   C4A29898  39.000  33.978   7.622
 2031POPC   C1B29899  39.165  33.166   8.646
 2031POPC   C2B29900  39.055  33.412   8.289
 2031POPC   C3B29901  39.186  33.555   7.887
 2031POPC   C4B29902  39.530  33.406   7.647
 2032POPC   NC329903  12.262   3.108   9.294
 2032POPC   PO429904  11.807   3.660   9.556
 2032POPC   GL129905  12.012   3.535   9.223
 2032POPC   GL229906  12.357   3.647   9.285
 2032POPC   C1A29907  11.898   3.501   8.781
 2032POPC   D2A29908  11.870   3.609   8.351
 2032POPC   C3A29909  12.183   3.452   8.102
 2032POPC   C4A29910  12.185   3.177   7.807
 2032POPC   C1B29911  12.330   3.772   8.884
 2032POPC   C2B29912  12.297   3.861   8.456
 2032POPC   C3B29913  12.236   3.935   8.017
 2032POPC   C4B29914  12.565   4.146   7.817
 2033POPC   NC329915  24.270  18.096   9.405
 2033POPC   PO429916  23.904  18.675   9.315
 2033POPC   GL129917  24.270  18.468   9.062
 2033POPC   GL229918  24.653  18.350   9.142
 2033POPC   C1A29919  24.391  18.141   8.758
 2033POPC   D2A29920  24.694  18.120   8.434
 2033POPC   C3A29921  24.500  18.115   8.039
 2033POPC   C4A29922  24.700  17.944   7.685
 2033POPC   C1B29923  24.691  18.555   8.721
 2033POPC   C2B29924  24.601  18.601   8.260
 2033POPC   C3B29925  24.637  18.597   7.810
 2033POPC   C4B29926  24.318  18.659   7.458
 2034POPC   NC329927  25.149   5.350   9.715
 2034POPC   PO429928  25.224   4.733   9.633
 2034POPC   GL129929  25.379   5.019   9.288
 2034POPC   GL229930  25.630   5.315   9.284
 2034POPC   C1A29931  25.381   4.989   8.829
 2034POPC   D2A29932  25.280   4.748   8.457
 2034POPC   C3A29933  25.025   4.934   8.129
 2034POPC   C4A29934  25.059   4.776   7.700
 2034POPC   C1B29935  25.648   5.429   8.815
 2034POPC   C2B29936  25.447   5.319   8.375
 2034POPC   C3B29937  25.497   5.073   7.951
 2034POPC   C4B29938  25.662   5.075   7.517
 2035POPC   NC329939   6.920  35.430   9.419
 2035POPC   PO429940   7.527  35.364   9.472
 2035POPC   GL129941   7.481  35.063   9.106
 2035POPC   GL229942   7.135  35.082   9.105
 2035POPC   C1A29943   7.550  35.091   8.627
 2035POPC   D2A29944   7.431  35.442   8.276
 2035POPC   C3A29945   7.489  35.357   7.834
 2035POPC   C4A29946   7.839  35.082   7.743
 2035POPC   C1B29947   7.236  35.426   8.831
 2035POPC   C2B29948   7.026  35.249   8.494
 2035POPC   C3B29949   7.035  35.135   8.033
 2035POPC   C4B29950   7.028  35.181   7.558
 2036POPC   NC329951  11.777  40.171   9.566
 2036POPC   PO429952  12.070  39.513   9.654
 2036POPC   GL129953  11.929  39.787   9.255
 2036POPC   GL229954  12.092  40.138   9.170
 2036POPC   C1A29955  12.115  39.798   8.805
 2036POPC   D2A29956  12.125  40.089   8.439
 2036POPC   C3A29957  12.314  40.074   8.021
 2036POPC   C4A29958  12.413  39.730   7.749
 2036POPC   C1B29959  11.817  40.296   8.841
 2036POPC   C2B29960  11.653  40.267   8.420
 2036POPC   C3B29961  11.799  40.169   7.996
 2036POPC   C4B29962  11.644  40.446   7.656
 2037POPC   NC329963  30.067  33.704   9.559
 2037POPC   PO429964  30.631  34.047   9.522
 2037POPC   GL129965  30.189  34.036   9.196
 2037POPC   GL229966  29.809  33.818   9.148
 2037POPC   C1A29967  30.071  33.903   8.738
 2037POPC   D2A29968  30.023  34.065   8.326
 2037POPC   C3A29969  29.984  33.801   7.937
 2037POPC   C4A29970  30.035  33.881   7.485
 2037POPC   C1B29971  29.604  33.534   8.792
 2037POPC   C2B29972  29.460  33.285   8.380
 2037POPC   C3B29973  29.374  33.353   7.921
 2037POPC   C4B29974  29.660  33.521   7.564
 2038POPC   NC329975  34.445  31.135   9.575
 2038POPC   PO429976  34.661  30.494   9.326
 2038POPC   GL129977  34.585  30.884   9.135
 2038POPC   GL229978  34.251  30.858   9.087
 2038POPC   C1A29979  34.608  30.913   8.688
 2038POPC   D2A29980  34.726  30.538   8.416
 2038POPC   C3A29981  34.845  30.652   8.000
 2038POPC   C4A29982  34.800  31.051   7.766
 2038POPC   C1B29983  34.318  30.479   8.779
 2038POPC   C2B29984  34.254  30.339   8.339
 2038POPC   C3B29985  34.339  30.490   7.902
 2038POPC   C4B29986  34.280  30.326   7.465
 2039POPC   NC329987  38.697  14.034   9.447
 2039POPC   PO429988  38.686  13.316   9.228
 2039POPC   GL129989  38.412  13.542   8.962
 2039POPC   GL229990  38.271  13.860   9.089
 2039POPC   C1A29991  38.405  13.649   8.544
 2039POPC   D2A29992  38.153  13.896   8.290
 2039POPC   C3A29993  38.223  13.652   7.927
 2039POPC   C4A29994  38.616  13.439   7.867
 2039POPC   C1B29995  38.610  14.046   8.804
 2039POPC   C2B29996  38.805  14.058   8.392
 2039POPC   C3B29997  38.785  14.277   8.016
 2039POPC   C4B29998  38.583  13.975   7.795
 2040POPC   NC329999  15.130  30.201   9.466
 2040POPC   PO430000  15.358  29.561   9.587
 2040POPC   GL130001  15.043  29.747   9.252
 2040POPC   GL230002  15.296  29.880   9.075
 2040POPC   C1A30003  14.869  30.058   8.885
 2040POPC   D2A30004  15.050  30.266   8.487
 2040POPC   C3A30005  14.912  30.189   8.053
 2040POPC   C4A30006  15.173  30.305   7.695
 2040POPC   C1B30007  15.488  29.851   8.675
 2040POPC   C2B30008  15.360  29.686   8.302
 2040POPC   C3B30009  15.327  29.872   7.906
 2040POPC   C4B30010  15.687  30.037   7.682
 2041POPC   NC330011  13.631  30.907   9.712
 2041POPC   PO430012  13.894  30.364   9.405
 2041POPC   GL130013  13.605  30.535   9.117
 2041POPC   GL230014  13.523  30.889   9.182
 2041POPC   C1A30015  13.713  30.497   8.682
 2041POPC   D2A30016  13.725  30.734   8.311
 2041POPC   C3A30017  13.904  30.658   7.902
 2041POPC   C4A30018  13.723  30.331   7.666
 2041POPC   C1B30019  13.645  31.019   8.760
 2041POPC   C2B30020  13.459  31.146   8.357
 2041POPC   C3B30021  13.384  30.894   7.970
 2041POPC   C4B30022  13.348  30.795   7.506
 2042POPC   NC330023  37.321  23.409   9.422
 2042POPC   PO430024  37.012  24.013   9.513
 2042POPC   GL130025  36.953  23.681   9.190
 2042POPC   GL230026  36.693  23.831   9.124
 2042POPC   C1A30027  37.056  23.534   8.762
 2042POPC   D2A30028  36.887  23.389   8.347
 2042POPC   C3A30029  36.888  23.622   7.978
 2042POPC   C4A30030  37.058  23.605   7.612
 2042POPC   C1B30031  36.858  24.045   8.802
 2042POPC   C2B30032  36.798  23.925   8.384
 2042POPC   C3B30033  36.593  24.050   7.995
 2042POPC   C4B30034  36.882  24.074   7.623
 2043POPC   NC330035  38.975  40.434   9.768
 2043POPC   PO430036  39.479  40.069   9.432
 2043POPC   GL130037  39.325  39.951   9.099
 2043POPC   GL230038  39.025  39.865   9.130
 2043POPC   C1A30039  39.213  40.120   8.708
 2043POPC   D2A30040  39.007  40.336   8.417
 2043POPC   C3A30041  39.193  40.141   8.088
 2043POPC   C4A30042  39.422  40.120   7.737
 2043POPC   C1B30043  38.820  39.786   8.719
 2043POPC   C2B30044  38.748  39.908   8.273
 2043POPC   C3B30045  38.861  39.850   7.818
 2043POPC   C4B30046  38.772  39.990   7.350
 2044POPC   NC330047  18.313  25.039   9.432
 2044POPC   PO430048  17.961  25.600   9.391
 2044POPC   GL130049  18.206  25.457   9.109
 2044POPC   GL230050  18.054  25.132   9.022
 2044POPC   C1A30051  18.484  25.307   8.818
 2044POPC   D2A30052  18.396  25.074   8.475
 2044POPC   C3A30053  18.377  25.270   8.100
 2044POPC   C4A30054  18.529  25.441   7.736
 2044POPC   C1B30055  17.943  25.304   8.682
 2044POPC   C2B30056  17.878  25.268   8.271
 2044POPC   C3B30057  17.942  25.386   7.843
 2044POPC   C4B30058  17.994  25.442   7.386
 2045POPC   NC330059   3.636   7.775   9.471
 2045POPC   PO430060   3.248   7.270   9.700
 2045POPC   GL130061   3.413   7.333   9.279
 2045POPC   GL230062   3.752   7.275   9.168
 2045POPC   C1A30063   3.369   7.291   8.824
 2045POPC   D2A30064   3.559   7.110   8.446
 2045POPC   C3A30065   3.345   7.297   8.086
 2045POPC   C4A30066   3.494   7.438   7.672
 2045POPC   C1B30067   3.839   7.545   8.822
 2045POPC   C2B30068   3.568   7.624   8.464
 2045POPC   C3B30069   3.659   7.716   8.062
 2045POPC   C4B30070   3.725   7.882   7.654
 2046POPC   NC330071  30.557   8.104   9.506
 2046POPC   PO430072  31.167   8.216   9.761
 2046POPC   GL130073  31.038   8.086   9.293
 2046POPC   GL230074  30.781   8.302   9.104
 2046POPC   C1A30075  31.108   8.094   8.808
 2046POPC   D2A30076  31.103   8.001   8.389
 2046POPC   C3A30077  30.761   8.139   8.155
 2046POPC   C4A30078  30.876   8.267   7.760
 2046POPC   C1B30079  30.612   8.144   8.691
 2046POPC   C2B30080  30.271   8.034   8.400
 2046POPC   C3B30081  30.265   7.948   7.952
 2046POPC   C4B30082  30.338   8.120   7.540
 2047POPC   NC330083   5.115  13.602   9.496
 2047POPC   PO430084   5.582  13.880   9.329
 2047POPC   GL130085   5.420  13.471   9.102
 2047POPC   GL230086   5.077  13.421   9.029
 2047POPC   C1A30087   5.567  13.216   8.741
 2047POPC   D2A30088   5.657  13.379   8.321
 2047POPC   C3A30089   5.369  13.570   8.066
 2047POPC   C4A30090   5.061  13.520   7.755
 2047POPC   C1B30091   5.186  13.546   8.593
 2047POPC   C2B30092   4.893  13.500   8.241
 2047POPC   C3B30093   4.562  13.440   7.921
 2047POPC   C4B30094   4.451  13.690   7.535
 2048POPC   NC330095  15.389  36.056   9.662
 2048POPC   PO430096  14.817  36.343   9.541
 2048POPC   GL130097  15.051  36.013   9.237
 2048POPC   GL230098  15.436  35.927   9.183
 2048POPC   C1A30099  15.118  35.849   8.802
 2048POPC   D2A30100  14.891  35.628   8.471
 2048POPC   C3A30101  14.970  35.904   8.098
 2048POPC   C4A30102  15.285  35.840   7.759
 2048POPC   C1B30103  15.459  36.222   8.862
 2048POPC   C2B30104  15.242  36.227   8.450
 2048POPC   C3B30105  15.335  36.265   8.005
 2048POPC   C4B30106  15.229  36.336   7.567
 2049POPC   NC330107  12.800  30.377   9.546
 2049POPC   PO430108  13.202  30.853   9.581
 2049POPC   GL130109  13.027  30.703   9.190
 2049POPC   GL230110  12.853  30.983   9.194
 2049POPC   C1A30111  12.846  30.736   8.746
 2049POPC   D2A30112  13.139  30.754   8.413
 2049POPC   C3A30113  13.004  30.564   8.030
 2049POPC   C4A30114  12.628  30.643   7.813
 2049POPC   C1B30115  13.146  31.124   8.854
 2049POPC   C2B30116  12.979  31.265   8.472
 2049POPC   C3B30117  12.789  31.044   8.135
 2049POPC   C4B30118  12.954  31.038   7.729
 2050POPC   NC330119  42.403  32.046   9.530
 2050POPC   PO430120  42.819  32.542   9.412
 2050POPC   GL130121  42.554  32.381   9.037
 2050POPC   GL230122  42.487  32.086   9.032
 2050POPC   C1A30123  42.293  32.461   8.658
 2050POPC   D2A30124  42.179  32.640   8.250
 2050POPC   C3A30125  42.165  32.472   7.841
 2050POPC   C4A30126  42.297  32.417   7.425
 2050POPC   C1B30127  42.127  31.986   8.772
 2050POPC   C2B30128  41.907  32.167   8.446
 2050POPC   C3B30129  42.002  32.028   8.029
 2050POPC   C4B30130  42.278  31.974   7.683
 2051POPC   NC330131   4.755  34.017   9.460
 2051POPC   PO430132   5.286  33.760   9.657
 2051POPC   GL130133   5.331  33.893   9.220
 2051POPC   GL230134   5.035  33.987   9.049
 2051POPC   C1A30135   5.416  33.689   8.852
 2051POPC   D2A30136   5.285  33.521   8.471
 2051POPC   C3A30137   5.366  33.788   8.145
 2051POPC   C4A30138   5.129  33.803   7.798
 2051POPC   C1B30139   4.994  33.922   8.611
 2051POPC   C2B30140   4.906  34.001   8.231
 2051POPC   C3B30141   4.699  33.691   8.038
 2051POPC   C4B30142   4.724  33.540   7.639
 2052POPC   NC330143  38.621  30.974   9.410
 2052POPC   PO430144  38.833  30.379   9.580
 2052POPC   GL130145  38.670  30.510   9.155
 2052POPC   GL230146  38.314  30.542   9.040
 2052POPC   C1A30147  38.688  30.730   8.756
 2052POPC   D2A30148  38.539  30.952   8.394
 2052POPC   C3A30149  38.612  30.740   7.980
 2052POPC   C4A30150  38.550  30.788   7.543
 2052POPC   C1B30151  38.172  30.408   8.627
 2052POPC   C2B30152  38.121  30.487   8.203
 2052POPC   C3B30153  38.146  30.555   7.764
 2052POPC   C4B30154  38.125  30.275   7.409
 2053POPC   NC330155   7.046  18.979   9.481
 2053POPC   PO430156   7.693  19.177   9.472
 2053POPC   GL130157   7.409  19.214   9.130
 2053POPC   GL230158   7.280  18.879   9.048
 2053POPC   C1A30159   7.508  19.145   8.701
 2053POPC   D2A30160   7.462  18.914   8.343
 2053POPC   C3A30161   7.302  19.147   7.996
 2053POPC   C4A30162   7.499  19.340   7.661
 2053POPC   C1B30163   7.623  18.661   8.829
 2053POPC   C2B30164   7.684  18.434   8.448
 2053POPC   C3B30165   7.699  18.549   8.038
 2053POPC   C4B30166   7.728  18.920   7.809
 2054POPC   NC330167  16.765   6.110   9.428
 2054POPC   PO430168  16.943   5.435   9.464
 2054POPC   GL130169  16.734   5.607   9.064
 2054POPC   GL230170  16.641   5.958   8.980
 2054POPC   C1A30171  16.827   5.652   8.626
 2054POPC   D2A30172  16.546   5.795   8.299
 2054POPC   C3A30173  16.499   5.604   7.873
 2054POPC   C4A30174  16.634   5.765   7.489
 2054POPC   C1B30175  16.579   6.210   8.618
 2054POPC   C2B30176  16.644   6.336   8.213
 2054POPC   C3B30177  16.524   6.118   7.914
 2054POPC   C4B30178  16.342   6.221   7.602
 2055POPC   NC330179  15.620  21.458   9.469
 2055POPC   PO430180  16.206  21.696   9.424
 2055POPC   GL130181  16.252  21.572   9.011
 2055POPC   GL230182  16.084  21.293   9.068
 2055POPC   C1A30183  16.225  21.401   8.574
 2055POPC   D2A30184  15.986  21.089   8.324
 2055POPC   C3A30185  15.857  21.187   7.943
 2055POPC   C4A30186  16.033  21.521   7.716
 2055POPC   C1B30187  15.731  21.414   8.839
 2055POPC   C2B30188  15.647  21.472   8.449
 2055POPC   C3B30189  15.498  21.523   8.059
 2055POPC   C4B30190  15.475  21.386   7.681
 2056POPC   NC330191  32.724   4.645   9.555
 2056POPC   PO430192  32.916   5.374   9.553
 2056POPC   GL130193  33.092   5.218   9.155
 2056POPC   GL230194  32.957   4.928   9.208
 2056POPC   C1A30195  33.024   5.108   8.712
 2056POPC   D2A30196  32.782   5.333   8.378
 2056POPC   C3A30197  32.922   5.249   7.945
 2056POPC   C4A30198  32.725   5.297   7.529
 2056POPC   C1B30199  32.578   4.951   8.989
 2056POPC   C2B30200  32.558   4.912   8.574
 2056POPC   C3B30201  32.601   4.873   8.136
 2056POPC   C4B30202  32.790   4.793   7.725
 2057POPC   NC330203  10.416  33.379   9.457
 2057POPC   PO430204  10.685  32.780   9.498
 2057POPC   GL130205  10.591  32.731   9.049
 2057POPC   GL230206  10.235  32.759   9.012
 2057POPC   C1A30207  10.533  33.045   8.688
 2057POPC   D2A30208  10.606  33.372   8.353
 2057POPC   C3A30209  10.699  33.103   8.005
 2057POPC   C4A30210  10.708  32.656   7.889
 2057POPC   C1B30211   9.952  32.622   8.694
 2057POPC   C2B30212   9.939  32.676   8.248
 2057POPC   C3B30213  10.199  32.840   7.916
 2057POPC   C4B30214  10.160  32.711   7.493
 2058POPC   NC330215  40.320  38.416   9.435
 2058POPC   PO430216  40.825  38.127   9.667
 2058POPC   GL130217  40.807  38.315   9.231
 2058POPC   GL230218  40.812  37.997   9.108
 2058POPC   C1A30219  40.576  38.392   8.779
 2058POPC   D2A30220  40.448  38.605   8.358
 2058POPC   C3A30221  40.675  38.527   7.949
 2058POPC   C4A30222  40.670  38.544   7.502
 2058POPC   C1B30223  41.050  38.188   8.772
 2058POPC   C2B30224  40.952  38.396   8.376
 2058POPC   C3B30225  41.075  38.216   7.975
 2058POPC   C4B30226  41.132  38.365   7.564
 2059POPC   NC330227  44.291  41.247   9.448
 2059POPC   PO430228  44.920  41.310   9.521
 2059POPC   GL130229  44.665  41.550   9.215
 2059POPC   GL230230  44.676  41.886   9.344
 2059POPC   C1A30231  44.379  41.529   8.822
 2059POPC   D2A30232  44.203  41.639   8.408
 2059POPC   C3A30233  44.247  41.380   8.062
 2059POPC   C4A30234  44.554  41.370   7.751
 2059POPC   C1B30235  44.623  41.963   8.891
 2059POPC   C2B30236  44.505  42.057   8.464
 2059POPC   C3B30237  44.568  41.817   8.058
 2059POPC   C4B30238  44.863  41.762   7.665
 2060POPC   NC330239  23.945   3.143   9.476
 2060POPC   PO430240  23.784   3.752   9.502
 2060POPC   GL130241  23.837   3.564   9.136
 2060POPC   GL230242  23.593   3.360   9.090
 2060POPC   C1A30243  23.923   3.492   8.703
 2060POPC   D2A30244  24.045   3.464   8.277
 2060POPC   C3A30245  23.998   3.739   7.952
 2060POPC   C4A30246  23.726   3.721   7.597
 2060POPC   C1B30247  23.451   3.659   8.804
 2060POPC   C2B30248  23.353   3.497   8.451
 2060POPC   C3B30249  23.489   3.610   8.048
 2060POPC   C4B30250  23.318   3.388   7.781
 2061POPC   NC330251   4.027  33.292   9.453
 2061POPC   PO430252   4.316  33.907   9.463
 2061POPC   GL130253   4.144  33.708   9.130
 2061POPC   GL230254   4.439  33.499   9.117
 2061POPC   C1A30255   4.129  33.575   8.692
 2061POPC   D2A30256   3.974  33.583   8.274
 2061POPC   C3A30257   4.210  33.644   7.928
 2061POPC   C4A30258   4.067  33.789   7.545
 2061POPC   C1B30259   4.544  33.842   8.832
 2061POPC   C2B30260   4.408  33.932   8.409
 2061POPC   C3B30261   4.469  34.192   8.050
 2061POPC   C4B30262   4.504  34.002   7.646
 2062POPC   NC330263   1.752  30.835   9.469
 2062POPC   PO430264   2.040  31.465   9.592
 2062POPC   GL130265   1.828  31.316   9.249
 2062POPC   GL230266   1.584  31.600   9.237
 2062POPC   C1A30267   2.018  31.319   8.832
 2062POPC   D2A30268   2.149  31.651   8.557
 2062POPC   C3A30269   2.090  31.594   8.132
 2062POPC   C4A30270   2.152  31.263   7.838
 2062POPC   C1B30271   1.516  31.419   8.837
 2062POPC   C2B30272   1.697  31.419   8.426
 2062POPC   C3B30273   1.649  31.359   8.001
 2062POPC   C4B30274   1.686  31.734   7.761
 2063POPC   NC330275  28.312  27.759   9.698
 2063POPC   PO430276  28.985  27.642   9.512
 2063POPC   GL130277  28.982  27.467   9.110
 2063POPC   GL230278  28.847  27.166   9.030
 2063POPC   C1A30279  28.929  27.714   8.756
 2063POPC   D2A30280  29.137  27.998   8.433
 2063POPC   C3A30281  29.287  27.806   8.036
 2063POPC   C4A30282  29.481  27.750   7.642
 2063POPC   C1B30283  28.851  27.206   8.597
 2063POPC   C2B30284  28.945  27.522   8.290
 2063POPC   C3B30285  28.925  27.449   7.873
 2063POPC   C4B30286  29.118  27.419   7.484
 2064POPC   NC330287   7.744  11.069   9.554
 2064POPC   PO430288   7.102  11.422   9.625
 2064POPC   GL130289   7.350  11.374   9.243
 2064POPC   GL230290   7.044  11.378   9.075
 2064POPC   C1A30291   7.520  11.159   8.874
 2064POPC   D2A30292   7.658  11.292   8.479
 2064POPC   C3A30293   7.488  11.184   8.069
 2064POPC   C4A30294   7.415  11.341   7.661
 2064POPC   C1B30295   7.036  11.005   8.806
 2064POPC   C2B30296   7.161  11.016   8.413
 2064POPC   C3B30297   7.042  10.905   8.002
 2064POPC   C4B30298   7.064  11.018   7.550
 2065POPC   NC330299   1.723  44.888   9.351
 2065POPC   PO430300   2.196  44.572   9.727
 2065POPC   GL130301   2.191  44.607   9.229
 2065POPC   GL230302   2.146  44.940   9.051
 2065POPC   C1A30303   2.038  44.492   8.783
 2065POPC   D2A30304   2.117  44.662   8.356
 2065POPC   C3A30305   1.818  44.547   8.037
 2065POPC   C4A30306   1.867  44.299   7.693
 2065POPC   C1B30307   1.818  44.959   8.698
 2065POPC   C2B30308   1.796   0.044   8.252
 2065POPC   C3B30309   1.973   0.011   7.868
 2065POPC   C4B30310   1.823  44.791   7.502
 2066POPC   NC330311  11.865  13.944   9.537
 2066POPC   PO430312  12.246  13.394   9.412
 2066POPC   GL130313  12.185  13.577   9.057
 2066POPC   GL230314  12.248  13.884   9.211
 2066POPC   C1A30315  11.996  13.519   8.667
 2066POPC   D2A30316  12.012  13.590   8.243
 2066POPC   C3A30317  12.096  13.518   7.864
 2066POPC   C4A30318  12.163  13.360   7.454
 2066POPC   C1B30319  11.995  14.002   8.843
 2066POPC   C2B30320  11.747  13.978   8.459
 2066POPC   C3B30321  11.675  13.889   8.003
 2066POPC   C4B30322  11.991  14.004   7.694
 2067POPC   NC330323  38.205   7.770   9.496
 2067POPC   PO430324  38.456   7.121   9.417
 2067POPC   GL130325  38.495   7.413   9.090
 2067POPC   GL230326  38.682   7.687   9.136
 2067POPC   C1A30327  38.376   7.597   8.715
 2067POPC   D2A30328  38.287   7.412   8.325
 2067POPC   C3A30329  38.390   7.676   7.972
 2067POPC   C4A30330  38.414   7.549   7.554
 2067POPC   C1B30331  38.882   7.678   8.780
 2067POPC   C2B30332  38.810   7.454   8.408
 2067POPC   C3B30333  38.702   7.259   8.024
 2067POPC   C4B30334  38.900   7.501   7.701
 2068POPC   NC330335   2.455   9.160   9.507
 2068POPC   PO430336   2.933   8.666   9.532
 2068POPC   GL130337   2.675   8.753   9.182
 2068POPC   GL230338   2.791   9.096   9.117
 2068POPC   C1A30339   2.764   8.747   8.715
 2068POPC   D2A30340   2.457   8.747   8.376
 2068POPC   C3A30341   2.590   8.704   7.969
 2068POPC   C4A30342   2.843   8.832   7.609
 2068POPC   C1B30343   2.789   9.263   8.687
 2068POPC   C2B30344   2.785   9.139   8.251
 2068POPC   C3B30345   2.587   9.215   7.849
 2068POPC   C4B30346   2.574   9.258   7.400
 2069POPC   NC330347   3.395  17.158   9.536
 2069POPC   PO430348   3.663  16.659   9.794
 2069POPC   GL130349   3.648  16.767   9.310
 2069POPC   GL230350   3.976  16.838   9.140
 2069POPC   C1A30351   3.556  16.880   8.846
 2069POPC   D2A30352   3.707  16.879   8.384
 2069POPC   C3A30353   3.444  16.834   7.985
 2069POPC   C4A30354   3.241  16.832   7.551
 2069POPC   C1B30355   4.002  17.141   8.763
 2069POPC   C2B30356   3.919  17.331   8.357
 2069POPC   C3B30357   3.825  17.207   7.926
 2069POPC   C4B30358   4.034  17.364   7.588
 2070POPC   NC330359  41.764   5.999   9.397
 2070POPC   PO430360  41.073   5.753   9.400
 2070POPC   GL130361  41.435   5.696   9.127
 2070POPC   GL230362  41.514   6.036   8.960
 2070POPC   C1A30363  41.709   5.594   8.764
 2070POPC   D2A30364  41.571   5.747   8.374
 2070POPC   C3A30365  41.723   5.620   7.975
 2070POPC   C4A30366  41.322   5.586   7.741
 2070POPC   C1B30367  41.864   6.097   8.645
 2070POPC   C2B30368  41.884   6.090   8.180
 2070POPC   C3B30369  41.483   6.056   7.933
 2070POPC   C4B30370  41.451   6.253   7.559
 2071POPC   NC330371   8.853  31.700   9.516
 2071POPC   PO430372   8.742  31.005   9.420
 2071POPC   GL130373   9.004  31.250   9.064
 2071POPC   GL230374   8.909  31.598   9.026
 2071POPC   C1A30375   9.092  31.292   8.623
 2071POPC   D2A30376   8.752  31.248   8.280
 2071POPC   C3A30377   8.889  31.040   7.920
 2071POPC   C4A30378   9.096  31.253   7.587
 2071POPC   C1B30379   8.697  31.590   8.658
 2071POPC   C2B30380   8.952  31.719   8.310
 2071POPC   C3B30381   8.959  31.588   7.917
 2071POPC   C4B30382   8.695  31.698   7.569
 2072POPC   NC330383  44.220   3.027   9.506
 2072POPC   PO430384  43.586   3.162   9.535
 2072POPC   GL130385  43.703   2.905   9.185
 2072POPC   GL230386  43.999   2.702   9.174
 2072POPC   C1A30387  43.608   2.840   8.763
 2072POPC   D2A30388  43.662   3.044   8.368
 2072POPC   C3A30389  43.669   2.790   8.018
 2072POPC   C4A30390  43.913   2.750   7.640
 2072POPC   C1B30391  43.972   2.460   8.799
 2072POPC   C2B30392  43.965   2.601   8.386
 2072POPC   C3B30393  44.231   2.741   8.038
 2072POPC   C4B30394  44.324   2.469   7.669
 2073POPC   NC330395  15.874  28.202   9.570
 2073POPC   PO430396  16.090  28.924   9.676
 2073POPC   GL130397  15.898  28.632   9.279
 2073POPC   GL230398  16.122  28.510   9.054
 2073POPC   C1A30399  15.708  28.561   8.780
 2073POPC   D2A30400  15.577  28.464   8.323
 2073POPC   C3A30401  15.842  28.478   7.953
 2073POPC   C4A30402  15.818  28.541   7.503
 2073POPC   C1B30403  16.077  28.223   8.693
 2073POPC   C2B30404  15.889  28.049   8.335
 2073POPC   C3B30405  16.054  27.989   7.949
 2073POPC   C4B30406  16.192  28.200   7.589
 2074POPC   NC330407   6.144  15.958   9.707
 2074POPC   PO430408   6.739  16.018   9.379
 2074POPC   GL130409   6.653  16.090   9.010
 2074POPC   GL230410   6.313  16.125   9.113
 2074POPC   C1A30411   6.815  15.925   8.629
 2074POPC   D2A30412   6.659  16.057   8.267
 2074POPC   C3A30413   6.643  15.797   7.971
 2074POPC   C4A30414   6.962  15.515   7.753
 2074POPC   C1B30415   6.295  15.899   8.712
 2074POPC   C2B30416   6.131  15.986   8.304
 2074POPC   C3B30417   6.265  16.166   7.933
 2074POPC   C4B30418   6.663  16.296   7.791
 2075POPC   NC330419  40.559  28.893   9.362
 2075POPC   PO430420  40.994  29.477   9.458
 2075POPC   GL130421  40.935  29.176   9.107
 2075POPC   GL230422  41.103  28.850   9.185
 2075POPC   C1A30423  40.602  29.115   8.757
 2075POPC   D2A30424  40.402  29.316   8.407
 2075POPC   C3A30425  40.656  29.397   8.067
 2075POPC   C4A30426  40.638  29.082   7.774
 2075POPC   C1B30427  41.016  28.813   8.726
 2075POPC   C2B30428  40.908  28.941   8.289
 2075POPC   C3B30429  41.049  28.810   7.867
 2075POPC   C4B30430  41.005  28.930   7.414
 2076POPC   NC330431   7.998  35.457   9.468
 2076POPC   PO430432   8.406  34.984   9.696
 2076POPC   GL130433   8.205  35.024   9.201
 2076POPC   GL230434   7.938  35.261   9.022
 2076POPC   C1A30435   8.270  35.106   8.710
 2076POPC   D2A30436   7.993  35.208   8.357
 2076POPC   C3A30437   8.259  35.301   8.013
 2076POPC   C4A30438   8.292  35.296   7.567
 2076POPC   C1B30439   8.213  35.601   8.816
 2076POPC   C2B30440   8.147  35.725   8.388
 2076POPC   C3B30441   7.891  35.648   8.039
 2076POPC   C4B30442   8.089  35.791   7.670
 2077POPC   NC330443   6.139  10.725   9.669
 2077POPC   PO430444   5.781  10.117   9.540
 2077POPC   GL130445   5.818  10.448   9.242
 2077POPC   GL230446   6.175  10.491   9.216
 2077POPC   C1A30447   5.630  10.403   8.819
 2077POPC   D2A30448   5.635  10.616   8.415
 2077POPC   C3A30449   5.600  10.387   8.034
 2077POPC   C4A30450   5.777  10.332   7.643
 2077POPC   C1B30451   6.031  10.733   8.872
 2077POPC   C2B30452   6.133  10.722   8.448
 2077POPC   C3B30453   5.980  10.713   8.014
 2077POPC   C4B30454   6.194  10.608   7.650
 2078POPC   NC330455  32.091  31.399   9.484
 2078POPC   PO430456  32.657  31.544   9.741
 2078POPC   GL130457  32.595  31.530   9.248
 2078POPC   GL230458  32.701  31.821   9.054
 2078POPC   C1A30459  32.410  31.299   8.850
 2078POPC   D2A30460  32.182  31.368   8.474
 2078POPC   C3A30461  32.292  31.180   8.079
 2078POPC   C4A30462  32.329  31.330   7.646
 2078POPC   C1B30463  32.794  31.578   8.708
 2078POPC   C2B30464  32.666  31.493   8.322
 2078POPC   C3B30465  32.412  31.678   8.033
 2078POPC   C4B30466  32.428  31.883   7.640
 2079POPC   NC330467  16.207  34.702   9.437
 2079POPC   PO430468  15.627  34.461   9.717
 2079POPC   GL130469  15.741  34.639   9.276
 2079POPC   GL230470  15.926  34.330   9.144
 2079POPC   C1A30471  15.923  34.711   8.821
 2079POPC   D2A30472  15.696  34.466   8.436
 2079POPC   C3A30473  15.774  34.382   7.973
 2079POPC   C4A30474  16.054  34.731   7.830
 2079POPC   C1B30475  16.115  34.271   8.693
 2079POPC   C2B30476  16.192  34.436   8.235
 2079POPC   C3B30477  16.226  34.232   7.779
 2079POPC   C4B30478  16.220  34.117   7.256
 2080POPC   NC330479  37.379  21.133   9.572
 2080POPC   PO430480  37.926  21.648   9.471
 2080POPC   GL130481  37.607  21.462   9.190
 2080POPC   GL230482  37.712  21.150   9.187
 2080POPC   C1A30483  37.452  21.262   8.786
 2080POPC   D2A30484  37.652  21.369   8.410
 2080POPC   C3A30485  37.500  21.232   8.025
 2080POPC   C4A30486  37.566  21.550   7.733
 2080POPC   C1B30487  37.916  21.065   8.836
 2080POPC   C2B30488  38.088  21.095   8.435
 2080POPC   C3B30489  38.052  20.915   8.014
 2080POPC   C4B30490  37.847  21.117   7.637
 2081POPC   NC330491  19.930   2.396   9.450
 2081POPC   PO430492  20.094   3.095   9.436
 2081POPC   GL130493  19.870   2.812   9.124
 2081POPC   GL230494  19.632   2.517   9.027
 2081POPC   C1A30495  19.764   2.908   8.694
 2081POPC   D2A30496  19.683   2.669   8.299
 2081POPC   C3A30497  19.594   2.890   7.916
 2081POPC   C4A30498  19.538   2.577   7.624
 2081POPC   C1B30499  19.980   2.463   8.699
 2081POPC   C2B30500  20.173   2.657   8.378
 2081POPC   C3B30501  20.039   2.647   7.935
 2081POPC   C4B30502  19.985   2.803   7.488
 2082POPC   NC330503  14.968  35.177   9.437
 2082POPC   PO430504  14.385  35.552   9.445
 2082POPC   GL130505  14.440  35.511   9.064
 2082POPC   GL230506  14.515  35.145   9.116
 2082POPC   C1A30507  14.255  35.629   8.673
 2082POPC   D2A30508  14.070  35.246   8.468
 2082POPC   C3A30509  14.174  35.277   8.044
 2082POPC   C4A30510  14.557  35.541   7.930
 2082POPC   C1B30511  14.558  35.220   8.668
 2082POPC   C2B30512  14.491  34.966   8.325
 2082POPC   C3B30513  14.611  35.043   7.924
 2082POPC   C4B30514  14.427  35.098   7.563
 2083POPC   NC330515  38.333  24.386   9.777
 2083POPC   PO430516  38.462  24.968   9.755
 2083POPC   GL130517  38.574  24.620   9.337
 2083POPC   GL230518  38.314  24.332   9.242
 2083POPC   C1A30519  38.523  24.533   8.847
 2083POPC   D2A30520  38.303  24.550   8.438
 2083POPC   C3A30521  38.518  24.514   8.033
 2083POPC   C4A30522  38.484  24.779   7.671
 2083POPC   C1B30523  38.118  24.186   8.841
 2083POPC   C2B30524  38.166  24.026   8.400
 2083POPC   C3B30525  38.257  24.080   7.953
 2083POPC   C4B30526  38.715  24.097   7.743
 2084POPC   NC330527  32.183   0.316   9.503
 2084POPC   PO430528  31.967   1.021   9.445
 2084POPC   GL130529  32.030   0.669   9.149
 2084POPC   GL230530  32.399   0.674   9.113
 2084POPC   C1A30531  32.175   0.372   8.789
 2084POPC   D2A30532  32.301   0.463   8.341
 2084POPC   C3A30533  32.155   0.322   7.945
 2084POPC   C4A30534  32.260   0.194   7.515
 2084POPC   C1B30535  32.627   0.669   8.710
 2084POPC   C2B30536  32.773   0.297   8.449
 2084POPC   C3B30537  32.668   0.208   8.009
 2084POPC   C4B30538  32.612   0.527   7.692
 2085POPC   NC330539  20.588  29.407   9.339
 2085POPC   PO430540  20.972  28.880   9.634
 2085POPC   GL130541  20.745  28.946   9.197
 2085POPC   GL230542  20.380  28.989   9.166
 2085POPC   C1A30543  20.679  29.073   8.772
 2085POPC   D2A30544  20.880  29.146   8.401
 2085POPC   C3A30545  20.759  29.237   8.046
 2085POPC   C4A30546  20.909  29.093   7.663
 2085POPC   C1B30547  20.230  29.287   8.824
 2085POPC   C2B30548  20.361  29.298   8.420
 2085POPC   C3B30549  20.273  29.397   8.022
 2085POPC   C4B30550  20.523  29.433   7.658
 2086POPC   NC330551   9.152  19.778   9.606
 2086POPC   PO430552   9.322  20.396   9.527
 2086POPC   GL130553   9.223  20.081   9.205
 2086POPC   GL230554   8.864  20.007   9.196
 2086POPC   C1A30555   9.194  19.742   8.897
 2086POPC   D2A30556   9.217  19.519   8.510
 2086POPC   C3A30557   9.191  19.778   8.163
 2086POPC   C4A30558   9.161  19.691   7.720
 2086POPC   C1B30559   8.655  19.857   8.794
 2086POPC   C2B30560   8.709  19.640   8.382
 2086POPC   C3B30561   8.678  19.759   7.918
 2086POPC   C4B30562   8.523  19.909   7.485
 2087POPC   NC330563  13.805  24.261   9.714
 2087POPC   PO430564  13.663  23.665   9.415
 2087POPC   GL130565  13.654  23.660   8.983
 2087POPC   GL230566  13.348  23.866   9.021
 2087POPC   C1A30567  13.654  23.947   8.619
 2087POPC   D2A30568  13.840  23.953   8.210
 2087POPC   C3A30569  13.726  23.909   7.772
 2087POPC   C4A30570  13.903  23.722   7.397
 2087POPC   C1B30571  13.234  23.494   8.777
 2087POPC   C2B30572  13.338  23.645   8.376
 2087POPC   C3B30573  13.517  23.536   8.030
 2087POPC   C4B30574  13.377  23.535   7.623
 2088POPC   NC330575  30.495  15.568   9.384
 2088POPC   PO430576  30.351  16.198   9.407
 2088POPC   GL130577  30.547  16.093   8.976
 2088POPC   GL230578  30.780  15.842   9.002
 2088POPC   C1A30579  30.619  15.971   8.524
 2088POPC   D2A30580  30.415  15.660   8.259
 2088POPC   C3A30581  30.526  15.826   7.882
 2088POPC   C4A30582  30.644  16.218   7.936
 2088POPC   C1B30583  31.091  16.001   8.697
 2088POPC   C2B30584  31.070  16.074   8.227
 2088POPC   C3B30585  31.032  15.837   7.823
 2088POPC   C4B30586  31.088  15.796   7.372
 2089POPC   NC330587  15.856  22.689   9.464
 2089POPC   PO430588  16.162  23.240   9.553
 2089POPC   GL130589  15.936  23.127   9.132
 2089POPC   GL230590  15.923  22.734   8.974
 2089POPC   C1A30591  15.836  23.121   8.672
 2089POPC   D2A30592  15.910  22.745   8.406
 2089POPC   C3A30593  16.132  22.892   8.061
 2089POPC   C4A30594  15.939  23.257   7.862
 2089POPC   C1B30595  15.654  22.390   8.719
 2089POPC   C2B30596  15.484  22.470   8.278
 2089POPC   C3B30597  15.592  22.821   7.974
 2089POPC   C4B30598  15.425  23.205   7.757
 2090POPC   NC330599  25.258  44.756   9.596
 2090POPC   PO430600  24.694  44.431   9.535
 2090POPC   GL130601  25.050  44.443   9.235
 2090POPC   GL230602  25.448  44.494   9.166
 2090POPC   C1A30603  25.070  44.668   8.867
 2090POPC   D2A30604  24.885  44.796   8.510
 2090POPC   C3A30605  25.072  44.565   8.200
 2090POPC   C4A30606  25.290  44.651   7.816
 2090POPC   C1B30607  25.511  44.418   8.707
 2090POPC   C2B30608  25.589  44.456   8.236
 2090POPC   C3B30609  25.659  44.305   7.799
 2090POPC   C4B30610  25.690  44.159   7.369
 2091POPC   NC330611  33.676   4.560   9.508
 2091POPC   PO430612  34.176   4.054   9.529
 2091POPC   GL130613  33.916   4.048   9.171
 2091POPC   GL230614  33.557   4.187   9.173
 2091POPC   C1A30615  33.951   4.244   8.782
 2091POPC   D2A30616  33.771   4.399   8.429
 2091POPC   C3A30617  33.875   4.242   8.053
 2091POPC   C4A30618  33.853   4.346   7.659
 2091POPC   C1B30619  33.437   4.420   8.820
 2091POPC   C2B30620  33.265   4.534   8.431
 2091POPC   C3B30621  33.389   4.378   8.070
 2091POPC   C4B30622  33.388   4.558   7.710
 2092POPC   NC330623  35.990  30.950   9.367
 2092POPC   PO430624  36.239  30.303   9.496
 2092POPC   GL130625  36.428  30.406   9.129
 2092POPC   GL230626  36.364  30.741   9.072
 2092POPC   C1A30627  36.305  30.348   8.729
 2092POPC   D2A30628  36.406  30.595   8.376
 2092POPC   C3A30629  36.216  30.485   7.991
 2092POPC   C4A30630  36.150  30.825   7.737
 2092POPC   C1B30631  36.506  30.994   8.758
 2092POPC   C2B30632  36.579  31.093   8.346
 2092POPC   C3B30633  36.571  31.079   7.918
 2092POPC   C4B30634  36.456  31.125   7.491
 2093POPC   NC330635  40.158  39.274   9.398
 2093POPC   PO430636  39.501  39.304   9.602
 2093POPC   GL130637  39.706  39.183   9.189
 2093POPC   GL230638  39.632  38.850   9.103
 2093POPC   C1A30639  39.823  39.453   8.789
 2093POPC   D2A30640  40.048  39.603   8.398
 2093POPC   C3A30641  39.905  39.381   8.012
 2093POPC   C4A30642  39.540  39.200   7.806
 2093POPC   C1B30643  39.908  38.953   8.728
 2093POPC   C2B30644  39.982  38.882   8.254
 2093POPC   C3B30645  39.823  38.794   7.824
 2093POPC   C4B30646  39.706  38.843   7.345
 2094POPC   NC330647  12.381  23.555   9.423
 2094POPC   PO430648  11.750  23.952   9.428
 2094POPC   GL130649  12.029  23.843   9.122
 2094POPC   GL230650  11.898  23.514   9.114
 2094POPC   C1A30651  11.967  23.782   8.683
 2094POPC   D2A30652  12.200  23.646   8.306
 2094POPC   C3A30653  12.161  23.802   7.877
 2094POPC   C4A30654  12.449  24.071   7.613
 2094POPC   C1B30655  11.661  23.363   8.752
 2094POPC   C2B30656  11.635  23.555   8.327
 2094POPC   C3B30657  11.557  23.381   7.901
 2094POPC   C4B30658  11.686  23.317   7.431
 2095POPC   NC330659   2.487  36.608   9.609
 2095POPC   PO430660   2.987  37.015   9.582
 2095POPC   GL130661   2.830  36.755   9.227
 2095POPC   GL230662   2.485  36.722   9.104
 2095POPC   C1A30663   2.933  36.682   8.812
 2095POPC   D2A30664   2.933  36.886   8.416
 2095POPC   C3A30665   2.964  36.687   8.029
 2095POPC   C4A30666   2.942  36.791   7.556
 2095POPC   C1B30667   2.468  36.871   8.655
 2095POPC   C2B30668   2.496  36.718   8.225
 2095POPC   C3B30669   2.561  36.936   7.849
 2095POPC   C4B30670   2.767  37.349   7.794
 2096POPC   NC330671  37.295  12.702   9.333
 2096POPC   PO430672  37.851  13.056   9.461
 2096POPC   GL130673  37.646  12.998   9.081
 2096POPC   GL230674  37.929  12.858   8.973
 2096POPC   C1A30675  37.645  13.172   8.666
 2096POPC   D2A30676  37.761  12.987   8.261
 2096POPC   C3A30677  37.505  12.906   7.901
 2096POPC   C4A30678  37.608  12.692   7.496
 2096POPC   C1B30679  37.641  12.662   8.662
 2096POPC   C2B30680  37.774  12.470   8.263
 2096POPC   C3B30681  37.968  12.644   7.898
 2096POPC   C4B30682  38.099  12.536   7.489
 2097POPC   NC330683   4.434  40.583   9.740
 2097POPC   PO430684   4.059  41.033   9.286
 2097POPC   GL130685   4.343  40.973   9.014
 2097POPC   GL230686   4.493  40.674   9.043
 2097POPC   C1A30687   4.308  40.921   8.591
 2097POPC   D2A30688   4.282  41.202   8.265
 2097POPC   C3A30689   4.052  40.945   8.028
 2097POPC   C4A30690   4.249  40.671   7.764
 2097POPC   C1B30691   4.502  40.405   8.695
 2097POPC   C2B30692   4.426  40.483   8.253
 2097POPC   C3B30693   4.574  40.298   7.845
 2097POPC   C4B30694   4.583  40.332   7.386
 2098POPC   NC330695  28.602  11.231   9.702
 2098POPC   PO430696  28.164  10.968   9.544
 2098POPC   GL130697  28.441  11.204   9.206
 2098POPC   GL230698  28.607  11.546   9.232
 2098POPC   C1A30699  28.537  11.273   8.747
 2098POPC   D2A30700  28.685  11.105   8.333
 2098POPC   C3A30701  28.443  11.234   7.951
 2098POPC   C4A30702  28.092  11.163   7.650
 2098POPC   C1B30703  28.842  11.683   8.811
 2098POPC   C2B30704  28.870  11.587   8.339
 2098POPC   C3B30705  28.748  11.651   7.878
 2098POPC   C4B30706  28.710  11.401   7.507
 2099POPC   NC330707  42.830  11.553  10.062
 2099POPC   PO430708  42.816  11.015   9.715
 2099POPC   GL130709  42.808  11.050   9.301
 2099POPC   GL230710  42.940  11.389   9.262
 2099POPC   C1A30711  42.852  11.045   8.870
 2099POPC   D2A30712  43.112  11.225   8.555
 2099POPC   C3A30713  42.979  11.128   8.145
 2099POPC   C4A30714  43.075  11.191   7.728
 2099POPC   C1B30715  42.842  11.579   8.853
 2099POPC   C2B30716  42.965  11.710   8.455
 2099POPC   C3B30717  43.144  11.613   8.073
 2099POPC   C4B30718  42.756  11.555   7.905
 2100POPC   NC330719  40.015  42.882   9.569
 2100POPC   PO430720  39.905  42.239   9.478
 2100POPC   GL130721  40.119  42.303   9.125
 2100POPC   GL230722  40.115  42.651   9.128
 2100POPC   C1A30723  39.987  42.225   8.727
 2100POPC   D2A30724  39.781  42.167   8.370
 2100POPC   C3A30725  40.000  42.194   7.991
 2100POPC   C4A30726  39.818  42.334   7.578
 2100POPC   C1B30727  40.338  42.606   8.746
 2100POPC   C2B30728  40.372  42.395   8.359
 2100POPC   C3B30729  40.310  42.581   7.956
 2100POPC   C4B30730  40.231  42.609   7.508
 2101POPC   NC330731  35.476  18.423   9.843
 2101POPC   PO430732  35.279  18.865   9.432
 2101POPC   GL130733  35.399  19.034   9.046
 2101POPC   GL230734  35.298  19.331   9.113
 2101POPC   C1A30735  35.549  18.852   8.671
 2101POPC   D2A30736  35.706  18.957   8.257
 2101POPC   C3A30737  35.385  18.757   8.001
 2101POPC   C4A30738  35.065  18.656   7.704
 2101POPC   C1B30739  35.069  19.330   8.722
 2101POPC   C2B30740  35.204  19.103   8.361
 2101POPC   C3B30741  35.261  19.249   7.936
 2101POPC   C4B30742  35.024  19.583   7.793
 2102POPC   NC330743  11.234  42.054   9.738
 2102POPC   PO430744  11.181  42.741   9.512
 2102POPC   GL130745  11.328  42.560   9.138
 2102POPC   GL230746  11.084  42.317   9.137
 2102POPC   C1A30747  11.486  42.402   8.755
 2102POPC   D2A30748  11.380  42.268   8.328
 2102POPC   C3A30749  11.594  42.356   7.941
 2102POPC   C4A30750  11.579  42.250   7.502
 2102POPC   C1B30751  11.057  42.119   8.721
 2102POPC   C2B30752  10.906  42.083   8.317
 2102POPC   C3B30753  11.098  42.135   7.906
 2102POPC   C4B30754  10.838  41.959   7.587
 2103POPC   NC330755   1.131  44.591   9.579
 2103POPC   PO430756   1.750  44.363   9.340
 2103POPC   GL130757   1.393  44.559   9.087
 2103POPC   GL230758   1.074  44.764   9.083
 2103POPC   C1A30759   1.342  44.725   8.657
 2103POPC   D2A30760   1.288   0.010   8.321
 2103POPC   C3A30761   1.426  44.900   7.895
 2103POPC   C4A30762   1.397  44.521   7.681
 2103POPC   C1B30763   0.850  44.548   8.728
 2103POPC   C2B30764   0.590  44.538   8.347
 2103POPC   C3B30765   0.851  44.538   7.973
 2103POPC   C4B30766   0.963  44.796   7.609
 2104POPC   NC330767  22.947  15.025   9.667
 2104POPC   PO430768  22.436  15.210   9.286
 2104POPC   GL130769  22.897  15.217   9.144
 2104POPC   GL230770  23.078  15.536   9.184
 2104POPC   C1A30771  23.163  15.127   8.745
 2104POPC   D2A30772  23.258  14.914   8.329
 2104POPC   C3A30773  23.245  15.021   7.852
 2104POPC   C4A30774  23.238  14.809   7.413
 2104POPC   C1B30775  23.022  15.608   8.722
 2104POPC   C2B30776  23.068  15.413   8.293
 2104POPC   C3B30777  22.949  15.452   7.837
 2104POPC   C4B30778  22.820  15.615   7.410
 2105POPC   NC330779  26.176  30.490   9.342
 2105POPC   PO430780  26.129  31.116   9.648
 2105POPC   GL130781  25.932  30.905   9.206
 2105POPC   GL230782  25.855  30.619   8.965
 2105POPC   C1A30783  26.182  30.907   8.754
 2105POPC   D2A30784  26.064  30.836   8.328
 2105POPC   C3A30785  26.301  30.827   7.957
 2105POPC   C4A30786  26.034  30.779   7.589
 2105POPC   C1B30787  26.088  30.331   8.738
 2105POPC   C2B30788  26.158  30.340   8.364
 2105POPC   C3B30789  25.967  30.440   8.009
 2105POPC   C4B30790  26.054  30.196   7.666
 2106POPC   NC330791   8.622  39.770   9.612
 2106POPC   PO430792   8.094  40.195   9.513
 2106POPC   GL130793   8.137  39.945   9.170
 2106POPC   GL230794   8.451  39.842   9.135
 2106POPC   C1A30795   8.146  40.105   8.780
 2106POPC   D2A30796   8.425  40.131   8.444
 2106POPC   C3A30797   8.178  40.275   8.089
 2106POPC   C4A30798   8.044  40.268   7.693
 2106POPC   C1B30799   8.334  39.641   8.769
 2106POPC   C2B30800   8.506  39.611   8.385
 2106POPC   C3B30801   8.366  39.803   8.040
 2106POPC   C4B30802   8.416  39.685   7.638
 2107POPC   NC330803  10.568  23.963   9.562
 2107POPC   PO430804  10.467  23.316   9.624
 2107POPC   GL130805  10.407  23.456   9.165
 2107POPC   GL230806  10.463  23.807   9.092
 2107POPC   C1A30807  10.550  23.503   8.690
 2107POPC   D2A30808  10.570  23.720   8.299
 2107POPC   C3A30809  10.564  23.816   7.851
 2107POPC   C4A30810  10.446  23.585   7.490
 2107POPC   C1B30811  10.278  23.945   8.705
 2107POPC   C2B30812  10.122  23.939   8.279
 2107POPC   C3B30813  10.271  24.249   7.963
 2107POPC   C4B30814  10.141  24.292   7.505
 2108POPC   NC330815  28.926  31.847   9.493
 2108POPC   PO430816  29.343  32.370   9.539
 2108POPC   GL130817  29.167  32.283   9.167
 2108POPC   GL230818  29.300  31.973   9.186
 2108POPC   C1A30819  29.108  32.466   8.765
 2108POPC   D2A30820  28.988  32.293   8.373
 2108POPC   C3A30821  29.132  32.430   8.006
 2108POPC   C4A30822  29.000  32.430   7.612
 2108POPC   C1B30823  29.116  31.950   8.781
 2108POPC   C2B30824  29.014  31.788   8.384
 2108POPC   C3B30825  28.986  31.930   7.996
 2108POPC   C4B30826  29.261  31.936   7.706
 2109POPC   NC330827  32.636  28.235   9.619
 2109POPC   PO430828  32.069  28.290   9.184
 2109POPC   GL130829  32.159  28.561   8.947
 2109POPC   GL230830  31.816  28.679   8.964
 2109POPC   C1A30831  32.406  28.591   8.592
 2109POPC   D2A30832  32.582  28.395   8.261
 2109POPC   C3A30833  32.270  28.405   7.958
 2109POPC   C4A30834  32.378  28.333   7.560
 2109POPC   C1B30835  31.892  28.536   8.541
 2109POPC   C2B30836  31.966  28.785   8.265
 2109POPC   C3B30837  31.909  28.837   7.874
 2109POPC   C4B30838  31.909  28.500   7.546
 2110POPC   NC330839  18.856  27.155   9.259
 2110POPC   PO430840  18.873  27.704   9.542
 2110POPC   GL130841  18.978  27.679   9.134
 2110POPC   GL230842  19.270  27.479   9.205
 2110POPC   C1A30843  19.060  27.466   8.737
 2110POPC   D2A30844  19.178  27.264   8.388
 2110POPC   C3A30845  19.079  27.464   8.072
 2110POPC   C4A30846  18.855  27.635   7.777
 2110POPC   C1B30847  19.442  27.774   8.894
 2110POPC   C2B30848  19.374  27.768   8.455
 2110POPC   C3B30849  19.528  27.705   8.064
 2110POPC   C4B30850  19.363  27.675   7.664
 2111POPC   NC330851  36.629  12.065   9.460
 2111POPC   PO430852  37.252  11.659   9.423
 2111POPC   GL130853  36.911  11.848   9.115
 2111POPC   GL230854  36.858  12.249   9.010
 2111POPC   C1A30855  36.709  11.882   8.721
 2111POPC   D2A30856  36.824  12.207   8.419
 2111POPC   C3A30857  36.917  12.242   7.947
 2111POPC   C4A30858  36.737  12.060   7.550
 2111POPC   C1B30859  37.138  12.485   8.719
 2111POPC   C2B30860  37.276  12.595   8.292
 2111POPC   C3B30861  37.399  12.392   7.873
 2111POPC   C4B30862  37.157  12.347   7.459
 2112POPC   NC330863  29.300  33.448   9.364
 2112POPC   PO430864  28.993  34.108   9.506
 2112POPC   GL130865  29.283  34.013   9.180
 2112POPC   GL230866  29.038  33.792   9.085
 2112POPC   C1A30867  29.546  34.062   8.792
 2112POPC   D2A30868  29.562  33.853   8.382
 2112POPC   C3A30869  29.186  33.792   8.148
 2112POPC   C4A30870  29.237  33.777   7.716
 2112POPC   C1B30871  29.147  33.757   8.686
 2112POPC   C2B30872  28.973  33.439   8.477
 2112POPC   C3B30873  28.703  33.568   8.178
 2112POPC   C4B30874  28.839  33.475   7.782
 2113POPC   NC330875  35.528  17.250   9.593
 2113POPC   PO430876  34.965  17.562   9.445
 2113POPC   GL130877  35.230  17.373   9.164
 2113POPC   GL230878  35.416  17.675   9.205
 2113POPC   C1A30879  35.424  17.420   8.756
 2113POPC   D2A30880  35.314  17.648   8.366
 2113POPC   C3A30881  35.225  17.359   8.070
 2113POPC   C4A30882  35.596  17.179   7.992
 2113POPC   C1B30883  35.371  17.913   8.816
 2113POPC   C2B30884  35.741  17.827   8.569
 2113POPC   C3B30885  35.780  17.722   8.120
 2113POPC   C4B30886  35.399  17.802   7.865
 2114POPC   NC330887  37.458   8.771   9.410
 2114POPC   PO430888  37.480   9.392   9.707
 2114POPC   GL130889  37.746   9.167   9.315
 2114POPC   GL230890  38.049   9.001   9.307
 2114POPC   C1A30891  37.675   9.057   8.829
 2114POPC   D2A30892  37.569   9.153   8.378
 2114POPC   C3A30893  37.671   9.020   7.962
 2114POPC   C4A30894  37.591   9.252   7.557
 2114POPC   C1B30895  38.053   8.743   8.899
 2114POPC   C2B30896  37.964   8.793   8.444
 2114POPC   C3B30897  38.049   8.662   8.005
 2114POPC   C4B30898  37.803   8.622   7.620
 2115POPC   NC330899  15.749  26.455   9.572
 2115POPC   PO430900  16.265  26.827   9.577
 2115POPC   GL130901  16.170  26.912   9.143
 2115POPC   GL230902  15.886  26.682   9.131
 2115POPC   C1A30903  15.860  27.100   8.828
 2115POPC   D2A30904  15.793  27.134   8.376
 2115POPC   C3A30905  16.123  26.923   8.171
 2115POPC   C4A30906  16.210  26.818   7.773
 2115POPC   C1B30907  16.194  26.432   8.917
 2115POPC   C2B30908  16.146  26.329   8.486
 2115POPC   C3B30909  16.086  26.394   8.056
 2115POPC   C4B30910  15.792  26.501   7.725
 2116POPC   NC330911   8.637  33.811   9.522
 2116POPC   PO430912   9.255  33.681   9.549
 2116POPC   GL130913   9.022  33.874   9.150
 2116POPC   GL230914   8.719  33.667   9.056
 2116POPC   C1A30915   8.954  33.848   8.659
 2116POPC   D2A30916   9.040  34.005   8.271
 2116POPC   C3A30917   8.781  33.958   7.940
 2116POPC   C4A30918   9.006  34.103   7.610
 2116POPC   C1B30919   8.719  33.402   8.693
 2116POPC   C2B30920   8.728  33.551   8.282
 2116POPC   C3B30921   8.512  33.418   7.924
 2116POPC   C4B30922   8.646  33.451   7.459
 2117POPC   NC330923  16.964  20.434   9.778
 2117POPC   PO430924  16.442  20.758   9.681
 2117POPC   GL130925  16.586  20.547   9.313
 2117POPC   GL230926  16.550  20.838   9.145
 2117POPC   C1A30927  16.821  20.475   8.897
 2117POPC   D2A30928  16.751  20.645   8.473
 2117POPC   C3A30929  16.885  20.452   8.087
 2117POPC   C4A30930  17.054  20.638   7.707
 2117POPC   C1B30931  16.345  20.673   8.809
 2117POPC   C2B30932  16.202  20.637   8.405
 2117POPC   C3B30933  16.393  20.606   8.016
 2117POPC   C4B30934  16.584  20.778   7.653
 2118POPC   NC330935  14.354   1.481   9.248
 2118POPC   PO430936  14.543   1.033   9.665
 2118POPC   GL130937  14.436   0.959   9.213
 2118POPC   GL230938  14.080   1.071   9.106
 2118POPC   C1A30939  14.416   1.066   8.744
 2118POPC   D2A30940  14.498   1.363   8.433
 2118POPC   C3A30941  14.585   1.133   8.064
 2118POPC   C4A30942  14.940   1.158   7.804
 2118POPC   C1B30943  14.021   1.390   8.727
 2118POPC   C2B30944  14.007   1.385   8.280
 2118POPC   C3B30945  14.331   1.548   7.980
 2118POPC   C4B30946  14.482   1.310   7.594
 2119POPC   NC330947  14.095   5.473   9.494
 2119POPC   PO430948  14.404   5.998   9.531
 2119POPC   GL130949  14.463   6.004   9.127
 2119POPC   GL230950  14.440   5.640   9.118
 2119POPC   C1A30951  14.538   6.112   8.714
 2119POPC   D2A30952  14.346   6.158   8.329
 2119POPC   C3A30953  14.568   6.043   8.005
 2119POPC   C4A30954  14.464   6.043   7.601
 2119POPC   C1B30955  14.773   5.631   8.811
 2119POPC   C2B30956  14.754   5.752   8.390
 2119POPC   C3B30957  14.667   5.555   7.961
 2119POPC   C4B30958  14.684   5.523   7.497
 2120POPC   NC330959  25.203  30.305   9.383
 2120POPC   PO430960  25.526  29.671   9.495
 2120POPC   GL130961  25.369  29.848   9.130
 2120POPC   GL230962  24.989  29.923   9.118
 2120POPC   C1A30963  25.262  29.672   8.733
 2120POPC   D2A30964  25.108  29.831   8.341
 2120POPC   C3A30965  25.339  29.722   7.999
 2120POPC   C4A30966  25.283  29.849   7.576
 2120POPC   C1B30967  24.806  30.017   8.710
 2120POPC   C2B30968  24.552  29.913   8.350
 2120POPC   C3B30969  24.680  29.730   7.986
 2120POPC   C4B30970  24.844  30.025   7.737
 2121POPC   NC330971  41.203   5.280   9.443
 2121POPC   PO430972  41.863   5.514   9.409
 2121POPC   GL130973  41.624   5.199   9.150
 2121POPC   GL230974  41.718   4.843   9.172
 2121POPC   C1A30975  41.483   5.126   8.721
 2121POPC   D2A30976  41.742   5.238   8.339
 2121POPC   C3A30977  41.518   5.151   7.940
 2121POPC   C4A30978  41.332   5.127   7.526
 2121POPC   C1B30979  41.944   4.936   8.807
 2121POPC   C2B30980  41.886   4.747   8.419
 2121POPC   C3B30981  41.779   4.725   8.024
 2121POPC   C4B30982  41.818   4.893   7.603
 2122POPC   NC330983  30.527  28.876   9.411
 2122POPC   PO430984  30.993  29.298   9.527
 2122POPC   GL130985  30.926  29.093   9.160
 2122POPC   GL230986  31.106  29.334   9.021
 2122POPC   C1A30987  30.667  29.108   8.760
 2122POPC   D2A30988  30.367  29.182   8.408
 2122POPC   C3A30989  30.613  29.137   8.075
 2122POPC   C4A30990  30.630  29.113   7.667
 2122POPC   C1B30991  31.159  29.282   8.625
 2122POPC   C2B30992  31.001  29.393   8.253
 2122POPC   C3B30993  31.082  29.341   7.823
 2122POPC   C4B30994  30.917  29.450   7.421
 2123POPC   NC330995  41.527  23.380   9.419
 2123POPC   PO430996  41.840  22.823   9.557
 2123POPC   GL130997  41.686  22.940   9.138
 2123POPC   GL230998  41.856  23.241   9.049
 2123POPC   C1A30999  41.399  23.081   8.759
 2123POPC   D2A31000  41.108  23.034   8.377
 2123POPC   C3A31001  41.299  22.903   7.969
 2123POPC   C4A31002  41.618  22.701   7.733
 2123POPC   C1B31003  41.890  23.058   8.634
 2123POPC   C2B31004  41.644  23.185   8.246
 2123POPC   C3B31005  41.688  23.212   7.768
 2123POPC   C4B31006  41.878  23.082   7.351
 2124POPC   NC331007   5.598  21.319   9.503
 2124POPC   PO431008   6.216  21.557   9.421
 2124POPC   GL131009   5.970  21.425   9.113
 2124POPC   GL231010   6.102  21.685   8.918
 2124POPC   C1A31011   5.689  21.215   8.828
 2124POPC   D2A31012   5.339  21.250   8.538
 2124POPC   C3A31013   5.545  21.265   8.148
 2124POPC   C4A31014   5.745  21.457   7.761
 2124POPC   C1B31015   6.131  21.383   8.616
 2124POPC   C2B31016   6.025  21.401   8.207
 2124POPC   C3B31017   6.129  21.141   7.886
 2124POPC   C4B31018   6.544  21.129   7.797
 2125POPC   NC331019  32.631  19.794   9.498
 2125POPC   PO431020  33.181  20.104   9.757
 2125POPC   GL131021  33.050  19.972   9.232
 2125POPC   GL231022  32.863  19.683   9.050
 2125POPC   C1A31023  33.067  19.981   8.706
 2125POPC   D2A31024  33.216  20.166   8.287
 2125POPC   C3A31025  33.159  19.957   7.882
 2125POPC   C4A31026  33.232  19.538   7.739
 2125POPC   C1B31027  33.020  19.453   8.685
 2125POPC   C2B31028  33.086  19.608   8.277
 2125POPC   C3B31029  32.783  19.630   7.973
 2125POPC   C4B31030  32.682  19.656   7.588
 2126POPC   NC331031   9.716  37.423   9.287
 2126POPC   PO431032   9.668  36.766   9.591
 2126POPC   GL131033   9.785  36.902   9.184
 2126POPC   GL231034   9.488  36.871   9.011
 2126POPC   C1A31035   9.916  37.046   8.762
 2126POPC   D2A31036   9.757  36.851   8.376
 2126POPC   C3A31037   9.689  37.097   8.040
 2126POPC   C4A31038   9.784  37.006   7.611
 2126POPC   C1B31039   9.471  36.564   8.682
 2126POPC   C2B31040   9.299  36.576   8.284
 2126POPC   C3B31041   9.491  36.647   7.888
 2126POPC   C4B31042   9.406  36.657   7.426
 2127POPC   NC331043  36.413  12.687   9.573
 2127POPC   PO431044  36.063  13.232   9.438
 2127POPC   GL131045  36.176  12.921   9.183
 2127POPC   GL231046  35.965  12.632   9.324
 2127POPC   C1A31047  36.192  13.035   8.772
 2127POPC   D2A31048  36.427  13.071   8.415
 2127POPC   C3A31049  36.157  13.072   8.076
 2127POPC   C4A31050  36.234  13.151   7.670
 2127POPC   C1B31051  35.963  12.578   8.878
 2127POPC   C2B31052  36.132  12.638   8.477
 2127POPC   C3B31053  36.100  12.561   8.087
 2127POPC   C4B31054  35.990  12.704   7.721
 2128POPC   NC331055  27.495  29.376   9.647
 2128POPC   PO431056  27.657  28.698   9.649
 2128POPC   GL131057  27.697  28.956   9.227
 2128POPC   GL231058  27.428  29.200   9.173
 2128POPC   C1A31059  27.582  29.029   8.752
 2128POPC   D2A31060  27.743  29.267   8.420
 2128POPC   C3A31061  27.741  29.034   8.053
 2128POPC   C4A31062  27.429  28.857   7.786
 2128POPC   C1B31063  27.411  29.506   8.799
 2128POPC   C2B31064  27.272  29.534   8.365
 2128POPC   C3B31065  27.349  29.377   7.951
 2128POPC   C4B31066  27.394  29.568   7.551
 2129POPC   NC331067   1.475   9.395   9.516
 2129POPC   PO431068   2.006   9.040   9.549
 2129POPC   GL131069   2.118   8.771   9.217
 2129POPC   GL231070   1.813   8.872   9.089
 2129POPC   C1A31071   2.291   8.916   8.828
 2129POPC   D2A31072   2.287   9.211   8.450
 2129POPC   C3A31073   2.163   9.010   8.041
 2129POPC   C4A31074   2.255   8.893   7.625
 2129POPC   C1B31075   1.860   8.626   8.765
 2129POPC   C2B31076   1.859   8.834   8.399
 2129POPC   C3B31077   1.659   8.824   7.989
 2129POPC   C4B31078   1.710   8.667   7.536
 2130POPC   NC331079  19.730   4.275   9.432
 2130POPC   PO431080  20.095   4.746   9.174
 2130POPC   GL131081  19.971   4.386   8.939
 2130POPC   GL231082  19.932   4.027   9.018
 2130POPC   C1A31083  20.075   4.333   8.529
 2130POPC   D2A31084  19.937   4.500   8.162
 2130POPC   C3A31085  20.003   4.189   7.869
 2130POPC   C4A31086  19.946   4.279   7.422
 2130POPC   C1B31087  19.630   4.088   8.673
 2130POPC   C2B31088  19.621   4.057   8.212
 2130POPC   C3B31089  19.528   4.052   7.764
 2130POPC   C4B31090  19.549   3.953   7.324
 2131POPC   NC331091  29.253  15.381   9.670
 2131POPC   PO431092  28.955  15.980   9.689
 2131POPC   GL131093  29.084  15.998   9.217
 2131POPC   GL231094  29.368  15.797   9.135
 2131POPC   C1A31095  28.967  15.922   8.764
 2131POPC   D2A31096  28.891  15.715   8.341
 2131POPC   C3A31097  29.003  15.958   7.935
 2131POPC   C4A31098  29.266  16.154   7.583
 2131POPC   C1B31099  29.461  15.799   8.677
 2131POPC   C2B31100  29.402  15.710   8.244
 2131POPC   C3B31101  29.502  15.805   7.833
 2131POPC   C4B31102  29.436  15.639   7.398
 2132POPC   NC331103  21.305  37.972   9.759
 2132POPC   PO431104  21.154  37.350   9.692
 2132POPC   GL131105  21.095  37.341   9.229
 2132POPC   GL231106  21.426  37.256   9.098
 2132POPC   C1A31107  21.143  37.620   8.844
 2132POPC   D2A31108  21.017  37.677   8.392
 2132POPC   C3A31109  21.286  37.776   8.012
 2132POPC   C4A31110  21.100  37.752   7.596
 2132POPC   C1B31111  21.185  37.126   8.716
 2132POPC   C2B31112  21.181  37.224   8.256
 2132POPC   C3B31113  21.317  37.313   7.823
 2132POPC   C4B31114  21.604  37.524   7.565
 2133POPC   NC331115  26.670   2.289   9.424
 2133POPC   PO431116  27.140   1.813   9.557
 2133POPC   GL131117  26.882   1.882   9.169
 2133POPC   GL231118  26.493   1.859   9.193
 2133POPC   C1A31119  26.800   2.143   8.786
 2133POPC   D2A31120  26.837   1.950   8.381
 2133POPC   C3A31121  26.667   2.164   8.037
 2133POPC   C4A31122  26.718   2.040   7.640
 2133POPC   C1B31123  26.561   1.698   8.773
 2133POPC   C2B31124  26.498   1.549   8.385
 2133POPC   C3B31125  26.347   1.763   8.020
 2133POPC   C4B31126  26.281   1.768   7.604
 2134POPC   NC331127   5.995  31.904  10.048
 2134POPC   PO431128   5.798  32.310   9.537
 2134POPC   GL131129   6.055  32.454   9.187
 2134POPC   GL231130   5.937  32.141   9.013
 2134POPC   C1A31131   6.185  32.521   8.750
 2134POPC   D2A31132   6.039  32.189   8.462
 2134POPC   C3A31133   5.810  32.348   8.111
 2134POPC   C4A31134   6.044  32.343   7.731
 2134POPC   C1B31135   5.646  31.957   8.710
 2134POPC   C2B31136   5.702  31.786   8.306
 2134POPC   C3B31137   5.797  31.900   7.868
 2134POPC   C4B31138   5.572  32.232   7.592
 2135POPC   NC331139  39.892  25.449   9.614
 2135POPC   PO431140  40.258  24.996   9.294
 2135POPC   GL131141  40.161  25.405   9.179
 2135POPC   GL231142  39.815  25.300   9.131
 2135POPC   C1A31143  40.125  25.594   8.793
 2135POPC   D2A31144  40.096  25.408   8.394
 2135POPC   C3A31145  40.140  25.492   7.968
 2135POPC   C4A31146  40.180  25.130   7.695
 2135POPC   C1B31147  39.854  25.103   8.738
 2135POPC   C2B31148  39.647  25.095   8.332
 2135POPC   C3B31149  39.705  24.966   7.892
 2135POPC   C4B31150  39.648  25.071   7.418
 2136POPC   NC331151  41.641  27.525   9.473
 2136POPC   PO431152  40.978  27.673   9.427
 2136POPC   GL131153  41.238  27.473   9.157
 2136POPC   GL231154  41.456  27.745   9.050
 2136POPC   C1A31155  41.279  27.326   8.750
 2136POPC   D2A31156  41.374  27.594   8.383
 2136POPC   C3A31157  41.501  27.347   8.038
 2136POPC   C4A31158  41.719  27.347   7.632
 2136POPC   C1B31159  41.743  27.587   8.743
 2136POPC   C2B31160  41.874  27.771   8.347
 2136POPC   C3B31161  41.756  27.776   7.927
 2136POPC   C4B31162  41.350  27.775   7.739
 2137POPC   NC331163  19.299  44.553   9.642
 2137POPC   PO431164  18.679  44.487   9.715
 2137POPC   GL131165  18.847  44.616   9.253
 2137POPC   GL231166  19.203  44.594   9.127
 2137POPC   C1A31167  18.880  44.784   8.786
 2137POPC   D2A31168  19.003   0.038   8.419
 2137POPC   C3A31169  18.984  44.865   8.014
 2137POPC   C4A31170  18.769  44.542   7.773
 2137POPC   C1B31171  19.409  44.700   8.712
 2137POPC   C2B31172  19.386  44.605   8.264
 2137POPC   C3B31173  19.327  44.545   7.827
 2137POPC   C4B31174  19.518  44.718   7.491
 2138POPC   NC331175  40.768  25.544   9.384
 2138POPC   PO431176  40.546  25.034   9.786
 2138POPC   GL131177  40.760  25.032   9.292
 2138POPC   GL231178  41.020  25.192   9.111
 2138POPC   C1A31179  40.675  25.086   8.784
 2138POPC   D2A31180  40.920  25.035   8.397
 2138POPC   C3A31181  40.711  25.049   7.999
 2138POPC   C4A31182  40.615  25.418   7.766
 2138POPC   C1B31183  41.172  25.376   8.723
 2138POPC   C2B31184  41.125  25.615   8.344
 2138POPC   C3B31185  41.100  25.375   7.984
 2138POPC   C4B31186  41.466  25.303   7.746
 2139POPC   NC331187  38.509  32.570   9.598
 2139POPC   PO431188  38.921  32.173   9.504
 2139POPC   GL131189  38.586  32.106   9.208
 2139POPC   GL231190  38.228  32.272   9.175
 2139POPC   C1A31191  38.619  32.225   8.788
 2139POPC   D2A31192  38.619  32.052   8.425
 2139POPC   C3A31193  38.619  32.281   8.040
 2139POPC   C4A31194  38.496  32.022   7.739
 2139POPC   C1B31195  38.125  32.113   8.717
 2139POPC   C2B31196  38.157  32.130   8.241
 2139POPC   C3B31197  38.080  32.364   7.844
 2139POPC   C4B31198  38.044  32.461   7.363
 2140POPC   NC331199  29.158  16.370   9.560
 2140POPC   PO431200  29.095  17.097   9.609
 2140POPC   GL131201  29.342  16.869   9.255
 2140POPC   GL231202  29.275  16.547   9.110
 2140POPC   C1A31203  29.334  16.927   8.799
 2140POPC   D2A31204  29.378  16.708   8.417
 2140POPC   C3A31205  29.330  16.998   8.093
 2140POPC   C4A31206  29.422  17.050   7.655
 2140POPC   C1B31207  29.339  16.284   8.802
 2140POPC   C2B31208  29.228  16.198   8.373
 2140POPC   C3B31209  29.254  16.453   7.988
 2140POPC   C4B31210  29.015  16.761   7.756
 2141POPC   NC331211   3.988  38.025   9.328
 2141POPC   PO431212   3.409  37.913   9.713
 2141POPC   GL131213   3.590  37.683   9.301
 2141POPC   GL231214   3.600  37.921   9.020
 2141POPC   C1A31215   3.664  37.437   8.871
 2141POPC   D2A31216   3.461  37.522   8.473
 2141POPC   C3A31217   3.554  37.440   8.020
 2141POPC   C4A31218   3.202  37.617   7.756
 2141POPC   C1B31219   3.916  37.865   8.700
 2141POPC   C2B31220   3.863  37.798   8.293
 2141POPC   C3B31221   3.616  37.945   7.928
 2141POPC   C4B31222   3.753  38.148   7.526
 2142POPC   NC331223   6.842   5.675   9.628
 2142POPC   PO431224   6.365   6.144   9.557
 2142POPC   GL131225   6.444   5.797   9.252
 2142POPC   GL231226   6.433   5.421   9.366
 2142POPC   C1A31227   6.530   5.925   8.824
 2142POPC   D2A31228   6.504   6.129   8.401
 2142POPC   C3A31229   6.564   5.915   8.023
 2142POPC   C4A31230   6.664   6.013   7.599
 2142POPC   C1B31231   6.580   5.399   8.934
 2142POPC   C2B31232   6.508   5.526   8.511
 2142POPC   C3B31233   6.511   5.414   8.094
 2142POPC   C4B31234   6.330   5.567   7.717
 2143POPC   NC331235  37.396   6.321   9.429
 2143POPC   PO431236  37.742   5.780   9.565
 2143POPC   GL131237  37.619   5.693   9.166
 2143POPC   GL231238  37.962   5.658   9.110
 2143POPC   C1A31239  37.623   5.893   8.744
 2143POPC   D2A31240  37.843   5.987   8.343
 2143POPC   C3A31241  37.534   5.875   8.041
 2143POPC   C4A31242  37.409   5.732   7.647
 2143POPC   C1B31243  37.820   5.427   8.748
 2143POPC   C2B31244  37.614   5.493   8.368
 2143POPC   C3B31245  37.732   5.407   7.936
 2143POPC   C4B31246  37.998   5.423   7.559
 2144POPC   NC331247   0.968  41.692   9.410
 2144POPC   PO431248   1.482  41.328   9.568
 2144POPC   GL131249   1.266  41.298   9.176
 2144POPC   GL231250   0.946  41.415   9.004
 2144POPC   C1A31251   1.398  41.424   8.775
 2144POPC   D2A31252   1.269  41.299   8.375
 2144POPC   C3A31253   1.367  41.650   8.122
 2144POPC   C4A31254   1.366  41.632   7.692
 2144POPC   C1B31255   0.972  41.766   8.734
 2144POPC   C2B31256   0.876  41.777   8.311
 2144POPC   C3B31257   0.915  41.460   7.995
 2144POPC   C4B31258   0.871  41.714   7.673
 2145POPC   NC331259   3.128   8.997   9.830
 2145POPC   PO431260   3.744   8.877   9.480
 2145POPC   GL131261   3.493   9.042   9.179
 2145POPC   GL231262   3.680   8.824   8.936
 2145POPC   C1A31263   3.227   9.006   8.791
 2145POPC   D2A31264   3.232   8.686   8.444
 2145POPC   C3A31265   3.144   8.830   8.032
 2145POPC   C4A31266   3.097   9.250   7.833
 2145POPC   C1B31267   4.029   8.573   8.700
 2145POPC   C2B31268   4.028   8.454   8.245
 2145POPC   C3B31269   3.724   8.731   7.995
 2145POPC   C4B31270   3.489   8.964   7.667
 2146POPC   NC331271  13.026   0.034   9.420
 2146POPC   PO431272  12.775  44.419   9.429
 2146POPC   GL131273  12.609  44.648   9.095
 2146POPC   GL231274  12.822  44.883   8.935
 2146POPC   C1A31275  12.667  44.484   8.675
 2146POPC   D2A31276  12.799  44.793   8.415
 2146POPC   C3A31277  12.679  44.605   8.066
 2146POPC   C4A31278  12.604  44.567   7.679
 2146POPC   C1B31279  13.248  44.962   8.766
 2146POPC   C2B31280  13.383   0.129   8.387
 2146POPC   C3B31281  13.180  44.930   8.079
 2146POPC   C4B31282  13.029  44.855   7.669
 2147POPC   NC331283  36.700   3.051   9.941
 2147POPC   PO431284  37.050   2.738   9.525
 2147POPC   GL131285  37.045   2.795   9.101
 2147POPC   GL231286  36.668   2.883   9.073
 2147POPC   C1A31287  36.944   2.757   8.650
 2147POPC   D2A31288  36.609   2.747   8.364
 2147POPC   C3A31289  36.726   2.571   7.969
 2147POPC   C4A31290  36.821   2.560   7.518
 2147POPC   C1B31291  36.650   3.199   8.730
 2147POPC   C2B31292  36.870   3.219   8.370
 2147POPC   C3B31293  37.069   2.955   8.102
 2147POPC   C4B31294  36.934   2.999   7.710
 2148POPC   NC331295  31.474   0.852   9.471
 2148POPC   PO431296  31.741   0.197   9.439
 2148POPC   GL131297  31.509   0.442   9.179
 2148POPC   GL231298  31.186   0.286   9.191
 2148POPC   C1A31299  31.609   0.640   8.796
 2148POPC   D2A31300  31.801   0.381   8.464
 2148POPC   C3A31301  31.640   0.233   8.088
 2148POPC   C4A31302  31.775   0.075   7.715
 2148POPC   C1B31303  31.317   0.183   8.779
 2148POPC   C2B31304  31.301   0.450   8.416
 2148POPC   C3B31305  31.238   0.528   7.976
 2148POPC   C4B31306  31.286   0.151   7.702
 2149POPC   NC331307  13.986  36.543   9.270
 2149POPC   PO431308  14.203  37.127   9.638
 2149POPC   GL131309  14.349  37.122   9.231
 2149POPC   GL231310  14.019  37.041   9.091
 2149POPC   C1A31311  14.437  37.180   8.785
 2149POPC   D2A31312  14.535  37.265   8.359
 2149POPC   C3A31313  14.320  37.013   8.044
 2149POPC   C4A31314  14.358  37.195   7.663
 2149POPC   C1B31315  14.035  36.886   8.642
 2149POPC   C2B31316  14.233  36.612   8.357
 2149POPC   C3B31317  14.106  36.515   7.931
 2149POPC   C4B31318  14.291  36.684   7.612
 2150POPC   NC331319  23.329   5.542   9.353
 2150POPC   PO431320  22.864   5.982   9.682
 2150POPC   GL131321  22.920   5.845   9.231
 2150POPC   GL231322  22.605   5.809   9.009
 2150POPC   C1A31323  23.073   5.864   8.780
 2150POPC   D2A31324  22.939   6.050   8.373
 2150POPC   C3A31325  23.065   5.917   7.949
 2150POPC   C4A31326  23.267   5.793   7.553
 2150POPC   C1B31327  22.658   5.534   8.698
 2150POPC   C2B31328  22.868   5.524   8.310
 2150POPC   C3B31329  22.771   5.491   7.885
 2150POPC   C4B31330  22.774   5.729   7.554
 2151POPC   NC331331  26.403  35.468   9.389
 2151POPC   PO431332  27.008  35.156   9.432
 2151POPC   GL131333  26.844  35.222   9.042
 2151POPC   GL231334  26.978  35.545   9.068
 2151POPC   C1A31335  26.747  35.067   8.608
 2151POPC   D2A31336  26.630  35.240   8.193
 2151POPC   C3A31337  26.904  35.196   7.851
 2151POPC   C4A31338  26.905  34.985   7.467
 2151POPC   C1B31339  26.786  35.580   8.657
 2151POPC   C2B31340  26.822  35.750   8.242
 2151POPC   C3B31341  26.677  35.663   7.837
 2151POPC   C4B31342  26.582  35.771   7.401
 2152POPC   NC331343  39.623   6.526   9.298
 2152POPC   PO431344  39.998   6.938   9.560
 2152POPC   GL131345  39.932   6.925   9.082
 2152POPC   GL231346  39.969   6.607   8.932
 2152POPC   C1A31347  40.138   6.962   8.629
 2152POPC   D2A31348  40.003   6.692   8.273
 2152POPC   C3A31349  40.071   6.809   7.834
 2152POPC   C4A31350  40.363   7.023   7.583
 2152POPC   C1B31351  40.215   6.368   8.645
 2152POPC   C2B31352  40.117   6.174   8.246
 2152POPC   C3B31353  39.992   6.295   7.833
 2152POPC   C4B31354  39.748   6.522   7.495
 2153POPC   NC331355  16.746  25.533   9.466
 2153POPC   PO431356  17.183  25.007   9.594
 2153POPC   GL131357  17.065  25.209   9.207
 2153POPC   GL231358  16.670  25.180   9.107
 2153POPC   C1A31359  17.026  25.369   8.805
 2153POPC   D2A31360  16.651  25.349   8.582
 2153POPC   C3A31361  16.768  25.269   8.186
 2153POPC   C4A31362  16.906  25.269   7.771
 2153POPC   C1B31363  16.527  24.881   8.782
 2153POPC   C2B31364  16.478  24.874   8.327
 2153POPC   C3B31365  16.435  25.023   7.860
 2153POPC   C4B31366  16.333  24.932   7.396
 2154POPC   NC331367  28.529  17.090   9.331
 2154POPC   PO431368  28.540  16.419   9.309
 2154POPC   GL131369  28.512  16.724   8.986
 2154POPC   GL231370  28.850  16.827   9.050
 2154POPC   C1A31371  28.374  16.882   8.586
 2154POPC   D2A31372  28.077  17.077   8.319
 2154POPC   C3A31373  28.174  16.846   7.967
 2154POPC   C4A31374  28.091  16.503   7.735
 2154POPC   C1B31375  28.928  16.593   8.682
 2154POPC   C2B31376  28.834  16.649   8.250
 2154POPC   C3B31377  28.587  16.520   7.883
 2154POPC   C4B31378  28.585  16.731   7.462
 2155POPC   NC331379  14.208  25.137   9.449
 2155POPC   PO431380  14.575  25.676   9.481
 2155POPC   GL131381  14.443  25.516   9.082
 2155POPC   GL231382  14.101  25.461   9.067
 2155POPC   C1A31383  14.482  25.181   8.746
 2155POPC   D2A31384  14.349  24.816   8.463
 2155POPC   C3A31385  14.334  24.948   8.017
 2155POPC   C4A31386  14.734  25.083   7.849
 2155POPC   C1B31387  14.086  25.590   8.655
 2155POPC   C2B31388  14.293  25.399   8.290
 2155POPC   C3B31389  14.395  25.467   7.859
 2155POPC   C4B31390  14.234  25.761   7.577
 2156POPC   NC331391  22.912  31.275   9.627
 2156POPC   PO431392  22.935  32.007   9.583
 2156POPC   GL131393  22.761  31.826   9.170
 2156POPC   GL231394  22.899  31.465   9.100
 2156POPC   C1A31395  22.707  31.806   8.739
 2156POPC   D2A31396  22.779  31.504   8.384
 2156POPC   C3A31397  23.137  31.626   8.138
 2156POPC   C4A31398  23.176  31.749   7.722
 2156POPC   C1B31399  23.159  31.304   8.706
 2156POPC   C2B31400  23.159  31.118   8.263
 2156POPC   C3B31401  23.134  31.221   7.809
 2156POPC   C4B31402  23.035  31.015   7.422
 2157POPC   NC331403   8.768  17.867   9.560
 2157POPC   PO431404   9.030  17.292   9.375
 2157POPC   GL131405   8.760  17.484   9.094
 2157POPC   GL231406   8.957  17.761   9.087
 2157POPC   C1A31407   8.873  17.450   8.648
 2157POPC   D2A31408   9.040  17.634   8.246
 2157POPC   C3A31409   8.985  17.274   7.927
 2157POPC   C4A31410   8.603  17.123   7.718
 2157POPC   C1B31411   9.006  17.940   8.686
 2157POPC   C2B31412   8.835  18.202   8.372
 2157POPC   C3B31413   8.856  18.058   7.970
 2157POPC   C4B31414   9.045  17.730   7.732
 2158POPC   NC331415  15.504  38.346   9.566
 2158POPC   PO431416  15.628  38.826   9.316
 2158POPC   GL131417  15.383  38.483   9.060
 2158POPC   GL231418  15.564  38.179   9.067
 2158POPC   C1A31419  15.234  38.237   8.665
 2158POPC   D2A31420  15.159  38.383   8.254
 2158POPC   C3A31421  14.838  38.267   7.948
 2158POPC   C4A31422  14.650  38.241   7.512
 2158POPC   C1B31423  15.725  38.370   8.654
 2158POPC   C2B31424  15.657  38.435   8.208
 2158POPC   C3B31425  15.433  38.316   7.830
 2158POPC   C4B31426  15.138  38.121   7.583
 2159POPC   NC331427  36.167  19.468   9.325
 2159POPC   PO431428  36.433  20.039   9.457
 2159POPC   GL131429  36.261  19.885   9.045
 2159POPC   GL231430  35.970  19.899   9.092
 2159POPC   C1A31431  36.315  19.521   8.706
 2159POPC   D2A31432  36.431  19.473   8.269
 2159POPC   C3A31433  36.182  19.796   8.049
 2159POPC   C4A31434  35.937  19.812   7.677
 2159POPC   C1B31435  35.942  19.855   8.657
 2159POPC   C2B31436  35.750  19.965   8.318
 2159POPC   C3B31437  35.768  20.198   7.957
 2159POPC   C4B31438  35.705  20.272   7.537
 2160POPC   NC331439  32.362   8.922   9.580
 2160POPC   PO431440  31.896   8.588   9.187
 2160POPC   GL131441  32.221   8.813   9.090
 2160POPC   GL231442  32.085   9.138   9.180
 2160POPC   C1A31443  32.360   8.704   8.680
 2160POPC   D2A31444  32.441   8.652   8.251
 2160POPC   C3A31445  32.145   8.774   7.916
 2160POPC   C4A31446  32.475   8.873   7.568
 2160POPC   C1B31447  32.291   9.211   8.774
 2160POPC   C2B31448  32.174   9.104   8.374
 2160POPC   C3B31449  32.362   9.204   8.011
 2160POPC   C4B31450  32.154   9.232   7.697
 2161POPC   NC331451   1.982   7.787   9.410
 2161POPC   PO431452   1.916   7.096   9.406
 2161POPC   GL131453   1.738   7.374   9.141
 2161POPC   GL231454   2.040   7.463   9.029
 2161POPC   C1A31455   1.727   7.288   8.687
 2161POPC   D2A31456   2.011   7.273   8.353
 2161POPC   C3A31457   1.841   7.460   7.997
 2161POPC   C4A31458   2.038   7.785   7.729
 2161POPC   C1B31459   2.183   7.700   8.720
 2161POPC   C2B31460   2.340   7.761   8.323
 2161POPC   C3B31461   2.371   7.504   7.986
 2161POPC   C4B31462   2.208   7.114   7.864
 2162POPC   NC331463  29.469   3.561   9.549
 2162POPC   PO431464  30.085   3.815   9.546
 2162POPC   GL131465  29.954   3.533   9.213
 2162POPC   GL231466  29.629   3.693   9.081
 2162POPC   C1A31467  30.206   3.371   8.860
 2162POPC   D2A31468  30.145   3.357   8.417
 2162POPC   C3A31469  29.934   3.569   8.101
 2162POPC   C4A31470  29.979   3.600   7.671
 2162POPC   C1B31471  29.895   3.756   8.724
 2162POPC   C2B31472  30.010   3.982   8.371
 2162POPC   C3B31473  29.855   4.048   7.935
 2162POPC   C4B31474  29.718   4.007   7.497
 2163POPC   NC331475  24.223   2.084   9.468
 2163POPC   PO431476  24.805   2.071   9.654
 2163POPC   GL131477  24.631   1.959   9.182
 2163POPC   GL231478  24.337   1.817   9.072
 2163POPC   C1A31479  24.499   2.169   8.749
 2163POPC   D2A31480  24.419   1.967   8.357
 2163POPC   C3A31481  24.329   2.240   8.037
 2163POPC   C4A31482  24.612   2.250   7.696
 2163POPC   C1B31483  24.083   1.855   8.736
 2163POPC   C2B31484  24.039   1.638   8.378
 2163POPC   C3B31485  24.265   1.565   8.011
 2163POPC   C4B31486  24.293   1.856   7.682
 2164POPC   NC331487  11.211  18.017   9.456
 2164POPC   PO431488  10.959  18.596   9.544
 2164POPC   GL131489  11.030  18.419   9.162
 2164POPC   GL231490  10.852  18.129   9.099
 2164POPC   C1A31491  11.346  18.407   8.861
 2164POPC   D2A31492  11.331  18.586   8.463
 2164POPC   C3A31493  11.565  18.377   8.141
 2164POPC   C4A31494  11.563  18.387   7.711
 2164POPC   C1B31495  10.942  18.122   8.670
 2164POPC   C2B31496  11.163  18.101   8.300
 2164POPC   C3B31497  11.100  18.296   7.918
 2164POPC   C4B31498  10.749  18.266   7.637
 2165POPC   NC331499  44.118  28.285   9.329
 2165POPC   PO431500  44.705  28.608   9.575
 2165POPC   GL131501  44.727  28.378   9.184
 2165POPC   GL231502   0.003  28.122   9.140
 2165POPC   C1A31503  44.519  28.380   8.788
 2165POPC   D2A31504  44.402  28.117   8.460
 2165POPC   C3A31505  44.575  28.177   8.070
 2165POPC   C4A31506  44.476  28.310   7.649
 2165POPC   C1B31507   0.046  28.248   8.731
 2165POPC   C2B31508   0.199  28.021   8.396
 2165POPC   C3B31509   0.054  27.931   8.025
 2165POPC   C4B31510  44.976  28.170   7.733
 2166POPC   NC331511  41.261  38.188   9.526
 2166POPC   PO431512  41.774  38.153   9.353
 2166POPC   GL131513  41.496  38.421   9.098
 2166POPC   GL231514  41.748  38.667   9.021
 2166POPC   C1A31515  41.364  38.576   8.672
 2166POPC   D2A31516  41.456  38.315   8.309
 2166POPC   C3A31517  41.554  38.313   7.861
 2166POPC   C4A31518  41.463  37.931   7.648
 2166POPC   C1B31519  41.862  38.535   8.588
 2166POPC   C2B31520  41.793  38.679   8.145
 2166POPC   C3B31521  41.970  38.576   7.736
 2166POPC   C4B31522  41.983  38.167   7.525
 2167POPC   NC331523  14.744   1.951   9.649
 2167POPC   PO431524  15.352   2.111   9.426
 2167POPC   GL131525  15.169   1.832   9.118
 2167POPC   GL231526  14.882   1.964   9.146
 2167POPC   C1A31527  15.237   1.942   8.705
 2167POPC   D2A31528  15.087   2.263   8.439
 2167POPC   C3A31529  15.201   2.059   8.090
 2167POPC   C4A31530  15.167   1.994   7.686
 2167POPC   C1B31531  14.756   1.762   8.779
 2167POPC   C2B31532  14.810   1.811   8.355
 2167POPC   C3B31533  14.854   1.647   7.949
 2167POPC   C4B31534  14.850   1.633   7.489
 2168POPC   NC331535   6.262  17.983   9.524
 2168POPC   PO431536   6.504  18.540   9.832
 2168POPC   GL131537   6.428  18.434   9.341
 2168POPC   GL231538   6.661  18.188   9.169
 2168POPC   C1A31539   6.406  18.432   8.832
 2168POPC   D2A31540   6.333  18.099   8.506
 2168POPC   C3A31541   6.349  18.223   8.052
 2168POPC   C4A31542   6.476  18.641   7.930
 2168POPC   C1B31543   6.829  18.148   8.732
 2168POPC   C2B31544   6.754  18.352   8.335
 2168POPC   C3B31545   6.841  18.241   7.894
 2168POPC   C4B31546   6.649  17.872   7.687
 2169POPC   NC331547  42.487  10.714   9.546
 2169POPC   PO431548  42.199  10.064   9.549
 2169POPC   GL131549  42.339  10.199   9.120
 2169POPC   GL231550  42.447  10.557   9.061
 2169POPC   C1A31551  42.243  10.315   8.676
 2169POPC   D2A31552  42.466  10.279   8.297
 2169POPC   C3A31553  42.299  10.526   7.942
 2169POPC   C4A31554  42.128  10.349   7.590
 2169POPC   C1B31555  42.670  10.606   8.674
 2169POPC   C2B31556  42.631  10.775   8.255
 2169POPC   C3B31557  42.665  10.885   7.789
 2169POPC   C4B31558  42.816  10.923   7.344
 2170POPC   NC331559  29.367   9.190   9.603
 2170POPC   PO431560  29.585   8.531   9.536
 2170POPC   GL131561  29.392   8.807   9.266
 2170POPC   GL231562  29.631   9.033   9.202
 2170POPC   C1A31563  29.219   8.874   8.842
 2170POPC   D2A31564  29.030   8.788   8.428
 2170POPC   C3A31565  29.166   8.923   8.049
 2170POPC   C4A31566  29.178   8.740   7.665
 2170POPC   C1B31567  29.634   9.229   8.832
 2170POPC   C2B31568  29.429   9.279   8.430
 2170POPC   C3B31569  29.425   9.368   7.989
 2170POPC   C4B31570  29.312   9.223   7.599
 2171POPC   NC331571  28.336  20.828   9.495
 2171POPC   PO431572  28.261  20.215   9.562
 2171POPC   GL131573  28.345  20.462   9.129
 2171POPC   GL231574  28.484  20.824   9.021
 2171POPC   C1A31575  28.170  20.554   8.721
 2171POPC   D2A31576  28.010  20.609   8.310
 2171POPC   C3A31577  28.174  20.438   7.965
 2171POPC   C4A31578  28.235  20.709   7.611
 2171POPC   C1B31579  28.648  20.668   8.678
 2171POPC   C2B31580  28.534  20.513   8.326
 2171POPC   C3B31581  28.620  20.705   7.962
 2171POPC   C4B31582  28.746  20.617   7.553
 2172POPC   NC331583  39.449  42.064   9.478
 2172POPC   PO431584  39.060  42.525   9.722
 2172POPC   GL131585  39.263  42.515   9.266
 2172POPC   GL231586  39.603  42.412   9.116
 2172POPC   C1A31587  39.296  42.658   8.809
 2172POPC   D2A31588  39.432  42.530   8.409
 2172POPC   C3A31589  39.168  42.500   8.061
 2172POPC   C4A31590  39.328  42.592   7.664
 2172POPC   C1B31591  39.399  42.151   8.785
 2172POPC   C2B31592  39.276  42.045   8.345
 2172POPC   C3B31593  39.494  42.135   7.937
 2172POPC   C4B31594  39.438  42.004   7.503
 2173POPC   NC331595   1.435   2.347   9.451
 2173POPC   PO431596   1.119   2.978   9.494
 2173POPC   GL131597   1.010   2.798   9.106
 2173POPC   GL231598   0.992   2.420   9.161
 2173POPC   C1A31599   1.161   2.996   8.693
 2173POPC   D2A31600   1.514   3.087   8.370
 2173POPC   C3A31601   1.653   2.724   8.136
 2173POPC   C4A31602   1.475   2.564   7.757
 2173POPC   C1B31603   1.070   2.488   8.694
 2173POPC   C2B31604   1.098   2.678   8.273
 2173POPC   C3B31605   0.950   2.614   7.852
 2173POPC   C4B31606   1.036   2.276   7.577
 2174POPC   NC331607   3.142  29.785   9.889
 2174POPC   PO431608   3.601  30.179   9.576
 2174POPC   GL131609   3.618  30.049   9.163
 2174POPC   GL231610   3.216  30.064   9.158
 2174POPC   C1A31611   3.848  29.972   8.768
 2174POPC   D2A31612   3.866  30.081   8.323
 2174POPC   C3A31613   3.914  29.776   7.980
 2174POPC   C4A31614   3.746  29.785   7.557
 2174POPC   C1B31615   3.332  29.995   8.725
 2174POPC   C2B31616   3.370  30.191   8.336
 2174POPC   C3B31617   3.193  30.235   7.934
 2174POPC   C4B31618   3.227  29.825   7.742
 2175POPC   NC331619  26.608   7.118   9.538
 2175POPC   PO431620  27.192   7.443   9.491
 2175POPC   GL131621  26.972   7.408   9.115
 2175POPC   GL231622  26.655   7.260   9.057
 2175POPC   C1A31623  27.128   7.201   8.739
 2175POPC   D2A31624  27.115   7.373   8.328
 2175POPC   C3A31625  27.171   7.114   7.974
 2175POPC   C4A31626  27.013   7.141   7.577
 2175POPC   C1B31627  26.698   7.491   8.692
 2175POPC   C2B31628  26.410   7.716   8.465
 2175POPC   C3B31629  26.406   7.497   8.086
 2175POPC   C4B31630  26.801   7.516   7.876
 2176POPC   NC331631  25.230  16.298   9.427
 2176POPC   PO431632  25.524  16.832   9.710
 2176POPC   GL131633  25.320  16.763   9.242
 2176POPC   GL231634  25.071  16.988   9.079
 2176POPC   C1A31635  25.368  16.587   8.822
 2176POPC   D2A31636  25.655  16.544   8.482
 2176POPC   C3A31637  25.527  16.753   8.157
 2176POPC   C4A31638  25.224  16.741   7.874
 2176POPC   C1B31639  24.954  16.877   8.680
 2176POPC   C2B31640  25.122  17.020   8.296
 2176POPC   C3B31641  25.012  17.198   7.899
 2176POPC   C4B31642  24.818  16.939   7.622
 2177POPC   NC331643   7.602   9.206   9.650
 2177POPC   PO431644   7.257   8.821   9.186
 2177POPC   GL131645   7.679   8.917   9.124
 2177POPC   GL231646   7.712   9.245   9.161
 2177POPC   C1A31647   7.701   8.758   8.712
 2177POPC   D2A31648   7.356   8.910   8.476
 2177POPC   C3A31649   7.428   8.903   8.058
 2177POPC   C4A31650   7.386   8.694   7.697
 2177POPC   C1B31651   7.664   9.265   8.719
 2177POPC   C2B31652   7.735   9.253   8.268
 2177POPC   C3B31653   7.619   9.342   7.841
 2177POPC   C4B31654   7.232   9.202   7.669
 2178POPC   NC331655  32.819  11.977   9.500
 2178POPC   PO431656  33.165  12.471   9.367
 2178POPC   GL131657  33.157  12.168   9.078
 2178POPC   GL231658  32.789  12.058   8.996
 2178POPC   C1A31659  33.140  12.162   8.644
 2178POPC   D2A31660  32.762  12.166   8.425
 2178POPC   C3A31661  32.882  12.262   8.042
 2178POPC   C4A31662  33.287  12.283   7.909
 2178POPC   C1B31663  33.116  11.698   8.879
 2178POPC   C2B31664  33.332  11.678   8.466
 2178POPC   C3B31665  33.146  11.812   8.077
 2178POPC   C4B31666  32.774  11.812   7.784
 2179POPC   NC331667  35.057  44.121   9.678
 2179POPC   PO431668  35.467  43.693   9.591
 2179POPC   GL131669  35.228  43.795   9.247
 2179POPC   GL231670  35.342  44.123   9.187
 2179POPC   C1A31671  35.395  43.765   8.823
 2179POPC   D2A31672  35.584  43.916   8.449
 2179POPC   C3A31673  35.313  43.933   8.091
 2179POPC   C4A31674  35.506  43.819   7.702
 2179POPC   C1B31675  35.467  44.289   8.752
 2179POPC   C2B31676  35.442  44.432   8.300
 2179POPC   C3B31677  35.317  44.368   7.829
 2179POPC   C4B31678  35.107  44.090   7.531
 2180POPC   NC331679  34.846  15.016   9.682
 2180POPC   PO431680  34.330  15.167   9.408
 2180POPC   GL131681  34.727  15.307   9.247
 2180POPC   GL231682  34.932  15.005   9.190
 2180POPC   C1A31683  34.693  15.437   8.815
 2180POPC   D2A31684  34.347  15.274   8.531
 2180POPC   C3A31685  34.388  15.381   8.087
 2180POPC   C4A31686  34.510  15.246   7.687
 2180POPC   C1B31687  34.645  14.925   8.853
 2180POPC   C2B31688  34.780  14.980   8.429
 2180POPC   C3B31689  34.757  14.947   8.024
 2180POPC   C4B31690  34.645  14.767   7.675
 2181POPC   NC331691  44.355   7.334   9.589
 2181POPC   PO431692  43.664   7.139   9.579
 2181POPC   GL131693  43.770   7.146   9.182
 2181POPC   GL231694  44.031   7.343   9.179
 2181POPC   C1A31695  43.661   7.375   8.816
 2181POPC   D2A31696  43.868   7.286   8.459
 2181POPC   C3A31697  43.769   7.476   8.068
 2181POPC   C4A31698  43.788   7.243   7.694
 2181POPC   C1B31699  44.104   7.621   8.826
 2181POPC   C2B31700  44.025   7.778   8.419
 2181POPC   C3B31701  44.252   7.798   8.052
 2181POPC   C4B31702  44.222   7.532   7.761
 2182POPC   NC331703  27.845  16.622   9.530
 2182POPC   PO431704  27.227  17.013   9.498
 2182POPC   GL131705  27.560  16.849   9.172
 2182POPC   GL231706  27.531  16.571   8.902
 2182POPC   C1A31707  27.935  16.870   8.885
 2182POPC   D2A31708  27.869  16.658   8.510
 2182POPC   C3A31709  27.712  16.711   8.092
 2182POPC   C4A31710  27.584  16.420   7.771
 2182POPC   C1B31711  27.382  16.889   8.609
 2182POPC   C2B31712  27.293  16.994   8.167
 2182POPC   C3B31713  27.311  16.855   7.756
 2182POPC   C4B31714  27.065  16.485   7.781
 2183POPC   NC331715  10.143  28.100   9.339
 2183POPC   PO431716  10.500  28.616   9.593
 2183POPC   GL131717  10.551  28.455   9.140
 2183POPC   GL231718  10.669  28.116   9.116
 2183POPC   C1A31719  10.753  28.394   8.700
 2183POPC   D2A31720  10.657  28.177   8.322
 2183POPC   C3A31721  10.730  28.432   8.008
 2183POPC   C4A31722  10.519  28.608   7.752
 2183POPC   C1B31723  10.380  28.064   8.758
 2183POPC   C2B31724  10.138  28.091   8.371
 2183POPC   C3B31725  10.272  28.158   7.926
 2183POPC   C4B31726  10.304  27.873   7.593
 2184POPC   NC331727  17.751  12.701   9.365
 2184POPC   PO431728  17.143  12.757   9.667
 2184POPC   GL131729  17.314  12.614   9.164
 2184POPC   GL231730  17.545  12.912   8.948
 2184POPC   C1A31731  17.506  12.495   8.719
 2184POPC   D2A31732  17.795  12.629   8.444
 2184POPC   C3A31733  17.597  12.725   8.085
 2184POPC   C4A31734  17.549  12.533   7.700
 2184POPC   C1B31735  17.464  13.036   8.517
 2184POPC   C2B31736  17.190  13.028   8.172
 2184POPC   C3B31737  17.338  13.014   7.749
 2184POPC   C4B31738  17.811  13.016   7.682
 2185POPC   NC331739   7.529  13.822   9.502
 2185POPC   PO431740   7.346  13.207   9.462
 2185POPC   GL131741   7.511  13.446   9.082
 2185POPC   GL231742   7.466  13.819   9.002
 2185POPC   C1A31743   7.492  13.475   8.604
 2185POPC   D2A31744   7.546  13.170   8.241
 2185POPC   C3A31745   7.620  13.358   7.829
 2185POPC   C4A31746   7.329  13.501   7.494
 2185POPC   C1B31747   7.104  13.827   8.713
 2185POPC   C2B31748   7.129  13.764   8.307
 2185POPC   C3B31749   7.367  13.853   7.955
 2185POPC   C4B31750   7.073  14.017   7.716
 2186POPC   NC331751   6.542   2.399   9.536
 2186POPC   PO431752   6.732   2.984   9.547
 2186POPC   GL131753   6.524   2.880   9.175
 2186POPC   GL231754   6.744   2.585   9.102
 2186POPC   C1A31755   6.546   2.835   8.707
 2186POPC   D2A31756   6.733   2.954   8.344
 2186POPC   C3A31757   6.678   2.822   7.942
 2186POPC   C4A31758   6.975   3.044   7.694
 2186POPC   C1B31759   6.544   2.338   8.734
 2186POPC   C2B31760   6.496   2.499   8.316
 2186POPC   C3B31761   6.271   2.500   7.953
 2186POPC   C4B31762   6.493   2.344   7.618
 2187POPC   NC331763   6.447   4.912   9.738
 2187POPC   PO431764   7.013   5.228   9.512
 2187POPC   GL131765   6.823   5.007   9.170
 2187POPC   GL231766   6.517   4.904   9.218
 2187POPC   C1A31767   6.826   4.975   8.724
 2187POPC   D2A31768   6.935   5.269   8.392
 2187POPC   C3A31769   6.884   5.087   8.010
 2187POPC   C4A31770   6.644   5.166   7.643
 2187POPC   C1B31771   6.458   4.640   8.856
 2187POPC   C2B31772   6.346   4.685   8.398
 2187POPC   C3B31773   6.398   4.853   7.958
 2187POPC   C4B31774   6.409   4.754   7.475
 2188POPC   NC331775   7.694   2.018   9.527
 2188POPC   PO431776   7.011   2.303   9.467
 2188POPC   GL131777   7.309   2.101   9.168
 2188POPC   GL231778   7.546   1.834   9.100
 2188POPC   C1A31779   7.571   2.250   8.811
 2188POPC   D2A31780   7.484   2.528   8.484
 2188POPC   C3A31781   7.459   2.304   8.135
 2188POPC   C4A31782   7.314   2.162   7.761
 2188POPC   C1B31783   7.355   1.738   8.764
 2188POPC   C2B31784   7.521   1.899   8.439
 2188POPC   C3B31785   7.531   1.784   8.051
 2188POPC   C4B31786   7.173   1.680   7.853
 2189POPC   NC331787  26.443   9.058   9.489
 2189POPC   PO431788  26.862   8.554   9.493
 2189POPC   GL131789  26.795   8.708   9.083
 2189POPC   GL231790  26.505   8.903   8.995
 2189POPC   C1A31791  26.923   8.594   8.672
 2189POPC   D2A31792  26.966   8.785   8.273
 2189POPC   C3A31793  26.679   8.708   7.945
 2189POPC   C4A31794  26.709   8.506   7.532
 2189POPC   C1B31795  26.505   8.869   8.546
 2189POPC   C2B31796  26.575   9.150   8.218
 2189POPC   C3B31797  26.731   9.215   7.801
 2189POPC   C4B31798  26.738   9.454   7.399
 2190POPC   NC331799  28.915   3.140   9.427
 2190POPC   PO431800  29.091   3.842   9.504
 2190POPC   GL131801  29.119   3.541   9.169
 2190POPC   GL231802  28.770   3.524   9.104
 2190POPC   C1A31803  29.290   3.392   8.785
 2190POPC   D2A31804  29.548   3.520   8.430
 2190POPC   C3A31805  29.453   3.372   8.013
 2190POPC   C4A31806  29.429   3.563   7.624
 2190POPC   C1B31807  28.864   3.648   8.679
 2190POPC   C2B31808  29.067   3.669   8.283
 2190POPC   C3B31809  28.974   3.640   7.864
 2190POPC   C4B31810  28.943   3.481   7.463
 2191POPC   NC331811  44.447  24.311   9.392
 2191POPC   PO431812   0.071  24.700   9.422
 2191POPC   GL131813  44.799  24.590   9.093
 2191POPC   GL231814  44.442  24.688   9.052
 2191POPC   C1A31815  44.813  24.465   8.686
 2191POPC   D2A31816  44.970  24.364   8.319
 2191POPC   C3A31817  44.775  24.316   7.964
 2191POPC   C4A31818  44.870  24.586   7.673
 2191POPC   C1B31819  44.300  24.472   8.693
 2191POPC   C2B31820  44.461  24.557   8.286
 2191POPC   C3B31821  44.371  24.633   7.835
 2191POPC   C4B31822  44.487  24.744   7.391
 2192POPC   NC331823   1.459  29.984   9.906
 2192POPC   PO431824   1.933  29.739   9.482
 2192POPC   GL131825   1.833  29.920   9.103
 2192POPC   GL231826   1.529  30.086   9.162
 2192POPC   C1A31827   1.959  29.883   8.653
 2192POPC   D2A31828   1.832  29.680   8.255
 2192POPC   C3A31829   2.058  29.796   7.873
 2192POPC   C4A31830   2.266  30.051   7.574
 2192POPC   C1B31831   1.440  29.878   8.753
 2192POPC   C2B31832   1.532  30.081   8.364
 2192POPC   C3B31833   1.620  30.048   7.954
 2192POPC   C4B31834   1.757  30.052   7.521
 2193POPC   NC331835  22.910   1.609   9.562
 2193POPC   PO431836  22.849   2.261   9.488
 2193POPC   GL131837  22.947   1.927   9.162
 2193POPC   GL231838  23.314   1.973   9.144
 2193POPC   C1A31839  22.666   1.755   8.793
 2193POPC   D2A31840  22.799   2.043   8.430
 2193POPC   C3A31841  22.798   2.002   7.967
 2193POPC   C4A31842  22.727   2.197   7.544
 2193POPC   C1B31843  23.099   2.282   8.835
 2193POPC   C2B31844  23.104   2.496   8.437
 2193POPC   C3B31845  23.195   2.349   8.008
 2193POPC   C4B31846  23.321   1.984   7.762
 2194POPC   NC331847  41.688   7.584   9.659
 2194POPC   PO431848  41.227   7.936   9.341
 2194POPC   GL131849  41.318   7.545   9.146
 2194POPC   GL231850  41.647   7.371   9.174
 2194POPC   C1A31851  41.409   7.518   8.724
 2194POPC   D2A31852  41.579   7.324   8.375
 2194POPC   C3A31853  41.632   7.571   8.049
 2194POPC   C4A31854  41.449   7.603   7.689
 2194POPC   C1B31855  41.936   7.341   8.817
 2194POPC   C2B31856  42.063   7.164   8.413
 2194POPC   C3B31857  42.117   7.402   8.057
 2194POPC   C4B31858  41.929   7.413   7.662
 2195POPC   NC331859  15.985   9.599   9.583
 2195POPC   PO431860  16.141  10.280   9.553
 2195POPC   GL131861  15.923   9.950   9.216
 2195POPC   GL231862  15.819   9.561   9.107
 2195POPC   C1A31863  15.802   9.970   8.795
 2195POPC   D2A31864  15.813   9.756   8.422
 2195POPC   C3A31865  16.094   9.912   8.166
 2195POPC   C4A31866  15.963   9.940   7.759
 2195POPC   C1B31867  15.801   9.300   8.730
 2195POPC   C2B31868  15.604   9.297   8.322
 2195POPC   C3B31869  15.783   9.490   7.945
 2195POPC   C4B31870  16.002   9.303   7.599
 2196POPC   NC331871  13.447  35.144   9.860
 2196POPC   PO431872  13.906  34.834   9.467
 2196POPC   GL131873  13.645  34.761   9.145
 2196POPC   GL231874  13.744  34.449   9.002
 2196POPC   C1A31875  13.756  34.870   8.719
 2196POPC   D2A31876  13.629  34.570   8.435
 2196POPC   C3A31877  13.534  34.702   8.051
 2196POPC   C4A31878  13.515  34.599   7.667
 2196POPC   C1B31879  13.486  34.193   8.757
 2196POPC   C2B31880  13.211  34.270   8.443
 2196POPC   C3B31881  13.443  34.195   8.070
 2196POPC   C4B31882  13.344  34.125   7.645
 2197POPC   NC331883  30.997  19.390   9.413
 2197POPC   PO431884  31.556  19.687   9.625
 2197POPC   GL131885  31.599  19.626   9.183
 2197POPC   GL231886  31.386  19.898   9.152
 2197POPC   C1A31887  31.609  19.745   8.721
 2197POPC   D2A31888  31.668  20.083   8.404
 2197POPC   C3A31889  31.810  19.933   8.029
 2197POPC   C4A31890  31.725  19.532   7.859
 2197POPC   C1B31891  31.178  20.042   8.776
 2197POPC   C2B31892  31.179  20.235   8.375
 2197POPC   C3B31893  31.230  20.165   7.960
 2197POPC   C4B31894  31.451  19.929   7.648
 2198POPC   NC331895  33.931  28.112   9.603
 2198POPC   PO431896  33.496  28.486   9.400
 2198POPC   GL131897  33.720  28.149   9.141
 2198POPC   GL231898  34.123  28.146   9.133
 2198POPC   C1A31899  33.776  28.302   8.742
 2198POPC   D2A31900  33.722  28.551   8.404
 2198POPC   C3A31901  33.668  28.279   8.064
 2198POPC   C4A31902  33.603  28.600   7.775
 2198POPC   C1B31903  34.311  28.262   8.736
 2198POPC   C2B31904  34.149  28.267   8.311
 2198POPC   C3B31905  34.111  28.477   7.893
 2198POPC   C4B31906  34.156  28.432   7.430
 2199POPC   NC331907   2.322  18.626   9.830
 2199POPC   PO431908   1.863  18.249   9.482
 2199POPC   GL131909   1.849  18.290   9.046
 2199POPC   GL231910   2.182  18.109   9.029
 2199POPC   C1A31911   1.897  18.167   8.613
 2199POPC   D2A31912   1.909  17.983   8.205
 2199POPC   C3A31913   2.012  18.208   7.841
 2199POPC   C4A31914   1.749  18.488   7.636
 2199POPC   C1B31915   2.455  18.293   8.697
 2199POPC   C2B31916   2.597  18.373   8.268
 2199POPC   C3B31917   2.427  18.537   7.876
 2199POPC   C4B31918   2.261  18.421   7.442
 2200POPC   NC331919  32.842  10.213   9.595
 2200POPC   PO431920  33.296  10.760   9.519
 2200POPC   GL131921  33.163  10.388   9.213
 2200POPC   GL231922  32.813  10.436   9.135
 2200POPC   C1A31923  33.090  10.289   8.740
 2200POPC   D2A31924  33.070  10.567   8.406
 2200POPC   C3A31925  32.923  10.408   8.004
 2200POPC   C4A31926  33.114  10.205   7.650
 2200POPC   C1B31927  32.659  10.535   8.719
 2200POPC   C2B31928  32.578  10.699   8.292
 2200POPC   C3B31929  32.667  10.829   7.863
 2200POPC   C4B31930  32.748  10.515   7.517
 2201POPC   NC331931  41.626  25.807   9.479
 2201POPC   PO431932  41.387  26.446   9.505
 2201POPC   GL131933  41.369  26.105   9.139
 2201POPC   GL231934  41.695  25.866   8.999
 2201POPC   C1A31935  41.283  25.897   8.746
 2201POPC   D2A31936  41.616  25.919   8.453
 2201POPC   C3A31937  41.424  26.026   8.094
 2201POPC   C4A31938  41.320  25.784   7.805
 2201POPC   C1B31939  41.768  26.264   8.808
 2201POPC   C2B31940  41.894  26.396   8.374
 2201POPC   C3B31941  41.857  26.275   7.946
 2201POPC   C4B31942  41.729  26.050   7.622
 2202POPC   NC331943   6.041  13.988   9.393
 2202POPC   PO431944   6.176  13.290   9.465
 2202POPC   GL131945   6.217  13.550   9.112
 2202POPC   GL231946   5.903  13.571   9.059
 2202POPC   C1A31947   6.196  13.709   8.673
 2202POPC   D2A31948   6.198  13.813   8.226
 2202POPC   C3A31949   5.927  13.580   7.932
 2202POPC   C4A31950   6.052  13.346   7.506
 2202POPC   C1B31951   5.673  13.736   8.695
 2202POPC   C2B31952   5.700  13.915   8.285
 2202POPC   C3B31953   5.619  13.999   7.867
 2202POPC   C4B31954   5.375  13.864   7.501
 2203POPC   NC331955  22.548  31.070   9.250
 2203POPC   PO431956  23.015  30.638   9.618
 2203POPC   GL131957  23.022  30.747   9.160
 2203POPC   GL231958  23.237  30.480   9.039
 2203POPC   C1A31959  22.966  30.821   8.689
 2203POPC   D2A31960  22.664  30.964   8.337
 2203POPC   C3A31961  22.776  30.872   7.891
 2203POPC   C4A31962  22.794  30.587   7.508
 2203POPC   C1B31963  23.282  30.409   8.588
 2203POPC   C2B31964  23.082  30.595   8.219
 2203POPC   C3B31965  23.237  30.692   7.821
 2203POPC   C4B31966  23.599  30.492   7.686
 2204POPC   NC331967  40.884  22.973   9.544
 2204POPC   PO431968  40.309  23.305   9.470
 2204POPC   GL131969  40.574  23.049   9.124
 2204POPC   GL231970  40.962  23.095   9.065
 2204POPC   C1A31971  40.730  22.826   8.715
 2204POPC   D2A31972  40.591  22.857   8.299
 2204POPC   C3A31973  40.784  23.005   7.925
 2204POPC   C4A31974  40.541  22.881   7.595
 2204POPC   C1B31975  41.162  22.670   8.949
 2204POPC   C2B31976  41.209  22.553   8.524
 2204POPC   C3B31977  40.968  22.553   8.143
 2204POPC   C4B31978  40.977  22.551   7.700
 2205POPC   NC331979  14.199  29.219   9.567
 2205POPC   PO431980  14.734  28.955   9.475
 2205POPC   GL131981  14.458  29.012   9.161
 2205POPC   GL231982  14.165  28.825   9.184
 2205POPC   C1A31983  14.409  29.137   8.770
 2205POPC   D2A31984  14.383  29.368   8.409
 2205POPC   C3A31985  14.585  29.176   8.091
 2205POPC   C4A31986  14.618  29.177   7.673
 2205POPC   C1B31987  13.958  28.907   8.781
 2205POPC   C2B31988  14.150  28.908   8.380
 2205POPC   C3B31989  14.155  28.961   7.966
 2205POPC   C4B31990  13.819  28.888   7.754
 2206POPC   NC331991  11.190   9.435   9.454
 2206POPC   PO431992  11.560   9.962   9.606
 2206POPC   GL131993  11.404   9.900   9.157
 2206POPC   GL231994  11.149   9.640   9.011
 2206POPC   C1A31995  11.448   9.890   8.699
 2206POPC   D2A31996  11.473   9.786   8.299
 2206POPC   C3A31997  11.511   9.974   7.922
 2206POPC   C4A31998  11.569   9.625   7.660
 2206POPC   C1B31999  11.324   9.349   8.722
 2206POPC   C2B32000  11.478   9.271   8.326
 2206POPC   C3B32001  11.225   9.442   7.998
 2206POPC   C4B32002  10.978   9.295   7.664
 2207POPC   NC332003  11.429   1.698   9.237
 2207POPC   PO432004  11.331   1.058   9.504
 2207POPC   GL132005  11.295   1.234   9.102
 2207POPC   GL232006  10.998   1.122   8.996
 2207POPC   C1A32007  11.324   1.319   8.634
 2207POPC   D2A32008  11.335   1.024   8.280
 2207POPC   C3A32009  11.703   1.116   8.081
 2207POPC   C4A32010  11.592   1.397   7.793
 2207POPC   C1B32011  10.922   1.014   8.585
 2207POPC   C2B32012  10.918   1.354   8.283
 2207POPC   C3B32013  11.063   1.532   7.910
 2207POPC   C4B32014  10.789   1.602   7.604
 2208POPC   NC332015  28.858  27.165   9.527
 2208POPC   PO432016  28.217  27.226   9.653
 2208POPC   GL132017  28.444  26.957   9.296
 2208POPC   GL232018  28.207  26.713   9.219
 2208POPC   C1A32019  28.554  26.814   8.829
 2208POPC   D2A32020  28.404  26.967   8.394
 2208POPC   C3A32021  28.502  26.767   7.990
 2208POPC   C4A32022  28.404  26.845   7.547
 2208POPC   C1B32023  28.212  26.439   8.872
 2208POPC   C2B32024  28.286  26.482   8.439
 2208POPC   C3B32025  28.082  26.443   8.045
 2208POPC   C4B32026  28.317  26.374   7.705
 2209POPC   NC332027  24.666  42.024   9.467
 2209POPC   PO432028  24.268  42.536   9.581
 2209POPC   GL132029  24.370  42.380   9.251
 2209POPC   GL232030  24.132  42.186   9.129
 2209POPC   C1A32031  24.536  42.365   8.875
 2209POPC   D2A32032  24.387  42.370   8.504
 2209POPC   C3A32033  24.594  42.256   8.152
 2209POPC   C4A32034  24.485  42.262   7.746
 2209POPC   C1B32035  24.054  42.061   8.706
 2209POPC   C2B32036  24.133  42.028   8.206
 2209POPC   C3B32037  24.139  41.876   7.742
 2209POPC   C4B32038  24.146  41.826   7.272
 2210POPC   NC332039  29.004  38.575   9.618
 2210POPC   PO432040  29.645  38.409   9.582
 2210POPC   GL132041  29.371  38.634   9.231
 2210POPC   GL232042  29.043  38.482   9.102
 2210POPC   C1A32043  29.350  38.771   8.756
 2210POPC   D2A32044  29.600  38.670   8.336
 2210POPC   C3A32045  29.505  38.587   7.869
 2210POPC   C4A32046  29.072  38.545   7.682
 2210POPC   C1B32047  29.079  38.347   8.643
 2210POPC   C2B32048  29.146  38.409   8.182
 2210POPC   C3B32049  29.204  38.092   7.821
 2210POPC   C4B32050  29.062  38.098   7.375
 2211POPC   NC332051  28.138  18.370   9.534
 2211POPC   PO432052  28.529  17.808   9.758
 2211POPC   GL132053  28.420  17.973   9.287
 2211POPC   GL232054  28.305  18.277   9.070
 2211POPC   C1A32055  28.492  17.912   8.794
 2211POPC   D2A32056  28.416  17.790   8.332
 2211POPC   C3A32057  28.570  18.034   7.952
 2211POPC   C4A32058  28.393  18.088   7.528
 2211POPC   C1B32059  28.528  18.419   8.712
 2211POPC   C2B32060  28.565  18.431   8.273
 2211POPC   C3B32061  28.415  18.541   7.853
 2211POPC   C4B32062  28.163  18.917   7.715
 2212POPC   NC332063  20.811   9.742   9.722
 2212POPC   PO432064  20.365  10.183   9.953
 2212POPC   GL132065  20.412  10.002   9.426
 2212POPC   GL232066  20.714   9.863   9.259
 2212POPC   C1A32067  20.360   9.886   8.906
 2212POPC   D2A32068  20.319   9.739   8.404
 2212POPC   C3A32069  20.593   9.819   8.016
 2212POPC   C4A32070  20.529   9.682   7.558
 2212POPC   C1B32071  20.871   9.884   8.864
 2212POPC   C2B32072  20.808   9.628   8.496
 2212POPC   C3B32073  20.997   9.506   8.117
 2212POPC   C4B32074  21.076   9.777   7.783
 2213POPC   NC332075  29.925  18.940   9.374
 2213POPC   PO432076  30.562  19.208   9.441
 2213POPC   GL132077  30.289  19.165   9.070
 2213POPC   GL232078  30.264  18.825   9.021
 2213POPC   C1A32079  30.124  19.132   8.621
 2213POPC   D2A32080  30.207  19.078   8.161
 2213POPC   C3A32081  29.934  19.278   7.834
 2213POPC   C4A32082  29.481  19.342   7.795
 2213POPC   C1B32083  29.937  18.678   8.759
 2213POPC   C2B32084  30.011  18.561   8.326
 2213POPC   C3B32085  29.844  18.788   7.970
 2213POPC   C4B32086  30.104  18.830   7.646
 2214POPC   NC332087  22.345   2.405   9.584
 2214POPC   PO432088  22.061   1.736   9.747
 2214POPC   GL132089  22.174   1.733   9.296
 2214POPC   GL232090  22.460   1.924   9.259
 2214POPC   C1A32091  22.141   1.825   8.835
 2214POPC   D2A32092  22.303   1.800   8.399
 2214POPC   C3A32093  22.060   1.837   8.013
 2214POPC   C4A32094  22.208   2.017   7.661
 2214POPC   C1B32095  22.558   2.229   8.899
 2214POPC   C2B32096  22.396   2.345   8.491
 2214POPC   C3B32097  22.418   2.359   8.030
 2214POPC   C4B32098  22.312   2.509   7.622
 2215POPC   NC332099  21.411   2.565   9.466
 2215POPC   PO432100  21.072   3.147   9.518
 2215POPC   GL132101  21.256   2.974   9.145
 2215POPC   GL232102  21.114   3.250   8.996
 2215POPC   C1A32103  21.458   2.686   8.803
 2215POPC   D2A32104  21.487   2.355   8.477
 2215POPC   C3A32105  21.494   2.567   8.090
 2215POPC   C4A32106  21.622   2.783   7.723
 2215POPC   C1B32107  21.073   3.020   8.656
 2215POPC   C2B32108  21.348   2.980   8.361
 2215POPC   C3B32109  21.295   3.086   7.961
 2215POPC   C4B32110  21.229   3.091   7.531
 2216POPC   NC332111  42.142  18.599   9.449
 2216POPC   PO432112  42.678  18.172   9.499
 2216POPC   GL132113  42.591  18.349   9.168
 2216POPC   GL232114  42.289  18.209   9.101
 2216POPC   C1A32115  42.611  18.449   8.756
 2216POPC   D2A32116  42.415  18.198   8.442
 2216POPC   C3A32117  42.589  18.311   8.070
 2216POPC   C4A32118  42.748  18.292   7.699
 2216POPC   C1B32119  42.090  18.461   8.796
 2216POPC   C2B32120  41.909  18.471   8.401
 2216POPC   C3B32121  42.078  18.305   8.016
 2216POPC   C4B32122  42.235  18.432   7.619
 2217POPC   NC332123  19.264   7.876   9.445
 2217POPC   PO432124  19.226   8.612   9.582
 2217POPC   GL132125  19.079   8.319   9.206
 2217POPC   GL232126  19.428   8.235   9.099
 2217POPC   C1A32127  18.841   8.204   8.779
 2217POPC   D2A32128  18.794   7.823   8.517
 2217POPC   C3A32129  18.790   7.871   8.050
 2217POPC   C4A32130  18.907   8.143   7.712
 2217POPC   C1B32131  19.315   8.340   8.693
 2217POPC   C2B32132  19.121   8.243   8.285
 2217POPC   C3B32133  19.351   8.284   7.873
 2217POPC   C4B32134  19.224   8.482   7.456
 2218POPC   NC332135   0.642  33.555   9.442
 2218POPC   PO432136   0.465  34.131   9.601
 2218POPC   GL132137   0.368  33.895   9.170
 2218POPC   GL232138   0.600  33.651   8.955
 2218POPC   C1A32139   0.271  33.955   8.712
 2218POPC   D2A32140   0.112  34.119   8.297
 2218POPC   C3A32141   0.259  33.957   7.874
 2218POPC   C4A32142   0.556  33.923   7.501
 2218POPC   C1B32143   0.871  33.672   8.604
 2218POPC   C2B32144   0.890  33.493   8.191
 2218POPC   C3B32145   0.628  33.541   7.824
 2218POPC   C4B32146   0.634  33.412   7.372
 2219POPC   NC332147  13.447   8.117   9.582
 2219POPC   PO432148  13.338   8.746   9.585
 2219POPC   GL132149  13.452   8.421   9.187
 2219POPC   GL232150  13.379   8.030   9.094
 2219POPC   C1A32151  13.815   8.243   8.938
 2219POPC   D2A32152  14.043   8.175   8.543
 2219POPC   C3A32153  13.813   8.326   8.177
 2219POPC   C4A32154  13.889   8.214   7.747
 2219POPC   C1B32155  13.456   8.001   8.646
 2219POPC   C2B32156  13.296   8.128   8.245
 2219POPC   C3B32157  13.406   8.102   7.841
 2219POPC   C4B32158  13.529   7.955   7.451
 2220POPC   NC332159  44.419   0.597   9.689
 2220POPC   PO432160  43.721   0.447   9.542
 2220POPC   GL132161  43.735   0.474   9.118
 2220POPC   GL232162  44.080   0.489   9.175
 2220POPC   C1A32163  43.977   0.628   8.713
 2220POPC   D2A32164  43.954   0.453   8.308
 2220POPC   C3A32165  44.061   0.577   7.871
 2220POPC   C4A32166  43.767   0.570   7.532
 2220POPC   C1B32167  43.985   0.133   8.843
 2220POPC   C2B32168  44.225   0.056   8.456
 2220POPC   C3B32169  44.239   0.001   8.035
 2220POPC   C4B32170  44.144   0.139   7.594
 2221POPC   NC332171   4.028   9.249   9.473
 2221POPC   PO432172   4.624   8.875   9.473
 2221POPC   GL132173   4.455   8.709   9.130
 2221POPC   GL232174   4.153   8.878   9.109
 2221POPC   C1A32175   4.544   8.823   8.726
 2221POPC   D2A32176   4.361   8.813   8.347
 2221POPC   C3A32177   4.598   9.059   8.108
 2221POPC   C4A32178   4.619   9.027   7.707
 2221POPC   C1B32179   4.092   9.096   8.714
 2221POPC   C2B32180   4.090   9.252   8.275
 2221POPC   C3B32181   4.115   9.038   7.885
 2221POPC   C4B32182   4.211   9.124   7.428
 2222POPC   NC332183  35.001  12.072   9.438
 2222POPC   PO432184  34.397  11.775   9.560
 2222POPC   GL132185  34.362  11.988   9.174
 2222POPC   GL232186  34.670  12.105   9.025
 2222POPC   C1A32187  34.173  12.133   8.809
 2222POPC   D2A32188  34.433  12.151   8.444
 2222POPC   C3A32189  34.336  11.872   8.080
 2222POPC   C4A32190  34.188  12.192   7.799
 2222POPC   C1B32191  34.981  12.336   8.782
 2222POPC   C2B32192  35.151  12.377   8.368
 2222POPC   C3B32193  34.820  12.306   8.126
 2222POPC   C4B32194  34.722  12.048   7.813
 2223POPC   NC332195  39.296  25.785   9.632
 2223POPC   PO432196  38.961  26.218   9.280
 2223POPC   GL132197  39.260  25.934   9.112
 2223POPC   GL232198  39.513  26.220   9.160
 2223POPC   C1A32199  39.063  25.740   8.738
 2223POPC   D2A32200  38.758  25.649   8.404
 2223POPC   C3A32201  38.929  25.874   8.077
 2223POPC   C4A32202  39.336  25.854   7.898
 2223POPC   C1B32203  39.344  26.242   8.704
 2223POPC   C2B32204  39.289  26.243   8.218
 2223POPC   C3B32205  39.211  26.326   7.745
 2223POPC   C4B32206  39.094  26.311   7.271
 2224POPC   NC332207  36.962   6.656   9.531
 2224POPC   PO432208  36.450   6.996   9.698
 2224POPC   GL132209  36.485   6.649   9.294
 2224POPC   GL232210  36.821   6.588   9.066
 2224POPC   C1A32211  36.404   6.632   8.805
 2224POPC   D2A32212  36.715   6.643   8.458
 2224POPC   C3A32213  36.712   6.687   8.001
 2224POPC   C4A32214  37.072   6.681   7.716
 2224POPC   C1B32215  37.145   6.536   8.714
 2224POPC   C2B32216  37.175   6.516   8.218
 2224POPC   C3B32217  37.209   6.202   7.837
 2224POPC   C4B32218  37.490   6.267   7.464
 2225POPC   NC332219  17.358  26.394   9.722
 2225POPC   PO432220  17.294  27.031   9.440
 2225POPC   GL132221  17.439  26.759   9.155
 2225POPC   GL232222  17.600  27.002   8.994
 2225POPC   C1A32223  17.238  26.742   8.722
 2225POPC   D2A32224  17.057  26.813   8.324
 2225POPC   C3A32225  17.180  26.548   7.985
 2225POPC   C4A32226  17.385  26.410   7.601
 2225POPC   C1B32227  17.776  26.948   8.628
 2225POPC   C2B32228  17.539  27.011   8.280
 2225POPC   C3B32229  17.591  26.844   7.906
 2225POPC   C4B32230  17.951  26.668   7.739
 2226POPC   NC332231  40.647  12.502   9.539
 2226POPC   PO432232  40.482  11.803   9.598
 2226POPC   GL132233  40.627  11.901   9.210
 2226POPC   GL232234  40.519  12.242   9.131
 2226POPC   C1A32235  40.705  11.881   8.789
 2226POPC   D2A32236  40.723  12.090   8.425
 2226POPC   C3A32237  40.724  11.803   8.096
 2226POPC   C4A32238  40.902  12.051   7.793
 2226POPC   C1B32239  40.262  12.200   8.801
 2226POPC   C2B32240  40.214  12.123   8.384
 2226POPC   C3B32241  40.412  12.176   7.976
 2226POPC   C4B32242  40.312  12.473   7.678
 2227POPC   NC332243   4.971  21.069   9.742
 2227POPC   PO432244   5.231  21.647   9.571
 2227POPC   GL132245   5.032  21.340   9.297
 2227POPC   GL232246   5.289  21.311   9.101
 2227POPC   C1A32247   4.874  21.142   8.880
 2227POPC   D2A32248   4.780  21.280   8.488
 2227POPC   C3A32249   4.993  21.176   8.118
 2227POPC   C4A32250   5.267  21.156   7.750
 2227POPC   C1B32251   5.090  21.607   8.821
 2227POPC   C2B32252   5.215  21.785   8.432
 2227POPC   C3B32253   5.224  21.644   8.022
 2227POPC   C4B32254   4.865  21.558   7.793
 2228POPC   NC332255  24.367   8.532   9.378
 2228POPC   PO432256  24.459   7.977   9.627
 2228POPC   GL132257  24.383   8.056   9.170
 2228POPC   GL232258  24.043   8.218   9.097
 2228POPC   C1A32259  24.355   8.029   8.707
 2228POPC   D2A32260  24.445   8.225   8.274
 2228POPC   C3A32261  24.393   8.023   7.845
 2228POPC   C4A32262  24.341   8.178   7.395
 2228POPC   C1B32263  23.905   8.260   8.670
 2228POPC   C2B32264  23.991   8.436   8.230
 2228POPC   C3B32265  24.056   8.471   7.743
 2228POPC   C4B32266  24.204   8.682   7.339
 2229POPC   NC332267  21.104  44.373   9.748
 2229POPC   PO432268  21.309   0.004   9.608
 2229POPC   GL132269  21.427  44.845   9.212
 2229POPC   GL232270  21.191  44.970   8.997
 2229POPC   C1A32271  21.505  44.515   8.871
 2229POPC   D2A32272  21.726  44.468   8.437
 2229POPC   C3A32273  21.535  44.641   8.030
 2229POPC   C4A32274  21.212  44.399   7.769
 2229POPC   C1B32275  21.461   0.008   8.697
 2229POPC   C2B32276  21.255  44.721   8.464
 2229POPC   C3B32277  21.030  44.724   8.128
 2229POPC   C4B32278  21.124  44.893   7.754
 2230POPC   NC332279  24.329  30.557   9.502
 2230POPC   PO432280  24.901  30.809   9.740
 2230POPC   GL132281  24.637  30.886   9.292
 2230POPC   GL232282  24.773  31.159   9.071
 2230POPC   C1A32283  24.515  30.764   8.890
 2230POPC   D2A32284  24.735  30.711   8.550
 2230POPC   C3A32285  24.534  30.749   8.184
 2230POPC   C4A32286  24.477  30.816   7.760
 2230POPC   C1B32287  25.022  31.097   8.744
 2230POPC   C2B32288  25.151  30.935   8.353
 2230POPC   C3B32289  24.955  30.992   7.970
 2230POPC   C4B32290  24.970  30.841   7.530
 2231POPC   NC332291  19.242  12.490   9.356
 2231POPC   PO432292  19.132  13.138   9.394
 2231POPC   GL132293  19.023  12.850   9.033
 2231POPC   GL232294  18.810  12.540   9.112
 2231POPC   C1A32295  19.324  12.759   8.644
 2231POPC   D2A32296  19.309  12.424   8.297
 2231POPC   C3A32297  19.224  12.679   7.936
 2231POPC   C4A32298  19.080  13.117   7.930
 2231POPC   C1B32299  18.967  12.438   8.724
 2231POPC   C2B32300  18.860  12.661   8.348
 2231POPC   C3B32301  18.651  12.838   8.019
 2231POPC   C4B32302  18.747  12.544   7.747
 2232POPC   NC332303  33.682  17.564   9.623
 2232POPC   PO432304  34.179  17.141   9.425
 2232POPC   GL132305  33.933  17.503   9.178
 2232POPC   GL232306  33.565  17.478   9.124
 2232POPC   C1A32307  33.877  17.721   8.772
 2232POPC   D2A32308  34.008  17.543   8.385
 2232POPC   C3A32309  34.011  17.786   8.022
 2232POPC   C4A32310  34.021  17.533   7.666
 2232POPC   C1B32311  33.444  17.480   8.652
 2232POPC   C2B32312  33.544  17.705   8.246
 2232POPC   C3B32313  33.553  17.597   7.806
 2232POPC   C4B32314  33.618  17.531   7.347
 2233POPC   NC332315  27.397  35.562   9.438
 2233POPC   PO432316  27.711  35.040   9.655
 2233POPC   GL132317  27.712  35.232   9.260
 2233POPC   GL232318  27.406  35.143   9.126
 2233POPC   C1A32319  27.823  35.424   8.838
 2233POPC   D2A32320  27.620  35.375   8.430
 2233POPC   C3A32321  27.751  35.345   7.993
 2233POPC   C4A32322  27.637  35.525   7.578
 2233POPC   C1B32323  27.241  35.164   8.719
 2233POPC   C2B32324  27.120  35.350   8.332
 2233POPC   C3B32325  27.252  35.552   7.962
 2233POPC   C4B32326  27.097  35.607   7.543
 2234POPC   NC332327  20.776   7.883   9.427
 2234POPC   PO432328  20.819   8.497   9.600
 2234POPC   GL132329  20.669   8.323   9.171
 2234POPC   GL232330  20.421   8.030   9.107
 2234POPC   C1A32331  20.733   8.409   8.717
 2234POPC   D2A32332  20.763   8.616   8.291
 2234POPC   C3A32333  20.872   8.303   7.946
 2234POPC   C4A32334  20.869   7.941   7.637
 2234POPC   C1B32335  20.312   8.076   8.681
 2234POPC   C2B32336  20.493   8.164   8.281
 2234POPC   C3B32337  20.403   8.068   7.865
 2234POPC   C4B32338  20.183   8.012   7.496
 2235POPC   NC332339  39.678  12.578   9.525
 2235POPC   PO432340  39.658  13.099   9.137
 2235POPC   GL132341  39.951  12.748   8.983
 2235POPC   GL232342  40.329  12.736   9.029
 2235POPC   C1A32343  40.078  12.628   8.582
 2235POPC   D2A32344  39.719  12.646   8.317
 2235POPC   C3A32345  39.756  13.003   8.052
 2235POPC   C4A32346  39.718  12.838   7.666
 2235POPC   C1B32347  40.433  13.038   8.720
 2235POPC   C2B32348  40.215  13.052   8.324
 2235POPC   C3B32349  40.228  12.937   7.873
 2235POPC   C4B32350  40.066  13.177   7.527
 2236POPC   NC332351   4.158  42.685   9.396
 2236POPC   PO432352   4.481  43.259   9.568
 2236POPC   GL132353   4.237  43.281   9.215
 2236POPC   GL232354   3.934  43.105   9.201
 2236POPC   C1A32355   4.226  43.249   8.781
 2236POPC   D2A32356   4.309  42.952   8.490
 2236POPC   C3A32357   4.434  43.177   8.150
 2236POPC   C4A32358   4.387  43.157   7.725
 2236POPC   C1B32359   3.754  43.075   8.799
 2236POPC   C2B32360   3.862  43.227   8.394
 2236POPC   C3B32361   3.933  43.165   7.957
 2236POPC   C4B32362   3.906  42.871   7.639
 2237POPC   NC332363  16.389  28.854   9.329
 2237POPC   PO432364  17.014  29.164   9.572
 2237POPC   GL132365  16.880  28.989   9.183
 2237POPC   GL232366  16.637  29.264   9.147
 2237POPC   C1A32367  16.840  28.970   8.727
 2237POPC   D2A32368  16.871  29.280   8.414
 2237POPC   C3A32369  17.075  29.198   8.033
 2237POPC   C4A32370  16.942  28.999   7.712
 2237POPC   C1B32371  16.417  29.260   8.738
 2237POPC   C2B32372  16.419  29.019   8.380
 2237POPC   C3B32373  16.525  29.077   7.982
 2237POPC   C4B32374  16.295  29.345   7.697
 2238POPC   NC332375  27.528   5.283   9.369
 2238POPC   PO432376  27.747   5.827   9.771
 2238POPC   GL132377  27.747   5.808   9.291
 2238POPC   GL232378  27.848   5.539   9.114
 2238POPC   C1A32379  27.822   5.955   8.844
 2238POPC   D2A32380  27.829   6.225   8.453
 2238POPC   C3A32381  27.659   6.069   8.078
 2238POPC   C4A32382  27.592   6.224   7.679
 2238POPC   C1B32383  27.809   5.418   8.717
 2238POPC   C2B32384  27.716   5.629   8.364
 2238POPC   C3B32385  27.771   5.538   7.945
 2238POPC   C4B32386  27.911   5.826   7.658
 2239POPC   NC332387  20.933  31.229   9.555
 2239POPC   PO432388  20.564  31.740   9.420
 2239POPC   GL132389  20.727  31.748   9.058
 2239POPC   GL232390  20.749  31.387   9.082
 2239POPC   C1A32391  20.428  31.667   8.736
 2239POPC   D2A32392  20.397  31.289   8.498
 2239POPC   C3A32393  20.586  31.512   8.167
 2239POPC   C4A32394  20.330  31.747   7.886
 2239POPC   C1B32395  20.870  31.425   8.668
 2239POPC   C2B32396  20.889  31.100   8.356
 2239POPC   C3B32397  20.808  31.094   7.967
 2239POPC   C4B32398  20.494  31.277   7.707
 2240POPC   NC332399  25.006   7.059   9.229
 2240POPC   PO432400  25.350   7.610   9.361
 2240POPC   GL132401  25.389   7.391   9.032
 2240POPC   GL232402  25.652   7.163   9.095
 2240POPC   C1A32403  25.228   7.474   8.640
 2240POPC   D2A32404  24.970   7.424   8.304
 2240POPC   C3A32405  25.181   7.548   7.961
 2240POPC   C4A32406  25.077   7.410   7.582
 2240POPC   C1B32407  25.436   7.009   8.709
 2240POPC   C2B32408  25.425   7.135   8.294
 2240POPC   C3B32409  25.561   7.212   7.882
 2240POPC   C4B32410  25.752   7.116   7.509
 2241POPC   NC332411  15.748   3.305   9.529
 2241POPC   PO432412  15.835   3.953   9.555
 2241POPC   GL132413  15.906   3.690   9.189
 2241POPC   GL232414  16.090   3.355   9.151
 2241POPC   C1A32415  15.834   3.725   8.774
 2241POPC   D2A32416  15.901   3.469   8.427
 2241POPC   C3A32417  15.720   3.548   8.044
 2241POPC   C4A32418  15.960   3.345   7.752
 2241POPC   C1B32419  16.295   3.521   8.797
 2241POPC   C2B32420  16.278   3.831   8.472
 2241POPC   C3B32421  16.222   3.707   8.056
 2241POPC   C4B32422  16.441   3.479   7.745
 2242POPC   NC332423   1.506   0.689   9.220
 2242POPC   PO432424   1.252   0.058   9.479
 2242POPC   GL132425   1.149   0.292   9.141
 2242POPC   GL232426   0.916   0.574   9.261
 2242POPC   C1A32427   1.379   0.249   8.764
 2242POPC   D2A32428   1.581   0.456   8.419
 2242POPC   C3A32429   1.357   0.399   8.018
 2242POPC   C4A32430   1.373   0.692   7.715
 2242POPC   C1B32431   0.972   0.637   8.819
 2242POPC   C2B32432   1.063   0.484   8.425
 2242POPC   C3B32433   0.919   0.632   8.029
 2242POPC   C4B32434   0.891   0.818   7.645
 2243POPC   NC332435  16.749  13.039   9.490
 2243POPC   PO432436  17.412  13.092   9.381
 2243POPC   GL132437  17.049  13.021   9.064
 2243POPC   GL232438  16.825  12.707   9.072
 2243POPC   C1A32439  17.063  12.762   8.648
 2243POPC   D2A32440  16.806  12.674   8.282
 2243POPC   C3A32441  17.038  12.613   7.886
 2243POPC   C4A32442  17.110  12.528   7.441
 2243POPC   C1B32443  16.497  12.714   8.735
 2243POPC   C2B32444  16.336  12.874   8.340
 2243POPC   C3B32445  16.432  12.768   7.924
 2243POPC   C4B32446  16.618  12.531   7.598
 2244POPC   NC332447  21.678  35.901   9.491
 2244POPC   PO432448  21.337  36.405   9.516
 2244POPC   GL132449  21.258  36.297   9.085
 2244POPC   GL232450  21.377  35.942   9.061
 2244POPC   C1A32451  21.238  36.237   8.650
 2244POPC   D2A32452  21.403  35.951   8.330
 2244POPC   C3A32453  21.484  36.147   7.905
 2244POPC   C4A32454  21.492  36.536   7.677
 2244POPC   C1B32455  21.128  35.739   8.736
 2244POPC   C2B32456  20.921  35.722   8.336
 2244POPC   C3B32457  21.069  35.830   7.937
 2244POPC   C4B32458  21.334  35.773   7.595
 2245POPC   NC332459  15.302  32.495   9.505
 2245POPC   PO432460  14.681  32.254   9.484
 2245POPC   GL132461  14.953  32.296   9.163
 2245POPC   GL232462  15.296  32.100   9.184
 2245POPC   C1A32463  15.112  32.326   8.764
 2245POPC   D2A32464  15.369  32.229   8.419
 2245POPC   C3A32465  15.118  32.292   8.038
 2245POPC   C4A32466  14.909  32.322   7.656
 2245POPC   C1B32467  15.568  31.884   8.871
 2245POPC   C2B32468  15.616  31.795   8.427
 2245POPC   C3B32469  15.352  31.840   8.062
 2245POPC   C4B32470  15.332  32.001   7.637
 2246POPC   NC332471  31.196   6.602   9.414
 2246POPC   PO432472  31.761   6.911   9.466
 2246POPC   GL132473  31.608   6.745   9.074
 2246POPC   GL232474  31.602   6.387   9.071
 2246POPC   C1A32475  31.565   6.626   8.628
 2246POPC   D2A32476  31.150   6.608   8.430
 2246POPC   C3A32477  31.242   6.692   8.033
 2246POPC   C4A32478  31.660   6.743   7.870
 2246POPC   C1B32479  31.254   6.259   8.793
 2246POPC   C2B32480  31.384   6.128   8.371
 2246POPC   C3B32481  31.497   6.270   7.971
 2246POPC   C4B32482  31.377   6.477   7.556
 2247POPC   NC332483   8.024  37.347   9.587
 2247POPC   PO432484   8.539  37.826   9.402
 2247POPC   GL132485   8.127  37.723   9.167
 2247POPC   GL232486   8.109  37.368   9.044
 2247POPC   C1A32487   8.064  37.747   8.704
 2247POPC   D2A32488   8.245  37.534   8.349
 2247POPC   C3A32489   8.253  37.742   7.957
 2247POPC   C4A32490   7.920  37.967   7.767
 2247POPC   C1B32491   7.765  37.337   8.672
 2247POPC   C2B32492   7.665  37.565   8.336
 2247POPC   C3B32493   7.758  37.504   7.928
 2247POPC   C4B32494   7.920  37.177   7.692
 2248POPC   NC332495   2.595  40.130   9.502
 2248POPC   PO432496   3.018  39.678   9.682
 2248POPC   GL132497   3.011  39.924   9.282
 2248POPC   GL232498   2.703  39.771   9.154
 2248POPC   C1A32499   2.870  40.179   8.886
 2248POPC   D2A32500   2.817  40.004   8.475
 2248POPC   C3A32501   2.809  40.160   8.038
 2248POPC   C4A32502   3.086  40.046   7.727
 2248POPC   C1B32503   2.515  39.693   8.738
 2248POPC   C2B32504   2.555  39.600   8.272
 2248POPC   C3B32505   2.435  39.776   7.880
 2248POPC   C4B32506   2.383  40.196   7.724
 2249POPC   NC332507   1.706   5.917   9.614
 2249POPC   PO432508   2.169   5.525   9.765
 2249POPC   GL132509   2.039   5.657   9.281
 2249POPC   GL232510   2.015   6.035   9.226
 2249POPC   C1A32511   1.911   5.657   8.801
 2249POPC   D2A32512   1.649   5.781   8.409
 2249POPC   C3A32513   1.710   5.628   7.957
 2249POPC   C4A32514   2.130   5.626   7.754
 2249POPC   C1B32515   2.273   6.015   8.896
 2249POPC   C2B32516   2.107   6.065   8.511
 2249POPC   C3B32517   2.043   6.008   8.084
 2249POPC   C4B32518   2.234   6.176   7.708
 2250POPC   NC332519  23.927   4.774   9.586
 2250POPC   PO432520  23.661   5.380   9.626
 2250POPC   GL132521  23.724   5.249   9.165
 2250POPC   GL232522  23.936   4.943   9.100
 2250POPC   C1A32523  23.538   5.036   8.766
 2250POPC   D2A32524  23.406   4.784   8.391
 2250POPC   C3A32525  23.394   4.916   7.969
 2250POPC   C4A32526  23.707   5.162   7.808
 2250POPC   C1B32527  24.000   5.228   8.742
 2250POPC   C2B32528  23.821   5.278   8.329
 2250POPC   C3B32529  24.120   5.075   8.073
 2250POPC   C4B32530  24.283   5.169   7.684
 2251POPC   NC332531   2.662  39.378   9.628
 2251POPC   PO432532   2.998  38.733   9.628
 2251POPC   GL132533   3.075  39.036   9.227
 2251POPC   GL232534   3.089  39.406   9.245
 2251POPC   C1A32535   2.937  39.163   8.773
 2251POPC   D2A32536   3.069  39.236   8.318
 2251POPC   C3A32537   2.743  39.171   8.004
 2251POPC   C4A32538   2.317  39.256   7.913
 2251POPC   C1B32539   3.070  39.666   8.845
 2251POPC   C2B32540   3.280  39.712   8.479
 2251POPC   C3B32541   3.044  39.711   8.117
 2251POPC   C4B32542   2.900  39.581   7.759
 2252POPC   NC332543  23.387   6.478   9.392
 2252POPC   PO432544  24.016   6.791   9.486
 2252POPC   GL132545  23.852   6.664   9.114
 2252POPC   GL232546  23.532   6.788   8.999
 2252POPC   C1A32547  23.922   6.655   8.690
 2252POPC   D2A32548  23.642   6.751   8.384
 2252POPC   C3A32549  23.772   6.597   7.975
 2252POPC   C4A32550  23.973   6.827   7.642
 2252POPC   C1B32551  23.282   6.482   8.737
 2252POPC   C2B32552  23.094   6.565   8.337
 2252POPC   C3B32553  23.278   6.850   8.037
 2252POPC   C4B32554  23.468   6.885   7.643
 2253POPC   NC332555  10.522   5.341   9.549
 2253POPC   PO432556  10.262   4.690   9.568
 2253POPC   GL132557  10.386   4.970   9.228
 2253POPC   GL232558  10.353   5.338   9.069
 2253POPC   C1A32559  10.736   4.992   8.948
 2253POPC   D2A32560  10.719   4.805   8.559
 2253POPC   C3A32561  10.806   4.988   8.203
 2253POPC   C4A32562  10.504   4.969   7.868
 2253POPC   C1B32563  10.759   5.515   8.910
 2253POPC   C2B32564  10.858   5.403   8.498
 2253POPC   C3B32565  10.572   5.417   8.151
 2253POPC   C4B32566  10.430   5.462   7.746
 2254POPC   NC332567  27.144  16.555   9.525
 2254POPC   PO432568  26.487  16.692   9.573
 2254POPC   GL132569  26.686  16.737   9.157
 2254POPC   GL232570  27.057  16.724   9.065
 2254POPC   C1A32571  26.592  16.719   8.709
 2254POPC   D2A32572  26.845  16.732   8.328
 2254POPC   C3A32573  26.595  16.586   7.984
 2254POPC   C4A32574  26.655  16.684   7.536
 2254POPC   C1B32575  26.946  17.071   8.855
 2254POPC   C2B32576  26.749  17.199   8.520
 2254POPC   C3B32577  26.923  17.356   8.173
 2254POPC   C4B32578  26.844  17.019   7.878
 2255POPC   NC332579  27.358  33.228   9.417
 2255POPC   PO432580  26.913  32.748   9.655
 2255POPC   GL132581  26.853  32.904   9.210
 2255POPC   GL232582  27.174  32.969   8.994
 2255POPC   C1A32583  26.715  32.861   8.767
 2255POPC   D2A32584  26.814  32.905   8.323
 2255POPC   C3A32585  26.557  33.099   8.035
 2255POPC   C4A32586  26.660  32.722   7.826
 2255POPC   C1B32587  27.038  33.231   8.627
 2255POPC   C2B32588  27.059  33.354   8.225
 2255POPC   C3B32589  27.012  33.149   7.857
 2255POPC   C4B32590  26.687  33.166   7.537
 2256POPC   NC332591  43.748  31.228   9.612
 2256POPC   PO432592  43.729  31.752   9.240
 2256POPC   GL132593  44.020  31.567   8.989
 2256POPC   GL232594  43.972  31.214   9.089
 2256POPC   C1A32595  43.980  31.578   8.576
 2256POPC   D2A32596  43.670  31.464   8.313
 2256POPC   C3A32597  43.769  31.723   7.972
 2256POPC   C4A32598  43.771  31.635   7.538
 2256POPC   C1B32599  44.290  31.210   8.733
 2256POPC   C2B32600  44.258  31.261   8.262
 2256POPC   C3B32601  43.941  31.230   7.929
 2256POPC   C4B32602  44.092  31.253   7.522
 2257POPC   NC332603  12.067   2.451   9.432
 2257POPC   PO432604  11.826   2.969   9.174
 2257POPC   GL132605  12.155   2.672   8.992
 2257POPC   GL232606  12.367   2.343   9.050
 2257POPC   C1A32607  12.340   2.759   8.626
 2257POPC   D2A32608  12.122   3.106   8.459
 2257POPC   C3A32609  11.832   3.001   8.147
 2257POPC   C4A32610  11.846   2.768   7.791
 2257POPC   C1B32611  12.116   2.269   8.673
 2257POPC   C2B32612  12.011   2.425   8.275
 2257POPC   C3B32613  12.270   2.734   8.077
 2257POPC   C4B32614  12.385   2.763   7.628
 2258POPC   NC332615  44.324   3.782   9.430
 2258POPC   PO432616  43.823   3.797   9.842
 2258POPC   GL132617  43.895   3.533   9.373
 2258POPC   GL232618  43.953   3.759   9.070
 2258POPC   C1A32619  43.983   3.266   8.941
 2258POPC   D2A32620  44.149   3.230   8.490
 2258POPC   C3A32621  43.911   3.440   8.143
 2258POPC   C4A32622  43.812   3.240   7.746
 2258POPC   C1B32623  44.283   3.660   8.738
 2258POPC   C2B32624  44.388   3.860   8.334
 2258POPC   C3B32625  44.138   3.883   7.980
 2258POPC   C4B32626  44.159   3.608   7.667
 2259POPC   NC332627   9.233  31.032   9.442
 2259POPC   PO432628   9.064  30.364   9.532
 2259POPC   GL132629   8.959  30.428   9.108
 2259POPC   GL232630   9.050  30.726   9.093
 2259POPC   C1A32631   8.922  30.414   8.687
 2259POPC   D2A32632   9.127  30.417   8.321
 2259POPC   C3A32633   8.929  30.527   7.912
 2259POPC   C4A32634   9.131  30.750   7.562
 2259POPC   C1B32635   9.272  30.806   8.726
 2259POPC   C2B32636   9.211  30.914   8.308
 2259POPC   C3B32637   9.405  31.105   7.979
 2259POPC   C4B32638   9.568  31.040   7.577
 2260POPC   NC332639   4.063  30.030   9.587
 2260POPC   PO432640   4.558  30.395   9.230
 2260POPC   GL132641   4.251  30.178   9.034
 2260POPC   GL232642   4.185  29.827   9.135
 2260POPC   C1A32643   4.209  30.302   8.621
 2260POPC   D2A32644   4.219  30.453   8.220
 2260POPC   C3A32645   4.258  30.157   7.867
 2260POPC   C4A32646   4.528  30.229   7.520
 2260POPC   C1B32647   4.374  29.805   8.720
 2260POPC   C2B32648   4.332  29.889   8.285
 2260POPC   C3B32649   4.405  29.614   7.914
 2260POPC   C4B32650   4.085  29.382   7.663
 2261POPC   NC332651  19.021  25.721   9.612
 2261POPC   PO432652  19.254  26.170   9.097
 2261POPC   GL132653  18.848  26.097   8.973
 2261POPC   GL232654  18.861  25.790   9.149
 2261POPC   C1A32655  18.828  26.024   8.541
 2261POPC   D2A32656  19.243  25.866   8.442
 2261POPC   C3A32657  19.385  26.067   8.083
 2261POPC   C4A32658  19.255  25.931   7.676
 2261POPC   C1B32659  18.926  25.604   8.792
 2261POPC   C2B32660  18.692  25.557   8.411
 2261POPC   C3B32661  18.878  25.787   8.055
 2261POPC   C4B32662  18.709  25.958   7.678
 2262POPC   NC332663  39.659  43.742   9.785
 2262POPC   PO432664  40.172  43.311   9.521
 2262POPC   GL132665  39.970  43.166   9.142
 2262POPC   GL232666  39.665  42.946   9.133
 2262POPC   C1A32667  39.877  43.237   8.726
 2262POPC   D2A32668  39.742  43.500   8.400
 2262POPC   C3A32669  39.804  43.296   8.008
 2262POPC   C4A32670  39.989  43.449   7.651
 2262POPC   C1B32671  39.801  42.720   8.753
 2262POPC   C2B32672  39.950  42.671   8.359
 2262POPC   C3B32673  39.747  42.643   7.989
 2262POPC   C4B32674  39.796  42.885   7.631
 2263POPC   NC332675  40.010   4.187   9.466
 2263POPC   PO432676  39.614   4.758   9.588
 2263POPC   GL132677  39.826   4.612   9.140
 2263POPC   GL232678  40.158   4.418   9.051
 2263POPC   C1A32679  39.861   4.519   8.666
 2263POPC   D2A32680  39.902   4.224   8.314
 2263POPC   C3A32681  39.826   4.384   7.901
 2263POPC   C4A32682  39.769   4.183   7.479
 2263POPC   C1B32683  40.291   4.189   8.709
 2263POPC   C2B32684  40.412   4.264   8.301
 2263POPC   C3B32685  40.439   4.436   7.937
 2263POPC   C4B32686  40.233   4.344   7.571
 2264POPC   NC332687  43.371  17.776   9.508
 2264POPC   PO432688  42.753  17.409   9.451
 2264POPC   GL132689  42.946  17.600   9.088
 2264POPC   GL232690  43.296  17.466   9.125
 2264POPC   C1A32691  42.824  17.610   8.614
 2264POPC   D2A32692  43.031  17.523   8.222
 2264POPC   C3A32693  42.819  17.317   7.861
 2264POPC   C4A32694  42.788  17.391   7.397
 2264POPC   C1B32695  43.315  17.659   8.702
 2264POPC   C2B32696  43.525  17.658   8.309
 2264POPC   C3B32697  43.368  17.651   7.862
 2264POPC   C4B32698  43.282  17.616   7.398
 2265POPC   NC332699  13.736   3.983   9.200
 2265POPC   PO432700  13.695   3.383   9.476
 2265POPC   GL132701  13.542   3.437   9.081
 2265POPC   GL232702  13.189   3.340   9.143
 2265POPC   C1A32703  13.772   3.428   8.682
 2265POPC   D2A32704  13.919   3.342   8.258
 2265POPC   C3A32705  13.786   3.627   7.956
 2265POPC   C4A32706  13.447   3.876   7.841
 2265POPC   C1B32707  13.238   3.239   8.710
 2265POPC   C2B32708  13.493   3.082   8.397
 2265POPC   C3B32709  13.503   3.160   7.984
 2265POPC   C4B32710  13.328   3.199   7.589
 2266POPC   NC332711  11.075   6.620   9.498
 2266POPC   PO432712  10.432   6.788   9.476
 2266POPC   GL132713  10.494   6.736   9.084
 2266POPC   GL232714  10.862   6.798   9.058
 2266POPC   C1A32715  10.358   6.449   8.800
 2266POPC   D2A32716  10.505   6.328   8.408
 2266POPC   C3A32717  10.418   6.667   8.178
 2266POPC   C4A32718  10.290   6.685   7.764
 2266POPC   C1B32719  10.770   6.725   8.628
 2266POPC   C2B32720  10.974   6.811   8.244
 2266POPC   C3B32721  10.803   6.749   7.863
 2266POPC   C4B32722  10.623   6.304   7.864
 2267POPC   NC332723  20.124   0.767   9.511
 2267POPC   PO432724  19.674   0.289   9.418
 2267POPC   GL132725  19.970   0.437   9.149
 2267POPC   GL232726  19.765   0.729   9.127
 2267POPC   C1A32727  20.205   0.303   8.782
 2267POPC   D2A32728  19.966   0.314   8.391
 2267POPC   C3A32729  20.020   0.179   8.007
 2267POPC   C4A32730  19.888   0.324   7.598
 2267POPC   C1B32731  19.908   0.704   8.716
 2267POPC   C2B32732  20.054   0.801   8.316
 2267POPC   C3B32733  19.860   0.700   7.965
 2267POPC   C4B32734  19.473   0.568   7.831
 2268POPC   NC332735  12.979  38.629   9.189
 2268POPC   PO432736  13.442  38.251   9.529
 2268POPC   GL132737  13.547  38.474   9.220
 2268POPC   GL232738  13.848  38.279   9.159
 2268POPC   C1A32739  13.521  38.470   8.797
 2268POPC   D2A32740  13.639  38.240   8.470
 2268POPC   C3A32741  13.657  38.459   8.093
 2268POPC   C4A32742  13.809  38.404   7.694
 2268POPC   C1B32743  14.040  38.399   8.769
 2268POPC   C2B32744  14.125  38.337   8.332
 2268POPC   C3B32745  14.313  38.342   7.928
 2268POPC   C4B32746  14.263  38.582   7.521
 2269POPC   NC332747   9.699  10.533   9.578
 2269POPC   PO432748   9.939  10.093   9.165
 2269POPC   GL132749   9.634  10.374   9.060
 2269POPC   GL232750   9.737  10.715   9.092
 2269POPC   C1A32751   9.701  10.453   8.639
 2269POPC   D2A32752   9.699  10.227   8.275
 2269POPC   C3A32753   9.619  10.449   7.898
 2269POPC   C4A32754   9.759  10.423   7.459
 2269POPC   C1B32755   9.463  10.877   8.739
 2269POPC   C2B32756   9.570  10.798   8.296
 2269POPC   C3B32757   9.400  10.904   7.911
 2269POPC   C4B32758   9.559  10.885   7.502
 2270POPC   NC332759  23.411  43.167   9.530
 2270POPC   PO432760  24.084  43.347   9.534
 2270POPC   GL132761  23.826  43.159   9.215
 2270POPC   GL232762  23.557  43.381   9.080
 2270POPC   C1A32763  23.851  43.098   8.777
 2270POPC   D2A32764  23.817  43.214   8.342
 2270POPC   C3A32765  23.827  42.938   8.009
 2270POPC   C4A32766  23.769  43.043   7.578
 2270POPC   C1B32767  23.376  43.327   8.652
 2270POPC   C2B32768  23.422  43.508   8.226
 2270POPC   C3B32769  23.620  43.430   7.847
 2270POPC   C4B32770  23.505  43.398   7.335
 2271POPC   NC332771  37.781  19.467   9.347
 2271POPC   PO432772  37.423  19.063   9.800
 2271POPC   GL132773  37.746  18.955   9.310
 2271POPC   GL232774  37.901  19.164   8.969
 2271POPC   C1A32775  37.583  18.798   8.855
 2271POPC   D2A32776  37.853  18.901   8.507
 2271POPC   C3A32777  37.818  19.112   8.112
 2271POPC   C4A32778  37.620  18.945   7.743
 2271POPC   C1B32779  37.516  19.265   8.659
 2271POPC   C2B32780  37.429  19.482   8.262
 2271POPC   C3B32781  37.557  19.471   7.826
 2271POPC   C4B32782  37.995  19.437   7.708
 2272POPC   NC332783   5.835  17.105   9.434
 2272POPC   PO432784   5.996  16.508   9.671
 2272POPC   GL132785   5.954  16.598   9.212
 2272POPC   GL232786   5.636  16.736   9.168
 2272POPC   C1A32787   6.027  16.841   8.798
 2272POPC   D2A32788   6.126  16.911   8.343
 2272POPC   C3A32789   6.093  16.646   7.961
 2272POPC   C4A32790   6.074  17.008   7.751
 2272POPC   C1B32791   5.600  16.590   8.802
 2272POPC   C2B32792   5.609  16.885   8.460
 2272POPC   C3B32793   5.650  16.817   8.074
 2272POPC   C4B32794   5.490  16.623   7.724
 2273POPC   NC332795  40.469  35.131   9.434
 2273POPC   PO432796  40.186  34.527   9.552
 2273POPC   GL132797  39.925  34.592   9.168
 2273POPC   GL232798  40.161  34.851   9.118
 2273POPC   C1A32799  39.719  34.692   8.739
 2273POPC   D2A32800  39.630  35.001   8.421
 2273POPC   C3A32801  39.637  34.797   8.028
 2273POPC   C4A32802  39.814  34.768   7.621
 2273POPC   C1B32803  40.210  34.646   8.729
 2273POPC   C2B32804  40.020  34.618   8.321
 2273POPC   C3B32805  40.134  34.899   7.996
 2273POPC   C4B32806  40.393  34.889   7.653
 2274POPC   NC332807  31.728  13.856   9.448
 2274POPC   PO432808  31.209  13.536   9.692
 2274POPC   GL132809  31.168  13.637   9.236
 2274POPC   GL232810  31.392  13.898   9.038
 2274POPC   C1A32811  31.241  13.457   8.813
 2274POPC   D2A32812  31.357  13.640   8.418
 2274POPC   C3A32813  31.430  13.474   8.004
 2274POPC   C4A32814  31.315  13.704   7.630
 2274POPC   C1B32815  31.728  13.758   8.757
 2274POPC   C2B32816  31.835  13.902   8.315
 2274POPC   C3B32817  31.757  13.839   7.846
 2274POPC   C4B32818  31.705  13.880   7.340
 2275POPC   NC332819  32.459   1.027   9.481
 2275POPC   PO432820  32.320   1.653   9.717
 2275POPC   GL132821  32.272   1.450   9.218
 2275POPC   GL232822  32.236   1.150   9.039
 2275POPC   C1A32823  32.236   1.529   8.716
 2275POPC   D2A32824  32.468   1.505   8.294
 2275POPC   C3A32825  32.225   1.331   7.950
 2275POPC   C4A32826  31.803   1.194   7.854
 2275POPC   C1B32827  32.136   0.905   8.682
 2275POPC   C2B32828  32.353   0.966   8.298
 2275POPC   C3B32829  32.264   0.832   7.881
 2275POPC   C4B32830  32.024   0.897   7.501
 2276POPC   NC332831   8.650  22.146   9.386
 2276POPC   PO432832   9.340  22.364   9.354
 2276POPC   GL132833   9.115  22.136   9.084
 2276POPC   GL232834   9.165  21.782   9.147
 2276POPC   C1A32835   8.881  22.289   8.721
 2276POPC   D2A32836   8.721  22.185   8.314
 2276POPC   C3A32837   8.803  22.267   7.889
 2276POPC   C4A32838   8.840  22.427   7.469
 2276POPC   C1B32839   9.094  21.799   8.709
 2276POPC   C2B32840   9.261  22.084   8.421
 2276POPC   C3B32841   9.215  21.972   8.010
 2276POPC   C4B32842   9.193  22.105   7.603
 2277POPC   NC332843   8.334  36.399   9.446
 2277POPC   PO432844   7.948  35.902   9.553
 2277POPC   GL132845   8.132  36.005   9.164
 2277POPC   GL232846   8.459  35.857   9.193
 2277POPC   C1A32847   7.957  36.064   8.746
 2277POPC   D2A32848   7.832  36.358   8.390
 2277POPC   C3A32849   7.862  36.177   7.981
 2277POPC   C4A32850   7.796  36.278   7.551
 2277POPC   C1B32851   8.491  36.157   8.822
 2277POPC   C2B32852   8.319  36.209   8.398
 2277POPC   C3B32853   8.396  36.139   7.974
 2277POPC   C4B32854   8.548  35.728   7.898
 2278POPC   NC332855  22.208  28.745   9.476
 2278POPC   PO432856  21.843  29.356   9.511
 2278POPC   GL132857  21.980  29.095   9.168
 2278POPC   GL232858  22.352  29.110   9.166
 2278POPC   C1A32859  22.103  29.140   8.725
 2278POPC   D2A32860  22.102  29.050   8.313
 2278POPC   C3A32861  22.191  29.339   8.024
 2278POPC   C4A32862  22.032  29.172   7.669
 2278POPC   C1B32863  22.433  28.784   8.844
 2278POPC   C2B32864  22.524  28.746   8.381
 2278POPC   C3B32865  22.389  28.848   7.916
 2278POPC   C4B32866  22.409  28.895   7.430
 2279POPC   NC332867  25.458   6.225   9.544
 2279POPC   PO432868  25.020   6.671   9.456
 2279POPC   GL132869  25.296   6.654   9.086
 2279POPC   GL232870  25.433   6.347   9.063
 2279POPC   C1A32871  25.145   6.602   8.657
 2279POPC   D2A32872  24.914   6.926   8.391
 2279POPC   C3A32873  25.065   7.029   7.953
 2279POPC   C4A32874  25.282   6.905   7.565
 2279POPC   C1B32875  25.624   6.374   8.672
 2279POPC   C2B32876  25.426   6.366   8.286
 2279POPC   C3B32877  25.336   6.471   7.870
 2279POPC   C4B32878  25.232   6.392   7.432
 2280POPC   NC332879  20.710   4.143   9.581
 2280POPC   PO432880  20.221   4.600   9.653
 2280POPC   GL132881  20.397   4.336   9.212
 2280POPC   GL232882  20.751   4.323   9.123
 2280POPC   C1A32883  20.523   4.520   8.726
 2280POPC   D2A32884  20.779   4.470   8.295
 2280POPC   C3A32885  20.503   4.373   7.970
 2280POPC   C4A32886  20.432   4.149   7.584
 2280POPC   C1B32887  20.883   4.172   8.718
 2280POPC   C2B32888  21.020   3.952   8.381
 2280POPC   C3B32889  20.913   3.983   7.967
 2280POPC   C4B32890  20.960   4.292   7.689
 2281POPC   NC332891   4.119   6.451   9.479
 2281POPC   PO432892   4.802   6.409   9.479
 2281POPC   GL132893   4.505   6.421   9.119
 2281POPC   GL232894   4.349   6.754   9.048
 2281POPC   C1A32895   4.547   6.465   8.658
 2281POPC   D2A32896   4.537   6.688   8.241
 2281POPC   C3A32897   4.432   6.385   7.930
 2281POPC   C4A32898   4.140   6.186   7.666
 2281POPC   C1B32899   4.185   6.852   8.605
 2281POPC   C2B32900   4.017   6.810   8.185
 2281POPC   C3B32901   4.110   6.742   7.737
 2281POPC   C4B32902   3.977   7.043   7.377
 2282POPC   NC332903  32.527  14.722   9.403
 2282POPC   PO432904  32.114  14.179   9.506
 2282POPC   GL132905  32.198  14.164   9.089
 2282POPC   GL232906  32.143  14.526   9.096
 2282POPC   C1A32907  32.264  14.258   8.641
 2282POPC   D2A32908  32.018  14.404   8.318
 2282POPC   C3A32909  32.041  14.253   7.915
 2282POPC   C4A32910  31.972  14.257   7.503
 2282POPC   C1B32911  32.055  14.747   8.722
 2282POPC   C2B32912  32.178  14.899   8.350
 2282POPC   C3B32913  32.180  14.748   7.941
 2282POPC   C4B32914  31.825  14.737   7.681
 2283POPC   NC332915  26.743   8.105   9.451
 2283POPC   PO432916  26.247   7.767   9.440
 2283POPC   GL132917  26.581   7.779   9.105
 2283POPC   GL232918  26.404   8.076   9.033
 2283POPC   C1A32919  26.800   7.989   8.731
 2283POPC   D2A32920  26.899   7.841   8.322
 2283POPC   C3A32921  26.907   8.085   7.934
 2283POPC   C4A32922  26.753   8.014   7.543
 2283POPC   C1B32923  26.465   8.380   8.715
 2283POPC   C2B32924  26.658   8.326   8.308
 2283POPC   C3B32925  26.430   8.266   7.890
 2283POPC   C4B32926  26.234   8.652   7.680
 2284POPC   NC332927  38.164  14.815   9.457
 2284POPC   PO432928  38.245  14.128   9.575
 2284POPC   GL132929  38.120  14.346   9.214
 2284POPC   GL232930  38.455  14.413   9.129
 2284POPC   C1A32931  38.122  14.259   8.767
 2284POPC   D2A32932  38.410  14.376   8.437
 2284POPC   C3A32933  38.258  14.313   8.017
 2284POPC   C4A32934  38.423  14.431   7.621
 2284POPC   C1B32935  38.402  14.731   8.826
 2284POPC   C2B32936  38.637  14.898   8.496
 2284POPC   C3B32937  38.549  14.741   8.095
 2284POPC   C4B32938  38.117  14.794   7.860
 2285POPC   NC332939  11.575   0.637   9.503
 2285POPC   PO432940  11.184   0.076   9.647
 2285POPC   GL132941  11.346   0.265   9.239
 2285POPC   GL232942  11.203   0.644   9.148
 2285POPC   C1A32943  11.483   0.338   8.805
 2285POPC   D2A32944  11.190   0.577   8.528
 2285POPC   C3A32945  11.149   0.438   8.116
 2285POPC   C4A32946  11.189   0.568   7.703
 2285POPC   C1B32947  11.491   0.855   8.832
 2285POPC   C2B32948  11.704   0.714   8.451
 2285POPC   C3B32949  11.611   0.630   8.013
 2285POPC   C4B32950  11.573   0.903   7.621
 2286POPC   NC332951   8.006  22.607   9.478
 2286POPC   PO432952   8.205  21.958   9.450
 2286POPC   GL132953   8.196  22.250   9.160
 2286POPC   GL232954   7.844  22.206   9.184
 2286POPC   C1A32955   8.360  22.320   8.756
 2286POPC   D2A32956   8.228  22.069   8.408
 2286POPC   C3A32957   8.284  22.206   7.984
 2286POPC   C4A32958   8.005  22.029   7.691
 2286POPC   C1B32959   7.839  22.255   8.754
 2286POPC   C2B32960   8.006  22.561   8.462
 2286POPC   C3B32961   7.884  22.513   8.069
 2286POPC   C4B32962   7.954  22.569   7.671
 2287POPC   NC332963  13.935  26.680   9.456
 2287POPC   PO432964  13.334  27.025   9.415
 2287POPC   GL132965  13.703  26.996   9.139
 2287POPC   GL232966  13.545  26.664   9.073
 2287POPC   C1A32967  13.936  26.753   8.770
 2287POPC   D2A32968  13.835  26.545   8.352
 2287POPC   C3A32969  13.934  26.696   7.914
 2287POPC   C4A32970  14.020  26.628   7.441
 2287POPC   C1B32971  13.470  26.971   8.704
 2287POPC   C2B32972  13.341  26.945   8.295
 2287POPC   C3B32973  13.480  26.959   7.901
 2287POPC   C4B32974  13.531  26.751   7.547
 2288POPC   NC332975  10.407   2.013   9.494
 2288POPC   PO432976  10.990   1.550   9.387
 2288POPC   GL132977  10.648   1.881   9.077
 2288POPC   GL232978  10.390   2.218   9.045
 2288POPC   C1A32979  10.359   1.848   8.705
 2288POPC   D2A32980  10.233   1.571   8.385
 2288POPC   C3A32981  10.482   1.656   8.036
 2288POPC   C4A32982  10.357   1.865   7.660
 2288POPC   C1B32983  10.662   2.286   8.706
 2288POPC   C2B32984  10.522   2.121   8.297
 2288POPC   C3B32985  10.295   2.267   7.973
 2288POPC   C4B32986  10.520   2.337   7.627
 2289POPC   NC332987  43.677   5.558   9.498
 2289POPC   PO432988  44.144   4.958   9.521
 2289POPC   GL132989  43.997   4.963   9.106
 2289POPC   GL232990  43.694   4.810   9.035
 2289POPC   C1A32991  43.855   5.247   8.799
 2289POPC   D2A32992  44.077   5.463   8.505
 2289POPC   C3A32993  44.045   5.236   8.113
 2289POPC   C4A32994  43.761   5.287   7.773
 2289POPC   C1B32995  43.501   4.885   8.692
 2289POPC   C2B32996  43.601   4.953   8.312
 2289POPC   C3B32997  43.534   4.632   8.008
 2289POPC   C4B32998  43.661   4.806   7.666
 2290POPC   NC332999  26.600  20.936   9.587
 2290POPC   PO433000  26.844  20.351   9.553
 2290POPC   GL133001  26.946  20.480   9.142
 2290POPC   GL233002  26.797  20.750   9.153
 2290POPC   C1A33003  26.862  20.324   8.722
 2290POPC   D2A33004  26.806  20.251   8.275
 2290POPC   C3A33005  26.678  20.615   7.963
 2290POPC   C4A33006  26.375  20.844   7.667
 2290POPC   C1B33007  26.857  20.921   8.756
 2290POPC   C2B33008  26.922  21.110   8.324
 2290POPC   C3B33009  27.105  21.009   7.923
 2290POPC   C4B33010  26.936  21.037   7.499
 2291POPC   NC333011  41.029  44.320   9.546
 2291POPC   PO433012  41.283  44.932   9.326
 2291POPC   GL133013  40.879  44.904   9.158
 2291POPC   GL233014  40.738  44.593   9.217
 2291POPC   C1A33015  40.682  44.837   8.747
 2291POPC   D2A33016  40.803  44.641   8.354
 2291POPC   C3A33017  40.651  44.743   7.958
 2291POPC   C4A33018  40.795  44.676   7.533
 2291POPC   C1B33019  40.414  44.412   8.953
 2291POPC   C2B33020  40.279  44.305   8.546
 2291POPC   C3B33021  40.329  44.289   8.119
 2291POPC   C4B33022  40.724  44.245   7.902
 2292POPC   NC333023  41.105   2.448   9.394
 2292POPC   PO433024  40.754   1.777   9.417
 2292POPC   GL133025  40.897   2.022   9.079
 2292POPC   GL233026  41.217   1.927   9.090
 2292POPC   C1A33027  40.835   2.235   8.670
 2292POPC   D2A33028  40.896   2.516   8.319
 2292POPC   C3A33029  40.979   2.333   7.951
 2292POPC   C4A33030  40.717   2.052   7.788
 2292POPC   C1B33031  41.072   1.761   8.657
 2292POPC   C2B33032  40.984   1.822   8.183
 2292POPC   C3B33033  41.026   1.630   7.743
 2292POPC   C4B33034  41.222   1.735   7.314
 2293POPC   NC333035  16.299   6.873   9.241
 2293POPC   PO433036  15.761   6.551   9.596
 2293POPC   GL133037  15.721   6.346   9.186
 2293POPC   GL233038  15.585   6.643   9.059
 2293POPC   C1A33039  16.003   6.334   8.810
 2293POPC   D2A33040  16.231   6.582   8.485
 2293POPC   C3A33041  16.151   6.465   8.062
 2293POPC   C4A33042  16.071   6.662   7.682
 2293POPC   C1B33043  15.500   6.399   8.702
 2293POPC   C2B33044  15.686   6.371   8.291
 2293POPC   C3B33045  15.645   6.638   7.927
 2293POPC   C4B33046  15.635   6.523   7.447
 2294POPC   NC333047  20.016  31.063   9.716
 2294POPC   PO433048  20.009  30.443   9.441
 2294POPC   GL133049  19.875  30.831   9.224
 2294POPC   GL233050  19.508  30.791   9.185
 2294POPC   C1A33051  19.978  31.011   8.797
 2294POPC   D2A33052  20.023  30.767   8.396
 2294POPC   C3A33053  20.079  30.924   7.981
 2294POPC   C4A33054  20.021  30.771   7.548
 2294POPC   C1B33055  19.625  30.655   8.743
 2294POPC   C2B33056  19.508  30.656   8.274
 2294POPC   C3B33057  19.562  30.674   7.798
 2294POPC   C4B33058  19.543  30.824   7.339
 2295POPC   NC333059  34.976  26.455   9.540
 2295POPC   PO433060  34.402  26.469   9.160
 2295POPC   GL133061  34.783  26.580   9.066
 2295POPC   GL233062  34.730  26.940   9.132
 2295POPC   C1A33063  34.783  26.715   8.649
 2295POPC   D2A33064  34.513  26.927   8.393
 2295POPC   C3A33065  34.603  26.816   7.994
 2295POPC   C4A33066  34.392  26.471   7.816
 2295POPC   C1B33067  34.789  27.202   8.759
 2295POPC   C2B33068  34.967  27.140   8.311
 2295POPC   C3B33069  34.754  27.309   7.917
 2295POPC   C4B33070  34.590  27.072   7.551
 2296POPC   NC333071  32.733   6.635   9.439
 2296POPC   PO433072  33.400   6.834   9.449
 2296POPC   GL133073  33.160   6.562   9.175
 2296POPC   GL233074  32.922   6.847   9.020
 2296POPC   C1A33075  33.059   6.419   8.760
 2296POPC   D2A33076  33.074   6.797   8.510
 2296POPC   C3A33077  33.117   6.774   8.066
 2296POPC   C4A33078  33.337   6.447   7.840
 2296POPC   C1B33079  32.600   6.672   8.718
 2296POPC   C2B33080  32.626   6.670   8.272
 2296POPC   C3B33081  32.495   6.781   7.877
 2296POPC   C4B33082  32.748   6.762   7.489
 2297POPC   NC333083  20.336  36.560   9.917
 2297POPC   PO433084  20.457  37.137   9.516
 2297POPC   GL133085  20.663  36.928   9.144
 2297POPC   GL233086  20.390  36.991   8.995
 2297POPC   C1A33087  20.503  36.548   8.813
 2297POPC   D2A33088  20.641  36.566   8.407
 2297POPC   C3A33089  20.509  36.517   8.007
 2297POPC   C4A33090  20.603  36.696   7.628
 2297POPC   C1B33091  20.652  37.033   8.628
 2297POPC   C2B33092  20.401  36.985   8.259
 2297POPC   C3B33093  20.375  37.124   7.880
 2297POPC   C4B33094  20.314  37.092   7.444
 2298POPC   NC333095  14.954  20.088   9.604
 2298POPC   PO433096  15.357  19.499   9.583
 2298POPC   GL133097  15.061  19.525   9.213
 2298POPC   GL233098  15.143  19.863   9.178
 2298POPC   C1A33099  15.100  19.540   8.748
 2298POPC   D2A33100  15.421  19.754   8.456
 2298POPC   C3A33101  15.377  19.806   8.000
 2298POPC   C4A33102  14.979  19.679   7.859
 2298POPC   C1B33103  15.011  20.033   8.776
 2298POPC   C2B33104  14.983  19.964   8.338
 2298POPC   C3B33105  15.020  20.182   7.954
 2298POPC   C4B33106  14.946  20.074   7.535
 2299POPC   NC333107  14.980  15.296   9.579
 2299POPC   PO433108  15.399  14.858   9.753
 2299POPC   GL133109  15.152  14.838   9.349
 2299POPC   GL233110  14.778  14.922   9.253
 2299POPC   C1A33111  15.267  15.046   8.940
 2299POPC   D2A33112  15.203  15.320   8.565
 2299POPC   C3A33113  15.405  15.266   8.167
 2299POPC   C4A33114  15.492  15.655   7.925
 2299POPC   C1B33115  14.770  15.167   8.843
 2299POPC   C2B33116  14.730  15.490   8.503
 2299POPC   C3B33117  14.951  15.532   8.082
 2299POPC   C4B33118  15.161  15.323   7.729
 2300POPC   NC333119  43.458  19.264   9.618
 2300POPC   PO433120  42.847  18.983   9.580
 2300POPC   GL133121  42.946  19.141   9.205
 2300POPC   GL233122  43.259  18.966   9.227
 2300POPC   C1A33123  42.772  19.255   8.790
 2300POPC   D2A33124  42.736  19.042   8.377
 2300POPC   C3A33125  42.769  19.186   7.953
 2300POPC   C4A33126  43.044  19.054   7.643
 2300POPC   C1B33127  43.305  19.298   8.916
 2300POPC   C2B33128  43.203  19.314   8.511
 2300POPC   C3B33129  43.260  19.244   8.092
 2300POPC   C4B33130  43.459  19.353   7.726
 2301POPC   NC333131  39.190  32.526   9.666
 2301POPC   PO433132  39.390  31.913   9.573
 2301POPC   GL133133  39.351  32.235   9.235
 2301POPC   GL233134  39.064  32.270   9.039
 2301POPC   C1A33135  39.538  32.333   8.826
 2301POPC   D2A33136  39.535  32.371   8.363
 2301POPC   C3A33137  39.339  32.526   7.956
 2301POPC   C4A33138  39.305  32.344   7.525
 2301POPC   C1B33139  39.117  32.039   8.657
 2301POPC   C2B33140  39.086  32.168   8.237
 2301POPC   C3B33141  39.049  32.016   7.832
 2301POPC   C4B33142  38.915  31.915   7.422
 2302POPC   NC333143  41.683  11.704   9.498
 2302POPC   PO433144  41.333  12.321   9.516
 2302POPC   GL133145  41.413  12.136   9.158
 2302POPC   GL233146  41.051  12.185   9.073
 2302POPC   C1A33147  41.700  12.085   8.792
 2302POPC   D2A33148  41.643  12.210   8.372
 2302POPC   C3A33149  41.859  12.018   8.028
 2302POPC   C4A33150  41.997  12.175   7.683
 2302POPC   C1B33151  41.221  11.885   8.776
 2302POPC   C2B33152  41.140  11.778   8.389
 2302POPC   C3B33153  41.301  11.951   8.076
 2302POPC   C4B33154  41.405  11.878   7.704
 2303POPC   NC333155   4.495   1.830   9.469
 2303POPC   PO433156   3.828   2.061   9.499
 2303POPC   GL133157   4.165   2.172   9.190
 2303POPC   GL233158   4.548   2.192   9.101
 2303POPC   C1A33159   4.165   2.012   8.796
 2303POPC   D2A33160   4.096   1.852   8.420
 2303POPC   C3A33161   4.258   2.071   8.102
 2303POPC   C4A33162   4.180   1.894   7.729
 2303POPC   C1B33163   4.655   1.849   8.758
 2303POPC   C2B33164   4.623   1.739   8.300
 2303POPC   C3B33165   4.691   1.878   7.860
 2303POPC   C4B33166   4.657   2.059   7.414
 2304POPC   NC333167  22.866  27.327   9.528
 2304POPC   PO433168  23.198  26.801   9.745
 2304POPC   GL133169  23.120  26.960   9.258
 2304POPC   GL233170  23.108  27.291   9.068
 2304POPC   C1A33171  23.106  26.856   8.786
 2304POPC   D2A33172  22.839  26.713   8.419
 2304POPC   C3A33173  23.066  26.681   8.033
 2304POPC   C4A33174  23.064  26.488   7.612
 2304POPC   C1B33175  23.337  27.296   8.688
 2304POPC   C2B33176  23.378  27.033   8.332
 2304POPC   C3B33177  23.269  27.144   7.930
 2304POPC   C4B33178  23.081  26.995   7.578
 2305POPC   NC333179   2.210  20.256   9.418
 2305POPC   PO433180   1.930  20.967   9.457
 2305POPC   GL133181   2.069  20.693   9.163
 2305POPC   GL233182   1.778  20.468   9.176
 2305POPC   C1A33183   2.294  20.563   8.790
 2305POPC   D2A33184   2.187  20.329   8.442
 2305POPC   C3A33185   2.234  20.495   8.035
 2305POPC   C4A33186   2.218  20.829   7.793
 2305POPC   C1B33187   1.886  20.170   8.841
 2305POPC   C2B33188   1.735  20.017   8.463
 2305POPC   C3B33189   1.806  20.212   8.063
 2305POPC   C4B33190   1.745  20.569   7.774
 2306POPC   NC333191  24.971  25.057   9.442
 2306POPC   PO433192  24.270  25.101   9.550
 2306POPC   GL133193  24.455  25.430   9.229
 2306POPC   GL233194  24.195  25.383   8.982
 2306POPC   C1A33195  24.651  25.466   8.781
 2306POPC   D2A33196  24.751  25.264   8.363
 2306POPC   C3A33197  24.651  25.413   7.949
 2306POPC   C4A33198  24.830  25.411   7.550
 2306POPC   C1B33199  24.280  25.125   8.599
 2306POPC   C2B33200  24.281  25.080   8.148
 2306POPC   C3B33201  23.969  25.073   7.807
 2306POPC   C4B33202  23.922  24.986   7.325
 2307POPC   NC333203  37.464  34.021   9.498
 2307POPC   PO433204  38.098  33.703   9.425
 2307POPC   GL133205  37.952  33.959   9.123
 2307POPC   GL233206  37.594  33.893   9.035
 2307POPC   C1A33207  37.962  33.747   8.724
 2307POPC   D2A33208  37.633  33.816   8.447
 2307POPC   C3A33209  37.598  34.111   8.110
 2307POPC   C4A33210  37.733  33.970   7.705
 2307POPC   C1B33211  37.310  34.104   8.766
 2307POPC   C2B33212  37.140  33.965   8.374
 2307POPC   C3B33213  37.317  33.679   8.066
 2307POPC   C4B33214  37.411  33.559   7.687
 2308POPC   NC333215  27.025  28.871   9.249
 2308POPC   PO433216  27.102  29.494   9.410
 2308POPC   GL133217  26.911  29.320   9.056
 2308POPC   GL233218  26.561  29.234   9.186
 2308POPC   C1A33219  27.024  29.191   8.652
 2308POPC   D2A33220  27.260  29.005   8.308
 2308POPC   C3A33221  26.970  28.999   7.961
 2308POPC   C4A33222  26.970  29.264   7.608
 2308POPC   C1B33223  26.413  29.447   8.801
 2308POPC   C2B33224  26.338  29.367   8.351
 2308POPC   C3B33225  26.604  29.395   7.976
 2308POPC   C4B33226  26.478  29.295   7.541
 2309POPC   NC333227  17.325  29.514   9.658
 2309POPC   PO433228  17.817  29.050   9.465
 2309POPC   GL133229  17.521  29.309   9.200
 2309POPC   GL233230  17.662  29.098   8.941
 2309POPC   C1A33231  17.245  29.348   8.807
 2309POPC   D2A33232  17.379  29.104   8.428
 2309POPC   C3A33233  17.707  29.144   8.093
 2309POPC   C4A33234  17.669  29.440   7.744
 2309POPC   C1B33235  17.316  28.803   8.828
 2309POPC   C2B33236  17.236  28.616   8.437
 2309POPC   C3B33237  17.352  28.767   8.028
 2309POPC   C4B33238  17.450  28.971   7.655
 2310POPC   NC333239  35.619  28.259   9.445
 2310POPC   PO433240  35.072  28.648   9.540
 2310POPC   GL133241  35.192  28.443   9.164
 2310POPC   GL233242  35.198  28.104   9.147
 2310POPC   C1A33243  35.302  28.475   8.729
 2310POPC   D2A33244  35.548  28.519   8.387
 2310POPC   C3A33245  35.478  28.263   8.030
 2310POPC   C4A33246  35.393  28.459   7.661
 2310POPC   C1B33247  35.270  27.973   8.750
 2310POPC   C2B33248  35.117  28.144   8.377
 2310POPC   C3B33249  34.993  28.057   7.965
 2310POPC   C4B33250  35.012  28.141   7.521
 2311POPC   NC333251  22.553  34.587   9.398
 2311POPC   PO433252  23.289  34.557   9.403
 2311POPC   GL133253  23.001  34.611   9.107
 2311POPC   GL233254  23.062  34.225   9.053
 2311POPC   C1A33255  22.980  34.800   8.674
 2311POPC   D2A33256  23.171  34.743   8.268
 2311POPC   C3A33257  22.961  34.799   7.946
 2311POPC   C4A33258  22.925  34.409   7.704
 2311POPC   C1B33259  22.763  34.362   8.755
 2311POPC   C2B33260  22.719  34.468   8.309
 2311POPC   C3B33261  22.494  34.604   7.925
 2311POPC   C4B33262  22.654  34.841   7.553
 2312POPC   NC333263   7.132  34.138   9.506
 2312POPC   PO433264   7.561  33.597   9.495
 2312POPC   GL133265   7.360  33.647   9.126
 2312POPC   GL233266   7.700  33.688   9.024
 2312POPC   C1A33267   7.273  33.885   8.758
 2312POPC   D2A33268   7.409  34.072   8.346
 2312POPC   C3A33269   7.270  33.835   7.962
 2312POPC   C4A33270   7.078  33.639   7.574
 2312POPC   C1B33271   7.792  33.785   8.642
 2312POPC   C2B33272   7.667  33.634   8.264
 2312POPC   C3B33273   7.775  33.797   7.899
 2312POPC   C4B33274   7.697  33.764   7.494
 2313POPC   NC333275  14.837  26.846   9.505
 2313POPC   PO433276  15.515  26.836   9.472
 2313POPC   GL133277  15.269  26.676   9.146
 2313POPC   GL233278  15.471  26.361   9.109
 2313POPC   C1A33279  15.059  26.865   8.769
 2313POPC   D2A33280  15.293  27.023   8.392
 2313POPC   C3A33281  15.120  26.934   7.997
 2313POPC   C4A33282  14.901  26.842   7.634
 2313POPC   C1B33283  15.537  26.587   8.701
 2313POPC   C2B33284  15.656  26.629   8.255
 2313POPC   C3B33285  15.634  26.939   7.915
 2313POPC   C4B33286  15.443  26.834   7.510
 2314POPC   NC333287   6.363  35.586   9.652
 2314POPC   PO433288   5.785  35.424   9.436
 2314POPC   GL133289   5.919  35.458   9.063
 2314POPC   GL233290   6.182  35.259   9.135
 2314POPC   C1A33291   5.841  35.381   8.651
 2314POPC   D2A33292   5.501  35.406   8.369
 2314POPC   C3A33293   5.711  35.527   7.979
 2314POPC   C4A33294   6.104  35.416   7.775
 2314POPC   C1B33295   6.024  34.969   8.874
 2314POPC   C2B33296   6.025  34.894   8.469
 2314POPC   C3B33297   5.831  35.052   8.128
 2314POPC   C4B33298   5.914  34.948   7.710
 2315POPC   NC333299   1.918   4.119   9.387
 2315POPC   PO433300   2.034   4.719   9.574
 2315POPC   GL133301   1.882   4.572   9.150
 2315POPC   GL233302   2.107   4.381   8.998
 2315POPC   C1A33303   1.843   4.644   8.679
 2315POPC   D2A33304   1.754   4.477   8.267
 2315POPC   C3A33305   2.024   4.367   7.936
 2315POPC   C4A33306   1.684   4.541   7.718
 2315POPC   C1B33307   2.007   4.077   8.708
 2315POPC   C2B33308   1.917   3.989   8.311
 2315POPC   C3B33309   1.689   3.996   7.949
 2315POPC   C4B33310   1.902   4.035   7.543
 2316POPC   NC333311  16.932  32.398   9.541
 2316POPC   PO433312  16.427  31.911   9.383
 2316POPC   GL133313  16.765  32.074   9.152
 2316POPC   GL233314  16.710  32.426   9.061
 2316POPC   C1A33315  16.765  32.004   8.718
 2316POPC   D2A33316  16.739  32.286   8.417
 2316POPC   C3A33317  16.499  32.253   8.110
 2316POPC   C4A33318  16.550  32.451   7.752
 2316POPC   C1B33319  16.738  32.701   8.697
 2316POPC   C2B33320  17.081  32.667   8.394
 2316POPC   C3B33321  17.028  32.441   8.017
 2316POPC   C4B33322  17.018  32.695   7.703
 2317POPC   NC333323  38.127  31.262   9.453
 2317POPC   PO433324  37.538  31.559   9.581
 2317POPC   GL133325  37.699  31.505   9.181
 2317POPC   GL233326  37.439  31.339   8.991
 2317POPC   C1A33327  37.755  31.670   8.751
 2317POPC   D2A33328  37.535  31.492   8.428
 2317POPC   C3A33329  37.793  31.406   8.092
 2317POPC   C4A33330  37.582  31.395   7.696
 2317POPC   C1B33331  37.860  31.183   8.808
 2317POPC   C2B33332  38.021  30.925   8.474
 2317POPC   C3B33333  38.138  30.993   8.063
 2317POPC   C4B33334  37.951  31.029   7.678
 2318POPC   NC333335   1.688   8.700   9.536
 2318POPC   PO433336   2.115   8.244   9.389
 2318POPC   GL133337   1.867   8.199   9.078
 2318POPC   GL233338   1.557   8.033   9.198
 2318POPC   C1A33339   1.957   8.153   8.653
 2318POPC   D2A33340   1.796   8.349   8.284
 2318POPC   C3A33341   2.041   8.494   7.923
 2318POPC   C4A33342   2.001   8.258   7.537
 2318POPC   C1B33343   1.658   7.779   8.822
 2318POPC   C2B33344   1.786   7.782   8.372
 2318POPC   C3B33345   1.625   7.932   7.959
 2318POPC   C4B33346   1.589   7.949   7.487
 2319POPC   NC333347  41.482   0.739   9.372
 2319POPC   PO433348  41.636   1.397   9.440
 2319POPC   GL133349  41.549   1.185   9.087
 2319POPC   GL233350  41.346   1.443   8.992
 2319POPC   C1A33351  41.720   1.062   8.690
 2319POPC   D2A33352  41.541   0.953   8.319
 2319POPC   C3A33353  41.767   0.973   7.939
 2319POPC   C4A33354  41.881   1.334   7.731
 2319POPC   C1B33355  41.246   1.267   8.646
 2319POPC   C2B33356  41.222   1.378   8.269
 2319POPC   C3B33357  41.303   1.167   7.928
 2319POPC   C4B33358  41.363   1.274   7.508
 2320POPC   NC333359   8.213  31.158   9.361
 2320POPC   PO433360   8.486  31.786   9.255
 2320POPC   GL133361   8.294  31.532   8.985
 2320POPC   GL233362   8.513  31.249   8.983
 2320POPC   C1A33363   7.945  31.551   8.710
 2320POPC   D2A33364   7.800  31.558   8.269
 2320POPC   C3A33365   8.028  31.269   7.995
 2320POPC   C4A33366   8.019  31.252   7.546
 2320POPC   C1B33367   8.333  31.195   8.598
 2320POPC   C2B33368   8.304  31.546   8.358
 2320POPC   C3B33369   8.453  31.632   8.012
 2320POPC   C4B33370   8.492  31.279   7.746
 2321POPC   NC333371  32.990   5.807   9.706
 2321POPC   PO433372  32.510   6.238   9.508
 2321POPC   GL133373  32.830   6.009   9.206
 2321POPC   GL233374  33.101   5.738   9.205
 2321POPC   C1A33375  32.704   5.740   8.815
 2321POPC   D2A33376  32.907   5.833   8.403
 2321POPC   C3A33377  32.845   5.758   7.950
 2321POPC   C4A33378  33.147   5.998   7.684
 2321POPC   C1B33379  33.183   5.583   8.780
 2321POPC   C2B33380  33.290   5.447   8.345
 2321POPC   C3B33381  33.338   5.563   7.904
 2321POPC   C4B33382  33.168   5.542   7.466
 2322POPC   NC333383  43.949  21.776   9.441
 2322POPC   PO433384  43.619  21.164   9.497
 2322POPC   GL133385  43.782  21.364   9.155
 2322POPC   GL233386  44.114  21.272   9.205
 2322POPC   C1A33387  43.657  21.290   8.720
 2322POPC   D2A33388  43.449  21.115   8.379
 2322POPC   C3A33389  43.700  21.190   8.059
 2322POPC   C4A33390  43.787  21.389   7.715
 2322POPC   C1B33391  44.150  21.509   8.838
 2322POPC   C2B33392  44.318  21.506   8.450
 2322POPC   C3B33393  44.166  21.520   8.051
 2322POPC   C4B33394  44.414  21.573   7.716
 2323POPC   NC333395  11.542   4.855   9.564
 2323POPC   PO433396  10.992   5.374   9.547
 2323POPC   GL133397  11.187   5.117   9.256
 2323POPC   GL233398  11.551   5.205   9.199
 2323POPC   C1A33399  11.209   5.209   8.823
 2323POPC   D2A33400  11.357   5.129   8.425
 2323POPC   C3A33401  11.254   5.432   8.151
 2323POPC   C4A33402  10.959   5.321   7.834
 2323POPC   C1B33403  11.717   5.071   8.810
 2323POPC   C2B33404  11.862   5.191   8.412
 2323POPC   C3B33405  11.739   5.105   8.013
 2323POPC   C4B33406  11.464   5.288   7.709
 2324POPC   NC333407   8.174   9.608   9.449
 2324POPC   PO433408   8.056  10.204   9.669
 2324POPC   GL133409   7.995  10.024   9.178
 2324POPC   GL233410   7.930   9.674   9.018
 2324POPC   C1A33411   8.164   9.980   8.712
 2324POPC   D2A33412   8.471   9.809   8.417
 2324POPC   C3A33413   8.299   9.966   8.046
 2324POPC   C4A33414   7.985  10.155   7.781
 2324POPC   C1B33415   8.266   9.496   8.781
 2324POPC   C2B33416   8.214   9.377   8.347
 2324POPC   C3B33417   8.112   9.497   7.909
 2324POPC   C4B33418   7.988   9.481   7.467
 2325POPC   NC333419   8.830  15.541   9.398
 2325POPC   PO433420   8.755  14.922   9.435
 2325POPC   GL133421   9.032  15.088   9.133
 2325POPC   GL233422   9.377  14.968   9.193
 2325POPC   C1A33423   8.978  15.199   8.704
 2325POPC   D2A33424   8.760  15.121   8.322
 2325POPC   C3A33425   9.030  15.261   8.009
 2325POPC   C4A33426   8.907  15.436   7.602
 2325POPC   C1B33427   9.275  14.772   8.771
 2325POPC   C2B33428   9.319  14.965   8.368
 2325POPC   C3B33429   9.372  14.864   7.945
 2325POPC   C4B33430   9.118  14.981   7.586
 2326POPC   NC333431  10.894  26.153   9.457
 2326POPC   PO433432  10.283  26.382   9.462
 2326POPC   GL133433  10.484  26.089   9.143
 2326POPC   GL233434  10.721  25.777   9.169
 2326POPC   C1A33435  10.337  26.070   8.741
 2326POPC   D2A33436  10.536  26.116   8.347
 2326POPC   C3A33437  10.268  26.042   7.986
 2326POPC   C4A33438  10.325  25.851   7.623
 2326POPC   C1B33439  10.781  25.814   8.739
 2326POPC   C2B33440  10.716  25.647   8.350
 2326POPC   C3B33441  10.715  25.749   7.943
 2326POPC   C4B33442  11.094  25.717   7.727
 2327POPC   NC333443  33.320   8.703   9.451
 2327POPC   PO433444  32.792   8.994   9.751
 2327POPC   GL133445  32.775   8.929   9.257
 2327POPC   GL233446  33.105   9.044   9.133
 2327POPC   C1A33447  32.852   8.751   8.815
 2327POPC   D2A33448  33.047   8.914   8.419
 2327POPC   C3A33449  32.828   8.925   8.002
 2327POPC   C4A33450  32.995   8.958   7.573
 2327POPC   C1B33451  33.325   9.253   8.757
 2327POPC   C2B33452  33.210   9.398   8.329
 2327POPC   C3B33453  33.239   9.237   7.926
 2327POPC   C4B33454  33.211   9.421   7.528
 2328POPC   NC333455  38.813  18.918   9.463
 2328POPC   PO433456  38.242  19.365   9.421
 2328POPC   GL133457  38.574  19.371   9.135
 2328POPC   GL233458  38.575  19.029   9.028
 2328POPC   C1A33459  38.409  19.402   8.740
 2328POPC   D2A33460  38.296  19.119   8.426
 2328POPC   C3A33461  38.386  19.223   8.010
 2328POPC   C4A33462  38.646  18.949   7.729
 2328POPC   C1B33463  38.247  18.750   8.854
 2328POPC   C2B33464  38.163  18.510   8.465
 2328POPC   C3B33465  38.259  18.712   8.076
 2328POPC   C4B33466  38.117  18.912   7.699
 2329POPC   NC333467   7.881   7.859   9.281
 2329POPC   PO433468   8.429   8.196   9.376
 2329POPC   GL133469   8.191   8.249   9.060
 2329POPC   GL233470   8.081   8.595   9.061
 2329POPC   C1A33471   8.223   8.017   8.696
 2329POPC   D2A33472   8.112   8.146   8.331
 2329POPC   C3A33473   8.373   8.093   8.025
 2329POPC   C4A33474   8.160   8.047   7.702
 2329POPC   C1B33475   8.171   8.547   8.645
 2329POPC   C2B33476   7.986   8.730   8.289
 2329POPC   C3B33477   8.022   8.482   7.964
 2329POPC   C4B33478   7.730   8.332   7.717
 2330POPC   NC333479  30.310   0.362   9.572
 2330POPC   PO433480  29.731   0.152   9.884
 2330POPC   GL133481  29.822   0.242   9.341
 2330POPC   GL233482  30.133   0.410   9.120
 2330POPC   C1A33483  29.761   0.261   8.836
 2330POPC   D2A33484  29.900   0.449   8.417
 2330POPC   C3A33485  29.864   0.341   7.962
 2330POPC   C4A33486  29.980   0.631   7.600
 2330POPC   C1B33487  30.298   0.302   8.708
 2330POPC   C2B33488  30.375   0.289   8.230
 2330POPC   C3B33489  30.349   0.283   7.759
 2330POPC   C4B33490  30.103   0.176   7.425
 2331POPC   NC333491   5.961  43.639   9.358
 2331POPC   PO433492   5.669  44.300   9.439
 2331POPC   GL133493   5.816  44.030   9.077
 2331POPC   GL233494   5.564  43.754   9.069
 2331POPC   C1A33495   6.098  43.800   8.723
 2331POPC   D2A33496   5.982  43.461   8.440
 2331POPC   C3A33497   5.848  43.688   8.100
 2331POPC   C4A33498   5.986  43.939   7.777
 2331POPC   C1B33499   5.597  43.820   8.628
 2331POPC   C2B33500   5.546  44.118   8.312
 2331POPC   C3B33501   5.510  44.051   7.890
 2331POPC   C4B33502   5.585  43.695   7.634
 2332POPC   NC333503  34.867   7.644   9.430
 2332POPC   PO433504  34.279   7.311   9.444
 2332POPC   GL133505  34.483   7.369   9.079
 2332POPC   GL233506  34.489   7.723   9.101
 2332POPC   C1A33507  34.534   7.534   8.650
 2332POPC   D2A33508  34.332   7.524   8.296
 2332POPC   C3A33509  34.578   7.220   8.102
 2332POPC   C4A33510  34.458   7.380   7.753
 2332POPC   C1B33511  34.806   7.945   8.810
 2332POPC   C2B33512  34.957   7.744   8.433
 2332POPC   C3B33513  34.787   7.709   8.033
 2332POPC   C4B33514  34.995   7.886   7.686
 2333POPC   NC333515  38.742  39.472   9.626
 2333POPC   PO433516  38.117  39.291   9.619
 2333POPC   GL133517  38.456  39.191   9.275
 2333POPC   GL233518  38.755  39.402   9.135
 2333POPC   C1A33519  38.440  39.106   8.826
 2333POPC   D2A33520  38.250  39.272   8.484
 2333POPC   C3A33521  38.224  39.144   8.094
 2333POPC   C4A33522  38.319  39.009   7.682
 2333POPC   C1B33523  38.917  39.290   8.729
 2333POPC   C2B33524  38.712  39.380   8.339
 2333POPC   C3B33525  38.653  39.351   7.894
 2333POPC   C4B33526  38.640  39.529   7.487
 2334POPC   NC333527   9.242  16.868   9.402
 2334POPC   PO433528   8.603  16.641   9.498
 2334POPC   GL133529   8.876  16.565   9.149
 2334POPC   GL233530   9.195  16.369   9.208
 2334POPC   C1A33531   8.948  16.843   8.790
 2334POPC   D2A33532   9.036  17.017   8.376
 2334POPC   C3A33533   8.773  16.794   8.087
 2334POPC   C4A33534   8.761  16.618   7.682
 2334POPC   C1B33535   9.349  16.508   8.800
 2334POPC   C2B33536   9.108  16.511   8.408
 2334POPC   C3B33537   9.217  16.530   7.994
 2334POPC   C4B33538   9.309  16.601   7.589
 2335POPC   NC333539  28.238   0.239   9.559
 2335POPC   PO433540  28.921   0.274   9.438
 2335POPC   GL133541  28.603   0.449   9.116
 2335POPC   GL233542  28.225   0.493   9.125
 2335POPC   C1A33543  28.475   0.610   8.705
 2335POPC   D2A33544  28.413   0.326   8.396
 2335POPC   C3A33545  28.222   0.431   8.057
 2335POPC   C4A33546  28.365   0.616   7.694
 2335POPC   C1B33547  27.966   0.249   8.839
 2335POPC   C2B33548  27.865   0.272   8.408
 2335POPC   C3B33549  27.850   0.082   7.983
 2335POPC   C4B33550  27.921   0.402   7.667
 2336POPC   NC333551  19.479  13.467   9.398
 2336POPC   PO433552  20.102  13.377   9.350
 2336POPC   GL133553  20.049  13.669   9.013
 2336POPC   GL233554  19.742  13.877   8.976
 2336POPC   C1A33555  19.927  13.536   8.601
 2336POPC   D2A33556  19.726  13.602   8.193
 2336POPC   C3A33557  19.804  13.298   7.882
 2336POPC   C4A33558  19.898  13.202   7.459
 2336POPC   C1B33559  19.774  14.009   8.517
 2336POPC   C2B33560  20.167  13.839   8.261
 2336POPC   C3B33561  20.074  13.768   7.861
 2336POPC   C4B33562  19.648  13.885   7.766
 2337POPC   NC333563  36.515  13.299   9.344
 2337POPC   PO433564  36.822  12.583   9.400
 2337POPC   GL133565  36.911  12.831   9.045
 2337POPC   GL233566  36.674  13.057   8.931
 2337POPC   C1A33567  37.159  12.988   8.700
 2337POPC   D2A33568  36.938  13.006   8.308
 2337POPC   C3A33569  37.005  12.771   7.898
 2337POPC   C4A33570  37.134  12.845   7.456
 2337POPC   C1B33571  36.631  12.672   8.671
 2337POPC   C2B33572  36.596  12.616   8.233
 2337POPC   C3B33573  36.502  12.744   7.838
 2337POPC   C4B33574  36.698  12.564   7.520
 2338POPC   NC333575  37.748  22.158   9.483
 2338POPC   PO433576  37.091  22.148   9.537
 2338POPC   GL133577  37.376  21.941   9.181
 2338POPC   GL233578  37.647  22.173   8.997
 2338POPC   C1A33579  37.531  21.769   8.740
 2338POPC   D2A33580  37.742  21.999   8.399
 2338POPC   C3A33581  37.826  21.921   7.955
 2338POPC   C4A33582  37.603  22.052   7.560
 2338POPC   C1B33583  37.530  22.420   8.630
 2338POPC   C2B33584  37.673  22.512   8.219
 2338POPC   C3B33585  37.812  22.461   7.805
 2338POPC   C4B33586  37.848  22.538   7.371
 2339POPC   NC333587  42.104  30.062   9.584
 2339POPC   PO433588  42.548  29.673   9.441
 2339POPC   GL133589  42.332  29.914   9.143
 2339POPC   GL233590  42.070  29.730   9.056
 2339POPC   C1A33591  42.443  29.934   8.705
 2339POPC   D2A33592  42.651  29.768   8.334
 2339POPC   C3A33593  42.436  29.939   7.977
 2339POPC   C4A33594  42.195  29.719   7.682
 2339POPC   C1B33595  41.954  30.075   8.794
 2339POPC   C2B33596  42.072  30.200   8.336
 2339POPC   C3B33597  41.880  30.062   7.929
 2339POPC   C4B33598  41.850  30.012   7.478
 2340POPC   NC333599  20.464  30.400   9.345
 2340POPC   PO433600  20.467  31.055   9.552
 2340POPC   GL133601  20.666  30.890   9.223
 2340POPC   GL233602  20.356  30.778   9.032
 2340POPC   C1A33603  20.777  30.929   8.811
 2340POPC   D2A33604  20.587  30.622   8.504
 2340POPC   C3A33605  20.760  30.597   8.079
 2340POPC   C4A33606  20.517  30.773   7.717
 2340POPC   C1B33607  20.138  30.437   8.762
 2340POPC   C2B33608  20.231  30.261   8.328
 2340POPC   C3B33609  20.344  30.337   7.900
 2340POPC   C4B33610  20.339  30.413   7.402
 2341POPC   NC333611  20.369  11.394   9.514
 2341POPC   PO433612  21.074  11.283   9.692
 2341POPC   GL133613  20.915  11.443   9.280
 2341POPC   GL233614  20.689  11.222   9.151
 2341POPC   C1A33615  20.897  11.563   8.837
 2341POPC   D2A33616  20.670  11.516   8.429
 2341POPC   C3A33617  20.667  11.106   8.254
 2341POPC   C4A33618  20.839  11.093   7.862
 2341POPC   C1B33619  20.366  11.318   8.840
 2341POPC   C2B33620  20.179  11.198   8.437
 2341POPC   C3B33621  20.229  11.186   7.990
 2341POPC   C4B33622  20.073  11.499   7.709
 2342POPC   NC333623  37.413   1.487   9.449
 2342POPC   PO433624  37.999   1.559   9.747
 2342POPC   GL133625  37.892   1.524   9.234
 2342POPC   GL233626  37.556   1.388   8.997
 2342POPC   C1A33627  37.967   1.517   8.764
 2342POPC   D2A33628  37.952   1.288   8.379
 2342POPC   C3A33629  37.719   1.383   8.006
 2342POPC   C4A33630  37.776   1.024   7.781
 2342POPC   C1B33631  37.621   1.043   8.717
 2342POPC   C2B33632  37.543   0.957   8.284
 2342POPC   C3B33633  37.288   0.999   7.924
 2342POPC   C4B33634  37.363   1.158   7.501
 2343POPC   NC333635  33.333  11.171   9.774
 2343POPC   PO433636  32.778  11.518   9.468
 2343POPC   GL133637  32.871  11.229   9.065
 2343POPC   GL233638  33.038  10.877   8.998
 2343POPC   C1A33639  32.713  11.054   8.645
 2343POPC   D2A33640  32.592  11.215   8.214
 2343POPC   C3A33641  32.953  11.342   7.948
 2343POPC   C4A33642  33.436  11.414   7.871
 2343POPC   C1B33643  33.238  11.173   8.665
 2343POPC   C2B33644  33.513  11.204   8.332
 2343POPC   C3B33645  33.233  10.952   8.102
 2343POPC   C4B33646  33.152  10.766   7.733
 2344POPC   NC333647   4.341  44.519   9.557
 2344POPC   PO433648   4.503   0.184   9.567
 2344POPC   GL133649   4.486  44.834   9.174
 2344POPC   GL233650   4.638  44.501   9.148
 2344POPC   C1A33651   4.302  44.568   8.787
 2344POPC   D2A33652   3.918  44.456   8.554
 2344POPC   C3A33653   4.072  44.436   8.143
 2344POPC   C4A33654   4.161  44.676   7.768
 2344POPC   C1B33655   4.833  44.513   8.758
 2344POPC   C2B33656   4.691  44.387   8.367
 2344POPC   C3B33657   4.570  44.501   7.970
 2344POPC   C4B33658   4.569  44.429   7.509
 2345POPC   NC333659  29.331  30.229   9.670
 2345POPC   PO433660  28.700  29.897   9.430
 2345POPC   GL133661  28.722  29.944   8.984
 2345POPC   GL233662  28.713  30.280   9.065
 2345POPC   C1A33663  29.037  29.806   8.636
 2345POPC   D2A33664  29.012  29.922   8.207
 2345POPC   C3A33665  29.181  29.807   7.802
 2345POPC   C4A33666  29.032  29.742   7.369
 2345POPC   C1B33667  28.964  30.303   8.679
 2345POPC   C2B33668  29.210  30.381   8.282
 2345POPC   C3B33669  29.126  30.316   7.861
 2345POPC   C4B33670  29.197  30.245   7.415
 2346POPC   NC333671  20.580   3.156   9.484
 2346POPC   PO433672  20.322   2.539   9.257
 2346POPC   GL133673  20.386   2.904   9.075
 2346POPC   GL233674  20.730   2.920   9.059
 2346POPC   C1A33675  20.348   3.058   8.713
 2346POPC   D2A33676  20.627   2.878   8.458
 2346POPC   C3A33677  20.472   2.895   8.034
 2346POPC   C4A33678  20.472   2.617   7.671
 2346POPC   C1B33679  20.957   2.584   8.908
 2346POPC   C2B33680  21.012   2.511   8.483
 2346POPC   C3B33681  20.975   2.725   8.103
 2346POPC   C4B33682  21.135   2.626   7.735
 2347POPC   NC333683  16.923   0.525   9.736
 2347POPC   PO433684  17.232   0.838   9.324
 2347POPC   GL133685  16.826   0.614   9.220
 2347POPC   GL233686  16.731   0.275   9.335
 2347POPC   C1A33687  16.625   0.735   8.808
 2347POPC   D2A33688  16.748   0.853   8.377
 2347POPC   C3A33689  16.585   0.636   8.013
 2347POPC   C4A33690  16.578   0.420   7.621
 2347POPC   C1B33691  16.746   0.245   8.875
 2347POPC   C2B33692  16.683   0.338   8.428
 2347POPC   C3B33693  16.679   0.121   8.011
 2347POPC   C4B33694  16.466  44.927   7.625
 2348POPC   NC333695  13.897  44.547   9.478
 2348POPC   PO433696  14.182   0.122   9.625
 2348POPC   GL133697  14.123   0.001   9.224
 2348POPC   GL233698  14.351  44.738   9.201
 2348POPC   C1A33699  14.274   0.069   8.798
 2348POPC   D2A33700  14.335  44.807   8.411
 2348POPC   C3A33701  14.463  44.865   8.008
 2348POPC   C4A33702  14.192  44.837   7.727
 2348POPC   C1B33703  14.140  44.577   8.839
 2348POPC   C2B33704  13.995  44.416   8.433
 2348POPC   C3B33705  14.202  44.410   8.019
 2348POPC   C4B33706  14.599  44.427   7.761
 2349POPC   NC333707  15.833  25.578   9.524
 2349POPC   PO433708  16.052  26.137   9.705
 2349POPC   GL133709  15.930  26.120   9.233
 2349POPC   GL233710  15.961  25.802   9.099
 2349POPC   C1A33711  15.764  26.114   8.772
 2349POPC   D2A33712  15.844  25.922   8.365
 2349POPC   C3A33713  15.635  26.090   8.023
 2349POPC   C4A33714  15.922  26.009   7.731
 2349POPC   C1B33715  16.177  25.713   8.717
 2349POPC   C2B33716  16.442  25.921   8.402
 2349POPC   C3B33717  16.357  25.943   7.995
 2349POPC   C4B33718  16.348  25.548   7.801
 2350POPC   NC333719   7.641   3.875   9.534
 2350POPC   PO433720   7.327   3.234   9.542
 2350POPC   GL133721   7.479   3.477   9.220
 2350POPC   GL233722   7.214   3.712   9.233
 2350POPC   C1A33723   7.588   3.487   8.760
 2350POPC   D2A33724   7.547   3.391   8.313
 2350POPC   C3A33725   7.610   3.739   7.991
 2350POPC   C4A33726   7.540   3.861   7.547
 2350POPC   C1B33727   7.107   3.410   8.874
 2350POPC   C2B33728   6.978   3.394   8.440
 2350POPC   C3B33729   7.135   3.415   8.011
 2350POPC   C4B33730   7.438   3.367   7.672
 2351POPC   NC333731  42.582  44.485   9.418
 2351POPC   PO433732  42.165  44.931   9.725
 2351POPC   GL133733  42.198  44.947   9.268
 2351POPC   GL233734  42.519  44.961   9.148
 2351POPC   C1A33735  41.947  44.938   8.840
 2351POPC   D2A33736  41.992  44.759   8.401
 2351POPC   C3A33737  42.080   0.055   8.047
 2351POPC   C4A33738  42.228   0.010   7.605
 2351POPC   C1B33739  42.457  44.844   8.720
 2351POPC   C2B33740  42.547  44.942   8.273
 2351POPC   C3B33741  42.525  44.682   7.880
 2351POPC   C4B33742  42.590  44.215   7.762
 2352POPC   NC333743   7.161  36.802   9.619
 2352POPC   PO433744   7.598  37.209   9.747
 2352POPC   GL133745   7.263  37.155   9.277
 2352POPC   GL233746   6.939  37.054   9.234
 2352POPC   C1A33747   7.389  36.999   8.821
 2352POPC   D2A33748   7.627  36.844   8.468
 2352POPC   C3A33749   7.513  37.012   8.054
 2352POPC   C4A33750   7.637  36.758   7.698
 2352POPC   C1B33751   6.955  36.762   8.871
 2352POPC   C2B33752   7.085  36.803   8.415
 2352POPC   C3B33753   7.057  36.766   7.945
 2352POPC   C4B33754   7.164  36.822   7.499
 2353POPC   NC333755  23.867   5.738   9.846
 2353POPC   PO433756  23.422   5.991   9.394
 2353POPC   GL133757  23.724   5.802   9.125
 2353POPC   GL233758  23.882   6.148   9.122
 2353POPC   C1A33759  23.596   5.591   8.714
 2353POPC   D2A33760  23.386   5.780   8.346
 2353POPC   C3A33761  23.619   5.760   7.948
 2353POPC   C4A33762  24.011   5.566   7.904
 2353POPC   C1B33763  23.702   6.113   8.704
 2353POPC   C2B33764  23.904   5.951   8.324
 2353POPC   C3B33765  24.003   6.104   7.895
 2353POPC   C4B33766  24.150   6.259   7.477
 2354POPC   NC333767  30.403  34.473   9.526
 2354POPC   PO433768  30.990  34.676   9.501
 2354POPC   GL133769  30.760  34.590   9.159
 2354POPC   GL233770  30.649  34.309   9.110
 2354POPC   C1A33771  30.785  34.618   8.735
 2354POPC   D2A33772  30.639  34.852   8.433
 2354POPC   C3A33773  30.659  34.670   8.062
 2354POPC   C4A33774  30.578  34.741   7.628
 2354POPC   C1B33775  30.431  34.253   8.802
 2354POPC   C2B33776  30.551  34.277   8.387
 2354POPC   C3B33777  30.376  34.195   7.997
 2354POPC   C4B33778  30.301  34.315   7.589
 2355POPC   NC333779  14.949  25.861   9.661
 2355POPC   PO433780  15.418  25.664   9.283
 2355POPC   GL133781  15.095  25.934   9.122
 2355POPC   GL233782  14.996  26.247   9.241
 2355POPC   C1A33783  15.089  25.848   8.704
 2355POPC   D2A33784  15.343  26.064   8.452
 2355POPC   C3A33785  15.103  26.030   8.112
 2355POPC   C4A33786  15.237  25.865   7.747
 2355POPC   C1B33787  15.063  26.350   8.783
 2355POPC   C2B33788  15.136  26.529   8.350
 2355POPC   C3B33789  15.262  26.463   7.903
 2355POPC   C4B33790  14.899  26.294   7.684
 2356POPC   NC333791  17.116  33.154   9.445
 2356POPC   PO433792  16.524  32.712   9.479
 2356POPC   GL133793  16.733  32.944   9.156
 2356POPC   GL233794  17.083  32.795   9.070
 2356POPC   C1A33795  16.540  33.165   8.811
 2356POPC   D2A33796  16.675  33.184   8.405
 2356POPC   C3A33797  16.639  32.810   8.155
 2356POPC   C4A33798  16.588  32.947   7.745
 2356POPC   C1B33799  17.088  33.084   8.708
 2356POPC   C2B33800  17.164  33.262   8.282
 2356POPC   C3B33801  17.047  33.184   7.839
 2356POPC   C4B33802  17.008  33.099   7.381
 2357POPC   NC333803  25.669   0.627   9.622
 2357POPC   PO433804  26.311   0.498   9.521
 2357POPC   GL133805  26.147   0.515   9.103
 2357POPC   GL233806  25.863   0.733   9.168
 2357POPC   C1A33807  26.097   0.265   8.705
 2357POPC   D2A33808  26.043   0.425   8.303
 2357POPC   C3A33809  26.088   0.256   7.928
 2357POPC   C4A33810  26.313   0.461   7.576
 2357POPC   C1B33811  25.656   0.506   8.841
 2357POPC   C2B33812  25.562   0.331   8.451
 2357POPC   C3B33813  25.578   0.401   8.012
 2357POPC   C4B33814  25.809   0.630   7.699
 2358POPC   NC333815  35.108  19.664   9.452
 2358POPC   PO433816  35.718  19.446   9.362
 2358POPC   GL133817  35.488  19.853   9.172
 2358POPC   GL233818  35.197  19.798   8.972
 2358POPC   C1A33819  35.484  20.114   8.754
 2358POPC   D2A33820  35.135  19.916   8.461
 2358POPC   C3A33821  35.082  20.030   7.995
 2358POPC   C4A33822  35.266  19.991   7.553
 2358POPC   C1B33823  35.514  19.588   8.722
 2358POPC   C2B33824  35.454  19.544   8.309
 2358POPC   C3B33825  35.494  19.742   7.935
 2358POPC   C4B33826  35.485  19.526   7.558
 2359POPC   NC333827  30.917  44.397   9.757
 2359POPC   PO433828  30.502  44.888   9.818
 2359POPC   GL133829  30.641  44.637   9.367
 2359POPC   GL233830  30.822  44.389   9.240
 2359POPC   C1A33831  30.574  44.663   8.872
 2359POPC   D2A33832  30.355  44.835   8.499
 2359POPC   C3A33833  30.563  44.826   8.078
 2359POPC   C4A33834  30.986  44.750   7.892
 2359POPC   C1B33835  30.910  44.285   8.781
 2359POPC   C2B33836  30.699  44.452   8.408
 2359POPC   C3B33837  30.691  44.334   7.994
 2359POPC   C4B33838  30.327  44.361   7.717
 2360POPC   NC333839  12.227  29.852   9.482
 2360POPC   PO433840  11.524  29.760   9.502
 2360POPC   GL133841  11.817  29.943   9.174
 2360POPC   GL233842  11.954  29.615   9.084
 2360POPC   C1A33843  11.983  30.246   8.843
 2360POPC   D2A33844  12.108  30.284   8.395
 2360POPC   C3A33845  11.942  30.182   7.957
 2360POPC   C4A33846  11.932  29.852   7.597
 2360POPC   C1B33847  12.267  29.815   8.808
 2360POPC   C2B33848  12.389  29.841   8.388
 2360POPC   C3B33849  12.252  29.727   7.983
 2360POPC   C4B33850  12.464  29.846   7.600
 2361POPC   NC333851  15.703  11.407   9.566
 2361POPC   PO433852  16.254  11.024   9.702
 2361POPC   GL133853  16.108  11.212   9.301
 2361POPC   GL233854  16.131  11.554   9.254
 2361POPC   C1A33855  15.781  11.274   8.945
 2361POPC   D2A33856  15.582  11.489   8.614
 2361POPC   C3A33857  15.584  11.230   8.237
 2361POPC   C4A33858  15.706  11.338   7.801
 2361POPC   C1B33859  16.266  11.415   8.851
 2361POPC   C2B33860  16.075  11.349   8.489
 2361POPC   C3B33861  16.174  11.206   8.113
 2361POPC   C4B33862  16.209  11.380   7.740
 2362POPC   NC333863  33.854  18.456   9.396
 2362POPC   PO433864  33.462  17.960   9.684
 2362POPC   GL133865  33.690  17.974   9.228
 2362POPC   GL233866  34.052  18.075   9.112
 2362POPC   C1A33867  33.658  18.174   8.782
 2362POPC   D2A33868  33.861  18.116   8.388
 2362POPC   C3A33869  33.649  18.172   7.976
 2362POPC   C4A33870  33.830  17.993   7.588
 2362POPC   C1B33871  34.103  18.446   8.774
 2362POPC   C2B33872  33.991  18.612   8.349
 2362POPC   C3B33873  34.127  18.382   7.967
 2362POPC   C4B33874  34.175  18.354   7.497
 2363POPC   NC333875  12.865  16.797   9.546
 2363POPC   PO433876  13.465  16.773   9.457
 2363POPC   GL133877  13.152  16.703   9.117
 2363POPC   GL233878  12.795  16.787   9.033
 2363POPC   C1A33879  13.153  16.639   8.679
 2363POPC   D2A33880  12.985  16.553   8.261
 2363POPC   C3A33881  12.876  16.853   7.953
 2363POPC   C4A33882  12.864  16.729   7.520
 2363POPC   C1B33883  12.612  16.602   8.636
 2363POPC   C2B33884  12.453  16.625   8.206
 2363POPC   C3B33885  12.544  16.452   7.807
 2363POPC   C4B33886  12.465  16.525   7.322
 2364POPC   NC333887  42.018   8.122   9.377
 2364POPC   PO433888  42.679   7.869   9.433
 2364POPC   GL133889  42.411   7.918   9.085
 2364POPC   GL233890  42.381   8.281   9.048
 2364POPC   C1A33891  42.065   7.835   8.790
 2364POPC   D2A33892  41.951   7.901   8.349
 2364POPC   C3A33893  42.284   7.929   8.047
 2364POPC   C4A33894  42.403   8.050   7.602
 2364POPC   C1B33895  42.084   8.336   8.704
 2364POPC   C2B33896  42.184   8.389   8.279
 2364POPC   C3B33897  42.099   8.371   7.851
 2364POPC   C4B33898  42.189   8.552   7.449
 2365POPC   NC333899  32.773  43.517   9.471
 2365POPC   PO433900  33.049  44.077   9.663
 2365POPC   GL133901  32.929  44.161   9.220
 2365POPC   GL233902  32.565  44.164   9.235
 2365POPC   C1A33903  33.077  44.106   8.782
 2365POPC   D2A33904  32.961  43.846   8.419
 2365POPC   C3A33905  33.240  43.785   8.048
 2365POPC   C4A33906  33.239  43.920   7.628
 2365POPC   C1B33907  32.573  43.959   8.818
 2365POPC   C2B33908  32.515  44.108   8.376
 2365POPC   C3B33909  32.503  43.864   7.993
 2365POPC   C4B33910  32.761  43.639   7.686
 2366POPC   NC333911  42.545   8.971   9.427
 2366POPC   PO433912  41.986   8.581   9.328
 2366POPC   GL133913  42.233   8.798   9.060
 2366POPC   GL233914  42.201   9.166   9.095
 2366POPC   C1A33915  42.274   8.809   8.651
 2366POPC   D2A33916  41.947   8.850   8.396
 2366POPC   C3A33917  42.133   8.852   8.039
 2366POPC   C4A33918  42.513   8.657   7.943
 2366POPC   C1B33919  42.308   9.318   8.695
 2366POPC   C2B33920  42.465   9.165   8.315
 2366POPC   C3B33921  42.437   9.218   7.900
 2366POPC   C4B33922  42.085   9.343   7.677
 2367POPC   NC333923  28.622  33.835   9.393
 2367POPC   PO433924  28.052  33.559   9.561
 2367POPC   GL133925  28.146  33.757   9.158
 2367POPC   GL233926  28.390  33.531   9.033
 2367POPC   C1A33927  28.187  34.025   8.771
 2367POPC   D2A33928  27.969  34.097   8.376
 2367POPC   C3A33929  28.056  33.735   8.122
 2367POPC   C4A33930  28.358  33.657   7.802
 2367POPC   C1B33931  28.633  33.743   8.733
 2367POPC   C2B33932  28.632  34.098   8.481
 2367POPC   C3B33933  28.477  34.106   8.071
 2367POPC   C4B33934  28.764  33.977   7.724
 2368POPC   NC333935  30.858   8.534   9.596
 2368POPC   PO433936  31.156   9.182   9.503
 2368POPC   GL133937  31.086   9.027   9.107
 2368POPC   GL233938  30.767   8.827   9.113
 2368POPC   C1A33939  30.975   9.055   8.690
 2368POPC   D2A33940  30.585   9.026   8.460
 2368POPC   C3A33941  30.614   8.969   8.069
 2368POPC   C4A33942  30.816   9.226   7.769
 2368POPC   C1B33943  30.551   8.642   8.775
 2368POPC   C2B33944  30.436   8.520   8.343
 2368POPC   C3B33945  30.445   8.516   7.902
 2368POPC   C4B33946  30.321   8.896   7.668
 2369POPC   NC333947  17.434   5.540   9.553
 2369POPC   PO433948  17.267   6.237   9.529
 2369POPC   GL133949  17.472   5.939   9.221
 2369POPC   GL233950  17.145   5.875   9.153
 2369POPC   C1A33951  17.457   5.734   8.790
 2369POPC   D2A33952  17.669   5.849   8.427
 2369POPC   C3A33953  17.474   5.955   8.067
 2369POPC   C4A33954  17.414   5.700   7.694
 2369POPC   C1B33955  17.078   6.096   8.754
 2369POPC   C2B33956  17.033   6.016   8.322
 2369POPC   C3B33957  16.980   5.912   7.886
 2369POPC   C4B33958  17.109   6.086   7.485
 2370POPC   NC333959   5.526   4.835   9.513
 2370POPC   PO433960   6.084   5.194   9.688
 2370POPC   GL133961   6.039   5.066   9.243
 2370POPC   GL233962   5.793   4.865   9.078
 2370POPC   C1A33963   6.176   5.056   8.798
 2370POPC   D2A33964   6.061   5.304   8.463
 2370POPC   C3A33965   6.047   5.219   8.048
 2370POPC   C4A33966   6.060   5.126   7.645
 2370POPC   C1B33967   5.633   5.016   8.684
 2370POPC   C2B33968   5.794   4.862   8.328
 2370POPC   C3B33969   5.644   4.934   7.957
 2370POPC   C4B33970   5.596   4.930   7.566
 2371POPC   NC333971  18.572  22.956   9.516
 2371POPC   PO433972  17.950  22.656   9.537
 2371POPC   GL133973  18.158  22.900   9.103
 2371POPC   GL233974  18.128  23.257   9.036
 2371POPC   C1A33975  18.304  22.933   8.673
 2371POPC   D2A33976  18.229  22.992   8.256
 2371POPC   C3A33977  18.410  22.832   7.889
 2371POPC   C4A33978  18.097  22.551   7.717
 2371POPC   C1B33979  18.502  23.375   8.815
 2371POPC   C2B33980  18.666  23.226   8.418
 2371POPC   C3B33981  18.498  23.357   8.023
 2371POPC   C4B33982  18.493  23.344   7.584
 2372POPC   NC333983   6.635  13.331   9.345
 2372POPC   PO433984   6.518  13.965   9.281
 2372POPC   GL133985   6.701  13.698   8.990
 2372POPC   GL233986   7.022  13.609   9.173
 2372POPC   C1A33987   6.644  13.473   8.609
 2372POPC   D2A33988   6.689  13.532   8.188
 2372POPC   C3A33989   6.408  13.424   7.924
 2372POPC   C4A33990   6.323  13.732   7.654
 2372POPC   C1B33991   7.068  13.307   8.832
 2372POPC   C2B33992   7.068  13.253   8.380
 2372POPC   C3B33993   7.131  13.384   7.960
 2372POPC   C4B33994   6.827  13.575   7.693
 2373POPC   NC333995   3.311  33.085   9.704
 2373POPC   PO433996   3.887  32.802   9.504
 2373POPC   GL133997   3.706  33.044   9.166
 2373POPC   GL233998   3.386  33.109   9.212
 2373POPC   C1A33999   3.901  33.092   8.774
 2373POPC   D2A34000   3.768  33.130   8.369
 2373POPC   C3A34001   3.666  32.949   7.962
 2373POPC   C4A34002   3.796  33.188   7.606
 2373POPC   C1B34003   3.312  32.833   8.887
 2373POPC   C2B34004   3.306  32.916   8.459
 2373POPC   C3B34005   3.321  33.275   8.168
 2373POPC   C4B34006   3.275  33.226   7.721
 2374POPC   NC334007  17.110  13.418   9.638
 2374POPC   PO434008  16.580  13.587   9.294
 2374POPC   GL134009  16.727  13.426   9.025
 2374POPC   GL234010  16.534  13.126   9.061
 2374POPC   C1A34011  16.701  13.638   8.631
 2374POPC   D2A34012  16.604  13.819   8.247
 2374POPC   C3A34013  16.754  13.593   7.900
 2374POPC   C4A34014  17.081  13.456   7.598
 2374POPC   C1B34015  16.725  13.133   8.634
 2374POPC   C2B34016  16.725  13.207   8.242
 2374POPC   C3B34017  16.792  13.096   7.825
 2374POPC   C4B34018  16.603  13.365   7.470
 2375POPC   NC334019   1.001   7.984   9.411
 2375POPC   PO434020   1.222   8.669   9.535
 2375POPC   GL134021   1.399   8.541   9.132
 2375POPC   GL234022   1.117   8.608   8.941
 2375POPC   C1A34023   1.462   8.269   8.766
 2375POPC   D2A34024   1.366   8.099   8.373
 2375POPC   C3A34025   1.378   8.365   7.979
 2375POPC   C4A34026   1.125   8.050   7.809
 2375POPC   C1B34027   0.933   8.327   8.656
 2375POPC   C2B34028   0.940   8.331   8.225
 2375POPC   C3B34029   0.842   8.495   7.815
 2375POPC   C4B34030   0.857   8.667   7.384
 2376POPC   NC334031  44.944   3.024   9.636
 2376POPC   PO434032  44.402   2.584   9.512
 2376POPC   GL134033  44.507   2.831   9.134
 2376POPC   GL234034  44.822   2.927   9.158
 2376POPC   C1A34035  44.375   2.797   8.696
 2376POPC   D2A34036  44.494   2.450   8.402
 2376POPC   C3A34037  44.713   2.492   7.985
 2376POPC   C4A34038  44.641   2.892   7.706
 2376POPC   C1B34039  44.891   2.754   8.741
 2376POPC   C2B34040  44.873   2.846   8.301
 2376POPC   C3B34041   0.107   2.798   7.872
 2376POPC   C4B34042   0.051   2.913   7.365
 2377POPC   NC334043  37.019  42.417   9.683
 2377POPC   PO434044  36.416  42.369   9.430
 2377POPC   GL134045  36.778  42.510   9.227
 2377POPC   GL234046  36.909  42.179   9.215
 2377POPC   C1A34047  36.983  42.525   8.794
 2377POPC   D2A34048  36.838  42.585   8.366
 2377POPC   C3A34049  37.072  42.443   8.011
 2377POPC   C4A34050  36.840  42.348   7.653
 2377POPC   C1B34051  37.078  42.024   8.795
 2377POPC   C2B34052  36.995  42.053   8.324
 2377POPC   C3B34053  37.065  41.925   7.859
 2377POPC   C4B34054  36.954  41.910   7.393
 2378POPC   NC334055  29.287  35.274   9.440
 2378POPC   PO434056  29.034  35.791   9.507
 2378POPC   GL134057  28.942  35.497   9.117
 2378POPC   GL234058  28.955  35.102   9.091
 2378POPC   C1A34059  28.833  35.353   8.656
 2378POPC   D2A34060  28.750  35.303   8.198
 2378POPC   C3A34061  29.006  35.573   7.977
 2378POPC   C4A34062  29.378  35.653   7.739
 2378POPC   C1B34063  29.316  35.286   8.792
 2378POPC   C2B34064  29.368  35.431   8.358
 2378POPC   C3B34065  29.409  35.196   7.992
 2378POPC   C4B34066  29.048  35.096   7.824
 2379POPC   NC334067  34.038   8.793   9.488
 2379POPC   PO434068  33.479   9.204   9.471
 2379POPC   GL134069  33.605   8.933   9.079
 2379POPC   GL234070  33.819   8.660   9.043
 2379POPC   C1A34071  33.535   8.789   8.626
 2379POPC   D2A34072  33.560   9.000   8.236
 2379POPC   C3A34073  33.543   8.822   7.809
 2379POPC   C4A34074  33.684   9.041   7.446
 2379POPC   C1B34075  34.036   8.902   8.722
 2379POPC   C2B34076  34.095   9.098   8.315
 2379POPC   C3B34077  33.999   9.039   7.890
 2379POPC   C4B34078  34.220   8.865   7.532
 2380POPC   NC334079  10.989  16.222   9.376
 2380POPC   PO434080  11.265  16.837   9.692
 2380POPC   GL134081  11.218  16.713   9.244
 2380POPC   GL234082  11.485  16.499   9.100
 2380POPC   C1A34083  11.234  16.869   8.795
 2380POPC   D2A34084  11.214  17.108   8.368
 2380POPC   C3A34085  11.314  16.888   7.980
 2380POPC   C4A34086  11.134  16.496   7.854
 2380POPC   C1B34087  11.638  16.533   8.695
 2380POPC   C2B34088  11.472  16.470   8.279
 2380POPC   C3B34089  11.626  16.434   7.864
 2380POPC   C4B34090  11.452  16.334   7.448
 2381POPC   NC334091  42.838  41.092   9.802
 2381POPC   PO434092  42.186  41.022   9.491
 2381POPC   GL134093  41.980  40.901   9.135
 2381POPC   GL234094  42.225  41.074   8.956
 2381POPC   C1A34095  41.977  40.714   8.701
 2381POPC   D2A34096  42.207  40.769   8.307
 2381POPC   C3A34097  42.063  40.673   7.881
 2381POPC   C4A34098  42.437  40.517   7.644
 2381POPC   C1B34099  42.556  40.935   8.663
 2381POPC   C2B34100  42.770  40.970   8.253
 2381POPC   C3B34101  42.452  40.991   7.917
 2381POPC   C4B34102  42.309  41.190   7.564
 2382POPC   NC334103  29.416  11.629   9.852
 2382POPC   PO434104  29.926  11.274   9.498
 2382POPC   GL134105  29.981  11.223   9.053
 2382POPC   GL234106  29.660  11.105   8.839
 2382POPC   C1A34107  29.928  11.474   8.676
 2382POPC   D2A34108  29.695  11.292   8.360
 2382POPC   C3A34109  29.845  11.269   7.988
 2382POPC   C4A34110  29.920  11.462   7.615
 2382POPC   C1B34111  30.054  10.968   8.615
 2382POPC   C2B34112  30.099  10.836   8.189
 2382POPC   C3B34113  30.008  10.854   7.738
 2382POPC   C4B34114  30.145  11.057   7.370
 2383POPC   NC334115  12.192   3.905   9.674
 2383POPC   PO434116  11.837   4.453   9.512
 2383POPC   GL134117  12.101   4.198   9.229
 2383POPC   GL234118  11.868   3.988   9.040
 2383POPC   C1A34119  12.234   4.257   8.785
 2383POPC   D2A34120  12.027   4.329   8.388
 2383POPC   C3A34121  12.137   4.411   7.972
 2383POPC   C4A34122  11.817   4.156   7.755
 2383POPC   C1B34123  11.735   4.383   8.818
 2383POPC   C2B34124  11.678   4.692   8.469
 2383POPC   C3B34125  11.668   4.585   8.038
 2383POPC   C4B34126  11.528   4.772   7.672
 2384POPC   NC334127  34.440  16.374   9.290
 2384POPC   PO434128  34.637  15.746   9.551
 2384POPC   GL134129  34.777  15.837   9.144
 2384POPC   GL234130  34.897  16.149   9.180
 2384POPC   C1A34131  34.626  15.989   8.741
 2384POPC   D2A34132  34.372  15.988   8.378
 2384POPC   C3A34133  34.582  15.878   7.984
 2384POPC   C4A34134  34.325  15.728   7.648
 2384POPC   C1B34135  35.043  16.283   8.749
 2384POPC   C2B34136  35.027  16.197   8.296
 2384POPC   C3B34137  34.978  16.200   7.825
 2384POPC   C4B34138  34.704  16.048   7.492
 2385POPC   NC334139   2.462   4.718   9.372
 2385POPC   PO434140   2.360   4.066   9.284
 2385POPC   GL134141   2.615   4.317   9.063
 2385POPC   GL234142   2.921   4.476   9.204
 2385POPC   C1A34143   2.496   4.393   8.652
 2385POPC   D2A34144   2.751   4.407   8.311
 2385POPC   C3A34145   2.542   4.393   7.914
 2385POPC   C4A34146   2.606   4.671   7.561
 2385POPC   C1B34147   3.237   4.611   8.861
 2385POPC   C2B34148   3.160   4.730   8.402
 2385POPC   C3B34149   2.992   4.675   7.960
 2385POPC   C4B34150   3.143   4.614   7.539
 2386POPC   NC334151   3.944   4.218   9.546
 2386POPC   PO434152   4.555   4.094   9.660
 2386POPC   GL134153   4.384   4.256   9.216
 2386POPC   GL234154   4.042   4.346   9.085
 2386POPC   C1A34155   4.454   4.440   8.769
 2386POPC   D2A34156   4.538   4.298   8.342
 2386POPC   C3A34157   4.461   4.460   7.939
 2386POPC   C4A34158   4.560   4.055   7.768
 2386POPC   C1B34159   4.111   4.039   8.807
 2386POPC   C2B34160   4.049   4.248   8.449
 2386POPC   C3B34161   3.855   4.197   8.093
 2386POPC   C4B34162   4.027   4.244   7.712
 2387POPC   NC334163  27.981  31.621   9.563
 2387POPC   PO434164  28.492  31.201   9.584
 2387POPC   GL134165  28.368  31.441   9.252
 2387POPC   GL234166  28.053  31.329   9.158
 2387POPC   C1A34167  28.369  31.671   8.881
 2387POPC   D2A34168  28.393  31.482   8.495
 2387POPC   C3A34169  28.167  31.616   8.155
 2387POPC   C4A34170  28.337  31.842   7.812
 2387POPC   C1B34171  28.146  31.135   8.807
 2387POPC   C2B34172  27.990  31.124   8.393
 2387POPC   C3B34173  28.143  31.056   7.984
 2387POPC   C4B34174  28.325  31.339   7.706
 2388POPC   NC334175  31.858   6.605   9.781
 2388POPC   PO434176  32.407   6.943   9.500
 2388POPC   GL134177  32.360   6.882   9.115
 2388POPC   GL234178  32.108   6.650   9.148
 2388POPC   C1A34179  32.145   6.976   8.751
 2388POPC   D2A34180  32.136   6.728   8.408
 2388POPC   C3A34181  32.037   6.966   8.103
 2388POPC   C4A34182  32.066   6.983   7.674
 2388POPC   C1B34183  32.007   6.397   8.779
 2388POPC   C2B34184  31.876   6.290   8.364
 2388POPC   C3B34185  32.060   6.402   7.977
 2388POPC   C4B34186  31.873   6.246   7.605
 2389POPC   NC334187  26.922  41.997   9.381
 2389POPC   PO434188  26.954  41.364   9.353
 2389POPC   GL134189  26.797  41.658   9.018
 2389POPC   GL234190  27.081  41.874   8.914
 2389POPC   C1A34191  26.686  41.844   8.599
 2389POPC   D2A34192  26.982  41.897   8.255
 2389POPC   C3A34193  26.945  41.714   7.840
 2389POPC   C4A34194  26.612  41.844   7.559
 2389POPC   C1B34195  27.104  41.548   8.619
 2389POPC   C2B34196  26.817  41.406   8.299
 2389POPC   C3B34197  26.949  41.205   7.936
 2389POPC   C4B34198  27.281  41.320   7.651
 2390POPC   NC334199  37.386   8.017   9.471
 2390POPC   PO434200  37.861   8.536   9.473
 2390POPC   GL134201  37.749   8.386   9.120
 2390POPC   GL234202  37.784   8.063   9.130
 2390POPC   C1A34203  37.676   8.408   8.701
 2390POPC   D2A34204  37.860   8.304   8.320
 2390POPC   C3A34205  37.596   8.338   7.978
 2390POPC   C4A34206  37.411   8.303   7.553
 2390POPC   C1B34207  37.891   7.875   8.737
 2390POPC   C2B34208  38.139   7.899   8.374
 2390POPC   C3B34209  37.908   7.897   7.997
 2390POPC   C4B34210  37.887   8.108   7.623
 2391POPC   NC334211   1.457  20.881   9.418
 2391POPC   PO434212   1.063  20.377   9.538
 2391POPC   GL134213   0.940  20.684   9.235
 2391POPC   GL234214   1.238  20.572   9.063
 2391POPC   C1A34215   0.866  20.800   8.795
 2391POPC   D2A34216   1.134  20.741   8.433
 2391POPC   C3A34217   1.010  20.617   8.042
 2391POPC   C4A34218   1.254  20.723   7.689
 2391POPC   C1B34219   1.397  20.370   8.706
 2391POPC   C2B34220   1.322  20.252   8.290
 2391POPC   C3B34221   1.341  20.248   7.882
 2391POPC   C4B34222   1.380  20.275   7.483
 2392POPC   NC334223   6.626  21.342   9.468
 2392POPC   PO434224   7.236  21.712   9.474
 2392POPC   GL134225   6.985  21.572   9.115
 2392POPC   GL234226   6.630  21.717   9.121
 2392POPC   C1A34227   6.888  21.194   8.848
 2392POPC   D2A34228   6.998  20.851   8.550
 2392POPC   C3A34229   6.890  20.962   8.121
 2392POPC   C4A34230   7.018  21.039   7.662
 2392POPC   C1B34231   6.591  21.594   8.701
 2392POPC   C2B34232   6.543  21.435   8.296
 2392POPC   C3B34233   6.385  21.594   7.919
 2392POPC   C4B34234   6.587  21.592   7.574
 2393POPC   NC334235  13.744  41.388   9.583
 2393POPC   PO434236  13.256  41.684   9.424
 2393POPC   GL134237  13.503  41.792   9.061
 2393POPC   GL234238  13.774  41.541   9.090
 2393POPC   C1A34239  13.530  41.870   8.587
 2393POPC   D2A34240  13.538  41.541   8.242
 2393POPC   C3A34241  13.404  41.591   7.834
 2393POPC   C4A34242  13.663  41.441   7.479
 2393POPC   C1B34243  13.984  41.795   8.789
 2393POPC   C2B34244  14.000  41.769   8.321
 2393POPC   C3B34245  13.895  41.732   7.869
 2393POPC   C4B34246  13.877  41.900   7.444
 2394POPC   NC334247   5.677   9.034   9.450
 2394POPC   PO434248   6.256   8.701   9.473
 2394POPC   GL134249   6.037   8.809   9.135
 2394POPC   GL234250   6.077   9.146   9.144
 2394POPC   C1A34251   5.840   8.904   8.761
 2394POPC   D2A34252   5.688   8.725   8.401
 2394POPC   C3A34253   5.692   8.932   8.007
 2394POPC   C4A34254   5.996   8.809   7.714
 2394POPC   C1B34255   5.938   9.403   8.810
 2394POPC   C2B34256   5.766   9.268   8.413
 2394POPC   C3B34257   5.906   9.454   8.062
 2394POPC   C4B34258   5.875   9.329   7.688
 2395POPC   NC334259   7.799  39.684   9.451
 2395POPC   PO434260   7.363  40.101   9.590
 2395POPC   GL134261   7.301  40.149   9.142
 2395POPC   GL234262   7.652  40.104   9.152
 2395POPC   C1A34263   7.243  40.055   8.674
 2395POPC   D2A34264   7.220  39.813   8.274
 2395POPC   C3A34265   7.220  39.943   7.842
 2395POPC   C4A34266   7.465  40.232   7.619
 2395POPC   C1B34267   7.705  39.844   8.803
 2395POPC   C2B34268   7.751  40.072   8.429
 2395POPC   C3B34269   7.710  40.013   8.017
 2395POPC   C4B34270   7.934  39.758   7.759
 2396POPC   NC334271  20.340  34.206   9.671
 2396POPC   PO434272  20.712  34.752   9.484
 2396POPC   GL134273  20.652  34.396   9.229
 2396POPC   GL234274  20.529  34.632   9.012
 2396POPC   C1A34275  20.757  34.220   8.821
 2396POPC   D2A34276  20.768  34.420   8.420
 2396POPC   C3A34277  20.896  34.344   8.009
 2396POPC   C4A34278  20.674  34.636   7.739
 2396POPC   C1B34279  20.493  34.844   8.625
 2396POPC   C2B34280  20.539  34.838   8.190
 2396POPC   C3B34281  20.416  35.081   7.847
 2396POPC   C4B34282  20.379  34.906   7.417
 2397POPC   NC334283  32.995  16.919   9.287
 2397POPC   PO434284  32.450  17.073   9.705
 2397POPC   GL134285  32.333  16.893   9.272
 2397POPC   GL234286  32.139  16.589   9.144
 2397POPC   C1A34287  32.391  16.891   8.810
 2397POPC   D2A34288  32.196  16.963   8.419
 2397POPC   C3A34289  32.373  16.796   8.044
 2397POPC   C4A34290  32.492  16.764   7.622
 2397POPC   C1B34291  32.046  16.341   8.805
 2397POPC   C2B34292  32.186  16.452   8.392
 2397POPC   C3B34293  32.053  16.298   7.980
 2397POPC   C4B34294  32.235  16.329   7.529
 2398POPC   NC334295  12.115  37.152   9.723
 2398POPC   PO434296  11.892  37.785   9.644
 2398POPC   GL134297  11.894  37.756   9.209
 2398POPC   GL234298  12.239  37.763   9.102
 2398POPC   C1A34299  11.748  37.635   8.794
 2398POPC   D2A34300  11.830  37.428   8.392
 2398POPC   C3A34301  11.676  37.653   8.023
 2398POPC   C4A34302  11.697  37.986   7.738
 2398POPC   C1B34303  12.255  37.627   8.665
 2398POPC   C2B34304  12.359  37.721   8.251
 2398POPC   C3B34305  12.190  37.593   7.905
 2398POPC   C4B34306  12.339  37.380   7.502
 2399POPC   NC334307  14.320  14.810   9.506
 2399POPC   PO434308  14.557  15.479   9.561
 2399POPC   GL134309  14.407  15.318   9.166
 2399POPC   GL234310  14.153  15.083   9.114
 2399POPC   C1A34311  14.273  15.368   8.726
 2399POPC   D2A34312  14.213  15.574   8.356
 2399POPC   C3A34313  14.475  15.348   8.100
 2399POPC   C4A34314  14.667  15.229   7.750
 2399POPC   C1B34315  13.999  14.948   8.701
 2399POPC   C2B34316  14.050  15.102   8.267
 2399POPC   C3B34317  14.049  15.333   7.844
 2399POPC   C4B34318  13.993  15.005   7.559
 2400POPC   NC334319   2.548  17.796   9.620
 2400POPC   PO434320   3.030  17.413   9.620
 2400POPC   GL134321   2.951  17.665   9.242
 2400POPC   GL234322   2.627  17.529   9.181
 2400POPC   C1A34323   2.962  17.563   8.783
 2400POPC   D2A34324   3.132  17.679   8.405
 2400POPC   C3A34325   2.950  17.541   8.028
 2400POPC   C4A34326   2.830  17.709   7.633
 2400POPC   C1B34327   2.503  17.778   8.813
 2400POPC   C2B34328   2.641  17.864   8.372
 2400POPC   C3B34329   2.436  17.893   7.947
 2400POPC   C4B34330   2.365  17.934   7.481
 2401POPC   NC334331  31.340  39.911   9.538
 2401POPC   PO434332  31.705  40.284   9.322
 2401POPC   GL134333  31.355  40.081   9.044
 2401POPC   GL234334  31.386  39.713   9.073
 2401POPC   C1A34335  31.231  39.868   8.619
 2401POPC   D2A34336  31.268  39.778   8.153
 2401POPC   C3A34337  31.215  40.121   7.853
 2401POPC   C4A34338  31.499  40.276   7.519
 2401POPC   C1B34339  31.721  39.874   8.762
 2401POPC   C2B34340  31.829  39.879   8.324
 2401POPC   C3B34341  31.713  39.984   7.913
 2401POPC   C4B34342  31.477  39.716   7.655
 2402POPC   NC334343  17.403  38.671   9.759
 2402POPC   PO434344  17.750  38.607   9.400
 2402POPC   GL134345  17.709  38.235   9.093
 2402POPC   GL234346  17.380  38.099   8.934
 2402POPC   C1A34347  17.783  38.083   8.658
 2402POPC   D2A34348  17.529  38.178   8.285
 2402POPC   C3A34349  17.700  38.260   7.869
 2402POPC   C4A34350  17.603  38.631   7.640
 2402POPC   C1B34351  17.465  38.488   8.699
 2402POPC   C2B34352  17.293  38.712   8.336
 2402POPC   C3B34353  17.152  38.685   7.876
 2402POPC   C4B34354  16.962  38.613   7.431
 2403POPC   NC334355  36.293  21.997   9.461
 2403POPC   PO434356  35.695  21.627   9.590
 2403POPC   GL134357  35.813  21.986   9.254
 2403POPC   GL234358  36.030  21.831   9.081
 2403POPC   C1A34359  36.008  22.330   8.935
 2403POPC   D2A34360  35.943  22.575   8.547
 2403POPC   C3A34361  35.897  22.362   8.143
 2403POPC   C4A34362  35.951  22.496   7.737
 2403POPC   C1B34363  35.827  21.890   8.764
 2403POPC   C2B34364  36.006  21.927   8.387
 2403POPC   C3B34365  36.115  21.883   7.962
 2403POPC   C4B34366  35.972  21.999   7.521
 2404POPC   NC334367  39.947  34.146   9.450
 2404POPC   PO434368  39.637  33.474   9.417
 2404POPC   GL134369  39.706  33.792   9.082
 2404POPC   GL234370  39.931  34.101   8.963
 2404POPC   C1A34371  39.913  33.677   8.703
 2404POPC   D2A34372  40.175  33.448   8.416
 2404POPC   C3A34373  40.171  33.750   8.083
 2404POPC   C4A34374  39.739  33.798   7.933
 2404POPC   C1B34375  39.601  34.180   8.705
 2404POPC   C2B34376  39.546  34.363   8.296
 2404POPC   C3B34377  39.729  34.316   7.877
 2404POPC   C4B34378  40.169  34.418   7.731
 2405POPC   NC334379  41.475  15.421   9.540
 2405POPC   PO434380  41.308  14.709   9.485
 2405POPC   GL134381  41.389  15.057   9.182
 2405POPC   GL234382  41.703  15.094   9.100
 2405POPC   C1A34383  41.407  15.001   8.726
 2405POPC   D2A34384  41.747  14.870   8.440
 2405POPC   C3A34385  41.632  14.940   8.006
 2405POPC   C4A34386  41.396  15.229   7.731
 2405POPC   C1B34387  41.963  15.253   8.761
 2405POPC   C2B34388  42.052  15.282   8.312
 2405POPC   C3B34389  42.002  15.260   7.873
 2405POPC   C4B34390  41.848  15.460   7.527
 2406POPC   NC334391  19.024  10.887   9.642
 2406POPC   PO434392  19.558  10.495   9.545
 2406POPC   GL134393  19.306  10.708   9.231
 2406POPC   GL234394  19.452  10.500   9.026
 2406POPC   C1A34395  18.968  10.692   8.888
 2406POPC   D2A34396  18.864  10.505   8.439
 2406POPC   C3A34397  19.131  10.610   8.073
 2406POPC   C4A34398  19.071  10.732   7.610
 2406POPC   C1B34399  19.342  10.463   8.627
 2406POPC   C2B34400  19.278  10.163   8.347
 2406POPC   C3B34401  19.064  10.090   7.996
 2406POPC   C4B34402  19.212  10.260   7.627
 2407POPC   NC334403  35.824   0.630   9.497
 2407POPC   PO434404  35.189   0.304   9.484
 2407POPC   GL134405  35.453   0.413   9.198
 2407POPC   GL234406  35.405   0.095   9.047
 2407POPC   C1A34407  35.275   0.495   8.794
 2407POPC   D2A34408  35.103   0.517   8.413
 2407POPC   C3A34409  35.370   0.679   8.121
 2407POPC   C4A34410  35.318   0.543   7.709
 2407POPC   C1B34411  35.764   0.277   8.828
 2407POPC   C2B34412  35.666   0.381   8.446
 2407POPC   C3B34413  35.501   0.190   8.076
 2407POPC   C4B34414  35.641   0.163   7.665
 2408POPC   NC334415   4.300  31.842   9.517
 2408POPC   PO434416   4.665  31.276   9.524
 2408POPC   GL134417   4.401  31.222   9.153
 2408POPC   GL234418   4.333  31.552   9.108
 2408POPC   C1A34419   4.315  31.237   8.697
 2408POPC   D2A34420   4.096  31.357   8.319
 2408POPC   C3A34421   4.327  31.443   7.990
 2408POPC   C4A34422   4.442  31.123   7.730
 2408POPC   C1B34423   4.184  31.731   8.747
 2408POPC   C2B34424   4.245  31.839   8.344
 2408POPC   C3B34425   4.019  31.868   7.974
 2408POPC   C4B34426   4.212  31.784   7.609
 2409POPC   NC334427  25.022   4.293   9.760
 2409POPC   PO434428  24.305   4.518   9.665
 2409POPC   GL134429  24.276   4.461   9.222
 2409POPC   GL234430  24.613   4.483   9.071
 2409POPC   C1A34431  24.251   4.278   8.799
 2409POPC   D2A34432  24.034   4.288   8.402
 2409POPC   C3A34433  24.248   4.323   8.003
 2409POPC   C4A34434  24.158   4.646   7.672
 2409POPC   C1B34435  24.985   4.548   8.857
 2409POPC   C2B34436  24.817   4.510   8.473
 2409POPC   C3B34437  24.896   4.415   8.072
 2409POPC   C4B34438  24.666   4.359   7.702
 2410POPC   NC334439  12.750  32.844   9.180
 2410POPC   PO434440  12.527  33.428   9.446
 2410POPC   GL134441  12.617  33.324   9.015
 2410POPC   GL234442  12.542  33.619   8.921
 2410POPC   C1A34443  12.564  33.072   8.596
 2410POPC   D2A34444  12.503  32.800   8.241
 2410POPC   C3A34445  12.812  32.831   7.937
 2410POPC   C4A34446  12.838  32.747   7.484
 2410POPC   C1B34447  12.700  33.562   8.523
 2410POPC   C2B34448  12.823  33.368   8.125
 2410POPC   C3B34449  12.752  33.276   7.686
 2410POPC   C4B34450  12.355  33.473   7.500
 2411POPC   NC334451  19.442  10.040   9.363
 2411POPC   PO434452  18.764   9.897   9.438
 2411POPC   GL134453  18.816   9.833   9.059
 2411POPC   GL234454  19.062  10.130   8.977
 2411POPC   C1A34455  19.137   9.635   8.852
 2411POPC   D2A34456  19.424   9.744   8.589
 2411POPC   C3A34457  19.331   9.684   8.137
 2411POPC   C4A34458  19.391   9.783   7.683
 2411POPC   C1B34459  18.861   9.988   8.584
 2411POPC   C2B34460  18.823   9.646   8.298
 2411POPC   C3B34461  18.864   9.638   7.851
 2411POPC   C4B34462  18.776   9.957   7.560
 2412POPC   NC334463  31.456  29.194   9.599
 2412POPC   PO434464  31.909  29.578   9.238
 2412POPC   GL134465  31.643  29.267   9.001
 2412POPC   GL234466  31.443  28.976   9.129
 2412POPC   C1A34467  31.622  29.042   8.603
 2412POPC   D2A34468  31.433  29.137   8.207
 2412POPC   C3A34469  31.610  29.263   7.869
 2412POPC   C4A34470  31.421  29.244   7.460
 2412POPC   C1B34471  31.136  28.806   8.805
 2412POPC   C2B34472  30.948  28.862   8.389
 2412POPC   C3B34473  31.062  28.863   7.969
 2412POPC   C4B34474  31.428  28.798   7.738
 2413POPC   NC334475  40.756  41.528   9.724
 2413POPC   PO434476  41.296  41.467   9.392
 2413POPC   GL134477  40.854  41.488   9.205
 2413POPC   GL234478  40.579  41.738   9.091
 2413POPC   C1A34479  40.672  41.329   8.811
 2413POPC   D2A34480  40.918  41.222   8.455
 2413POPC   C3A34481  40.768  41.362   8.053
 2413POPC   C4A34482  40.470  41.656   7.823
 2413POPC   C1B34483  40.921  41.781   8.765
 2413POPC   C2B34484  41.081  41.691   8.342
 2413POPC   C3B34485  40.986  41.792   7.913
 2413POPC   C4B34486  40.760  41.953   7.521
 2414POPC   NC334487   1.068  40.285   9.611
 2414POPC   PO434488   1.434  39.926   9.320
 2414POPC   GL134489   1.366  40.307   9.102
 2414POPC   GL234490   1.018  40.448   9.132
 2414POPC   C1A34491   1.452  40.444   8.677
 2414POPC   D2A34492   1.575  40.354   8.259
 2414POPC   C3A34493   1.301  40.142   7.951
 2414POPC   C4A34494   1.073  40.333   7.604
 2414POPC   C1B34495   0.968  40.292   8.710
 2414POPC   C2B34496   0.911  40.347   8.253
 2414POPC   C3B34497   0.733  40.106   7.881
 2414POPC   C4B34498   0.683  40.060   7.399
 2415POPC   NC334499   6.228  15.482   9.344
 2415POPC   PO434500   5.609  15.144   9.411
 2415POPC   GL134501   5.887  15.214   9.088
 2415POPC   GL234502   6.132  14.934   9.090
 2415POPC   C1A34503   5.944  15.121   8.651
 2415POPC   D2A34504   5.822  14.890   8.289
 2415POPC   C3A34505   5.676  15.262   8.050
 2415POPC   C4A34506   5.514  15.505   7.732
 2415POPC   C1B34507   6.425  15.008   8.762
 2415POPC   C2B34508   6.350  14.965   8.339
 2415POPC   C3B34509   6.147  15.093   7.960
 2415POPC   C4B34510   5.885  15.022   7.628
 2416POPC   NC334511  13.372  36.079   9.513
 2416POPC   PO434512  14.002  36.155   9.511
 2416POPC   GL134513  13.778  36.104   9.074
 2416POPC   GL234514  13.457  36.084   9.023
 2416POPC   C1A34515  13.695  36.050   8.596
 2416POPC   D2A34516  13.468  36.109   8.217
 2416POPC   C3A34517  13.725  36.055   7.894
 2416POPC   C4A34518  13.814  35.872   7.495
 2416POPC   C1B34519  13.235  36.214   8.680
 2416POPC   C2B34520  13.124  36.471   8.318
 2416POPC   C3B34521  13.111  36.302   7.883
 2416POPC   C4B34522  13.370  36.115   7.557
 2417POPC   NC334523  16.050  10.614   9.858
 2417POPC   PO434524  15.488  10.735   9.530
 2417POPC   GL134525  15.738  10.812   9.206
 2417POPC   GL234526  16.031  10.711   9.317
 2417POPC   C1A34527  15.830  10.500   8.874
 2417POPC   D2A34528  16.014  10.372   8.489
 2417POPC   C3A34529  15.720  10.250   8.188
 2417POPC   C4A34530  15.809  10.419   7.803
 2417POPC   C1B34531  16.147  10.898   8.900
 2417POPC   C2B34532  15.839  10.904   8.558
 2417POPC   C3B34533  15.838  10.802   8.125
 2417POPC   C4B34534  16.004  10.909   7.724
 2418POPC   NC334535   4.858  36.586   9.487
 2418POPC   PO434536   5.136  37.204   9.299
 2418POPC   GL134537   5.319  36.940   9.046
 2418POPC   GL234538   5.267  36.631   9.175
 2418POPC   C1A34539   5.314  36.913   8.606
 2418POPC   D2A34540   5.473  36.783   8.243
 2418POPC   C3A34541   5.238  36.874   7.882
 2418POPC   C4A34542   5.227  36.938   7.432
 2418POPC   C1B34543   4.965  36.623   8.823
 2418POPC   C2B34544   4.791  36.753   8.421
 2418POPC   C3B34545   4.842  36.586   8.021
 2418POPC   C4B34546   4.914  36.574   7.611
 2419POPC   NC334547  37.572  30.430   9.469
 2419POPC   PO434548  38.172  30.797   9.447
 2419POPC   GL134549  37.825  30.886   9.220
 2419POPC   GL234550  37.514  30.993   9.362
 2419POPC   C1A34551  37.822  30.668   8.862
 2419POPC   D2A34552  37.659  30.526   8.483
 2419POPC   C3A34553  37.655  30.610   8.022
 2419POPC   C4A34554  37.502  30.234   7.775
 2419POPC   C1B34555  37.368  30.845   8.937
 2419POPC   C2B34556  37.480  30.998   8.520
 2419POPC   C3B34557  37.402  31.093   8.087
 2419POPC   C4B34558  37.394  30.940   7.635
 2420POPC   NC334559  20.989   0.235   9.358
 2420POPC   PO434560  20.574   0.681   9.609
 2420POPC   GL134561  20.542   0.508   9.164
 2420POPC   GL234562  20.636   0.170   9.019
 2420POPC   C1A34563  20.668   0.574   8.729
 2420POPC   D2A34564  20.459   0.499   8.371
 2420POPC   C3A34565  20.636   0.610   7.996
 2420POPC   C4A34566  20.305   0.552   7.731
 2420POPC   C1B34567  20.821  44.999   8.634
 2420POPC   C2B34568  20.797   0.158   8.190
 2420POPC   C3B34569  20.666   0.132   7.750
 2420POPC   C4B34570  20.664  44.911   7.346
 2421POPC   NC334571  11.497  27.734   9.959
 2421POPC   PO434572  12.054  27.577   9.557
 2421POPC   GL134573  12.237  27.602   9.153
 2421POPC   GL234574  12.261  27.253   9.132
 2421POPC   C1A34575  12.073  27.460   8.723
 2421POPC   D2A34576  11.756  27.524   8.403
 2421POPC   C3A34577  11.886  27.417   7.997
 2421POPC   C4A34578  12.040  27.610   7.637
 2421POPC   C1B34579  12.557  27.348   8.824
 2421POPC   C2B34580  12.567  27.379   8.419
 2421POPC   C3B34581  12.377  27.461   8.038
 2421POPC   C4B34582  12.388  27.212   7.685
 2422POPC   NC334583  22.239   1.323   9.616
 2422POPC   PO434584  21.754   1.430   9.251
 2422POPC   GL134585  22.042   1.194   9.070
 2422POPC   GL234586  22.352   1.108   9.163
 2422POPC   C1A34587  22.128   1.314   8.663
 2422POPC   D2A34588  21.918   1.427   8.297
 2422POPC   C3A34589  22.175   1.287   7.965
 2422POPC   C4A34590  22.488   1.598   7.858
 2422POPC   C1B34591  22.528   1.006   8.791
 2422POPC   C2B34592  22.352   0.931   8.376
 2422POPC   C3B34593  22.534   0.651   8.092
 2422POPC   C4B34594  22.597   0.791   7.657
 2423POPC   NC334595  12.465  20.131   9.529
 2423POPC   PO434596  11.769  20.007   9.396
 2423POPC   GL134597  11.927  19.903   9.010
 2423POPC   GL234598  12.248  20.059   9.064
 2423POPC   C1A34599  11.907  19.589   8.677
 2423POPC   D2A34600  12.084  19.592   8.266
 2423POPC   C3A34601  11.831  19.816   7.970
 2423POPC   C4A34602  11.796  19.931   7.514
 2423POPC   C1B34603  12.255  19.974   8.618
 2423POPC   C2B34604  12.464  19.966   8.223
 2423POPC   C3B34605  12.400  20.273   7.947
 2423POPC   C4B34606  11.970  20.286   7.836
 2424POPC   NC334607  40.610  34.369   9.546
 2424POPC   PO434608  40.843  34.881   9.360
 2424POPC   GL134609  40.624  34.585   9.040
 2424POPC   GL234610  40.379  34.320   9.090
 2424POPC   C1A34611  40.630  34.415   8.573
 2424POPC   D2A34612  40.501  34.538   8.127
 2424POPC   C3A34613  40.834  34.612   7.824
 2424POPC   C4A34614  41.112  34.337   7.569
 2424POPC   C1B34615  40.772  34.074   8.926
 2424POPC   C2B34616  40.930  33.951   8.520
 2424POPC   C3B34617  40.922  34.059   8.056
 2424POPC   C4B34618  40.628  34.155   7.722
 2425POPC   NC334619   4.911   0.951   9.601
 2425POPC   PO434620   4.907   1.634   9.536
 2425POPC   GL134621   4.798   1.444   9.184
 2425POPC   GL234622   5.096   1.257   9.192
 2425POPC   C1A34623   4.769   1.329   8.759
 2425POPC   D2A34624   4.958   1.351   8.359
 2425POPC   C3A34625   4.715   1.150   8.020
 2425POPC   C4A34626   4.833   0.957   7.629
 2425POPC   C1B34627   5.270   1.147   8.796
 2425POPC   C2B34628   5.413   1.097   8.384
 2425POPC   C3B34629   5.262   1.130   7.968
 2425POPC   C4B34630   5.334   0.775   7.744
 2426POPC   NC334631  35.960  20.281   9.443
 2426POPC   PO434632  36.137  20.950   9.546
 2426POPC   GL134633  36.143  20.661   9.156
 2426POPC   GL234634  36.340  20.380   9.086
 2426POPC   C1A34635  36.307  20.698   8.690
 2426POPC   D2A34636  36.260  20.944   8.285
 2426POPC   C3A34637  36.487  20.938   7.888
 2426POPC   C4A34638  36.405  20.757   7.499
 2426POPC   C1B34639  35.963  20.346   8.785
 2426POPC   C2B34640  35.964  20.476   8.349
 2426POPC   C3B34641  36.069  20.611   7.908
 2426POPC   C4B34642  36.211  20.271   7.622
 2427POPC   NC334643  13.840   4.559   9.526
 2427POPC   PO434644  13.303   4.173   9.243
 2427POPC   GL134645  13.427   4.516   9.008
 2427POPC   GL234646  13.785   4.505   9.039
 2427POPC   C1A34647  13.396   4.463   8.560
 2427POPC   D2A34648  13.596   4.187   8.232
 2427POPC   C3A34649  13.638   4.341   7.791
 2427POPC   C4A34650  13.727   4.069   7.437
 2427POPC   C1B34651  13.902   4.350   8.663
 2427POPC   C2B34652  13.847   4.631   8.354
 2427POPC   C3B34653  14.031   4.586   7.998
 2427POPC   C4B34654  13.991   4.756   7.613
 2428POPC   NC334655  13.751  24.088   9.244
 2428POPC   PO434656  13.911  24.696   9.539
 2428POPC   GL134657  13.730  24.659   9.153
 2428POPC   GL234658  13.445  24.501   9.126
 2428POPC   C1A34659  13.649  24.707   8.719
 2428POPC   D2A34660  13.348  24.684   8.426
 2428POPC   C3A34661  13.606  24.711   8.108
 2428POPC   C4A34662  13.612  24.770   7.696
 2428POPC   C1B34663  13.280  24.292   8.759
 2428POPC   C2B34664  13.346  24.180   8.311
 2428POPC   C3B34665  13.201  24.418   7.981
 2428POPC   C4B34666  13.322  24.364   7.576
 2429POPC   NC334667   3.840   3.230   9.428
 2429POPC   PO434668   3.641   3.871   9.531
 2429POPC   GL134669   3.641   3.800   9.108
 2429POPC   GL234670   3.338   3.603   9.176
 2429POPC   C1A34671   3.514   3.678   8.679
 2429POPC   D2A34672   3.672   3.294   8.432
 2429POPC   C3A34673   3.789   3.399   7.995
 2429POPC   C4A34674   3.684   3.810   7.806
 2429POPC   C1B34675   3.354   3.237   8.911
 2429POPC   C2B34676   3.175   3.202   8.546
 2429POPC   C3B34677   3.234   3.536   8.255
 2429POPC   C4B34678   3.276   3.512   7.827
 2430POPC   NC334679  35.197  13.052   9.432
 2430POPC   PO434680  35.318  12.392   9.536
 2430POPC   GL134681  35.194  12.580   9.173
 2430POPC   GL234682  35.500  12.758   9.118
 2430POPC   C1A34683  35.091  12.846   8.803
 2430POPC   D2A34684  35.264  12.979   8.411
 2430POPC   C3A34685  35.093  12.791   8.039
 2430POPC   C4A34686  34.919  13.033   7.726
 2430POPC   C1B34687  35.477  12.508   8.737
 2430POPC   C2B34688  35.627  12.629   8.338
 2430POPC   C3B34689  35.600  12.865   7.987
 2430POPC   C4B34690  35.454  12.718   7.601
 2431POPC   NC334691  31.553   8.816   9.398
 2431POPC   PO434692  31.743   9.458   9.521
 2431POPC   GL134693  31.581   9.243   9.136
 2431POPC   GL234694  31.553   8.893   8.908
 2431POPC   C1A34695  31.783   9.303   8.743
 2431POPC   D2A34696  31.601   9.090   8.414
 2431POPC   C3A34697  31.722   9.104   7.990
 2431POPC   C4A34698  31.335   9.141   7.768
 2431POPC   C1B34699  31.287   8.615   8.639
 2431POPC   C2B34700  30.941   8.606   8.425
 2431POPC   C3B34701  31.102   8.916   8.172
 2431POPC   C4B34702  30.998   8.750   7.784
 2432POPC   NC334703  19.304  34.945   9.485
 2432POPC   PO434704  18.609  34.787   9.235
 2432POPC   GL134705  19.003  34.578   9.189
 2432POPC   GL234706  19.129  34.835   9.024
 2432POPC   C1A34707  19.149  34.368   8.829
 2432POPC   D2A34708  19.160  34.616   8.468
 2432POPC   C3A34709  19.340  34.421   8.134
 2432POPC   C4A34710  19.153  34.415   7.737
 2432POPC   C1B34711  19.350  35.028   8.723
 2432POPC   C2B34712  19.195  35.138   8.337
 2432POPC   C3B34713  19.112  34.871   8.021
 2432POPC   C4B34714  19.123  34.954   7.624
 2433POPC   NC334715  15.202  24.889   9.577
 2433POPC   PO434716  14.967  24.191   9.494
 2433POPC   GL134717  14.985  24.462   9.168
 2433POPC   GL234718  15.339  24.529   9.120
 2433POPC   C1A34719  15.064  24.271   8.789
 2433POPC   D2A34720  15.361  24.420   8.530
 2433POPC   C3A34721  15.420  24.146   8.192
 2433POPC   C4A34722  15.064  24.218   7.912
 2433POPC   C1B34723  15.490  24.834   8.820
 2433POPC   C2B34724  15.463  24.937   8.396
 2433POPC   C3B34725  15.587  24.631   8.127
 2433POPC   C4B34726  15.537  24.508   7.761
 2434POPC   NC334727  18.464  12.041   9.599
 2434POPC   PO434728  17.853  12.277   9.584
 2434POPC   GL134729  18.134  12.064   9.215
 2434POPC   GL234730  18.351  12.326   9.190
 2434POPC   C1A34731  18.224  11.785   8.827
 2434POPC   D2A34732  18.424  11.823   8.413
 2434POPC   C3A34733  18.181  11.917   8.073
 2434POPC   C4A34734  18.260  11.791   7.682
 2434POPC   C1B34735  18.090  12.410   8.837
 2434POPC   C2B34736  18.179  12.273   8.462
 2434POPC   C3B34737  18.436  12.363   8.137
 2434POPC   C4B34738  18.308  12.305   7.730
 2435POPC   NC334739  12.935  10.607   9.345
 2435POPC   PO434740  12.460  10.106   9.555
 2435POPC   GL134741  12.599  10.279   9.166
 2435POPC   GL234742  12.477  10.639   9.090
 2435POPC   C1A34743  12.781  10.225   8.735
 2435POPC   D2A34744  12.772  10.394   8.319
 2435POPC   C3A34745  13.067  10.302   8.003
 2435POPC   C4A34746  12.978  10.396   7.599
 2435POPC   C1B34747  12.668  10.734   8.708
 2435POPC   C2B34748  12.595  10.882   8.295
 2435POPC   C3B34749  12.788  10.821   7.858
 2435POPC   C4B34750  12.746  10.786   7.372
 2436POPC   NC334751  13.440  13.819   9.534
 2436POPC   PO434752  13.858  13.388   9.581
 2436POPC   GL134753  13.607  13.382   9.165
 2436POPC   GL234754  13.544  13.720   9.055
 2436POPC   C1A34755  13.567  13.383   8.661
 2436POPC   D2A34756  13.410  13.723   8.380
 2436POPC   C3A34757  13.581  13.713   7.935
 2436POPC   C4A34758  13.771  13.657   7.505
 2436POPC   C1B34759  13.842  13.810   8.739
 2436POPC   C2B34760  13.929  13.669   8.306
 2436POPC   C3B34761  14.072  13.882   7.927
 2436POPC   C4B34762  14.144  14.001   7.488
 2437POPC   NC334763  34.108  15.576   9.499
 2437POPC   PO434764  33.743  16.149   9.357
 2437POPC   GL134765  33.894  15.812   9.083
 2437POPC   GL234766  34.252  15.897   9.086
 2437POPC   C1A34767  33.878  15.773   8.628
 2437POPC   D2A34768  33.630  16.140   8.476
 2437POPC   C3A34769  33.535  16.043   8.066
 2437POPC   C4A34770  33.805  15.715   7.873
 2437POPC   C1B34771  34.070  16.208   8.765
 2437POPC   C2B34772  34.054  16.387   8.323
 2437POPC   C3B34773  34.164  16.172   7.908
 2437POPC   C4B34774  34.183  16.205   7.421
 2438POPC   NC334775   3.665  34.818   9.609
 2438POPC   PO434776   3.490  34.251   9.454
 2438POPC   GL134777   3.686  34.543   9.143
 2438POPC   GL234778   3.738  34.941   9.130
 2438POPC   C1A34779   3.695  34.420   8.717
 2438POPC   D2A34780   3.584  34.354   8.265
 2438POPC   C3A34781   3.779  34.600   7.944
 2438POPC   C4A34782   3.626  34.713   7.539
 2438POPC   C1B34783   3.967  34.873   8.765
 2438POPC   C2B34784   3.723  34.831   8.404
 2438POPC   C3B34785   3.608  35.094   8.067
 2438POPC   C4B34786   3.906  35.083   7.775
 2439POPC   NC334787  18.081  23.933   9.592
 2439POPC   PO434788  18.327  23.345   9.531
 2439POPC   GL134789  18.283  23.722   9.178
 2439POPC   GL234790  17.973  23.959   9.079
 2439POPC   C1A34791  18.403  23.875   8.774
 2439POPC   D2A34792  18.600  23.741   8.380
 2439POPC   C3A34793  18.514  23.871   7.939
 2439POPC   C4A34794  18.706  23.805   7.534
 2439POPC   C1B34795  17.956  23.650   8.748
 2439POPC   C2B34796  18.160  23.478   8.424
 2439POPC   C3B34797  18.051  23.634   8.028
 2439POPC   C4B34798  18.071  23.718   7.606
 2440POPC   NC334799  14.334   6.444   9.483
 2440POPC   PO434800  14.024   6.975   9.164
 2440POPC   GL134801  14.185   6.588   8.994
 2440POPC   GL234802  14.537   6.522   9.025
 2440POPC   C1A34803  14.138   6.562   8.564
 2440POPC   D2A34804  14.368   6.780   8.239
 2440POPC   C3A34805  14.395   6.505   7.917
 2440POPC   C4A34806  14.195   6.501   7.565
 2440POPC   C1B34807  14.621   6.775   8.681
 2440POPC   C2B34808  14.872   6.927   8.315
 2440POPC   C3B34809  14.783   6.814   7.886
 2440POPC   C4B34810  14.531   6.900   7.549
 2441POPC   NC334811  26.166  16.370   9.423
 2441POPC   PO434812  26.470  15.775   9.483
 2441POPC   GL134813  26.215  15.977   9.106
 2441POPC   GL234814  25.835  15.976   9.103
 2441POPC   C1A34815  26.058  16.252   8.744
 2441POPC   D2A34816  25.901  16.112   8.344
 2441POPC   C3A34817  26.162  16.055   7.992
 2441POPC   C4A34818  26.371  16.252   7.652
 2441POPC   C1B34819  25.539  16.105   8.735
 2441POPC   C2B34820  25.406  16.129   8.264
 2441POPC   C3B34821  25.632  15.981   7.868
 2441POPC   C4B34822  25.562  15.929   7.377
 2442POPC   NC334823  31.060  34.217   9.425
 2442POPC   PO434824  31.719  34.495   9.484
 2442POPC   GL134825  31.610  34.658   9.117
 2442POPC   GL234826  31.285  34.534   9.096
 2442POPC   C1A34827  31.812  34.597   8.710
 2442POPC   D2A34828  31.646  34.438   8.318
 2442POPC   C3A34829  31.485  34.776   8.150
 2442POPC   C4A34830  31.637  34.873   7.785
 2442POPC   C1B34831  31.293  34.603   8.673
 2442POPC   C2B34832  31.092  34.438   8.321
 2442POPC   C3B34833  31.274  34.353   7.927
 2442POPC   C4B34834  31.109  34.746   7.779
 2443POPC   NC334835  14.947  29.342   9.595
 2443POPC   PO434836  15.296  28.758   9.692
 2443POPC   GL134837  15.193  28.996   9.276
 2443POPC   GL234838  15.269  29.307   9.162
 2443POPC   C1A34839  14.923  29.024   8.869
 2443POPC   D2A34840  14.736  28.841   8.473
 2443POPC   C3A34841  15.012  28.904   8.091
 2443POPC   C4A34842  15.114  29.056   7.659
 2443POPC   C1B34843  15.133  29.493   8.781
 2443POPC   C2B34844  14.941  29.321   8.425
 2443POPC   C3B34845  15.047  29.421   7.998
 2443POPC   C4B34846  15.457  29.410   7.765
 2444POPC   NC334847   9.554   7.743   9.464
 2444POPC   PO434848   9.809   8.297   9.425
 2444POPC   GL134849   9.613   8.101   9.076
 2444POPC   GL234850   9.638   7.751   8.977
 2444POPC   C1A34851   9.631   8.255   8.678
 2444POPC   D2A34852   9.820   8.446   8.341
 2444POPC   C3A34853   9.526   8.449   8.032
 2444POPC   C4A34854   9.606   8.455   7.625
 2444POPC   C1B34855   9.685   7.762   8.538
 2444POPC   C2B34856   9.505   7.956   8.201
 2444POPC   C3B34857   9.687   7.967   7.807
 2444POPC   C4B34858   9.816   7.925   7.406
 2445POPC   NC334859  40.385  20.421   9.554
 2445POPC   PO434860  41.017  20.815   9.385
 2445POPC   GL134861  40.936  20.474   9.052
 2445POPC   GL234862  40.581  20.419   9.050
 2445POPC   C1A34863  40.824  20.457   8.580
 2445POPC   D2A34864  40.464  20.311   8.332
 2445POPC   C3A34865  40.619  20.297   7.901
 2445POPC   C4A34866  40.994  20.489   7.723
 2445POPC   C1B34867  40.648  20.838   8.821
 2445POPC   C2B34868  40.885  20.994   8.486
 2445POPC   C3B34869  40.858  20.771   8.122
 2445POPC   C4B34870  40.606  20.829   7.728
 2446POPC   NC334871  14.859   5.920   9.449
 2446POPC   PO434872  15.577   5.666   9.551
 2446POPC   GL134873  15.383   5.881   9.228
 2446POPC   GL234874  15.204   5.593   9.182
 2446POPC   C1A34875  15.186   5.948   8.802
 2446POPC   D2A34876  15.226   6.109   8.381
 2446POPC   C3A34877  15.095   5.868   8.054
 2446POPC   C4A34878  14.961   5.926   7.691
 2446POPC   C1B34879  15.406   5.489   8.839
 2446POPC   C2B34880  15.237   5.549   8.457
 2446POPC   C3B34881  15.346   5.438   8.073
 2446POPC   C4B34882  15.142   5.449   7.712
 2447POPC   NC334883  37.534  34.767   9.525
 2447POPC   PO434884  37.873  34.274   9.582
 2447POPC   GL134885  37.681  34.413   9.191
 2447POPC   GL234886  37.866  34.750   9.146
 2447POPC   C1A34887  37.473  34.603   8.812
 2447POPC   D2A34888  37.296  34.465   8.389
 2447POPC   C3A34889  37.446  34.588   7.974
 2447POPC   C4A34890  37.365  34.307   7.607
 2447POPC   C1B34891  38.007  34.462   8.828
 2447POPC   C2B34892  37.805  34.497   8.435
 2447POPC   C3B34893  37.968  34.486   8.049
 2447POPC   C4B34894  37.905  34.591   7.655
 2448POPC   NC334895  12.588  40.624   9.469
 2448POPC   PO434896  12.446  41.257   9.477
 2448POPC   GL134897  12.525  41.138   9.062
 2448POPC   GL234898  12.819  40.942   9.136
 2448POPC   C1A34899  12.635  40.936   8.655
 2448POPC   D2A34900  12.469  40.852   8.254
 2448POPC   C3A34901  12.624  40.588   7.919
 2448POPC   C4A34902  12.858  40.466   7.548
 2448POPC   C1B34903  13.092  40.789   8.776
 2448POPC   C2B34904  12.966  40.676   8.320
 2448POPC   C3B34905  13.141  40.751   7.893
 2448POPC   C4B34906  13.453  41.078   7.778
 2449POPC   NC334907  11.024  30.351   9.418
 2449POPC   PO434908  11.486  30.780   9.498
 2449POPC   GL134909  11.357  30.622   9.109
 2449POPC   GL234910  10.993  30.735   9.084
 2449POPC   C1A34911  11.480  30.322   8.777
 2449POPC   D2A34912  11.282  30.288   8.326
 2449POPC   C3A34913  11.454  30.487   7.954
 2449POPC   C4A34914  11.564  30.265   7.613
 2449POPC   C1B34915  11.101  30.643   8.659
 2449POPC   C2B34916  11.111  30.807   8.236
 2449POPC   C3B34917  11.010  30.661   7.804
 2449POPC   C4B34918  11.094  30.477   7.375
 2450POPC   NC334919  34.667  17.901   9.574
 2450POPC   PO434920  34.350  18.495   9.409
 2450POPC   GL134921  34.702  18.297   9.177
 2450POPC   GL234922  34.907  17.983   9.120
 2450POPC   C1A34923  34.757  18.363   8.743
 2450POPC   D2A34924  34.480  18.440   8.389
 2450POPC   C3A34925  34.641  18.495   7.973
 2450POPC   C4A34926  34.677  18.337   7.549
 2450POPC   C1B34927  34.490  17.939   8.878
 2450POPC   C2B34928  34.373  17.900   8.444
 2450POPC   C3B34929  34.483  18.011   8.019
 2450POPC   C4B34930  34.377  17.905   7.617
 2451POPC   NC334931   9.256  13.844   9.483
 2451POPC   PO434932   9.036  13.274   9.486
 2451POPC   GL134933   8.941  13.623   9.137
 2451POPC   GL234934   9.178  13.906   9.007
 2451POPC   C1A34935   8.810  13.726   8.709
 2451POPC   D2A34936   8.963  13.574   8.311
 2451POPC   C3A34937   8.789  13.652   7.907
 2451POPC   C4A34938   8.937  13.607   7.454
 2451POPC   C1B34939   9.337  13.737   8.651
 2451POPC   C2B34940   9.407  13.890   8.245
 2451POPC   C3B34941   9.228  13.876   7.813
 2451POPC   C4B34942   9.168  14.049   7.373
 2452POPC   NC334943  41.548  30.455   9.363
 2452POPC   PO434944  41.337  31.070   9.583
 2452POPC   GL134945  41.375  30.906   9.180
 2452POPC   GL234946  41.741  30.902   9.255
 2452POPC   C1A34947  41.404  30.728   8.759
 2452POPC   D2A34948  41.618  30.375   8.529
 2452POPC   C3A34949  41.627  30.486   8.104
 2452POPC   C4A34950  41.294  30.762   7.875
 2452POPC   C1B34951  41.828  31.008   8.851
 2452POPC   C2B34952  41.771  30.888   8.440
 2452POPC   C3B34953  41.735  30.996   8.054
 2452POPC   C4B34954  41.754  30.772   7.693
 2453POPC   NC334955  17.910  23.129   9.463
 2453POPC   PO434956  17.254  22.888   9.653
 2453POPC   GL134957  17.346  23.008   9.221
 2453POPC   GL234958  17.661  22.907   9.058
 2453POPC   C1A34959  17.258  23.084   8.774
 2453POPC   D2A34960  17.161  22.935   8.333
 2453POPC   C3A34961  17.384  23.015   7.936
 2453POPC   C4A34962  17.704  22.845   7.656
 2453POPC   C1B34963  17.815  23.113   8.655
 2453POPC   C2B34964  17.782  23.219   8.187
 2453POPC   C3B34965  18.063  23.181   7.788
 2453POPC   C4B34966  18.023  23.297   7.307
 2454POPC   NC334967  26.740  19.872   9.574
 2454POPC   PO434968  27.431  19.943   9.523
 2454POPC   GL134969  27.181  19.746   9.184
 2454POPC   GL234970  26.914  19.986   9.124
 2454POPC   C1A34971  26.910  19.606   8.824
 2454POPC   D2A34972  26.706  19.610   8.434
 2454POPC   C3A34973  26.921  19.642   8.069
 2454POPC   C4A34974  26.707  19.603   7.686
 2454POPC   C1B34975  26.529  19.950   8.846
 2454POPC   C2B34976  26.341  19.967   8.416
 2454POPC   C3B34977  26.399  20.155   8.006
 2454POPC   C4B34978  26.817  20.094   7.789
 2455POPC   NC334979   3.282  37.370   9.597
 2455POPC   PO434980   3.712  36.801   9.473
 2455POPC   GL134981   3.647  36.995   9.113
 2455POPC   GL234982   3.304  37.014   9.174
 2455POPC   C1A34983   3.793  36.914   8.690
 2455POPC   D2A34984   3.877  36.722   8.266
 2455POPC   C3A34985   3.634  36.869   7.917
 2455POPC   C4A34986   3.473  36.788   7.499
 2455POPC   C1B34987   3.291  37.084   8.740
 2455POPC   C2B34988   3.405  37.030   8.316
 2455POPC   C3B34989   3.203  37.100   7.874
 2455POPC   C4B34990   3.207  37.220   7.426
 2456POPC   NC334991  14.633  33.640   9.357
 2456POPC   PO434992  14.093  34.074   9.540
 2456POPC   GL134993  14.302  33.998   9.180
 2456POPC   GL234994  14.156  33.658   9.157
 2456POPC   C1A34995  14.452  34.149   8.762
 2456POPC   D2A34996  14.376  33.967   8.329
 2456POPC   C3A34997  14.543  34.067   7.894
 2456POPC   C4A34998  14.612  34.117   7.406
 2456POPC   C1B34999  14.380  33.626   8.762
 2456POPC   C2B35000  14.509  33.470   8.365
 2456POPC   C3B35001  14.470  33.557   7.941
 2456POPC   C4B35002  14.166  33.407   7.664
 2457POPC   NC335003  12.657  34.686   9.543
 2457POPC   PO435004  13.366  34.757   9.606
 2457POPC   GL135005  13.100  34.621   9.273
 2457POPC   GL235006  13.245  34.353   9.153
 2457POPC   C1A35007  12.806  34.555   8.914
 2457POPC   D2A35008  12.728  34.528   8.472
 2457POPC   C3A35009  12.691  34.885   8.171
 2457POPC   C4A35010  12.560  34.781   7.756
 2457POPC   C1B35011  13.279  34.680   8.795
 2457POPC   C2B35012  13.158  34.788   8.366
 2457POPC   C3B35013  13.001  34.483   8.018
 2457POPC   C4B35014  13.004  34.528   7.561
 2458POPC   NC335015  44.479  44.600   9.720
 2458POPC   PO435016  44.898   0.005   9.452
 2458POPC   GL135017  44.632  44.742   9.210
 2458POPC   GL235018  44.272  44.717   9.245
 2458POPC   C1A35019  44.507  44.848   8.814
 2458POPC   D2A35020  44.667  44.785   8.411
 2458POPC   C3A35021  44.742   0.033   8.072
 2458POPC   C4A35022  44.603  44.886   7.700
 2458POPC   C1B35023  44.292  44.371   8.905
 2458POPC   C2B35024  44.497  44.295   8.492
 2458POPC   C3B35025  44.422  44.471   8.084
 2458POPC   C4B35026  44.422  44.223   7.746
 2459POPC   NC335027  23.138  33.042   9.549
 2459POPC   PO435028  22.482  33.120   9.673
 2459POPC   GL135029  22.693  33.214   9.263
 2459POPC   GL235030  22.839  32.937   9.101
 2459POPC   C1A35031  22.697  33.330   8.806
 2459POPC   D2A35032  22.591  33.162   8.375
 2459POPC   C3A35033  22.870  33.139   8.031
 2459POPC   C4A35034  22.889  33.366   7.687
 2459POPC   C1B35035  22.847  32.722   8.718
 2459POPC   C2B35036  22.857  32.624   8.300
 2459POPC   C3B35037  22.917  32.622   7.873
 2459POPC   C4B35038  23.163  32.909   7.647
 2460POPC   NC335039  36.513   7.547   9.606
 2460POPC   PO435040  36.816   7.048   9.311
 2460POPC   GL135041  36.762   7.414   9.089
 2460POPC   GL235042  36.612   7.770   9.138
 2460POPC   C1A35043  36.828   7.280   8.655
 2460POPC   D2A35044  36.662   7.145   8.266
 2460POPC   C3A35045  36.963   7.152   7.925
 2460POPC   C4A35046  36.887   7.345   7.520
 2460POPC   C1B35047  36.927   7.761   8.773
 2460POPC   C2B35048  37.065   7.619   8.351
 2460POPC   C3B35049  36.927   7.667   7.933
 2460POPC   C4B35050  36.582   7.987   7.863
 2461POPC   NC335051   3.326   4.947   9.567
 2461POPC   PO435052   3.726   5.402   9.589
 2461POPC   GL135053   3.519   5.233   9.207
 2461POPC   GL235054   3.657   4.891   9.083
 2461POPC   C1A35055   3.294   5.111   8.829
 2461POPC   D2A35056   3.537   5.057   8.511
 2461POPC   C3A35057   3.553   4.991   8.101
 2461POPC   C4A35058   3.577   4.819   7.681
 2461POPC   C1B35059   3.868   5.237   8.850
 2461POPC   C2B35060   3.864   5.434   8.460
 2461POPC   C3B35061   4.100   5.412   8.105
 2461POPC   C4B35062   3.940   5.192   7.769
 2462POPC   NC335063  40.289  30.429   9.750
 2462POPC   PO435064  39.672  30.468   9.402
 2462POPC   GL135065  39.909  30.706   9.129
 2462POPC   GL235066  39.574  30.718   8.952
 2462POPC   C1A35067  39.953  30.967   8.755
 2462POPC   D2A35068  39.958  30.777   8.351
 2462POPC   C3A35069  40.052  31.026   8.003
 2462POPC   C4A35070  39.916  31.026   7.601
 2462POPC   C1B35071  39.679  30.363   8.687
 2462POPC   C2B35072  39.571  30.334   8.245
 2462POPC   C3B35073  39.684  30.663   7.903
 2462POPC   C4B35074  39.431  30.932   7.564
 2463POPC   NC335075   0.038   8.245   9.463
 2463POPC   PO435076   0.771   8.392   9.401
 2463POPC   GL135077   0.459   8.161   9.183
 2463POPC   GL235078   0.484   7.797   9.184
 2463POPC   C1A35079   0.243   8.236   8.801
 2463POPC   D2A35080   0.451   8.250   8.405
 2463POPC   C3A35081   0.204   8.306   8.035
 2463POPC   C4A35082   0.359   8.405   7.638
 2463POPC   C1B35083   0.641   7.887   8.772
 2463POPC   C2B35084   0.819   7.843   8.352
 2463POPC   C3B35085   0.641   8.013   7.980
 2463POPC   C4B35086   0.379   7.917   7.688
 2464POPC   NC335087  16.837  22.877   9.420
 2464POPC   PO435088  16.838  23.523   9.306
 2464POPC   GL135089  16.756  23.173   9.011
 2464POPC   GL235090  16.435  23.019   9.110
 2464POPC   C1A35091  16.809  22.834   8.696
 2464POPC   D2A35092  16.654  23.034   8.299
 2464POPC   C3A35093  16.880  23.074   7.913
 2464POPC   C4A35094  16.996  22.721   7.653
 2464POPC   C1B35095  16.311  22.887   8.688
 2464POPC   C2B35096  16.419  22.574   8.362
 2464POPC   C3B35097  16.581  22.634   7.977
 2464POPC   C4B35098  16.473  22.875   7.653
 2465POPC   NC335099  21.062  34.342   9.519
 2465POPC   PO435100  21.414  34.896   9.517
 2465POPC   GL135101  21.484  34.550   9.231
 2465POPC   GL235102  21.152  34.490   9.057
 2465POPC   C1A35103  21.569  34.326   8.848
 2465POPC   D2A35104  21.273  34.249   8.529
 2465POPC   C3A35105  21.403  34.469   8.170
 2465POPC   C4A35106  21.416  34.368   7.736
 2465POPC   C1B35107  20.973  34.734   8.758
 2465POPC   C2B35108  21.054  34.881   8.329
 2465POPC   C3B35109  21.150  34.790   7.874
 2465POPC   C4B35110  21.056  34.555   7.426
 2466POPC   NC335111  20.107  35.813   9.474
 2466POPC   PO435112  19.512  35.625   9.703
 2466POPC   GL135113  19.701  35.581   9.200
 2466POPC   GL235114  20.074  35.591   9.023
 2466POPC   C1A35115  19.736  35.358   8.741
 2466POPC   D2A35116  19.643  35.426   8.286
 2466POPC   C3A35117  19.445  35.272   7.890
 2466POPC   C4A35118  19.545  35.201   7.435
 2466POPC   C1B35119  20.261  35.291   8.741
 2466POPC   C2B35120  20.139  35.164   8.324
 2466POPC   C3B35121  19.930  35.155   7.931
 2466POPC   C4B35122  20.053  35.285   7.529
 2467POPC   NC335123   0.988  24.818   9.856
 2467POPC   PO435124   1.044  25.434  10.068
 2467POPC   GL135125   1.114  25.245   9.539
 2467POPC   GL235126   1.377  25.396   9.305
 2467POPC   C1A35127   1.060  25.131   9.011
 2467POPC   D2A35128   0.886  25.257   8.563
 2467POPC   C3A35129   1.125  25.223   8.155
 2467POPC   C4A35130   0.958  25.198   7.743
 2467POPC   C1B35131   1.400  25.471   8.818
 2467POPC   C2B35132   1.544  25.451   8.363
 2467POPC   C3B35133   1.584  25.294   7.927
 2467POPC   C4B35134   1.884  25.078   7.644
 2468POPC   NC335135  32.421   5.392   9.482
 2468POPC   PO435136  32.213   4.715   9.532
 2468POPC   GL135137  32.087   4.804   9.125
 2468POPC   GL235138  32.113   5.169   9.142
 2468POPC   C1A35139  32.032   4.934   8.712
 2468POPC   D2A35140  32.130   4.732   8.381
 2468POPC   C3A35141  32.094   4.878   8.007
 2468POPC   C4A35142  32.329   4.982   7.706
 2468POPC   C1B35143  32.321   5.350   8.779
 2468POPC   C2B35144  32.269   5.246   8.341
 2468POPC   C3B35145  32.430   5.410   7.956
 2468POPC   C4B35146  32.290   5.601   7.559
 2469POPC   NC335147  34.410  34.925   9.477
 2469POPC   PO435148  34.767  34.398   9.600
 2469POPC   GL135149  34.731  34.514   9.166
 2469POPC   GL235150  34.898  34.177   9.089
 2469POPC   C1A35151  34.417  34.679   8.801
 2469POPC   D2A35152  34.224  34.911   8.411
 2469POPC   C3A35153  34.334  34.730   8.006
 2469POPC   C4A35154  34.261  34.555   7.605
 2469POPC   C1B35155  34.687  34.247   8.721
 2469POPC   C2B35156  34.553  34.388   8.324
 2469POPC   C3B35157  34.631  34.325   7.889
 2469POPC   C4B35158  34.772  34.670   7.623
 2470POPC   NC335159  30.635  36.315   9.546
 2470POPC   PO435160  30.635  35.667   9.404
 2470POPC   GL135161  30.644  36.016   9.148
 2470POPC   GL235162  30.966  36.069   9.160
 2470POPC   C1A35163  30.442  36.136   8.789
 2470POPC   D2A35164  30.507  36.029   8.380
 2470POPC   C3A35165  30.412  36.328   8.033
 2470POPC   C4A35166  30.696  36.353   7.693
 2470POPC   C1B35167  30.963  35.874   8.784
 2470POPC   C2B35168  31.021  35.993   8.393
 2470POPC   C3B35169  31.028  36.103   7.986
 2470POPC   C4B35170  30.946  35.912   7.635
 2471POPC   NC335171  13.558  32.649   9.482
 2471POPC   PO435172  14.058  32.281   9.308
 2471POPC   GL135173  13.644  32.260   9.157
 2471POPC   GL235174  13.525  31.913   9.177
 2471POPC   C1A35175  13.382  32.349   8.797
 2471POPC   D2A35176  13.354  32.158   8.402
 2471POPC   C3A35177  13.314  32.391   8.030
 2471POPC   C4A35178  13.637  32.466   7.733
 2471POPC   C1B35179  13.726  31.956   8.755
 2471POPC   C2B35180  13.884  32.102   8.353
 2471POPC   C3B35181  13.649  32.002   7.981
 2471POPC   C4B35182  13.668  31.730   7.650
 2472POPC   NC335183   5.959   2.401   9.898
 2472POPC   PO435184   5.723   2.046   9.383
 2472POPC   GL135185   5.812   2.203   9.040
 2472POPC   GL235186   5.444   2.205   8.978
 2472POPC   C1A35187   6.082   2.020   8.750
 2472POPC   D2A35188   6.111   2.200   8.395
 2472POPC   C3A35189   6.150   2.010   8.000
 2472POPC   C4A35190   5.979   2.151   7.631
 2472POPC   C1B35191   5.574   1.949   8.671
 2472POPC   C2B35192   5.746   1.851   8.292
 2472POPC   C3B35193   5.643   1.843   7.879
 2472POPC   C4B35194   5.467   1.525   7.639
 2473POPC   NC335195  43.429  28.053   9.427
 2473POPC   PO435196  43.310  28.657   9.216
 2473POPC   GL135197  42.998  28.429   9.072
 2473POPC   GL235198  43.231  28.182   8.960
 2473POPC   C1A35199  42.918  28.508   8.666
 2473POPC   D2A35200  42.966  28.177   8.397
 2473POPC   C3A35201  43.073  28.355   8.019
 2473POPC   C4A35202  43.353  28.647   7.785
 2473POPC   C1B35203  43.459  28.376   8.628
 2473POPC   C2B35204  43.646  28.475   8.245
 2473POPC   C3B35205  43.568  28.199   7.920
 2473POPC   C4B35206  43.260  28.144   7.600
 2474POPC   NC335207  43.919  14.711   9.346
 2474POPC   PO435208  43.669  15.323   9.280
 2474POPC   GL135209  43.786  15.051   8.990
 2474POPC   GL235210  44.105  15.116   9.050
 2474POPC   C1A35211  43.824  15.025   8.562
 2474POPC   D2A35212  43.560  15.224   8.270
 2474POPC   C3A35213  43.773  15.159   7.881
 2474POPC   C4A35214  43.841  14.757   7.698
 2474POPC   C1B35215  44.011  15.463   8.748
 2474POPC   C2B35216  44.010  15.482   8.308
 2474POPC   C3B35217  44.346  15.349   8.061
 2474POPC   C4B35218  44.270  15.082   7.721
 2475POPC   NC335219  44.537  26.579   9.574
 2475POPC   PO435220  44.945  27.130   9.514
 2475POPC   GL135221  44.538  27.026   9.217
 2475POPC   GL235222  44.372  26.665   9.111
 2475POPC   C1A35223  44.541  26.965   8.754
 2475POPC   D2A35224  44.827  26.713   8.548
 2475POPC   C3A35225  44.963  26.783   8.151
 2475POPC   C4A35226  44.932  26.995   7.802
 2475POPC   C1B35227  44.416  26.419   8.716
 2475POPC   C2B35228  44.495  26.412   8.258
 2475POPC   C3B35229  44.495  26.741   7.927
 2475POPC   C4B35230  44.284  26.685   7.519
 2476POPC   NC335231   7.113  22.214   9.446
 2476POPC   PO435232   6.488  22.361   9.342
 2476POPC   GL135233   6.600  22.208   9.000
 2476POPC   GL235234   6.903  22.317   8.987
 2476POPC   C1A35235   6.398  22.070   8.644
 2476POPC   D2A35236   6.507  21.953   8.243
 2476POPC   C3A35237   6.567  22.074   7.794
 2476POPC   C4A35238   6.966  21.964   7.636
 2476POPC   C1B35239   6.799  22.364   8.563
 2476POPC   C2B35240   6.571  22.467   8.220
 2476POPC   C3B35241   6.915  22.379   7.989
 2476POPC   C4B35242   7.105  22.501   7.652
 2477POPC   NC335243  10.022  28.282   9.841
 2477POPC   PO435244   9.500  28.596   9.597
 2477POPC   GL135245   9.727  28.376   9.251
 2477POPC   GL235246  10.034  28.577   9.127
 2477POPC   C1A35247   9.820  28.221   8.795
 2477POPC   D2A35248   9.769  28.462   8.416
 2477POPC   C3A35249   9.770  28.246   8.029
 2477POPC   C4A35250   9.825  28.036   7.647
 2477POPC   C1B35251  10.228  28.539   8.687
 2477POPC   C2B35252  10.253  28.568   8.224
 2477POPC   C3B35253  10.013  28.658   7.814
 2477POPC   C4B35254   9.956  28.759   7.342
 2478POPC   NC335255  31.791   8.199   9.466
 2478POPC   PO435256  31.188   8.569   9.273
 2478POPC   GL135257  31.494   8.357   9.012
 2478POPC   GL235258  31.517   8.030   9.078
 2478POPC   C1A35259  31.749   8.395   8.592
 2478POPC   D2A35260  31.623   8.621   8.211
 2478POPC   C3A35261  31.282   8.415   8.065
 2478POPC   C4A35262  31.426   8.157   7.753
 2478POPC   C1B35263  31.564   7.917   8.650
 2478POPC   C2B35264  31.608   8.014   8.221
 2478POPC   C3B35265  31.894   7.892   7.900
 2478POPC   C4B35266  31.819   7.838   7.460
 2479POPC   NC335267  37.130  31.326   9.503
 2479POPC   PO435268  36.469  31.115   9.414
 2479POPC   GL135269  36.580  31.452   9.093
 2479POPC   GL235270  36.937  31.561   9.093
 2479POPC   C1A35271  36.711  31.503   8.644
 2479POPC   D2A35272  36.996  31.393   8.294
 2479POPC   C3A35273  36.769  31.632   8.000
 2479POPC   C4A35274  36.380  31.529   7.798
 2479POPC   C1B35275  37.175  31.691   8.750
 2479POPC   C2B35276  37.148  31.872   8.372
 2479POPC   C3B35277  37.304  31.711   8.004
 2479POPC   C4B35278  37.114  31.770   7.622
 2480POPC   NC335279  25.490   3.318   9.656
 2480POPC   PO435280  25.028   3.787   9.635
 2480POPC   GL135281  25.049   3.662   9.198
 2480POPC   GL235282  24.845   3.356   9.116
 2480POPC   C1A35283  25.355   3.575   8.886
 2480POPC   D2A35284  25.410   3.747   8.465
 2480POPC   C3A35285  25.512   3.507   8.102
 2480POPC   C4A35286  25.312   3.314   7.721
 2480POPC   C1B35287  24.918   3.482   8.662
 2480POPC   C2B35288  25.006   3.478   8.205
 2480POPC   C3B35289  24.860   3.180   7.910
 2480POPC   C4B35290  24.663   3.245   7.546
 2481POPC   NC335291   5.061  41.344   9.580
 2481POPC   PO435292   5.268  41.919   9.844
 2481POPC   GL135293   5.253  41.730   9.307
 2481POPC   GL235294   5.249  41.368   9.120
 2481POPC   C1A35295   5.088  41.722   8.801
 2481POPC   D2A35296   5.256  41.581   8.358
 2481POPC   C3A35297   5.000  41.645   7.972
 2481POPC   C4A35298   5.053  41.893   7.588
 2481POPC   C1B35299   5.251  41.197   8.701
 2481POPC   C2B35300   5.118  41.072   8.282
 2481POPC   C3B35301   5.208  41.205   7.847
 2481POPC   C4B35302   5.344  41.460   7.471
 2482POPC   NC335303  39.924  27.138   9.308
 2482POPC   PO435304  40.045  27.854   9.438
 2482POPC   GL135305  39.876  27.630   9.097
 2482POPC   GL235306  40.222  27.503   9.090
 2482POPC   C1A35307  39.643  27.545   8.695
 2482POPC   D2A35308  39.567  27.496   8.236
 2482POPC   C3A35309  39.824  27.686   7.914
 2482POPC   C4A35310  39.811  27.636   7.444
 2482POPC   C1B35311  40.103  27.330   8.726
 2482POPC   C2B35312  40.049  27.557   8.380
 2482POPC   C3B35313  40.120  27.293   8.069
 2482POPC   C4B35314  40.167  27.373   7.694
 2483POPC   NC335315   0.179  30.655   9.494
 2483POPC   PO435316   0.830  30.911   9.603
 2483POPC   GL135317   0.585  30.829   9.214
 2483POPC   GL235318   0.225  31.007   9.140
 2483POPC   C1A35319   0.432  30.602   8.871
 2483POPC   D2A35320   0.396  30.666   8.445
 2483POPC   C3A35321   0.635  30.525   8.089
 2483POPC   C4A35322   0.363  30.521   7.748
 2483POPC   C1B35323  44.998  30.849   8.801
 2483POPC   C2B35324  44.874  30.672   8.434
 2483POPC   C3B35325   0.073  30.807   8.068
 2483POPC   C4B35326  44.990  30.971   7.679
 2484POPC   NC335327  17.674  35.174   9.554
 2484POPC   PO435328  17.193  35.588   9.787
 2484POPC   GL135329  17.314  35.351   9.236
 2484POPC   GL235330  17.589  35.366   9.083
 2484POPC   C1A35331  17.259  35.448   8.740
 2484POPC   D2A35332  17.438  35.584   8.339
 2484POPC   C3A35333  17.301  35.378   7.964
 2484POPC   C4A35334  17.293  35.485   7.547
 2484POPC   C1B35335  17.791  35.507   8.704
 2484POPC   C2B35336  17.930  35.423   8.273
 2484POPC   C3B35337  17.812  35.536   7.843
 2484POPC   C4B35338  17.779  35.567   7.382
 2485POPC   NC335339   9.731   3.354   9.689
 2485POPC   PO435340   9.590   3.960   9.442
 2485POPC   GL135341   9.946   3.738   9.293
 2485POPC   GL235342   9.819   3.413   9.179
 2485POPC   C1A35343  10.015   3.738   8.849
 2485POPC   D2A35344   9.768   3.541   8.529
 2485POPC   C3A35345   9.741   3.701   8.106
 2485POPC   C4A35346  10.001   3.641   7.733
 2485POPC   C1B35347   9.604   3.173   8.856
 2485POPC   C2B35348   9.647   3.045   8.461
 2485POPC   C3B35349   9.699   3.190   8.081
 2485POPC   C4B35350   9.479   3.065   7.749
 2486POPC   NC335351  37.078  29.210   9.485
 2486POPC   PO435352  36.439  29.021   9.440
 2486POPC   GL135353  36.780  29.008   9.130
 2486POPC   GL235354  37.105  28.801   9.151
 2486POPC   C1A35355  36.857  29.004   8.712
 2486POPC   D2A35356  36.743  29.234   8.347
 2486POPC   C3A35357  36.783  29.029   7.954
 2486POPC   C4A35358  36.760  29.365   7.696
 2486POPC   C1B35359  37.363  29.036   8.833
 2486POPC   C2B35360  37.249  29.095   8.384
 2486POPC   C3B35361  37.215  29.282   7.967
 2486POPC   C4B35362  37.181  29.230   7.466
 2487POPC   NC335363  38.865   2.795   9.460
 2487POPC   PO435364  38.231   2.496   9.482
 2487POPC   GL135365  38.345   2.800   9.205
 2487POPC   GL235366  38.617   2.814   8.995
 2487POPC   C1A35367  38.145   2.885   8.829
 2487POPC   D2A35368  38.370   2.849   8.460
 2487POPC   C3A35369  38.224   3.079   8.100
 2487POPC   C4A35370  38.213   2.878   7.695
 2487POPC   C1B35371  38.790   2.594   8.641
 2487POPC   C2B35372  38.841   2.750   8.228
 2487POPC   C3B35373  38.687   2.722   7.820
 2487POPC   C4B35374  38.915   2.574   7.479
 2488POPC   NC335375  29.461  42.522   9.946
 2488POPC   PO435376  29.016  42.228   9.580
 2488POPC   GL135377  29.284  42.391   9.265
 2488POPC   GL235378  29.031  42.254   9.068
 2488POPC   C1A35379  29.396  42.472   8.818
 2488POPC   D2A35380  29.098  42.496   8.464
 2488POPC   C3A35381  29.294  42.438   8.083
 2488POPC   C4A35382  29.131  42.531   7.696
 2488POPC   C1B35383  29.107  42.059   8.698
 2488POPC   C2B35384  29.432  42.067   8.409
 2488POPC   C3B35385  29.613  42.068   8.011
 2488POPC   C4B35386  29.567  42.269   7.659
 2489POPC   NC335387   8.354  32.217   9.398
 2489POPC   PO435388   7.663  32.099   9.527
 2489POPC   GL135389   7.951  32.047   9.101
 2489POPC   GL235390   8.094  32.399   8.999
 2489POPC   C1A35391   8.212  31.991   8.677
 2489POPC   D2A35392   8.092  31.989   8.221
 2489POPC   C3A35393   7.935  32.373   8.075
 2489POPC   C4A35394   7.946  32.412   7.649
 2489POPC   C1B35395   8.484  32.458   8.757
 2489POPC   C2B35396   8.596  32.604   8.333
 2489POPC   C3B35397   8.434  32.419   7.921
 2489POPC   C4B35398   8.287  32.023   7.712
 2490POPC   NC335399  26.219   3.904   9.492
 2490POPC   PO435400  25.670   4.307   9.637
 2490POPC   GL135401  25.858   4.356   9.267
 2490POPC   GL235402  25.845   4.042   9.166
 2490POPC   C1A35403  26.079   4.407   8.858
 2490POPC   D2A35404  26.154   4.583   8.449
 2490POPC   C3A35405  26.054   4.335   8.119
 2490POPC   C4A35406  26.161   4.362   7.731
 2490POPC   C1B35407  25.761   3.944   8.788
 2490POPC   C2B35408  25.916   3.888   8.384
 2490POPC   C3B35409  25.760   3.945   7.980
 2490POPC   C4B35410  25.731   4.137   7.611
 2491POPC   NC335411  41.801  10.242   9.697
 2491POPC   PO435412  41.300  10.433   9.313
 2491POPC   GL135413  41.368  10.624   8.958
 2491POPC   GL235414  41.240  10.976   9.115
 2491POPC   C1A35415  41.763  10.571   8.715
 2491POPC   D2A35416  42.018  10.658   8.361
 2491POPC   C3A35417  41.800  10.437   8.024
 2491POPC   C4A35418  41.634  10.220   7.662
 2491POPC   C1B35419  41.035  10.907   8.743
 2491POPC   C2B35420  41.295  10.659   8.430
 2491POPC   C3B35421  41.328  10.692   7.962
 2491POPC   C4B35422  41.121  10.443   7.635
 2492POPC   NC335423   8.797  35.071   9.929
 2492POPC   PO435424   8.641  35.255   9.309
 2492POPC   GL135425   8.980  35.252   9.032
 2492POPC   GL235426   9.209  35.588   9.001
 2492POPC   C1A35427   8.777  35.194   8.654
 2492POPC   D2A35428   8.605  35.460   8.383
 2492POPC   C3A35429   8.974  35.554   8.136
 2492POPC   C4A35430   8.785  35.267   7.907
 2492POPC   C1B35431   9.205  35.450   8.591
 2492POPC   C2B35432   9.161  35.075   8.300
 2492POPC   C3B35433   9.417  34.937   7.957
 2492POPC   C4B35434   9.254  35.259   7.684
 2493POPC   NC335435   7.128  29.983   9.453
 2493POPC   PO435436   7.579  30.352   9.767
 2493POPC   GL135437   7.678  30.310   9.283
 2493POPC   GL235438   7.573  29.982   9.175
 2493POPC   C1A35439   7.665  30.311   8.789
 2493POPC   D2A35440   7.635  30.030   8.397
 2493POPC   C3A35441   7.600  30.187   7.956
 2493POPC   C4A35442   7.281  30.174   7.623
 2493POPC   C1B35443   7.576  29.719   8.801
 2493POPC   C2B35444   7.584  29.515   8.360
 2493POPC   C3B35445   7.702  29.677   7.935
 2493POPC   C4B35446   7.638  29.841   7.506
 2494POPC   NC335447  23.874  15.399   9.704
 2494POPC   PO435448  23.246  15.443   9.687
 2494POPC   GL135449  23.561  15.590   9.342
 2494POPC   GL235450  23.930  15.568   9.232
 2494POPC   C1A35451  23.558  15.408   8.928
 2494POPC   D2A35452  23.681  15.156   8.578
 2494POPC   C3A35453  23.568  15.292   8.177
 2494POPC   C4A35454  23.698  15.401   7.784
 2494POPC   C1B35455  24.057  15.243   8.953
 2494POPC   C2B35456  24.187  15.242   8.543
 2494POPC   C3B35457  24.072  15.202   8.129
 2494POPC   C4B35458  24.019  14.871   7.813
 2495POPC   NC335459  30.489  18.115   9.345
 2495POPC   PO435460  31.085  18.357   9.463
 2495POPC   GL135461  30.897  18.272   9.056
 2495POPC   GL235462  30.645  18.504   9.085
 2495POPC   C1A35463  30.675  17.991   8.716
 2495POPC   D2A35464  30.538  17.820   8.287
 2495POPC   C3A35465  30.692  18.091   7.948
 2495POPC   C4A35466  31.100  18.105   7.836
 2495POPC   C1B35467  30.373  18.408   8.740
 2495POPC   C2B35468  30.487  18.337   8.343
 2495POPC   C3B35469  30.407  18.530   7.928
 2495POPC   C4B35470  30.350  18.342   7.476
 2496POPC   NC335471   2.024  41.147   9.583
 2496POPC   PO435472   2.262  40.472   9.444
 2496POPC   GL135473   2.157  40.783   9.166
 2496POPC   GL235474   2.307  41.061   9.076
 2496POPC   C1A35475   2.236  40.698   8.732
 2496POPC   D2A35476   2.051  40.543   8.406
 2496POPC   C3A35477   2.266  40.602   8.036
 2496POPC   C4A35478   2.022  40.572   7.668
 2496POPC   C1B35479   2.368  41.171   8.648
 2496POPC   C2B35480   2.136  41.070   8.288
 2496POPC   C3B35481   2.143  41.058   7.842
 2496POPC   C4B35482   2.214  40.977   7.410
 2497POPC   NC335483  18.006  26.040   9.550
 2497POPC   PO435484  18.673  26.025   9.659
 2497POPC   GL135485  18.416  25.976   9.257
 2497POPC   GL235486  18.198  26.200   9.096
 2497POPC   C1A35487  18.435  25.824   8.821
 2497POPC   D2A35488  18.204  25.664   8.461
 2497POPC   C3A35489  18.360  25.790   8.073
 2497POPC   C4A35490  18.183  25.820   7.682
 2497POPC   C1B35491  17.971  26.053   8.729
 2497POPC   C2B35492  18.067  26.157   8.282
 2497POPC   C3B35493  18.305  26.283   7.888
 2497POPC   C4B35494  18.254  26.378   7.438
 2498POPC   NC335495  32.649  42.534   9.605
 2498POPC   PO435496  33.150  42.315   9.629
 2498POPC   GL135497  32.995  42.348   9.185
 2498POPC   GL235498  32.639  42.311   9.136
 2498POPC   C1A35499  33.017  42.519   8.735
 2498POPC   D2A35500  32.849  42.689   8.322
 2498POPC   C3A35501  33.111  42.695   7.940
 2498POPC   C4A35502  33.129  42.637   7.488
 2498POPC   C1B35503  32.772  42.064   8.764
 2498POPC   C2B35504  32.942  42.174   8.330
 2498POPC   C3B35505  32.834  42.274   7.887
 2498POPC   C4B35506  32.876  42.179   7.434
 2499POPC   NC335507  37.814   5.331   9.564
 2499POPC   PO435508  38.199   4.803   9.509
 2499POPC   GL135509  37.786   4.861   9.201
 2499POPC   GL235510  37.622   5.185   9.133
 2499POPC   C1A35511  37.659   4.927   8.724
 2499POPC   D2A35512  37.727   5.009   8.323
 2499POPC   C3A35513  37.470   4.884   7.996
 2499POPC   C4A35514  37.665   4.802   7.614
 2499POPC   C1B35515  37.317   5.321   8.824
 2499POPC   C2B35516  37.221   5.154   8.417
 2499POPC   C3B35517  37.240   5.332   8.001
 2499POPC   C4B35518  37.390   5.226   7.580
 2500POPC   NC335519  18.924  28.137   9.430
 2500POPC   PO435520  19.436  28.531   9.517
 2500POPC   GL135521  19.174  28.514   9.138
 2500POPC   GL235522  19.149  28.183   8.977
 2500POPC   C1A35523  19.101  28.637   8.711
 2500POPC   D2A35524  19.139  28.316   8.403
 2500POPC   C3A35525  19.169  28.499   7.993
 2500POPC   C4A35526  18.868  28.496   7.675
 2500POPC   C1B35527  18.896  27.949   8.707
 2500POPC   C2B35528  18.874  27.852   8.311
 2500POPC   C3B35529  19.121  28.001   7.974
 2500POPC   C4B35530  19.041  28.034   7.512
 2501POPC   NC335531  21.265   8.315   9.653
 2501POPC   PO435532  21.789   7.874   9.444
 2501POPC   GL135533  21.499   8.195   9.210
 2501POPC   GL235534  21.143   8.117   9.170
 2501POPC   C1A35535  21.358   8.394   8.820
 2501POPC   D2A35536  21.147   8.287   8.418
 2501POPC   C3A35537  21.365   8.423   8.029
 2501POPC   C4A35538  21.606   8.570   7.664
 2501POPC   C1B35539  21.353   7.883   8.837
 2501POPC   C2B35540  21.404   7.779   8.434
 2501POPC   C3B35541  21.226   7.915   8.072
 2501POPC   C4B35542  21.396   8.017   7.699
 2502POPC   NC335543  30.189  16.628   9.502
 2502POPC   PO435544  29.603  16.357   9.444
 2502POPC   GL135545  29.847  16.524   9.113
 2502POPC   GL235546  29.910  16.873   9.149
 2502POPC   C1A35547  29.800  16.686   8.706
 2502POPC   D2A35548  29.936  16.600   8.310
 2502POPC   C3A35549  29.721  16.703   7.968
 2502POPC   C4A35550  29.911  16.853   7.616
 2502POPC   C1B35551  30.237  16.992   8.827
 2502POPC   C2B35552  30.355  16.870   8.429
 2502POPC   C3B35553  30.211  16.966   8.031
 2502POPC   C4B35554  30.406  16.942   7.654
 2503POPC   NC335555   7.765   7.102   9.925
 2503POPC   PO435556   8.195   7.218   9.411
 2503POPC   GL135557   8.174   7.449   9.084
 2503POPC   GL235558   8.358   7.745   9.100
 2503POPC   C1A35559   8.225   7.400   8.686
 2503POPC   D2A35560   8.021   7.607   8.416
 2503POPC   C3A35561   7.851   7.329   8.150
 2503POPC   C4A35562   7.976   7.239   7.737
 2503POPC   C1B35563   8.651   7.639   8.757
 2503POPC   C2B35564   8.501   7.750   8.361
 2503POPC   C3B35565   8.305   7.586   7.986
 2503POPC   C4B35566   8.532   7.710   7.652
 2504POPC   NC335567  30.116   4.886   9.448
 2504POPC   PO435568  29.737   5.380   9.719
 2504POPC   GL135569  29.839   5.296   9.273
 2504POPC   GL235570  29.637   5.022   9.125
 2504POPC   C1A35571  30.007   5.262   8.836
 2504POPC   D2A35572  29.982   5.427   8.403
 2504POPC   C3A35573  30.123   5.272   8.036
 2504POPC   C4A35574  30.044   5.451   7.641
 2504POPC   C1B35575  29.772   4.779   8.769
 2504POPC   C2B35576  29.630   4.912   8.377
 2504POPC   C3B35577  29.725   4.961   7.961
 2504POPC   C4B35578  29.823   5.009   7.517
 2505POPC   NC335579  29.401  26.534   9.541
 2505POPC   PO435580  30.018  26.409   9.473
 2505POPC   GL135581  29.991  26.294   9.054
 2505POPC   GL235582  29.784  26.011   9.092
 2505POPC   C1A35583  29.891  26.234   8.610
 2505POPC   D2A35584  29.694  26.249   8.197
 2505POPC   C3A35585  29.996  26.253   7.880
 2505POPC   C4A35586  30.152  25.961   7.556
 2505POPC   C1B35587  29.884  25.739   8.727
 2505POPC   C2B35588  29.937  25.801   8.261
 2505POPC   C3B35589  29.739  25.798   7.833
 2505POPC   C4B35590  29.749  25.654   7.378
 2506POPC   NC335591  35.586   2.565   9.601
 2506POPC   PO435592  35.228   3.135   9.521
 2506POPC   GL135593  35.391   2.840   9.175
 2506POPC   GL235594  35.398   2.457   9.140
 2506POPC   C1A35595  35.299   2.724   8.729
 2506POPC   D2A35596  35.447   2.453   8.409
 2506POPC   C3A35597  35.418   2.695   8.035
 2506POPC   C4A35598  35.504   2.745   7.605
 2506POPC   C1B35599  35.603   2.157   8.842
 2506POPC   C2B35600  35.850   2.135   8.424
 2506POPC   C3B35601  35.766   2.313   7.998
 2506POPC   C4B35602  35.557   2.121   7.624
 2507POPC   NC335603  34.006  12.042   9.538
 2507POPC   PO435604  33.510  11.535   9.512
 2507POPC   GL135605  33.658  11.860   9.167
 2507POPC   GL235606  33.656  12.260   9.232
 2507POPC   C1A35607  33.764  11.820   8.714
 2507POPC   D2A35608  33.924  12.023   8.355
 2507POPC   C3A35609  33.666  11.932   8.006
 2507POPC   C4A35610  33.868  11.810   7.652
 2507POPC   C1B35611  33.637  12.312   8.800
 2507POPC   C2B35612  33.531  12.329   8.367
 2507POPC   C3B35613  33.762  12.444   8.005
 2507POPC   C4B35614  33.676  12.289   7.589
 2508POPC   NC335615  21.275  11.065   9.294
 2508POPC   PO435616  21.772  10.515   9.540
 2508POPC   GL135617  21.584  10.437   9.115
 2508POPC   GL235618  21.487  10.751   8.962
 2508POPC   C1A35619  21.209  10.322   8.824
 2508POPC   D2A35620  21.033  10.098   8.443
 2508POPC   C3A35621  21.083  10.214   8.029
 2508POPC   C4A35622  21.322  10.540   7.880
 2508POPC   C1B35623  21.403  10.692   8.504
 2508POPC   C2B35624  21.717  10.712   8.165
 2508POPC   C3B35625  21.604  10.945   7.761
 2508POPC   C4B35626  21.227  11.031   7.541
 2509POPC   NC335627  39.649   2.588   9.817
 2509POPC   PO435628  39.323   2.965   9.364
 2509POPC   GL135629  39.065   3.046   9.051
 2509POPC   GL235630  39.102   2.663   9.030
 2509POPC   C1A35631  39.057   3.033   8.619
 2509POPC   D2A35632  39.396   2.974   8.319
 2509POPC   C3A35633  39.429   3.119   7.899
 2509POPC   C4A35634  39.332   2.879   7.533
 2509POPC   C1B35635  39.364   2.637   8.701
 2509POPC   C2B35636  39.241   2.462   8.343
 2509POPC   C3B35637  39.131   2.430   7.913
 2509POPC   C4B35638  39.394   2.359   7.543
 2510POPC   NC335639   0.603  25.049   9.494
 2510POPC   PO435640   0.158  25.564   9.622
 2510POPC   GL135641   0.240  25.333   9.199
 2510POPC   GL235642   0.559  25.173   9.017
 2510POPC   C1A35643   0.119  25.098   8.815
 2510POPC   D2A35644   0.397  25.046   8.512
 2510POPC   C3A35645   0.257  25.270   8.202
 2510POPC   C4A35646   0.357  25.226   7.811
 2510POPC   C1B35647   0.444  25.515   8.765
 2510POPC   C2B35648   0.593  25.670   8.425
 2510POPC   C3B35649   0.699  25.499   8.075
 2510POPC   C4B35650   0.646  25.632   7.666
 2511POPC   NC335651  12.777  41.606   9.445
 2511POPC   PO435652  12.711  42.363   9.317
 2511POPC   GL135653  12.665  41.947   9.074
 2511POPC   GL235654  12.980  41.749   8.990
 2511POPC   C1A35655  12.549  41.583   8.782
 2511POPC   D2A35656  12.633  41.364   8.382
 2511POPC   C3A35657  12.733  41.669   8.046
 2511POPC   C4A35658  12.974  41.864   7.704
 2511POPC   C1B35659  12.971  41.307   8.824
 2511POPC   C2B35660  13.120  41.155   8.398
 2511POPC   C3B35661  12.977  41.228   7.980
 2511POPC   C4B35662  12.531  41.201   7.897
 2512POPC   NC335663   5.773  42.685   9.592
 2512POPC   PO435664   5.974  41.997   9.636
 2512POPC   GL135665   5.843  42.233   9.221
 2512POPC   GL235666   5.888  42.627   9.106
 2512POPC   C1A35667   5.823  42.103   8.795
 2512POPC   D2A35668   5.485  42.075   8.498
 2512POPC   C3A35669   5.707  42.257   8.137
 2512POPC   C4A35670   5.908  42.042   7.804
 2512POPC   C1B35671   6.172  42.523   8.793
 2512POPC   C2B35672   6.164  42.309   8.417
 2512POPC   C3B35673   6.260  42.433   7.993
 2512POPC   C4B35674   6.094  42.459   7.577
 2513POPC   NC335675   5.224  28.549   9.765
 2513POPC   PO435676   5.353  28.056   9.514
 2513POPC   GL135677   5.185  28.088   9.054
 2513POPC   GL235678   5.152  28.443   8.963
 2513POPC   C1A35679   5.112  28.117   8.574
 2513POPC   D2A35680   4.868  28.264   8.212
 2513POPC   C3A35681   5.133  28.202   7.855
 2513POPC   C4A35682   5.548  28.275   7.685
 2513POPC   C1B35683   4.933  28.617   8.590
 2513POPC   C2B35684   4.890  28.781   8.158
 2513POPC   C3B35685   4.958  28.663   7.759
 2513POPC   C4B35686   4.724  28.729   7.343
 2514POPC   NC335687  11.783  27.960   9.478
 2514POPC   PO435688  12.188  28.568   9.515
 2514POPC   GL135689  12.329  28.481   9.137
 2514POPC   GL235690  12.153  28.155   9.170
 2514POPC   C1A35691  12.213  28.429   8.727
 2514POPC   D2A35692  12.055  28.297   8.373
 2514POPC   C3A35693  12.276  28.473   8.061
 2514POPC   C4A35694  12.040  28.667   7.786
 2514POPC   C1B35695  12.027  27.953   8.796
 2514POPC   C2B35696  12.244  27.821   8.420
 2514POPC   C3B35697  12.095  27.920   8.027
 2514POPC   C4B35698  12.291  28.112   7.696
 2515POPC   NC335699   3.911  36.268   9.443
 2515POPC   PO435700   4.559  36.355   9.226
 2515POPC   GL135701   4.262  36.373   8.940
 2515POPC   GL235702   4.009  36.616   9.053
 2515POPC   C1A35703   4.357  36.410   8.489
 2515POPC   D2A35704   4.693  36.166   8.262
 2515POPC   C3A35705   4.632  36.141   7.800
 2515POPC   C4A35706   4.333  36.005   7.484
 2515POPC   C1B35707   3.849  36.388   8.664
 2515POPC   C2B35708   3.926  36.193   8.247
 2515POPC   C3B35709   4.167  36.339   7.889
 2515POPC   C4B35710   4.063  36.739   7.678
 2516POPC   NC335711  44.250   3.899   9.994
 2516POPC   PO435712  44.031   4.176   9.416
 2516POPC   GL135713  43.967   4.401   9.059
 2516POPC   GL235714  44.267   4.579   8.930
 2516POPC   C1A35715  43.692   4.324   8.703
 2516POPC   D2A35716  43.772   3.961   8.402
 2516POPC   C3A35717  43.686   4.119   7.995
 2516POPC   C4A35718  43.957   4.391   7.754
 2516POPC   C1B35719  44.000   4.736   8.607
 2516POPC   C2B35720  44.025   4.708   8.151
 2516POPC   C3B35721  44.142   4.876   7.745
 2516POPC   C4B35722  44.266   4.706   7.307
 2517POPC   NC335723  10.665  22.073   9.512
 2517POPC   PO435724  10.103  21.719   9.401
 2517POPC   GL135725  10.297  22.088   9.163
 2517POPC   GL235726  10.673  22.160   9.028
 2517POPC   C1A35727  10.249  22.089   8.725
 2517POPC   D2A35728  10.303  21.788   8.397
 2517POPC   C3A35729  10.199  21.993   8.002
 2517POPC   C4A35730  10.050  22.418   7.862
 2517POPC   C1B35731  10.694  22.299   8.584
 2517POPC   C2B35732  10.414  22.430   8.266
 2517POPC   C3B35733  10.566  22.345   7.873
 2517POPC   C4B35734  10.778  21.961   7.801
 2518POPC   NC335735  44.917  43.753   9.415
 2518POPC   PO435736  44.323  43.709   9.604
 2518POPC   GL135737  44.433  43.981   9.244
 2518POPC   GL235738  44.703  44.231   9.137
 2518POPC   C1A35739  44.476  43.868   8.810
 2518POPC   D2A35740  44.403  43.597   8.449
 2518POPC   C3A35741  44.392  43.776   8.048
 2518POPC   C4A35742  44.678  43.704   7.715
 2518POPC   C1B35743  44.903  44.153   8.767
 2518POPC   C2B35744  44.859  43.896   8.419
 2518POPC   C3B35745  44.809  44.089   8.050
 2518POPC   C4B35746  44.909  44.194   7.624
 2519POPC   NC335747  43.402  22.625   9.629
 2519POPC   PO435748  42.821  22.224   9.563
 2519POPC   GL135749  43.036  22.303   9.219
 2519POPC   GL235750  42.968  21.950   9.101
 2519POPC   C1A35751  43.222  22.309   8.838
 2519POPC   D2A35752  43.311  22.047   8.521
 2519POPC   C3A35753  43.243  22.095   8.069
 2519POPC   C4A35754  43.461  22.099   7.662
 2519POPC   C1B35755  42.805  21.843   8.673
 2519POPC   C2B35756  42.674  21.783   8.240
 2519POPC   C3B35757  42.762  21.997   7.857
 2519POPC   C4B35758  42.907  22.411   7.751
 2520POPC   NC335759  13.171   1.469   9.178
 2520POPC   PO435760  12.638   1.205   9.484
 2520POPC   GL135761  12.710   1.183   9.105
 2520POPC   GL235762  12.691   1.522   9.046
 2520POPC   C1A35763  12.821   1.088   8.725
 2520POPC   D2A35764  13.036   1.324   8.471
 2520POPC   C3A35765  12.985   1.248   8.048
 2520POPC   C4A35766  13.169   1.415   7.705
 2520POPC   C1B35767  12.562   1.490   8.660
 2520POPC   C2B35768  12.523   1.332   8.282
 2520POPC   C3B35769  12.540   1.523   7.902
 2520POPC   C4B35770  12.707   1.466   7.508
 2521POPC   NC335771  23.303   3.618   9.447
 2521POPC   PO435772  22.579   3.501   9.298
 2521POPC   GL135773  22.898   3.714   9.128
 2521POPC   GL235774  23.072   3.422   9.021
 2521POPC   C1A35775  22.986   3.862   8.715
 2521POPC   D2A35776  23.193   3.947   8.330
 2521POPC   C3A35777  22.979   3.679   8.055
 2521POPC   C4A35778  22.846   3.757   7.661
 2521POPC   C1B35779  22.782   3.240   8.698
 2521POPC   C2B35780  22.659   3.300   8.253
 2521POPC   C3B35781  22.853   3.195   7.861
 2521POPC   C4B35782  22.948   3.306   7.438
 2522POPC   NC335783  20.326  19.240   9.658
 2522POPC   PO435784  20.783  19.178   9.627
 2522POPC   GL135785  20.620  19.025   9.222
 2522POPC   GL235786  20.275  18.935   9.209
 2522POPC   C1A35787  20.638  19.037   8.743
 2522POPC   D2A35788  20.603  19.292   8.337
 2522POPC   C3A35789  20.584  19.091   7.905
 2522POPC   C4A35790  20.390  18.783   7.602
 2522POPC   C1B35791  20.126  19.006   8.752
 2522POPC   C2B35792  20.242  18.922   8.307
 2522POPC   C3B35793  20.076  19.073   7.902
 2522POPC   C4B35794  20.232  19.299   7.537
 2523POPC   NC335795  33.438  34.343   9.497
 2523POPC   PO435796  33.954  34.793   9.457
 2523POPC   GL135797  33.663  34.648   9.161
 2523POPC   GL235798  33.526  34.945   9.114
 2523POPC   C1A35799  33.730  34.404   8.757
 2523POPC   D2A35800  33.848  34.580   8.344
 2523POPC   C3A35801  34.021  34.319   8.020
 2523POPC   C4A35802  33.631  34.308   7.791
 2523POPC   C1B35803  33.751  34.919   8.738
 2523POPC   C2B35804  33.740  35.157   8.380
 2523POPC   C3B35805  33.604  35.042   8.014
 2523POPC   C4B35806  33.852  34.758   7.850
 2524POPC   NC335807  37.466  17.892  10.039
 2524POPC   PO435808  37.406  17.440   9.551
 2524POPC   GL135809  37.647  17.405   9.187
 2524POPC   GL235810  37.762  17.082   9.187
 2524POPC   C1A35811  37.554  17.343   8.764
 2524POPC   D2A35812  37.606  17.617   8.424
 2524POPC   C3A35813  37.385  17.622   8.067
 2524POPC   C4A35814  37.596  17.617   7.669
 2524POPC   C1B35815  37.956  16.994   8.817
 2524POPC   C2B35816  37.808  17.068   8.404
 2524POPC   C3B35817  37.813  17.311   8.038
 2524POPC   C4B35818  37.820  17.133   7.649
 2525POPC   NC335819  28.185   5.632   9.899
 2525POPC   PO435820  28.497   6.103   9.459
 2525POPC   GL135821  28.274   6.101   9.115
 2525POPC   GL235822  28.291   5.765   9.065
 2525POPC   C1A35823  28.263   6.170   8.716
 2525POPC   D2A35824  28.188   5.787   8.525
 2525POPC   C3A35825  28.136   5.860   8.125
 2525POPC   C4A35826  28.269   6.206   7.884
 2525POPC   C1B35827  28.508   5.485   8.795
 2525POPC   C2B35828  28.613   5.537   8.382
 2525POPC   C3B35829  28.566   5.643   7.968
 2525POPC   C4B35830  28.709   5.495   7.587
 2526POPC   NC335831  21.271  36.879   9.619
 2526POPC   PO435832  21.907  36.805   9.454
 2526POPC   GL135833  21.528  36.751   9.182
 2526POPC   GL235834  21.164  36.813   9.146
 2526POPC   C1A35835  21.491  36.675   8.766
 2526POPC   D2A35836  21.588  36.941   8.443
 2526POPC   C3A35837  21.494  36.882   8.030
 2526POPC   C4A35838  21.827  37.077   7.765
 2526POPC   C1B35839  20.988  36.652   8.802
 2526POPC   C2B35840  21.119  36.718   8.387
 2526POPC   C3B35841  20.875  36.884   8.049
 2526POPC   C4B35842  21.066  36.912   7.675
 2527POPC   NC335843  14.535  24.412   9.431
 2527POPC   PO435844  14.676  25.100   9.397
 2527POPC   GL135845  14.574  24.794   9.077
 2527POPC   GL235846  14.238  24.697   9.108
 2527POPC   C1A35847  14.584  24.446   8.757
 2527POPC   D2A35848  14.804  24.349   8.353
 2527POPC   C3A35849  14.654  24.551   7.966
 2527POPC   C4A35850  14.321  24.567   7.634
 2527POPC   C1B35851  14.075  24.406   8.781
 2527POPC   C2B35852  13.962  24.427   8.347
 2527POPC   C3B35853  13.915  24.372   7.881
 2527POPC   C4B35854  13.804  24.306   7.424
 2528POPC   NC335855  28.156  26.771   9.723
 2528POPC   PO435856  27.531  26.936   9.570
 2528POPC   GL135857  27.742  26.948   9.178
 2528POPC   GL235858  28.011  27.188   9.161
 2528POPC   C1A35859  27.556  27.036   8.732
 2528POPC   D2A35860  27.357  26.789   8.384
 2528POPC   C3A35861  27.496  26.792   7.932
 2528POPC   C4A35862  27.444  26.495   7.576
 2528POPC   C1B35863  28.052  26.931   8.773
 2528POPC   C2B35864  27.891  26.813   8.371
 2528POPC   C3B35865  28.011  26.938   7.960
 2528POPC   C4B35866  27.912  26.698   7.598
 2529POPC   NC335867  42.447  17.774   9.403
 2529POPC   PO435868  41.950  17.276   9.517
 2529POPC   GL135869  42.101  17.503   9.140
 2529POPC   GL235870  41.894  17.774   9.052
 2529POPC   C1A35871  42.415  17.378   8.788
 2529POPC   D2A35872  42.580  17.271   8.317
 2529POPC   C3A35873  42.316  17.422   7.937
 2529POPC   C4A35874  42.183  17.494   7.495
 2529POPC   C1B35875  42.170  17.861   8.751
 2529POPC   C2B35876  42.291  17.687   8.391
 2529POPC   C3B35877  42.599  17.801   8.119
 2529POPC   C4B35878  42.374  17.937   7.749
 2530POPC   NC335879  39.570   2.567   9.302
 2530POPC   PO435880  39.994   3.036   9.604
 2530POPC   GL135881  40.056   2.846   9.193
 2530POPC   GL235882  39.759   2.967   9.057
 2530POPC   C1A35883  40.177   3.023   8.750
 2530POPC   D2A35884  40.348   3.051   8.318
 2530POPC   C3A35885  40.064   2.826   8.018
 2530POPC   C4A35886  39.839   2.983   7.651
 2530POPC   C1B35887  39.886   2.628   8.747
 2530POPC   C2B35888  39.750   2.567   8.357
 2530POPC   C3B35889  39.593   2.624   7.966
 2530POPC   C4B35890  39.863   2.466   7.691
 2531POPC   NC335891   3.314  21.280   9.808
 2531POPC   PO435892   2.674  21.354   9.682
 2531POPC   GL135893   2.880  21.208   9.181
 2531POPC   GL235894   2.857  21.517   8.931
 2531POPC   C1A35895   3.109  21.158   8.742
 2531POPC   D2A35896   2.990  21.500   8.421
 2531POPC   C3A35897   3.054  21.472   7.983
 2531POPC   C4A35898   2.945  21.474   7.557
 2531POPC   C1B35899   2.539  21.334   8.632
 2531POPC   C2B35900   2.355  21.500   8.248
 2531POPC   C3B35901   2.552  21.648   7.861
 2531POPC   C4B35902   2.458  21.584   7.401
 2532POPC   NC335903  10.846  38.688   9.565
 2532POPC   PO435904  10.133  38.585   9.587
 2532POPC   GL135905  10.501  38.416   9.318
 2532POPC   GL235906  10.512  38.750   9.170
 2532POPC   C1A35907  10.688  38.353   8.876
 2532POPC   D2A35908  10.622  38.101   8.477
 2532POPC   C3A35909  10.643  38.262   8.078
 2532POPC   C4A35910  10.757  38.145   7.668
 2532POPC   C1B35911  10.727  38.885   8.805
 2532POPC   C2B35912  10.641  38.678   8.419
 2532POPC   C3B35913  10.415  38.714   8.021
 2532POPC   C4B35914  10.723  38.669   7.776
 2533POPC   NC335915  10.279   7.210   9.635
 2533POPC   PO435916  10.763   7.700   9.719
 2533POPC   GL135917  10.503   7.582   9.334
 2533POPC   GL235918  10.629   7.252   9.206
 2533POPC   C1A35919  10.509   7.668   8.883
 2533POPC   D2A35920  10.640   7.610   8.521
 2533POPC   C3A35921  10.491   7.693   8.129
 2533POPC   C4A35922  10.581   7.400   7.817
 2533POPC   C1B35923  10.464   7.156   8.786
 2533POPC   C2B35924  10.443   7.146   8.343
 2533POPC   C3B35925  10.164   7.127   7.992
 2533POPC   C4B35926  10.196   7.136   7.548
 2534POPC   NC335927  43.214  23.339   9.425
 2534POPC   PO435928  42.928  23.852   9.744
 2534POPC   GL135929  42.920  23.760   9.245
 2534POPC   GL235930  43.219  23.609   9.015
 2534POPC   C1A35931  42.876  23.882   8.780
 2534POPC   D2A35932  43.117  23.955   8.424
 2534POPC   C3A35933  43.027  23.790   8.082
 2534POPC   C4A35934  43.024  23.433   7.864
 2534POPC   C1B35935  43.428  23.296   8.729
 2534POPC   C2B35936  43.317  23.148   8.295
 2534POPC   C3B35937  43.442  23.122   7.850
 2534POPC   C4B35938  43.489  23.447   7.582
 2535POPC   NC335939  32.115  17.457   9.679
 2535POPC   PO435940  32.569  17.991   9.604
 2535POPC   GL135941  32.211  17.777   9.280
 2535POPC   GL235942  32.076  17.422   9.190
 2535POPC   C1A35943  32.357  17.669   8.834
 2535POPC   D2A35944  32.463  17.405   8.502
 2535POPC   C3A35945  32.368  17.595   8.122
 2535POPC   C4A35946  32.446  17.439   7.727
 2535POPC   C1B35947  32.021  17.293   8.786
 2535POPC   C2B35948  31.921  17.390   8.373
 2535POPC   C3B35949  32.047  17.215   7.981
 2535POPC   C4B35950  31.919  17.459   7.656
 2536POPC   NC335951  26.045  19.375   9.577
 2536POPC   PO435952  26.247  18.744   9.531
 2536POPC   GL135953  26.116  18.859   9.137
 2536POPC   GL235954  26.015  19.181   9.111
 2536POPC   C1A35955  26.191  19.004   8.698
 2536POPC   D2A35956  25.958  18.952   8.423
 2536POPC   C3A35957  26.112  19.042   8.046
 2536POPC   C4A35958  26.347  19.199   7.710
 2536POPC   C1B35959  25.766  19.327   8.720
 2536POPC   C2B35960  25.655  19.309   8.239
 2536POPC   C3B35961  25.846  19.429   7.821
 2536POPC   C4B35962  25.895  19.639   7.407
 2537POPC   NC335963   3.134  24.164   9.438
 2537POPC   PO435964   3.587  23.749   9.537
 2537POPC   GL135965   3.431  23.646   9.126
 2537POPC   GL235966   3.683  23.415   9.070
 2537POPC   C1A35967   3.302  23.432   8.713
 2537POPC   D2A35968   3.469  23.299   8.294
 2537POPC   C3A35969   3.461  23.581   7.924
 2537POPC   C4A35970   3.379  24.013   7.719
 2537POPC   C1B35971   3.821  23.478   8.635
 2537POPC   C2B35972   3.933  23.467   8.191
 2537POPC   C3B35973   3.939  23.471   7.748
 2537POPC   C4B35974   3.715  23.692   7.419
 2538POPC   NC335975  42.944  24.308   9.791
 2538POPC   PO435976  43.393  23.838   9.467
 2538POPC   GL135977  43.322  24.117   9.106
 2538POPC   GL235978  43.224  24.497   9.035
 2538POPC   C1A35979  43.436  24.226   8.686
 2538POPC   D2A35980  43.174  24.470   8.402
 2538POPC   C3A35981  43.083  24.294   8.009
 2538POPC   C4A35982  43.250  24.420   7.620
 2538POPC   C1B35983  42.863  24.678   8.768
 2538POPC   C2B35984  42.701  24.712   8.324
 2538POPC   C3B35985  42.808  24.710   7.875
 2538POPC   C4B35986  42.811  24.688   7.420
 2539POPC   NC335987  25.854   5.703   9.570
 2539POPC   PO435988  26.462   5.728   9.847
 2539POPC   GL135989  26.361   5.724   9.348
 2539POPC   GL235990  26.061   5.649   9.132
 2539POPC   C1A35991  26.478   5.780   8.887
 2539POPC   D2A35992  26.371   6.008   8.499
 2539POPC   C3A35993  26.181   5.810   8.133
 2539POPC   C4A35994  26.443   5.644   7.779
 2539POPC   C1B35995  25.930   5.876   8.750
 2539POPC   C2B35996  25.673   5.813   8.384
 2539POPC   C3B35997  25.730   5.603   7.970
 2539POPC   C4B35998  25.986   5.810   7.652
 2540POPC   NC335999  12.293   4.642   9.479
 2540POPC   PO436000  11.930   5.227   9.525
 2540POPC   GL136001  12.081   5.033   9.162
 2540POPC   GL236002  11.968   4.719   9.098
 2540POPC   C1A36003  12.213   5.243   8.782
 2540POPC   D2A36004  12.291   5.476   8.410
 2540POPC   C3A36005  12.204   5.380   7.960
 2540POPC   C4A36006  11.954   5.293   7.562
 2540POPC   C1B36007  12.147   4.752   8.683
 2540POPC   C2B36008  12.208   4.857   8.244
 2540POPC   C3B36009  12.174   4.890   7.801
 2540POPC   C4B36010  11.984   4.594   7.528
 2541POPC   NC336011  33.344   2.135   9.796
 2541POPC   PO436012  32.749   2.433   9.606
 2541POPC   GL136013  32.829   2.225   9.136
 2541POPC   GL236014  33.113   2.052   9.130
 2541POPC   C1A36015  32.812   1.921   8.725
 2541POPC   D2A36016  33.014   1.590   8.472
 2541POPC   C3A36017  32.927   1.580   8.057
 2541POPC   C4A36018  32.914   1.901   7.787
 2541POPC   C1B36019  33.322   1.885   8.759
 2541POPC   C2B36020  33.522   2.054   8.422
 2541POPC   C3B36021  33.331   2.105   8.034
 2541POPC   C4B36022  33.369   2.024   7.628
 2542POPC   NC336023   0.279  41.021   9.521
 2542POPC   PO436024   0.771  40.627   9.615
 2542POPC   GL136025   0.631  40.816   9.220
 2542POPC   GL236026   0.883  40.935   9.090
 2542POPC   C1A36027   0.385  40.939   8.829
 2542POPC   D2A36028   0.383  40.724   8.389
 2542POPC   C3A36029   0.361  40.896   7.952
 2542POPC   C4A36030   0.170  40.875   7.506
 2542POPC   C1B36031   0.828  40.786   8.663
 2542POPC   C2B36032   0.799  41.004   8.266
 2542POPC   C3B36033   0.859  40.744   7.913
 2542POPC   C4B36034   0.943  40.799   7.490
 2543POPC   NC336035  21.601   1.025   9.391
 2543POPC   PO436036  21.109   1.469   9.597
 2543POPC   GL136037  21.132   1.194   9.183
 2543POPC   GL236038  21.363   1.397   8.944
 2543POPC   C1A36039  21.163   1.002   8.730
 2543POPC   D2A36040  21.380   1.318   8.422
 2543POPC   C3A36041  21.208   1.311   8.024
 2543POPC   C4A36042  21.194   0.970   7.747
 2543POPC   C1B36043  21.669   1.048   8.752
 2543POPC   C2B36044  21.835   0.948   8.396
 2543POPC   C3B36045  21.659   1.068   8.039
 2543POPC   C4B36046  21.733   1.272   7.693
 2544POPC   NC336047  41.697   4.266   9.476
 2544POPC   PO436048  41.225   4.797   9.342
 2544POPC   GL136049  41.385   4.473   9.117
 2544POPC   GL236050  41.260   4.167   9.123
 2544POPC   C1A36051  41.568   4.540   8.752
 2544POPC   D2A36052  41.449   4.328   8.405
 2544POPC   C3A36053  41.366   4.431   7.972
 2544POPC   C4A36054  41.404   4.608   7.574
 2544POPC   C1B36055  41.624   4.030   8.866
 2544POPC   C2B36056  41.657   3.836   8.471
 2544POPC   C3B36057  41.673   4.031   8.056
 2544POPC   C4B36058  41.588   4.115   7.616
 2545POPC   NC336059  34.692  31.870   9.693
 2545POPC   PO436060  34.258  31.486   9.331
 2545POPC   GL136061  34.631  31.469   9.090
 2545POPC   GL236062  34.758  31.819   9.056
 2545POPC   C1A36063  34.752  31.471   8.639
 2545POPC   D2A36064  34.667  31.675   8.225
 2545POPC   C3A36065  34.521  31.486   7.839
 2545POPC   C4A36066  34.527  31.329   7.411
 2545POPC   C1B36067  34.412  31.849   8.713
 2545POPC   C2B36068  34.166  31.645   8.380
 2545POPC   C3B36069  34.118  31.801   7.961
 2545POPC   C4B36070  34.234  31.740   7.494
 2546POPC   NC336071  12.705  24.492   9.552
 2546POPC   PO436072  13.366  24.190   9.506
 2546POPC   GL136073  13.001  24.247   9.213
 2546POPC   GL236074  12.962  24.646   9.148
 2546POPC   C1A36075  12.753  24.292   8.833
 2546POPC   D2A36076  12.897  24.378   8.414
 2546POPC   C3A36077  12.673  24.499   8.073
 2546POPC   C4A36078  12.799  24.439   7.661
 2546POPC   C1B36079  12.921  24.772   8.727
 2546POPC   C2B36080  12.905  24.903   8.287
 2546POPC   C3B36081  13.175  24.926   7.961
 2546POPC   C4B36082  13.119  24.836   7.518
 2547POPC   NC336083   5.388  10.372   9.519
 2547POPC   PO436084   4.870  10.760   9.680
 2547POPC   GL136085   5.068  10.671   9.253
 2547POPC   GL236086   5.419  10.813   9.258
 2547POPC   C1A36087   5.121  10.325   8.883
 2547POPC   D2A36088   5.308  10.162   8.460
 2547POPC   C3A36089   5.114  10.308   8.058
 2547POPC   C4A36090   5.254  10.288   7.621
 2547POPC   C1B36091   5.321  10.809   8.822
 2547POPC   C2B36092   5.136  10.680   8.437
 2547POPC   C3B36093   5.263  10.803   8.018
 2547POPC   C4B36094   5.470  10.736   7.654
 2548POPC   NC336095  36.552  27.090   9.854
 2548POPC   PO436096  37.102  26.895   9.494
 2548POPC   GL136097  36.977  26.649   9.119
 2548POPC   GL236098  37.196  26.416   9.233
 2548POPC   C1A36099  36.837  26.601   8.673
 2548POPC   D2A36100  36.908  26.936   8.348
 2548POPC   C3A36101  36.757  26.976   7.938
 2548POPC   C4A36102  36.689  26.694   7.593
 2548POPC   C1B36103  37.302  26.414   8.794
 2548POPC   C2B36104  37.315  26.603   8.394
 2548POPC   C3B36105  37.086  26.604   8.015
 2548POPC   C4B36106  37.188  26.666   7.619
 2549POPC   NC336107  17.543  12.538   9.834
 2549POPC   PO436108  17.346  12.096   9.434
 2549POPC   GL136109  17.405  12.111   9.059
 2549POPC   GL236110  17.697  12.263   9.101
 2549POPC   C1A36111  17.242  12.080   8.649
 2549POPC   D2A36112  17.225  12.375   8.307
 2549POPC   C3A36113  17.337  12.157   7.948
 2549POPC   C4A36114  17.332  12.080   7.496
 2549POPC   C1B36115  17.771  12.002   8.739
 2549POPC   C2B36116  17.691  12.133   8.355
 2549POPC   C3B36117  17.870  12.304   8.024
 2549POPC   C4B36118  17.832  12.099   7.656
 2550POPC   NC336119   3.457  42.004   9.486
 2550POPC   PO436120   3.629  42.740   9.434
 2550POPC   GL136121   3.505  42.388   9.085
 2550POPC   GL236122   3.282  42.067   9.035
 2550POPC   C1A36123   3.670  42.126   8.709
 2550POPC   D2A36124   3.543  41.909   8.326
 2550POPC   C3A36125   3.719  42.001   7.956
 2550POPC   C4A36126   3.852  42.411   7.839
 2550POPC   C1B36127   3.153  42.174   8.642
 2550POPC   C2B36128   2.956  42.207   8.260
 2550POPC   C3B36129   3.180  42.041   7.956
 2550POPC   C4B36130   3.347  42.197   7.607
 2551POPC   NC336131   3.374  22.351   9.588
 2551POPC   PO436132   3.393  21.663   9.565
 2551POPC   GL136133   3.609  21.910   9.187
 2551POPC   GL236134   3.486  22.296   9.112
 2551POPC   C1A36135   3.634  22.037   8.721
 2551POPC   D2A36136   3.772  22.181   8.339
 2551POPC   C3A36137   3.543  22.099   7.946
 2551POPC   C4A36138   3.611  22.227   7.514
 2551POPC   C1B36139   3.483  22.522   8.707
 2551POPC   C2B36140   3.327  22.453   8.273
 2551POPC   C3B36141   3.449  22.594   7.843
 2551POPC   C4B36142   3.459  22.732   7.415
 2552POPC   NC336143  35.748  34.000   9.315
 2552POPC   PO436144  36.126  33.575   9.730
 2552POPC   GL136145  36.307  33.811   9.240
 2552POPC   GL236146  36.594  33.598   9.148
 2552POPC   C1A36147  36.141  34.043   8.839
 2552POPC   D2A36148  36.158  34.023   8.414
 2552POPC   C3A36149  35.930  33.700   8.262
 2552POPC   C4A36150  35.824  33.792   7.861
 2552POPC   C1B36151  36.352  33.583   8.748
 2552POPC   C2B36152  36.386  33.407   8.328
 2552POPC   C3B36153  36.298  33.584   7.922
 2552POPC   C4B36154  36.212  33.537   7.483
 2553POPC   NC336155  39.340  33.109   9.456
 2553POPC   PO436156  38.848  32.822   9.793
 2553POPC   GL136157  39.021  32.744   9.262
 2553POPC   GL236158  39.331  32.737   9.110
 2553POPC   C1A36159  38.979  32.677   8.747
 2553POPC   D2A36160  38.865  32.900   8.318
 2553POPC   C3A36161  38.918  32.846   7.842
 2553POPC   C4A36162  39.069  33.182   7.572
 2553POPC   C1B36163  39.539  32.817   8.708
 2553POPC   C2B36164  39.583  32.867   8.292
 2553POPC   C3B36165  39.364  33.061   7.998
 2553POPC   C4B36166  39.462  32.896   7.605
 2554POPC   NC336167  23.192  34.992   9.555
 2554POPC   PO436168  23.024  35.659   9.450
 2554POPC   GL136169  23.058  35.321   9.152
 2554POPC   GL236170  22.800  35.112   9.012
 2554POPC   C1A36171  23.189  35.277   8.701
 2554POPC   D2A36172  23.011  35.243   8.270
 2554POPC   C3A36173  23.229  35.255   7.872
 2554POPC   C4A36174  23.133  35.548   7.534
 2554POPC   C1B36175  22.508  35.313   8.715
 2554POPC   C2B36176  22.478  35.500   8.295
 2554POPC   C3B36177  22.751  35.540   7.896
 2554POPC   C4B36178  22.642  35.357   7.477
 2555POPC   NC336179   1.618  43.909   9.237
 2555POPC   PO436180   1.105  44.125   9.631
 2555POPC   GL136181   1.052  43.932   9.208
 2555POPC   GL236182   0.825  43.601   9.199
 2555POPC   C1A36183   1.111  44.087   8.778
 2555POPC   D2A36184   0.929  44.160   8.359
 2555POPC   C3A36185   1.185  44.128   7.982
 2555POPC   C4A36186   1.439  44.020   7.624
 2555POPC   C1B36187   1.140  43.565   8.868
 2555POPC   C2B36188   1.238  43.684   8.455
 2555POPC   C3B36189   1.161  43.614   8.024
 2555POPC   C4B36190   1.418  43.478   7.716
 2556POPC   NC336191  15.920   7.791   9.360
 2556POPC   PO436192  16.281   8.449   9.371
 2556POPC   GL136193  16.053   8.391   8.999
 2556POPC   GL236194  15.770   8.177   9.040
 2556POPC   C1A36195  16.129   8.404   8.551
 2556POPC   D2A36196  16.406   8.182   8.275
 2556POPC   C3A36197  16.206   8.226   7.883
 2556POPC   C4A36198  15.803   8.469   7.863
 2556POPC   C1B36199  15.869   7.970   8.672
 2556POPC   C2B36200  15.783   8.133   8.253
 2556POPC   C3B36201  15.769   7.930   7.846
 2556POPC   C4B36202  16.004   7.943   7.473
 2557POPC   NC336203  22.133  43.367   9.382
 2557POPC   PO436204  22.375  42.739   9.471
 2557POPC   GL136205  22.461  42.905   9.077
 2557POPC   GL236206  22.388  43.257   8.989
 2557POPC   C1A36207  22.300  42.914   8.650
 2557POPC   D2A36208  21.939  42.983   8.407
 2557POPC   C3A36209  22.148  42.959   8.025
 2557POPC   C4A36210  22.140  42.970   7.597
 2557POPC   C1B36211  22.425  43.510   8.673
 2557POPC   C2B36212  22.430  43.310   8.305
 2557POPC   C3B36213  22.346  43.410   7.907
 2557POPC   C4B36214  22.228  43.521   7.535
 2558POPC   NC336215  34.065   2.857   9.533
 2558POPC   PO436216  33.578   2.410   9.527
 2558POPC   GL136217  33.748   2.632   9.171
 2558POPC   GL236218  34.073   2.530   9.129
 2558POPC   C1A36219  33.565   2.806   8.795
 2558POPC   D2A36220  33.693   2.889   8.365
 2558POPC   C3A36221  33.619   2.510   8.163
 2558POPC   C4A36222  33.726   2.320   7.800
 2558POPC   C1B36223  34.106   2.845   8.818
 2558POPC   C2B36224  34.192   3.103   8.456
 2558POPC   C3B36225  34.049   3.090   8.041
 2558POPC   C4B36226  33.782   2.837   7.787
 2559POPC   NC336227  24.251  29.130   9.606
 2559POPC   PO436228  24.634  29.684   9.435
 2559POPC   GL136229  24.636  29.269   9.198
 2559POPC   GL236230  24.476  28.923   9.212
 2559POPC   C1A36231  24.407  29.234   8.809
 2559POPC   D2A36232  24.301  29.461   8.460
 2559POPC   C3A36233  24.356  29.226   8.081
 2559POPC   C4A36234  24.694  29.196   7.801
 2559POPC   C1B36235  24.619  28.770   8.836
 2559POPC   C2B36236  24.428  28.765   8.442
 2559POPC   C3B36237  24.527  28.736   8.018
 2559POPC   C4B36238  24.309  28.906   7.651
 2560POPC   NC336239  33.187   2.642   9.626
 2560POPC   PO436240  32.719   2.995   9.322
 2560POPC   GL136241  32.910   2.731   9.015
 2560POPC   GL236242  33.231   2.571   9.133
 2560POPC   C1A36243  32.837   2.666   8.600
 2560POPC   D2A36244  33.205   2.748   8.365
 2560POPC   C3A36245  33.203   2.958   7.975
 2560POPC   C4A36246  32.858   2.816   7.665
 2560POPC   C1B36247  33.258   2.391   8.747
 2560POPC   C2B36248  33.031   2.244   8.409
 2560POPC   C3B36249  32.922   2.438   8.026
 2560POPC   C4B36250  33.273   2.527   7.725
 2561POPC   NC336251   8.772  20.489   9.539
 2561POPC   PO436252   9.038  21.105   9.575
 2561POPC   GL136253   8.861  20.871   9.216
 2561POPC   GL236254   9.042  20.551   9.108
 2561POPC   C1A36255   8.820  20.829   8.765
 2561POPC   D2A36256   9.098  20.625   8.462
 2561POPC   C3A36257   8.980  20.561   8.047
 2561POPC   C4A36258   9.055  20.168   7.856
 2561POPC   C1B36259   9.018  20.228   8.757
 2561POPC   C2B36260   8.835  20.134   8.336
 2561POPC   C3B36261   8.553  20.294   7.974
 2561POPC   C4B36262   8.671  20.381   7.599
 2562POPC   NC336263  36.671  34.686   9.475
 2562POPC   PO436264  37.234  34.423   9.439
 2562POPC   GL136265  37.160  34.808   9.179
 2562POPC   GL236266  36.893  34.673   9.036
 2562POPC   C1A36267  37.137  34.992   8.739
 2562POPC   D2A36268  36.949  34.831   8.384
 2562POPC   C3A36269  36.918  34.754   7.978
 2562POPC   C4A36270  37.106  34.743   7.609
 2562POPC   C1B36271  36.908  34.435   8.726
 2562POPC   C2B36272  36.769  34.354   8.333
 2562POPC   C3B36273  36.994  34.246   7.982
 2562POPC   C4B36274  36.815  34.349   7.624
 2563POPC   NC336275  13.183  19.857   9.525
 2563POPC   PO436276  12.507  19.652   9.505
 2563POPC   GL136277  12.749  19.892   9.156
 2563POPC   GL236278  13.063  19.733   9.043
 2563POPC   C1A36279  12.767  19.988   8.682
 2563POPC   D2A36280  12.957  19.844   8.267
 2563POPC   C3A36281  12.825  19.980   7.822
 2563POPC   C4A36282  13.030  20.245   7.475
 2563POPC   C1B36283  12.790  19.475   8.781
 2563POPC   C2B36284  12.570  19.483   8.373
 2563POPC   C3B36285  12.481  19.545   7.923
 2563POPC   C4B36286  12.716  19.497   7.566
 2564POPC   NC336287  18.351   3.242   9.685
 2564POPC   PO436288  18.706   3.627   9.259
 2564POPC   GL136289  18.371   3.332   9.167
 2564POPC   GL236290  18.037   3.309   9.110
 2564POPC   C1A36291  18.395   3.289   8.730
 2564POPC   D2A36292  18.508   3.570   8.386
 2564POPC   C3A36293  18.309   3.429   8.033
 2564POPC   C4A36294  18.359   3.436   7.571
 2564POPC   C1B36295  17.890   3.407   8.712
 2564POPC   C2B36296  17.975   3.693   8.371
 2564POPC   C3B36297  18.036   3.861   7.985
 2564POPC   C4B36298  17.890   3.485   7.734
 2565POPC   NC336299  26.405  30.699   9.794
 2565POPC   PO436300  26.876  31.062   9.479
 2565POPC   GL136301  26.831  30.873   9.111
 2565POPC   GL236302  26.471  30.870   9.167
 2565POPC   C1A36303  26.994  30.891   8.678
 2565POPC   D2A36304  27.073  30.677   8.282
 2565POPC   C3A36305  26.868  30.719   7.835
 2565POPC   C4A36306  27.022  31.026   7.495
 2565POPC   C1B36307  26.558  30.576   8.789
 2565POPC   C2B36308  26.669  30.389   8.388
 2565POPC   C3B36309  26.504  30.345   7.981
 2565POPC   C4B36310  26.455  30.484   7.568
 2566POPC   NC336311   3.810  32.252   9.499
 2566POPC   PO436312   3.244  32.523   9.788
 2566POPC   GL136313   3.420  32.527   9.280
 2566POPC   GL236314   3.745  32.555   9.086
 2566POPC   C1A36315   3.417  32.253   8.833
 2566POPC   D2A36316   3.341  32.009   8.398
 2566POPC   C3A36317   3.459  32.110   7.961
 2566POPC   C4A36318   3.311  32.546   7.759
 2566POPC   C1B36319   3.704  32.633   8.637
 2566POPC   C2B36320   3.545  32.531   8.229
 2566POPC   C3B36321   3.816  32.460   7.843
 2566POPC   C4B36322   3.920  32.699   7.433
 2567POPC   NC336323   0.689  29.078   9.385
 2567POPC   PO436324   0.161  29.496   9.509
 2567POPC   GL136325   0.322  29.366   9.118
 2567POPC   GL236326   0.626  29.511   9.111
 2567POPC   C1A36327   0.263  29.061   8.786
 2567POPC   D2A36328   0.041  29.034   8.387
 2567POPC   C3A36329   0.272  28.982   7.988
 2567POPC   C4A36330   0.171  29.246   7.621
 2567POPC   C1B36331   0.742  29.259   8.753
 2567POPC   C2B36332   0.530  29.241   8.378
 2567POPC   C3B36333   0.434  29.481   8.031
 2567POPC   C4B36334   0.654  29.277   7.730
 2568POPC   NC336335  28.595  15.097   9.320
 2568POPC   PO436336  28.129  15.523   9.479
 2568POPC   GL136337  28.186  15.358   9.103
 2568POPC   GL236338  28.095  15.005   9.194
 2568POPC   C1A36339  28.265  15.434   8.666
 2568POPC   D2A36340  28.078  15.289   8.285
 2568POPC   C3A36341  28.334  15.264   7.898
 2568POPC   C4A36342  28.211  15.334   7.461
 2568POPC   C1B36343  28.317  14.939   8.764
 2568POPC   C2B36344  28.476  14.972   8.323
 2568POPC   C3B36345  28.539  14.778   7.912
 2568POPC   C4B36346  28.619  14.559   7.469
 2569POPC   NC336347   9.313  43.383   9.843
 2569POPC   PO436348   9.001  43.856   9.455
 2569POPC   GL136349   8.926  43.713   9.084
 2569POPC   GL236350   8.832  44.037   9.002
 2569POPC   C1A36351   9.168  43.719   8.724
 2569POPC   D2A36352   9.437  43.908   8.443
 2569POPC   C3A36353   9.179  43.958   8.121
 2569POPC   C4A36354   9.194  43.713   7.776
 2569POPC   C1B36355   8.639  43.808   8.641
 2569POPC   C2B36356   8.591  43.548   8.272
 2569POPC   C3B36357   8.663  43.657   7.851
 2569POPC   C4B36358   8.826  44.068   7.739
 2570POPC   NC336359  31.211  44.084   9.305
 2570POPC   PO436360  31.187  44.694   9.539
 2570POPC   GL136361  31.276  44.591   9.142
 2570POPC   GL236362  31.023  44.829   9.049
 2570POPC   C1A36363  31.481  44.573   8.767
 2570POPC   D2A36364  31.493  44.879   8.415
 2570POPC   C3A36365  31.500  44.745   8.002
 2570POPC   C4A36366  31.734  44.494   7.746
 2570POPC   C1B36367  31.042  44.742   8.627
 2570POPC   C2B36368  31.201  44.457   8.302
 2570POPC   C3B36369  31.226  44.308   7.871
 2570POPC   C4B36370  30.943  44.348   7.536
 2571POPC   NC336371  20.443   8.786   9.642
 2571POPC   PO436372  20.703   9.361   9.493
 2571POPC   GL136373  20.444   9.166   9.187
 2571POPC   GL236374  20.602   8.829   9.164
 2571POPC   C1A36375  20.356   9.382   8.777
 2571POPC   D2A36376  20.343   9.201   8.347
 2571POPC   C3A36377  20.281   9.418   7.969
 2571POPC   C4A36378  20.401   9.188   7.601
 2571POPC   C1B36379  20.577   8.916   8.731
 2571POPC   C2B36380  20.838   9.116   8.438
 2571POPC   C3B36381  20.725   9.095   7.993
 2571POPC   C4B36382  20.688   8.740   7.747
 2572POPC   NC336383  16.221   4.496   9.491
 2572POPC   PO436384  15.528   4.723   9.413
 2572POPC   GL136385  15.820   4.395   9.194
 2572POPC   GL236386  15.795   4.586   8.932
 2572POPC   C1A36387  16.108   4.189   8.854
 2572POPC   D2A36388  16.021   4.471   8.482
 2572POPC   C3A36389  16.162   4.477   8.071
 2572POPC   C4A36390  16.360   4.175   7.863
 2572POPC   C1B36391  15.613   4.205   8.742
 2572POPC   C2B36392  15.705   3.990   8.356
 2572POPC   C3B36393  15.846   4.063   7.941
 2572POPC   C4B36394  15.940   4.368   7.600
 2573POPC   NC336395  11.133  32.670   9.473
 2573POPC   PO436396  11.598  33.149   9.686
 2573POPC   GL136397  11.494  33.067   9.241
 2573POPC   GL236398  11.705  33.286   9.075
 2573POPC   C1A36399  11.276  32.856   8.856
 2573POPC   D2A36400  11.015  32.744   8.486
 2573POPC   C3A36401  11.162  32.838   8.068
 2573POPC   C4A36402  11.238  32.656   7.678
 2573POPC   C1B36403  11.673  33.132   8.665
 2573POPC   C2B36404  11.721  33.217   8.225
 2573POPC   C3B36405  11.566  33.055   7.828
 2573POPC   C4B36406  11.511  32.978   7.372
 2574POPC   NC336407  19.402   6.905   9.362
 2574POPC   PO436408  18.771   6.730   9.443
 2574POPC   GL136409  19.048   6.595   9.111
 2574POPC   GL236410  19.243   6.289   9.110
 2574POPC   C1A36411  19.247   6.713   8.759
 2574POPC   D2A36412  19.282   7.019   8.458
 2574POPC   C3A36413  19.252   6.820   8.076
 2574POPC   C4A36414  19.098   6.627   7.736
 2574POPC   C1B36415  19.439   6.225   8.773
 2574POPC   C2B36416  19.353   6.406   8.368
 2574POPC   C3B36417  19.215   6.209   8.001
 2574POPC   C4B36418  19.352   6.212   7.592
 2575POPC   NC336419  14.611  30.782   9.555
 2575POPC   PO436420  15.268  30.678   9.552
 2575POPC   GL136421  15.022  30.650   9.216
 2575POPC   GL236422  15.370  30.694   9.041
 2575POPC   C1A36423  14.935  30.678   8.786
 2575POPC   D2A36424  15.215  30.831   8.475
 2575POPC   C3A36425  15.201  30.637   8.080
 2575POPC   C4A36426  14.921  30.763   7.746
 2575POPC   C1B36427  15.653  30.903   8.745
 2575POPC   C2B36428  15.699  30.772   8.315
 2575POPC   C3B36429  15.565  30.970   7.960
 2575POPC   C4B36430  15.400  30.827   7.601
 2576POPC   NC336431  30.585  17.189   9.500
 2576POPC   PO436432  30.817  17.791   9.327
 2576POPC   GL136433  30.773  17.397   9.089
 2576POPC   GL236434  31.072  17.156   9.071
 2576POPC   C1A36435  30.692  17.256   8.684
 2576POPC   D2A36436  30.832  17.136   8.274
 2576POPC   C3A36437  30.582  17.330   7.944
 2576POPC   C4A36438  30.501  17.697   7.732
 2576POPC   C1B36439  31.170  17.556   8.835
 2576POPC   C2B36440  30.993  17.661   8.470
 2576POPC   C3B36441  30.990  17.640   8.043
 2576POPC   C4B36442  30.986  17.581   7.614
 2577POPC   NC336443   2.505  24.673   9.923
 2577POPC   PO436444   2.681  24.173   9.545
 2577POPC   GL136445   2.769  24.310   9.086
 2577POPC   GL236446   3.079  24.508   9.044
 2577POPC   C1A36447   2.556  24.331   8.661
 2577POPC   D2A36448   2.291  24.561   8.350
 2577POPC   C3A36449   2.459  24.447   7.966
 2577POPC   C4A36450   2.869  24.246   7.950
 2577POPC   C1B36451   2.844  24.750   8.727
 2577POPC   C2B36452   2.800  24.697   8.266
 2577POPC   C3B36453   2.870  24.734   7.797
 2577POPC   C4B36454   3.060  24.499   7.418
 2578POPC   NC336455  44.691  17.964   9.513
 2578POPC   PO436456  44.409  18.691   9.400
 2578POPC   GL136457  44.373  18.309   9.205
 2578POPC   GL236458  44.698  18.291   9.122
 2578POPC   C1A36459  44.300  18.219   8.787
 2578POPC   D2A36460  44.510  18.498   8.487
 2578POPC   C3A36461  44.447  18.437   8.050
 2578POPC   C4A36462  44.612  18.624   7.649
 2578POPC   C1B36463  44.797  18.143   8.737
 2578POPC   C2B36464  44.697  18.023   8.327
 2578POPC   C3B36465  44.828  18.127   7.924
 2578POPC   C4B36466  44.785  18.184   7.473
 2579POPC   NC336467  15.995   0.807   9.496
 2579POPC   PO436468  15.838   0.123   9.454
 2579POPC   GL136469  15.937   0.453   9.133
 2579POPC   GL236470  16.304   0.556   9.164
 2579POPC   C1A36471  15.753   0.680   8.752
 2579POPC   D2A36472  15.567   0.573   8.330
 2579POPC   C3A36473  15.817   0.729   7.952
 2579POPC   C4A36474  16.175   0.736   7.650
 2579POPC   C1B36475  16.242   0.412   8.724
 2579POPC   C2B36476  16.169   0.509   8.284
 2579POPC   C3B36477  16.155   0.281   7.889
 2579POPC   C4B36478  15.941  44.919   7.688
 2580POPC   NC336479  36.844  11.428   9.434
 2580POPC   PO436480  37.333  10.984   9.672
 2580POPC   GL136481  37.064  11.033   9.252
 2580POPC   GL236482  37.074  11.385   8.993
 2580POPC   C1A36483  36.843  10.989   8.833
 2580POPC   D2A36484  36.787  11.197   8.447
 2580POPC   C3A36485  37.036  11.302   8.101
 2580POPC   C4A36486  36.850  11.130   7.741
 2580POPC   C1B36487  37.094  11.582   8.568
 2580POPC   C2B36488  36.756  11.702   8.254
 2580POPC   C3B36489  36.766  11.647   7.830
 2580POPC   C4B36490  36.931  11.544   7.449
 2581POPC   NC336491   3.638  43.287   9.561
 2581POPC   PO436492   3.014  43.476   9.555
 2581POPC   GL136493   3.313  43.501   9.218
 2581POPC   GL236494   3.354  43.141   9.177
 2581POPC   C1A36495   3.441  43.488   8.781
 2581POPC   D2A36496   3.502  43.590   8.332
 2581POPC   C3A36497   3.433  43.204   8.065
 2581POPC   C4A36498   3.448  43.134   7.606
 2581POPC   C1B36499   3.250  42.990   8.797
 2581POPC   C2B36500   3.206  42.660   8.513
 2581POPC   C3B36501   3.434  42.427   8.200
 2581POPC   C4B36502   3.434  42.684   7.839
 2582POPC   NC336503  32.005  32.160   9.503
 2582POPC   PO436504  32.621  32.142   9.431
 2582POPC   GL136505  32.333  32.195   9.126
 2582POPC   GL236506  32.193  31.861   9.164
 2582POPC   C1A36507  32.164  32.283   8.728
 2582POPC   D2A36508  32.147  32.475   8.313
 2582POPC   C3A36509  31.882  32.536   7.937
 2582POPC   C4A36510  31.945  32.666   7.509
 2582POPC   C1B36511  32.270  31.781   8.761
 2582POPC   C2B36512  32.067  31.892   8.383
 2582POPC   C3B36513  32.101  32.078   7.999
 2582POPC   C4B36514  32.364  32.394   7.774
 2583POPC   NC336515   5.041   4.173   9.602
 2583POPC   PO436516   5.171   4.801   9.800
 2583POPC   GL136517   5.099   4.696   9.301
 2583POPC   GL236518   5.143   4.346   9.125
 2583POPC   C1A36519   5.178   4.738   8.824
 2583POPC   D2A36520   4.980   4.418   8.564
 2583POPC   C3A36521   4.983   4.391   8.086
 2583POPC   C4A36522   5.285   4.576   7.820
 2583POPC   C1B36523   5.343   4.095   8.778
 2583POPC   C2B36524   5.214   4.001   8.349
 2583POPC   C3B36525   5.376   4.066   7.938
 2583POPC   C4B36526   5.236   4.096   7.498
 2584POPC   NC336527   8.122   5.329   9.399
 2584POPC   PO436528   8.449   4.713   9.413
 2584POPC   GL136529   8.226   4.911   9.097
 2584POPC   GL236530   8.322   5.233   8.960
 2584POPC   C1A36531   8.166   4.754   8.696
 2584POPC   D2A36532   8.116   4.954   8.323
 2584POPC   C3A36533   8.370   4.939   7.988
 2584POPC   C4A36534   8.238   4.834   7.588
 2584POPC   C1B36535   8.543   5.484   8.705
 2584POPC   C2B36536   8.421   5.377   8.328
 2584POPC   C3B36537   8.530   5.429   7.961
 2584POPC   C4B36538   8.343   5.307   7.594
 2585POPC   NC336539   7.492   5.404   9.450
 2585POPC   PO436540   7.255   5.859   9.763
 2585POPC   GL136541   7.321   5.907   9.301
 2585POPC   GL236542   6.981   6.050   9.260
 2585POPC   C1A36543   7.499   5.876   8.844
 2585POPC   D2A36544   7.708   5.950   8.400
 2585POPC   C3A36545   7.647   5.701   8.025
 2585POPC   C4A36546   7.406   5.631   7.656
 2585POPC   C1B36547   6.995   5.743   8.922
 2585POPC   C2B36548   6.934   5.807   8.483
 2585POPC   C3B36549   7.104   5.781   8.079
 2585POPC   C4B36550   6.907   5.583   7.776
 2586POPC   NC336551  41.206  20.366   9.486
 2586POPC   PO436552  41.474  19.696   9.499
 2586POPC   GL136553  41.615  19.766   9.130
 2586POPC   GL236554  41.418  19.502   9.023
 2586POPC   C1A36555  41.559  19.956   8.750
 2586POPC   D2A36556  41.399  19.857   8.359
 2586POPC   C3A36557  41.636  20.021   8.048
 2586POPC   C4A36558  41.818  19.946   7.629
 2586POPC   C1B36559  41.740  19.446   8.732
 2586POPC   C2B36560  41.638  19.390   8.334
 2586POPC   C3B36561  41.795  19.536   7.991
 2586POPC   C4B36562  41.880  19.321   7.673
 2587POPC   NC336563   5.357  17.853   9.568
 2587POPC   PO436564   5.915  18.298   9.446
 2587POPC   GL136565   5.730  18.055   9.164
 2587POPC   GL236566   5.451  18.251   9.099
 2587POPC   C1A36567   5.861  18.134   8.745
 2587POPC   D2A36568   5.914  18.333   8.349
 2587POPC   C3A36569   5.872  18.075   8.005
 2587POPC   C4A36570   5.661  18.121   7.623
 2587POPC   C1B36571   5.420  18.619   8.801
 2587POPC   C2B36572   5.583  18.735   8.398
 2587POPC   C3B36573   5.533  18.481   8.030
 2587POPC   C4B36574   5.575  18.641   7.634
 2588POPC   NC336575  20.391  22.624   9.583
 2588POPC   PO436576  20.433  23.215   9.435
 2588POPC   GL136577  20.580  22.926   9.101
 2588POPC   GL236578  20.428  22.590   9.059
 2588POPC   C1A36579  20.651  22.867   8.649
 2588POPC   D2A36580  20.541  22.752   8.221
 2588POPC   C3A36581  20.699  22.963   7.852
 2588POPC   C4A36582  20.647  23.266   7.514
 2588POPC   C1B36583  20.226  22.559   8.631
 2588POPC   C2B36584  20.110  22.477   8.163
 2588POPC   C3B36585  20.292  22.650   7.779
 2588POPC   C4B36586  20.464  22.801   7.426
 2589POPC   NC336587   9.491  15.460   9.639
 2589POPC   PO436588   9.724  14.954   9.680
 2589POPC   GL136589   9.889  14.963   9.257
 2589POPC   GL236590   9.788  15.298   9.225
 2589POPC   C1A36591   9.741  15.005   8.822
 2589POPC   D2A36592   9.753  15.297   8.522
 2589POPC   C3A36593   9.762  15.148   8.125
 2589POPC   C4A36594  10.028  15.310   7.779
 2589POPC   C1B36595   9.415  15.430   8.928
 2589POPC   C2B36596   9.308  15.515   8.464
 2589POPC   C3B36597   9.476  15.555   8.067
 2589POPC   C4B36598   9.517  15.289   7.704
 2590POPC   NC336599  39.504  11.056   9.282
 2590POPC   PO436600  38.877  11.401   9.454
 2590POPC   GL136601  39.104  11.342   9.106
 2590POPC   GL236602  38.981  11.020   9.027
 2590POPC   C1A36603  39.152  11.459   8.695
 2590POPC   D2A36604  39.324  11.303   8.324
 2590POPC   C3A36605  39.339  11.580   8.020
 2590POPC   C4A36606  38.936  11.647   7.817
 2590POPC   C1B36607  39.286  10.940   8.682
 2590POPC   C2B36608  39.660  10.939   8.431
 2590POPC   C3B36609  39.639  11.048   7.995
 2590POPC   C4B36610  39.370  11.211   7.677
 2591POPC   NC336611  34.137   0.622   9.440
 2591POPC   PO436612  33.610   0.417   9.706
 2591POPC   GL136613  33.694   0.389   9.237
 2591POPC   GL236614  33.728   0.751   9.150
 2591POPC   C1A36615  33.804   0.417   8.778
 2591POPC   D2A36616  34.122   0.629   8.493
 2591POPC   C3A36617  34.033   0.569   8.066
 2591POPC   C4A36618  33.774   0.284   7.816
 2591POPC   C1B36619  33.563   0.850   8.751
 2591POPC   C2B36620  33.602   0.644   8.352
 2591POPC   C3B36621  33.529   0.773   7.961
 2591POPC   C4B36622  33.552   0.665   7.541
 2592POPC   NC336623  29.105   8.447   9.588
 2592POPC   PO436624  29.471   7.831   9.441
 2592POPC   GL136625  29.339   8.075   9.125
 2592POPC   GL236626  29.165   8.390   9.109
 2592POPC   C1A36627  29.124   8.058   8.757
 2592POPC   D2A36628  29.317   8.401   8.595
 2592POPC   C3A36629  29.293   8.377   8.174
 2592POPC   C4A36630  29.185   8.231   7.772
 2592POPC   C1B36631  28.855   8.478   8.815
 2592POPC   C2B36632  28.827   8.310   8.403
 2592POPC   C3B36633  28.821   8.496   7.968
 2592POPC   C4B36634  28.831   8.448   7.459
 2593POPC   NC336635  10.688   3.617   9.597
 2593POPC   PO436636  10.155   3.279   9.551
 2593POPC   GL136637  10.384   3.433   9.153
 2593POPC   GL236638  10.755   3.543   9.104
 2593POPC   C1A36639  10.455   3.544   8.699
 2593POPC   D2A36640  10.220   3.700   8.358
 2593POPC   C3A36641  10.319   3.415   8.056
 2593POPC   C4A36642  10.530   3.541   7.699
 2593POPC   C1B36643  10.766   3.926   8.837
 2593POPC   C2B36644  10.717   3.871   8.388
 2593POPC   C3B36645  10.869   3.760   8.006
 2593POPC   C4B36646  10.950   3.890   7.604
 2594POPC   NC336647   7.624  10.196   9.510
 2594POPC   PO436648   7.252  10.722   9.747
 2594POPC   GL136649   7.178  10.586   9.227
 2594POPC   GL236650   7.204  10.266   9.137
 2594POPC   C1A36651   7.363  10.610   8.764
 2594POPC   D2A36652   7.272  10.509   8.318
 2594POPC   C3A36653   7.564  10.460   7.971
 2594POPC   C4A36654   7.523  10.818   7.701
 2594POPC   C1B36655   7.120  10.146   8.701
 2594POPC   C2B36656   7.310   9.997   8.312
 2594POPC   C3B36657   7.196  10.118   7.881
 2594POPC   C4B36658   7.106  10.500   7.688
 2595POPC   NC336659  37.642  19.521   9.847
 2595POPC   PO436660  37.415  20.052   9.648
 2595POPC   GL136661  37.668  19.959   9.212
 2595POPC   GL236662  37.875  20.178   9.050
 2595POPC   C1A36663  37.733  19.710   8.788
 2595POPC   D2A36664  37.942  19.501   8.450
 2595POPC   C3A36665  37.825  19.776   8.123
 2595POPC   C4A36666  37.882  20.143   7.849
 2595POPC   C1B36667  37.560  20.170   8.713
 2595POPC   C2B36668  37.487  20.159   8.278
 2595POPC   C3B36669  37.374  19.941   7.922
 2595POPC   C4B36670  37.519  20.006   7.517
 2596POPC   NC336671  43.617   7.660   9.601
 2596POPC   PO436672  43.049   7.438   9.768
 2596POPC   GL136673  43.150   7.659   9.344
 2596POPC   GL236674  43.360   7.434   9.236
 2596POPC   C1A36675  43.294   7.740   8.848
 2596POPC   D2A36676  43.456   7.740   8.414
 2596POPC   C3A36677  43.159   7.803   8.055
 2596POPC   C4A36678  43.358   7.587   7.725
 2596POPC   C1B36679  42.997   7.352   8.958
 2596POPC   C2B36680  43.019   7.384   8.525
 2596POPC   C3B36681  43.262   7.328   8.157
 2596POPC   C4B36682  42.924   7.365   7.778
 2597POPC   NC336683  15.350  33.342   9.359
 2597POPC   PO436684  14.919  32.791   9.558
 2597POPC   GL136685  15.056  32.918   9.190
 2597POPC   GL236686  14.900  33.225   9.163
 2597POPC   C1A36687  15.133  32.956   8.750
 2597POPC   D2A36688  15.165  32.691   8.409
 2597POPC   C3A36689  15.156  32.835   8.021
 2597POPC   C4A36690  14.882  32.831   7.694
 2597POPC   C1B36691  14.837  33.370   8.770
 2597POPC   C2B36692  15.034  33.452   8.397
 2597POPC   C3B36693  14.918  33.291   8.022
 2597POPC   C4B36694  15.036  33.368   7.648
 2598POPC   NC336695  10.563  37.802   9.659
 2598POPC   PO436696  11.016  37.360   9.682
 2598POPC   GL136697  10.674  37.551   9.245
 2598POPC   GL236698  10.597  37.921   9.142
 2598POPC   C1A36699  10.579  37.472   8.773
 2598POPC   D2A36700  10.286  37.336   8.388
 2598POPC   C3A36701  10.505  37.358   8.001
 2598POPC   C4A36702  10.789  37.635   7.821
 2598POPC   C1B36703  10.259  38.065   8.824
 2598POPC   C2B36704  10.091  37.910   8.410
 2598POPC   C3B36705  10.341  37.825   8.018
 2598POPC   C4B36706  10.397  37.793   7.545
 2599POPC   NC336707  21.135  28.413   9.591
 2599POPC   PO436708  21.752  28.634   9.411
 2599POPC   GL136709  21.462  28.563   9.149
 2599POPC   GL236710  21.215  28.762   9.194
 2599POPC   C1A36711  21.488  28.493   8.740
 2599POPC   D2A36712  21.383  28.252   8.420
 2599POPC   C3A36713  21.390  28.433   8.025
 2599POPC   C4A36714  21.231  28.139   7.751
 2599POPC   C1B36715  21.006  28.680   8.834
 2599POPC   C2B36716  21.135  28.717   8.433
 2599POPC   C3B36717  20.955  28.757   8.063
 2599POPC   C4B36718  20.991  28.587   7.692
 2600POPC   NC336719  20.222  38.413   9.540
 2600POPC   PO436720  20.882  38.036   9.620
 2600POPC   GL136721  20.812  38.231   9.185
 2600POPC   GL236722  20.553  38.487   9.150
 2600POPC   C1A36723  20.965  38.460   8.787
 2600POPC   D2A36724  20.827  38.447   8.340
 2600POPC   C3A36725  21.037  38.443   7.894
 2600POPC   C4A36726  21.026  38.242   7.456
 2600POPC   C1B36727  20.488  38.278   8.766
 2600POPC   C2B36728  20.243  38.317   8.392
 2600POPC   C3B36729  20.466  38.327   8.026
 2600POPC   C4B36730  20.609  38.716   7.924
 2601POPC   NC336731  36.563  15.510   9.396
 2601POPC   PO436732  37.042  15.147   9.116
 2601POPC   GL136733  36.738  15.389   8.938
 2601POPC   GL236734  36.506  15.116   9.034
 2601POPC   C1A36735  36.754  15.449   8.518
 2601POPC   D2A36736  36.945  15.187   8.227
 2601POPC   C3A36737  36.955  15.292   7.818
 2601POPC   C4A36738  37.097  15.082   7.459
 2601POPC   C1B36739  36.679  14.949   8.635
 2601POPC   C2B36740  36.501  14.936   8.245
 2601POPC   C3B36741  36.757  14.791   7.905
 2601POPC   C4B36742  36.640  14.820   7.476
 2602POPC   NC336743  38.805  25.571   9.311
 2602POPC   PO436744  39.431  25.358   9.481
 2602POPC   GL136745  39.182  25.313   9.097
 2602POPC   GL236746  39.377  25.066   8.928
 2602POPC   C1A36747  38.963  25.231   8.678
 2602POPC   D2A36748  39.200  25.396   8.330
 2602POPC   C3A36749  39.082  25.390   7.914
 2602POPC   C4A36750  39.230  25.034   7.720
 2602POPC   C1B36751  39.514  25.507   8.776
 2602POPC   C2B36752  39.470  25.804   8.436
 2602POPC   C3B36753  39.669  25.580   8.149
 2602POPC   C4B36754  39.579  25.432   7.761
 2603POPC   NC336755  10.761  24.565   9.799
 2603POPC   PO436756  10.152  24.253   9.629
 2603POPC   GL136757  10.379  24.359   9.274
 2603POPC   GL236758  10.106  24.613   9.212
 2603POPC   C1A36759  10.684  24.235   8.918
 2603POPC   D2A36760  10.616  24.224   8.459
 2603POPC   C3A36761  10.871  24.095   8.152
 2603POPC   C4A36762  10.752  24.310   7.804
 2603POPC   C1B36763  10.271  24.500   8.797
 2603POPC   C2B36764  10.617  24.718   8.566
 2603POPC   C3B36765  10.548  24.703   8.120
 2603POPC   C4B36766  10.412  24.670   7.687
 2604POPC   NC336767  10.307  32.538   9.452
 2604POPC   PO436768  10.952  32.234   9.440
 2604POPC   GL136769  10.559  32.214   9.162
 2604POPC   GL236770  10.680  31.932   8.987
 2604POPC   C1A36771  10.326  32.292   8.776
 2604POPC   D2A36772  10.129  32.208   8.373
 2604POPC   C3A36773  10.281  32.338   7.978
 2604POPC   C4A36774  10.465  32.292   7.592
 2604POPC   C1B36775  10.821  32.314   8.756
 2604POPC   C2B36776  10.629  32.422   8.374
 2604POPC   C3B36777  10.759  32.173   8.057
 2604POPC   C4B36778  10.963  32.207   7.680
 2605POPC   NC336779  43.700   4.561   9.485
 2605POPC   PO436780  43.034   4.344   9.561
 2605POPC   GL136781  42.979   4.333   9.152
 2605POPC   GL236782  43.337   4.441   9.085
 2605POPC   C1A36783  43.052   4.092   8.777
 2605POPC   D2A36784  43.292   4.176   8.382
 2605POPC   C3A36785  43.173   4.030   7.971
 2605POPC   C4A36786  42.994   4.199   7.600
 2605POPC   C1B36787  43.090   4.590   8.737
 2605POPC   C2B36788  43.147   4.700   8.346
 2605POPC   C3B36789  43.008   4.573   7.969
 2605POPC   C4B36790  43.180   4.716   7.595
 2606POPC   NC336791  35.483  23.001   9.674
 2606POPC   PO436792  35.837  22.425   9.562
 2606POPC   GL136793  35.634  22.752   9.226
 2606POPC   GL236794  35.435  23.105   9.189
 2606POPC   C1A36795  35.689  22.955   8.775
 2606POPC   D2A36796  35.739  23.010   8.319
 2606POPC   C3A36797  35.577  22.740   8.003
 2606POPC   C4A36798  35.537  22.790   7.556
 2606POPC   C1B36799  35.227  22.792   8.911
 2606POPC   C2B36800  35.278  22.812   8.448
 2606POPC   C3B36801  35.112  22.940   8.039
 2606POPC   C4B36802  35.078  22.582   7.788
 2607POPC   NC336803  28.809   1.504   9.436
 2607POPC   PO436804  28.469   0.893   9.327
 2607POPC   GL136805  28.438   1.231   9.085
 2607POPC   GL236806  28.752   1.119   8.954
 2607POPC   C1A36807  28.112   1.368   8.776
 2607POPC   D2A36808  28.125   1.628   8.399
 2607POPC   C3A36809  28.270   1.435   8.002
 2607POPC   C4A36810  28.590   1.595   7.675
 2607POPC   C1B36811  28.576   1.222   8.586
 2607POPC   C2B36812  28.283   1.006   8.381
 2607POPC   C3B36813  28.532   0.809   8.134
 2607POPC   C4B36814  28.585   1.082   7.816
 2608POPC   NC336815  36.629  26.096   9.711
 2608POPC   PO436816  37.130  25.914   9.302
 2608POPC   GL136817  36.948  26.064   8.968
 2608POPC   GL236818  36.656  26.263   9.092
 2608POPC   C1A36819  37.011  25.937   8.591
 2608POPC   D2A36820  36.991  26.185   8.290
 2608POPC   C3A36821  37.088  25.954   7.939
 2608POPC   C4A36822  36.851  26.244   7.739
 2608POPC   C1B36823  36.547  26.140   8.663
 2608POPC   C2B36824  36.479  26.179   8.212
 2608POPC   C3B36825  36.573  25.846   7.905
 2608POPC   C4B36826  36.388  25.753   7.512
 2609POPC   NC336827  32.273  25.752   9.543
 2609POPC   PO436828  32.427  26.269   9.517
 2609POPC   GL136829  32.330  26.258   9.108
 2609POPC   GL236830  32.591  26.448   9.014
 2609POPC   C1A36831  32.078  26.330   8.730
 2609POPC   D2A36832  32.122  26.108   8.351
 2609POPC   C3A36833  32.151  26.298   7.953
 2609POPC   C4A36834  32.146  26.063   7.551
 2609POPC   C1B36835  32.561  26.253   8.613
 2609POPC   C2B36836  32.614  26.126   8.179
 2609POPC   C3B36837  32.612  26.191   7.726
 2609POPC   C4B36838  32.816  26.307   7.304
 2610POPC   NC336839   3.469  39.658   9.613
 2610POPC   PO436840   3.869  40.170   9.497
 2610POPC   GL136841   3.515  40.031   9.241
 2610POPC   GL236842   3.504  39.702   9.118
 2610POPC   C1A36843   3.364  40.093   8.825
 2610POPC   D2A36844   3.590  40.152   8.450
 2610POPC   C3A36845   3.474  39.987   8.073
 2610POPC   C4A36846   3.577  40.107   7.673
 2610POPC   C1B36847   3.747  39.758   8.750
 2610POPC   C2B36848   3.864  39.700   8.319
 2610POPC   C3B36849   3.895  39.732   7.848
 2610POPC   C4B36850   3.805  39.736   7.383
 2611POPC   NC336851  37.260  14.797   9.315
 2611POPC   PO436852  36.878  14.334   9.565
 2611POPC   GL136853  36.773  14.265   9.140
 2611POPC   GL236854  36.902  14.598   8.999
 2611POPC   C1A36855  36.523  14.361   8.773
 2611POPC   D2A36856  36.717  14.477   8.384
 2611POPC   C3A36857  36.630  14.190   8.061
 2611POPC   C4A36858  36.667  14.345   7.647
 2611POPC   C1B36859  37.059  14.262   8.710
 2611POPC   C2B36860  37.243  14.337   8.306
 2611POPC   C3B36861  37.119  14.422   7.880
 2611POPC   C4B36862  37.108  14.546   7.421
 2612POPC   NC336863  19.465  26.467   9.382
 2612POPC   PO436864  20.046  26.658   9.464
 2612POPC   GL136865  20.004  26.944   9.167
 2612POPC   GL236866  19.641  26.906   9.149
 2612POPC   C1A36867  19.926  26.969   8.739
 2612POPC   D2A36868  19.887  26.684   8.434
 2612POPC   C3A36869  19.844  26.862   8.125
 2612POPC   C4A36870  19.871  26.817   7.747
 2612POPC   C1B36871  19.498  26.709   8.755
 2612POPC   C2B36872  19.385  26.795   8.338
 2612POPC   C3B36873  19.428  26.597   7.946
 2612POPC   C4B36874  19.411  26.817   7.574
 2613POPC   NC336875  40.304  28.675   9.884
 2613POPC   PO436876  40.807  28.501   9.477
 2613POPC   GL136877  40.948  28.362   9.094
 2613POPC   GL236878  40.661  28.541   8.954
 2613POPC   C1A36879  41.121  28.295   8.698
 2613POPC   D2A36880  40.865  28.421   8.361
 2613POPC   C3A36881  41.058  28.319   8.003
 2613POPC   C4A36882  41.031  28.290   7.599
 2613POPC   C1B36883  40.609  28.142   8.718
 2613POPC   C2B36884  40.462  28.075   8.281
 2613POPC   C3B36885  40.595  28.166   7.838
 2613POPC   C4B36886  40.554  28.121   7.355
 2614POPC   NC336887  44.106  25.107   9.414
 2614POPC   PO436888  43.609  25.534   9.393
 2614POPC   GL136889  43.868  25.363   9.038
 2614POPC   GL236890  43.872  24.977   9.002
 2614POPC   C1A36891  43.751  25.278   8.607
 2614POPC   D2A36892  43.778  25.543   8.285
 2614POPC   C3A36893  44.103  25.487   8.047
 2614POPC   C4A36894  43.939  25.446   7.684
 2614POPC   C1B36895  44.145  24.964   8.659
 2614POPC   C2B36896  44.238  25.020   8.230
 2614POPC   C3B36897  43.972  24.966   7.853
 2614POPC   C4B36898  44.081  25.032   7.403
 2615POPC   NC336899  35.473   3.553   9.484
 2615POPC   PO436900  34.924   4.046   9.504
 2615POPC   GL136901  35.062   3.695   9.205
 2615POPC   GL236902  35.069   3.304   9.079
 2615POPC   C1A36903  35.339   3.688   8.839
 2615POPC   D2A36904  35.525   3.890   8.492
 2615POPC   C3A36905  35.327   3.738   8.107
 2615POPC   C4A36906  35.587   3.654   7.744
 2615POPC   C1B36907  35.480   3.209   8.823
 2615POPC   C2B36908  35.600   3.386   8.406
 2615POPC   C3B36909  35.495   3.206   8.008
 2615POPC   C4B36910  35.148   3.170   7.746
 2616POPC   NC336911  27.184  43.326   9.454
 2616POPC   PO436912  27.696  43.169   9.682
 2616POPC   GL136913  27.647  43.133   9.232
 2616POPC   GL236914  27.911  43.368   9.201
 2616POPC   C1A36915  27.486  43.120   8.796
 2616POPC   D2A36916  27.279  43.125   8.399
 2616POPC   C3A36917  27.491  42.956   8.049
 2616POPC   C4A36918  27.481  43.277   7.754
 2616POPC   C1B36919  27.931  43.395   8.763
 2616POPC   C2B36920  27.808  43.217   8.373
 2616POPC   C3B36921  27.948  43.260   7.944
 2616POPC   C4B36922  27.891  43.640   7.650
 2617POPC   NC336923  43.542  26.306   9.332
 2617POPC   PO436924  42.964  26.294   9.566
 2617POPC   GL136925  43.056  26.147   9.145
 2617POPC   GL236926  43.000  25.784   9.089
 2617POPC   C1A36927  43.271  26.289   8.749
 2617POPC   D2A36928  43.456  26.076   8.409
 2617POPC   C3A36929  43.345  26.273   8.013
 2617POPC   C4A36930  43.099  26.098   7.651
 2617POPC   C1B36931  42.975  25.858   8.627
 2617POPC   C2B36932  42.974  25.842   8.150
 2617POPC   C3B36933  43.010  25.618   7.751
 2617POPC   C4B36934  42.978  25.719   7.289
 2618POPC   NC336935  14.427  37.506   9.545
 2618POPC   PO436936  14.925  37.306   9.295
 2618POPC   GL136937  14.581  37.571   9.068
 2618POPC   GL236938  14.178  37.571   9.101
 2618POPC   C1A36939  14.414  37.689   8.655
 2618POPC   D2A36940  14.343  37.888   8.263
 2618POPC   C3A36941  14.547  37.854   7.918
 2618POPC   C4A36942  14.653  37.728   7.531
 2618POPC   C1B36943  13.973  37.409   8.736
 2618POPC   C2B36944  14.022  37.338   8.296
 2618POPC   C3B36945  14.076  37.552   7.883
 2618POPC   C4B36946  13.997  37.518   7.422
 2619POPC   NC336947  32.404  36.312   9.464
 2619POPC   PO436948  31.950  35.888   9.434
 2619POPC   GL136949  32.187  36.023   9.090
 2619POPC   GL236950  32.532  35.939   9.127
 2619POPC   C1A36951  32.073  36.223   8.708
 2619POPC   D2A36952  31.832  36.256   8.353
 2619POPC   C3A36953  32.069  36.227   7.984
 2619POPC   C4A36954  32.306  36.107   7.644
 2619POPC   C1B36955  32.532  35.991   8.687
 2619POPC   C2B36956  32.514  36.113   8.262
 2619POPC   C3B36957  32.744  36.005   7.897
 2619POPC   C4B36958  32.723  35.878   7.452
 2620POPC   NC336959   9.123  18.950   9.599
 2620POPC   PO436960   8.846  19.474   9.748
 2620POPC   GL136961   8.947  19.487   9.260
 2620POPC   GL236962   9.248  19.284   9.184
 2620POPC   C1A36963   8.831  19.374   8.827
 2620POPC   D2A36964   8.838  19.137   8.450
 2620POPC   C3A36965   8.977  19.320   8.074
 2620POPC   C4A36966   8.847  19.065   7.782
 2620POPC   C1B36967   9.261  19.070   8.756
 2620POPC   C2B36968   9.404  18.812   8.407
 2620POPC   C3B36969   9.302  18.931   7.995
 2620POPC   C4B36970   9.174  18.712   7.643
 2621POPC   NC336971   6.906   1.837   9.510
 2621POPC   PO436972   6.222   2.094   9.663
 2621POPC   GL136973   6.414   2.016   9.187
 2621POPC   GL236974   6.776   2.075   9.093
 2621POPC   C1A36975   6.548   1.807   8.752
 2621POPC   D2A36976   6.565   1.981   8.332
 2621POPC   C3A36977   6.553   1.697   7.948
 2621POPC   C4A36978   6.414   1.850   7.551
 2621POPC   C1B36979   7.035   2.138   8.709
 2621POPC   C2B36980   7.060   1.972   8.278
 2621POPC   C3B36981   6.841   2.124   7.918
 2621POPC   C4B36982   6.886   2.040   7.477
 2622POPC   NC336983   4.766  18.380   9.680
 2622POPC   PO436984   4.961  17.784   9.784
 2622POPC   GL136985   5.004  18.110   9.322
 2622POPC   GL236986   4.958  18.427   9.181
 2622POPC   C1A36987   5.060  18.073   8.821
 2622POPC   D2A36988   5.167  18.332   8.446
 2622POPC   C3A36989   5.148  18.128   8.046
 2622POPC   C4A36990   5.161  18.340   7.649
 2622POPC   C1B36991   4.773  18.489   8.807
 2622POPC   C2B36992   4.690  18.567   8.426
 2622POPC   C3B36993   4.773  18.448   8.020
 2622POPC   C4B36994   4.490  18.436   7.688
 2623POPC   NC336995  19.629   3.048   9.563
 2623POPC   PO436996  19.676   3.791   9.438
 2623POPC   GL136997  20.018   3.552   9.179
 2623POPC   GL236998  19.779   3.319   9.095
 2623POPC   C1A36999  20.220   3.560   8.768
 2623POPC   D2A37000  20.052   3.831   8.420
 2623POPC   C3A37001  19.999   3.644   8.010
 2623POPC   C4A37002  20.011   3.214   7.803
 2623POPC   C1B37003  19.724   3.576   8.733
 2623POPC   C2B37004  19.393   3.666   8.466
 2623POPC   C3B37005  19.472   3.538   8.048
 2623POPC   C4B37006  19.632   3.535   7.640
 2624POPC   NC337007   6.150  44.349   9.485
 2624POPC   PO437008   6.751  44.757   9.440
 2624POPC   GL137009   6.506  44.557   9.166
 2624POPC   GL237010   6.417  44.889   9.016
 2624POPC   C1A37011   6.421  44.385   8.744
 2624POPC   D2A37012   6.238  44.598   8.367
 2624POPC   C3A37013   6.428  44.555   7.961
 2624POPC   C4A37014   6.809  44.369   7.897
 2624POPC   C1B37015   6.798  44.731   8.779
 2624POPC   C2B37016   6.816  44.625   8.358
 2624POPC   C3B37017   6.951  44.839   7.989
 2624POPC   C4B37018   6.577   0.048   7.840
 2625POPC   NC337019   8.452   8.662   9.396
 2625POPC   PO437020   8.075   9.147   9.661
 2625POPC   GL137021   8.201   9.112   9.211
 2625POPC   GL237022   8.541   9.228   9.271
 2625POPC   C1A37023   8.127   9.027   8.747
 2625POPC   D2A37024   8.441   8.920   8.386
 2625POPC   C3A37025   8.268   9.002   7.952
 2625POPC   C4A37026   7.864   8.908   7.761
 2625POPC   C1B37027   8.612   9.121   8.852
 2625POPC   C2B37028   8.735   9.328   8.472
 2625POPC   C3B37029   8.619   9.399   8.036
 2625POPC   C4B37030   8.485   9.335   7.586
 2626POPC   NC337031  14.313  19.354   9.828
 2626POPC   PO437032  14.477  19.960   9.569
 2626POPC   GL137033  14.635  19.878   9.193
 2626POPC   GL237034  14.704  20.235   9.145
 2626POPC   C1A37035  14.607  19.719   8.760
 2626POPC   D2A37036  14.490  19.815   8.320
 2626POPC   C3A37037  14.110  19.690   8.072
 2626POPC   C4A37038  14.068  19.390   7.712
 2626POPC   C1B37039  14.547  20.229   8.707
 2626POPC   C2B37040  14.624  20.313   8.263
 2626POPC   C3B37041  14.532  20.077   7.883
 2626POPC   C4B37042  14.493  19.674   7.740
 2627POPC   NC337043  22.612  14.154   9.663
 2627POPC   PO437044  22.540  13.506   9.853
 2627POPC   GL137045  22.512  13.549   9.367
 2627POPC   GL237046  22.679  13.840   9.234
 2627POPC   C1A37047  22.554  13.421   8.886
 2627POPC   D2A37048  22.752  13.555   8.452
 2627POPC   C3A37049  22.735  13.455   7.988
 2627POPC   C4A37050  22.592  13.080   7.747
 2627POPC   C1B37051  22.998  13.697   8.902
 2627POPC   C2B37052  23.259  13.624   8.505
 2627POPC   C3B37053  23.252  13.548   8.042
 2627POPC   C4B37054  23.258  13.316   7.648
 2628POPC   NC337055  13.663  12.975   9.513
 2628POPC   PO437056  13.380  12.351   9.694
 2628POPC   GL137057  13.392  12.612   9.280
 2628POPC   GL237058  13.690  12.612   9.134
 2628POPC   C1A37059  13.427  12.955   8.893
 2628POPC   D2A37060  13.380  12.894   8.428
 2628POPC   C3A37061  13.482  13.237   8.140
 2628POPC   C4A37062  13.802  13.257   7.811
 2628POPC   C1B37063  13.312  12.479   8.805
 2628POPC   C2B37064  13.348  12.324   8.406
 2628POPC   C3B37065  13.629  12.505   8.115
 2628POPC   C4B37066  13.526  12.829   7.796
 2629POPC   NC337067  20.519  28.783   9.611
 2629POPC   PO437068  20.766  28.127   9.586
 2629POPC   GL137069  20.739  28.425   9.241
 2629POPC   GL237070  20.393  28.449   9.219
 2629POPC   C1A37071  20.706  28.262   8.808
 2629POPC   D2A37072  20.865  28.268   8.384
 2629POPC   C3A37073  20.616  28.378   8.039
 2629POPC   C4A37074  20.711  28.164   7.704
 2629POPC   C1B37075  20.385  28.646   8.822
 2629POPC   C2B37076  20.593  28.697   8.456
 2629POPC   C3B37077  20.427  28.866   8.116
 2629POPC   C4B37078  20.505  28.805   7.720
 2630POPC   NC337079  12.496  11.631   9.235
 2630POPC   PO437080  12.605  10.999   9.487
 2630POPC   GL137081  12.786  11.070   9.106
 2630POPC   GL237082  12.961  11.367   9.161
 2630POPC   C1A37083  12.656  11.255   8.714
 2630POPC   D2A37084  12.610  11.596   8.429
 2630POPC   C3A37085  12.683  11.313   8.057
 2630POPC   C4A37086  12.874  11.300   7.637
 2630POPC   C1B37087  13.068  11.576   8.781
 2630POPC   C2B37088  13.074  11.401   8.389
 2630POPC   C3B37089  13.159  11.514   7.999
 2630POPC   C4B37090  13.366  11.220   7.782
 2631POPC   NC337091  11.671  26.071   9.471
 2631POPC   PO437092  12.090  26.584   9.661
 2631POPC   GL137093  11.974  26.329   9.175
 2631POPC   GL237094  11.607  26.309   9.014
 2631POPC   C1A37095  12.053  26.038   8.846
 2631POPC   D2A37096  12.246  26.129   8.454
 2631POPC   C3A37097  12.000  25.975   8.123
 2631POPC   C4A37098  11.985  25.876   7.728
 2631POPC   C1B37099  11.829  26.467   8.680
 2631POPC   C2B37100  11.883  26.455   8.281
 2631POPC   C3B37101  11.612  26.410   8.012
 2631POPC   C4B37102  11.841  26.380   7.682
 2632POPC   NC337103  18.408  44.843   9.809
 2632POPC   PO437104  17.939  44.483   9.538
 2632POPC   GL137105  18.298  44.646   9.274
 2632POPC   GL237106  18.474  44.959   9.305
 2632POPC   C1A37107  18.434  44.538   8.855
 2632POPC   D2A37108  18.352  44.644   8.408
 2632POPC   C3A37109  18.298  44.435   7.972
 2632POPC   C4A37110  18.255  44.715   7.587
 2632POPC   C1B37111  18.476   0.086   8.875
 2632POPC   C2B37112  18.481   0.155   8.426
 2632POPC   C3B37113  18.454  44.953   8.008
 2632POPC   C4B37114  18.664   0.009   7.626
 2633POPC   NC337115  15.774  19.671   9.550
 2633POPC   PO437116  15.706  20.290   9.643
 2633POPC   GL137117  15.638  20.119   9.238
 2633POPC   GL237118  15.972  19.990   9.176
 2633POPC   C1A37119  15.571  19.784   8.930
 2633POPC   D2A37120  15.879  19.623   8.641
 2633POPC   C3A37121  15.826  19.610   8.183
 2633POPC   C4A37122  16.137  19.672   7.868
 2633POPC   C1B37123  16.360  20.177   8.981
 2633POPC   C2B37124  16.454  20.225   8.532
 2633POPC   C3B37125  16.407  20.101   8.085
 2633POPC   C4B37126  16.643  19.788   7.858
 2634POPC   NC337127  13.997  35.310   9.380
 2634POPC   PO437128  13.361  35.502   9.550
 2634POPC   GL137129  13.552  35.582   9.143
 2634POPC   GL237130  13.625  35.258   9.041
 2634POPC   C1A37131  13.748  35.567   8.692
 2634POPC   D2A37132  13.893  35.682   8.268
 2634POPC   C3A37133  13.724  35.513   7.908
 2634POPC   C4A37134  13.734  35.085   7.794
 2634POPC   C1B37135  13.375  35.198   8.676
 2634POPC   C2B37136  13.586  35.157   8.309
 2634POPC   C3B37137  13.305  35.210   8.029
 2634POPC   C4B37138  13.093  34.939   7.832
 2635POPC   NC337139  19.551  27.234   9.564
 2635POPC   PO437140  19.969  27.765   9.570
 2635POPC   GL137141  19.882  27.723   9.146
 2635POPC   GL237142  19.776  27.405   9.152
 2635POPC   C1A37143  20.006  27.515   8.733
 2635POPC   D2A37144  19.955  27.729   8.375
 2635POPC   C3A37145  19.991  27.515   8.000
 2635POPC   C4A37146  19.847  27.762   7.640
 2635POPC   C1B37147  19.526  27.267   8.799
 2635POPC   C2B37148  19.680  27.275   8.384
 2635POPC   C3B37149  19.506  27.193   7.992
 2635POPC   C4B37150  19.666  27.269   7.624
 2636POPC   NC337151  12.697  25.697   9.392
 2636POPC   PO437152  13.009  25.124   9.481
 2636POPC   GL137153  13.109  25.447   9.170
 2636POPC   GL237154  12.861  25.228   9.002
 2636POPC   C1A37155  13.021  25.616   8.738
 2636POPC   D2A37156  12.723  25.332   8.518
 2636POPC   C3A37157  12.725  25.355   8.079
 2636POPC   C4A37158  12.967  25.276   7.690
 2636POPC   C1B37159  12.492  24.996   8.881
 2636POPC   C2B37160  12.424  24.863   8.454
 2636POPC   C3B37161  12.393  24.961   8.008
 2636POPC   C4B37162  12.629  24.919   7.633
 2637POPC   NC337163   4.801   9.351   9.487
 2637POPC   PO437164   5.113  10.005   9.603
 2637POPC   GL137165   5.079   9.747   9.242
 2637POPC   GL237166   5.363   9.538   9.161
 2637POPC   C1A37167   5.106   9.796   8.793
 2637POPC   D2A37168   4.890   9.831   8.396
 2637POPC   C3A37169   5.103   9.810   8.019
 2637POPC   C4A37170   4.990   9.837   7.591
 2637POPC   C1B37171   5.434   9.360   8.798
 2637POPC   C2B37172   5.336   9.538   8.411
 2637POPC   C3B37173   5.414   9.390   8.024
 2637POPC   C4B37174   5.428   9.606   7.681
 2638POPC   NC337175  14.229  28.201   9.578
 2638POPC   PO437176  14.820  28.164   9.259
 2638POPC   GL137177  14.512  28.444   9.150
 2638POPC   GL237178  14.175  28.270   9.085
 2638POPC   C1A37179  14.368  28.611   8.764
 2638POPC   D2A37180  14.292  28.419   8.369
 2638POPC   C3A37181  14.533  28.604   8.044
 2638POPC   C4A37182  14.821  28.638   7.701
 2638POPC   C1B37183  14.231  28.019   8.701
 2638POPC   C2B37184  14.135  27.933   8.259
 2638POPC   C3B37185  14.270  28.117   7.876
 2638POPC   C4B37186  14.143  27.997   7.439
 2639POPC   NC337187   7.386  29.024   9.570
 2639POPC   PO437188   7.413  29.637   9.567
 2639POPC   GL137189   7.272  29.383   9.186
 2639POPC   GL237190   7.124  29.026   9.112
 2639POPC   C1A37191   7.305  29.294   8.728
 2639POPC   D2A37192   7.073  29.225   8.341
 2639POPC   C3A37193   7.309  29.320   7.955
 2639POPC   C4A37194   7.623  29.261   7.608
 2639POPC   C1B37195   7.199  28.806   8.698
 2639POPC   C2B37196   7.478  28.924   8.361
 2639POPC   C3B37197   7.410  28.817   7.934
 2639POPC   C4B37198   7.100  28.546   7.744
 2640POPC   NC337199  22.524  32.708   9.441
 2640POPC   PO437200  22.147  33.351   9.350
 2640POPC   GL137201  22.224  32.984   9.141
 2640POPC   GL237202  21.888  32.825   9.131
 2640POPC   C1A37203  22.382  32.901   8.759
 2640POPC   D2A37204  22.320  32.720   8.347
 2640POPC   C3A37205  22.469  32.857   7.960
 2640POPC   C4A37206  22.401  33.251   7.765
 2640POPC   C1B37207  21.912  33.104   8.754
 2640POPC   C2B37208  22.076  33.230   8.345
 2640POPC   C3B37209  21.994  33.031   7.950
 2640POPC   C4B37210  22.060  32.567   7.891
 2641POPC   NC337211   7.567  42.776   9.463
 2641POPC   PO437212   7.041  43.188   9.449
 2641POPC   GL137213   7.294  43.134   9.036
 2641POPC   GL237214   7.615  42.927   8.980
 2641POPC   C1A37215   7.377  43.176   8.573
 2641POPC   D2A37216   7.349  42.975   8.181
 2641POPC   C3A37217   7.139  43.292   7.970
 2641POPC   C4A37218   7.126  43.479   7.571
 2641POPC   C1B37219   7.837  43.265   8.792
 2641POPC   C2B37220   7.806  43.442   8.376
 2641POPC   C3B37221   7.622  43.499   7.949
 2641POPC   C4B37222   7.536  43.131   7.702
 2642POPC   NC337223  32.613  32.590   9.524
 2642POPC   PO437224  33.263  32.267   9.633
 2642POPC   GL137225  33.073  32.525   9.277
 2642POPC   GL237226  32.988  32.275   9.128
 2642POPC   C1A37227  33.186  32.567   8.786
 2642POPC   D2A37228  32.996  32.377   8.403
 2642POPC   C3A37229  33.137  32.412   7.989
 2642POPC   C4A37230  32.883  32.431   7.573
 2642POPC   C1B37231  32.693  32.356   8.810
 2642POPC   C2B37232  32.579  32.077   8.493
 2642POPC   C3B37233  32.644  32.135   8.095
 2642POPC   C4B37234  32.908  31.987   7.810
 2643POPC   NC337235  38.515  11.093   9.432
 2643POPC   PO437236  38.002  11.577   9.464
 2643POPC   GL137237  38.280  11.414   9.092
 2643POPC   GL237238  38.266  11.075   8.988
 2643POPC   C1A37239  38.645  11.354   8.788
 2643POPC   D2A37240  38.807  11.021   8.485
 2643POPC   C3A37241  38.725  11.094   8.029
 2643POPC   C4A37242  38.452  10.890   7.703
 2643POPC   C1B37243  38.166  11.239   8.634
 2643POPC   C2B37244  38.282  11.124   8.276
 2643POPC   C3B37245  38.159  11.229   7.913
 2643POPC   C4B37246  37.848  11.171   7.658
 2644POPC   NC337247  25.765  25.340   9.381
 2644POPC   PO437248  26.221  25.009   9.430
 2644POPC   GL137249  26.141  25.225   9.059
 2644POPC   GL237250  26.243  25.553   9.211
 2644POPC   C1A37251  25.818  25.219   8.693
 2644POPC   D2A37252  25.640  25.254   8.237
 2644POPC   C3A37253  25.852  25.131   7.836
 2644POPC   C4A37254  25.993  24.870   7.456
 2644POPC   C1B37255  26.124  25.628   8.773
 2644POPC   C2B37256  26.125  25.472   8.362
 2644POPC   C3B37257  25.952  25.621   7.991
 2644POPC   C4B37258  26.097  25.757   7.591
 2645POPC   NC337259   7.615  30.767   9.518
 2645POPC   PO437260   7.142  30.361   9.214
 2645POPC   GL137261   7.417  30.698   9.043
 2645POPC   GL237262   7.388  31.035   9.147
 2645POPC   C1A37263   7.463  30.769   8.611
 2645POPC   D2A37264   7.380  30.459   8.350
 2645POPC   C3A37265   7.207  30.537   7.983
 2645POPC   C4A37266   7.395  30.688   7.636
 2645POPC   C1B37267   7.756  31.096   8.841
 2645POPC   C2B37268   7.865  31.034   8.426
 2645POPC   C3B37269   7.637  30.851   8.101
 2645POPC   C4B37270   7.577  31.129   7.782
 2646POPC   NC337271  36.460  10.050   9.799
 2646POPC   PO437272  35.999   9.794   9.377
 2646POPC   GL137273  36.199   9.576   9.047
 2646POPC   GL237274  35.969   9.285   9.020
 2646POPC   C1A37275  36.431   9.673   8.647
 2646POPC   D2A37276  36.330   9.666   8.164
 2646POPC   C3A37277  36.266   9.861   7.722
 2646POPC   C4A37278  36.275   9.607   7.302
 2646POPC   C1B37279  35.987   9.388   8.605
 2646POPC   C2B37280  35.659   9.546   8.355
 2646POPC   C3B37281  35.701   9.781   7.965
 2646POPC   C4B37282  35.799   9.673   7.531
 2647POPC   NC337283   9.599  41.152   9.585
 2647POPC   PO437284   9.842  40.569   9.725
 2647POPC   GL137285   9.695  40.721   9.294
 2647POPC   GL237286   9.913  40.972   9.209
 2647POPC   C1A37287   9.623  40.654   8.822
 2647POPC   D2A37288   9.812  40.611   8.385
 2647POPC   C3A37289   9.561  40.635   8.002
 2647POPC   C4A37290   9.538  40.444   7.577
 2647POPC   C1B37291   9.992  41.141   8.820
 2647POPC   C2B37292   9.945  41.117   8.397
 2647POPC   C3B37293  10.011  40.973   7.996
 2647POPC   C4B37294   9.774  40.914   7.627
 2648POPC   NC337295  11.757  18.705   9.535
 2648POPC   PO437296  11.653  18.035   9.547
 2648POPC   GL137297  11.855  18.131   9.148
 2648POPC   GL237298  11.974  18.489   9.127
 2648POPC   C1A37299  11.867  18.227   8.699
 2648POPC   D2A37300  12.160  18.258   8.332
 2648POPC   C3A37301  12.015  18.244   7.897
 2648POPC   C4A37302  12.008  18.345   7.445
 2648POPC   C1B37303  12.217  18.696   8.795
 2648POPC   C2B37304  12.436  18.707   8.421
 2648POPC   C3B37305  12.452  18.527   8.017
 2648POPC   C4B37306  12.311  18.686   7.665
 2649POPC   NC337307  43.363  41.139   9.440
 2649POPC   PO437308  42.882  41.554   9.655
 2649POPC   GL137309  43.111  41.557   9.187
 2649POPC   GL237310  43.161  41.263   8.990
 2649POPC   C1A37311  43.275  41.650   8.737
 2649POPC   D2A37312  43.183  41.854   8.390
 2649POPC   C3A37313  43.242  41.668   7.980
 2649POPC   C4A37314  43.208  41.833   7.577
 2649POPC   C1B37315  42.887  41.327   8.638
 2649POPC   C2B37316  42.824  41.524   8.249
 2649POPC   C3B37317  42.832  41.326   7.847
 2649POPC   C4B37318  42.786  41.344   7.378
 2650POPC   NC337319  34.241  11.338   9.615
 2650POPC   PO437320  34.838  10.990   9.518
 2650POPC   GL137321  34.602  11.251   9.248
 2650POPC   GL237322  34.727  11.596   9.215
 2650POPC   C1A37323  34.534  11.304   8.826
 2650POPC   D2A37324  34.742  11.281   8.459
 2650POPC   C3A37325  34.425  11.327   8.177
 2650POPC   C4A37326  34.470  11.344   7.767
 2650POPC   C1B37327  34.889  11.691   8.807
 2650POPC   C2B37328  34.811  11.814   8.375
 2650POPC   C3B37329  34.880  11.553   8.033
 2650POPC   C4B37330  34.885  11.590   7.624
 2651POPC   NC337331  33.771  13.892   9.428
 2651POPC   PO437332  33.716  13.167   9.533
 2651POPC   GL137333  33.859  13.415   9.223
 2651POPC   GL237334  33.513  13.505   9.154
 2651POPC   C1A37335  33.948  13.560   8.817
 2651POPC   D2A37336  34.149  13.736   8.478
 2651POPC   C3A37337  33.992  13.747   8.096
 2651POPC   C4A37338  34.241  13.624   7.764
 2651POPC   C1B37339  33.473  13.728   8.763
 2651POPC   C2B37340  33.548  13.597   8.347
 2651POPC   C3B37341  33.493  13.757   7.923
 2651POPC   C4B37342  33.779  13.582   7.619
 2652POPC   NC337343  17.579  22.592   9.788
 2652POPC   PO437344  17.610  21.956   9.576
 2652POPC   GL137345  17.554  22.122   9.173
 2652POPC   GL237346  17.546  22.457   9.286
 2652POPC   C1A37347  17.641  22.104   8.735
 2652POPC   D2A37348  17.856  21.867   8.385
 2652POPC   C3A37349  17.742  21.994   7.960
 2652POPC   C4A37350  17.394  21.871   7.755
 2652POPC   C1B37351  17.286  22.564   8.947
 2652POPC   C2B37352  17.150  22.441   8.548
 2652POPC   C3B37353  17.057  22.449   8.104
 2652POPC   C4B37354  17.364  22.395   7.764
 2653POPC   NC337355  40.490   8.911   9.585
 2653POPC   PO437356  41.122   8.852   9.514
 2653POPC   GL137357  40.861   9.006   9.169
 2653POPC   GL237358  40.483   9.117   9.079
 2653POPC   C1A37359  40.745   8.786   8.793
 2653POPC   D2A37360  40.560   8.784   8.397
 2653POPC   C3A37361  40.860   8.684   8.101
 2653POPC   C4A37362  40.891   8.766   7.658
 2653POPC   C1B37363  40.786   9.288   8.752
 2653POPC   C2B37364  40.955   9.132   8.358
 2653POPC   C3B37365  40.692   9.138   7.995
 2653POPC   C4B37366  40.746   9.293   7.596
 2654POPC   NC337367  44.260  30.764   9.494
 2654POPC   PO437368  44.896  31.019   9.524
 2654POPC   GL137369  44.671  30.884   9.198
 2654POPC   GL237370  44.713  30.515   9.206
 2654POPC   C1A37371  44.496  30.751   8.813
 2654POPC   D2A37372  44.355  30.784   8.417
 2654POPC   C3A37373  44.562  30.859   8.032
 2654POPC   C4A37374  44.473  30.925   7.608
 2654POPC   C1B37375  44.714  30.288   8.816
 2654POPC   C2B37376  44.701  30.183   8.386
 2654POPC   C3B37377  44.982  30.309   8.091
 2654POPC   C4B37378  44.835  30.494   7.735
 2655POPC   NC337379  10.094   6.430   9.456
 2655POPC   PO437380   9.582   6.828   9.665
 2655POPC   GL137381   9.802   6.801   9.243
 2655POPC   GL237382   9.789   6.506   9.037
 2655POPC   C1A37383  10.006   6.883   8.806
 2655POPC   D2A37384   9.984   6.602   8.457
 2655POPC   C3A37385   9.818   6.717   8.054
 2655POPC   C4A37386   9.763   6.849   7.632
 2655POPC   C1B37387   9.932   6.196   8.792
 2655POPC   C2B37388  10.064   6.087   8.450
 2655POPC   C3B37389  10.097   6.283   8.051
 2655POPC   C4B37390   9.911   6.365   7.656
 2656POPC   NC337391  29.685  15.109   9.259
 2656POPC   PO437392  29.020  15.002   9.489
 2656POPC   GL137393  29.171  15.309   9.175
 2656POPC   GL237394  28.888  15.506   9.074
 2656POPC   C1A37395  29.283  15.322   8.750
 2656POPC   D2A37396  29.342  14.932   8.538
 2656POPC   C3A37397  29.458  14.957   8.116
 2656POPC   C4A37398  29.329  15.153   7.730
 2656POPC   C1B37399  28.780  15.257   8.677
 2656POPC   C2B37400  28.967  15.179   8.254
 2656POPC   C3B37401  28.839  15.272   7.824
 2656POPC   C4B37402  28.643  15.066   7.470
 2657POPC   NC337403   5.654  37.918   9.524
 2657POPC   PO437404   5.928  37.299   9.717
 2657POPC   GL137405   5.919  37.486   9.304
 2657POPC   GL237406   6.179  37.727   9.212
 2657POPC   C1A37407   5.748  37.573   8.894
 2657POPC   D2A37408   5.707  37.740   8.470
 2657POPC   C3A37409   5.985  37.561   8.143
 2657POPC   C4A37410   5.889  37.543   7.728
 2657POPC   C1B37411   6.063  37.986   8.831
 2657POPC   C2B37412   6.153  38.001   8.382
 2657POPC   C3B37413   5.920  38.067   7.991
 2657POPC   C4B37414   5.901  38.054   7.544
 2658POPC   NC337415  36.871  32.515   9.498
 2658POPC   PO437416  36.981  31.813   9.533
 2658POPC   GL137417  36.922  32.094   9.178
 2658POPC   GL237418  37.207  32.350   9.104
 2658POPC   C1A37419  36.909  32.139   8.749
 2658POPC   D2A37420  36.809  32.403   8.428
 2658POPC   C3A37421  36.881  32.174   8.055
 2658POPC   C4A37422  36.929  32.372   7.715
 2658POPC   C1B37423  37.262  32.566   8.700
 2658POPC   C2B37424  37.295  32.365   8.311
 2658POPC   C3B37425  37.385  32.222   7.905
 2658POPC   C4B37426  37.314  32.259   7.428
 2659POPC   NC337427   3.851  18.749   9.516
 2659POPC   PO437428   3.480  18.256   9.583
 2659POPC   GL137429   3.622  18.313   9.193
 2659POPC   GL237430   3.453  18.624   9.146
 2659POPC   C1A37431   3.822  18.160   8.824
 2659POPC   D2A37432   3.804  18.329   8.427
 2659POPC   C3A37433   3.511  18.235   8.110
 2659POPC   C4A37434   3.674  18.149   7.740
 2659POPC   C1B37435   3.418  18.489   8.730
 2659POPC   C2B37436   3.490  18.705   8.322
 2659POPC   C3B37437   3.699  18.646   7.908
 2659POPC   C4B37438   3.631  18.562   7.461
 2660POPC   NC337439  36.897   4.654   9.585
 2660POPC   PO437440  37.412   5.098   9.573
 2660POPC   GL137441  37.094   5.031   9.235
 2660POPC   GL237442  36.877   5.315   9.095
 2660POPC   C1A37443  36.996   4.897   8.823
 2660POPC   D2A37444  36.762   4.803   8.454
 2660POPC   C3A37445  36.942   4.857   8.053
 2660POPC   C4A37446  36.642   4.817   7.718
 2660POPC   C1B37447  36.678   5.286   8.673
 2660POPC   C2B37448  36.776   5.314   8.229
 2660POPC   C3B37449  36.785   5.296   7.777
 2660POPC   C4B37450  36.527   5.331   7.409
 2661POPC   NC337451   4.080  40.576   9.368
 2661POPC   PO437452   4.455  40.090   9.719
 2661POPC   GL137453   4.508  39.936   9.295
 2661POPC   GL237454   4.620  39.575   9.289
 2661POPC   C1A37455   4.252  39.904   8.912
 2661POPC   D2A37456   4.091  40.130   8.543
 2661POPC   C3A37457   4.199  40.047   8.107
 2661POPC   C4A37458   4.071  40.199   7.681
 2661POPC   C1B37459   4.746  39.752   8.886
 2661POPC   C2B37460   4.530  39.835   8.485
 2661POPC   C3B37461   4.602  39.717   8.046
 2661POPC   C4B37462   4.395  39.809   7.665
 2662POPC   NC337463  14.252   7.949   9.394
 2662POPC   PO437464  14.557   8.495   9.582
 2662POPC   GL137465  14.639   8.468   9.155
 2662POPC   GL237466  14.731   8.109   9.135
 2662POPC   C1A37467  14.440   8.443   8.779
 2662POPC   D2A37468  14.578   8.491   8.368
 2662POPC   C3A37469  14.336   8.270   8.085
 2662POPC   C4A37470  14.352   8.423   7.687
 2662POPC   C1B37471  14.496   7.914   8.773
 2662POPC   C2B37472  14.359   7.794   8.364
 2662POPC   C3B37473  14.574   7.768   7.993
 2662POPC   C4B37474  14.315   7.905   7.678
 2663POPC   NC337475  31.515   5.641   9.593
 2663POPC   PO437476  31.568   6.310   9.555
 2663POPC   GL137477  31.298   6.010   9.258
 2663POPC   GL237478  31.569   5.844   9.138
 2663POPC   C1A37479  31.188   5.758   8.827
 2663POPC   D2A37480  31.314   5.589   8.408
 2663POPC   C3A37481  31.169   5.816   8.010
 2663POPC   C4A37482  31.325   5.968   7.606
 2663POPC   C1B37483  31.681   5.964   8.748
 2663POPC   C2B37484  31.803   5.780   8.345
 2663POPC   C3B37485  31.722   5.830   7.905
 2663POPC   C4B37486  31.794   5.753   7.459
 2664POPC   NC337487  31.292  31.633   9.405
 2664POPC   PO437488  31.719  31.091   9.562
 2664POPC   GL137489  31.657  31.358   9.178
 2664POPC   GL237490  31.938  31.456   9.000
 2664POPC   C1A37491  31.508  31.622   8.788
 2664POPC   D2A37492  31.548  31.791   8.381
 2664POPC   C3A37493  31.425  31.514   8.093
 2664POPC   C4A37494  31.398  31.555   7.682
 2664POPC   C1B37495  31.768  31.136   8.725
 2664POPC   C2B37496  31.772  31.138   8.283
 2664POPC   C3B37497  31.916  31.513   8.057
 2664POPC   C4B37498  31.963  31.675   7.693
 2665POPC   NC337499  24.958  32.215   9.502
 2665POPC   PO437500  25.616  31.971   9.568
 2665POPC   GL137501  25.399  32.112   9.218
 2665POPC   GL237502  25.410  32.447   9.109
 2665POPC   C1A37503  25.288  31.987   8.810
 2665POPC   D2A37504  25.306  31.970   8.358
 2665POPC   C3A37505  25.081  32.303   8.144
 2665POPC   C4A37506  24.881  32.221   7.772
 2665POPC   C1B37507  25.210  32.512   8.740
 2665POPC   C2B37508  25.477  32.457   8.420
 2665POPC   C3B37509  25.616  32.268   8.075
 2665POPC   C4B37510  25.391  32.424   7.754
 2666POPC   NC337511  36.409  16.545   9.403
 2666POPC   PO437512  35.853  16.919   9.479
 2666POPC   GL137513  36.132  16.882   9.119
 2666POPC   GL237514  35.926  16.620   9.075
 2666POPC   C1A37515  36.365  16.678   8.764
 2666POPC   D2A37516  36.301  16.781   8.359
 2666POPC   C3A37517  36.307  16.490   8.046
 2666POPC   C4A37518  36.321  16.716   7.679
 2666POPC   C1B37519  35.860  16.813   8.671
 2666POPC   C2B37520  35.805  16.790   8.231
 2666POPC   C3B37521  35.801  16.659   7.825
 2666POPC   C4B37522  35.969  16.339   7.589
 2667POPC   NC337523  12.171  35.419   9.439
 2667POPC   PO437524  11.632  35.041   9.531
 2667POPC   GL137525  11.766  35.272   9.123
 2667POPC   GL237526  11.830  35.666   9.116
 2667POPC   C1A37527  11.913  35.373   8.679
 2667POPC   D2A37528  12.149  35.213   8.296
 2667POPC   C3A37529  11.951  35.144   7.884
 2667POPC   C4A37530  12.106  34.968   7.474
 2667POPC   C1B37531  12.242  35.762   8.848
 2667POPC   C2B37532  12.483  35.683   8.450
 2667POPC   C3B37533  12.343  35.613   8.049
 2667POPC   C4B37534  11.970  35.640   7.816
 2668POPC   NC337535  12.487  19.175   9.570
 2668POPC   PO437536  12.982  18.643   9.490
 2668POPC   GL137537  12.834  18.970   9.235
 2668POPC   GL237538  13.067  19.251   9.253
 2668POPC   C1A37539  12.676  18.952   8.834
 2668POPC   D2A37540  12.835  19.064   8.462
 2668POPC   C3A37541  12.808  18.865   8.091
 2668POPC   C4A37542  12.674  19.043   7.753
 2668POPC   C1B37543  13.266  19.262   8.838
 2668POPC   C2B37544  13.196  19.405   8.418
 2668POPC   C3B37545  12.974  19.382   8.028
 2668POPC   C4B37546  13.201  19.291   7.658
 2669POPC   NC337547  38.810  28.622   9.688
 2669POPC   PO437548  39.122  28.012   9.514
 2669POPC   GL137549  39.235  28.224   9.123
 2669POPC   GL237550  39.185  28.598   9.129
 2669POPC   C1A37551  39.305  28.342   8.679
 2669POPC   D2A37552  39.267  28.389   8.245
 2669POPC   C3A37553  39.031  28.131   7.976
 2669POPC   C4A37554  39.193  28.173   7.543
 2669POPC   C1B37555  38.910  28.671   8.727
 2669POPC   C2B37556  38.948  28.783   8.256
 2669POPC   C3B37557  39.068  28.603   7.793
 2669POPC   C4B37558  38.963  28.631   7.314
 2670POPC   NC337559   7.567  14.822   9.506
 2670POPC   PO437560   7.325  15.482   9.713
 2670POPC   GL137561   7.246  15.443   9.253
 2670POPC   GL237562   7.306  15.088   9.106
 2670POPC   C1A37563   7.107  15.482   8.815
 2670POPC   D2A37564   6.925  15.334   8.419
 2670POPC   C3A37565   7.244  15.265   8.111
 2670POPC   C4A37566   7.487  15.592   7.938
 2670POPC   C1B37567   7.545  15.193   8.712
 2670POPC   C2B37568   7.775  15.260   8.311
 2670POPC   C3B37569   7.699  15.101   7.905
 2670POPC   C4B37570   7.400  14.788   7.781
 2671POPC   NC337571   0.900  42.414   9.515
 2671POPC   PO437572   0.259  42.177   9.541
 2671POPC   GL137573   0.521  42.238   9.188
 2671POPC   GL237574   0.614  42.590   9.116
 2671POPC   C1A37575   0.572  42.088   8.771
 2671POPC   D2A37576   0.494  42.255   8.341
 2671POPC   C3A37577   0.606  42.069   7.936
 2671POPC   C4A37578   0.627  42.102   7.454
 2671POPC   C1B37579   0.782  42.758   8.709
 2671POPC   C2B37580   0.806  42.668   8.248
 2671POPC   C3B37581   0.591  42.577   7.842
 2671POPC   C4B37582   0.629  42.624   7.385
 2672POPC   NC337583  12.666   8.655   9.434
 2672POPC   PO437584  13.004   8.047   9.470
 2672POPC   GL137585  12.920   8.305   9.113
 2672POPC   GL237586  13.110   8.364   8.803
 2672POPC   C1A37587  12.591   8.342   8.812
 2672POPC   D2A37588  12.462   8.128   8.427
 2672POPC   C3A37589  12.729   8.346   8.170
 2672POPC   C4A37590  12.563   8.454   7.789
 2672POPC   C1B37591  12.928   8.009   8.580
 2672POPC   C2B37592  12.849   7.836   8.145
 2672POPC   C3B37593  12.909   8.080   7.754
 2672POPC   C4B37594  13.172   8.321   7.423
 2673POPC   NC337595  35.051  20.590   9.724
 2673POPC   PO437596  35.649  20.653   9.369
 2673POPC   GL137597  35.642  20.702   8.979
 2673POPC   GL237598  35.443  20.978   8.934
 2673POPC   C1A37599  35.514  20.598   8.583
 2673POPC   D2A37600  35.379  20.318   8.286
 2673POPC   C3A37601  35.336  20.456   7.877
 2673POPC   C4A37602  35.596  20.735   7.715
 2673POPC   C1B37603  35.093  20.867   8.676
 2673POPC   C2B37604  35.091  20.733   8.294
 2673POPC   C3B37605  35.201  20.944   7.973
 2673POPC   C4B37606  35.098  20.866   7.593
 2674POPC   NC337607   7.692  17.490   9.473
 2674POPC   PO437608   8.360  17.638   9.515
 2674POPC   GL137609   8.195  17.435   9.178
 2674POPC   GL237610   7.959  17.656   9.038
 2674POPC   C1A37611   8.207  17.261   8.762
 2674POPC   D2A37612   8.195  17.409   8.335
 2674POPC   C3A37613   7.869  17.286   8.052
 2674POPC   C4A37614   7.834  17.313   7.608
 2674POPC   C1B37615   8.391  17.781   8.858
 2674POPC   C2B37616   8.557  17.791   8.436
 2674POPC   C3B37617   8.580  17.615   8.028
 2674POPC   C4B37618   8.262  17.489   7.796
 2675POPC   NC337619  17.756  20.841   9.392
 2675POPC   PO437620  17.388  20.332   9.642
 2675POPC   GL137621  17.503  20.417   9.218
 2675POPC   GL237622  17.326  20.727   9.106
 2675POPC   C1A37623  17.401  20.334   8.781
 2675POPC   D2A37624  17.276  20.620   8.465
 2675POPC   C3A37625  17.405  20.431   8.098
 2675POPC   C4A37626  17.513  20.479   7.672
 2675POPC   C1B37627  17.513  21.035   8.822
 2675POPC   C2B37628  17.581  21.151   8.415
 2675POPC   C3B37629  17.522  20.923   8.056
 2675POPC   C4B37630  17.462  20.990   7.647
 2676POPC   NC337631  32.712  30.268   9.617
 2676POPC   PO437632  32.912  29.617   9.533
 2676POPC   GL137633  32.907  29.825   9.134
 2676POPC   GL237634  32.685  30.120   9.138
 2676POPC   C1A37635  33.165  29.930   8.773
 2676POPC   D2A37636  33.182  30.233   8.445
 2676POPC   C3A37637  33.146  30.082   8.033
 2676POPC   C4A37638  33.250  29.772   7.780
 2676POPC   C1B37639  32.712  30.159   8.722
 2676POPC   C2B37640  32.794  29.904   8.377
 2676POPC   C3B37641  32.832  29.645   8.025
 2676POPC   C4B37642  32.744  29.945   7.706
 2677POPC   NC337643   2.378  33.365   9.481
 2677POPC   PO437644   2.660  33.973   9.632
 2677POPC   GL137645   2.780  33.650   9.291
 2677POPC   GL237646   3.120  33.550   9.207
 2677POPC   C1A37647   2.750  33.711   8.838
 2677POPC   D2A37648   2.884  33.673   8.405
 2677POPC   C3A37649   2.742  33.932   8.047
 2677POPC   C4A37650   2.505  33.708   7.773
 2677POPC   C1B37651   3.115  33.320   8.799
 2677POPC   C2B37652   2.885  33.173   8.419
 2677POPC   C3B37653   2.833  33.351   7.996
 2677POPC   C4B37654   3.140  33.678   7.906
 2678POPC   NC337655  37.274   9.781   9.552
 2678POPC   PO437656  36.526   9.630   9.522
 2678POPC   GL137657  36.843   9.728   9.228
 2678POPC   GL237658  36.709   9.488   9.056
 2678POPC   C1A37659  37.002   9.767   8.764
 2678POPC   D2A37660  36.847   9.774   8.348
 2678POPC   C3A37661  37.099   9.887   7.970
 2678POPC   C4A37662  36.815   9.758   7.652
 2678POPC   C1B37663  36.929   9.243   8.776
 2678POPC   C2B37664  37.077   9.288   8.394
 2678POPC   C3B37665  36.939   9.398   8.025
 2678POPC   C4B37666  37.078   9.284   7.687
 2679POPC   NC337667  24.103  25.523   9.614
 2679POPC   PO437668  24.487  26.013   9.511
 2679POPC   GL137669  24.509  26.067   9.094
 2679POPC   GL237670  24.220  25.895   9.063
 2679POPC   C1A37671  24.795  25.957   8.756
 2679POPC   D2A37672  24.853  25.764   8.329
 2679POPC   C3A37673  24.568  25.925   7.979
 2679POPC   C4A37674  24.413  26.179   7.599
 2679POPC   C1B37675  24.323  25.863   8.638
 2679POPC   C2B37676  24.348  25.573   8.334
 2679POPC   C3B37677  24.160  25.547   7.934
 2679POPC   C4B37678  24.356  25.684   7.584
 2680POPC   NC337679   6.784  43.579   9.547
 2680POPC   PO437680   6.292  43.941   9.304
 2680POPC   GL137681   6.656  44.024   9.088
 2680POPC   GL237682   6.727  43.691   9.070
 2680POPC   C1A37683   6.764  43.958   8.642
 2680POPC   D2A37684   6.582  44.171   8.307
 2680POPC   C3A37685   6.444  44.035   7.920
 2680POPC   C4A37686   6.379  43.963   7.461
 2680POPC   C1B37687   6.959  43.465   8.794
 2680POPC   C2B37688   7.030  43.565   8.387
 2680POPC   C3B37689   6.763  43.635   8.001
 2680POPC   C4B37690   6.358  43.566   7.765
 2681POPC   NC337691  41.744   0.014   9.462
 2681POPC   PO437692  42.151  44.448   9.220
 2681POPC   GL137693  41.671  44.523   9.161
 2681POPC   GL237694  41.262  44.473   9.109
 2681POPC   C1A37695  41.576  44.426   8.722
 2681POPC   D2A37696  41.292  44.401   8.379
 2681POPC   C3A37697  41.557  44.584   8.063
 2681POPC   C4A37698  41.915  44.624   7.792
 2681POPC   C1B37699  41.180  44.759   8.723
 2681POPC   C2B37700  41.218  44.947   8.295
 2681POPC   C3B37701  41.159  44.825   7.860
 2681POPC   C4B37702  41.233  44.877   7.393
 2682POPC   NC337703  14.291  13.292   9.498
 2682POPC   PO437704  14.799  13.708   9.467
 2682POPC   GL137705  14.470  13.625   9.127
 2682POPC   GL237706  14.078  13.654   9.184
 2682POPC   C1A37707  14.565  13.429   8.714
 2682POPC   D2A37708  14.716  13.191   8.312
 2682POPC   C3A37709  14.729  13.445   7.923
 2682POPC   C4A37710  14.591  13.883   7.751
 2682POPC   C1B37711  14.038  13.340   8.875
 2682POPC   C2B37712  14.155  13.251   8.469
 2682POPC   C3B37713  14.250  13.253   8.047
 2682POPC   C4B37714  14.246  13.496   7.671
 2683POPC   NC337715  12.016  33.245   9.509
 2683POPC   PO437716  12.401  32.622   9.396
 2683POPC   GL137717  12.264  32.985   9.174
 2683POPC   GL237718  11.962  32.844   9.162
 2683POPC   C1A37719  12.146  33.252   8.810
 2683POPC   D2A37720  12.211  33.364   8.356
 2683POPC   C3A37721  12.333  33.232   7.956
 2683POPC   C4A37722  12.024  33.111   7.587
 2683POPC   C1B37723  12.206  32.714   8.769
 2683POPC   C2B37724  12.038  32.855   8.423
 2683POPC   C3B37725  12.033  32.852   8.014
 2683POPC   C4B37726  12.363  32.736   7.722
 2684POPC   NC337727  44.013  44.049   9.605
 2684POPC   PO437728  43.349  43.801   9.642
 2684POPC   GL137729  43.628  43.884   9.278
 2684POPC   GL237730  43.963  43.704   9.205
 2684POPC   C1A37731  43.791  44.120   8.920
 2684POPC   D2A37732  44.045  43.997   8.570
 2684POPC   C3A37733  43.887  44.158   8.209
 2684POPC   C4A37734  43.919  44.177   7.795
 2684POPC   C1B37735  43.676  43.603   8.840
 2684POPC   C2B37736  43.612  43.748   8.408
 2684POPC   C3B37737  43.883  43.681   8.062
 2684POPC   C4B37738  43.735  43.710   7.718
 2685POPC   NC337739  16.447  26.362   9.613
 2685POPC   PO437740  16.975  25.939   9.374
 2685POPC   GL137741  16.671  26.188   9.186
 2685POPC   GL237742  16.430  25.939   9.235
 2685POPC   C1A37743  16.696  26.333   8.771
 2685POPC   D2A37744  17.017  26.304   8.447
 2685POPC   C3A37745  16.791  26.228   8.061
 2685POPC   C4A37746  16.814  26.386   7.652
 2685POPC   C1B37747  16.676  25.797   8.837
 2685POPC   C2B37748  16.953  25.769   8.449
 2685POPC   C3B37749  16.844  25.728   7.998
 2685POPC   C4B37750  16.676  25.893   7.597
 2686POPC   NC337751  28.448  34.504   5.510
 2686POPC   PO437752  27.991  34.886   5.453
 2686POPC   GL137753  28.159  34.738   5.903
 2686POPC   GL237754  28.319  34.448   5.980
 2686POPC   C1A37755  28.213  34.723   6.381
 2686POPC   D2A37756  28.061  34.825   6.788
 2686POPC   C3A37757  28.297  34.587   7.000
 2686POPC   C4A37758  28.575  34.678   7.284
 2686POPC   C1B37759  28.344  34.209   6.330
 2686POPC   C2B37760  28.512  34.226   6.733
 2686POPC   C3B37761  28.587  34.180   7.191
 2686POPC   C4B37762  28.440  34.328   7.612
 2687POPC   NC337763  32.881  32.546   5.420
 2687POPC   PO437764  33.458  32.232   5.338
 2687POPC   GL137765  33.224  32.471   5.772
 2687POPC   GL237766  32.973  32.247   5.856
 2687POPC   C1A37767  32.997  32.595   6.191
 2687POPC   D2A37768  32.705  32.620   6.536
 2687POPC   C3A37769  32.867  32.354   6.891
 2687POPC   C4A37770  33.215  32.193   7.140
 2687POPC   C1B37771  32.856  31.906   6.141
 2687POPC   C2B37772  32.926  31.902   6.587
 2687POPC   C3B37773  32.615  31.900   6.930
 2687POPC   C4B37774  32.800  31.962   7.320
 2688POPC   NC337775  21.867  12.548   5.413
 2688POPC   PO437776  22.388  12.270   5.237
 2688POPC   GL137777  22.126  12.136   5.669
 2688POPC   GL237778  22.223  11.818   5.833
 2688POPC   C1A37779  22.011  12.113   6.171
 2688POPC   D2A37780  22.293  12.070   6.533
 2688POPC   C3A37781  22.178  12.136   6.952
 2688POPC   C4A37782  21.793  12.368   7.089
 2688POPC   C1B37783  22.256  11.641   6.269
 2688POPC   C2B37784  22.158  11.612   6.737
 2688POPC   C3B37785  22.037  11.685   7.172
 2688POPC   C4B37786  22.231  11.683   7.592
 2689POPC   NC337787  30.930  36.060   5.242
 2689POPC   PO437788  31.546  36.029   5.434
 2689POPC   GL137789  31.445  35.947   5.832
 2689POPC   GL237790  31.719  36.125   5.958
 2689POPC   C1A37791  31.270  36.108   6.249
 2689POPC   D2A37792  31.094  36.186   6.666
 2689POPC   C3A37793  31.374  36.249   7.023
 2689POPC   C4A37794  31.412  36.004   7.394
 2689POPC   C1B37795  31.681  35.809   6.253
 2689POPC   C2B37796  31.578  35.946   6.647
 2689POPC   C3B37797  31.757  35.872   7.028
 2689POPC   C4B37798  31.694  35.512   7.217
 2690POPC   NC337799  15.261  12.984   5.311
 2690POPC   PO437800  15.593  12.431   5.469
 2690POPC   GL137801  15.240  12.687   5.766
 2690POPC   GL237802  15.062  13.057   5.792
 2690POPC   C1A37803  15.313  12.904   6.204
 2690POPC   D2A37804  15.579  12.960   6.575
 2690POPC   C3A37805  15.409  12.799   6.959
 2690POPC   C4A37806  15.362  12.738   7.380
 2690POPC   C1B37807  14.808  12.960   6.205
 2690POPC   C2B37808  14.926  12.792   6.669
 2690POPC   C3B37809  14.972  13.003   7.122
 2690POPC   C4B37810  15.030  13.027   7.618
 2691POPC   NC337811  17.167  24.610   5.242
 2691POPC   PO437812  16.542  24.278   5.393
 2691POPC   GL137813  16.669  24.427   5.841
 2691POPC   GL237814  16.894  24.741   5.803
 2691POPC   C1A37815  16.605  24.432   6.312
 2691POPC   D2A37816  16.905  24.366   6.645
 2691POPC   C3A37817  16.727  24.153   6.985
 2691POPC   C4A37818  16.706  24.272   7.419
 2691POPC   C1B37819  16.979  24.788   6.277
 2691POPC   C2B37820  16.754  24.858   6.675
 2691POPC   C3B37821  16.800  24.676   7.073
 2691POPC   C4B37822  17.148  24.390   7.141
 2692POPC   NC337823  23.491   8.519   5.410
 2692POPC   PO437824  23.244   7.965   5.080
 2692POPC   GL137825  23.414   7.993   5.557
 2692POPC   GL237826  23.752   8.117   5.668
 2692POPC   C1A37827  23.404   8.026   6.027
 2692POPC   D2A37828  23.487   7.851   6.465
 2692POPC   C3A37829  23.588   8.015   6.911
 2692POPC   C4A37830  23.383   8.049   7.293
 2692POPC   C1B37831  23.840   8.250   6.096
 2692POPC   C2B37832  23.769   8.342   6.516
 2692POPC   C3B37833  24.014   8.333   6.865
 2692POPC   C4B37834  23.850   8.330   7.263
 2693POPC   NC337835  43.188  13.040   5.420
 2693POPC   PO437836  42.756  12.676   5.725
 2693POPC   GL137837  42.921  13.002   5.919
 2693POPC   GL237838  43.239  12.823   5.905
 2693POPC   C1A37839  42.898  13.034   6.370
 2693POPC   D2A37840  42.729  12.754   6.707
 2693POPC   C3A37841  42.906  12.925   7.088
 2693POPC   C4A37842  43.150  13.188   7.362
 2693POPC   C1B37843  43.175  12.613   6.305
 2693POPC   C2B37844  43.226  12.685   6.752
 2693POPC   C3B37845  43.487  12.542   7.078
 2693POPC   C4B37846  43.641  12.360   7.441
 2694POPC   NC337847  37.340  39.141   5.355
 2694POPC   PO437848  36.752  39.047   5.400
 2694POPC   GL137849  37.023  39.088   5.797
 2694POPC   GL237850  37.283  39.354   5.830
 2694POPC   C1A37851  36.953  39.182   6.266
 2694POPC   D2A37852  36.913  39.410   6.681
 2694POPC   C3A37853  36.820  39.133   7.044
 2694POPC   C4A37854  36.536  39.156   7.427
 2694POPC   C1B37855  37.372  39.469   6.270
 2694POPC   C2B37856  37.392  39.624   6.707
 2694POPC   C3B37857  37.213  39.532   7.089
 2694POPC   C4B37858  36.988  39.378   7.441
 2695POPC   NC337859  15.395  32.157   5.194
 2695POPC   PO437860  14.780  32.409   5.482
 2695POPC   GL137861  14.941  32.045   5.742
 2695POPC   GL237862  15.275  32.106   5.944
 2695POPC   C1A37863  14.845  32.019   6.186
 2695POPC   D2A37864  14.836  32.342   6.493
 2695POPC   C3A37865  15.074  32.228   6.850
 2695POPC   C4A37866  14.998  32.036   7.235
 2695POPC   C1B37867  15.474  32.377   6.274
 2695POPC   C2B37868  15.576  32.379   6.713
 2695POPC   C3B37869  15.428  32.509   7.121
 2695POPC   C4B37870  15.012  32.602   7.227
 2696POPC   NC337871  28.557  28.560   4.983
 2696POPC   PO437872  28.300  28.097   5.363
 2696POPC   GL137873  28.327  28.251   5.821
 2696POPC   GL237874  28.536  28.502   5.904
 2696POPC   C1A37875  28.081  28.351   6.239
 2696POPC   D2A37876  28.196  28.273   6.706
 2696POPC   C3A37877  28.108  28.528   7.104
 2696POPC   C4A37878  27.988  28.445   7.557
 2696POPC   C1B37879  28.565  28.245   6.275
 2696POPC   C2B37880  28.730  28.447   6.618
 2696POPC   C3B37881  28.590  28.394   7.006
 2696POPC   C4B37882  28.727  28.197   7.325
 2697POPC   NC337883  11.399  14.768   5.619
 2697POPC   PO437884  11.968  14.670   5.411
 2697POPC   GL137885  11.847  14.519   5.769
 2697POPC   GL237886  11.961  14.202   5.738
 2697POPC   C1A37887  11.758  14.509   6.182
 2697POPC   D2A37888  11.752  14.238   6.513
 2697POPC   C3A37889  11.864  14.447   6.872
 2697POPC   C4A37890  11.892  14.329   7.279
 2697POPC   C1B37891  12.086  14.128   6.148
 2697POPC   C2B37892  12.323  14.206   6.499
 2697POPC   C3B37893  12.258  14.123   6.918
 2697POPC   C4B37894  12.368  14.199   7.339
 2698POPC   NC337895  20.075  30.909   5.241
 2698POPC   PO437896  19.625  30.488   5.588
 2698POPC   GL137897  19.925  30.555   5.831
 2698POPC   GL237898  19.948  30.890   5.744
 2698POPC   C1A37899  19.883  30.422   6.241
 2698POPC   D2A37900  19.984  30.589   6.608
 2698POPC   C3A37901  19.626  30.635   6.857
 2698POPC   C4A37902  19.870  30.448   7.165
 2698POPC   C1B37903  20.013  30.945   6.190
 2698POPC   C2B37904  19.929  31.091   6.622
 2698POPC   C3B37905  19.973  30.976   7.057
 2698POPC   C4B37906  20.092  31.245   7.380
 2699POPC   NC337907   4.005  37.910   5.554
 2699POPC   PO437908   4.526  37.536   5.360
 2699POPC   GL137909   4.379  37.583   5.789
 2699POPC   GL237910   4.438  37.955   5.836
 2699POPC   C1A37911   4.453  37.388   6.212
 2699POPC   D2A37912   4.385  37.568   6.617
 2699POPC   C3A37913   4.106  37.406   6.949
 2699POPC   C4A37914   4.092  37.527   7.357
 2699POPC   C1B37915   4.233  37.886   6.229
 2699POPC   C2B37916   4.232  38.075   6.640
 2699POPC   C3B37917   4.293  37.881   7.007
 2699POPC   C4B37918   4.269  37.981   7.393
 2700POPC   NC337919  37.169  19.142   5.243
 2700POPC   PO437920  36.485  19.266   5.286
 2700POPC   GL137921  36.720  19.323   5.674
 2700POPC   GL237922  36.988  19.077   5.752
 2700POPC   C1A37923  36.726  19.321   6.137
 2700POPC   D2A37924  36.909  19.118   6.485
 2700POPC   C3A37925  36.861  19.331   6.886
 2700POPC   C4A37926  36.930  19.014   7.186
 2700POPC   C1B37927  37.281  18.827   6.036
 2700POPC   C2B37928  37.389  18.699   6.444
 2700POPC   C3B37929  37.285  18.712   6.892
 2700POPC   C4B37930  37.456  18.772   7.292
 2701POPC   NC337931  11.602  15.793   5.536
 2701POPC   PO437932  11.924  16.360   5.584
 2701POPC   GL137933  12.004  16.113   5.932
 2701POPC   GL237934  11.757  15.869   6.026
 2701POPC   C1A37935  12.175  16.153   6.303
 2701POPC   D2A37936  12.028  16.010   6.679
 2701POPC   C3A37937  12.226  16.223   6.961
 2701POPC   C4A37938  11.969  16.367   7.188
 2701POPC   C1B37939  12.058  15.656   6.305
 2701POPC   C2B37940  12.286  15.564   6.711
 2701POPC   C3B37941  12.218  15.731   7.122
 2701POPC   C4B37942  12.099  15.628   7.548
 2702POPC   NC337943  38.640  25.012   5.402
 2702POPC   PO437944  38.791  25.701   5.518
 2702POPC   GL137945  38.616  25.338   5.777
 2702POPC   GL237946  38.620  25.526   6.006
 2702POPC   C1A37947  38.580  25.047   6.197
 2702POPC   D2A37948  38.402  25.049   6.663
 2702POPC   C3A37949  38.469  24.995   7.162
 2702POPC   C4A37950  38.761  25.176   7.514
 2702POPC   C1B37951  38.283  25.467   6.284
 2702POPC   C2B37952  38.436  25.573   6.692
 2702POPC   C3B37953  38.601  25.484   7.106
 2702POPC   C4B37954  38.293  25.400   7.441
 2703POPC   NC337955  10.115  26.208   5.459
 2703POPC   PO437956   9.604  25.807   5.306
 2703POPC   GL137957   9.629  25.940   5.769
 2703POPC   GL237958   9.709  26.289   5.843
 2703POPC   C1A37959   9.851  25.948   6.196
 2703POPC   D2A37960  10.026  25.810   6.613
 2703POPC   C3A37961   9.850  25.923   7.030
 2703POPC   C4A37962   9.457  25.901   7.251
 2703POPC   C1B37963   9.856  26.475   6.225
 2703POPC   C2B37964   9.772  26.275   6.609
 2703POPC   C3B37965   9.528  26.320   6.954
 2703POPC   C4B37966   9.500  26.391   7.365
 2704POPC   NC337967  26.275   1.816   5.425
 2704POPC   PO437968  26.198   2.417   5.170
 2704POPC   GL137969  26.070   2.270   5.659
 2704POPC   GL237970  25.778   2.033   5.718
 2704POPC   C1A37971  26.177   2.113   6.131
 2704POPC   D2A37972  26.281   2.388   6.486
 2704POPC   C3A37973  26.255   2.248   6.909
 2704POPC   C4A37974  26.061   2.018   7.208
 2704POPC   C1B37975  25.704   1.956   6.174
 2704POPC   C2B37976  25.897   1.940   6.606
 2704POPC   C3B37977  25.725   1.709   6.955
 2704POPC   C4B37978  25.851   1.591   7.354
 2705POPC   NC337979  37.373  29.181   5.069
 2705POPC   PO437980  36.726  29.125   5.360
 2705POPC   GL137981  36.994  29.116   5.711
 2705POPC   GL237982  37.023  29.447   5.698
 2705POPC   C1A37983  37.091  28.983   6.150
 2705POPC   D2A37984  36.908  28.804   6.525
 2705POPC   C3A37985  37.050  28.975   6.924
 2705POPC   C4A37986  36.734  29.076   7.265
 2705POPC   C1B37987  36.915  29.455   6.132
 2705POPC   C2B37988  37.122  29.344   6.533
 2705POPC   C3B37989  36.845  29.425   6.871
 2705POPC   C4B37990  36.844  29.604   7.258
 2706POPC   NC337991   9.031   7.091   5.521
 2706POPC   PO437992   9.270   7.777   5.382
 2706POPC   GL137993   9.123   7.641   5.808
 2706POPC   GL237994   8.755   7.603   5.849
 2706POPC   C1A37995   9.053   7.449   6.244
 2706POPC   D2A37996   8.970   7.601   6.663
 2706POPC   C3A37997   9.158   7.407   7.049
 2706POPC   C4A37998   9.360   7.181   7.417
 2706POPC   C1B37999   8.630   7.766   6.289
 2706POPC   C2B38000   8.528   7.856   6.754
 2706POPC   C3B38001   8.686   7.596   7.120
 2706POPC   C4B38002   8.915   7.417   7.506
 2707POPC   NC338003   3.717  33.495   4.952
 2707POPC   PO438004   3.291  34.011   5.257
 2707POPC   GL138005   3.461  33.825   5.636
 2707POPC   GL238006   3.220  33.791   5.882
 2707POPC   C1A38007   3.745  33.850   6.010
 2707POPC   D2A38008   3.934  33.713   6.419
 2707POPC   C3A38009   3.678  33.746   6.821
 2707POPC   C4A38010   3.694  33.951   7.240
 2707POPC   C1B38011   3.344  33.794   6.319
 2707POPC   C2B38012   3.191  33.915   6.685
 2707POPC   C3B38013   3.091  34.034   7.076
 2707POPC   C4B38014   3.222  33.946   7.477
 2708POPC   NC338015  15.777   7.103   5.646
 2708POPC   PO438016  16.033   6.758   5.170
 2708POPC   GL138017  15.919   6.605   5.626
 2708POPC   GL238018  16.090   6.787   5.902
 2708POPC   C1A38019  15.781   6.398   6.029
 2708POPC   D2A38020  15.997   6.499   6.408
 2708POPC   C3A38021  15.891   6.497   6.843
 2708POPC   C4A38022  16.060   6.319   7.212
 2708POPC   C1B38023  15.876   6.982   6.263
 2708POPC   C2B38024  15.695   7.069   6.654
 2708POPC   C3B38025  15.729   7.188   7.060
 2708POPC   C4B38026  15.958   6.845   7.230
 2709POPC   NC338027  40.627  25.903   5.170
 2709POPC   PO438028  40.993  26.488   5.246
 2709POPC   GL138029  40.783  26.271   5.568
 2709POPC   GL238030  40.843  25.889   5.658
 2709POPC   C1A38031  40.810  26.272   6.016
 2709POPC   D2A38032  40.768  26.103   6.420
 2709POPC   C3A38033  40.797  26.360   6.761
 2709POPC   C4A38034  40.867  26.102   7.107
 2709POPC   C1B38035  40.948  25.707   6.098
 2709POPC   C2B38036  41.074  25.708   6.564
 2709POPC   C3B38037  40.934  25.601   7.004
 2709POPC   C4B38038  41.069  25.527   7.439
 2710POPC   NC338039  35.834   4.653   5.315
 2710POPC   PO438040  36.261   5.360   5.384
 2710POPC   GL138041  36.376   5.189   5.783
 2710POPC   GL238042  36.285   4.823   5.736
 2710POPC   C1A38043  36.393   5.390   6.221
 2710POPC   D2A38044  36.098   5.340   6.586
 2710POPC   C3A38045  36.228   5.211   7.008
 2710POPC   C4A38046  35.930   5.190   7.391
 2710POPC   C1B38047  36.157   4.953   6.181
 2710POPC   C2B38048  36.320   4.879   6.586
 2710POPC   C3B38049  36.331   4.676   6.969
 2710POPC   C4B38050  36.298   4.847   7.368
 2711POPC   NC338051   7.522  35.764   5.383
 2711POPC   PO438052   7.233  36.356   5.251
 2711POPC   GL138053   7.297  36.089   5.702
 2711POPC   GL238054   7.621  35.925   5.847
 2711POPC   C1A38055   7.137  35.978   6.150
 2711POPC   D2A38056   6.892  36.048   6.561
 2711POPC   C3A38057   7.095  36.020   6.946
 2711POPC   C4A38058   7.358  36.063   7.313
 2711POPC   C1B38059   7.679  36.006   6.250
 2711POPC   C2B38060   7.440  36.114   6.570
 2711POPC   C3B38061   7.637  36.161   6.921
 2711POPC   C4B38062   7.857  35.907   7.213
 2712POPC   NC338063  16.010  29.164   5.306
 2712POPC   PO438064  16.430  28.679   5.421
 2712POPC   GL138065  16.194  28.971   5.724
 2712POPC   GL238066  16.174  29.349   5.754
 2712POPC   C1A38067  15.973  28.966   6.112
 2712POPC   D2A38068  16.074  29.182   6.495
 2712POPC   C3A38069  16.189  28.955   6.858
 2712POPC   C4A38070  16.105  29.134   7.260
 2712POPC   C1B38071  15.869  29.467   6.090
 2712POPC   C2B38072  15.641  29.486   6.501
 2712POPC   C3B38073  15.699  29.299   6.929
 2712POPC   C4B38074  15.371  29.311   7.255
 2713POPC   NC338075   7.615  15.341   5.444
 2713POPC   PO438076   7.485  14.681   5.597
 2713POPC   GL138077   7.432  15.002   5.904
 2713POPC   GL238078   7.573  15.351   5.941
 2713POPC   C1A38079   7.532  15.040   6.336
 2713POPC   D2A38080   7.871  15.024   6.566
 2713POPC   C3A38081   7.631  14.986   6.907
 2713POPC   C4A38082   7.485  14.747   7.269
 2713POPC   C1B38083   7.238  15.453   6.276
 2713POPC   C2B38084   7.253  15.301   6.708
 2713POPC   C3B38085   7.192  15.159   7.111
 2713POPC   C4B38086   7.369  15.251   7.540
 2714POPC   NC338087  26.851   4.850   5.469
 2714POPC   PO438088  27.129   5.460   5.504
 2714POPC   GL138089  26.898   5.255   5.804
 2714POPC   GL238090  26.523   5.206   5.756
 2714POPC   C1A38091  26.850   5.311   6.209
 2714POPC   D2A38092  26.917   5.066   6.539
 2714POPC   C3A38093  26.869   5.313   6.893
 2714POPC   C4A38094  26.972   5.195   7.280
 2714POPC   C1B38095  26.576   4.888   6.107
 2714POPC   C2B38096  26.545   4.689   6.513
 2714POPC   C3B38097  26.646   4.834   6.927
 2714POPC   C4B38098  26.331   5.033   7.172
 2715POPC   NC338099  22.319   9.894   5.446
 2715POPC   PO438100  22.351  10.554   5.528
 2715POPC   GL138101  22.091  10.357   5.864
 2715POPC   GL238102  21.912  10.046   5.842
 2715POPC   C1A38103  22.056  10.361   6.315
 2715POPC   D2A38104  22.183  10.505   6.734
 2715POPC   C3A38105  21.958  10.497   7.109
 2715POPC   C4A38106  21.967  10.823   7.412
 2715POPC   C1B38107  22.275   9.945   6.140
 2715POPC   C2B38108  22.451  10.105   6.564
 2715POPC   C3B38109  22.441  10.190   7.055
 2715POPC   C4B38110  22.212  10.232   7.479
 2716POPC   NC338111  31.550   5.641   5.460
 2716POPC   PO438112  31.633   6.280   5.323
 2716POPC   GL138113  31.756   6.044   5.687
 2716POPC   GL238114  31.402   6.033   5.804
 2716POPC   C1A38115  31.725   5.818   6.107
 2716POPC   D2A38116  31.479   5.925   6.481
 2716POPC   C3A38117  31.702   5.948   6.875
 2716POPC   C4A38118  31.586   6.205   7.190
 2716POPC   C1B38119  31.098   6.010   6.140
 2716POPC   C2B38120  31.070   6.268   6.496
 2716POPC   C3B38121  31.163   6.081   6.870
 2716POPC   C4B38122  31.032   6.157   7.254
 2717POPC   NC338123  14.345  33.802   5.410
 2717POPC   PO438124  15.006  33.845   5.580
 2717POPC   GL138125  14.682  33.601   5.839
 2717POPC   GL238126  14.299  33.621   5.894
 2717POPC   C1A38127  14.681  33.579   6.295
 2717POPC   D2A38128  14.619  33.896   6.633
 2717POPC   C3A38129  14.489  33.749   7.048
 2717POPC   C4A38130  14.597  33.558   7.434
 2717POPC   C1B38131  14.209  33.859   6.300
 2717POPC   C2B38132  14.102  33.905   6.744
 2717POPC   C3B38133  14.143  34.103   7.165
 2717POPC   C4B38134  14.199  33.903   7.582
 2718POPC   NC338135  36.398  15.087   5.294
 2718POPC   PO438136  35.923  15.530   5.336
 2718POPC   GL138137  36.101  15.289   5.708
 2718POPC   GL238138  36.387  15.435   5.886
 2718POPC   C1A38139  36.036  14.997   6.087
 2718POPC   D2A38140  35.782  14.917   6.488
 2718POPC   C3A38141  35.993  14.856   6.880
 2718POPC   C4A38142  36.233  15.033   7.210
 2718POPC   C1B38143  36.053  15.512   6.210
 2718POPC   C2B38144  36.044  15.415   6.666
 2718POPC   C3B38145  36.251  15.522   7.060
 2718POPC   C4B38146  36.183  15.509   7.533
 2719POPC   NC338147   4.936  37.395   5.212
 2719POPC   PO438148   5.501  37.758   5.390
 2719POPC   GL138149   5.189  37.548   5.691
 2719POPC   GL238150   4.877  37.689   5.768
 2719POPC   C1A38151   5.063  37.403   6.144
 2719POPC   D2A38152   4.884  37.429   6.592
 2719POPC   C3A38153   5.055  37.348   7.041
 2719POPC   C4A38154   5.194  37.659   7.380
 2719POPC   C1B38155   4.751  37.807   6.229
 2719POPC   C2B38156   4.734  37.984   6.675
 2719POPC   C3B38157   4.807  37.924   7.135
 2719POPC   C4B38158   4.710  37.781   7.571
 2720POPC   NC338159  38.186   7.553   5.157
 2720POPC   PO438160  38.398   7.025   5.516
 2720POPC   GL138161  38.214   7.320   5.811
 2720POPC   GL238162  38.096   7.039   5.994
 2720POPC   C1A38163  38.350   7.638   6.179
 2720POPC   D2A38164  38.646   7.821   6.510
 2720POPC   C3A38165  38.564   7.755   6.951
 2720POPC   C4A38166  38.785   7.835   7.319
 2720POPC   C1B38167  38.450   7.149   6.228
 2720POPC   C2B38168  38.454   7.314   6.656
 2720POPC   C3B38169  38.474   7.176   7.097
 2720POPC   C4B38170  38.642   7.102   7.520
 2721POPC   NC338171  12.972  22.426   5.385
 2721POPC   PO438172  12.560  21.944   5.458
 2721POPC   GL138173  12.605  22.311   5.723
 2721POPC   GL238174  12.945  22.149   5.819
 2721POPC   C1A38175  12.720  22.466   6.136
 2721POPC   D2A38176  12.911  22.318   6.527
 2721POPC   C3A38177  12.703  22.256   6.929
 2721POPC   C4A38178  12.686  22.093   7.377
 2721POPC   C1B38179  13.203  22.016   6.166
 2721POPC   C2B38180  13.400  22.179   6.536
 2721POPC   C3B38181  13.182  22.064   6.918
 2721POPC   C4B38182  13.183  22.168   7.318
 2722POPC   NC338183  18.865  12.154   5.373
 2722POPC   PO438184  18.564  11.593   5.344
 2722POPC   GL138185  18.798  11.778   5.744
 2722POPC   GL238186  19.151  11.876   5.707
 2722POPC   C1A38187  19.061  11.695   6.171
 2722POPC   D2A38188  19.379  11.916   6.410
 2722POPC   C3A38189  19.293  11.903   6.837
 2722POPC   C4A38190  18.923  11.874   7.086
 2722POPC   C1B38191  19.109  12.183   6.059
 2722POPC   C2B38192  19.096  12.336   6.491
 2722POPC   C3B38193  19.095  12.351   6.936
 2722POPC   C4B38194  19.012  12.460   7.336
 2723POPC   NC338195  42.923  29.354   5.589
 2723POPC   PO438196  43.110  30.031   5.453
 2723POPC   GL138197  42.991  29.823   5.818
 2723POPC   GL238198  43.251  29.595   5.890
 2723POPC   C1A38199  42.928  29.729   6.258
 2723POPC   D2A38200  43.115  29.883   6.644
 2723POPC   C3A38201  42.955  29.809   7.030
 2723POPC   C4A38202  43.087  29.963   7.411
 2723POPC   C1B38203  43.447  29.751   6.255
 2723POPC   C2B38204  43.625  29.675   6.678
 2723POPC   C3B38205  43.476  29.734   7.111
 2723POPC   C4B38206  43.511  29.724   7.591
 2724POPC   NC338207   6.395  38.427   5.396
 2724POPC   PO438208   6.908  38.788   5.155
 2724POPC   GL138209   6.729  38.716   5.652
 2724POPC   GL238210   6.368  38.802   5.829
 2724POPC   C1A38211   6.699  38.561   6.128
 2724POPC   D2A38212   6.905  38.647   6.557
 2724POPC   C3A38213   6.786  38.402   6.931
 2724POPC   C4A38214   6.359  38.303   7.139
 2724POPC   C1B38215   6.340  38.935   6.304
 2724POPC   C2B38216   6.405  38.745   6.737
 2724POPC   C3B38217   6.301  38.817   7.205
 2724POPC   C4B38218   6.419  38.908   7.633
 2725POPC   NC338219  16.136  36.524   5.615
 2725POPC   PO438220  15.865  35.931   5.321
 2725POPC   GL138221  15.909  36.081   5.761
 2725POPC   GL238222  16.254  35.975   5.740
 2725POPC   C1A38223  16.040  36.258   6.196
 2725POPC   D2A38224  16.054  36.049   6.593
 2725POPC   C3A38225  16.055  36.303   6.962
 2725POPC   C4A38226  15.728  36.465   7.232
 2725POPC   C1B38227  16.198  35.776   6.137
 2725POPC   C2B38228  16.307  35.588   6.522
 2725POPC   C3B38229  16.193  35.689   6.931
 2725POPC   C4B38230  15.974  35.907   7.278
 2726POPC   NC338231  42.273   0.909   5.404
 2726POPC   PO438232  42.450   1.540   5.230
 2726POPC   GL138233  42.492   1.334   5.668
 2726POPC   GL238234  42.178   1.216   5.799
 2726POPC   C1A38235  42.653   1.453   6.122
 2726POPC   D2A38236  42.758   1.476   6.581
 2726POPC   C3A38237  42.593   1.288   6.980
 2726POPC   C4A38238  42.701   1.398   7.401
 2726POPC   C1B38239  42.315   1.092   6.208
 2726POPC   C2B38240  42.251   1.304   6.597
 2726POPC   C3B38241  42.084   1.301   7.031
 2726POPC   C4B38242  41.744   1.496   7.251
 2727POPC   NC338243  19.567   8.187   5.566
 2727POPC   PO438244  20.136   7.972   5.235
 2727POPC   GL138245  20.095   8.182   5.683
 2727POPC   GL238246  19.956   8.489   5.629
 2727POPC   C1A38247  20.017   8.095   6.147
 2727POPC   D2A38248  20.137   7.843   6.507
 2727POPC   C3A38249  20.172   8.103   6.828
 2727POPC   C4A38250  19.837   8.024   7.123
 2727POPC   C1B38251  19.938   8.586   6.070
 2727POPC   C2B38252  20.040   8.596   6.504
 2727POPC   C3B38253  19.918   8.585   6.926
 2727POPC   C4B38254  20.166   8.427   7.207
 2728POPC   NC338255   8.430   0.196   5.404
 2728POPC   PO438256   7.811  44.864   5.420
 2728POPC   GL138257   7.964   0.164   5.781
 2728POPC   GL238258   8.294   0.329   5.870
 2728POPC   C1A38259   7.943   0.231   6.231
 2728POPC   D2A38260   8.139   0.385   6.604
 2728POPC   C3A38261   8.002   0.193   6.962
 2728POPC   C4A38262   8.206   0.186   7.380
 2728POPC   C1B38263   8.558   0.413   6.220
 2728POPC   C2B38264   8.604   0.555   6.642
 2728POPC   C3B38265   8.448   0.516   7.070
 2728POPC   C4B38266   8.597   0.531   7.517
 2729POPC   NC338267   9.742  35.334   5.372
 2729POPC   PO438268   9.510  34.793   5.149
 2729POPC   GL138269   9.627  34.864   5.626
 2729POPC   GL238270   9.926  35.069   5.764
 2729POPC   C1A38271   9.489  35.103   6.033
 2729POPC   D2A38272   9.649  35.182   6.467
 2729POPC   C3A38273   9.399  35.279   6.841
 2729POPC   C4A38274   9.524  35.314   7.256
 2729POPC   C1B38275   9.944  35.438   6.073
 2729POPC   C2B38276  10.007  35.602   6.516
 2729POPC   C3B38277   9.918  35.484   6.961
 2729POPC   C4B38278   9.943  35.655   7.401
 2730POPC   NC338279  40.160  11.622   5.418
 2730POPC   PO438280  39.609  11.243   5.443
 2730POPC   GL138281  39.973  11.294   5.796
 2730POPC   GL238282  40.341  11.466   5.865
 2730POPC   C1A38283  40.105  11.212   6.238
 2730POPC   D2A38284  40.082  11.412   6.652
 2730POPC   C3A38285  39.709  11.546   6.834
 2730POPC   C4A38286  39.651  11.383   7.243
 2730POPC   C1B38287  40.599  11.415   6.250
 2730POPC   C2B38288  40.575  11.522   6.683
 2730POPC   C3B38289  40.460  11.373   7.090
 2730POPC   C4B38290  40.135  11.475   7.379
 2731POPC   NC338291   0.425  17.335   5.679
 2731POPC   PO438292   0.287  17.899   5.281
 2731POPC   GL138293   0.251  17.872   5.768
 2731POPC   GL238294   0.493  18.081   5.945
 2731POPC   C1A38295   0.216  17.676   6.181
 2731POPC   D2A38296   0.389  17.309   6.358
 2731POPC   C3A38297   0.243  17.220   6.766
 2731POPC   C4A38298   0.393  17.400   7.144
 2731POPC   C1B38299   0.623  17.934   6.353
 2731POPC   C2B38300   0.531  17.727   6.747
 2731POPC   C3B38301   0.486  17.922   7.162
 2731POPC   C4B38302   0.267  18.019   7.563
 2732POPC   NC338303  24.961  15.063   5.461
 2732POPC   PO438304  24.592  15.583   5.398
 2732POPC   GL138305  24.474  15.284   5.729
 2732POPC   GL238306  24.311  14.976   5.703
 2732POPC   C1A38307  24.640  15.146   6.125
 2732POPC   D2A38308  24.459  15.161   6.547
 2732POPC   C3A38309  24.643  15.045   6.933
 2732POPC   C4A38310  24.529  15.341   7.240
 2732POPC   C1B38311  24.195  14.910   6.152
 2732POPC   C2B38312  24.002  14.908   6.577
 2732POPC   C3B38313  24.106  15.084   6.964
 2732POPC   C4B38314  24.207  14.957   7.345
 2733POPC   NC338315   4.029   0.304   5.523
 2733POPC   PO438316   4.727   0.164   5.491
 2733POPC   GL138317   4.422   0.167   5.848
 2733POPC   GL238318   4.329   0.521   5.907
 2733POPC   C1A38319   4.058   0.068   6.154
 2733POPC   D2A38320   3.931   0.070   6.591
 2733POPC   C3A38321   4.269   0.269   6.829
 2733POPC   C4A38322   4.229   0.342   7.249
 2733POPC   C1B38323   4.389   0.426   6.339
 2733POPC   C2B38324   4.642   0.606   6.671
 2733POPC   C3B38325   4.391   0.759   7.010
 2733POPC   C4B38326   3.941   0.947   7.050
 2734POPC   NC338327   6.368  32.302   5.061
 2734POPC   PO438328   6.829  32.537   5.578
 2734POPC   GL138329   6.607  32.554   5.929
 2734POPC   GL238330   6.242  32.692   5.878
 2734POPC   C1A38331   6.669  32.288   6.249
 2734POPC   D2A38332   6.514  32.032   6.562
 2734POPC   C3A38333   6.784  32.151   6.876
 2734POPC   C4A38334   6.740  32.321   7.287
 2734POPC   C1B38335   6.208  32.499   6.254
 2734POPC   C2B38336   6.447  32.636   6.583
 2734POPC   C3B38337   6.360  32.462   6.958
 2734POPC   C4B38338   6.309  32.575   7.382
 2735POPC   NC338339  26.866   8.345   5.422
 2735POPC   PO438340  26.541   7.847   5.463
 2735POPC   GL138341  26.893   7.978   5.767
 2735POPC   GL238342  26.667   8.207   5.891
 2735POPC   C1A38343  27.016   8.019   6.216
 2735POPC   D2A38344  27.228   8.285   6.511
 2735POPC   C3A38345  27.061   8.309   6.919
 2735POPC   C4A38346  26.992   7.917   7.112
 2735POPC   C1B38347  26.516   7.986   6.274
 2735POPC   C2B38348  26.687   7.965   6.696
 2735POPC   C3B38349  26.473   7.913   7.103
 2735POPC   C4B38350  26.296   8.231   7.374
 2736POPC   NC338351  38.727   3.107   5.342
 2736POPC   PO438352  38.411   2.553   5.403
 2736POPC   GL138353  38.341   2.734   5.774
 2736POPC   GL238354  38.353   3.091   5.737
 2736POPC   C1A38355  38.606   2.880   6.135
 2736POPC   D2A38356  38.744   2.716   6.543
 2736POPC   C3A38357  38.518   2.685   6.936
 2736POPC   C4A38358  38.539   2.882   7.323
 2736POPC   C1B38359  38.107   2.958   6.141
 2736POPC   C2B38360  38.274   2.950   6.564
 2736POPC   C3B38361  38.158   3.034   7.011
 2736POPC   C4B38362  38.110   3.271   7.384
 2737POPC   NC338363  28.124  32.607   5.480
 2737POPC   PO438364  28.538  33.162   5.365
 2737POPC   GL138365  28.220  33.086   5.702
 2737POPC   GL238366  28.360  32.840   5.855
 2737POPC   C1A38367  28.249  33.207   6.180
 2737POPC   D2A38368  28.404  33.344   6.583
 2737POPC   C3A38369  28.242  33.255   6.978
 2737POPC   C4A38370  28.217  33.398   7.392
 2737POPC   C1B38371  28.177  32.695   6.210
 2737POPC   C2B38372  28.301  32.826   6.600
 2737POPC   C3B38373  28.288  32.748   7.010
 2737POPC   C4B38374  28.140  32.911   7.366
 2738POPC   NC338375  16.085  33.995   5.467
 2738POPC   PO438376  15.856  33.324   5.563
 2738POPC   GL138377  16.041  33.594   5.883
 2738POPC   GL238378  15.891  33.908   5.919
 2738POPC   C1A38379  16.106  33.657   6.341
 2738POPC   D2A38380  16.191  33.665   6.779
 2738POPC   C3A38381  15.990  33.651   7.175
 2738POPC   C4A38382  16.061  33.377   7.550
 2738POPC   C1B38383  15.685  33.950   6.300
 2738POPC   C2B38384  15.833  34.134   6.651
 2738POPC   C3B38385  15.747  34.121   7.056
 2738POPC   C4B38386  15.492  33.830   7.218
 2739POPC   NC338387  31.867   6.682   5.393
 2739POPC   PO438388  32.561   6.449   5.338
 2739POPC   GL138389  32.330   6.613   5.711
 2739POPC   GL238390  32.357   6.960   5.838
 2739POPC   C1A38391  32.186   6.573   6.172
 2739POPC   D2A38392  32.240   6.701   6.629
 2739POPC   C3A38393  32.139   6.459   7.027
 2739POPC   C4A38394  32.259   6.559   7.470
 2739POPC   C1B38395  32.601   6.878   6.217
 2739POPC   C2B38396  32.781   6.786   6.631
 2739POPC   C3B38397  32.572   6.755   7.021
 2739POPC   C4B38398  32.163   6.963   7.124
 2740POPC   NC338399  18.564   3.027   5.459
 2740POPC   PO438400  18.000   2.760   5.324
 2740POPC   GL138401  18.081   2.593   5.760
 2740POPC   GL238402  18.439   2.548   5.865
 2740POPC   C1A38403  18.006   2.581   6.215
 2740POPC   D2A38404  17.956   2.762   6.643
 2740POPC   C3A38405  18.230   2.745   7.005
 2740POPC   C4A38406  18.067   2.667   7.411
 2740POPC   C1B38407  18.568   2.711   6.303
 2740POPC   C2B38408  18.681   2.564   6.749
 2740POPC   C3B38409  18.691   2.620   7.219
 2740POPC   C4B38410  18.533   2.980   7.418
 2741POPC   NC338411  25.341  34.511   5.304
 2741POPC   PO438412  24.801  34.912   5.201
 2741POPC   GL138413  24.856  34.632   5.640
 2741POPC   GL238414  25.036  34.286   5.723
 2741POPC   C1A38415  25.094  34.652   6.075
 2741POPC   D2A38416  25.471  34.641   6.382
 2741POPC   C3A38417  25.364  34.667   6.825
 2741POPC   C4A38418  25.472  34.755   7.265
 2741POPC   C1B38419  25.326  34.206   6.135
 2741POPC   C2B38420  25.437  34.175   6.621
 2741POPC   C3B38421  25.425  34.255   7.107
 2741POPC   C4B38422  25.721  34.306   7.444
 2742POPC   NC338423  22.706  31.321   5.151
 2742POPC   PO438424  23.107  30.992   5.505
 2742POPC   GL138425  23.110  31.395   5.705
 2742POPC   GL238426  22.756  31.536   5.664
 2742POPC   C1A38427  23.156  31.535   6.146
 2742POPC   D2A38428  23.033  31.403   6.569
 2742POPC   C3A38429  23.172  31.216   6.938
 2742POPC   C4A38430  23.273  31.444   7.309
 2742POPC   C1B38431  22.624  31.599   6.131
 2742POPC   C2B38432  22.537  31.529   6.608
 2742POPC   C3B38433  22.818  31.609   7.013
 2742POPC   C4B38434  22.790  31.499   7.491
 2743POPC   NC338435  15.098  26.924   5.054
 2743POPC   PO438436  15.285  26.331   5.323
 2743POPC   GL138437  15.122  26.547   5.751
 2743POPC   GL238438  15.118  26.877   5.714
 2743POPC   C1A38439  15.334  26.812   6.165
 2743POPC   D2A38440  15.470  26.973   6.590
 2743POPC   C3A38441  15.272  26.854   6.972
 2743POPC   C4A38442  15.091  26.575   7.256
 2743POPC   C1B38443  14.835  26.786   6.096
 2743POPC   C2B38444  14.984  26.629   6.522
 2743POPC   C3B38445  14.770  26.811   6.899
 2743POPC   C4B38446  14.813  27.122   7.216
 2744POPC   NC338447   9.829  22.262   5.491
 2744POPC   PO438448   9.829  21.606   5.277
 2744POPC   GL138449   9.913  21.836   5.753
 2744POPC   GL238450  10.119  22.169   5.898
 2744POPC   C1A38451   9.742  21.967   6.177
 2744POPC   D2A38452   9.926  21.951   6.595
 2744POPC   C3A38453   9.672  22.076   6.899
 2744POPC   C4A38454   9.525  21.956   7.268
 2744POPC   C1B38455  10.043  22.363   6.338
 2744POPC   C2B38456   9.717  22.534   6.629
 2744POPC   C3B38457   9.671  22.544   7.072
 2744POPC   C4B38458   9.904  22.302   7.368
 2745POPC   NC338459  27.823  30.700   5.422
 2745POPC   PO438460  27.207  30.960   5.420
 2745POPC   GL138461  27.426  30.667   5.777
 2745POPC   GL238462  27.766  30.531   5.901
 2745POPC   C1A38463  27.448  30.596   6.269
 2745POPC   D2A38464  27.649  30.634   6.671
 2745POPC   C3A38465  27.312  30.664   6.941
 2745POPC   C4A38466  27.344  30.315   7.185
 2745POPC   C1B38467  27.999  30.690   6.267
 2745POPC   C2B38468  28.088  30.913   6.649
 2745POPC   C3B38469  28.055  30.804   7.069
 2745POPC   C4B38470  27.669  30.771   7.275
 2746POPC   NC338471   4.806  39.211   5.426
 2746POPC   PO438472   5.455  39.282   5.485
 2746POPC   GL138473   5.120  39.278   5.838
 2746POPC   GL238474   4.820  39.526   5.810
 2746POPC   C1A38475   5.224  39.158   6.282
 2746POPC   D2A38476   5.433  39.231   6.680
 2746POPC   C3A38477   5.201  38.959   6.965
 2746POPC   C4A38478   5.164  39.042   7.407
 2746POPC   C1B38479   4.734  39.294   6.201
 2746POPC   C2B38480   4.767  39.013   6.557
 2746POPC   C3B38481   4.650  39.197   6.943
 2746POPC   C4B38482   4.656  39.217   7.360
 2747POPC   NC338483  23.383   5.358   5.533
 2747POPC   PO438484  23.973   5.050   5.404
 2747POPC   GL138485  23.712   5.039   5.780
 2747POPC   GL238486  23.749   5.378   5.858
 2747POPC   C1A38487  23.611   5.054   6.242
 2747POPC   D2A38488  23.777   4.926   6.644
 2747POPC   C3A38489  23.552   5.134   7.000
 2747POPC   C4A38490  23.460   4.951   7.413
 2747POPC   C1B38491  23.951   5.442   6.224
 2747POPC   C2B38492  23.806   5.431   6.630
 2747POPC   C3B38493  24.021   5.380   6.998
 2747POPC   C4B38494  24.096   5.568   7.388
 2748POPC   NC338495  16.114  25.624   5.539
 2748POPC   PO438496  15.928  26.275   5.493
 2748POPC   GL138497  15.784  26.178   5.861
 2748POPC   GL238498  15.755  25.833   5.849
 2748POPC   C1A38499  15.847  26.235   6.277
 2748POPC   D2A38500  15.789  26.032   6.645
 2748POPC   C3A38501  15.996  26.318   6.891
 2748POPC   C4A38502  15.932  26.234   7.284
 2748POPC   C1B38503  16.117  25.831   6.149
 2748POPC   C2B38504  16.281  26.006   6.545
 2748POPC   C3B38505  16.179  25.834   6.954
 2748POPC   C4B38506  16.233  25.813   7.378
 2749POPC   NC338507  35.846  21.962   5.363
 2749POPC   PO438508  35.404  21.294   5.376
 2749POPC   GL138509  35.421  21.357   5.775
 2749POPC   GL238510  35.562  21.674   5.710
 2749POPC   C1A38511  35.318  21.268   6.192
 2749POPC   D2A38512  35.377  21.536   6.527
 2749POPC   C3A38513  35.427  21.282   6.863
 2749POPC   C4A38514  35.222  21.481   7.157
 2749POPC   C1B38515  35.686  21.712   6.136
 2749POPC   C2B38516  35.768  21.904   6.521
 2749POPC   C3B38517  35.742  21.720   6.916
 2749POPC   C4B38518  35.743  21.478   7.263
 2750POPC   NC338519  18.858  29.289   5.336
 2750POPC   PO438520  19.504  28.946   5.204
 2750POPC   GL138521  19.262  29.085   5.642
 2750POPC   GL238522  18.899  29.102   5.810
 2750POPC   C1A38523  19.321  29.271   6.075
 2750POPC   D2A38524  19.422  29.122   6.514
 2750POPC   C3A38525  19.098  29.169   6.849
 2750POPC   C4A38526  18.999  29.203   7.290
 2750POPC   C1B38527  19.086  28.818   6.139
 2750POPC   C2B38528  19.086  28.713   6.583
 2750POPC   C3B38529  18.973  28.698   7.032
 2750POPC   C4B38530  18.686  28.829   7.361
 2751POPC   NC338531  43.305  23.795   4.939
 2751POPC   PO438532  43.570  23.420   5.459
 2751POPC   GL138533  43.207  23.525   5.791
 2751POPC   GL238534  42.815  23.503   5.694
 2751POPC   C1A38535  43.035  23.795   6.120
 2751POPC   D2A38536  42.988  23.632   6.544
 2751POPC   C3A38537  43.108  23.840   6.934
 2751POPC   C4A38538  43.107  23.695   7.361
 2751POPC   C1B38539  42.767  23.362   6.123
 2751POPC   C2B38540  42.574  23.344   6.558
 2751POPC   C3B38541  42.800  23.389   6.998
 2751POPC   C4B38542  42.674  23.452   7.458
 2752POPC   NC338543   7.080  21.465   5.099
 2752POPC   PO438544   6.389  21.477   5.287
 2752POPC   GL138545   6.690  21.367   5.632
 2752POPC   GL238546   6.471  21.495   5.887
 2752POPC   C1A38547   6.961  21.573   5.996
 2752POPC   D2A38548   7.121  21.702   6.410
 2752POPC   C3A38549   6.861  21.616   6.763
 2752POPC   C4A38550   6.921  21.652   7.201
 2752POPC   C1B38551   6.418  21.078   6.128
 2752POPC   C2B38552   6.457  20.883   6.557
 2752POPC   C3B38553   6.367  21.004   7.001
 2752POPC   C4B38554   6.672  21.189   7.293
 2753POPC   NC338555   3.238  42.858   5.444
 2753POPC   PO438556   2.792  43.315   5.365
 2753POPC   GL138557   2.919  43.147   5.757
 2753POPC   GL238558   3.175  43.390   5.787
 2753POPC   C1A38559   2.695  42.960   6.117
 2753POPC   D2A38560   2.529  43.008   6.491
 2753POPC   C3A38561   2.756  43.108   6.846
 2753POPC   C4A38562   2.589  43.078   7.232
 2753POPC   C1B38563   3.338  43.480   6.170
 2753POPC   C2B38564   3.044  43.439   6.506
 2753POPC   C3B38565   3.110  43.478   6.944
 2753POPC   C4B38566   3.041  43.287   7.335
 2754POPC   NC338567  15.014  31.238   5.300
 2754POPC   PO438568  15.661  31.424   5.163
 2754POPC   GL138569  15.394  31.522   5.572
 2754POPC   GL238570  15.167  31.320   5.769
 2754POPC   C1A38571  15.410  31.614   6.082
 2754POPC   D2A38572  15.506  31.876   6.470
 2754POPC   C3A38573  15.315  31.748   6.876
 2754POPC   C4A38574  15.309  31.612   7.300
 2754POPC   C1B38575  15.121  31.146   6.179
 2754POPC   C2B38576  15.200  31.320   6.584
 2754POPC   C3B38577  15.267  31.184   7.005
 2754POPC   C4B38578  15.043  31.129   7.379
 2755POPC   NC338579  31.797  14.518   5.356
 2755POPC   PO438580  31.345  14.110   5.585
 2755POPC   GL138581  31.554  14.415   5.812
 2755POPC   GL238582  31.819  14.184   5.808
 2755POPC   C1A38583  31.372  14.466   6.220
 2755POPC   D2A38584  31.174  14.261   6.529
 2755POPC   C3A38585  31.325  14.488   6.874
 2755POPC   C4A38586  31.190  14.500   7.282
 2755POPC   C1B38587  31.853  14.300   6.227
 2755POPC   C2B38588  31.682  14.196   6.591
 2755POPC   C3B38589  31.768  14.253   6.996
 2755POPC   C4B38590  31.692  14.570   7.234
 2756POPC   NC338591   1.266  18.904   5.314
 2756POPC   PO438592   0.840  19.345   5.416
 2756POPC   GL138593   1.173  19.310   5.720
 2756POPC   GL238594   1.087  18.985   5.831
 2756POPC   C1A38595   1.231  19.333   6.183
 2756POPC   D2A38596   1.208  19.061   6.556
 2756POPC   C3A38597   1.237  19.204   7.014
 2756POPC   C4A38598   1.411  19.255   7.483
 2756POPC   C1B38599   1.432  18.784   6.070
 2756POPC   C2B38600   1.483  18.637   6.520
 2756POPC   C3B38601   1.268  18.706   6.936
 2756POPC   C4B38602   1.412  18.767   7.361
 2757POPC   NC338603  38.109   0.294   5.432
 2757POPC   PO438604  37.516   0.451   5.705
 2757POPC   GL138605  37.777   0.290   5.932
 2757POPC   GL238606  38.046   0.583   5.871
 2757POPC   C1A38607  37.609   0.138   6.344
 2757POPC   D2A38608  37.312   0.244   6.672
 2757POPC   C3A38609  37.552   0.410   6.980
 2757POPC   C4A38610  37.709   0.243   7.260
 2757POPC   C1B38611  38.157   0.839   6.259
 2757POPC   C2B38612  38.012   0.821   6.698
 2757POPC   C3B38613  37.995   0.675   7.132
 2757POPC   C4B38614  37.890   0.588   7.572
 2758POPC   NC338615  20.502  13.123   5.551
 2758POPC   PO438616  20.290  12.469   5.429
 2758POPC   GL138617  20.519  12.667   5.831
 2758POPC   GL238618  20.859  12.553   5.950
 2758POPC   C1A38619  20.496  12.923   6.262
 2758POPC   D2A38620  20.428  12.924   6.738
 2758POPC   C3A38621  20.699  12.693   7.018
 2758POPC   C4A38622  20.866  12.711   7.407
 2758POPC   C1B38623  20.641  12.437   6.291
 2758POPC   C2B38624  20.450  12.420   6.644
 2758POPC   C3B38625  20.244  12.453   7.019
 2758POPC   C4B38626  20.465  12.395   7.399
 2759POPC   NC338627  39.541  14.772   5.552
 2759POPC   PO438628  40.095  15.200   5.379
 2759POPC   GL138629  40.014  15.265   5.787
 2759POPC   GL238630  40.082  15.586   5.882
 2759POPC   C1A38631  40.142  15.143   6.187
 2759POPC   D2A38632  39.954  14.943   6.530
 2759POPC   C3A38633  40.092  15.062   6.918
 2759POPC   C4A38634  40.093  15.332   7.255
 2759POPC   C1B38635  39.735  15.506   6.162
 2759POPC   C2B38636  39.555  15.332   6.534
 2759POPC   C3B38637  39.681  15.478   6.913
 2759POPC   C4B38638  39.585  15.583   7.307
 2760POPC   NC338639   1.297   9.461   5.428
 2760POPC   PO438640   1.324  10.057   5.343
 2760POPC   GL138641   1.280   9.823   5.782
 2760POPC   GL238642   0.997   9.585   5.837
 2760POPC   C1A38643   1.374   9.714   6.239
 2760POPC   D2A38644   1.539   9.619   6.680
 2760POPC   C3A38645   1.413   9.851   7.060
 2760POPC   C4A38646   1.099  10.003   7.408
 2760POPC   C1B38647   1.024   9.344   6.230
 2760POPC   C2B38648   1.025   9.516   6.669
 2760POPC   C3B38649   0.985   9.573   7.131
 2760POPC   C4B38650   0.865   9.567   7.605
 2761POPC   NC338651  41.968   1.547   5.310
 2761POPC   PO438652  42.417   2.098   5.363
 2761POPC   GL138653  42.219   1.796   5.670
 2761POPC   GL238654  41.927   1.977   5.760
 2761POPC   C1A38655  42.172   1.663   6.112
 2761POPC   D2A38656  42.351   1.810   6.514
 2761POPC   C3A38657  42.181   1.822   6.951
 2761POPC   C4A38658  42.452   2.108   7.204
 2761POPC   C1B38659  42.020   2.162   6.196
 2761POPC   C2B38660  41.942   2.159   6.648
 2761POPC   C3B38661  42.013   2.333   7.054
 2761POPC   C4B38662  42.230   2.558   7.379
 2762POPC   NC338663  34.599   0.686   5.649
 2762POPC   PO438664  34.874   0.125   5.604
 2762POPC   GL138665  34.589   0.229   5.883
 2762POPC   GL238666  34.264   0.123   5.740
 2762POPC   C1A38667  34.658   0.468   6.265
 2762POPC   D2A38668  34.910   0.294   6.599
 2762POPC   C3A38669  34.812   0.368   7.043
 2762POPC   C4A38670  34.633   0.588   7.387
 2762POPC   C1B38671  34.223   0.139   6.210
 2762POPC   C2B38672  34.370   0.305   6.642
 2762POPC   C3B38673  34.299   0.290   7.078
 2762POPC   C4B38674  34.471   0.093   7.444
 2763POPC   NC338675  15.803  21.084   5.490
 2763POPC   PO438676  16.386  21.122   5.606
 2763POPC   GL138677  16.063  21.377   5.835
 2763POPC   GL238678  15.770  21.637   5.796
 2763POPC   C1A38679  15.999  21.294   6.240
 2763POPC   D2A38680  16.208  21.454   6.615
 2763POPC   C3A38681  16.082  21.292   7.021
 2763POPC   C4A38682  15.829  21.142   7.400
 2763POPC   C1B38683  15.884  21.781   6.234
 2763POPC   C2B38684  15.699  21.577   6.578
 2763POPC   C3B38685  15.598  21.411   6.958
 2763POPC   C4B38686  15.728  21.625   7.306
 2764POPC   NC338687   6.009   8.395   5.453
 2764POPC   PO438688   5.455   7.876   5.457
 2764POPC   GL138689   5.719   8.067   5.773
 2764POPC   GL238690   5.631   8.434   5.838
 2764POPC   C1A38691   5.610   8.112   6.225
 2764POPC   D2A38692   5.697   8.493   6.484
 2764POPC   C3A38693   5.796   8.293   6.868
 2764POPC   C4A38694   5.648   8.161   7.273
 2764POPC   C1B38695   6.032   8.357   6.100
 2764POPC   C2B38696   6.214   8.492   6.474
 2764POPC   C3B38697   6.247   8.511   6.920
 2764POPC   C4B38698   6.006   8.526   7.286
 2765POPC   NC338699  18.342  44.908   5.668
 2765POPC   PO438700  18.636  44.353   5.412
 2765POPC   GL138701  18.431  44.407   5.801
 2765POPC   GL238702  18.074  44.459   5.757
 2765POPC   C1A38703  18.508  44.572   6.227
 2765POPC   D2A38704  18.482  44.666   6.671
 2765POPC   C3A38705  18.799  44.842   6.895
 2765POPC   C4A38706  18.640  44.654   7.258
 2765POPC   C1B38707  18.101  44.267   6.197
 2765POPC   C2B38708  18.097  44.314   6.679
 2765POPC   C3B38709  18.098  44.587   7.101
 2765POPC   C4B38710  17.771  44.768   7.422
 2766POPC   NC338711  39.575   6.184   5.107
 2766POPC   PO438712  40.047   6.469   5.450
 2766POPC   GL138713  39.811   6.498   5.807
 2766POPC   GL238714  39.793   6.843   5.847
 2766POPC   C1A38715  39.876   6.551   6.255
 2766POPC   D2A38716  39.736   6.404   6.646
 2766POPC   C3A38717  39.890   6.618   6.997
 2766POPC   C4A38718  40.226   6.624   7.306
 2766POPC   C1B38719  39.557   6.953   6.179
 2766POPC   C2B38720  39.754   6.984   6.557
 2766POPC   C3B38721  39.660   7.093   6.941
 2766POPC   C4B38722  39.889   6.986   7.341
 2767POPC   NC338723   8.824  35.664   5.154
 2767POPC   PO438724   9.232  35.136   5.417
 2767POPC   GL138725   8.841  35.209   5.802
 2767POPC   GL238726   8.717  35.600   5.820
 2767POPC   C1A38727   8.649  35.253   6.225
 2767POPC   D2A38728   8.682  34.976   6.589
 2767POPC   C3A38729   8.902  35.123   6.957
 2767POPC   C4A38730   8.799  35.232   7.413
 2767POPC   C1B38731   8.910  35.708   6.238
 2767POPC   C2B38732   8.824  35.557   6.678
 2767POPC   C3B38733   8.950  35.622   7.126
 2767POPC   C4B38734   8.976  35.679   7.609
 2768POPC   NC338735  10.744  37.547   5.447
 2768POPC   PO438736  10.248  38.065   5.602
 2768POPC   GL138737  10.424  37.734   5.839
 2768POPC   GL238738  10.323  37.941   6.144
 2768POPC   C1A38739  10.590  37.504   6.194
 2768POPC   D2A38740  10.558  37.724   6.602
 2768POPC   C3A38741  10.629  37.477   6.995
 2768POPC   C4A38742  10.592  37.333   7.433
 2768POPC   C1B38743  10.779  38.034   6.217
 2768POPC   C2B38744  11.068  37.954   6.536
 2768POPC   C3B38745  10.944  37.897   6.900
 2768POPC   C4B38746  10.600  38.004   7.138
 2769POPC   NC338747  41.702  10.887   5.232
 2769POPC   PO438748  41.146  11.151   5.220
 2769POPC   GL138749  41.296  11.242   5.676
 2769POPC   GL238750  41.661  11.166   5.683
 2769POPC   C1A38751  41.338  11.401   6.134
 2769POPC   D2A38752  41.566  11.506   6.572
 2769POPC   C3A38753  41.384  11.322   6.970
 2769POPC   C4A38754  41.394  11.452   7.414
 2769POPC   C1B38755  41.830  11.282   6.110
 2769POPC   C2B38756  41.879  11.123   6.517
 2769POPC   C3B38757  41.897  11.128   6.958
 2769POPC   C4B38758  41.866  11.184   7.407
 2770POPC   NC338759  34.789   6.889   5.481
 2770POPC   PO438760  34.346   6.359   5.535
 2770POPC   GL138761  34.448   6.603   5.877
 2770POPC   GL238762  34.487   6.943   5.943
 2770POPC   C1A38763  34.617   6.437   6.235
 2770POPC   D2A38764  34.797   6.256   6.567
 2770POPC   C3A38765  34.606   6.271   6.956
 2770POPC   C4A38766  34.520   6.524   7.299
 2770POPC   C1B38767  34.634   6.912   6.357
 2770POPC   C2B38768  34.580   6.782   6.792
 2770POPC   C3B38769  34.576   7.033   7.184
 2770POPC   C4B38770  34.685   6.936   7.628
 2771POPC   NC338771  11.598  13.925   5.440
 2771POPC   PO438772  11.074  13.586   5.401
 2771POPC   GL138773  11.206  13.754   5.773
 2771POPC   GL238774  11.518  13.633   5.852
 2771POPC   C1A38775  11.137  13.637   6.202
 2771POPC   D2A38776  10.969  13.731   6.615
 2771POPC   C3A38777  11.200  13.734   7.011
 2771POPC   C4A38778  11.204  13.517   7.408
 2771POPC   C1B38779  11.620  13.779   6.266
 2771POPC   C2B38780  11.544  13.596   6.668
 2771POPC   C3B38781  11.654  13.452   7.124
 2771POPC   C4B38782  11.681  13.512   7.596
 2772POPC   NC338783   9.127  29.701   5.403
 2772POPC   PO438784   8.443  29.578   5.535
 2772POPC   GL138785   8.809  29.762   5.802
 2772POPC   GL238786   8.966  30.102   5.791
 2772POPC   C1A38787   9.217  29.634   6.040
 2772POPC   D2A38788   9.330  29.707   6.467
 2772POPC   C3A38789   9.014  29.784   6.781
 2772POPC   C4A38790   8.956  29.854   7.220
 2772POPC   C1B38791   8.925  30.001   6.250
 2772POPC   C2B38792   8.709  30.162   6.615
 2772POPC   C3B38793   8.943  30.279   6.979
 2772POPC   C4B38794   9.209  30.279   7.389
 2773POPC   NC338795  33.398  14.540   5.498
 2773POPC   PO438796  32.784  14.139   5.438
 2773POPC   GL138797  32.988  14.341   5.754
 2773POPC   GL238798  32.732  14.443   5.945
 2773POPC   C1A38799  33.248  14.374   6.137
 2773POPC   D2A38800  33.293  14.244   6.586
 2773POPC   C3A38801  33.058  14.409   6.950
 2773POPC   C4A38802  32.673  14.588   7.127
 2773POPC   C1B38803  32.851  14.063   6.208
 2773POPC   C2B38804  32.708  14.130   6.613
 2773POPC   C3B38805  32.759  13.995   6.992
 2773POPC   C4B38806  32.970  13.998   7.357
 2774POPC   NC338807  36.100   7.709   5.447
 2774POPC   PO438808  36.347   8.376   5.383
 2774POPC   GL138809  36.269   8.363   5.799
 2774POPC   GL238810  36.138   8.034   5.866
 2774POPC   C1A38811  36.172   8.483   6.207
 2774POPC   D2A38812  36.126   8.222   6.576
 2774POPC   C3A38813  36.362   8.433   6.886
 2774POPC   C4A38814  36.116   8.440   7.227
 2774POPC   C1B38815  35.939   7.843   6.244
 2774POPC   C2B38816  35.872   7.632   6.635
 2774POPC   C3B38817  35.756   7.866   6.953
 2774POPC   C4B38818  35.887   7.986   7.360
 2775POPC   NC338819  17.965  10.722   5.581
 2775POPC   PO438820  17.616  11.272   5.314
 2775POPC   GL138821  17.578  11.398   5.718
 2775POPC   GL238822  17.884  11.229   5.780
 2775POPC   C1A38823  17.302  11.437   6.102
 2775POPC   D2A38824  17.407  11.350   6.557
 2775POPC   C3A38825  17.627  11.370   6.958
 2775POPC   C4A38826  17.367  11.263   7.301
 2775POPC   C1B38827  17.744  11.191   6.192
 2775POPC   C2B38828  17.938  11.192   6.582
 2775POPC   C3B38829  17.940  10.910   6.935
 2775POPC   C4B38830  17.909  11.057   7.354
 2776POPC   NC338831   2.400   6.526   5.238
 2776POPC   PO438832   3.047   6.585   5.381
 2776POPC   GL138833   2.898   6.576   5.790
 2776POPC   GL238834   2.593   6.414   5.732
 2776POPC   C1A38835   2.890   6.816   6.185
 2776POPC   D2A38836   2.804   6.935   6.632
 2776POPC   C3A38837   3.091   6.794   6.987
 2776POPC   C4A38838   2.921   6.678   7.405
 2776POPC   C1B38839   2.445   6.550   6.118
 2776POPC   C2B38840   2.591   6.450   6.535
 2776POPC   C3B38841   2.623   6.559   6.975
 2776POPC   C4B38842   2.296   6.397   7.252
 2777POPC   NC338843  41.748   3.950   5.408
 2777POPC   PO438844  41.373   4.630   5.620
 2777POPC   GL138845  41.642   4.737   5.928
 2777POPC   GL238846  41.615   4.380   6.035
 2777POPC   C1A38847  41.694   4.782   6.362
 2777POPC   D2A38848  41.556   4.414   6.569
 2777POPC   C3A38849  41.424   4.435   6.981
 2777POPC   C4A38850  41.785   4.423   7.264
 2777POPC   C1B38851  41.395   4.030   6.268
 2777POPC   C2B38852  41.494   3.896   6.701
 2777POPC   C3B38853  41.275   3.959   7.052
 2777POPC   C4B38854  41.146   4.214   7.374
 2778POPC   NC338855  39.876  15.650   5.355
 2778POPC   PO438856  39.754  16.292   5.250
 2778POPC   GL138857  39.857  16.094   5.704
 2778POPC   GL238858  39.633  15.820   5.774
 2778POPC   C1A38859  40.115  16.028   6.129
 2778POPC   D2A38860  40.373  16.267   6.481
 2778POPC   C3A38861  40.337  16.140   6.949
 2778POPC   C4A38862  40.032  15.822   7.126
 2778POPC   C1B38863  39.591  16.085   6.150
 2778POPC   C2B38864  39.638  16.241   6.571
 2778POPC   C3B38865  39.627  16.094   6.994
 2778POPC   C4B38866  39.687  16.060   7.437
 2779POPC   NC338867  43.590  41.669   5.398
 2779POPC   PO438868  44.236  41.618   5.388
 2779POPC   GL138869  44.173  41.847   5.815
 2779POPC   GL238870  43.877  41.628   5.879
 2779POPC   C1A38871  43.980  41.897   6.290
 2779POPC   D2A38872  44.021  41.574   6.614
 2779POPC   C3A38873  44.212  41.432   7.024
 2779POPC   C4A38874  44.123  41.315   7.475
 2779POPC   C1B38875  43.660  41.402   6.226
 2779POPC   C2B38876  43.526  41.452   6.671
 2779POPC   C3B38877  43.729  41.652   7.047
 2779POPC   C4B38878  43.674  41.562   7.492
 2780POPC   NC338879   3.517  17.950   5.486
 2780POPC   PO438880   3.613  18.583   5.314
 2780POPC   GL138881   3.626  18.394   5.731
 2780POPC   GL238882   3.285  18.288   5.839
 2780POPC   C1A38883   3.583  18.531   6.184
 2780POPC   D2A38884   3.698  18.293   6.531
 2780POPC   C3A38885   3.689  18.408   6.948
 2780POPC   C4A38886   3.686  18.083   7.240
 2780POPC   C1B38887   3.211  18.189   6.300
 2780POPC   C2B38888   3.213  18.341   6.747
 2780POPC   C3B38889   3.225  18.352   7.214
 2780POPC   C4B38890   3.232  18.005   7.542
 2781POPC   NC338891  38.832  19.055   5.321
 2781POPC   PO438892  39.569  18.915   5.458
 2781POPC   GL138893  39.322  18.990   5.816
 2781POPC   GL238894  38.971  19.047   5.815
 2781POPC   C1A38895  39.302  19.162   6.242
 2781POPC   D2A38896  39.388  19.425   6.626
 2781POPC   C3A38897  39.233  19.246   6.998
 2781POPC   C4A38898  39.430  18.926   7.251
 2781POPC   C1B38899  38.778  19.234   6.180
 2781POPC   C2B38900  38.822  19.382   6.607
 2781POPC   C3B38901  38.712  19.284   7.022
 2781POPC   C4B38902  38.907  18.937   7.279
 2782POPC   NC338903  20.178   5.735   5.527
 2782POPC   PO438904  19.869   6.355   5.483
 2782POPC   GL138905  19.848   5.991   5.822
 2782POPC   GL238906  19.564   5.753   5.902
 2782POPC   C1A38907  19.922   5.993   6.257
 2782POPC   D2A38908  20.007   6.333   6.524
 2782POPC   C3A38909  20.010   6.113   6.884
 2782POPC   C4A38910  19.977   5.794   7.192
 2782POPC   C1B38911  19.697   5.516   6.252
 2782POPC   C2B38912  19.835   5.610   6.657
 2782POPC   C3B38913  19.657   5.421   7.015
 2782POPC   C4B38914  19.940   5.285   7.267
 2783POPC   NC338915  37.300  20.118   5.419
 2783POPC   PO438916  37.984  19.979   5.252
 2783POPC   GL138917  37.741  19.855   5.610
 2783POPC   GL238918  37.724  20.223   5.686
 2783POPC   C1A38919  37.751  19.579   6.007
 2783POPC   D2A38920  37.547  19.653   6.420
 2783POPC   C3A38921  37.732  19.569   6.826
 2783POPC   C4A38922  37.729  19.608   7.276
 2783POPC   C1B38923  37.622  20.060   6.112
 2783POPC   C2B38924  37.532  20.146   6.554
 2783POPC   C3B38925  37.540  20.087   6.999
 2783POPC   C4B38926  37.816  20.333   7.267
 2784POPC   NC338927  30.990   0.722   5.234
 2784POPC   PO438928  31.693   0.614   5.429
 2784POPC   GL138929  31.492   0.674   5.832
 2784POPC   GL238930  31.119   0.702   5.913
 2784POPC   C1A38931  31.444   0.515   6.270
 2784POPC   D2A38932  31.375   0.522   6.722
 2784POPC   C3A38933  31.630   0.225   6.899
 2784POPC   C4A38934  31.601   0.003   7.245
 2784POPC   C1B38935  31.035   0.810   6.372
 2784POPC   C2B38936  31.128   0.978   6.775
 2784POPC   C3B38937  31.344   0.887   7.133
 2784POPC   C4B38938  31.320   0.446   7.266
 2785POPC   NC338939  41.440  44.867   5.427
 2785POPC   PO438940  41.650  44.282   5.236
 2785POPC   GL138941  41.727  44.594   5.743
 2785POPC   GL238942  41.365  44.667   5.889
 2785POPC   C1A38943  41.712  44.537   6.255
 2785POPC   D2A38944  41.745  44.546   6.746
 2785POPC   C3A38945  41.461  44.516   7.099
 2785POPC   C4A38946  41.424  44.457   7.579
 2785POPC   C1B38947  41.495   0.004   6.152
 2785POPC   C2B38948  41.653   0.094   6.571
 2785POPC   C3B38949  41.571   0.031   7.007
 2785POPC   C4B38950  41.760  44.912   7.395
 2786POPC   NC338951  31.021   5.168   5.323
 2786POPC   PO438952  30.426   5.507   5.187
 2786POPC   GL138953  30.494   5.312   5.652
 2786POPC   GL238954  30.837   5.234   5.787
 2786POPC   C1A38955  30.478   5.067   6.081
 2786POPC   D2A38956  30.635   5.058   6.510
 2786POPC   C3A38957  30.608   5.279   6.873
 2786POPC   C4A38958  30.674   5.083   7.242
 2786POPC   C1B38959  31.019   5.120   6.189
 2786POPC   C2B38960  31.203   5.067   6.588
 2786POPC   C3B38961  31.120   5.208   6.991
 2786POPC   C4B38962  31.150   4.909   7.259
 2787POPC   NC338963   5.632   7.508   5.670
 2787POPC   PO438964   6.118   7.126   5.450
 2787POPC   GL138965   6.092   7.241   5.851
 2787POPC   GL238966   5.796   7.064   5.920
 2787POPC   C1A38967   6.207   7.527   6.203
 2787POPC   D2A38968   6.435   7.557   6.603
 2787POPC   C3A38969   6.163   7.575   6.967
 2787POPC   C4A38970   6.002   7.186   7.106
 2787POPC   C1B38971   5.650   6.886   6.303
 2787POPC   C2B38972   5.602   6.874   6.761
 2787POPC   C3B38973   5.505   7.246   6.961
 2787POPC   C4B38974   5.538   7.681   7.108
 2788POPC   NC338975   4.164  39.693   5.274
 2788POPC   PO438976   4.794  39.943   5.464
 2788POPC   GL138977   4.380  40.010   5.652
 2788POPC   GL238978   4.252  39.689   5.771
 2788POPC   C1A38979   4.136  40.118   6.045
 2788POPC   D2A38980   4.350  40.163   6.463
 2788POPC   C3A38981   4.137  40.208   6.855
 2788POPC   C4A38982   4.215  40.003   7.226
 2788POPC   C1B38983   4.526  39.783   6.117
 2788POPC   C2B38984   4.625  39.726   6.527
 2788POPC   C3B38985   4.666  39.966   6.893
 2788POPC   C4B38986   4.679  39.731   7.248
 2789POPC   NC338987  39.751  28.762   5.357
 2789POPC   PO438988  40.266  29.208   5.480
 2789POPC   GL138989  40.064  29.144   5.876
 2789POPC   GL238990  39.731  28.998   5.807
 2789POPC   C1A38991  40.205  29.148   6.325
 2789POPC   D2A38992  40.284  29.020   6.760
 2789POPC   C3A38993  40.057  29.285   7.031
 2789POPC   C4A38994  40.107  29.320   7.458
 2789POPC   C1B38995  39.872  28.777   6.187
 2789POPC   C2B38996  39.802  28.952   6.603
 2789POPC   C3B38997  39.627  29.007   6.984
 2789POPC   C4B38998  39.822  28.914   7.341
 2790POPC   NC338999  11.224  39.994   5.067
 2790POPC   PO439000  11.209  40.568   5.352
 2790POPC   GL139001  11.273  40.169   5.580
 2790POPC   GL239002  10.918  40.151   5.686
 2790POPC   C1A39003  11.334  39.842   5.934
 2790POPC   D2A39004  11.417  39.914   6.412
 2790POPC   C3A39005  11.519  39.632   6.778
 2790POPC   C4A39006  11.562  39.683   7.250
 2790POPC   C1B39007  10.981  40.154   6.142
 2790POPC   C2B39008  10.871  39.913   6.510
 2790POPC   C3B39009  11.096  39.870   6.896
 2790POPC   C4B39010  11.095  39.936   7.327
 2791POPC   NC339011   4.218  36.384   5.425
 2791POPC   PO439012   4.451  35.772   5.366
 2791POPC   GL139013   4.239  35.950   5.769
 2791POPC   GL239014   4.410  36.254   5.897
 2791POPC   C1A39015   4.201  35.881   6.241
 2791POPC   D2A39016   4.452  36.011   6.637
 2791POPC   C3A39017   4.364  36.219   7.024
 2791POPC   C4A39018   4.453  36.505   7.410
 2791POPC   C1B39019   4.071  36.363   6.160
 2791POPC   C2B39020   3.965  36.189   6.579
 2791POPC   C3B39021   3.862  36.302   6.988
 2791POPC   C4B39022   3.986  36.358   7.376
 2792POPC   NC339023  38.086  24.676   5.375
 2792POPC   PO439024  37.565  24.321   5.439
 2792POPC   GL139025  37.610  24.429   5.860
 2792POPC   GL239026  37.844  24.693   5.832
 2792POPC   C1A39027  37.668  24.264   6.276
 2792POPC   D2A39028  37.515  24.428   6.650
 2792POPC   C3A39029  37.724  24.391   7.033
 2792POPC   C4A39030  37.896  24.619   7.392
 2792POPC   C1B39031  38.028  24.933   6.163
 2792POPC   C2B39032  37.978  24.747   6.534
 2792POPC   C3B39033  38.082  24.739   6.931
 2792POPC   C4B39034  37.944  25.086   7.182
 2793POPC   NC339035  20.355  19.129   5.391
 2793POPC   PO439036  20.779  18.944   5.430
 2793POPC   GL139037  20.597  18.966   5.842
 2793POPC   GL239038  20.248  19.057   5.909
 2793POPC   C1A39039  20.604  19.083   6.290
 2793POPC   D2A39040  20.287  19.019   6.613
 2793POPC   C3A39041  20.357  19.198   7.032
 2793POPC   C4A39042  20.684  19.130   7.362
 2793POPC   C1B39043  20.307  18.675   6.181
 2793POPC   C2B39044  20.391  18.518   6.621
 2793POPC   C3B39045  20.340  18.687   7.064
 2793POPC   C4B39046  19.992  18.908   7.296
 2794POPC   NC339047   6.166  41.479   5.347
 2794POPC   PO439048   5.573  41.659   5.560
 2794POPC   GL139049   5.845  41.575   5.896
 2794POPC   GL239050   6.109  41.363   5.862
 2794POPC   C1A39051   5.752  41.604   6.340
 2794POPC   D2A39052   5.520  41.663   6.720
 2794POPC   C3A39053   5.706  41.542   7.075
 2794POPC   C4A39054   6.028  41.216   7.201
 2794POPC   C1B39055   6.245  41.507   6.259
 2794POPC   C2B39056   6.082  41.471   6.714
 2794POPC   C3B39057   6.213  41.677   7.080
 2794POPC   C4B39058   6.114  42.008   7.338
 2795POPC   NC339059  15.037   9.248   5.203
 2795POPC   PO439060  15.411   9.795   5.376
 2795POPC   GL139061  15.353   9.817   5.819
 2795POPC   GL239062  15.004   9.937   5.875
 2795POPC   C1A39063  15.314   9.658   6.247
 2795POPC   D2A39064  15.223   9.847   6.652
 2795POPC   C3A39065  14.991  10.195   6.757
 2795POPC   C4A39066  14.949  10.128   7.208
 2795POPC   C1B39067  14.851   9.891   6.301
 2795POPC   C2B39068  14.725   9.753   6.702
 2795POPC   C3B39069  14.878   9.625   7.102
 2795POPC   C4B39070  14.933   9.385   7.485
 2796POPC   NC339071  12.536   9.240   5.473
 2796POPC   PO439072  12.939   9.833   5.412
 2796POPC   GL139073  12.804   9.593   5.769
 2796POPC   GL239074  12.425   9.627   5.797
 2796POPC   C1A39075  12.811   9.719   6.190
 2796POPC   D2A39076  12.989   9.863   6.551
 2796POPC   C3A39077  12.936   9.570   6.857
 2796POPC   C4A39078  12.792   9.673   7.217
 2796POPC   C1B39079  12.430  10.014   6.029
 2796POPC   C2B39080  12.579  10.169   6.451
 2796POPC   C3B39081  12.567   9.964   6.861
 2796POPC   C4B39082  12.325   9.893   7.279
 2797POPC   NC339083  40.327   2.840   5.505
 2797POPC   PO439084  40.814   2.404   5.244
 2797POPC   GL139085  40.744   2.627   5.726
 2797POPC   GL239086  40.414   2.700   5.976
 2797POPC   C1A39087  40.868   2.677   6.174
 2797POPC   D2A39088  40.692   2.629   6.598
 2797POPC   C3A39089  41.001   2.558   6.898
 2797POPC   C4A39090  40.922   2.695   7.263
 2797POPC   C1B39091  40.525   3.035   6.329
 2797POPC   C2B39092  40.463   3.139   6.738
 2797POPC   C3B39093  40.504   2.891   7.071
 2797POPC   C4B39094  40.608   3.014   7.519
 2798POPC   NC339095  18.926   2.157   5.395
 2798POPC   PO439096  19.381   1.685   5.334
 2798POPC   GL139097  19.307   1.947   5.750
 2798POPC   GL239098  18.954   1.950   5.857
 2798POPC   C1A39099  19.323   2.140   6.183
 2798POPC   D2A39100  19.077   2.188   6.581
 2798POPC   C3A39101  19.234   2.078   6.982
 2798POPC   C4A39102  19.193   1.989   7.441
 2798POPC   C1B39103  18.851   1.812   6.267
 2798POPC   C2B39104  18.704   1.821   6.680
 2798POPC   C3B39105  18.794   1.852   7.115
 2798POPC   C4B39106  18.819   1.499   7.339
 2799POPC   NC339107  13.461  20.857   5.378
 2799POPC   PO439108  14.113  20.680   5.214
 2799POPC   GL139109  13.913  20.728   5.648
 2799POPC   GL239110  13.613  20.490   5.702
 2799POPC   C1A39111  13.911  20.664   6.111
 2799POPC   D2A39112  13.635  20.541   6.481
 2799POPC   C3A39113  13.730  20.605   6.929
 2799POPC   C4A39114  13.794  20.386   7.280
 2799POPC   C1B39115  13.409  20.777   6.015
 2799POPC   C2B39116  13.234  20.851   6.419
 2799POPC   C3B39117  13.255  20.771   6.855
 2799POPC   C4B39118  13.297  20.336   7.036
 2800POPC   NC339119  15.045  37.926   5.503
 2800POPC   PO439120  15.669  37.636   5.567
 2800POPC   GL139121  15.358  37.445   5.876
 2800POPC   GL239122  14.998  37.526   5.867
 2800POPC   C1A39123  15.321  37.467   6.330
 2800POPC   D2A39124  15.165  37.612   6.730
 2800POPC   C3A39125  15.424  37.782   7.025
 2800POPC   C4A39126  15.491  38.154   7.232
 2800POPC   C1B39127  14.882  37.739   6.288
 2800POPC   C2B39128  14.746  37.904   6.727
 2800POPC   C3B39129  14.925  37.941   7.154
 2800POPC   C4B39130  15.159  37.646   7.438
 2801POPC   NC339131  35.236   6.157   5.512
 2801POPC   PO439132  35.790   5.811   5.386
 2801POPC   GL139133  35.570   5.866   5.777
 2801POPC   GL239134  35.668   6.227   5.816
 2801POPC   C1A39135  35.507   5.855   6.232
 2801POPC   D2A39136  35.652   5.639   6.624
 2801POPC   C3A39137  35.491   5.783   7.006
 2801POPC   C4A39138  35.167   5.652   7.317
 2801POPC   C1B39139  35.482   6.382   6.178
 2801POPC   C2B39140  35.315   6.221   6.555
 2801POPC   C3B39141  35.377   6.262   6.960
 2801POPC   C4B39142  35.483   6.131   7.389
 2802POPC   NC339143   7.241  42.574   5.330
 2802POPC   PO439144   7.856  42.238   5.461
 2802POPC   GL139145   7.502  42.374   5.729
 2802POPC   GL239146   7.270  42.073   5.710
 2802POPC   C1A39147   7.373  42.565   6.158
 2802POPC   D2A39148   7.439  42.401   6.608
 2802POPC   C3A39149   7.459  42.592   7.053
 2802POPC   C4A39150   7.531  42.646   7.526
 2802POPC   C1B39151   7.495  42.040   6.138
 2802POPC   C2B39152   7.573  41.873   6.572
 2802POPC   C3B39153   7.486  42.041   6.982
 2802POPC   C4B39154   7.476  42.174   7.399
 2803POPC   NC339155  23.567  31.650   5.429
 2803POPC   PO439156  23.475  32.288   5.297
 2803POPC   GL139157  23.679  32.308   5.716
 2803POPC   GL239158  23.830  31.984   5.700
 2803POPC   C1A39159  23.571  32.394   6.165
 2803POPC   D2A39160  23.700  32.621   6.521
 2803POPC   C3A39161  23.559  32.349   6.818
 2803POPC   C4A39162  23.461  32.367   7.228
 2803POPC   C1B39163  23.471  31.928   6.012
 2803POPC   C2B39164  23.390  31.950   6.466
 2803POPC   C3B39165  23.358  31.764   6.900
 2803POPC   C4B39166  23.592  31.842   7.318
 2804POPC   NC339167  28.381  35.951   5.316
 2804POPC   PO439168  28.190  36.558   5.374
 2804POPC   GL139169  28.373  36.280   5.765
 2804POPC   GL239170  28.516  35.926   5.798
 2804POPC   C1A39171  28.460  36.171   6.245
 2804POPC   D2A39172  28.488  36.199   6.715
 2804POPC   C3A39173  28.165  36.389   6.989
 2804POPC   C4A39174  28.105  36.357   7.451
 2804POPC   C1B39175  28.753  35.746   6.136
 2804POPC   C2B39176  28.656  35.620   6.571
 2804POPC   C3B39177  28.738  35.784   6.973
 2804POPC   C4B39178  28.427  36.006   7.196
 2805POPC   NC339179   8.696   6.234   5.382
 2805POPC   PO439180   9.251   6.683   5.387
 2805POPC   GL139181   9.022   6.461   5.707
 2805POPC   GL239182   8.787   6.720   5.825
 2805POPC   C1A39183   8.953   6.333   6.134
 2805POPC   D2A39184   8.968   6.560   6.515
 2805POPC   C3A39185   9.129   6.313   6.848
 2805POPC   C4A39186   9.016   6.338   7.273
 2805POPC   C1B39187   8.824   6.976   6.229
 2805POPC   C2B39188   8.963   7.072   6.682
 2805POPC   C3B39189   8.963   6.928   7.150
 2805POPC   C4B39190   8.755   6.906   7.571
 2806POPC   NC339191  39.976  24.026   5.687
 2806POPC   PO439192  39.375  23.896   5.271
 2806POPC   GL139193  39.289  23.741   5.826
 2806POPC   GL239194  39.247  23.403   5.930
 2806POPC   C1A39195  39.200  23.820   6.252
 2806POPC   D2A39196  39.404  23.691   6.621
 2806POPC   C3A39197  39.287  23.927   6.968
 2806POPC   C4A39198  39.071  23.766   7.312
 2806POPC   C1B39199  39.183  23.260   6.338
 2806POPC   C2B39200  39.390  23.177   6.700
 2806POPC   C3B39201  39.401  23.402   7.095
 2806POPC   C4B39202  39.389  23.401   7.545
 2807POPC   NC339203  27.093  18.644   5.076
 2807POPC   PO439204  26.838  18.074   5.400
 2807POPC   GL139205  26.850  18.392   5.749
 2807POPC   GL239206  27.154  18.294   5.782
 2807POPC   C1A39207  26.931  18.479   6.207
 2807POPC   D2A39208  26.897  18.694   6.592
 2807POPC   C3A39209  26.709  18.388   6.819
 2807POPC   C4A39210  26.651  18.342   7.231
 2807POPC   C1B39211  26.977  17.991   6.083
 2807POPC   C2B39212  26.864  17.969   6.545
 2807POPC   C3B39213  26.894  17.947   7.006
 2807POPC   C4B39214  26.868  17.971   7.493
 2808POPC   NC339215  14.386   5.082   5.308
 2808POPC   PO439216  14.159   5.739   5.518
 2808POPC   GL139217  14.114   5.316   5.757
 2808POPC   GL239218  14.162   4.915   5.746
 2808POPC   C1A39219  14.289   5.190   6.174
 2808POPC   D2A39220  14.326   5.041   6.616
 2808POPC   C3A39221  14.561   5.244   6.958
 2808POPC   C4A39222  14.777   5.038   7.308
 2808POPC   C1B39223  14.312   4.687   6.149
 2808POPC   C2B39224  14.405   4.528   6.566
 2808POPC   C3B39225  14.473   4.703   7.011
 2808POPC   C4B39226  14.209   5.014   7.240
 2809POPC   NC339227  16.561  25.405   5.233
 2809POPC   PO439228  17.147  25.072   5.333
 2809POPC   GL139229  16.912  25.278   5.713
 2809POPC   GL239230  16.571  25.465   5.769
 2809POPC   C1A39231  16.832  25.274   6.183
 2809POPC   D2A39232  17.065  25.263   6.570
 2809POPC   C3A39233  16.886  25.288   6.954
 2809POPC   C4A39234  17.035  25.105   7.296
 2809POPC   C1B39235  16.310  25.327   6.147
 2809POPC   C2B39236  16.374  25.189   6.583
 2809POPC   C3B39237  16.363  25.336   7.027
 2809POPC   C4B39238  16.584  25.363   7.405
 2810POPC   NC339239   8.608  15.374   5.330
 2810POPC   PO439240   7.975  15.084   5.273
 2810POPC   GL139241   7.963  15.029   5.750
 2810POPC   GL239242   8.216  15.297   5.843
 2810POPC   C1A39243   8.171  14.899   6.174
 2810POPC   D2A39244   8.400  14.974   6.609
 2810POPC   C3A39245   8.143  15.053   6.994
 2810POPC   C4A39246   7.831  15.131   7.334
 2810POPC   C1B39247   8.566  15.230   6.200
 2810POPC   C2B39248   8.735  15.389   6.625
 2810POPC   C3B39249   8.576  15.529   7.036
 2810POPC   C4B39250   8.425  15.363   7.424
 2811POPC   NC339251  27.057  27.061   5.089
 2811POPC   PO439252  26.743  27.114   5.684
 2811POPC   GL139253  27.016  26.969   5.985
 2811POPC   GL239254  27.172  26.671   5.891
 2811POPC   C1A39255  27.026  26.844   6.439
 2811POPC   D2A39256  26.970  26.813   6.856
 2811POPC   C3A39257  26.636  26.915   7.186
 2811POPC   C4A39258  26.644  26.938   7.650
 2811POPC   C1B39259  27.198  26.398   6.266
 2811POPC   C2B39260  27.026  26.301   6.653
 2811POPC   C3B39261  27.195  26.417   7.049
 2811POPC   C4B39262  27.083  26.741   7.338
 2812POPC   NC339263  21.464   3.980   5.334
 2812POPC   PO439264  20.812   4.102   5.213
 2812POPC   GL139265  21.057   4.115   5.634
 2812POPC   GL239266  21.077   4.478   5.737
 2812POPC   C1A39267  21.428   4.139   5.969
 2812POPC   D2A39268  21.442   4.165   6.449
 2812POPC   C3A39269  21.606   4.493   6.744
 2812POPC   C4A39270  21.663   4.351   7.191
 2812POPC   C1B39271  20.977   4.259   6.141
 2812POPC   C2B39272  20.906   4.273   6.598
 2812POPC   C3B39273  21.198   4.255   6.934
 2812POPC   C4B39274  21.194   4.579   7.306
 2813POPC   NC339275  23.196  17.849   5.428
 2813POPC   PO439276  22.701  18.133   5.550
 2813POPC   GL139277  23.079  18.209   5.830
 2813POPC   GL239278  23.375  18.006   5.886
 2813POPC   C1A39279  23.149  18.271   6.294
 2813POPC   D2A39280  23.125  18.022   6.682
 2813POPC   C3A39281  22.990  18.120   7.109
 2813POPC   C4A39282  22.620  17.902   7.281
 2813POPC   C1B39283  23.406  17.779   6.267
 2813POPC   C2B39284  23.598  17.851   6.656
 2813POPC   C3B39285  23.427  17.784   7.025
 2813POPC   C4B39286  23.308  17.871   7.430
 2814POPC   NC339287  19.309  26.681   5.306
 2814POPC   PO439288  19.176  27.320   5.242
 2814POPC   GL139289  18.996  26.977   5.566
 2814POPC   GL239290  19.308  27.033   5.696
 2814POPC   C1A39291  19.027  26.729   5.994
 2814POPC   D2A39292  19.010  26.921   6.430
 2814POPC   C3A39293  18.913  26.736   6.861
 2814POPC   C4A39294  18.990  26.875   7.297
 2814POPC   C1B39295  19.422  27.056   6.121
 2814POPC   C2B39296  19.450  27.192   6.534
 2814POPC   C3B39297  19.158  27.206   6.858
 2814POPC   C4B39298  19.398  27.172   7.201
 2815POPC   NC339299  29.410  13.777   5.473
 2815POPC   PO439300  28.916  13.458   5.655
 2815POPC   GL139301  29.295  13.584   5.930
 2815POPC   GL239302  29.498  13.913   5.941
 2815POPC   C1A39303  29.364  13.654   6.367
 2815POPC   D2A39304  29.240  13.683   6.807
 2815POPC   C3A39305  29.390  13.459   7.165
 2815POPC   C4A39306  29.243  13.312   7.602
 2815POPC   C1B39307  29.119  14.052   6.186
 2815POPC   C2B39308  29.030  14.132   6.638
 2815POPC   C3B39309  28.946  13.991   7.102
 2815POPC   C4B39310  29.135  13.810   7.485
 2816POPC   NC339311   3.423  19.900   5.414
 2816POPC   PO439312   3.755  19.490   5.710
 2816POPC   GL139313   3.582  19.865   5.900
 2816POPC   GL239314   3.199  19.980   5.874
 2816POPC   C1A39315   3.473  19.841   6.306
 2816POPC   D2A39316   3.329  19.688   6.695
 2816POPC   C3A39317   3.516  19.796   7.052
 2816POPC   C4A39318   3.703  19.508   7.328
 2816POPC   C1B39319   3.234  20.303   6.218
 2816POPC   C2B39320   3.420  20.208   6.636
 2816POPC   C3B39321   3.223  20.256   6.984
 2816POPC   C4B39322   3.281  20.126   7.368
 2817POPC   NC339323  34.511  15.445   5.408
 2817POPC   PO439324  34.660  14.834   5.202
 2817POPC   GL139325  34.640  15.016   5.664
 2817POPC   GL239326  34.346  14.827   5.773
 2817POPC   C1A39327  34.656  15.339   6.052
 2817POPC   D2A39328  34.776  15.471   6.502
 2817POPC   C3A39329  34.650  15.340   6.956
 2817POPC   C4A39330  34.788  15.075   7.295
 2817POPC   C1B39331  34.631  14.834   6.152
 2817POPC   C2B39332  34.618  14.968   6.580
 2817POPC   C3B39333  34.460  14.846   6.987
 2817POPC   C4B39334  34.246  14.894   7.395
 2818POPC   NC339335  17.335   1.245   5.594
 2818POPC   PO439336  17.895   1.587   5.780
 2818POPC   GL139337  17.664   1.343   6.014
 2818POPC   GL239338  17.596   1.025   6.033
 2818POPC   C1A39339  17.611   1.376   6.431
 2818POPC   D2A39340  17.683   1.436   6.838
 2818POPC   C3A39341  17.698   1.072   7.013
 2818POPC   C4A39342  17.713   0.915   7.386
 2818POPC   C1B39343  17.206   1.147   6.221
 2818POPC   C2B39344  17.122   1.306   6.624
 2818POPC   C3B39345  17.223   1.244   7.032
 2818POPC   C4B39346  17.211   0.991   7.391
 2819POPC   NC339347   1.658   4.296   5.580
 2819POPC   PO439348   2.351   4.276   5.464
 2819POPC   GL139349   2.112   4.315   5.819
 2819POPC   GL239350   2.333   4.596   5.862
 2819POPC   C1A39351   1.946   4.129   6.229
 2819POPC   D2A39352   2.171   4.042   6.646
 2819POPC   C3A39353   2.025   4.176   7.048
 2819POPC   C4A39354   1.671   4.400   7.242
 2819POPC   C1B39355   1.986   4.668   6.149
 2819POPC   C2B39356   1.990   4.533   6.584
 2819POPC   C3B39357   1.955   4.698   6.979
 2819POPC   C4B39358   2.110   4.598   7.430
 2820POPC   NC339359  17.169  10.121   5.502
 2820POPC   PO439360  17.843  10.304   5.421
 2820POPC   GL139361  17.591  10.361   5.775
 2820POPC   GL239362  17.272  10.555   5.743
 2820POPC   C1A39363  17.534  10.557   6.190
 2820POPC   D2A39364  17.554  10.829   6.550
 2820POPC   C3A39365  17.510  10.594   6.922
 2820POPC   C4A39366  17.462  10.758   7.299
 2820POPC   C1B39367  17.081  10.317   6.119
 2820POPC   C2B39368  17.174  10.350   6.569
 2820POPC   C3B39369  17.035  10.362   7.027
 2820POPC   C4B39370  17.129  10.396   7.502
 2821POPC   NC339371  26.440  18.126   5.628
 2821POPC   PO439372  25.890  18.385   5.323
 2821POPC   GL139373  25.909  18.118   5.703
 2821POPC   GL239374  26.055  18.385   5.882
 2821POPC   C1A39375  26.036  17.951   6.148
 2821POPC   D2A39376  26.366  18.109   6.465
 2821POPC   C3A39377  26.228  18.212   6.889
 2821POPC   C4A39378  26.179  18.540   7.178
 2821POPC   C1B39379  25.923  18.707   6.183
 2821POPC   C2B39380  25.678  18.767   6.552
 2821POPC   C3B39381  25.784  18.807   6.980
 2821POPC   C4B39382  25.695  18.614   7.386
 2822POPC   NC339383  35.460  13.750   5.297
 2822POPC   PO439384  35.267  13.069   5.330
 2822POPC   GL139385  35.258  13.405   5.726
 2822POPC   GL239386  35.265  13.790   5.763
 2822POPC   C1A39387  35.115  13.518   6.184
 2822POPC   D2A39388  35.357  13.587   6.594
 2822POPC   C3A39389  35.146  13.675   6.978
 2822POPC   C4A39390  34.949  13.310   7.147
 2822POPC   C1B39391  35.531  13.802   6.141
 2822POPC   C2B39392  35.535  14.038   6.498
 2822POPC   C3B39393  35.648  13.965   6.877
 2822POPC   C4B39394  35.484  14.002   7.247
 2823POPC   NC339395  32.405  13.024   5.579
 2823POPC   PO439396  32.255  12.362   5.500
 2823POPC   GL139397  32.140  12.645   5.844
 2823POPC   GL239398  31.889  12.916   5.801
 2823POPC   C1A39399  32.177  12.794   6.265
 2823POPC   D2A39400  32.270  12.583   6.648
 2823POPC   C3A39401  32.159  12.617   7.070
 2823POPC   C4A39402  32.370  12.836   7.411
 2823POPC   C1B39403  31.963  13.251   6.133
 2823POPC   C2B39404  32.237  13.267   6.516
 2823POPC   C3B39405  32.256  13.110   6.952
 2823POPC   C4B39406  31.903  13.058   7.225
 2824POPC   NC339407  26.980   6.651   5.610
 2824POPC   PO439408  26.342   6.867   5.480
 2824POPC   GL139409  26.534   6.599   5.845
 2824POPC   GL239410  26.853   6.731   6.081
 2824POPC   C1A39411  26.491   6.460   6.287
 2824POPC   D2A39412  26.764   6.617   6.621
 2824POPC   C3A39413  26.745   6.351   6.979
 2824POPC   C4A39414  26.566   6.403   7.369
 2824POPC   C1B39415  27.196   7.030   6.250
 2824POPC   C2B39416  27.191   7.165   6.638
 2824POPC   C3B39417  27.199   6.799   6.885
 2824POPC   C4B39418  27.014   6.678   7.271
 2825POPC   NC339419   7.617  40.285   5.567
 2825POPC   PO439420   7.189  39.760   5.394
 2825POPC   GL139421   7.345  39.876   5.851
 2825POPC   GL239422   7.183  40.175   5.943
 2825POPC   C1A39423   7.370  39.886   6.345
 2825POPC   D2A39424   7.179  40.260   6.612
 2825POPC   C3A39425   7.397  40.262   7.015
 2825POPC   C4A39426   7.517  39.812   6.980
 2825POPC   C1B39427   7.521  40.345   6.218
 2825POPC   C2B39428   7.723  40.281   6.600
 2825POPC   C3B39429   7.922  40.141   6.961
 2825POPC   C4B39430   7.803  40.001   7.340
 2826POPC   NC339431  36.757  14.690   5.252
 2826POPC   PO439432  37.251  14.278   5.272
 2826POPC   GL139433  37.110  14.576   5.628
 2826POPC   GL239434  36.771  14.506   5.778
 2826POPC   C1A39435  37.106  14.801   6.051
 2826POPC   D2A39436  37.001  14.747   6.510
 2826POPC   C3A39437  37.229  14.494   6.857
 2826POPC   C4A39438  37.279  14.083   7.089
 2826POPC   C1B39439  36.743  14.376   6.226
 2826POPC   C2B39440  36.785  14.288   6.673
 2826POPC   C3B39441  36.779  14.286   7.119
 2826POPC   C4B39442  36.515  13.979   7.294
 2827POPC   NC339443   1.003  40.408   5.434
 2827POPC   PO439444   1.519  39.941   5.497
 2827POPC   GL139445   1.372  40.253   5.814
 2827POPC   GL239446   1.628  40.508   5.781
 2827POPC   C1A39447   1.224  40.324   6.282
 2827POPC   D2A39448   1.299  40.051   6.678
 2827POPC   C3A39449   1.184  40.053   7.144
 2827POPC   C4A39450   1.123  39.834   7.554
 2827POPC   C1B39451   1.725  40.317   6.189
 2827POPC   C2B39452   1.618  40.443   6.625
 2827POPC   C3B39453   1.652  40.218   7.014
 2827POPC   C4B39454   1.559  40.147   7.481
 2828POPC   NC339455  16.286   4.247   4.720
 2828POPC   PO439456  15.693   4.308   5.056
 2828POPC   GL139457  15.731   4.290   5.655
 2828POPC   GL239458  15.783   4.601   5.836
 2828POPC   C1A39459  16.129   4.299   6.028
 2828POPC   D2A39460  16.379   4.484   6.428
 2828POPC   C3A39461  16.222   4.436   6.874
 2828POPC   C4A39462  15.970   4.117   7.142
 2828POPC   C1B39463  15.657   4.382   6.184
 2828POPC   C2B39464  15.830   4.468   6.551
 2828POPC   C3B39465  15.730   4.538   6.968
 2828POPC   C4B39466  15.455   4.309   7.226
 2829POPC   NC339467   4.853  16.704   5.172
 2829POPC   PO439468   4.253  16.792   5.467
 2829POPC   GL139469   4.386  16.778   5.914
 2829POPC   GL239470   4.660  16.523   5.873
 2829POPC   C1A39471   4.469  16.983   6.332
 2829POPC   D2A39472   4.225  17.008   6.700
 2829POPC   C3A39473   4.388  16.856   7.085
 2829POPC   C4A39474   4.202  16.918   7.472
 2829POPC   C1B39475   4.847  16.631   6.280
 2829POPC   C2B39476   4.755  16.684   6.734
 2829POPC   C3B39477   4.585  16.377   7.040
 2829POPC   C4B39478   4.190  16.408   7.307
 2830POPC   NC339479  18.217  12.400   5.465
 2830POPC   PO439480  17.986  11.901   5.442
 2830POPC   GL139481  18.278  11.960   5.790
 2830POPC   GL239482  18.563  12.226   5.807
 2830POPC   C1A39483  18.107  12.072   6.196
 2830POPC   D2A39484  17.896  12.256   6.554
 2830POPC   C3A39485  18.052  12.039   6.896
 2830POPC   C4A39486  18.179  12.098   7.288
 2830POPC   C1B39487  18.635  12.012   6.205
 2830POPC   C2B39488  18.702  12.063   6.648
 2830POPC   C3B39489  18.585  12.237   7.019
 2830POPC   C4B39490  18.498  12.529   7.290
 2831POPC   NC339491  13.217  33.796   5.245
 2831POPC   PO439492  13.901  33.927   5.312
 2831POPC   GL139493  13.834  33.738   5.688
 2831POPC   GL239494  13.471  33.656   5.710
 2831POPC   C1A39495  13.729  33.809   6.110
 2831POPC   D2A39496  13.649  34.011   6.479
 2831POPC   C3A39497  13.624  33.832   6.883
 2831POPC   C4A39498  13.644  34.000   7.262
 2831POPC   C1B39499  13.281  33.534   6.122
 2831POPC   C2B39500  13.274  33.661   6.555
 2831POPC   C3B39501  13.250  33.487   6.978
 2831POPC   C4B39502  13.565  33.383   7.255
 2832POPC   NC339503  11.805   8.985   5.429
 2832POPC   PO439504  12.487   8.784   5.333
 2832POPC   GL139505  12.244   8.910   5.745
 2832POPC   GL239506  12.450   9.135   5.976
 2832POPC   C1A39507  11.940   8.916   6.102
 2832POPC   D2A39508  11.851   9.172   6.486
 2832POPC   C3A39509  12.058   9.050   6.868
 2832POPC   C4A39510  11.796   9.061   7.227
 2832POPC   C1B39511  12.340   9.018   6.408
 2832POPC   C2B39512  12.444   8.681   6.674
 2832POPC   C3B39513  12.418   8.720   7.089
 2832POPC   C4B39514  12.327   8.957   7.455
 2833POPC   NC339515  43.430  26.688   5.522
 2833POPC   PO439516  44.011  26.717   5.177
 2833POPC   GL139517  43.980  26.746   5.700
 2833POPC   GL239518  43.693  26.627   5.948
 2833POPC   C1A39519  44.004  26.973   6.131
 2833POPC   D2A39520  44.081  26.895   6.581
 2833POPC   C3A39521  43.829  26.964   6.962
 2833POPC   C4A39522  44.054  27.112   7.336
 2833POPC   C1B39523  43.465  26.644   6.323
 2833POPC   C2B39524  43.417  26.698   6.782
 2833POPC   C3B39525  43.557  26.487   7.155
 2833POPC   C4B39526  43.775  26.643   7.532
 2834POPC   NC339527  11.667  29.708   5.054
 2834POPC   PO439528  11.936  30.245   5.451
 2834POPC   GL139529  12.201  30.096   5.834
 2834POPC   GL239530  12.562  30.069   5.748
 2834POPC   C1A39531  12.107  29.845   6.215
 2834POPC   D2A39532  12.010  29.702   6.614
 2834POPC   C3A39533  11.952  30.096   6.796
 2834POPC   C4A39534  11.838  30.161   7.206
 2834POPC   C1B39535  12.564  29.692   6.036
 2834POPC   C2B39536  12.467  29.544   6.427
 2834POPC   C3B39537  12.461  29.583   6.852
 2834POPC   C4B39538  12.232  29.829   7.143
 2835POPC   NC339539  38.322   5.159   5.255
 2835POPC   PO439540  38.889   4.877   5.592
 2835POPC   GL139541  38.536   5.108   5.843
 2835POPC   GL239542  38.171   5.133   5.745
 2835POPC   C1A39543  38.555   5.218   6.274
 2835POPC   D2A39544  38.543   4.953   6.643
 2835POPC   C3A39545  38.760   5.043   7.017
 2835POPC   C4A39546  38.685   4.848   7.409
 2835POPC   C1B39547  38.035   5.245   6.158
 2835POPC   C2B39548  38.110   5.236   6.595
 2835POPC   C3B39549  38.238   5.174   7.013
 2835POPC   C4B39550  38.474   5.321   7.339
 2836POPC   NC339551  19.075   3.721   5.396
 2836POPC   PO439552  19.004   2.955   5.356
 2836POPC   GL139553  19.099   3.302   5.736
 2836POPC   GL239554  18.843   3.563   5.925
 2836POPC   C1A39555  19.289   3.465   6.130
 2836POPC   D2A39556  19.061   3.608   6.485
 2836POPC   C3A39557  19.061   3.466   6.896
 2836POPC   C4A39558  19.307   3.493   7.255
 2836POPC   C1B39559  19.081   3.936   6.086
 2836POPC   C2B39560  19.300   4.093   6.470
 2836POPC   C3B39561  19.317   3.900   6.874
 2836POPC   C4B39562  19.021   3.958   7.220
 2837POPC   NC339563  33.040  29.149   5.329
 2837POPC   PO439564  33.554  28.874   5.527
 2837POPC   GL139565  33.281  29.140   5.796
 2837POPC   GL239566  32.876  29.154   5.811
 2837POPC   C1A39567  33.179  29.092   6.225
 2837POPC   D2A39568  33.030  29.303   6.596
 2837POPC   C3A39569  33.181  29.164   7.005
 2837POPC   C4A39570  33.207  28.779   7.192
 2837POPC   C1B39571  32.688  29.025   6.206
 2837POPC   C2B39572  32.540  29.145   6.596
 2837POPC   C3B39573  32.683  29.267   7.004
 2837POPC   C4B39574  32.760  29.010   7.377
 2838POPC   NC339575  37.322  42.893   5.413
 2838POPC   PO439576  37.598  42.187   5.532
 2838POPC   GL139577  37.904  42.176   5.921
 2838POPC   GL239578  37.785  42.507   5.975
 2838POPC   C1A39579  38.052  42.346   6.359
 2838POPC   D2A39580  37.808  42.633   6.617
 2838POPC   C3A39581  37.693  42.468   6.989
 2838POPC   C4A39582  37.800  42.238   7.339
 2838POPC   C1B39583  37.549  42.291   6.291
 2838POPC   C2B39584  37.322  42.268   6.687
 2838POPC   C3B39585  37.347  42.109   7.116
 2838POPC   C4B39586  37.320  42.262   7.538
 2839POPC   NC339587  41.682  31.659   5.209
 2839POPC   PO439588  41.300  31.373   5.677
 2839POPC   GL139589  41.687  31.580   5.743
 2839POPC   GL239590  41.790  31.259   5.901
 2839POPC   C1A39591  41.682  31.691   6.156
 2839POPC   D2A39592  41.450  31.407   6.460
 2839POPC   C3A39593  41.379  31.527   6.892
 2839POPC   C4A39594  41.603  31.544   7.243
 2839POPC   C1B39595  41.740  31.034   6.259
 2839POPC   C2B39596  41.788  31.094   6.674
 2839POPC   C3B39597  41.577  31.079   7.020
 2839POPC   C4B39598  41.874  31.001   7.251
 2840POPC   NC339599  15.350  28.491   5.603
 2840POPC   PO439600  14.854  28.058   5.445
 2840POPC   GL139601  14.962  28.089   5.894
 2840POPC   GL239602  15.279  28.060   5.915
 2840POPC   C1A39603  15.119  28.423   6.197
 2840POPC   D2A39604  15.218  28.495   6.600
 2840POPC   C3A39605  14.890  28.320   6.820
 2840POPC   C4A39606  14.912  28.477   7.207
 2840POPC   C1B39607  15.528  28.130   6.328
 2840POPC   C2B39608  15.577  28.185   6.777
 2840POPC   C3B39609  15.376  28.243   7.178
 2840POPC   C4B39610  15.538  28.151   7.636
 2841POPC   NC339611  22.189  13.494   5.367
 2841POPC   PO439612  21.569  13.821   5.470
 2841POPC   GL139613  21.913  13.703   5.766
 2841POPC   GL239614  21.892  13.318   5.750
 2841POPC   C1A39615  22.122  13.799   6.187
 2841POPC   D2A39616  22.301  13.946   6.589
 2841POPC   C3A39617  22.301  13.740   6.949
 2841POPC   C4A39618  22.123  13.868   7.294
 2841POPC   C1B39619  21.862  13.377   6.208
 2841POPC   C2B39620  21.962  13.450   6.673
 2841POPC   C3B39621  21.986  13.355   7.153
 2841POPC   C4B39622  21.877  13.526   7.594
 2842POPC   NC339623  22.629  39.242   5.455
 2842POPC   PO439624  23.254  39.198   5.568
 2842POPC   GL139625  22.886  39.182   5.884
 2842POPC   GL239626  22.691  39.490   5.926
 2842POPC   C1A39627  22.543  39.077   6.207
 2842POPC   D2A39628  22.589  38.987   6.671
 2842POPC   C3A39629  22.643  39.281   7.012
 2842POPC   C4A39630  22.945  39.463   7.271
 2842POPC   C1B39631  22.865  39.421   6.402
 2842POPC   C2B39632  23.107  39.230   6.792
 2842POPC   C3B39633  23.400  39.300   7.188
 2842POPC   C4B39634  23.369  39.456   7.610
 2843POPC   NC339635  42.990   5.547   5.636
 2843POPC   PO439636  43.211   6.181   5.631
 2843POPC   GL139637  43.267   5.858   5.910
 2843POPC   GL239638  43.502   5.550   5.755
 2843POPC   C1A39639  42.962   5.734   6.255
 2843POPC   D2A39640  42.981   5.603   6.670
 2843POPC   C3A39641  42.996   5.940   6.941
 2843POPC   C4A39642  43.123   6.152   7.283
 2843POPC   C1B39643  43.426   5.489   6.203
 2843POPC   C2B39644  43.456   5.738   6.568
 2843POPC   C3B39645  43.387   5.627   6.992
 2843POPC   C4B39646  43.648   5.477   7.292
 2844POPC   NC339647   6.764  15.439   5.457
 2844POPC   PO439648   6.907  14.858   5.180
 2844POPC   GL139649   6.845  14.950   5.622
 2844POPC   GL239650   6.502  14.979   5.781
 2844POPC   C1A39651   6.942  15.077   6.046
 2844POPC   D2A39652   6.897  15.040   6.481
 2844POPC   C3A39653   6.744  15.350   6.807
 2844POPC   C4A39654   6.773  15.417   7.263
 2844POPC   C1B39655   6.441  15.083   6.239
 2844POPC   C2B39656   6.463  14.903   6.693
 2844POPC   C3B39657   6.544  14.973   7.140
 2844POPC   C4B39658   6.455  15.004   7.576
 2845POPC   NC339659  35.591  35.042   5.393
 2845POPC   PO439660  35.016  35.538   5.375
 2845POPC   GL139661  35.261  35.482   5.805
 2845POPC   GL239662  35.627  35.463   5.848
 2845POPC   C1A39663  35.208  35.201   6.214
 2845POPC   D2A39664  35.012  35.299   6.651
 2845POPC   C3A39665  35.216  35.310   7.056
 2845POPC   C4A39666  35.651  35.164   7.098
 2845POPC   C1B39667  35.499  35.609   6.272
 2845POPC   C2B39668  35.509  35.562   6.723
 2845POPC   C3B39669  35.852  35.624   7.009
 2845POPC   C4B39670  36.103  35.686   7.367
 2846POPC   NC339671   4.173   7.023   5.434
 2846POPC   PO439672   4.605   6.477   5.483
 2846POPC   GL139673   4.491   6.724   5.803
 2846POPC   GL239674   4.224   6.540   5.851
 2846POPC   C1A39675   4.572   6.623   6.249
 2846POPC   D2A39676   4.634   6.805   6.660
 2846POPC   C3A39677   4.413   6.763   7.058
 2846POPC   C4A39678   4.492   6.502   7.431
 2846POPC   C1B39679   4.152   6.883   6.132
 2846POPC   C2B39680   4.143   6.977   6.561
 2846POPC   C3B39681   3.929   6.809   6.923
 2846POPC   C4B39682   3.994   6.535   7.281
 2847POPC   NC339683  29.230  15.800   5.503
 2847POPC   PO439684  28.811  16.346   5.400
 2847POPC   GL139685  29.032  16.225   5.798
 2847POPC   GL239686  28.943  15.880   5.931
 2847POPC   C1A39687  29.290  16.142   6.172
 2847POPC   D2A39688  29.117  15.937   6.551
 2847POPC   C3A39689  28.923  16.186   6.905
 2847POPC   C4A39690  28.947  16.416   7.310
 2847POPC   C1B39691  28.870  15.556   6.272
 2847POPC   C2B39692  28.899  15.450   6.722
 2847POPC   C3B39693  29.071  15.720   7.028
 2847POPC   C4B39694  28.887  15.905   7.387
 2848POPC   NC339695  36.287  42.760   5.514
 2848POPC   PO439696  36.324  43.405   5.336
 2848POPC   GL139697  36.222  43.461   5.740
 2848POPC   GL239698  36.480  43.236   5.858
 2848POPC   C1A39699  36.015  43.392   6.131
 2848POPC   D2A39700  36.074  43.057   6.446
 2848POPC   C3A39701  36.096  43.048   6.913
 2848POPC   C4A39702  36.045  43.374   7.206
 2848POPC   C1B39703  36.507  43.340   6.293
 2848POPC   C2B39704  36.433  43.385   6.747
 2848POPC   C3B39705  36.530  43.236   7.185
 2848POPC   C4B39706  36.266  43.015   7.483
 2849POPC   NC339707  27.666   0.125   5.480
 2849POPC   PO439708  27.468   0.828   5.478
 2849POPC   GL139709  27.495   0.521   5.798
 2849POPC   GL239710  27.803   0.616   5.931
 2849POPC   C1A39711  27.338   0.338   6.185
 2849POPC   D2A39712  27.211   0.393   6.589
 2849POPC   C3A39713  27.490   0.574   6.856
 2849POPC   C4A39714  27.661   0.510   7.250
 2849POPC   C1B39715  27.816   0.180   6.120
 2849POPC   C2B39716  27.634   0.054   6.525
 2849POPC   C3B39717  27.790   0.170   6.914
 2849POPC   C4B39718  27.765   0.028   7.357
 2850POPC   NC339719  23.071   4.091   5.302
 2850POPC   PO439720  22.505   4.498   5.374
 2850POPC   GL139721  22.765   4.499   5.727
 2850POPC   GL239722  22.865   4.161   5.769
 2850POPC   C1A39723  22.648   4.555   6.154
 2850POPC   D2A39724  22.451   4.429   6.532
 2850POPC   C3A39725  22.703   4.498   6.867
 2850POPC   C4A39726  22.701   4.529   7.296
 2850POPC   C1B39727  23.103   4.300   6.129
 2850POPC   C2B39728  23.078   4.199   6.561
 2850POPC   C3B39729  23.164   4.305   6.977
 2850POPC   C4B39730  22.974   4.101   7.311
 2851POPC   NC339731   1.463  24.161   5.621
 2851POPC   PO439732   2.089  24.009   5.396
 2851POPC   GL139733   1.927  24.042   5.808
 2851POPC   GL239734   1.772  23.723   5.926
 2851POPC   C1A39735   2.116  24.094   6.219
 2851POPC   D2A39736   2.243  23.793   6.511
 2851POPC   C3A39737   2.287  23.830   6.947
 2851POPC   C4A39738   2.296  23.471   7.266
 2851POPC   C1B39739   1.612  23.996   6.234
 2851POPC   C2B39740   1.796  24.032   6.644
 2851POPC   C3B39741   1.763  23.785   6.968
 2851POPC   C4B39742   1.935  23.837   7.321
 2852POPC   NC339743  11.572   0.898   5.550
 2852POPC   PO439744  12.257   0.935   5.494
 2852POPC   GL139745  11.990   1.005   5.863
 2852POPC   GL239746  11.765   1.293   5.859
 2852POPC   C1A39747  12.098   1.100   6.288
 2852POPC   D2A39748  12.020   0.933   6.698
 2852POPC   C3A39749  12.190   1.186   6.988
 2852POPC   C4A39750  12.288   1.228   7.404
 2852POPC   C1B39751  11.624   1.280   6.296
 2852POPC   C2B39752  11.810   1.442   6.652
 2852POPC   C3B39753  11.907   1.592   7.037
 2852POPC   C4B39754  11.788   1.266   7.336
 2853POPC   NC339755  32.184  17.784   5.052
 2853POPC   PO439756  32.639  17.291   5.261
 2853POPC   GL139757  32.259  17.473   5.557
 2853POPC   GL239758  31.961  17.230   5.662
 2853POPC   C1A39759  32.107  17.664   5.997
 2853POPC   D2A39760  31.979  17.535   6.455
 2853POPC   C3A39761  32.139  17.731   6.848
 2853POPC   C4A39762  32.169  17.634   7.252
 2853POPC   C1B39763  32.089  17.155   6.109
 2853POPC   C2B39764  32.246  17.093   6.522
 2853POPC   C3B39765  32.125  17.189   6.939
 2853POPC   C4B39766  32.334  17.160   7.332
 2854POPC   NC339767  11.517  40.864   5.526
 2854POPC   PO439768  12.197  40.465   5.465
 2854POPC   GL139769  12.011  40.792   5.742
 2854POPC   GL239770  12.291  40.987   5.900
 2854POPC   C1A39771  11.759  40.765   6.121
 2854POPC   D2A39772  11.822  40.818   6.559
 2854POPC   C3A39773  11.678  40.531   6.861
 2854POPC   C4A39774  11.942  40.508   7.226
 2854POPC   C1B39775  12.003  41.206   6.164
 2854POPC   C2B39776  11.977  41.311   6.616
 2854POPC   C3B39777  11.952  41.249   7.103
 2854POPC   C4B39778  12.275  41.166   7.448
 2855POPC   NC339779   6.864   9.103   5.441
 2855POPC   PO439780   6.432   8.615   5.462
 2855POPC   GL139781   6.457   8.806   5.845
 2855POPC   GL239782   6.811   8.812   5.874
 2855POPC   C1A39783   6.443   8.974   6.262
 2855POPC   D2A39784   6.554   8.840   6.652
 2855POPC   C3A39785   6.371   8.983   7.043
 2855POPC   C4A39786   6.439   8.730   7.414
 2855POPC   C1B39787   6.845   9.239   6.090
 2855POPC   C2B39788   6.772   9.302   6.547
 2855POPC   C3B39789   6.870   9.082   6.966
 2855POPC   C4B39790   6.816   9.082   7.417
 2856POPC   NC339791  31.597   4.023   5.257
 2856POPC   PO439792  31.055   4.310   5.519
 2856POPC   GL139793  31.299   4.115   5.865
 2856POPC   GL239794  31.684   4.098   5.785
 2856POPC   C1A39795  31.453   4.331   6.242
 2856POPC   D2A39796  31.564   4.560   6.638
 2856POPC   C3A39797  31.317   4.438   7.043
 2856POPC   C4A39798  31.280   4.083   7.371
 2856POPC   C1B39799  31.950   4.310   6.093
 2856POPC   C2B39800  31.898   4.200   6.487
 2856POPC   C3B39801  31.978   4.333   6.897
 2856POPC   C4B39802  31.762   4.292   7.274
 2857POPC   NC339803   0.451  19.472   5.203
 2857POPC   PO439804   0.486  20.056   5.481
 2857POPC   GL139805   0.436  19.846   5.844
 2857POPC   GL239806   0.757  19.837   5.981
 2857POPC   C1A39807   0.262  20.072   6.210
 2857POPC   D2A39808   0.296  20.254   6.622
 2857POPC   C3A39809   0.429  19.935   6.883
 2857POPC   C4A39810   0.162  19.938   7.230
 2857POPC   C1B39811   0.810  19.595   6.356
 2857POPC   C2B39812   0.809  19.339   6.732
 2857POPC   C3B39813   0.623  19.484   7.088
 2857POPC   C4B39814   0.616  19.799   7.394
 2858POPC   NC339815  25.079  29.664   5.341
 2858POPC   PO439816  25.396  30.215   5.477
 2858POPC   GL139817  25.248  30.133   5.880
 2858POPC   GL239818  24.971  29.936   5.786
 2858POPC   C1A39819  25.080  30.091   6.302
 2858POPC   D2A39820  25.089  30.190   6.719
 2858POPC   C3A39821  25.287  29.950   7.021
 2858POPC   C4A39822  24.977  30.094   7.257
 2858POPC   C1B39823  24.993  29.631   6.135
 2858POPC   C2B39824  24.850  29.597   6.583
 2858POPC   C3B39825  24.883  29.584   7.046
 2858POPC   C4B39826  24.854  29.580   7.490
 2859POPC   NC339827  44.652  41.494   5.271
 2859POPC   PO439828   0.082  41.014   5.344
 2859POPC   GL139829  44.923  41.326   5.700
 2859POPC   GL239830  44.606  41.543   5.773
 2859POPC   C1A39831  44.928  41.491   6.157
 2859POPC   D2A39832  44.989  41.755   6.549
 2859POPC   C3A39833  44.785  41.652   6.970
 2859POPC   C4A39834  44.677  41.298   7.259
 2859POPC   C1B39835  44.412  41.609   6.190
 2859POPC   C2B39836  44.471  41.847   6.563
 2859POPC   C3B39837  44.317  41.925   6.988
 2859POPC   C4B39838  44.432  41.728   7.385
 2860POPC   NC339839  26.099   2.766   4.896
 2860POPC   PO439840  26.270   3.031   5.477
 2860POPC   GL139841  26.035   2.877   5.789
 2860POPC   GL239842  25.768   3.121   5.838
 2860POPC   C1A39843  25.969   2.574   6.097
 2860POPC   D2A39844  25.764   2.428   6.465
 2860POPC   C3A39845  25.899   2.612   6.848
 2860POPC   C4A39846  25.963   2.508   7.288
 2860POPC   C1B39847  25.939   3.093   6.248
 2860POPC   C2B39848  25.766   3.060   6.639
 2860POPC   C3B39849  25.913   3.086   7.054
 2860POPC   C4B39850  25.558   3.315   7.270
 2861POPC   NC339851  12.285  30.639   5.388
 2861POPC   PO439852  11.770  31.071   5.480
 2861POPC   GL139853  11.986  30.832   5.799
 2861POPC   GL239854  11.882  30.494   5.901
 2861POPC   C1A39855  12.135  30.812   6.227
 2861POPC   D2A39856  11.843  30.751   6.566
 2861POPC   C3A39857  12.000  30.719   6.985
 2861POPC   C4A39858  12.337  30.744   7.365
 2861POPC   C1B39859  12.033  30.330   6.319
 2861POPC   C2B39860  12.314  30.510   6.648
 2861POPC   C3B39861  12.304  30.334   7.078
 2861POPC   C4B39862  12.233  30.279   7.532
 2862POPC   NC339863  16.262  10.535   5.630
 2862POPC   PO439864  16.838  10.390   5.322
 2862POPC   GL139865  16.754  10.570   5.752
 2862POPC   GL239866  16.590  10.910   5.725
 2862POPC   C1A39867  16.586  10.468   6.188
 2862POPC   D2A39868  16.572  10.244   6.585
 2862POPC   C3A39869  16.461  10.432   6.975
 2862POPC   C4A39870  16.718  10.645   7.329
 2862POPC   C1B39871  16.560  11.001   6.162
 2862POPC   C2B39872  16.424  10.826   6.538
 2862POPC   C3B39873  16.510  10.930   6.946
 2862POPC   C4B39874  16.235  10.765   7.282
 2863POPC   NC339875  11.504  27.558   5.146
 2863POPC   PO439876  12.217  27.491   5.327
 2863POPC   GL139877  12.095  27.584   5.745
 2863POPC   GL239878  11.826  27.783   5.741
 2863POPC   C1A39879  12.144  27.532   6.188
 2863POPC   D2A39880  11.893  27.390   6.536
 2863POPC   C3A39881  11.992  27.558   6.950
 2863POPC   C4A39882  12.332  27.472   7.250
 2863POPC   C1B39883  11.851  27.958   6.149
 2863POPC   C2B39884  11.702  27.875   6.555
 2863POPC   C3B39885  11.783  28.025   6.944
 2863POPC   C4B39886  12.080  27.950   7.270
 2864POPC   NC339887   1.027  41.269   5.534
 2864POPC   PO439888   1.517  40.919   5.287
 2864POPC   GL139889   1.349  40.950   5.744
 2864POPC   GL239890   1.136  40.710   5.906
 2864POPC   C1A39891   1.252  41.173   6.161
 2864POPC   D2A39892   1.128  41.041   6.590
 2864POPC   C3A39893   1.148  40.595   6.766
 2864POPC   C4A39894   0.889  40.451   7.129
 2864POPC   C1B39895   1.508  40.760   6.217
 2864POPC   C2B39896   1.628  40.954   6.625
 2864POPC   C3B39897   1.437  40.925   7.028
 2864POPC   C4B39898   1.362  40.577   7.271
 2865POPC   NC339899  35.079  25.674   5.546
 2865POPC   PO439900  35.604  25.853   5.185
 2865POPC   GL139901  35.528  26.023   5.657
 2865POPC   GL239902  35.351  26.354   5.831
 2865POPC   C1A39903  35.491  25.981   6.136
 2865POPC   D2A39904  35.605  26.054   6.590
 2865POPC   C3A39905  35.377  25.956   6.997
 2865POPC   C4A39906  35.513  26.170   7.377
 2865POPC   C1B39907  35.064  26.238   6.245
 2865POPC   C2B39908  35.135  26.306   6.725
 2865POPC   C3B39909  35.069  26.369   7.207
 2865POPC   C4B39910  34.896  26.547   7.634
 2866POPC   NC339911  24.165   5.556   5.457
 2866POPC   PO439912  24.720   5.095   5.506
 2866POPC   GL139913  24.554   5.289   5.842
 2866POPC   GL239914  24.224   5.218   5.857
 2866POPC   C1A39915  24.551   5.120   6.249
 2866POPC   D2A39916  24.776   4.869   6.549
 2866POPC   C3A39917  24.753   5.000   6.984
 2866POPC   C4A39918  24.491   5.285   7.224
 2866POPC   C1B39919  24.096   4.901   6.186
 2866POPC   C2B39920  24.275   4.788   6.603
 2866POPC   C3B39921  24.243   4.835   7.054
 2866POPC   C4B39922  23.949   5.020   7.351
 2867POPC   NC339923  28.172  15.034   5.472
 2867POPC   PO439924  28.725  14.811   5.454
 2867POPC   GL139925  28.558  15.037   5.827
 2867POPC   GL239926  28.641  15.360   5.867
 2867POPC   C1A39927  28.491  15.077   6.302
 2867POPC   D2A39928  28.186  15.062   6.653
 2867POPC   C3A39929  28.273  14.956   7.107
 2867POPC   C4A39930  28.192  14.824   7.552
 2867POPC   C1B39931  28.303  15.517   6.139
 2867POPC   C2B39932  28.431  15.549   6.548
 2867POPC   C3B39933  28.317  15.455   6.941
 2867POPC   C4B39934  28.616  15.517   7.215
 2868POPC   NC339935   6.951  32.087   5.553
 2868POPC   PO439936   7.486  32.402   5.298
 2868POPC   GL139937   7.414  32.283   5.737
 2868POPC   GL239938   7.285  32.588   5.870
 2868POPC   C1A39939   7.512  32.209   6.207
 2868POPC   D2A39940   7.443  32.302   6.659
 2868POPC   C3A39941   7.653  32.075   6.992
 2868POPC   C4A39942   7.628  32.411   7.259
 2868POPC   C1B39943   7.185  32.793   6.260
 2868POPC   C2B39944   7.004  32.676   6.634
 2868POPC   C3B39945   7.139  32.524   7.022
 2868POPC   C4B39946   7.195  32.098   7.186
 2869POPC   NC339947   5.179   0.069   5.390
 2869POPC   PO439948   4.913  44.320   5.320
 2869POPC   GL139949   5.079  44.373   5.719
 2869POPC   GL239950   5.155  44.738   5.780
 2869POPC   C1A39951   4.978  44.403   6.155
 2869POPC   D2A39952   5.273  44.421   6.472
 2869POPC   C3A39953   5.202  44.682   6.828
 2869POPC   C4A39954   5.363  44.547   7.196
 2869POPC   C1B39955   5.186  44.893   6.209
 2869POPC   C2B39956   4.833  44.825   6.498
 2869POPC   C3B39957   4.694  44.815   6.932
 2869POPC   C4B39958   4.925  44.815   7.319
 2870POPC   NC339959   0.922  27.504   5.407
 2870POPC   PO439960   0.252  27.584   5.344
 2870POPC   GL139961   0.498  27.646   5.678
 2870POPC   GL239962   0.608  27.987   5.653
 2870POPC   C1A39963   0.614  27.408   6.039
 2870POPC   D2A39964   0.539  27.474   6.473
 2870POPC   C3A39965   0.686  27.288   6.850
 2870POPC   C4A39966   0.484  27.388   7.233
 2870POPC   C1B39967   0.617  27.917   6.098
 2870POPC   C2B39968   0.440  27.979   6.512
 2870POPC   C3B39969   0.536  27.781   6.895
 2870POPC   C4B39970   0.630  27.879   7.292
 2871POPC   NC339971  39.573  32.921   5.475
 2871POPC   PO439972  39.086  33.287   5.781
 2871POPC   GL139973  39.324  32.985   5.924
 2871POPC   GL239974  39.629  33.157   5.921
 2871POPC   C1A39975  39.474  32.787   6.271
 2871POPC   D2A39976  39.394  32.970   6.668
 2871POPC   C3A39977  39.327  32.666   6.986
 2871POPC   C4A39978  39.068  32.742   7.326
 2871POPC   C1B39979  39.730  33.535   6.160
 2871POPC   C2B39980  39.817  33.550   6.593
 2871POPC   C3B39981  39.775  33.221   6.887
 2871POPC   C4B39982  39.419  33.145   7.172
 2872POPC   NC339983  17.738  20.022   4.820
 2872POPC   PO439984  17.583  19.979   5.447
 2872POPC   GL139985  17.687  19.931   5.884
 2872POPC   GL239986  17.850  19.617   5.941
 2872POPC   C1A39987  17.620  20.004   6.334
 2872POPC   D2A39988  17.770  20.050   6.742
 2872POPC   C3A39989  17.462  19.928   7.066
 2872POPC   C4A39990  17.496  19.985   7.514
 2872POPC   C1B39991  17.629  19.498   6.348
 2872POPC   C2B39992  17.617  19.508   6.821
 2872POPC   C3B39993  17.645  19.521   7.315
 2872POPC   C4B39994  17.402  19.547   7.744
 2873POPC   NC339995   9.897  37.285   5.606
 2873POPC   PO439996   9.679  36.695   5.347
 2873POPC   GL139997   9.630  36.869   5.768
 2873POPC   GL239998   9.953  36.743   5.827
 2873POPC   C1A39999   9.761  37.054   6.202
 2873POPC   D2A40000   9.928  37.088   6.627
 2873POPC   C3A40001   9.667  37.336   6.909
 2873POPC   C4A40002   9.470  37.247   7.293
 2873POPC   C1B40003  10.007  36.590   6.256
 2873POPC   C2B40004  10.147  36.416   6.646
 2873POPC   C3B40005   9.987  36.495   7.026
 2873POPC   C4B40006   9.753  36.862   7.106
 2874POPC   NC340007  16.819  21.006   5.469
 2874POPC   PO440008  16.685  20.314   5.411
 2874POPC   GL140009  16.552  20.625   5.723
 2874POPC   GL240010  16.346  20.440   5.952
 2874POPC   C1A40011  16.798  20.691   6.077
 2874POPC   D2A40012  17.004  20.592   6.450
 2874POPC   C3A40013  16.965  20.810   6.832
 2874POPC   C4A40014  16.799  20.618   7.224
 2874POPC   C1B40015  16.448  20.457   6.395
 2874POPC   C2B40016  16.580  20.408   6.821
 2874POPC   C3B40017  16.687  20.126   7.177
 2874POPC   C4B40018  16.690  20.257   7.638
 2875POPC   NC340019  20.115  26.181   5.201
 2875POPC   PO440020  20.565  26.307   5.743
 2875POPC   GL140021  20.261  26.006   5.981
 2875POPC   GL240022  20.202  25.678   5.837
 2875POPC   C1A40023  20.186  26.050   6.418
 2875POPC   D2A40024  20.419  26.338   6.693
 2875POPC   C3A40025  20.727  26.194   6.981
 2875POPC   C4A40026  20.607  26.232   7.392
 2875POPC   C1B40027  20.352  25.586   6.296
 2875POPC   C2B40028  20.431  25.763   6.761
 2875POPC   C3B40029  20.440  25.773   7.230
 2875POPC   C4B40030  20.566  25.590   7.643
 2876POPC   NC340031  17.901   2.282   5.389
 2876POPC   PO440032  18.509   1.944   5.362
 2876POPC   GL140033  18.389   1.871   5.817
 2876POPC   GL240034  18.089   2.080   5.880
 2876POPC   C1A40035  18.349   1.676   6.246
 2876POPC   D2A40036  18.103   1.657   6.645
 2876POPC   C3A40037  18.289   1.852   6.998
 2876POPC   C4A40038  18.357   2.254   7.203
 2876POPC   C1B40039  18.034   2.085   6.347
 2876POPC   C2B40040  18.033   2.250   6.779
 2876POPC   C3B40041  17.860   2.199   7.194
 2876POPC   C4B40042  18.052   2.195   7.634
 2877POPC   NC340043  35.536  24.790   5.451
 2877POPC   PO440044  35.381  24.142   5.423
 2877POPC   GL140045  35.458  24.414   5.803
 2877POPC   GL240046  35.226  24.704   5.840
 2877POPC   C1A40047  35.549  24.487   6.252
 2877POPC   D2A40048  35.429  24.296   6.635
 2877POPC   C3A40049  35.386  24.486   7.034
 2877POPC   C4A40050  35.295  24.245   7.401
 2877POPC   C1B40051  35.056  24.486   6.176
 2877POPC   C2B40052  35.079  24.672   6.583
 2877POPC   C3B40053  34.781  24.599   6.879
 2877POPC   C4B40054  34.914  24.594   7.286
 2878POPC   NC340055  13.946  41.811   5.545
 2878POPC   PO440056  13.388  41.764   5.394
 2878POPC   GL140057  13.541  41.547   5.779
 2878POPC   GL240058  13.288  41.295   5.848
 2878POPC   C1A40059  13.759  41.693   6.181
 2878POPC   D2A40060  13.661  41.876   6.593
 2878POPC   C3A40061  13.628  41.696   7.016
 2878POPC   C4A40062  13.352  41.823   7.359
 2878POPC   C1B40063  13.616  41.209   6.188
 2878POPC   C2B40064  13.713  41.362   6.616
 2878POPC   C3B40065  13.706  41.179   7.040
 2878POPC   C4B40066  13.885  40.987   7.424
 2879POPC   NC340067  18.300  28.743   5.561
 2879POPC   PO440068  18.393  29.386   5.380
 2879POPC   GL140069  18.293  29.214   5.801
 2879POPC   GL240070  17.953  29.092   5.867
 2879POPC   C1A40071  18.427  28.971   6.183
 2879POPC   D2A40072  18.702  29.039   6.532
 2879POPC   C3A40073  18.590  29.128   6.966
 2879POPC   C4A40074  18.459  29.334   7.365
 2879POPC   C1B40075  17.931  29.088   6.319
 2879POPC   C2B40076  18.174  29.113   6.674
 2879POPC   C3B40077  18.097  29.065   7.119
 2879POPC   C4B40078  17.992  29.089   7.562
 2880POPC   NC340079  13.510  20.055   5.421
 2880POPC   PO440080  14.151  19.937   5.577
 2880POPC   GL140081  13.820  19.781   5.797
 2880POPC   GL240082  13.478  19.622   5.741
 2880POPC   C1A40083  13.908  19.870   6.202
 2880POPC   D2A40084  13.706  20.013   6.516
 2880POPC   C3A40085  13.734  19.740   6.836
 2880POPC   C4A40086  13.574  19.910   7.207
 2880POPC   C1B40087  13.477  19.597   6.227
 2880POPC   C2B40088  13.389  19.358   6.620
 2880POPC   C3B40089  13.313  19.465   7.103
 2880POPC   C4B40090  13.169  19.754   7.485
 2881POPC   NC340091  42.250  43.258   5.439
 2881POPC   PO440092  41.945  42.673   5.461
 2881POPC   GL140093  42.065  42.943   5.813
 2881POPC   GL240094  42.427  42.915   5.869
 2881POPC   C1A40095  42.120  42.899   6.264
 2881POPC   D2A40096  41.963  42.698   6.627
 2881POPC   C3A40097  42.079  42.878   7.020
 2881POPC   C4A40098  42.503  42.805   7.189
 2881POPC   C1B40099  42.583  42.701   6.281
 2881POPC   C2B40100  42.482  42.878   6.667
 2881POPC   C3B40101  42.435  43.264   6.890
 2881POPC   C4B40102  42.345  43.359   7.325
 2882POPC   NC340103  42.150  41.522   5.125
 2882POPC   PO440104  42.550  41.250   5.630
 2882POPC   GL140105  42.489  41.626   5.888
 2882POPC   GL240106  42.139  41.727   5.969
 2882POPC   C1A40107  42.489  41.743   6.329
 2882POPC   D2A40108  42.297  41.622   6.702
 2882POPC   C3A40109  42.377  41.315   7.015
 2882POPC   C4A40110  42.376  41.634   7.311
 2882POPC   C1B40111  42.175  41.370   6.239
 2882POPC   C2B40112  41.954  41.269   6.545
 2882POPC   C3B40113  41.871  41.441   6.906
 2882POPC   C4B40114  41.926  41.394   7.306
 2883POPC   NC340115  33.553  22.774   5.308
 2883POPC   PO440116  34.149  22.832   5.521
 2883POPC   GL140117  33.964  22.911   5.906
 2883POPC   GL240118  33.606  22.912   5.816
 2883POPC   C1A40119  33.914  22.800   6.358
 2883POPC   D2A40120  33.888  22.541   6.735
 2883POPC   C3A40121  33.867  22.802   7.071
 2883POPC   C4A40122  33.888  23.248   7.103
 2883POPC   C1B40123  33.429  22.924   6.257
 2883POPC   C2B40124  33.494  22.898   6.735
 2883POPC   C3B40125  33.421  23.013   7.197
 2883POPC   C4B40126  33.565  23.298   7.556
 2884POPC   NC340127  44.362  42.059   5.331
 2884POPC   PO440128  43.762  42.050   5.618
 2884POPC   GL140129  43.887  42.314   5.924
 2884POPC   GL240130  44.179  42.515   5.843
 2884POPC   C1A40131  43.690  42.392   6.300
 2884POPC   D2A40132  43.501  42.253   6.669
 2884POPC   C3A40133  43.839  42.191   6.944
 2884POPC   C4A40134  43.870  42.500   7.261
 2884POPC   C1B40135  44.327  42.240   6.181
 2884POPC   C2B40136  44.254  42.299   6.618
 2884POPC   C3B40137  44.326  42.429   7.053
 2884POPC   C4B40138  44.264  42.206   7.446
 2885POPC   NC340139  20.875  44.168   5.378
 2885POPC   PO440140  20.498  43.684   5.179
 2885POPC   GL140141  20.643  43.767   5.642
 2885POPC   GL240142  20.649  44.102   5.820
 2885POPC   C1A40143  20.611  43.624   6.082
 2885POPC   D2A40144  20.491  43.779   6.483
 2885POPC   C3A40145  20.681  43.711   6.873
 2885POPC   C4A40146  20.512  43.734   7.263
 2885POPC   C1B40147  20.712  44.182   6.263
 2885POPC   C2B40148  20.693  44.201   6.721
 2885POPC   C3B40149  20.635  44.216   7.164
 2885POPC   C4B40150  20.853  44.097   7.532
 2886POPC   NC340151  23.304   9.488   5.392
 2886POPC   PO440152  22.693   9.659   5.299
 2886POPC   GL140153  22.612   9.649   5.788
 2886POPC   GL240154  22.952   9.741   5.860
 2886POPC   C1A40155  22.658   9.635   6.285
 2886POPC   D2A40156  22.839   9.800   6.692
 2886POPC   C3A40157  22.654   9.702   7.080
 2886POPC   C4A40158  22.376   9.723   7.430
 2886POPC   C1B40159  23.151   9.869   6.261
 2886POPC   C2B40160  23.326   9.655   6.644
 2886POPC   C3B40161  23.253   9.875   7.035
 2886POPC   C4B40162  22.939  10.179   7.156
 2887POPC   NC340163   1.909  40.632   5.359
 2887POPC   PO440164   2.473  41.047   5.553
 2887POPC   GL140165   2.165  40.814   5.772
 2887POPC   GL240166   1.853  40.993   5.755
 2887POPC   C1A40167   2.092  40.676   6.195
 2887POPC   D2A40168   2.379  40.533   6.564
 2887POPC   C3A40169   2.051  40.639   6.827
 2887POPC   C4A40170   1.856  40.646   7.184
 2887POPC   C1B40171   1.811  41.173   6.189
 2887POPC   C2B40172   1.992  41.307   6.611
 2887POPC   C3B40173   1.906  41.130   7.048
 2887POPC   C4B40174   1.703  40.972   7.519
 2888POPC   NC340175  16.159  11.485   5.334
 2888POPC   PO440176  15.517  11.436   5.415
 2888POPC   GL140177  15.822  11.355   5.722
 2888POPC   GL240178  16.051  11.041   5.602
 2888POPC   C1A40179  15.815  11.527   6.146
 2888POPC   D2A40180  15.918  11.619   6.568
 2888POPC   C3A40181  16.050  11.516   6.956
 2888POPC   C4A40182  15.951  11.608   7.367
 2888POPC   C1B40183  16.066  11.030   6.048
 2888POPC   C2B40184  15.972  11.107   6.464
 2888POPC   C3B40185  16.017  11.014   6.881
 2888POPC   C4B40186  15.858  11.105   7.283
 2889POPC   NC340187  13.345  16.086   5.537
 2889POPC   PO440188  13.988  15.739   5.566
 2889POPC   GL140189  13.750  15.960   5.842
 2889POPC   GL240190  13.764  16.310   5.862
 2889POPC   C1A40191  13.483  15.979   6.177
 2889POPC   D2A40192  13.675  15.830   6.534
 2889POPC   C3A40193  13.590  16.049   6.903
 2889POPC   C4A40194  13.638  15.873   7.267
 2889POPC   C1B40195  13.853  16.322   6.323
 2889POPC   C2B40196  13.916  16.436   6.780
 2889POPC   C3B40197  14.023  16.195   7.191
 2889POPC   C4B40198  13.833  16.239   7.649
 2890POPC   NC340199  17.131  11.223   5.351
 2890POPC   PO440200  16.459  11.135   5.265
 2890POPC   GL140201  16.597  11.403   5.608
 2890POPC   GL240202  16.324  11.433   5.814
 2890POPC   C1A40203  16.790  11.443   6.027
 2890POPC   D2A40204  16.816  11.560   6.463
 2890POPC   C3A40205  16.957  11.261   6.802
 2890POPC   C4A40206  16.854  11.157   7.242
 2890POPC   C1B40207  16.318  11.468   6.243
 2890POPC   C2B40208  16.404  11.335   6.631
 2890POPC   C3B40209  16.558  11.493   6.996
 2890POPC   C4B40210  16.340  11.263   7.281
 2891POPC   NC340211  24.913  44.448   5.388
 2891POPC   PO440212  25.450  44.789   5.072
 2891POPC   GL140213  25.341  44.722   5.578
 2891POPC   GL240214  24.991  44.832   5.705
 2891POPC   C1A40215  25.488  44.559   6.019
 2891POPC   D2A40216  25.302  44.485   6.471
 2891POPC   C3A40217  25.456  44.455   6.938
 2891POPC   C4A40218  25.238  44.407   7.347
 2891POPC   C1B40219  25.025  44.761   6.122
 2891POPC   C2B40220  25.025  44.899   6.519
 2891POPC   C3B40221  25.050  44.773   6.941
 2891POPC   C4B40222  25.181  44.921   7.339
 2892POPC   NC340223  32.736   8.667   5.461
 2892POPC   PO440224  32.155   9.030   5.356
 2892POPC   GL140225  32.362   9.000   5.713
 2892POPC   GL240226  32.383   8.651   5.820
 2892POPC   C1A40227  32.289   9.259   6.064
 2892POPC   D2A40228  32.034   9.165   6.432
 2892POPC   C3A40229  32.250   9.063   6.807
 2892POPC   C4A40230  32.268   9.222   7.213
 2892POPC   C1B40231  32.067   8.783   6.103
 2892POPC   C2B40232  31.998   8.665   6.558
 2892POPC   C3B40233  31.957   8.556   6.987
 2892POPC   C4B40234  31.991   8.763   7.394
 2893POPC   NC340235  38.176  28.504   5.445
 2893POPC   PO440236  38.691  28.128   5.334
 2893POPC   GL140237  38.552  28.299   5.769
 2893POPC   GL240238  38.295  28.558   5.935
 2893POPC   C1A40239  38.621  28.300   6.217
 2893POPC   D2A40240  38.421  28.489   6.554
 2893POPC   C3A40241  38.691  28.515   6.873
 2893POPC   C4A40242  38.478  28.303   7.165
 2893POPC   C1B40243  38.091  28.251   6.240
 2893POPC   C2B40244  38.032  28.047   6.668
 2893POPC   C3B40245  38.020  28.092   7.157
 2893POPC   C4B40246  37.913  28.072   7.610
 2894POPC   NC340247   8.428  13.050   5.412
 2894POPC   PO440248   7.860  12.572   5.473
 2894POPC   GL140249   7.782  12.794   5.885
 2894POPC   GL240250   8.034  13.070   5.879
 2894POPC   C1A40251   7.954  12.582   6.236
 2894POPC   D2A40252   8.210  12.645   6.589
 2894POPC   C3A40253   7.986  12.807   6.941
 2894POPC   C4A40254   7.998  12.463   7.179
 2894POPC   C1B40255   8.393  13.141   6.199
 2894POPC   C2B40256   8.427  13.099   6.671
 2894POPC   C3B40257   8.446  12.962   7.086
 2894POPC   C4B40258   8.582  12.728   7.418
 2895POPC   NC340259   8.677  18.333   5.338
 2895POPC   PO440260   9.304  18.598   5.356
 2895POPC   GL140261   9.081  18.495   5.694
 2895POPC   GL240262   8.989  18.162   5.728
 2895POPC   C1A40263   9.112  18.544   6.137
 2895POPC   D2A40264   8.963  18.590   6.558
 2895POPC   C3A40265   9.011  18.281   6.869
 2895POPC   C4A40266   8.949  18.444   7.276
 2895POPC   C1B40267   8.755  17.991   6.103
 2895POPC   C2B40268   8.688  17.730   6.500
 2895POPC   C3B40269   8.785  17.803   6.932
 2895POPC   C4B40270   9.019  17.944   7.276
 2896POPC   NC340271  12.938  36.421   5.375
 2896POPC   PO440272  12.474  35.880   5.499
 2896POPC   GL140273  12.706  36.101   5.853
 2896POPC   GL240274  12.839  36.449   5.924
 2896POPC   C1A40275  12.823  35.929   6.251
 2896POPC   D2A40276  13.017  36.049   6.631
 2896POPC   C3A40277  12.851  35.924   7.032
 2896POPC   C4A40278  12.521  36.157   7.242
 2896POPC   C1B40279  13.180  36.682   6.205
 2896POPC   C2B40280  13.233  36.559   6.632
 2896POPC   C3B40281  12.944  36.425   6.944
 2896POPC   C4B40282  12.986  36.352   7.349
 2897POPC   NC340283  31.662  19.121   5.408
 2897POPC   PO440284  31.445  18.534   5.433
 2897POPC   GL140285  31.522  18.823   5.799
 2897POPC   GL240286  31.291  19.117   5.757
 2897POPC   C1A40287  31.617  19.005   6.204
 2897POPC   D2A40288  31.490  18.864   6.624
 2897POPC   C3A40289  31.532  19.134   6.967
 2897POPC   C4A40290  31.566  19.372   7.370
 2897POPC   C1B40291  31.291  19.395   6.107
 2897POPC   C2B40292  31.355  19.425   6.564
 2897POPC   C3B40293  31.157  19.475   6.991
 2897POPC   C4B40294  31.123  19.632   7.404
 2898POPC   NC340295  12.055   5.597   5.136
 2898POPC   PO440296  12.220   6.055   5.636
 2898POPC   GL140297  11.956   5.942   5.922
 2898POPC   GL240298  11.960   5.616   5.833
 2898POPC   C1A40299  11.938   5.993   6.357
 2898POPC   D2A40300  12.092   6.221   6.677
 2898POPC   C3A40301  11.881   6.054   6.990
 2898POPC   C4A40302  12.015   5.708   7.205
 2898POPC   C1B40303  12.313   5.703   6.197
 2898POPC   C2B40304  12.238   5.639   6.638
 2898POPC   C3B40305  12.502   5.599   6.990
 2898POPC   C4B40306  12.411   5.435   7.398
 2899POPC   NC340307  30.004  28.691   5.557
 2899POPC   PO440308  30.376  28.136   5.516
 2899POPC   GL140309  30.087  28.295   5.886
 2899POPC   GL240310  29.713  28.458   5.912
 2899POPC   C1A40311  30.035  28.445   6.320
 2899POPC   D2A40312  29.768  28.467   6.718
 2899POPC   C3A40313  29.924  28.251   7.120
 2899POPC   C4A40314  29.892  27.831   7.331
 2899POPC   C1B40315  29.708  28.833   6.240
 2899POPC   C2B40316  29.684  28.986   6.689
 2899POPC   C3B40317  29.827  28.811   7.089
 2899POPC   C4B40318  29.587  28.552   7.338
 2900POPC   NC340319  11.569  39.110   4.993
 2900POPC   PO440320  11.043  39.550   5.202
 2900POPC   GL140321  11.126  39.367   5.670
 2900POPC   GL240322  11.368  39.117   5.817
 2900POPC   C1A40323  11.005  39.273   6.116
 2900POPC   D2A40324  11.152  39.478   6.464
 2900POPC   C3A40325  11.074  39.306   6.848
 2900POPC   C4A40326  11.096  39.425   7.260
 2900POPC   C1B40327  11.567  39.272   6.214
 2900POPC   C2B40328  11.539  39.133   6.648
 2900POPC   C3B40329  11.529  39.185   7.091
 2900POPC   C4B40330  11.835  39.258   7.405
 2901POPC   NC340331  39.558   6.059   5.621
 2901POPC   PO440332  39.930   5.620   5.233
 2901POPC   GL140333  40.038   5.853   5.633
 2901POPC   GL240334  39.847   5.578   5.760
 2901POPC   C1A40335  40.008   6.056   6.097
 2901POPC   D2A40336  40.117   5.988   6.569
 2901POPC   C3A40337  39.952   6.091   7.014
 2901POPC   C4A40338  40.177   6.117   7.400
 2901POPC   C1B40339  40.073   5.544   6.130
 2901POPC   C2B40340  39.863   5.566   6.523
 2901POPC   C3B40341  40.010   5.570   6.936
 2901POPC   C4B40342  39.743   5.557   7.291
 2902POPC   NC340343   9.341  15.113   5.523
 2902POPC   PO440344   9.905  15.006   5.155
 2902POPC   GL140345   9.853  15.128   5.588
 2902POPC   GL240346   9.876  14.810   5.782
 2902POPC   C1A40347   9.783  15.282   6.036
 2902POPC   D2A40348   9.797  15.121   6.481
 2902POPC   C3A40349   9.704  15.402   6.826
 2902POPC   C4A40350   9.794  15.323   7.269
 2902POPC   C1B40351   9.536  14.827   6.109
 2902POPC   C2B40352   9.385  14.795   6.540
 2902POPC   C3B40353   9.552  14.934   6.959
 2902POPC   C4B40354   9.560  14.871   7.400
 2903POPC   NC340355   8.203  20.978   5.419
 2903POPC   PO440356   8.368  20.321   5.365
 2903POPC   GL140357   8.253  20.538   5.762
 2903POPC   GL240358   8.489  20.324   5.907
 2903POPC   C1A40359   8.132  20.678   6.215
 2903POPC   D2A40360   7.882  20.610   6.626
 2903POPC   C3A40361   8.110  20.555   7.009
 2903POPC   C4A40362   8.039  20.918   7.242
 2903POPC   C1B40363   8.502  20.361   6.323
 2903POPC   C2B40364   8.537  20.481   6.708
 2903POPC   C3B40365   8.612  20.319   7.081
 2903POPC   C4B40366   8.581  20.678   7.223
 2904POPC   NC340367   3.265  22.349   5.526
 2904POPC   PO440368   3.876  22.055   5.428
 2904POPC   GL140369   3.690  22.094   5.853
 2904POPC   GL240370   3.369  21.982   5.894
 2904POPC   C1A40371   3.546  22.253   6.276
 2904POPC   D2A40372   3.323  22.261   6.670
 2904POPC   C3A40373   3.589  22.361   7.029
 2904POPC   C4A40374   3.927  22.553   7.281
 2904POPC   C1B40375   3.223  21.775   6.283
 2904POPC   C2B40376   3.240  21.755   6.732
 2904POPC   C3B40377   3.233  22.007   7.122
 2904POPC   C4B40378   3.277  21.857   7.572
 2905POPC   NC340379   2.680  40.318   5.493
 2905POPC   PO440380   2.925  39.702   5.613
 2905POPC   GL140381   2.694  39.960   5.868
 2905POPC   GL240382   2.400  39.885   5.679
 2905POPC   C1A40383   2.739  40.193   6.254
 2905POPC   D2A40384   2.718  39.994   6.641
 2905POPC   C3A40385   2.689  40.156   7.058
 2905POPC   C4A40386   2.813  39.876   7.352
 2905POPC   C1B40387   2.308  39.691   6.085
 2905POPC   C2B40388   2.297  39.737   6.537
 2905POPC   C3B40389   2.451  39.695   6.973
 2905POPC   C4B40390   2.324  39.817   7.372
 2906POPC   NC340391   8.487   9.598   5.489
 2906POPC   PO440392   7.866   9.465   5.080
 2906POPC   GL140393   7.971   9.494   5.557
 2906POPC   GL240394   8.077   9.836   5.707
 2906POPC   C1A40395   7.924   9.512   6.042
 2906POPC   D2A40396   7.845   9.768   6.429
 2906POPC   C3A40397   7.996   9.751   6.882
 2906POPC   C4A40398   7.915   9.974   7.284
 2906POPC   C1B40399   8.312   9.835   6.157
 2906POPC   C2B40400   8.468   9.903   6.612
 2906POPC   C3B40401   8.428   9.962   7.091
 2906POPC   C4B40402   8.390   9.849   7.550
 2907POPC   NC340403   0.203   8.341   5.475
 2907POPC   PO440404   0.606   7.944   5.100
 2907POPC   GL140405   0.584   8.076   5.666
 2907POPC   GL240406   0.308   7.962   5.922
 2907POPC   C1A40407   0.529   8.379   6.086
 2907POPC   D2A40408   0.192   8.241   6.366
 2907POPC   C3A40409   0.251   8.180   6.794
 2907POPC   C4A40410   0.264   7.987   7.203
 2907POPC   C1B40411   0.730   7.946   6.177
 2907POPC   C2B40412   0.756   8.179   6.582
 2907POPC   C3B40413   0.724   8.030   6.988
 2907POPC   C4B40414   0.758   8.149   7.437
 2908POPC   NC340415  15.023  14.626   5.296
 2908POPC   PO440416  15.668  14.355   5.448
 2908POPC   GL140417  15.409  14.401   5.826
 2908POPC   GL240418  15.345  14.063   5.897
 2908POPC   C1A40419  15.180  14.486   6.238
 2908POPC   D2A40420  14.921  14.596   6.650
 2908POPC   C3A40421  15.226  14.686   6.980
 2908POPC   C4A40422  15.200  14.575   7.408
 2908POPC   C1B40423  15.466  14.020   6.334
 2908POPC   C2B40424  15.247  14.222   6.663
 2908POPC   C3B40425  15.115  14.173   7.054
 2908POPC   C4B40426  15.512  14.258   7.203
 2909POPC   NC340427   3.768  20.824   5.581
 2909POPC   PO440428   3.294  20.343   5.465
 2909POPC   GL140429   3.545  20.390   5.819
 2909POPC   GL240430   3.360  20.679   5.863
 2909POPC   C1A40431   3.754  20.299   6.236
 2909POPC   D2A40432   3.896  20.476   6.645
 2909POPC   C3A40433   3.737  20.283   7.029
 2909POPC   C4A40434   3.645  20.498   7.408
 2909POPC   C1B40435   3.579  20.808   6.214
 2909POPC   C2B40436   3.418  20.687   6.565
 2909POPC   C3B40437   3.457  20.711   6.985
 2909POPC   C4B40438   3.356  21.025   7.266
 2910POPC   NC340439  21.668  37.246   5.558
 2910POPC   PO440440  21.201  36.747   5.460
 2910POPC   GL140441  21.300  37.001   5.795
 2910POPC   GL240442  21.287  36.716   5.972
 2910POPC   C1A40443  21.495  37.093   6.211
 2910POPC   D2A40444  21.450  36.862   6.600
 2910POPC   C3A40445  21.517  37.136   6.966
 2910POPC   C4A40446  21.491  36.987   7.407
 2910POPC   C1B40447  21.245  36.483   6.318
 2910POPC   C2B40448  21.019  36.619   6.695
 2910POPC   C3B40449  21.131  36.823   7.003
 2910POPC   C4B40450  21.160  36.595   7.312
 2911POPC   NC340451   4.929   6.144   5.584
 2911POPC   PO440452   5.323   5.627   5.367
 2911POPC   GL140453   5.325   5.875   5.768
 2911POPC   GL240454   5.020   5.809   5.947
 2911POPC   C1A40455   5.394   5.912   6.251
 2911POPC   D2A40456   5.132   5.969   6.642
 2911POPC   C3A40457   5.299   5.947   7.060
 2911POPC   C4A40458   5.125   5.695   7.373
 2911POPC   C1B40459   4.747   5.838   6.303
 2911POPC   C2B40460   4.591   5.832   6.716
 2911POPC   C3B40461   4.772   5.977   7.099
 2911POPC   C4B40462   4.707   6.051   7.568
 2912POPC   NC340463  19.273  28.599   5.421
 2912POPC   PO440464  19.195  27.998   5.271
 2912POPC   GL140465  19.249  28.235   5.763
 2912POPC   GL240466  18.943  28.276   5.856
 2912POPC   C1A40467  19.204  28.235   6.276
 2912POPC   D2A40468  18.905  28.253   6.650
 2912POPC   C3A40469  19.139  28.187   7.022
 2912POPC   C4A40470  19.285  28.452   7.367
 2912POPC   C1B40471  18.723  28.465   6.198
 2912POPC   C2B40472  18.459  28.547   6.535
 2912POPC   C3B40473  18.463  28.588   6.967
 2912POPC   C4B40474  18.668  28.289   7.249
 2913POPC   NC340475  28.102  33.573   5.633
 2913POPC   PO440476  28.563  34.054   5.448
 2913POPC   GL140477  28.370  33.963   5.823
 2913POPC   GL240478  28.026  34.096   5.740
 2913POPC   C1A40479  28.404  33.709   6.194
 2913POPC   D2A40480  28.634  33.785   6.535
 2913POPC   C3A40481  28.485  33.712   6.953
 2913POPC   C4A40482  28.646  33.646   7.353
 2913POPC   C1B40483  27.954  33.942   6.153
 2913POPC   C2B40484  28.107  33.859   6.595
 2913POPC   C3B40485  28.097  34.054   6.995
 2913POPC   C4B40486  28.210  33.922   7.393
 2914POPC   NC340487  19.746   4.079   5.257
 2914POPC   PO440488  20.131   4.567   5.509
 2914POPC   GL140489  19.862   4.272   5.721
 2914POPC   GL240490  20.082   4.057   5.839
 2914POPC   C1A40491  19.687   4.171   6.141
 2914POPC   D2A40492  19.898   4.144   6.534
 2914POPC   C3A40493  19.653   4.276   6.845
 2914POPC   C4A40494  19.545   4.475   7.200
 2914POPC   C1B40495  20.127   4.436   6.143
 2914POPC   C2B40496  20.182   4.585   6.556
 2914POPC   C3B40497  20.142   4.412   6.944
 2914POPC   C4B40498  20.354   4.540   7.260
 2915POPC   NC340499  23.104   3.092   5.204
 2915POPC   PO440500  22.730   3.754   5.351
 2915POPC   GL140501  22.649   3.690   5.783
 2915POPC   GL240502  22.981   3.588   5.831
 2915POPC   C1A40503  22.634   3.527   6.227
 2915POPC   D2A40504  22.781   3.250   6.524
 2915POPC   C3A40505  22.801   3.334   6.934
 2915POPC   C4A40506  22.702   3.668   7.184
 2915POPC   C1B40507  23.087   3.786   6.209
 2915POPC   C2B40508  23.110   3.645   6.617
 2915POPC   C3B40509  23.216   3.799   6.978
 2915POPC   C4B40510  23.273   3.695   7.383
 2916POPC   NC340511  36.401   1.600   5.359
 2916POPC   PO440512  36.936   1.218   5.454
 2916POPC   GL140513  37.076   1.094   5.871
 2916POPC   GL240514  37.305   0.846   5.951
 2916POPC   C1A40515  36.908   1.097   6.292
 2916POPC   D2A40516  36.573   1.377   6.486
 2916POPC   C3A40517  36.572   1.494   6.935
 2916POPC   C4A40518  36.714   1.414   7.367
 2916POPC   C1B40519  37.424   1.139   6.271
 2916POPC   C2B40520  37.245   1.205   6.681
 2916POPC   C3B40521  37.058   1.170   7.073
 2916POPC   C4B40522  37.169   1.562   7.273
 2917POPC   NC340523  15.805  14.981   5.456
 2917POPC   PO440524  15.963  15.651   5.464
 2917POPC   GL140525  16.052  15.291   5.798
 2917POPC   GL240526  16.296  15.510   5.970
 2917POPC   C1A40527  15.855  14.983   6.187
 2917POPC   D2A40528  15.662  14.822   6.639
 2917POPC   C3A40529  15.810  15.014   7.033
 2917POPC   C4A40530  16.071  15.278   7.324
 2917POPC   C1B40531  15.907  15.498   6.240
 2917POPC   C2B40532  15.723  15.349   6.639
 2917POPC   C3B40533  15.685  15.521   7.078
 2917POPC   C4B40534  15.407  15.610   7.405
 2918POPC   NC340535  18.483  29.818   5.552
 2918POPC   PO440536  17.991  30.280   5.579
 2918POPC   GL140537  17.994  29.966   5.836
 2918POPC   GL240538  17.942  29.616   5.667
 2918POPC   C1A40539  18.304  29.968   6.161
 2918POPC   D2A40540  18.422  29.826   6.545
 2918POPC   C3A40541  18.150  30.043   6.784
 2918POPC   C4A40542  18.279  30.030   7.178
 2918POPC   C1B40543  17.986  29.549   6.112
 2918POPC   C2B40544  17.952  29.588   6.559
 2918POPC   C3B40545  18.176  29.557   6.964
 2918POPC   C4B40546  18.009  29.628   7.377
 2919POPC   NC340547  16.852  34.199   5.645
 2919POPC   PO440548  17.438  34.356   5.282
 2919POPC   GL140549  17.589  34.411   5.722
 2919POPC   GL240550  17.451  34.756   5.816
 2919POPC   C1A40551  17.499  34.327   6.176
 2919POPC   D2A40552  17.355  34.475   6.601
 2919POPC   C3A40553  17.678  34.500   6.917
 2919POPC   C4A40554  17.786  34.311   7.326
 2919POPC   C1B40555  17.562  34.839   6.255
 2919POPC   C2B40556  17.527  35.041   6.650
 2919POPC   C3B40557  17.307  34.860   6.999
 2919POPC   C4B40558  17.472  34.699   7.379
 2920POPC   NC340559   4.669  44.681   5.528
 2920POPC   PO440560   4.052  44.770   5.558
 2920POPC   GL140561   4.143  44.581   5.928
 2920POPC   GL240562   4.366  44.302   5.794
 2920POPC   C1A40563   3.923  44.592   6.345
 2920POPC   D2A40564   3.879  44.561   6.795
 2920POPC   C3A40565   4.127  44.836   7.032
 2920POPC   C4A40566   4.412  44.887   7.370
 2920POPC   C1B40567   4.476  44.324   6.234
 2920POPC   C2B40568   4.375  44.548   6.609
 2920POPC   C3B40569   4.382  44.393   7.021
 2920POPC   C4B40570   4.072  44.413   7.328
 2921POPC   NC340571  28.003  44.184   5.524
 2921POPC   PO440572  27.724  43.486   5.403
 2921POPC   GL140573  27.522  43.714   5.769
 2921POPC   GL240574  27.308  44.027   5.666
 2921POPC   C1A40575  27.619  43.744   6.229
 2921POPC   D2A40576  27.435  43.785   6.658
 2921POPC   C3A40577  27.664  43.806   7.045
 2921POPC   C4A40578  27.670  44.098   7.372
 2921POPC   C1B40579  27.231  44.056   6.092
 2921POPC   C2B40580  27.381  44.276   6.445
 2921POPC   C3B40581  27.402  44.253   6.899
 2921POPC   C4B40582  27.186  44.008   7.203
 2922POPC   NC340583  12.031  33.287   5.456
 2922POPC   PO440584  11.716  32.717   5.679
 2922POPC   GL140585  11.994  32.990   5.886
 2922POPC   GL240586  11.881  33.352   5.943
 2922POPC   C1A40587  12.326  32.774   6.116
 2922POPC   D2A40588  12.233  32.585   6.510
 2922POPC   C3A40589  12.139  32.922   6.820
 2922POPC   C4A40590  11.898  33.177   7.098
 2922POPC   C1B40591  12.272  33.306   6.183
 2922POPC   C2B40592  12.452  33.318   6.589
 2922POPC   C3B40593  12.333  33.434   6.992
 2922POPC   C4B40594  11.998  33.664   7.206
 2923POPC   NC340595  13.836  18.664   5.379
 2923POPC   PO440596  13.526  18.030   5.252
 2923POPC   GL140597  13.714  18.151   5.735
 2923POPC   GL240598  13.600  18.505   5.819
 2923POPC   C1A40599  13.582  18.146   6.200
 2923POPC   D2A40600  13.650  18.348   6.620
 2923POPC   C3A40601  13.752  18.082   7.004
 2923POPC   C4A40602  13.861  18.185   7.431
 2923POPC   C1B40603  13.358  18.598   6.216
 2923POPC   C2B40604  13.135  18.369   6.548
 2923POPC   C3B40605  13.256  18.235   6.953
 2923POPC   C4B40606  13.401  18.440   7.328
 2924POPC   NC340607  13.313   8.805   5.583
 2924POPC   PO440608  13.732   9.268   5.477
 2924POPC   GL140609  13.659   9.071   5.895
 2924POPC   GL240610  13.722   8.687   5.863
 2924POPC   C1A40611  13.760   9.271   6.321
 2924POPC   D2A40612  13.744   9.312   6.786
 2924POPC   C3A40613  13.349   9.114   6.954
 2924POPC   C4A40614  13.306   8.790   7.285
 2924POPC   C1B40615  13.867   8.774   6.266
 2924POPC   C2B40616  13.649   8.793   6.649
 2924POPC   C3B40617  13.771   8.848   7.067
 2924POPC   C4B40618  14.038   8.724   7.423
 2925POPC   NC340619  37.727  19.626   5.106
 2925POPC   PO440620  37.638  19.041   5.265
 2925POPC   GL140621  37.575  19.105   5.704
 2925POPC   GL240622  37.396  19.401   5.685
 2925POPC   C1A40623  37.729  19.075   6.153
 2925POPC   D2A40624  37.930  19.175   6.543
 2925POPC   C3A40625  37.758  18.985   6.898
 2925POPC   C4A40626  37.854  19.119   7.309
 2925POPC   C1B40627  37.272  19.326   6.124
 2925POPC   C2B40628  37.402  19.196   6.564
 2925POPC   C3B40629  37.354  19.258   7.004
 2925POPC   C4B40630  37.348  19.247   7.436
 2926POPC   NC340631  23.943  43.413   5.426
 2926POPC   PO440632  24.507  43.171   5.496
 2926POPC   GL140633  24.339  43.027   5.860
 2926POPC   GL240634  24.640  42.875   5.978
 2926POPC   C1A40635  24.272  43.275   6.233
 2926POPC   D2A40636  24.158  43.394   6.634
 2926POPC   C3A40637  24.371  43.253   6.984
 2926POPC   C4A40638  24.107  42.999   7.204
 2926POPC   C1B40639  24.506  42.872   6.416
 2926POPC   C2B40640  24.759  42.987   6.773
 2926POPC   C3B40641  24.911  43.032   7.205
 2926POPC   C4B40642  24.944  43.053   7.688
 2927POPC   NC340643  35.209  20.031   5.574
 2927POPC   PO440644  35.543  19.530   5.493
 2927POPC   GL140645  35.294  19.588   5.852
 2927POPC   GL240646  35.512  19.862   5.977
 2927POPC   C1A40647  35.189  19.655   6.291
 2927POPC   D2A40648  35.416  19.815   6.637
 2927POPC   C3A40649  35.224  19.893   7.031
 2927POPC   C4A40650  35.043  19.544   7.277
 2927POPC   C1B40651  35.697  19.525   6.265
 2927POPC   C2B40652  35.674  19.327   6.669
 2927POPC   C3B40653  35.532  19.484   7.046
 2927POPC   C4B40654  35.683  19.863   7.238
 2928POPC   NC340655  35.606   9.864   5.503
 2928POPC   PO440656  36.143  10.112   5.287
 2928POPC   GL140657  36.065   9.807   5.724
 2928POPC   GL240658  35.865   9.459   5.712
 2928POPC   C1A40659  36.306   9.697   6.125
 2928POPC   D2A40660  36.396   9.591   6.575
 2928POPC   C3A40661  36.246   9.935   6.857
 2928POPC   C4A40662  35.986  10.034   7.241
 2928POPC   C1B40663  35.908   9.393   6.160
 2928POPC   C2B40664  35.879   9.671   6.510
 2928POPC   C3B40665  35.838   9.629   6.941
 2928POPC   C4B40666  35.889   9.289   7.186
 2929POPC   NC340667   2.984  20.751   5.506
 2929POPC   PO440668   2.403  20.410   5.687
 2929POPC   GL140669   2.772  20.464   5.938
 2929POPC   GL240670   2.698  20.816   5.934
 2929POPC   C1A40671   2.739  20.477   6.401
 2929POPC   D2A40672   2.477  20.762   6.670
 2929POPC   C3A40673   2.468  20.665   7.101
 2929POPC   C4A40674   2.599  20.637   7.522
 2929POPC   C1B40675   3.052  20.834   6.217
 2929POPC   C2B40676   2.995  20.951   6.640
 2929POPC   C3B40677   2.956  20.689   6.993
 2929POPC   C4B40678   3.126  20.605   7.422
 2930POPC   NC340679  17.719  33.974   5.281
 2930POPC   PO440680  17.056  33.864   5.372
 2930POPC   GL140681  17.347  33.933   5.698
 2930POPC   GL240682  17.616  33.692   5.688
 2930POPC   C1A40683  17.337  33.829   6.146
 2930POPC   D2A40684  17.048  33.881   6.490
 2930POPC   C3A40685  17.171  34.012   6.915
 2930POPC   C4A40686  17.504  33.856   7.182
 2930POPC   C1B40687  17.818  33.954   5.994
 2930POPC   C2B40688  17.861  33.873   6.425
 2930POPC   C3B40689  17.884  33.993   6.871
 2930POPC   C4B40690  18.038  33.889   7.309
 2931POPC   NC340691   1.813  19.451   5.352
 2931POPC   PO440692   1.700  18.802   5.283
 2931POPC   GL140693   1.687  19.036   5.699
 2931POPC   GL240694   2.045  19.106   5.712
 2931POPC   C1A40695   1.739  19.152   6.184
 2931POPC   D2A40696   1.889  18.969   6.569
 2931POPC   C3A40697   1.714  19.011   6.989
 2931POPC   C4A40698   1.867  19.000   7.450
 2931POPC   C1B40699   2.245  19.160   6.095
 2931POPC   C2B40700   2.133  19.405   6.429
 2931POPC   C3B40701   2.080  19.366   6.847
 2931POPC   C4B40702   2.225  19.299   7.239
 2932POPC   NC340703  31.615  41.324   5.598
 2932POPC   PO440704  31.071  41.276   5.572
 2932POPC   GL140705  31.290  41.488   5.960
 2932POPC   GL240706  31.435  41.778   5.834
 2932POPC   C1A40707  31.203  41.827   6.304
 2932POPC   D2A40708  31.150  42.043   6.716
 2932POPC   C3A40709  31.301  41.821   7.104
 2932POPC   C4A40710  31.498  41.394   7.193
 2932POPC   C1B40711  31.695  41.748   6.223
 2932POPC   C2B40712  31.606  41.712   6.687
 2932POPC   C3B40713  31.824  41.767   7.099
 2932POPC   C4B40714  31.775  42.007   7.472
 2933POPC   NC340715  40.451  13.198   5.443
 2933POPC   PO440716  40.603  13.878   5.361
 2933POPC   GL140717  40.832  13.599   5.724
 2933POPC   GL240718  40.886  13.227   5.763
 2933POPC   C1A40719  40.693  13.600   6.190
 2933POPC   D2A40720  40.631  13.768   6.642
 2933POPC   C3A40721  40.661  13.503   6.993
 2933POPC   C4A40722  40.823  13.643   7.400
 2933POPC   C1B40723  41.114  13.318   6.173
 2933POPC   C2B40724  40.972  13.383   6.610
 2933POPC   C3B40725  41.166  13.472   7.052
 2933POPC   C4B40726  41.070  13.214   7.455
 2934POPC   NC340727  41.643  39.480   5.134
 2934POPC   PO440728  41.158  39.058   5.221
 2934POPC   GL140729  41.252  39.143   5.709
 2934POPC   GL240730  41.453  39.443   5.749
 2934POPC   C1A40731  41.244  39.139   6.204
 2934POPC   D2A40732  41.139  39.071   6.694
 2934POPC   C3A40733  41.350  39.173   7.087
 2934POPC   C4A40734  41.359  39.306   7.513
 2934POPC   C1B40735  41.623  39.463   6.191
 2934POPC   C2B40736  41.505  39.465   6.662
 2934POPC   C3B40737  41.769  39.440   7.080
 2934POPC   C4B40738  41.856  39.211   7.482
 2935POPC   NC340739   0.007   3.909   5.417
 2935POPC   PO440740  44.720   4.594   5.441
 2935POPC   GL140741  44.667   4.290   5.755
 2935POPC   GL240742  44.940   4.330   5.885
 2935POPC   C1A40743  44.530   4.295   6.188
 2935POPC   D2A40744  44.470   4.537   6.568
 2935POPC   C3A40745  44.372   4.334   6.957
 2935POPC   C4A40746  44.658   4.343   7.299
 2935POPC   C1B40747   0.037   4.203   6.314
 2935POPC   C2B40748   0.236   4.200   6.710
 2935POPC   C3B40749   0.108   4.417   7.104
 2935POPC   C4B40750   0.134   4.514   7.562
 2936POPC   NC340751  27.215  29.025   5.515
 2936POPC   PO440752  26.604  28.891   5.291
 2936POPC   GL140753  26.640  29.178   5.689
 2936POPC   GL240754  26.961  29.291   5.853
 2936POPC   C1A40755  26.566  29.262   6.160
 2936POPC   D2A40756  26.716  29.581   6.491
 2936POPC   C3A40757  26.921  29.374   6.861
 2936POPC   C4A40758  26.819  29.046   7.175
 2936POPC   C1B40759  27.099  28.999   6.186
 2936POPC   C2B40760  27.034  28.813   6.594
 2936POPC   C3B40761  27.249  28.814   6.978
 2936POPC   C4B40762  27.351  29.088   7.334
 2937POPC   NC340763  38.859  39.377   5.394
 2937POPC   PO440764  39.410  38.998   5.364
 2937POPC   GL140765  39.218  39.110   5.717
 2937POPC   GL240766  39.186  39.452   5.814
 2937POPC   C1A40767  39.186  39.055   6.165
 2937POPC   D2A40768  39.145  39.254   6.573
 2937POPC   C3A40769  39.060  38.964   6.885
 2937POPC   C4A40770  39.183  38.890   7.295
 2937POPC   C1B40771  38.889  39.479   6.166
 2937POPC   C2B40772  38.668  39.443   6.561
 2937POPC   C3B40773  38.686  39.604   6.955
 2937POPC   C4B40774  39.021  39.411   7.133
 2938POPC   NC340775  29.831   9.781   5.382
 2938POPC   PO440776  30.387   9.366   5.419
 2938POPC   GL140777  30.259   9.649   5.809
 2938POPC   GL240778  29.977   9.842   5.870
 2938POPC   C1A40779  30.197   9.633   6.284
 2938POPC   D2A40780  29.893   9.811   6.572
 2938POPC   C3A40781  29.731   9.681   6.948
 2938POPC   C4A40782  30.019   9.592   7.250
 2938POPC   C1B40783  30.065  10.121   6.205
 2938POPC   C2B40784  30.223  10.193   6.619
 2938POPC   C3B40785  30.117  10.101   7.059
 2938POPC   C4B40786  29.805  10.124   7.387
 2939POPC   NC340787  29.682  38.338   5.333
 2939POPC   PO440788  29.064  38.510   5.374
 2939POPC   GL140789  29.185  38.504   5.791
 2939POPC   GL240790  29.496  38.649   5.854
 2939POPC   C1A40791  29.245  38.266   6.183
 2939POPC   D2A40792  29.402  38.243   6.625
 2939POPC   C3A40793  29.158  38.384   6.963
 2939POPC   C4A40794  29.098  38.711   7.214
 2939POPC   C1B40795  29.326  38.769   6.261
 2939POPC   C2B40796  29.297  38.808   6.704
 2939POPC   C3B40797  29.576  38.676   7.022
 2939POPC   C4B40798  29.493  38.395   7.387
 2940POPC   NC340799   3.463   1.916   5.408
 2940POPC   PO440800   4.064   1.723   5.629
 2940POPC   GL140801   3.699   1.829   5.846
 2940POPC   GL240802   3.743   2.181   5.737
 2940POPC   C1A40803   3.485   1.756   6.238
 2940POPC   D2A40804   3.695   1.972   6.583
 2940POPC   C3A40805   3.564   2.004   6.998
 2940POPC   C4A40806   3.790   1.970   7.382
 2940POPC   C1B40807   3.562   2.257   6.150
 2940POPC   C2B40808   3.450   2.455   6.545
 2940POPC   C3B40809   3.709   2.528   6.892
 2940POPC   C4B40810   3.763   2.488   7.314
 2941POPC   NC340811  38.543  14.778   5.505
 2941POPC   PO440812  38.553  15.450   5.387
 2941POPC   GL140813  38.669  15.234   5.794
 2941POPC   GL240814  38.327  15.153   5.869
 2941POPC   C1A40815  38.613  15.177   6.283
 2941POPC   D2A40816  38.374  15.516   6.499
 2941POPC   C3A40817  38.358  15.599   6.949
 2941POPC   C4A40818  38.664  15.624   7.322
 2941POPC   C1B40819  38.161  14.871   6.216
 2941POPC   C2B40820  38.352  14.772   6.605
 2941POPC   C3B40821  38.515  15.108   6.867
 2941POPC   C4B40822  38.363  15.215   7.290
 2942POPC   NC340823  44.464  16.155   5.041
 2942POPC   PO440824  44.360  15.534   5.439
 2942POPC   GL140825  44.321  15.747   5.902
 2942POPC   GL240826  44.625  15.749   6.102
 2942POPC   C1A40827  44.212  15.798   6.371
 2942POPC   D2A40828  44.557  15.725   6.667
 2942POPC   C3A40829  44.531  15.820   7.118
 2942POPC   C4A40830  44.874  15.919   7.413
 2942POPC   C1B40831  44.504  16.188   6.297
 2942POPC   C2B40832  44.450  16.230   6.746
 2942POPC   C3B40833  44.679  16.321   7.119
 2942POPC   C4B40834  44.560  16.298   7.565
 2943POPC   NC340835  28.676  38.281   5.305
 2943POPC   PO440836  28.095  38.273   5.383
 2943POPC   GL140837  28.405  38.380   5.730
 2943POPC   GL240838  28.273  38.191   5.978
 2943POPC   C1A40839  28.751  38.493   6.063
 2943POPC   D2A40840  28.909  38.522   6.525
 2943POPC   C3A40841  28.682  38.612   6.956
 2943POPC   C4A40842  28.639  38.717   7.440
 2943POPC   C1B40843  28.321  38.486   6.342
 2943POPC   C2B40844  28.250  38.420   6.781
 2943POPC   C3B40845  28.265  38.472   7.240
 2943POPC   C4B40846  28.118  38.821   7.487
 2944POPC   NC340847  16.917   8.332   5.456
 2944POPC   PO440848  16.493   7.851   5.244
 2944POPC   GL140849  16.619   7.991   5.754
 2944POPC   GL240850  16.692   8.352   5.904
 2944POPC   C1A40851  16.680   8.051   6.279
 2944POPC   D2A40852  16.876   8.318   6.598
 2944POPC   C3A40853  17.011   8.078   6.943
 2944POPC   C4A40854  16.878   7.883   7.289
 2944POPC   C1B40855  16.436   8.548   6.249
 2944POPC   C2B40856  16.364   8.401   6.685
 2944POPC   C3B40857  16.648   8.414   7.062
 2944POPC   C4B40858  17.108   8.552   7.130
 2945POPC   NC340859  16.992  34.264   5.144
 2945POPC   PO440860  16.483  34.598   5.458
 2945POPC   GL140861  16.686  34.710   5.836
 2945POPC   GL240862  16.944  34.936   5.706
 2945POPC   C1A40863  16.711  34.622   6.276
 2945POPC   D2A40864  16.840  34.351   6.633
 2945POPC   C3A40865  16.604  34.345   7.019
 2945POPC   C4A40866  16.452  34.531   7.426
 2945POPC   C1B40867  17.082  35.033   6.119
 2945POPC   C2B40868  17.047  34.895   6.544
 2945POPC   C3B40869  16.818  34.795   6.911
 2945POPC   C4B40870  16.962  34.581   7.299
 2946POPC   NC340871   4.267  21.244   5.433
 2946POPC   PO440872   4.255  20.616   5.496
 2946POPC   GL140873   4.331  20.647   5.915
 2946POPC   GL240874   4.514  20.964   5.864
 2946POPC   C1A40875   4.298  20.360   6.298
 2946POPC   D2A40876   4.333  20.185   6.732
 2946POPC   C3A40877   4.201  20.461   7.077
 2946POPC   C4A40878   3.945  20.859   7.065
 2946POPC   C1B40879   4.664  20.747   6.280
 2946POPC   C2B40880   4.436  20.694   6.666
 2946POPC   C3B40881   4.496  20.864   7.050
 2946POPC   C4B40882   4.902  20.883   7.134
 2947POPC   NC340883   8.443  41.903   5.378
 2947POPC   PO440884   7.999  41.378   5.485
 2947POPC   GL140885   8.194  41.404   5.850
 2947POPC   GL240886   8.502  41.552   5.762
 2947POPC   C1A40887   8.282  41.547   6.262
 2947POPC   D2A40888   8.048  41.636   6.612
 2947POPC   C3A40889   8.147  41.467   7.000
 2947POPC   C4A40890   8.279  41.508   7.391
 2947POPC   C1B40891   8.613  41.871   6.089
 2947POPC   C2B40892   8.498  42.010   6.526
 2947POPC   C3B40893   8.480  41.877   6.974
 2947POPC   C4B40894   8.427  42.004   7.390
 2948POPC   NC340895  10.446  35.708   5.411
 2948POPC   PO440896  10.629  36.384   5.359
 2948POPC   GL140897  10.496  36.145   5.698
 2948POPC   GL240898  10.243  36.324   5.866
 2948POPC   C1A40899  10.615  36.039   6.108
 2948POPC   D2A40900  10.892  36.228   6.419
 2948POPC   C3A40901  10.844  36.105   6.856
 2948POPC   C4A40902  10.633  35.919   7.191
 2948POPC   C1B40903  10.510  36.531   6.238
 2948POPC   C2B40904  10.630  36.557   6.703
 2948POPC   C3B40905  10.509  36.420   7.128
 2948POPC   C4B40906  10.433  36.435   7.605
 2949POPC   NC340907  12.386   8.238   5.376
 2949POPC   PO440908  11.655   8.451   5.499
 2949POPC   GL140909  12.003   8.412   5.801
 2949POPC   GL240910  12.016   8.065   5.879
 2949POPC   C1A40911  12.215   8.379   6.249
 2949POPC   D2A40912  12.383   8.157   6.634
 2949POPC   C3A40913  12.266   8.222   7.049
 2949POPC   C4A40914  12.204   8.457   7.450
 2949POPC   C1B40915  11.802   8.001   6.273
 2949POPC   C2B40916  11.870   8.101   6.729
 2949POPC   C3B40917  11.856   7.946   7.174
 2949POPC   C4B40918  11.827   7.798   7.625
 2950POPC   NC340919  30.874   1.456   5.452
 2950POPC   PO440920  30.538   0.905   5.462
 2950POPC   GL140921  30.722   1.032   5.866
 2950POPC   GL240922  30.767   1.384   5.941
 2950POPC   C1A40923  30.568   1.041   6.316
 2950POPC   D2A40924  30.592   0.744   6.670
 2950POPC   C3A40925  30.446   0.972   7.024
 2950POPC   C4A40926  30.365   1.364   7.195
 2950POPC   C1B40927  30.971   1.345   6.343
 2950POPC   C2B40928  30.787   1.334   6.797
 2950POPC   C3B40929  30.863   1.165   7.245
 2950POPC   C4B40930  30.801   1.358   7.664
 2951POPC   NC340931  30.472  16.797   5.379
 2951POPC   PO440932  31.018  16.333   5.425
 2951POPC   GL140933  30.743  16.546   5.725
 2951POPC   GL240934  30.704  16.853   5.812
 2951POPC   C1A40935  30.613  16.472   6.171
 2951POPC   D2A40936  30.806  16.617   6.550
 2951POPC   C3A40937  30.658  16.509   6.979
 2951POPC   C4A40938  30.780  16.780   7.324
 2951POPC   C1B40939  30.741  16.986   6.192
 2951POPC   C2B40940  30.565  17.094   6.563
 2951POPC   C3B40941  30.711  17.128   6.973
 2951POPC   C4B40942  30.635  17.291   7.395
 2952POPC   NC340943  44.889  23.462   5.452
 2952POPC   PO440944  44.426  23.917   5.320
 2952POPC   GL140945  44.500  23.688   5.696
 2952POPC   GL240946  44.847  23.848   5.767
 2952POPC   C1A40947  44.521  23.712   6.138
 2952POPC   D2A40948  44.687  23.499   6.510
 2952POPC   C3A40949  44.478  23.623   6.921
 2952POPC   C4A40950  44.668  23.719   7.335
 2952POPC   C1B40951   0.018  23.788   6.190
 2952POPC   C2B40952   0.108  23.924   6.610
 2952POPC   C3B40953   0.014  23.647   6.937
 2952POPC   C4B40954   0.162  23.598   7.333
 2953POPC   NC340955   6.257  39.781   5.407
 2953POPC   PO440956   5.706  40.210   5.209
 2953POPC   GL140957   5.866  40.137   5.655
 2953POPC   GL240958   6.039  40.405   5.835
 2953POPC   C1A40959   5.771  40.047   6.117
 2953POPC   D2A40960   5.567  39.707   6.399
 2953POPC   C3A40961   5.561  39.772   6.852
 2953POPC   C4A40962   5.733  39.860   7.251
 2953POPC   C1B40963   6.245  40.411   6.237
 2953POPC   C2B40964   5.980  40.446   6.573
 2953POPC   C3B40965   5.772  40.255   6.905
 2953POPC   C4B40966   5.918  40.328   7.312
 2954POPC   NC340967   3.158  43.645   5.355
 2954POPC   PO440968   2.618  44.120   5.247
 2954POPC   GL140969   2.894  44.001   5.632
 2954POPC   GL240970   2.723  43.669   5.716
 2954POPC   C1A40971   3.003  43.856   6.075
 2954POPC   D2A40972   3.057  43.955   6.503
 2954POPC   C3A40973   2.912  43.964   6.902
 2954POPC   C4A40974   3.055  44.271   7.198
 2954POPC   C1B40975   2.641  43.467   6.144
 2954POPC   C2B40976   2.548  43.509   6.605
 2954POPC   C3B40977   2.603  43.558   7.054
 2954POPC   C4B40978   2.527  43.923   7.259
 2955POPC   NC340979   8.065  42.554   5.162
 2955POPC   PO440980   8.225  43.146   5.484
 2955POPC   GL140981   8.222  43.178   5.877
 2955POPC   GL240982   8.215  43.531   5.895
 2955POPC   C1A40983   8.360  42.938   6.221
 2955POPC   D2A40984   8.418  43.091   6.619
 2955POPC   C3A40985   8.235  42.881   6.946
 2955POPC   C4A40986   8.325  42.990   7.346
 2955POPC   C1B40987   8.154  43.422   6.324
 2955POPC   C2B40988   7.929  43.261   6.662
 2955POPC   C3B40989   7.986  43.324   7.085
 2955POPC   C4B40990   7.813  42.974   7.282
 2956POPC   NC340991  36.762  29.846   5.138
 2956POPC   PO440992  36.499  29.912   5.793
 2956POPC   GL140993  36.981  29.922   5.845
 2956POPC   GL240994  37.207  30.220   5.825
 2956POPC   C1A40995  37.202  29.871   6.195
 2956POPC   D2A40996  36.917  29.833   6.524
 2956POPC   C3A40997  37.110  29.857   6.889
 2956POPC   C4A40998  37.075  30.059   7.305
 2956POPC   C1B40999  36.961  30.343   6.153
 2956POPC   C2B41000  37.074  30.345   6.546
 2956POPC   C3B41001  36.862  30.317   6.913
 2956POPC   C4B41002  36.614  30.268   7.274
 2957POPC   NC341003   1.676   7.199   5.390
 2957POPC   PO441004   1.002   7.410   5.395
 2957POPC   GL141005   1.039   7.365   5.802
 2957POPC   GL241006   1.399   7.448   5.896
 2957POPC   C1A41007   0.952   7.462   6.199
 2957POPC   D2A41008   0.775   7.301   6.576
 2957POPC   C3A41009   0.981   7.393   6.955
 2957POPC   C4A41010   1.011   7.316   7.378
 2957POPC   C1B41011   1.461   7.432   6.351
 2957POPC   C2B41012   1.479   7.430   6.777
 2957POPC   C3B41013   1.459   7.469   7.210
 2957POPC   C4B41014   1.442   7.063   7.472
 2958POPC   NC341015  35.747  23.818   5.356
 2958POPC   PO441016  36.170  23.415   5.681
 2958POPC   GL141017  36.147  23.836   5.802
 2958POPC   GL241018  35.840  24.038   5.797
 2958POPC   C1A41019  36.291  23.892   6.205
 2958POPC   D2A41020  36.227  23.595   6.545
 2958POPC   C3A41021  35.966  23.632   6.919
 2958POPC   C4A41022  36.070  23.676   7.294
 2958POPC   C1B41023  35.785  23.846   6.198
 2958POPC   C2B41024  35.827  23.992   6.609
 2958POPC   C3B41025  35.594  23.997   7.034
 2958POPC   C4B41026  35.622  23.843   7.468
 2959POPC   NC341027  30.251   5.062   5.271
 2959POPC   PO441028  29.618   4.921   5.395
 2959POPC   GL141029  29.679   5.079   5.793
 2959POPC   GL241030  30.038   5.099   5.787
 2959POPC   C1A41031  29.528   5.281   6.174
 2959POPC   D2A41032  29.603   5.031   6.540
 2959POPC   C3A41033  29.746   5.114   6.945
 2959POPC   C4A41034  29.718   5.445   7.248
 2959POPC   C1B41035  30.009   5.154   6.244
 2959POPC   C2B41036  30.097   4.867   6.587
 2959POPC   C3B41037  30.344   4.846   6.916
 2959POPC   C4B41038  30.183   5.203   7.183
 2960POPC   NC341039   3.637  31.891   5.484
 2960POPC   PO441040   3.406  32.415   5.176
 2960POPC   GL141041   3.385  32.328   5.654
 2960POPC   GL241042   3.247  32.017   5.809
 2960POPC   C1A41043   3.384  32.457   6.099
 2960POPC   D2A41044   3.399  32.376   6.577
 2960POPC   C3A41045   3.737  32.463   6.924
 2960POPC   C4A41046   3.533  32.405   7.327
 2960POPC   C1B41047   3.338  31.815   6.206
 2960POPC   C2B41048   3.574  31.855   6.609
 2960POPC   C3B41049   3.710  31.983   7.059
 2960POPC   C4B41050   3.757  32.016   7.543
 2961POPC   NC341051  12.515  40.812   5.486
 2961POPC   PO441052  13.138  40.804   5.471
 2961POPC   GL141053  12.877  40.955   5.836
 2961POPC   GL241054  12.775  41.284   5.962
 2961POPC   C1A41055  12.785  40.823   6.272
 2961POPC   D2A41056  12.893  40.961   6.713
 2961POPC   C3A41057  12.962  40.728   7.093
 2961POPC   C4A41058  13.284  40.812   7.379
 2961POPC   C1B41059  12.481  41.228   6.327
 2961POPC   C2B41060  12.406  41.087   6.772
 2961POPC   C3B41061  12.675  41.153   7.144
 2961POPC   C4B41062  12.811  40.976   7.544
 2962POPC   NC341063   9.038   2.759   5.316
 2962POPC   PO441064   9.594   2.735   5.528
 2962POPC   GL141065   9.268   2.675   5.856
 2962POPC   GL241066   8.893   2.728   5.810
 2962POPC   C1A41067   9.201   2.680   6.313
 2962POPC   D2A41068   9.352   2.643   6.715
 2962POPC   C3A41069   9.073   2.812   6.962
 2962POPC   C4A41070   8.697   2.767   7.141
 2962POPC   C1B41071   8.707   2.854   6.203
 2962POPC   C2B41072   8.777   3.040   6.603
 2962POPC   C3B41073   8.641   3.230   6.970
 2962POPC   C4B41074   8.722   3.228   7.405
 2963POPC   NC341075  11.018  12.375   4.923
 2963POPC   PO441076  11.206  11.875   5.317
 2963POPC   GL141077  11.282  11.927   5.788
 2963POPC   GL241078  11.247  12.306   5.866
 2963POPC   C1A41079  11.443  11.745   6.167
 2963POPC   D2A41080  11.278  11.773   6.595
 2963POPC   C3A41081  11.399  11.860   7.035
 2963POPC   C4A41082  11.247  11.622   7.386
 2963POPC   C1B41083  11.276  12.223   6.307
 2963POPC   C2B41084  11.433  12.294   6.716
 2963POPC   C3B41085  11.455  12.371   7.128
 2963POPC   C4B41086  11.108  12.439   7.386
 2964POPC   NC341087  37.970  36.999   5.357
 2964POPC   PO441088  37.564  36.445   5.409
 2964POPC   GL141089  37.836  36.637   5.762
 2964POPC   GL241090  37.796  37.000   5.813
 2964POPC   C1A41091  37.816  36.737   6.245
 2964POPC   D2A41092  37.534  36.616   6.589
 2964POPC   C3A41093  37.502  36.821   7.000
 2964POPC   C4A41094  37.896  36.871   7.239
 2964POPC   C1B41095  37.690  37.219   6.141
 2964POPC   C2B41096  37.576  37.132   6.544
 2964POPC   C3B41097  37.541  37.352   6.902
 2964POPC   C4B41098  37.609  37.307   7.304
 2965POPC   NC341099  17.737  26.186   5.643
 2965POPC   PO441100  18.261  26.081   5.282
 2965POPC   GL141101  18.238  26.072   5.732
 2965POPC   GL241102  18.177  26.395   5.867
 2965POPC   C1A41103  18.176  26.006   6.193
 2965POPC   D2A41104  18.394  26.192   6.539
 2965POPC   C3A41105  18.279  26.162   6.953
 2965POPC   C4A41106  18.438  25.905   7.263
 2965POPC   C1B41107  18.124  26.554   6.294
 2965POPC   C2B41108  17.896  26.474   6.680
 2965POPC   C3B41109  17.750  26.088   6.848
 2965POPC   C4B41110  17.926  25.918   7.237
 2966POPC   NC341111  18.077  43.102   5.376
 2966POPC   PO441112  18.371  42.649   5.590
 2966POPC   GL141113  18.317  43.051   5.843
 2966POPC   GL241114  17.970  43.121   5.895
 2966POPC   C1A41115  18.295  43.317   6.252
 2966POPC   D2A41116  18.156  43.289   6.707
 2966POPC   C3A41117  18.390  43.265   7.116
 2966POPC   C4A41118  18.390  43.019   7.521
 2966POPC   C1B41119  17.952  42.940   6.344
 2966POPC   C2B41120  17.999  42.810   6.808
 2966POPC   C3B41121  17.948  43.004   7.239
 2966POPC   C4B41122  17.917  42.987   7.727
 2967POPC   NC341123  33.884  11.741   5.384
 2967POPC   PO441124  33.868  11.073   5.457
 2967POPC   GL141125  33.801  11.384   5.783
 2967POPC   GL241126  34.063  11.639   5.846
 2967POPC   C1A41127  33.558  11.470   6.151
 2967POPC   D2A41128  33.406  11.333   6.550
 2967POPC   C3A41129  33.667  11.433   6.924
 2967POPC   C4A41130  33.612  11.467   7.377
 2967POPC   C1B41131  34.071  11.531   6.284
 2967POPC   C2B41132  34.131  11.273   6.646
 2967POPC   C3B41133  34.273  11.342   7.035
 2967POPC   C4B41134  34.058  11.660   7.198
 2968POPC   NC341135  41.224   7.275   5.342
 2968POPC   PO441136  41.811   7.601   5.481
 2968POPC   GL141137  41.627   7.400   5.783
 2968POPC   GL241138  41.383   7.625   5.870
 2968POPC   C1A41139  41.688   7.310   6.216
 2968POPC   D2A41140  41.490   7.153   6.595
 2968POPC   C3A41141  41.591   7.328   6.989
 2968POPC   C4A41142  41.560   7.163   7.430
 2968POPC   C1B41143  41.758   7.806   6.108
 2968POPC   C2B41144  41.975   7.664   6.476
 2968POPC   C3B41145  41.987   7.674   6.907
 2968POPC   C4B41146  41.737   7.703   7.287
 2969POPC   NC341147  22.275  25.191   5.302
 2969POPC   PO441148  21.724  25.302   5.169
 2969POPC   GL141149  21.833  25.307   5.630
 2969POPC   GL241150  22.092  25.546   5.741
 2969POPC   C1A41151  21.891  25.228   6.107
 2969POPC   D2A41152  21.884  25.421   6.555
 2969POPC   C3A41153  22.057  25.353   7.012
 2969POPC   C4A41154  22.189  25.653   7.356
 2969POPC   C1B41155  22.277  25.573   6.202
 2969POPC   C2B41156  22.367  25.568   6.669
 2969POPC   C3B41157  22.584  25.433   7.067
 2969POPC   C4B41158  22.603  25.397   7.545
 2970POPC   NC341159   8.456  37.257   5.398
 2970POPC   PO441160   8.005  36.759   5.604
 2970POPC   GL141161   8.060  37.132   5.783
 2970POPC   GL241162   8.401  37.080   5.877
 2970POPC   C1A41163   8.085  37.211   6.244
 2970POPC   D2A41164   8.128  36.940   6.625
 2970POPC   C3A41165   8.222  37.147   7.016
 2970POPC   C4A41166   8.636  37.318   7.148
 2970POPC   C1B41167   8.335  36.710   6.200
 2970POPC   C2B41168   8.438  36.522   6.636
 2970POPC   C3B41169   8.422  36.663   7.102
 2970POPC   C4B41170   8.042  36.674   7.360
 2971POPC   NC341171  16.725  30.701   5.376
 2971POPC   PO441172  17.140  31.172   5.671
 2971POPC   GL141173  16.837  30.888   5.849
 2971POPC   GL241174  16.899  30.500   5.819
 2971POPC   C1A41175  16.620  30.700   6.208
 2971POPC   D2A41176  16.621  30.477   6.605
 2971POPC   C3A41177  16.833  30.712   6.920
 2971POPC   C4A41178  16.723  30.727   7.316
 2971POPC   C1B41179  16.983  30.316   6.251
 2971POPC   C2B41180  17.124  30.353   6.694
 2971POPC   C3B41181  16.946  30.274   7.145
 2971POPC   C4B41182  16.885  30.376   7.625
 2972POPC   NC341183  34.031   2.571   5.344
 2972POPC   PO441184  33.876   3.101   5.585
 2972POPC   GL141185  33.622   2.767   5.739
 2972POPC   GL241186  33.863   2.527   5.823
 2972POPC   C1A41187  33.545   2.643   6.182
 2972POPC   D2A41188  33.747   2.552   6.561
 2972POPC   C3A41189  33.578   2.713   6.944
 2972POPC   C4A41190  33.635   2.602   7.366
 2972POPC   C1B41191  34.036   2.780   6.183
 2972POPC   C2B41192  34.242   2.692   6.582
 2972POPC   C3B41193  34.085   2.559   6.994
 2972POPC   C4B41194  34.030   2.902   7.310
 2973POPC   NC341195  38.118  19.032   5.446
 2973POPC   PO441196  38.641  18.635   5.214
 2973POPC   GL141197  38.532  18.751   5.682
 2973POPC   GL241198  38.452  19.089   5.818
 2973POPC   C1A41199  38.460  18.734   6.179
 2973POPC   D2A41200  38.436  19.028   6.539
 2973POPC   C3A41201  38.263  18.953   6.947
 2973POPC   C4A41202  38.433  18.759   7.300
 2973POPC   C1B41203  38.244  19.341   6.156
 2973POPC   C2B41204  38.307  19.531   6.583
 2973POPC   C3B41205  38.213  19.483   7.043
 2973POPC   C4B41206  38.360  19.245   7.393
 2974POPC   NC341207   7.086  14.493   5.410
 2974POPC   PO441208   7.703  14.196   5.304
 2974POPC   GL141209   7.426  14.141   5.708
 2974POPC   GL241210   7.191  14.364   5.893
 2974POPC   C1A41211   7.529  14.140   6.184
 2974POPC   D2A41212   7.262  14.231   6.558
 2974POPC   C3A41213   7.386  14.302   6.990
 2974POPC   C4A41214   7.371  13.993   7.321
 2974POPC   C1B41215   7.227  14.643   6.258
 2974POPC   C2B41216   7.217  14.744   6.719
 2974POPC   C3B41217   7.002  14.664   7.092
 2974POPC   C4B41218   7.126  14.459   7.488
 2975POPC   NC341219  37.354  44.003   5.620
 2975POPC   PO441220  36.873  44.041   5.062
 2975POPC   GL141221  36.768  44.036   5.552
 2975POPC   GL241222  36.695  43.687   5.647
 2975POPC   C1A41223  36.841  44.142   6.021
 2975POPC   D2A41224  37.135  44.059   6.378
 2975POPC   C3A41225  36.963  44.075   6.811
 2975POPC   C4A41226  37.003  44.016   7.244
 2975POPC   C1B41227  36.892  43.638   6.066
 2975POPC   C2B41228  36.789  43.694   6.517
 2975POPC   C3B41229  36.830  43.595   6.976
 2975POPC   C4B41230  36.847  43.563   7.429
 2976POPC   NC341231   7.601   4.044   5.497
 2976POPC   PO441232   7.045   4.363   5.603
 2976POPC   GL141233   7.357   4.294   5.891
 2976POPC   GL241234   7.678   4.430   5.826
 2976POPC   C1A41235   7.378   4.362   6.308
 2976POPC   D2A41236   7.387   4.617   6.675
 2976POPC   C3A41237   7.354   4.440   7.072
 2976POPC   C4A41238   7.335   4.320   7.519
 2976POPC   C1B41239   7.852   4.176   6.181
 2976POPC   C2B41240   7.717   4.155   6.641
 2976POPC   C3B41241   7.747   4.139   7.090
 2976POPC   C4B41242   8.005   4.011   7.394
 2977POPC   NC341243   7.147  41.137   5.320
 2977POPC   PO441244   7.275  40.576   5.651
 2977POPC   GL141245   7.323  41.034   5.800
 2977POPC   GL241246   7.681  41.151   5.825
 2977POPC   C1A41247   7.314  41.137   6.244
 2977POPC   D2A41248   7.343  40.742   6.503
 2977POPC   C3A41249   7.295  40.802   6.917
 2977POPC   C4A41250   7.539  41.069   7.181
 2977POPC   C1B41251   7.688  40.811   6.123
 2977POPC   C2B41252   7.856  40.767   6.542
 2977POPC   C3B41253   7.818  40.678   6.953
 2977POPC   C4B41254   7.786  40.513   7.333
 2978POPC   NC341255  15.791   2.279   5.398
 2978POPC   PO441256  16.183   1.703   5.284
 2978POPC   GL141257  15.976   1.817   5.745
 2978POPC   GL241258  15.845   2.134   5.876
 2978POPC   C1A41259  15.914   1.812   6.260
 2978POPC   D2A41260  16.073   2.085   6.615
 2978POPC   C3A41261  16.013   2.002   7.084
 2978POPC   C4A41262  16.166   1.933   7.530
 2978POPC   C1B41263  15.601   2.395   6.156
 2978POPC   C2B41264  15.742   2.476   6.589
 2978POPC   C3B41265  15.589   2.307   6.980
 2978POPC   C4B41266  15.348   2.309   7.343
 2979POPC   NC341267  32.070   8.586   5.392
 2979POPC   PO441268  32.615   8.216   5.539
 2979POPC   GL141269  32.378   8.124   5.860
 2979POPC   GL241270  32.037   8.218   5.757
 2979POPC   C1A41271  32.307   7.851   6.224
 2979POPC   D2A41272  32.219   7.749   6.671
 2979POPC   C3A41273  32.152   8.062   7.028
 2979POPC   C4A41274  32.257   8.047   7.469
 2979POPC   C1B41275  32.059   8.290   6.207
 2979POPC   C2B41276  32.329   8.255   6.572
 2979POPC   C3B41277  32.461   8.557   6.867
 2979POPC   C4B41278  32.378   8.481   7.280
 2980POPC   NC341279  35.488   7.010   5.052
 2980POPC   PO441280  35.208   6.619   5.488
 2980POPC   GL141281  35.270   6.711   5.857
 2980POPC   GL241282  34.950   6.728   5.964
 2980POPC   C1A41283  35.457   6.942   6.182
 2980POPC   D2A41284  35.568   6.727   6.568
 2980POPC   C3A41285  35.449   6.910   6.952
 2980POPC   C4A41286  35.428   6.631   7.269
 2980POPC   C1B41287  35.080   6.650   6.363
 2980POPC   C2B41288  35.072   6.616   6.779
 2980POPC   C3B41289  34.956   6.682   7.160
 2980POPC   C4B41290  34.991   6.533   7.584
 2981POPC   NC341291  38.733  37.815   5.566
 2981POPC   PO441292  38.262  37.350   5.299
 2981POPC   GL141293  38.149  37.400   5.763
 2981POPC   GL241294  38.276  37.783   5.844
 2981POPC   C1A41295  38.181  37.371   6.247
 2981POPC   D2A41296  38.336  37.724   6.532
 2981POPC   C3A41297  38.551  37.700   6.936
 2981POPC   C4A41298  38.393  37.688   7.350
 2981POPC   C1B41299  38.587  38.013   6.176
 2981POPC   C2B41300  38.896  37.986   6.525
 2981POPC   C3B41301  38.943  38.021   7.002
 2981POPC   C4B41302  38.961  37.859   7.413
 2982POPC   NC341303   5.895   9.288   5.382
 2982POPC   PO441304   5.609   8.674   5.376
 2982POPC   GL141305   5.851   8.888   5.717
 2982POPC   GL241306   5.730   9.228   5.871
 2982POPC   C1A41307   5.953   8.850   6.162
 2982POPC   D2A41308   6.035   8.956   6.585
 2982POPC   C3A41309   5.833   8.818   6.913
 2982POPC   C4A41310   5.882   9.029   7.282
 2982POPC   C1B41311   6.101   9.354   6.123
 2982POPC   C2B41312   6.256   9.402   6.563
 2982POPC   C3B41313   6.069   9.386   6.953
 2982POPC   C4B41314   6.121   9.602   7.335
 2983POPC   NC341315  28.788  31.090   5.448
 2983POPC   PO441316  28.272  30.713   5.313
 2983POPC   GL141317  28.246  30.627   5.744
 2983POPC   GL241318  28.330  30.967   5.925
 2983POPC   C1A41319  28.462  30.505   6.104
 2983POPC   D2A41320  28.550  30.761   6.465
 2983POPC   C3A41321  28.415  30.510   6.828
 2983POPC   C4A41322  28.366  30.409   7.275
 2983POPC   C1B41323  28.654  31.232   6.180
 2983POPC   C2B41324  28.742  31.260   6.633
 2983POPC   C3B41325  28.506  31.022   6.929
 2983POPC   C4B41326  28.459  30.939   7.370
 2984POPC   NC341327   2.635  19.345   5.488
 2984POPC   PO441328   3.006  18.920   5.563
 2984POPC   GL141329   2.704  18.993   5.881
 2984POPC   GL241330   2.436  18.745   5.822
 2984POPC   C1A41331   2.749  19.163   6.295
 2984POPC   D2A41332   3.062  19.225   6.621
 2984POPC   C3A41333   2.949  19.312   7.065
 2984POPC   C4A41334   2.684  19.309   7.470
 2984POPC   C1B41335   2.454  18.732   6.272
 2984POPC   C2B41336   2.425  18.966   6.660
 2984POPC   C3B41337   2.571  18.957   7.099
 2984POPC   C4B41338   2.381  18.899   7.521
 2985POPC   NC341339   0.649  33.928   5.166
 2985POPC   PO441340   0.096  33.775   5.476
 2985POPC   GL141341   0.294  33.712   5.876
 2985POPC   GL241342   0.597  33.505   5.852
 2985POPC   C1A41343   0.219  33.888   6.282
 2985POPC   D2A41344   0.496  34.060   6.593
 2985POPC   C3A41345   0.353  33.999   7.029
 2985POPC   C4A41346   0.057  34.005   7.395
 2985POPC   C1B41347   0.621  33.556   6.329
 2985POPC   C2B41348   0.317  33.587   6.690
 2985POPC   C3B41349   0.158  33.533   7.121
 2985POPC   C4B41350   0.160  33.531   7.577
 2986POPC   NC341351  38.813  15.834   5.465
 2986POPC   PO441352  38.139  15.999   5.373
 2986POPC   GL141353  38.403  16.026   5.761
 2986POPC   GL241354  38.405  15.684   5.849
 2986POPC   C1A41355  38.547  16.135   6.196
 2986POPC   D2A41356  38.329  16.029   6.588
 2986POPC   C3A41357  38.143  16.172   6.968
 2986POPC   C4A41358  38.248  15.935   7.318
 2986POPC   C1B41359  38.751  15.655   6.140
 2986POPC   C2B41360  38.823  15.817   6.550
 2986POPC   C3B41361  38.712  15.978   6.947
 2986POPC   C4B41362  38.707  16.162   7.340
 2987POPC   NC341363   4.929   3.660   5.464
 2987POPC   PO441364   5.493   3.341   5.594
 2987POPC   GL141365   5.191   3.522   5.882
 2987POPC   GL241366   4.868   3.334   5.858
 2987POPC   C1A41367   5.089   3.796   6.242
 2987POPC   D2A41368   4.862   3.826   6.648
 2987POPC   C3A41369   5.120   3.933   6.997
 2987POPC   C4A41370   5.426   3.724   7.215
 2987POPC   C1B41371   4.980   3.297   6.305
 2987POPC   C2B41372   5.256   3.451   6.624
 2987POPC   C3B41373   5.045   3.419   7.001
 2987POPC   C4B41374   4.660   3.415   7.205
 2988POPC   NC341375  38.949  26.958   5.471
 2988POPC   PO441376  38.349  27.179   5.273
 2988POPC   GL141377  38.435  27.012   5.762
 2988POPC   GL241378  38.716  26.787   5.879
 2988POPC   C1A41379  38.270  26.766   6.132
 2988POPC   D2A41380  38.465  26.506   6.476
 2988POPC   C3A41381  38.361  26.566   6.919
 2988POPC   C4A41382  38.433  26.878   7.292
 2988POPC   C1B41383  38.714  26.960   6.297
 2988POPC   C2B41384  38.650  26.941   6.740
 2988POPC   C3B41385  38.863  26.720   7.083
 2988POPC   C4B41386  38.862  26.667   7.555
 2989POPC   NC341387   7.534   5.173   5.418
 2989POPC   PO441388   6.961   4.969   5.329
 2989POPC   GL141389   7.235   4.896   5.762
 2989POPC   GL241390   7.355   5.253   5.889
 2989POPC   C1A41391   7.454   4.882   6.218
 2989POPC   D2A41392   7.655   5.062   6.650
 2989POPC   C3A41393   7.517   4.936   7.076
 2989POPC   C4A41394   7.248   4.818   7.427
 2989POPC   C1B41395   7.431   5.388   6.330
 2989POPC   C2B41396   7.460   5.584   6.785
 2989POPC   C3B41397   7.570   5.438   7.201
 2989POPC   C4B41398   7.929   5.145   7.319
 2990POPC   NC341399  37.983   6.787   5.582
 2990POPC   PO441400  38.461   6.465   5.212
 2990POPC   GL141401  38.460   6.537   5.659
 2990POPC   GL241402  38.504   6.214   5.770
 2990POPC   C1A41403  38.476   6.636   6.123
 2990POPC   D2A41404  38.426   6.786   6.571
 2990POPC   C3A41405  38.489   6.624   6.951
 2990POPC   C4A41406  38.444   6.691   7.346
 2990POPC   C1B41407  38.782   6.226   6.111
 2990POPC   C2B41408  38.856   6.457   6.488
 2990POPC   C3B41409  38.927   6.386   6.916
 2990POPC   C4B41410  38.745   6.251   7.331
 2991POPC   NC341411   9.708   7.711   5.165
 2991POPC   PO441412   9.986   7.159   5.470
 2991POPC   GL141413   9.734   7.499   5.772
 2991POPC   GL241414   9.933   7.751   5.956
 2991POPC   C1A41415   9.544   7.619   6.225
 2991POPC   D2A41416   9.450   7.417   6.628
 2991POPC   C3A41417   9.687   7.488   7.033
 2991POPC   C4A41418   9.812   7.102   7.206
 2991POPC   C1B41419  10.109   7.575   6.323
 2991POPC   C2B41420  10.070   7.231   6.605
 2991POPC   C3B41421  10.245   7.240   6.995
 2991POPC   C4B41422  10.156   7.563   7.287
 2992POPC   NC341423   6.272   7.561   5.387
 2992POPC   PO441424   6.855   7.249   5.262
 2992POPC   GL141425   6.591   7.257   5.666
 2992POPC   GL241426   6.528   7.598   5.817
 2992POPC   C1A41427   6.539   7.136   6.117
 2992POPC   D2A41428   6.655   7.054   6.564
 2992POPC   C3A41429   6.798   7.324   6.917
 2992POPC   C4A41430   6.504   7.359   7.270
 2992POPC   C1B41431   6.761   7.604   6.185
 2992POPC   C2B41432   6.859   7.834   6.567
 2992POPC   C3B41433   6.645   7.871   6.976
 2992POPC   C4B41434   6.739   7.785   7.406
 2993POPC   NC341435  31.753  33.869   5.520
 2993POPC   PO441436  31.601  33.249   5.712
 2993POPC   GL141437  31.345  33.533   5.949
 2993POPC   GL241438  31.369  33.889   5.899
 2993POPC   C1A41439  31.428  33.626   6.374
 2993POPC   D2A41440  31.742  33.632   6.714
 2993POPC   C3A41441  31.642  33.910   7.067
 2993POPC   C4A41442  31.552  34.009   7.530
 2993POPC   C1B41443  31.263  34.117   6.272
 2993POPC   C2B41444  31.277  33.992   6.718
 2993POPC   C3B41445  31.226  34.192   7.114
 2993POPC   C4B41446  31.053  33.990   7.471
 2994POPC   NC341447  28.108  25.877   5.600
 2994POPC   PO441448  28.631  25.579   5.780
 2994POPC   GL141449  28.415  25.949   6.010
 2994POPC   GL241450  28.360  26.313   5.942
 2994POPC   C1A41451  28.116  26.108   6.324
 2994POPC   D2A41452  28.041  26.295   6.728
 2994POPC   C3A41453  28.215  26.028   7.027
 2994POPC   C4A41454  28.338  25.956   7.435
 2994POPC   C1B41455  28.306  26.578   6.341
 2994POPC   C2B41456  28.429  26.625   6.801
 2994POPC   C3B41457  28.655  26.363   7.131
 2994POPC   C4B41458  28.800  26.476   7.544
 2995POPC   NC341459   1.641  20.429   5.237
 2995POPC   PO441460   1.032  20.578   5.219
 2995POPC   GL141461   1.080  20.613   5.685
 2995POPC   GL241462   1.410  20.560   5.685
 2995POPC   C1A41463   1.100  20.794   6.119
 2995POPC   D2A41464   0.891  20.651   6.491
 2995POPC   C3A41465   1.047  20.800   6.898
 2995POPC   C4A41466   0.986  20.604   7.277
 2995POPC   C1B41467   1.397  20.380   6.121
 2995POPC   C2B41468   1.401  20.537   6.537
 2995POPC   C3B41469   1.369  20.426   6.965
 2995POPC   C4B41470   1.562  20.683   7.278
 2996POPC   NC341471  35.760  44.385   5.267
 2996POPC   PO441472  35.461  43.775   5.288
 2996POPC   GL141473  35.338  43.739   5.689
 2996POPC   GL241474  35.068  43.970   5.733
 2996POPC   C1A41475  35.488  43.633   6.096
 2996POPC   D2A41476  35.595  43.760   6.520
 2996POPC   C3A41477  35.508  43.499   6.860
 2996POPC   C4A41478  35.579  43.547   7.280
 2996POPC   C1B41479  35.046  43.897   6.169
 2996POPC   C2B41480  35.101  43.649   6.533
 2996POPC   C3B41481  34.974  43.557   6.962
 2996POPC   C4B41482  35.105  43.597   7.396
 2997POPC   NC341483  39.924  10.882   5.427
 2997POPC   PO441484  40.292  10.339   5.477
 2997POPC   GL141485  40.138  10.499   5.871
 2997POPC   GL241486  39.795  10.612   5.882
 2997POPC   C1A41487  40.156  10.678   6.311
 2997POPC   D2A41488  40.344  10.973   6.642
 2997POPC   C3A41489  40.024  10.971   6.975
 2997POPC   C4A41490  39.976  10.567   7.204
 2997POPC   C1B41491  39.799  10.293   6.243
 2997POPC   C2B41492  39.931  10.343   6.685
 2997POPC   C3B41493  39.747  10.133   7.060
 2997POPC   C4B41494  39.534  10.395   7.396
 2998POPC   NC341495  26.246  29.207   5.352
 2998POPC   PO441496  25.875  28.691   5.492
 2998POPC   GL141497  26.175  28.921   5.802
 2998POPC   GL241498  26.170  29.319   5.839
 2998POPC   C1A41499  26.141  28.927   6.274
 2998POPC   D2A41500  26.090  28.831   6.732
 2998POPC   C3A41501  26.309  29.014   7.063
 2998POPC   C4A41502  26.338  29.401   7.048
 2998POPC   C1B41503  25.886  29.430   6.158
 2998POPC   C2B41504  25.836  29.621   6.551
 2998POPC   C3B41505  25.851  29.443   6.939
 2998POPC   C4B41506  25.771  29.037   7.095
 2999POPC   NC341507  34.915  13.014   5.647
 2999POPC   PO441508  34.523  12.620   5.237
 2999POPC   GL141509  34.411  12.756   5.664
 2999POPC   GL241510  34.399  13.114   5.633
 2999POPC   C1A41511  34.550  12.772   6.115
 2999POPC   D2A41512  34.534  12.640   6.545
 2999POPC   C3A41513  34.734  12.913   6.847
 2999POPC   C4A41514  34.888  12.806   7.268
 2999POPC   C1B41515  34.215  13.154   6.038
 2999POPC   C2B41516  34.186  13.002   6.436
 2999POPC   C3B41517  34.158  13.072   6.850
 2999POPC   C4B41518  34.381  13.028   7.215
 3000POPC   NC341519  13.599  32.386   5.514
 3000POPC   PO441520  14.055  31.859   5.519
 3000POPC   GL141521  13.833  32.055   5.848
 3000POPC   GL241522  13.484  32.014   5.854
 3000POPC   C1A41523  13.948  32.359   6.188
 3000POPC   D2A41524  13.952  32.388   6.663
 3000POPC   C3A41525  13.746  32.038   6.903
 3000POPC   C4A41526  13.667  32.141   7.344
 3000POPC   C1B41527  13.418  32.416   6.121
 3000POPC   C2B41528  13.473  32.619   6.529
 3000POPC   C3B41529  13.498  32.477   6.962
 3000POPC   C4B41530  13.256  32.455   7.340
 3001POPC   NC341531  31.994  11.956   5.476
 3001POPC   PO441532  32.621  11.613   5.553
 3001POPC   GL141533  32.435  11.896   5.899
 3001POPC   GL241534  32.114  12.107   5.940
 3001POPC   C1A41535  32.486  12.213   6.244
 3001POPC   D2A41536  32.187  12.097   6.559
 3001POPC   C3A41537  32.354  12.057   6.966
 3001POPC   C4A41538  32.651  11.871   7.286
 3001POPC   C1B41539  32.035  11.713   6.180
 3001POPC   C2B41540  32.014  11.628   6.633
 3001POPC   C3B41541  31.891  11.843   7.010
 3001POPC   C4B41542  31.763  12.265   7.136
 3002POPC   NC341543  13.897  44.711   5.180
 3002POPC   PO441544  13.539  44.248   5.453
 3002POPC   GL141545  13.605  44.681   5.700
 3002POPC   GL241546  13.964  44.805   5.693
 3002POPC   C1A41547  13.438  44.870   6.138
 3002POPC   D2A41548  13.363  44.679   6.552
 3002POPC   C3A41549  13.453  44.875   6.958
 3002POPC   C4A41550  13.404  44.679   7.375
 3002POPC   C1B41551  13.917  44.754   6.152
 3002POPC   C2B41552  13.820  44.905   6.566
 3002POPC   C3B41553  13.952  44.761   6.964
 3002POPC   C4B41554  13.872  44.826   7.353
 3003POPC   NC341555  18.684  24.028   5.453
 3003POPC   PO441556  18.051  23.736   5.263
 3003POPC   GL141557  18.200  23.665   5.801
 3003POPC   GL241558  18.536  23.714   5.864
 3003POPC   C1A41559  18.032  23.547   6.269
 3003POPC   D2A41560  18.142  23.474   6.741
 3003POPC   C3A41561  17.865  23.690   7.038
 3003POPC   C4A41562  17.939  24.076   7.207
 3003POPC   C1B41563  18.517  23.910   6.273
 3003POPC   C2B41564  18.540  23.918   6.731
 3003POPC   C3B41565  18.436  24.198   7.076
 3003POPC   C4B41566  18.324  24.167   7.521
 3004POPC   NC341567  32.900  16.914   5.121
 3004POPC   PO441568  32.552  16.414   5.439
 3004POPC   GL141569  32.769  16.616   5.794
 3004POPC   GL241570  32.945  16.942   5.737
 3004POPC   C1A41571  33.045  16.686   6.176
 3004POPC   D2A41572  33.211  16.865   6.580
 3004POPC   C3A41573  33.201  16.666   6.993
 3004POPC   C4A41574  33.000  16.688   7.409
 3004POPC   C1B41575  33.014  17.182   6.170
 3004POPC   C2B41576  32.768  17.117   6.597
 3004POPC   C3B41577  32.781  17.029   7.079
 3004POPC   C4B41578  32.825  17.133   7.554
 3005POPC   NC341579  29.006   9.759   5.311
 3005POPC   PO441580  29.559   9.370   5.375
 3005POPC   GL141581  29.475   9.644   5.724
 3005POPC   GL241582  29.528  10.024   5.722
 3005POPC   C1A41583  29.268   9.498   6.083
 3005POPC   D2A41584  29.084   9.351   6.473
 3005POPC   C3A41585  29.169   9.608   6.843
 3005POPC   C4A41586  29.308   9.615   7.257
 3005POPC   C1B41587  29.577   9.907   6.180
 3005POPC   C2B41588  29.433  10.006   6.626
 3005POPC   C3B41589  29.396  10.102   7.084
 3005POPC   C4B41590  29.326  10.039   7.559
 3006POPC   NC341591  36.316  24.635   5.262
 3006POPC   PO441592  36.264  23.973   5.312
 3006POPC   GL141593  36.263  24.327   5.676
 3006POPC   GL241594  35.975  24.537   5.756
 3006POPC   C1A41595  36.413  24.578   6.066
 3006POPC   D2A41596  36.130  24.787   6.435
 3006POPC   C3A41597  36.001  24.597   6.857
 3006POPC   C4A41598  36.274  24.597   7.241
 3006POPC   C1B41599  36.017  24.316   6.205
 3006POPC   C2B41600  36.275  24.226   6.614
 3006POPC   C3B41601  36.086  24.133   7.045
 3006POPC   C4B41602  35.812  24.376   7.342
 3007POPC   NC341603   9.901  40.273   5.477
 3007POPC   PO441604   9.336  39.827   5.390
 3007POPC   GL141605   9.662  39.883   5.714
 3007POPC   GL241606   9.668  40.226   5.915
 3007POPC   C1A41607   9.685  39.782   6.156
 3007POPC   D2A41608   9.848  39.899   6.598
 3007POPC   C3A41609   9.684  39.830   7.002
 3007POPC   C4A41610   9.335  40.051   7.204
 3007POPC   C1B41611   9.981  40.256   6.267
 3007POPC   C2B41612   9.995  40.458   6.700
 3007POPC   C3B41613   9.791  40.370   7.109
 3007POPC   C4B41614   9.896  40.046   7.408
 3008POPC   NC341615  17.190   2.110   5.576
 3008POPC   PO441616  17.786   1.828   5.215
 3008POPC   GL141617  17.633   1.961   5.668
 3008POPC   GL241618  17.389   1.710   5.807
 3008POPC   C1A41619  17.560   2.058   6.146
 3008POPC   D2A41620  17.596   1.874   6.575
 3008POPC   C3A41621  17.422   2.087   6.928
 3008POPC   C4A41622  17.170   2.158   7.317
 3008POPC   C1B41623  17.208   1.676   6.241
 3008POPC   C2B41624  17.032   1.795   6.644
 3008POPC   C3B41625  17.067   1.737   7.049
 3008POPC   C4B41626  17.446   1.676   7.213
 3009POPC   NC341627   5.962  17.414   5.580
 3009POPC   PO441628   5.598  17.837   5.449
 3009POPC   GL141629   5.809  17.797   5.871
 3009POPC   GL241630   5.544  17.548   5.919
 3009POPC   C1A41631   5.964  17.553   6.251
 3009POPC   D2A41632   6.022  17.282   6.583
 3009POPC   C3A41633   6.038  17.560   6.941
 3009POPC   C4A41634   5.877  17.916   7.185
 3009POPC   C1B41635   5.528  17.793   6.300
 3009POPC   C2B41636   5.620  17.775   6.723
 3009POPC   C3B41637   5.405  17.786   7.080
 3009POPC   C4B41638   5.426  17.420   7.307
 3010POPC   NC341639   0.156  33.328   5.538
 3010POPC   PO441640   0.681  33.018   5.185
 3010POPC   GL141641   0.625  32.998   5.674
 3010POPC   GL241642   0.628  32.666   5.889
 3010POPC   C1A41643   0.550  33.081   6.142
 3010POPC   D2A41644   0.750  32.952   6.545
 3010POPC   C3A41645   0.574  33.202   6.896
 3010POPC   C4A41646   0.280  33.043   7.222
 3010POPC   C1B41647   0.359  32.608   6.307
 3010POPC   C2B41648   0.339  32.737   6.767
 3010POPC   C3B41649   0.688  32.750   7.066
 3010POPC   C4B41650   0.699  32.763   7.501
 3011POPC   NC341651  40.341  20.067   5.566
 3011POPC   PO441652  39.661  19.910   5.485
 3011POPC   GL141653  39.933  19.813   5.833
 3011POPC   GL241654  40.159  19.548   5.703
 3011POPC   C1A41655  40.033  19.979   6.273
 3011POPC   D2A41656  39.751  20.123   6.636
 3011POPC   C3A41657  39.634  19.796   6.957
 3011POPC   C4A41658  39.961  19.708   7.264
 3011POPC   C1B41659  40.187  19.463   6.151
 3011POPC   C2B41660  40.141  19.432   6.612
 3011POPC   C3B41661  40.316  19.400   7.048
 3011POPC   C4B41662  40.168  19.285   7.466
 3012POPC   NC341663  42.777  25.262   5.417
 3012POPC   PO441664  42.072  25.204   5.386
 3012POPC   GL141665  42.323  25.052   5.759
 3012POPC   GL241666  42.630  25.175   5.900
 3012POPC   C1A41667  42.250  25.241   6.201
 3012POPC   D2A41668  42.474  25.473   6.494
 3012POPC   C3A41669  42.341  25.271   6.830
 3012POPC   C4A41670  42.055  25.391   7.150
 3012POPC   C1B41671  42.528  24.802   6.174
 3012POPC   C2B41672  42.377  24.676   6.588
 3012POPC   C3B41673  42.547  24.793   6.989
 3012POPC   C4B41674  42.472  25.105   7.279
 3013POPC   NC341675  37.129  15.698   5.598
 3013POPC   PO441676  36.850  15.165   5.244
 3013POPC   GL141677  36.753  15.024   5.672
 3013POPC   GL241678  36.911  15.299   5.881
 3013POPC   C1A41679  36.614  14.945   6.110
 3013POPC   D2A41680  36.792  15.232   6.431
 3013POPC   C3A41681  37.058  15.160   6.797
 3013POPC   C4A41682  36.891  14.826   7.041
 3013POPC   C1B41683  36.775  15.665   6.144
 3013POPC   C2B41684  36.575  15.682   6.549
 3013POPC   C3B41685  36.759  15.563   6.947
 3013POPC   C4B41686  36.647  15.318   7.326
 3014POPC   NC341687   6.621   5.205   5.110
 3014POPC   PO441688   6.164   4.813   5.487
 3014POPC   GL141689   6.477   5.116   5.705
 3014POPC   GL241690   6.834   5.226   5.776
 3014POPC   C1A41691   6.618   4.955   6.130
 3014POPC   D2A41692   6.822   5.085   6.481
 3014POPC   C3A41693   6.575   5.000   6.836
 3014POPC   C4A41694   6.786   4.951   7.206
 3014POPC   C1B41695   6.986   5.549   6.099
 3014POPC   C2B41696   6.998   5.567   6.558
 3014POPC   C3B41697   7.102   5.247   6.919
 3014POPC   C4B41698   7.107   5.303   7.390
 3015POPC   NC341699  40.191  36.998   5.431
 3015POPC   PO441700  39.527  36.931   5.300
 3015POPC   GL141701  39.780  36.949   5.742
 3015POPC   GL241702  40.046  36.823   5.893
 3015POPC   C1A41703  39.671  37.040   6.222
 3015POPC   D2A41704  39.791  36.974   6.705
 3015POPC   C3A41705  40.131  37.127   7.001
 3015POPC   C4A41706  40.411  37.217   7.387
 3015POPC   C1B41707  39.964  36.637   6.316
 3015POPC   C2B41708  40.218  36.685   6.683
 3015POPC   C3B41709  40.285  36.584   7.088
 3015POPC   C4B41710  40.053  36.392   7.405
 3016POPC   NC341711  39.085  29.508   5.377
 3016POPC   PO441712  39.315  28.905   5.412
 3016POPC   GL141713  39.235  29.200   5.777
 3016POPC   GL241714  39.446  29.495   5.810
 3016POPC   C1A41715  39.100  29.210   6.220
 3016POPC   D2A41716  39.314  29.265   6.639
 3016POPC   C3A41717  39.145  29.141   7.065
 3016POPC   C4A41718  39.327  28.973   7.468
 3016POPC   C1B41719  39.619  29.298   6.203
 3016POPC   C2B41720  39.793  29.469   6.583
 3016POPC   C3B41721  39.594  29.551   6.977
 3016POPC   C4B41722  39.594  29.405   7.354
 3017POPC   NC341723  13.035  43.359   5.340
 3017POPC   PO441724  12.576  42.872   5.362
 3017POPC   GL141725  12.645  43.263   5.699
 3017POPC   GL241726  12.982  43.261   5.865
 3017POPC   C1A41727  12.596  43.464   6.136
 3017POPC   D2A41728  12.895  43.359   6.484
 3017POPC   C3A41729  12.876  43.280   6.933
 3017POPC   C4A41730  12.945  43.405   7.351
 3017POPC   C1B41731  13.058  42.962   6.209
 3017POPC   C2B41732  13.211  42.974   6.654
 3017POPC   C3B41733  13.169  42.853   7.102
 3017POPC   C4B41734  12.932  42.623   7.453
 3018POPC   NC341735  10.656   2.420   5.419
 3018POPC   PO441736  10.658   3.118   5.451
 3018POPC   GL141737  10.468   2.879   5.765
 3018POPC   GL241738  10.773   2.707   5.845
 3018POPC   C1A41739  10.282   3.065   6.147
 3018POPC   D2A41740  10.385   2.971   6.564
 3018POPC   C3A41741  10.153   3.059   6.926
 3018POPC   C4A41742  10.231   2.867   7.302
 3018POPC   C1B41743  10.791   3.031   6.171
 3018POPC   C2B41744  10.902   2.941   6.594
 3018POPC   C3B41745  10.737   2.653   6.875
 3018POPC   C4B41746  10.688   2.663   7.284
 3019POPC   NC341747  39.489  30.379   5.365
 3019POPC   PO441748  38.849  30.657   5.440
 3019POPC   GL141749  38.879  30.667   5.854
 3019POPC   GL241750  39.216  30.559   5.815
 3019POPC   C1A41751  39.077  30.743   6.263
 3019POPC   D2A41752  39.416  30.714   6.531
 3019POPC   C3A41753  39.340  30.948   6.857
 3019POPC   C4A41754  39.061  30.923   7.184
 3019POPC   C1B41755  39.022  30.237   6.121
 3019POPC   C2B41756  38.965  30.149   6.579
 3019POPC   C3B41757  39.140  30.453   6.886
 3019POPC   C4B41758  39.424  30.535   7.242
 3020POPC   NC341759   4.036  18.806   5.305
 3020POPC   PO441760   4.623  19.104   5.249
 3020POPC   GL141761   4.556  19.058   5.724
 3020POPC   GL241762   4.225  19.012   5.806
 3020POPC   C1A41763   4.658  18.983   6.153
 3020POPC   D2A41764   4.384  18.923   6.514
 3020POPC   C3A41765   4.496  19.043   6.925
 3020POPC   C4A41766   4.458  18.843   7.323
 3020POPC   C1B41767   4.268  19.328   6.142
 3020POPC   C2B41768   4.106  19.383   6.546
 3020POPC   C3B41769   3.984  19.236   6.911
 3020POPC   C4B41770   4.050  19.140   7.318
 3021POPC   NC341771  41.533  27.363   5.548
 3021POPC   PO441772  41.594  28.010   5.369
 3021POPC   GL141773  41.686  27.863   5.814
 3021POPC   GL241774  41.989  27.984   5.969
 3021POPC   C1A41775  41.721  27.592   6.192
 3021POPC   D2A41776  41.417  27.477   6.499
 3021POPC   C3A41777  41.565  27.341   6.903
 3021POPC   C4A41778  41.386  27.504   7.286
 3021POPC   C1B41779  41.932  28.036   6.375
 3021POPC   C2B41780  41.858  27.763   6.672
 3021POPC   C3B41781  41.679  27.852   7.007
 3021POPC   C4B41782  41.753  27.834   7.422
 3022POPC   NC341783   7.591   9.182   5.330
 3022POPC   PO441784   7.152   8.711   5.484
 3022POPC   GL141785   7.295   8.997   5.797
 3022POPC   GL241786   7.678   9.099   5.811
 3022POPC   C1A41787   7.172   8.886   6.248
 3022POPC   D2A41788   7.248   9.140   6.611
 3022POPC   C3A41789   7.357   8.900   6.936
 3022POPC   C4A41790   7.174   8.713   7.255
 3022POPC   C1B41791   7.558   9.220   6.215
 3022POPC   C2B41792   7.739   9.294   6.621
 3022POPC   C3B41793   7.841   9.034   6.960
 3022POPC   C4B41794   7.620   9.103   7.358
 3023POPC   NC341795  41.497  13.117   5.043
 3023POPC   PO441796  41.496  12.601   5.459
 3023POPC   GL141797  41.654  12.697   5.868
 3023POPC   GL241798  41.896  12.937   5.804
 3023POPC   C1A41799  41.531  12.981   6.246
 3023POPC   D2A41800  41.262  12.966   6.607
 3023POPC   C3A41801  41.486  13.100   6.963
 3023POPC   C4A41802  41.515  13.008   7.395
 3023POPC   C1B41803  41.969  12.720   6.259
 3023POPC   C2B41804  41.698  12.698   6.647
 3023POPC   C3B41805  41.826  12.744   7.066
 3023POPC   C4B41806  42.027  12.443   7.233
 3024POPC   NC341807  27.839  35.293   5.595
 3024POPC   PO441808  27.244  35.177   5.328
 3024POPC   GL141809  27.345  35.032   5.747
 3024POPC   GL241810  27.684  34.890   5.844
 3024POPC   C1A41811  27.439  35.212   6.162
 3024POPC   D2A41812  27.388  35.508   6.498
 3024POPC   C3A41813  27.347  35.371   6.921
 3024POPC   C4A41814  27.335  35.211   7.321
 3024POPC   C1B41815  27.931  35.103   6.217
 3024POPC   C2B41816  27.822  35.262   6.654
 3024POPC   C3B41817  27.823  35.272   7.123
 3024POPC   C4B41818  27.769  34.922   7.412
 3025POPC   NC341819  11.379  25.911   5.055
 3025POPC   PO441820  11.107  26.338   5.569
 3025POPC   GL141821  11.317  26.074   5.818
 3025POPC   GL241822  11.137  25.771   5.707
 3025POPC   C1A41823  11.287  26.132   6.265
 3025POPC   D2A41824  10.932  26.206   6.546
 3025POPC   C3A41825  10.974  25.985   6.930
 3025POPC   C4A41826  11.311  25.951   7.208
 3025POPC   C1B41827  11.288  25.627   6.123
 3025POPC   C2B41828  11.438  25.714   6.529
 3025POPC   C3B41829  11.278  25.555   6.891
 3025POPC   C4B41830  11.086  25.491   7.261
 3026POPC   NC341831  27.873   3.729   4.958
 3026POPC   PO441832  27.538   3.402   5.417
 3026POPC   GL141833  27.558   3.503   5.803
 3026POPC   GL241834  27.789   3.760   5.787
 3026POPC   C1A41835  27.260   3.501   6.119
 3026POPC   D2A41836  27.347   3.415   6.512
 3026POPC   C3A41837  27.534   3.663   6.792
 3026POPC   C4A41838  27.649   3.381   7.115
 3026POPC   C1B41839  27.753   3.748   6.246
 3026POPC   C2B41840  28.014   3.851   6.601
 3026POPC   C3B41841  27.989   3.809   7.035
 3026POPC   C4B41842  27.640   3.865   7.252
 3027POPC   NC341843  33.917  10.010   5.539
 3027POPC   PO441844  33.568   9.451   5.595
 3027POPC   GL141845  33.557   9.814   5.839
 3027POPC   GL241846  33.510   9.615   6.128
 3027POPC   C1A41847  33.785  10.045   6.172
 3027POPC   D2A41848  33.888   9.831   6.539
 3027POPC   C3A41849  34.029  10.011   6.921
 3027POPC   C4A41850  33.996   9.839   7.338
 3027POPC   C1B41851  33.949   9.483   6.153
 3027POPC   C2B41852  34.033   9.301   6.544
 3027POPC   C3B41853  33.966   9.494   6.950
 3027POPC   C4B41854  33.619   9.499   7.235
 3028POPC   NC341855   4.622  41.134   5.252
 3028POPC   PO441856   4.259  41.809   5.275
 3028POPC   GL141857   4.151  41.708   5.720
 3028POPC   GL241858   3.965  41.921   5.935
 3028POPC   C1A41859   4.351  41.592   6.144
 3028POPC   D2A41860   4.540  41.757   6.554
 3028POPC   C3A41861   4.587  41.581   6.968
 3028POPC   C4A41862   4.312  41.346   7.245
 3028POPC   C1B41863   4.062  41.932   6.378
 3028POPC   C2B41864   4.083  41.724   6.801
 3028POPC   C3B41865   4.214  41.843   7.227
 3028POPC   C4B41866   4.092  41.689   7.657
 3029POPC   NC341867  22.432  32.786   5.401
 3029POPC   PO441868  21.690  32.887   5.458
 3029POPC   GL141869  21.968  32.926   5.803
 3029POPC   GL241870  22.239  33.173   5.804
 3029POPC   C1A41871  22.041  32.919   6.242
 3029POPC   D2A41872  22.265  32.944   6.630
 3029POPC   C3A41873  22.032  32.894   7.031
 3029POPC   C4A41874  22.187  32.832   7.476
 3029POPC   C1B41875  22.153  33.428   6.201
 3029POPC   C2B41876  22.004  33.382   6.640
 3029POPC   C3B41877  22.144  33.395   7.064
 3029POPC   C4B41878  21.980  33.278   7.467
 3030POPC   NC341879  14.962   2.609   5.666
 3030POPC   PO441880  14.546   2.941   5.166
 3030POPC   GL141881  14.638   2.973   5.650
 3030POPC   GL241882  14.416   2.689   5.785
 3030POPC   C1A41883  14.677   2.849   6.189
 3030POPC   D2A41884  14.702   2.635   6.612
 3030POPC   C3A41885  14.583   2.753   7.064
 3030POPC   C4A41886  14.264   2.989   7.279
 3030POPC   C1B41887  14.203   2.640   6.236
 3030POPC   C2B41888  14.194   2.761   6.705
 3030POPC   C3B41889  14.022   2.584   7.110
 3030POPC   C4B41890  13.994   2.678   7.581
 3031POPC   NC341891   6.807   1.721   5.477
 3031POPC   PO441892   6.748   1.105   5.425
 3031POPC   GL141893   6.568   1.098   5.812
 3031POPC   GL241894   6.505   1.452   5.881
 3031POPC   C1A41895   6.647   0.868   6.183
 3031POPC   D2A41896   6.425   0.788   6.556
 3031POPC   C3A41897   6.423   1.025   6.916
 3031POPC   C4A41898   6.425   0.794   7.320
 3031POPC   C1B41899   6.425   1.647   6.295
 3031POPC   C2B41900   6.547   1.523   6.735
 3031POPC   C3B41901   6.429   1.515   7.165
 3031POPC   C4B41902   6.383   1.344   7.568
 3032POPC   NC341903   8.483  38.883   5.520
 3032POPC   PO441904   7.884  38.536   5.354
 3032POPC   GL141905   7.984  38.413   5.776
 3032POPC   GL241906   8.334  38.470   5.801
 3032POPC   C1A41907   8.039  38.229   6.196
 3032POPC   D2A41908   7.958  38.455   6.595
 3032POPC   C3A41909   8.066  38.327   7.032
 3032POPC   C4A41910   8.202  38.022   7.353
 3032POPC   C1B41911   8.357  38.607   6.219
 3032POPC   C2B41912   8.468  38.485   6.640
 3032POPC   C3B41913   8.389  38.709   6.992
 3032POPC   C4B41914   8.435  38.687   7.418
 3033POPC   NC341915   7.671   9.913   5.140
 3033POPC   PO441916   7.157   9.477   5.390
 3033POPC   GL141917   7.477   9.591   5.725
 3033POPC   GL241918   7.580   9.971   5.746
 3033POPC   C1A41919   7.386   9.717   6.167
 3033POPC   D2A41920   7.158   9.664   6.560
 3033POPC   C3A41921   7.482   9.718   6.855
 3033POPC   C4A41922   7.527   9.598   7.270
 3033POPC   C1B41923   7.365  10.243   6.087
 3033POPC   C2B41924   7.302  10.159   6.542
 3033POPC   C3B41925   7.132  10.066   6.961
 3033POPC   C4B41926   7.335  10.108   7.368
 3034POPC   NC341927  15.867   9.689   5.335
 3034POPC   PO441928  16.354  10.145   5.363
 3034POPC   GL141929  16.246   9.790   5.719
 3034POPC   GL241930  15.888   9.700   5.829
 3034POPC   C1A41931  16.254   9.506   6.130
 3034POPC   D2A41932  16.067   9.353   6.543
 3034POPC   C3A41933  16.085   9.606   6.957
 3034POPC   C4A41934  16.273   9.704   7.393
 3034POPC   C1B41935  15.810   9.786   6.256
 3034POPC   C2B41936  15.673   9.643   6.646
 3034POPC   C3B41937  15.514   9.672   7.049
 3034POPC   C4B41938  15.749   9.684   7.392
 3035POPC   NC341939  39.831  23.871   5.165
 3035POPC   PO441940  40.190  23.342   5.421
 3035POPC   GL141941  40.085  23.475   5.813
 3035POPC   GL241942  39.739  23.481   5.806
 3035POPC   C1A41943  40.073  23.649   6.238
 3035POPC   D2A41944  39.957  24.026   6.479
 3035POPC   C3A41945  39.801  23.909   6.878
 3035POPC   C4A41946  40.053  23.907   7.218
 3035POPC   C1B41947  39.709  23.275   6.241
 3035POPC   C2B41948  39.841  23.410   6.667
 3035POPC   C3B41949  39.896  23.451   7.100
 3035POPC   C4B41950  39.912  23.533   7.550
 3036POPC   NC341951  39.609   3.531   5.548
 3036POPC   PO441952  40.155   3.203   5.156
 3036POPC   GL141953  40.112   3.514   5.588
 3036POPC   GL241954  40.372   3.779   5.653
 3036POPC   C1A41955  39.947   3.511   6.098
 3036POPC   D2A41956  39.820   3.309   6.536
 3036POPC   C3A41957  39.903   3.536   6.934
 3036POPC   C4A41958  39.864   3.687   7.368
 3036POPC   C1B41959  40.370   3.795   6.122
 3036POPC   C2B41960  40.272   3.588   6.546
 3036POPC   C3B41961  40.415   3.590   7.013
 3036POPC   C4B41962  40.353   3.660   7.501
 3037POPC   NC341963  30.142  30.957   5.431
 3037POPC   PO441964  30.796  30.651   5.450
 3037POPC   GL141965  30.871  30.782   5.864
 3037POPC   GL241966  30.527  30.874   5.822
 3037POPC   C1A41967  30.758  30.840   6.310
 3037POPC   D2A41968  30.916  30.656   6.678
 3037POPC   C3A41969  30.777  30.788   7.034
 3037POPC   C4A41970  30.704  30.832   7.443
 3037POPC   C1B41971  30.372  30.572   6.109
 3037POPC   C2B41972  30.458  30.454   6.552
 3037POPC   C3B41973  30.378  30.502   6.981
 3037POPC   C4B41974  30.396  30.363   7.375
 3038POPC   NC341975   0.261  29.901   5.406
 3038POPC   PO441976   0.821  29.828   5.710
 3038POPC   GL141977   0.424  29.992   5.873
 3038POPC   GL241978   0.090  29.795   5.866
 3038POPC   C1A41979   0.444  29.956   6.267
 3038POPC   D2A41980   0.752  29.829   6.515
 3038POPC   C3A41981   0.755  30.069   6.858
 3038POPC   C4A41982   0.837  29.898   7.229
 3038POPC   C1B41983   0.067  29.627   6.269
 3038POPC   C2B41984   0.207  29.800   6.688
 3038POPC   C3B41985   0.318  29.888   7.110
 3038POPC   C4B41986   0.462  29.687   7.501
 3039POPC   NC341987  13.801  35.246   5.435
 3039POPC   PO441988  13.410  35.762   5.665
 3039POPC   GL141989  13.520  35.357   5.845
 3039POPC   GL241990  13.306  35.069   5.746
 3039POPC   C1A41991  13.769  35.256   6.205
 3039POPC   D2A41992  13.592  35.357   6.615
 3039POPC   C3A41993  13.778  35.219   6.982
 3039POPC   C4A41994  13.668  35.395   7.392
 3039POPC   C1B41995  13.283  35.078   6.212
 3039POPC   C2B41996  13.162  35.069   6.642
 3039POPC   C3B41997  13.282  35.239   7.056
 3039POPC   C4B41998  13.380  34.977   7.389
 3040POPC   NC341999  19.565  27.882   5.582
 3040POPC   PO442000  20.061  27.507   5.301
 3040POPC   GL142001  19.935  27.579   5.740
 3040POPC   GL242002  19.577  27.454   5.828
 3040POPC   C1A42003  19.979  27.821   6.129
 3040POPC   D2A42004  20.143  27.728   6.543
 3040POPC   C3A42005  19.855  27.477   6.764
 3040POPC   C4A42006  19.763  27.521   7.197
 3040POPC   C1B42007  19.520  27.614   6.255
 3040POPC   C2B42008  19.646  27.956   6.522
 3040POPC   C3B42009  19.796  27.985   6.933
 3040POPC   C4B42010  19.532  27.986   7.290
 3041POPC   NC342011  42.431  35.877   5.420
 3041POPC   PO442012  42.227  36.374   5.506
 3041POPC   GL142013  42.256  36.135   5.927
 3041POPC   GL242014  42.448  35.818   5.966
 3041POPC   C1A42015  42.138  36.179   6.393
 3041POPC   D2A42016  42.039  36.355   6.822
 3041POPC   C3A42017  42.205  36.078   7.136
 3041POPC   C4A42018  42.110  35.757   7.430
 3041POPC   C1B42019  42.625  36.042   6.353
 3041POPC   C2B42020  42.557  36.312   6.772
 3041POPC   C3B42021  42.705  36.152   7.196
 3041POPC   C4B42022  42.627  35.769   7.434
 3042POPC   NC342023  36.523  32.243   5.385
 3042POPC   PO442024  37.209  32.108   5.317
 3042POPC   GL142025  37.066  32.133   5.741
 3042POPC   GL242026  36.921  32.459   5.701
 3042POPC   C1A42027  37.081  32.109   6.214
 3042POPC   D2A42028  36.821  32.152   6.598
 3042POPC   C3A42029  37.038  32.257   6.967
 3042POPC   C4A42030  36.851  32.061   7.313
 3042POPC   C1B42031  37.095  32.604   6.097
 3042POPC   C2B42032  37.067  32.609   6.542
 3042POPC   C3B42033  36.704  32.637   6.820
 3042POPC   C4B42034  36.745  32.556   7.263
 3043POPC   NC342035  27.291   6.359   5.165
 3043POPC   PO442036  27.793   5.984   5.427
 3043POPC   GL142037  27.622   5.881   5.864
 3043POPC   GL242038  27.400   5.574   5.927
 3043POPC   C1A42039  27.629   5.871   6.324
 3043POPC   D2A42040  27.818   5.693   6.688
 3043POPC   C3A42041  27.746   5.979   7.007
 3043POPC   C4A42042  27.520   5.875   7.334
 3043POPC   C1B42043  27.140   5.731   6.228
 3043POPC   C2B42044  27.195   5.660   6.657
 3043POPC   C3B42045  27.353   5.497   7.022
 3043POPC   C4B42046  27.379   5.409   7.465
 3044POPC   NC342047  11.134  11.342   5.319
 3044POPC   PO442048  11.765  11.192   5.137
 3044POPC   GL142049  11.578  11.389   5.605
 3044POPC   GL242050  11.236  11.407   5.801
 3044POPC   C1A42051  11.627  11.260   6.085
 3044POPC   D2A42052  11.545  11.077   6.486
 3044POPC   C3A42053  11.367  11.307   6.838
 3044POPC   C4A42054  11.616  11.324   7.211
 3044POPC   C1B42055  11.110  11.350   6.230
 3044POPC   C2B42056  10.885  11.431   6.590
 3044POPC   C3B42057  10.843  11.239   6.959
 3044POPC   C4B42058  11.133  11.125   7.284
 3045POPC   NC342059   6.159  19.757   5.238
 3045POPC   PO442060   5.496  19.584   5.165
 3045POPC   GL142061   5.683  19.690   5.621
 3045POPC   GL242062   5.939  19.982   5.703
 3045POPC   C1A42063   5.707  19.690   6.102
 3045POPC   D2A42064   6.021  19.541   6.420
 3045POPC   C3A42065   5.938  19.616   6.893
 3045POPC   C4A42066   5.692  19.876   7.205
 3045POPC   C1B42067   6.071  20.054   6.153
 3045POPC   C2B42068   5.938  20.057   6.573
 3045POPC   C3B42069   6.189  20.073   6.966
 3045POPC   C4B42070   6.141  20.056   7.375
 3046POPC   NC342071  39.526   9.771   5.010
 3046POPC   PO442072  39.042   9.676   5.448
 3046POPC   GL142073  39.380   9.815   5.715
 3046POPC   GL242074  39.120   9.897   5.918
 3046POPC   C1A42075  39.563   9.790   6.162
 3046POPC   D2A42076  39.491   9.556   6.579
 3046POPC   C3A42077  39.421   9.703   7.014
 3046POPC   C4A42078  39.288   9.471   7.424
 3046POPC   C1B42079  39.186  10.119   6.290
 3046POPC   C2B42080  39.452  10.104   6.633
 3046POPC   C3B42081  39.243  10.203   7.008
 3046POPC   C4B42082  39.005   9.937   7.227
 3047POPC   NC342083   6.585  33.282   5.229
 3047POPC   PO442084   6.396  32.690   5.285
 3047POPC   GL142085   6.568  33.001   5.664
 3047POPC   GL242086   6.303  33.259   5.682
 3047POPC   C1A42087   6.686  32.983   6.170
 3047POPC   D2A42088   6.734  33.130   6.629
 3047POPC   C3A42089   6.695  32.831   7.003
 3047POPC   C4A42090   6.773  32.806   7.420
 3047POPC   C1B42091   6.225  33.184   6.094
 3047POPC   C2B42092   6.197  33.141   6.536
 3047POPC   C3B42093   6.323  33.156   6.967
 3047POPC   C4B42094   6.264  33.075   7.424
 3048POPC   NC342095   7.473   0.070   5.666
 3048POPC   PO442096   7.146  44.564   5.368
 3048POPC   GL142097   7.452  44.567   5.758
 3048POPC   GL242098   7.790  44.403   5.775
 3048POPC   C1A42099   7.393  44.753   6.222
 3048POPC   D2A42100   7.316  44.550   6.624
 3048POPC   C3A42101   7.349  44.828   6.979
 3048POPC   C4A42102   7.467  44.505   7.180
 3048POPC   C1B42103   7.879  44.682   6.086
 3048POPC   C2B42104   7.808  44.530   6.483
 3048POPC   C3B42105   7.831  44.704   6.882
 3048POPC   C4B42106   7.888  44.773   7.308
 3049POPC   NC342107  20.541   0.300   5.614
 3049POPC   PO442108  20.534   0.954   5.681
 3049POPC   GL142109  20.512   0.660   5.997
 3049POPC   GL242110  20.229   0.439   5.989
 3049POPC   C1A42111  20.491   0.596   6.421
 3049POPC   D2A42112  20.766   0.795   6.718
 3049POPC   C3A42113  20.794   0.513   7.062
 3049POPC   C4A42114  20.754   0.561   7.492
 3049POPC   C1B42115  20.377   0.083   6.222
 3049POPC   C2B42116  20.563   0.100   6.633
 3049POPC   C3B42117  20.335   0.022   6.981
 3049POPC   C4B42118  20.317   0.273   7.320
 3050POPC   NC342119  31.530  17.086   5.343
 3050POPC   PO442120  31.762  17.672   5.273
 3050POPC   GL142121  31.635  17.629   5.697
 3050POPC   GL242122  31.315  17.445   5.679
 3050POPC   C1A42123  31.640  17.425   6.096
 3050POPC   D2A42124  31.437  17.517   6.492
 3050POPC   C3A42125  31.688  17.506   6.892
 3050POPC   C4A42126  31.559  17.494   7.301
 3050POPC   C1B42127  31.165  17.225   6.065
 3050POPC   C2B42128  31.140  17.089   6.494
 3050POPC   C3B42129  31.264  17.232   6.895
 3050POPC   C4B42130  31.113  17.219   7.278
 3051POPC   NC342131  30.106   3.671   5.130
 3051POPC   PO442132  29.697   3.165   5.428
 3051POPC   GL142133  29.968   3.360   5.725
 3051POPC   GL242134  29.963   3.732   5.632
 3051POPC   C1A42135  30.142   3.238   6.154
 3051POPC   D2A42136  30.233   3.431   6.567
 3051POPC   C3A42137  29.945   3.543   6.859
 3051POPC   C4A42138  29.732   3.564   7.223
 3051POPC   C1B42139  29.996   3.733   6.100
 3051POPC   C2B42140  29.837   3.905   6.515
 3051POPC   C3B42141  29.770   4.037   6.951
 3051POPC   C4B42142  30.104   3.893   7.206
 3052POPC   NC342143  41.317   4.183   5.523
 3052POPC   PO442144  40.707   4.050   5.340
 3052POPC   GL142145  40.840   4.080   5.767
 3052POPC   GL242146  40.907   4.459   5.797
 3052POPC   C1A42147  40.710   4.185   6.197
 3052POPC   D2A42148  40.421   4.101   6.537
 3052POPC   C3A42149  40.658   4.090   6.902
 3052POPC   C4A42150  40.661   4.313   7.293
 3052POPC   C1B42151  41.140   4.469   6.206
 3052POPC   C2B42152  41.038   4.315   6.616
 3052POPC   C3B42153  40.849   4.605   6.912
 3052POPC   C4B42154  41.002   4.765   7.293
 3053POPC   NC342155  24.727   0.925   5.467
 3053POPC   PO442156  24.384   1.522   5.415
 3053POPC   GL142157  24.364   1.189   5.756
 3053POPC   GL242158  24.691   1.172   5.924
 3053POPC   C1A42159  24.311   0.908   6.131
 3053POPC   D2A42160  24.393   1.172   6.494
 3053POPC   C3A42161  24.306   1.054   6.887
 3053POPC   C4A42162  24.549   1.121   7.231
 3053POPC   C1B42163  24.846   1.358   6.326
 3053POPC   C2B42164  24.835   1.273   6.794
 3053POPC   C3B42165  24.863   1.518   7.195
 3053POPC   C4B42166  24.645   1.512   7.614
 3054POPC   NC342167  22.779   7.930   5.038
 3054POPC   PO442168  22.966   8.441   5.516
 3054POPC   GL142169  22.919   8.284   5.934
 3054POPC   GL242170  22.585   8.204   5.916
 3054POPC   C1A42171  23.011   8.081   6.330
 3054POPC   D2A42172  23.173   8.192   6.708
 3054POPC   C3A42173  22.966   8.260   7.078
 3054POPC   C4A42174  23.099   8.449   7.459
 3054POPC   C1B42175  22.544   8.254   6.349
 3054POPC   C2B42176  22.634   8.028   6.730
 3054POPC   C3B42177  22.455   8.252   7.075
 3054POPC   C4B42178  22.557   8.616   7.308
 3055POPC   NC342179   4.499  38.755   5.363
 3055POPC   PO442180   3.986  38.392   5.526
 3055POPC   GL142181   4.219  38.467   5.872
 3055POPC   GL242182   4.579  38.456   5.792
 3055POPC   C1A42183   4.066  38.394   6.292
 3055POPC   D2A42184   3.808  38.396   6.676
 3055POPC   C3A42185   3.979  38.322   7.102
 3055POPC   C4A42186   4.166  38.450   7.532
 3055POPC   C1B42187   4.553  38.292   6.231
 3055POPC   C2B42188   4.542  38.500   6.626
 3055POPC   C3B42189   4.473  38.357   7.038
 3055POPC   C4B42190   4.642  38.308   7.435
 3056POPC   NC342191  41.094   2.044   5.338
 3056POPC   PO442192  41.578   1.784   5.420
 3056POPC   GL142193  41.423   1.906   5.790
 3056POPC   GL242194  41.456   2.261   5.673
 3056POPC   C1A42195  41.642   1.792   6.193
 3056POPC   D2A42196  41.861   1.657   6.561
 3056POPC   C3A42197  41.585   1.790   6.866
 3056POPC   C4A42198  41.631   2.033   7.219
 3056POPC   C1B42199  41.527   2.294   6.114
 3056POPC   C2B42200  41.444   2.175   6.529
 3056POPC   C3B42201  41.521   2.418   6.900
 3056POPC   C4B42202  41.372   2.467   7.318
 3057POPC   NC342203  30.216   2.929   5.458
 3057POPC   PO442204  29.836   2.363   5.333
 3057POPC   GL142205  29.874   2.633   5.706
 3057POPC   GL242206  30.199   2.455   5.783
 3057POPC   C1A42207  29.762   2.869   6.125
 3057POPC   D2A42208  29.783   3.158   6.539
 3057POPC   C3A42209  29.791   3.080   7.010
 3057POPC   C4A42210  29.789   2.731   7.300
 3057POPC   C1B42211  30.250   2.677   6.144
 3057POPC   C2B42212  30.039   2.698   6.538
 3057POPC   C3B42213  30.192   2.780   6.930
 3057POPC   C4B42214  30.302   2.634   7.312
 3058POPC   NC342215  41.746  12.192   5.420
 3058POPC   PO442216  41.105  11.947   5.507
 3058POPC   GL142217  41.396  11.849   5.795
 3058POPC   GL242218  41.421  12.219   5.845
 3058POPC   C1A42219  41.561  11.863   6.214
 3058POPC   D2A42220  41.327  12.041   6.572
 3058POPC   C3A42221  41.410  11.830   6.946
 3058POPC   C4A42222  41.782  11.620   7.081
 3058POPC   C1B42223  41.610  12.360   6.242
 3058POPC   C2B42224  41.837  12.211   6.610
 3058POPC   C3B42225  41.606  12.295   6.977
 3058POPC   C4B42226  41.648  12.078   7.330
 3059POPC   NC342227   5.628  15.157   5.551
 3059POPC   PO442228   6.306  15.269   5.400
 3059POPC   GL142229   6.072  15.356   5.792
 3059POPC   GL242230   5.993  15.013   5.898
 3059POPC   C1A42231   5.961  15.388   6.255
 3059POPC   D2A42232   5.648  15.529   6.612
 3059POPC   C3A42233   5.853  15.573   6.992
 3059POPC   C4A42234   5.997  15.465   7.417
 3059POPC   C1B42235   5.990  14.888   6.344
 3059POPC   C2B42236   6.027  15.161   6.709
 3059POPC   C3B42237   5.988  15.041   7.122
 3059POPC   C4B42238   5.634  14.746   7.275
 3060POPC   NC342239  21.108   7.000   5.351
 3060POPC   PO442240  21.474   6.375   5.312
 3060POPC   GL142241  21.245   6.584   5.636
 3060POPC   GL242242  21.493   6.838   5.683
 3060POPC   C1A42243  21.284   6.601   6.104
 3060POPC   D2A42244  21.290   6.705   6.559
 3060POPC   C3A42245  21.515   6.543   6.921
 3060POPC   C4A42246  21.287   6.680   7.280
 3060POPC   C1B42247  21.693   6.945   6.100
 3060POPC   C2B42248  21.632   7.083   6.532
 3060POPC   C3B42249  21.534   7.049   6.973
 3060POPC   C4B42250  21.692   7.009   7.397
 3061POPC   NC342251  19.121  33.172   5.192
 3061POPC   PO442252  19.149  32.579   5.577
 3061POPC   GL142253  19.151  33.005   5.706
 3061POPC   GL242254  18.857  33.227   5.721
 3061POPC   C1A42255  19.176  33.212   6.117
 3061POPC   D2A42256  19.040  33.090   6.539
 3061POPC   C3A42257  19.282  33.237   6.906
 3061POPC   C4A42258  19.239  33.140   7.337
 3061POPC   C1B42259  18.628  33.209   6.155
 3061POPC   C2B42260  18.530  33.099   6.624
 3061POPC   C3B42261  18.791  33.069   7.051
 3061POPC   C4B42262  18.723  33.203   7.524
 3062POPC   NC342263  12.164  15.086   5.401
 3062POPC   PO442264  12.039  15.698   5.619
 3062POPC   GL142265  12.223  15.334   5.911
 3062POPC   GL242266  12.177  14.946   5.874
 3062POPC   C1A42267  12.160  15.166   6.355
 3062POPC   D2A42268  11.859  15.304   6.690
 3062POPC   C3A42269  12.089  15.221   7.049
 3062POPC   C4A42270  12.395  15.269   7.300
 3062POPC   C1B42271  12.282  14.641   6.162
 3062POPC   C2B42272  12.239  14.699   6.580
 3062POPC   C3B42273  12.309  14.659   6.985
 3062POPC   C4B42274  12.140  14.777   7.315
 3063POPC   NC342275  31.368   9.831   5.098
 3063POPC   PO442276  31.735   9.677   5.614
 3063POPC   GL142277  31.449   9.702   5.893
 3063POPC   GL242278  31.335  10.022   5.901
 3063POPC   C1A42279  31.461   9.781   6.320
 3063POPC   D2A42280  31.341   9.546   6.627
 3063POPC   C3A42281  31.459   9.713   6.991
 3063POPC   C4A42282  31.359   9.435   7.287
 3063POPC   C1B42283  31.034  10.052   6.203
 3063POPC   C2B42284  31.108  10.003   6.615
 3063POPC   C3B42285  30.977  10.117   6.971
 3063POPC   C4B42286  31.076   9.896   7.301
 3064POPC   NC342287  22.538  27.013   5.129
 3064POPC   PO442288  22.224  26.509   5.403
 3064POPC   GL142289  22.097  26.678   5.816
 3064POPC   GL242290  22.013  27.028   5.807
 3064POPC   C1A42291  22.204  26.698   6.269
 3064POPC   D2A42292  22.277  26.436   6.639
 3064POPC   C3A42293  22.147  26.482   7.055
 3064POPC   C4A42294  22.159  26.514   7.506
 3064POPC   C1B42295  21.911  27.236   6.196
 3064POPC   C2B42296  22.086  27.152   6.557
 3064POPC   C3B42297  22.172  26.993   6.937
 3064POPC   C4B42298  22.210  27.027   7.354
 3065POPC   NC342299  24.386  41.964   5.292
 3065POPC   PO442300  24.543  41.389   5.429
 3065POPC   GL142301  24.497  41.610   5.813
 3065POPC   GL242302  24.730  41.851   5.696
 3065POPC   C1A42303  24.351  41.587   6.273
 3065POPC   D2A42304  24.229  41.693   6.729
 3065POPC   C3A42305  24.421  41.454   7.084
 3065POPC   C4A42306  24.314  41.371   7.536
 3065POPC   C1B42307  24.806  41.899   6.145
 3065POPC   C2B42308  24.610  41.963   6.530
 3065POPC   C3B42309  24.693  41.882   6.964
 3065POPC   C4B42310  24.716  42.224   7.245
 3066POPC   NC342311  19.714  14.623   5.425
 3066POPC   PO442312  19.821  14.009   5.425
 3066POPC   GL142313  19.826  14.259   5.854
 3066POPC   GL242314  19.976  14.585   5.920
 3066POPC   C1A42315  19.857  14.253   6.341
 3066POPC   D2A42316  20.020  14.293   6.771
 3066POPC   C3A42317  19.686  14.222   7.054
 3066POPC   C4A42318  19.482  13.877   7.247
 3066POPC   C1B42319  19.681  14.735   6.250
 3066POPC   C2B42320  19.670  14.670   6.717
 3066POPC   C3B42321  19.883  14.681   7.143
 3066POPC   C4B42322  19.941  14.695   7.621
 3067POPC   NC342323  14.170   9.294   5.358
 3067POPC   PO442324  14.815   8.997   5.531
 3067POPC   GL142325  14.458   9.138   5.757
 3067POPC   GL242326  14.153   8.953   5.739
 3067POPC   C1A42327  14.284   9.203   6.181
 3067POPC   D2A42328  14.600   9.290   6.524
 3067POPC   C3A42329  14.667   9.145   6.957
 3067POPC   C4A42330  14.248   9.031   7.081
 3067POPC   C1B42331  14.358   8.717   6.089
 3067POPC   C2B42332  14.324   8.819   6.536
 3067POPC   C3B42333  14.568   8.655   6.841
 3067POPC   C4B42334  14.489   8.559   7.216
 3068POPC   NC342335  35.322   9.080   4.950
 3068POPC   PO442336  35.603   8.713   5.506
 3068POPC   GL142337  35.489   9.078   5.739
 3068POPC   GL242338  35.211   8.976   5.850
 3068POPC   C1A42339  35.447   9.224   6.208
 3068POPC   D2A42340  35.578   9.251   6.649
 3068POPC   C3A42341  35.329   9.160   7.022
 3068POPC   C4A42342  35.490   9.157   7.468
 3068POPC   C1B42343  35.343   8.707   6.175
 3068POPC   C2B42344  35.297   8.806   6.610
 3068POPC   C3B42345  35.240   8.631   7.013
 3068POPC   C4B42346  35.260   8.710   7.438
 3069POPC   NC342347  32.621   2.823   5.382
 3069POPC   PO442348  32.059   3.096   5.636
 3069POPC   GL142349  32.382   2.944   5.884
 3069POPC   GL242350  32.363   2.620   5.926
 3069POPC   C1A42351  32.310   2.902   6.342
 3069POPC   D2A42352  32.156   3.004   6.741
 3069POPC   C3A42353  32.324   2.875   7.090
 3069POPC   C4A42354  31.983   2.878   7.330
 3069POPC   C1B42355  32.083   2.442   6.265
 3069POPC   C2B42356  32.158   2.494   6.719
 3069POPC   C3B42357  32.092   2.401   7.165
 3069POPC   C4B42358  32.363   2.527   7.520
 3070POPC   NC342359  14.432  29.699   5.303
 3070POPC   PO442360  14.093  30.318   5.264
 3070POPC   GL142361  14.177  30.123   5.704
 3070POPC   GL242362  14.493  29.925   5.746
 3070POPC   C1A42363  14.374  30.211   6.133
 3070POPC   D2A42364  14.337  30.026   6.525
 3070POPC   C3A42365  14.456  30.235   6.892
 3070POPC   C4A42366  14.453  30.029   7.262
 3070POPC   C1B42367  14.478  29.571   6.052
 3070POPC   C2B42368  14.372  29.491   6.484
 3070POPC   C3B42369  14.434  29.643   6.903
 3070POPC   C4B42370  14.450  29.531   7.343
 3071POPC   NC342371  19.174  24.923   5.209
 3071POPC   PO442372  18.960  25.571   5.280
 3071POPC   GL142373  19.016  25.321   5.618
 3071POPC   GL242374  19.352  25.313   5.541
 3071POPC   C1A42375  18.872  25.205   6.054
 3071POPC   D2A42376  18.824  25.364   6.479
 3071POPC   C3A42377  19.018  25.299   6.890
 3071POPC   C4A42378  18.928  24.995   7.217
 3071POPC   C1B42379  19.357  25.386   6.015
 3071POPC   C2B42380  19.347  25.499   6.465
 3071POPC   C3B42381  19.516  25.433   6.900
 3071POPC   C4B42382  19.462  25.045   7.143
 3072POPC   NC342383  44.854  32.126   5.388
 3072POPC   PO442384  44.328  32.398   5.443
 3072POPC   GL142385  44.496  32.098   5.776
 3072POPC   GL242386  44.817  31.993   5.905
 3072POPC   C1A42387  44.360  32.050   6.184
 3072POPC   D2A42388  44.354  32.292   6.533
 3072POPC   C3A42389  44.666  32.153   6.770
 3072POPC   C4A42390  44.597  32.123   7.208
 3072POPC   C1B42391  44.801  32.339   6.240
 3072POPC   C2B42392  44.830  32.617   6.625
 3072POPC   C3B42393  44.906  32.487   7.061
 3072POPC   C4B42394   0.075  31.979   7.076
 3073POPC   NC342395  41.857  17.990   5.627
 3073POPC   PO442396  41.424  18.404   5.358
 3073POPC   GL142397  41.402  18.248   5.767
 3073POPC   GL242398  41.069  18.090   5.797
 3073POPC   C1A42399  41.601  18.242   6.173
 3073POPC   D2A42400  41.548  18.162   6.581
 3073POPC   C3A42401  41.715  18.404   6.902
 3073POPC   C4A42402  42.065  18.271   7.161
 3073POPC   C1B42403  41.066  18.351   6.151
 3073POPC   C2B42404  40.905  18.306   6.556
 3073POPC   C3B42405  41.126  18.167   6.880
 3073POPC   C4B42406  41.297  18.357   7.213
 3074POPC   NC342407   9.640  23.146   5.449
 3074POPC   PO442408  10.136  22.629   5.432
 3074POPC   GL142409   9.774  22.742   5.725
 3074POPC   GL242410   9.731  22.500   5.965
 3074POPC   C1A42411   9.547  22.961   6.099
 3074POPC   D2A42412   9.722  23.037   6.525
 3074POPC   C3A42413   9.627  23.023   6.940
 3074POPC   C4A42414   9.543  23.225   7.294
 3074POPC   C1B42415  10.035  22.821   6.163
 3074POPC   C2B42416  10.231  22.907   6.575
 3074POPC   C3B42417  10.127  22.797   7.028
 3074POPC   C4B42418   9.870  22.833   7.434
 3075POPC   NC342419  42.401  10.705   5.172
 3075POPC   PO442420  42.721  10.257   5.583
 3075POPC   GL142421  42.375  10.627   5.747
 3075POPC   GL242422  42.519  10.808   6.037
 3075POPC   C1A42423  42.037  10.790   6.117
 3075POPC   D2A42424  42.181  10.733   6.597
 3075POPC   C3A42425  42.033  10.629   7.048
 3075POPC   C4A42426  41.945  10.160   7.166
 3075POPC   C1B42427  42.668  10.822   6.448
 3075POPC   C2B42428  42.647  10.707   6.825
 3075POPC   C3B42429  42.480  10.405   7.060
 3075POPC   C4B42430  42.604  10.470   7.448
 3076POPC   NC342431  39.545  13.586   5.492
 3076POPC   PO442432  39.262  13.114   5.130
 3076POPC   GL142433  39.313  13.215   5.710
 3076POPC   GL242434  39.313  13.571   5.968
 3076POPC   C1A42435  39.435  13.151   6.167
 3076POPC   D2A42436  39.295  13.432   6.508
 3076POPC   C3A42437  39.279  13.324   6.955
 3076POPC   C4A42438  39.267  13.630   7.274
 3076POPC   C1B42439  39.232  13.896   6.311
 3076POPC   C2B42440  39.247  13.879   6.791
 3076POPC   C3B42441  38.977  14.084   7.106
 3076POPC   C4B42442  39.012  14.080   7.560
 3077POPC   NC342443  22.458  40.133   5.531
 3077POPC   PO442444  22.168  40.667   5.418
 3077POPC   GL142445  21.979  40.928   5.796
 3077POPC   GL242446  22.247  40.839   5.996
 3077POPC   C1A42447  21.937  41.251   6.171
 3077POPC   D2A42448  22.112  41.423   6.632
 3077POPC   C3A42449  22.268  41.129   6.977
 3077POPC   C4A42450  22.364  40.764   7.288
 3077POPC   C1B42451  22.222  40.588   6.394
 3077POPC   C2B42452  22.183  40.623   6.846
 3077POPC   C3B42453  22.036  40.373   7.201
 3077POPC   C4B42454  22.219  40.263   7.629
 3078POPC   NC342455  40.868  22.534   5.305
 3078POPC   PO442456  40.724  21.860   5.200
 3078POPC   GL142457  40.604  22.086   5.589
 3078POPC   GL242458  40.925  22.096   5.722
 3078POPC   C1A42459  40.553  22.249   6.048
 3078POPC   D2A42460  40.751  22.347   6.473
 3078POPC   C3A42461  40.658  22.246   6.909
 3078POPC   C4A42462  40.647  22.542   7.252
 3078POPC   C1B42463  41.089  22.172   6.143
 3078POPC   C2B42464  41.264  22.345   6.528
 3078POPC   C3B42465  41.201  22.159   6.929
 3078POPC   C4B42466  41.007  22.189   7.316
 3079POPC   NC342467  29.295  34.767   5.521
 3079POPC   PO442468  29.324  35.393   5.454
 3079POPC   GL142469  29.058  35.394   5.848
 3079POPC   GL242470  29.051  35.059   5.860
 3079POPC   C1A42471  28.931  35.294   6.292
 3079POPC   D2A42472  29.154  35.526   6.618
 3079POPC   C3A42473  29.087  35.412   7.053
 3079POPC   C4A42474  28.949  35.474   7.481
 3079POPC   C1B42475  29.412  35.195   6.169
 3079POPC   C2B42476  29.661  35.036   6.532
 3079POPC   C3B42477  29.579  35.248   6.951
 3079POPC   C4B42478  29.399  35.224   7.428
 3080POPC   NC342479  42.770   9.369   5.370
 3080POPC   PO442480  42.153   9.023   5.320
 3080POPC   GL142481  42.262   8.972   5.743
 3080POPC   GL242482  42.514   9.178   5.930
 3080POPC   C1A42483  42.178   8.887   6.170
 3080POPC   D2A42484  42.332   9.064   6.557
 3080POPC   C3A42485  42.119   8.924   6.906
 3080POPC   C4A42486  42.153   9.032   7.302
 3080POPC   C1B42487  42.683   8.845   6.248
 3080POPC   C2B42488  42.801   8.823   6.662
 3080POPC   C3B42489  42.630   8.933   7.076
 3080POPC   C4B42490  42.599   8.939   7.522
 3081POPC   NC342491  33.930  20.450   5.439
 3081POPC   PO442492  33.771  21.100   5.523
 3081POPC   GL142493  33.966  20.854   5.836
 3081POPC   GL242494  33.804  20.514   5.931
 3081POPC   C1A42495  34.047  20.789   6.266
 3081POPC   D2A42496  33.964  20.509   6.593
 3081POPC   C3A42497  33.981  20.726   6.977
 3081POPC   C4A42498  33.893  20.932   7.339
 3081POPC   C1B42499  33.588  20.230   6.256
 3081POPC   C2B42500  33.595  20.007   6.652
 3081POPC   C3B42501  33.472  20.161   7.070
 3081POPC   C4B42502  33.627  20.496   7.350
 3082POPC   NC342503  22.489   1.719   5.144
 3082POPC   PO442504  22.097   1.228   5.381
 3082POPC   GL142505  22.339   1.268   5.811
 3082POPC   GL242506  22.191   1.506   6.008
 3082POPC   C1A42507  22.531   1.295   6.285
 3082POPC   D2A42508  22.273   1.254   6.661
 3082POPC   C3A42509  22.469   1.416   7.014
 3082POPC   C4A42510  22.536   1.282   7.454
 3082POPC   C1B42511  21.894   1.416   6.320
 3082POPC   C2B42512  21.833   1.553   6.737
 3082POPC   C3B42513  21.960   1.375   7.129
 3082POPC   C4B42514  22.102   1.546   7.509
 3083POPC   NC342515  41.862   8.727   5.504
 3083POPC   PO442516  41.383   9.074   5.294
 3083POPC   GL142517  41.481   9.009   5.706
 3083POPC   GL242518  41.395   8.651   5.720
 3083POPC   C1A42519  41.336   9.115   6.125
 3083POPC   D2A42520  41.538   9.100   6.532
 3083POPC   C3A42521  41.432   9.213   6.968
 3083POPC   C4A42522  41.718   9.292   7.287
 3083POPC   C1B42523  41.669   8.737   6.112
 3083POPC   C2B42524  41.856   8.696   6.507
 3083POPC   C3B42525  41.657   8.708   6.841
 3083POPC   C4B42526  41.705   8.777   7.219
 3084POPC   NC342527  38.036  20.442   5.262
 3084POPC   PO442528  37.475  20.711   5.304
 3084POPC   GL142529  37.531  20.719   5.724
 3084POPC   GL242530  37.873  20.741   5.736
 3084POPC   C1A42531  37.508  20.545   6.118
 3084POPC   D2A42532  37.311  20.604   6.479
 3084POPC   C3A42533  37.533  20.592   6.855
 3084POPC   C4A42534  37.648  20.831   7.213
 3084POPC   C1B42535  38.001  20.428   6.063
 3084POPC   C2B42536  37.919  20.497   6.504
 3084POPC   C3B42537  38.029  20.663   6.921
 3084POPC   C4B42538  38.136  20.804   7.336
 3085POPC   NC342539   6.915  33.773   4.982
 3085POPC   PO442540   6.532  34.167   5.417
 3085POPC   GL142541   6.555  33.888   5.864
 3085POPC   GL242542   6.726  33.529   5.818
 3085POPC   C1A42543   6.441  33.968   6.293
 3085POPC   D2A42544   6.266  34.210   6.606
 3085POPC   C3A42545   6.438  34.062   6.962
 3085POPC   C4A42546   6.767  33.937   7.221
 3085POPC   C1B42547   6.604  33.492   6.257
 3085POPC   C2B42548   6.784  33.672   6.630
 3085POPC   C3B42549   6.893  33.498   7.019
 3085POPC   C4B42550   6.695  33.309   7.348
 3086POPC   NC342551  39.556   7.652   5.298
 3086POPC   PO442552  39.280   7.036   5.273
 3086POPC   GL142553  39.313   7.021   5.717
 3086POPC   GL242554  39.550   7.319   5.780
 3086POPC   C1A42555  39.155   7.247   6.109
 3086POPC   D2A42556  39.297   7.250   6.546
 3086POPC   C3A42557  38.945   7.408   6.812
 3086POPC   C4A42558  39.005   7.301   7.240
 3086POPC   C1B42559  39.450   7.668   6.100
 3086POPC   C2B42560  39.224   7.742   6.500
 3086POPC   C3B42561  39.383   7.626   6.902
 3086POPC   C4B42562  39.268   7.729   7.296
 3087POPC   NC342563   9.479  18.089   5.346
 3087POPC   PO442564  10.118  18.420   5.271
 3087POPC   GL142565  10.020  18.410   5.743
 3087POPC   GL242566   9.665  18.305   5.777
 3087POPC   C1A42567  10.188  18.514   6.166
 3087POPC   D2A42568  10.026  18.607   6.578
 3087POPC   C3A42569   9.817  18.342   6.834
 3087POPC   C4A42570   9.877  18.474   7.214
 3087POPC   C1B42571   9.655  18.411   6.219
 3087POPC   C2B42572   9.477  18.636   6.562
 3087POPC   C3B42573   9.368  18.627   6.996
 3087POPC   C4B42574   9.429  18.244   7.191
 3088POPC   NC342575  10.591  16.960   5.412
 3088POPC   PO442576  10.239  16.333   5.428
 3088POPC   GL142577  10.432  16.606   5.769
 3088POPC   GL242578  10.723  16.817   5.905
 3088POPC   C1A42579  10.335  16.666   6.194
 3088POPC   D2A42580  10.254  16.794   6.619
 3088POPC   C3A42581  10.265  16.558   7.006
 3088POPC   C4A42582  10.537  16.696   7.330
 3088POPC   C1B42583  10.786  16.856   6.367
 3088POPC   C2B42584  10.817  16.807   6.839
 3088POPC   C3B42585  10.865  17.070   7.212
 3088POPC   C4B42586  10.873  17.028   7.686
 3089POPC   NC342587  32.554   6.966   5.360
 3089POPC   PO442588  33.231   6.783   5.473
 3089POPC   GL142589  32.880   6.739   5.764
 3089POPC   GL242590  32.863   7.095   5.811
 3089POPC   C1A42591  32.984   6.538   6.181
 3089POPC   D2A42592  33.157   6.288   6.529
 3089POPC   C3A42593  33.003   6.403   6.934
 3089POPC   C4A42594  33.120   6.424   7.380
 3089POPC   C1B42595  33.100   7.047   6.245
 3089POPC   C2B42596  33.291   6.802   6.621
 3089POPC   C3B42597  33.286   6.804   7.095
 3089POPC   C4B42598  33.246   6.901   7.570
 3090POPC   NC342599  34.907   2.219   5.290
 3090POPC   PO442600  34.595   1.568   5.504
 3090POPC   GL142601  34.717   1.758   5.858
 3090POPC   GL242602  34.627   2.063   5.692
 3090POPC   C1A42603  34.489   1.958   6.194
 3090POPC   D2A42604  34.190   2.178   6.450
 3090POPC   C3A42605  34.433   2.164   6.803
 3090POPC   C4A42606  34.382   2.185   7.223
 3090POPC   C1B42607  34.878   2.255   5.998
 3090POPC   C2B42608  34.856   2.198   6.456
 3090POPC   C3B42609  35.039   2.156   6.844
 3090POPC   C4B42610  34.861   2.294   7.215
 3091POPC   NC342611   7.984  10.463   5.511
 3091POPC   PO442612   8.442  10.064   5.442
 3091POPC   GL142613   8.300  10.273   5.871
 3091POPC   GL242614   8.242  10.632   5.923
 3091POPC   C1A42615   8.358  10.331   6.329
 3091POPC   D2A42616   8.196  10.616   6.633
 3091POPC   C3A42617   8.120  10.420   7.027
 3091POPC   C4A42618   8.278  10.346   7.411
 3091POPC   C1B42619   7.979  10.880   6.209
 3091POPC   C2B42620   7.965  11.120   6.571
 3091POPC   C3B42621   7.901  10.912   6.968
 3091POPC   C4B42622   7.613  11.078   7.275
 3092POPC   NC342623  27.358  14.717   5.250
 3092POPC   PO442624  27.071  14.250   5.229
 3092POPC   GL142625  27.382  14.379   5.628
 3092POPC   GL242626  27.193  14.389   5.930
 3092POPC   C1A42627  27.634  14.625   5.995
 3092POPC   D2A42628  27.780  14.681   6.431
 3092POPC   C3A42629  27.838  14.744   6.887
 3092POPC   C4A42630  27.916  14.510   7.251
 3092POPC   C1B42631  27.252  14.616   6.337
 3092POPC   C2B42632  27.343  14.767   6.763
 3092POPC   C3B42633  27.395  14.733   7.234
 3092POPC   C4B42634  27.203  14.617   7.660
 3093POPC   NC342635  40.112  25.662   5.591
 3093POPC   PO442636  40.119  25.029   5.268
 3093POPC   GL142637  40.128  25.136   5.741
 3093POPC   GL242638  39.814  25.345   5.865
 3093POPC   C1A42639  39.993  25.014   6.195
 3093POPC   D2A42640  39.752  25.286   6.517
 3093POPC   C3A42641  39.904  25.366   6.884
 3093POPC   C4A42642  40.095  25.227   7.216
 3093POPC   C1B42643  40.027  25.591   6.236
 3093POPC   C2B42644  40.320  25.677   6.615
 3093POPC   C3B42645  40.405  25.636   7.068
 3093POPC   C4B42646  40.226  25.651   7.486
 3094POPC   NC342647  41.061  30.990   5.659
 3094POPC   PO442648  40.565  30.793   5.333
 3094POPC   GL142649  40.736  30.534   5.736
 3094POPC   GL242650  41.033  30.607   5.984
 3094POPC   C1A42651  40.625  30.487   6.206
 3094POPC   D2A42652  40.908  30.512   6.577
 3094POPC   C3A42653  40.646  30.506   6.946
 3094POPC   C4A42654  40.541  30.413   7.384
 3094POPC   C1B42655  40.911  30.952   6.325
 3094POPC   C2B42656  41.015  31.242   6.689
 3094POPC   C3B42657  41.083  31.140   7.130
 3094POPC   C4B42658  40.859  30.802   7.317
 3095POPC   NC342659  36.731   4.375   5.294
 3095POPC   PO442660  37.400   4.265   5.373
 3095POPC   GL142661  37.102   4.318   5.772
 3095POPC   GL242662  36.782   4.159   5.780
 3095POPC   C1A42663  36.942   4.309   6.253
 3095POPC   D2A42664  36.865   4.635   6.583
 3095POPC   C3A42665  36.994   4.545   6.994
 3095POPC   C4A42666  37.100   4.301   7.342
 3095POPC   C1B42667  36.538   4.503   6.038
 3095POPC   C2B42668  36.426   4.387   6.485
 3095POPC   C3B42669  36.624   4.233   6.906
 3095POPC   C4B42670  36.613   4.429   7.340
 3096POPC   NC342671  13.029   5.723   5.325
 3096POPC   PO442672  12.422   5.890   5.173
 3096POPC   GL142673  12.715   5.989   5.613
 3096POPC   GL242674  13.022   6.156   5.632
 3096POPC   C1A42675  12.821   5.800   6.070
 3096POPC   D2A42676  12.728   5.825   6.546
 3096POPC   C3A42677  13.030   5.788   6.925
 3096POPC   C4A42678  12.970   5.464   7.247
 3096POPC   C1B42679  13.040   6.257   6.102
 3096POPC   C2B42680  13.061   6.233   6.564
 3096POPC   C3B42681  12.881   6.289   6.983
 3096POPC   C4B42682  13.162   6.179   7.277
 3097POPC   NC342683   8.613   1.859   5.606
 3097POPC   PO442684   9.165   1.921   5.258
 3097POPC   GL142685   9.125   1.857   5.720
 3097POPC   GL242686   9.022   2.203   5.783
 3097POPC   C1A42687   8.941   1.839   6.177
 3097POPC   D2A42688   8.706   1.968   6.565
 3097POPC   C3A42689   8.917   1.786   6.925
 3097POPC   C4A42690   9.161   1.730   7.322
 3097POPC   C1B42691   8.853   2.345   6.181
 3097POPC   C2B42692   8.789   2.511   6.614
 3097POPC   C3B42693   8.901   2.305   7.007
 3097POPC   C4B42694   9.123   2.240   7.414
 3098POPC   NC342695  10.483  11.802   5.457
 3098POPC   PO442696  10.404  12.495   5.309
 3098POPC   GL142697  10.463  12.263   5.712
 3098POPC   GL242698  10.794  12.094   5.740
 3098POPC   C1A42699  10.418  12.076   6.137
 3098POPC   D2A42700  10.416  12.320   6.521
 3098POPC   C3A42701  10.339  12.084   6.897
 3098POPC   C4A42702  10.508  11.993   7.277
 3098POPC   C1B42703  10.908  11.874   6.137
 3098POPC   C2B42704  10.773  11.933   6.569
 3098POPC   C3B42705  10.891  11.790   6.994
 3098POPC   C4B42706  10.764  11.534   7.360
 3099POPC   NC342707  21.472  31.402   5.320
 3099POPC   PO442708  20.962  31.280   5.772
 3099POPC   GL142709  21.403  31.462   5.848
 3099POPC   GL242710  21.743  31.308   5.777
 3099POPC   C1A42711  21.475  31.534   6.283
 3099POPC   D2A42712  21.206  31.431   6.648
 3099POPC   C3A42713  21.359  31.565   7.016
 3099POPC   C4A42714  21.381  31.501   7.467
 3099POPC   C1B42715  21.772  31.129   6.196
 3099POPC   C2B42716  21.707  31.269   6.649
 3099POPC   C3B42717  21.713  31.216   7.082
 3099POPC   C4B42718  21.898  31.417   7.420
 3100POPC   NC342719  16.872  27.431   5.404
 3100POPC   PO442720  16.230  27.702   5.493
 3100POPC   GL142721  16.600  27.553   5.855
 3100POPC   GL242722  16.993  27.435   5.886
 3100POPC   C1A42723  16.834  27.753   6.253
 3100POPC   D2A42724  17.182  27.585   6.551
 3100POPC   C3A42725  17.020  27.505   6.991
 3100POPC   C4A42726  16.564  27.573   7.120
 3100POPC   C1B42727  16.796  27.241   6.225
 3100POPC   C2B42728  16.703  27.389   6.624
 3100POPC   C3B42729  16.688  27.101   6.994
 3100POPC   C4B42730  16.791  27.205   7.420
 3101POPC   NC342731  36.552  28.674   5.334
 3101POPC   PO442732  37.063  28.123   5.462
 3101POPC   GL142733  36.875  28.137   5.844
 3101POPC   GL242734  36.599  27.953   5.875
 3101POPC   C1A42735  36.868  28.161   6.297
 3101POPC   D2A42736  37.179  28.071   6.595
 3101POPC   C3A42737  37.120  28.443   6.811
 3101POPC   C4A42738  36.719  28.613   7.011
 3101POPC   C1B42739  36.390  27.986   6.233
 3101POPC   C2B42740  36.457  28.133   6.650
 3101POPC   C3B42741  36.630  28.116   7.045
 3101POPC   C4B42742  37.012  28.240   7.248
 3102POPC   NC342743   2.367  41.495   5.523
 3102POPC   PO442744   1.728  41.705   5.356
 3102POPC   GL142745   1.937  41.540   5.802
 3102POPC   GL242746   2.230  41.296   5.957
 3102POPC   C1A42747   1.973  41.678   6.244
 3102POPC   D2A42748   1.860  41.869   6.620
 3102POPC   C3A42749   1.827  41.626   6.964
 3102POPC   C4A42750   1.762  41.785   7.363
 3102POPC   C1B42751   2.454  41.552   6.240
 3102POPC   C2B42752   2.371  41.728   6.619
 3102POPC   C3B42753   2.345  41.486   6.952
 3102POPC   C4B42754   2.166  41.467   7.337
 3103POPC   NC342755  11.567  37.601   5.520
 3103POPC   PO442756  11.046  37.977   5.310
 3103POPC   GL142757  11.191  37.882   5.743
 3103POPC   GL242758  11.530  38.064   5.746
 3103POPC   C1A42759  11.108  37.633   6.143
 3103POPC   D2A42760  10.970  37.427   6.545
 3103POPC   C3A42761  11.175  37.450   6.946
 3103POPC   C4A42762  10.982  37.635   7.345
 3103POPC   C1B42763  11.583  37.823   6.142
 3103POPC   C2B42764  11.493  37.594   6.513
 3103POPC   C3B42765  11.609  37.716   6.916
 3103POPC   C4B42766  11.461  37.767   7.300
 3104POPC   NC342767  43.970  23.209   5.514
 3104POPC   PO442768  44.017  22.555   5.686
 3104POPC   GL142769  43.747  22.874   5.848
 3104POPC   GL242770  43.683  23.261   5.920
 3104POPC   C1A42771  43.642  22.842   6.245
 3104POPC   D2A42772  43.946  22.706   6.542
 3104POPC   C3A42773  43.820  22.760   6.956
 3104POPC   C4A42774  44.061  22.823   7.302
 3104POPC   C1B42775  43.855  23.291   6.290
 3104POPC   C2B42776  43.801  23.185   6.684
 3104POPC   C3B42777  44.062  23.234   7.000
 3104POPC   C4B42778  43.955  23.398   7.376
 3105POPC   NC342779   0.123  26.268   5.560
 3105POPC   PO442780   0.407  25.628   5.463
 3105POPC   GL142781   0.551  25.987   5.738
 3105POPC   GL242782   0.239  25.973   5.953
 3105POPC   C1A42783   0.671  26.077   6.185
 3105POPC   D2A42784   0.339  25.993   6.488
 3105POPC   C3A42785   0.349  26.208   6.865
 3105POPC   C4A42786   0.667  26.305   7.160
 3105POPC   C1B42787   0.099  25.612   6.194
 3105POPC   C2B42788   0.292  25.447   6.556
 3105POPC   C3B42789   0.317  25.685   6.930
 3105POPC   C4B42790   0.411  25.892   7.282
 3106POPC   NC342791  24.118  29.773   5.596
 3106POPC   PO442792  24.669  30.133   5.369
 3106POPC   GL142793  24.488  30.117   5.749
 3106POPC   GL242794  24.193  30.237   5.863
 3106POPC   C1A42795  24.598  29.994   6.146
 3106POPC   D2A42796  24.426  29.875   6.532
 3106POPC   C3A42797  24.623  29.997   6.869
 3106POPC   C4A42798  24.516  29.889   7.266
 3106POPC   C1B42799  24.232  30.321   6.289
 3106POPC   C2B42800  24.029  30.373   6.669
 3106POPC   C3B42801  24.221  30.274   7.057
 3106POPC   C4B42802  24.012  30.034   7.303
 3107POPC   NC342803  20.102  24.658   4.948
 3107POPC   PO442804  19.968  24.178   5.470
 3107POPC   GL142805  19.923  24.518   5.791
 3107POPC   GL242806  19.594  24.551   5.896
 3107POPC   C1A42807  19.965  24.508   6.243
 3107POPC   D2A42808  19.847  24.291   6.632
 3107POPC   C3A42809  19.769  24.569   6.994
 3107POPC   C4A42810  19.808  24.476   7.398
 3107POPC   C1B42811  19.427  24.468   6.306
 3107POPC   C2B42812  19.372  24.377   6.733
 3107POPC   C3B42813  19.518  24.145   7.109
 3107POPC   C4B42814  19.720  23.946   7.475
 3108POPC   NC342815   0.953   7.889   5.381
 3108POPC   PO442816   1.440   8.299   5.524
 3108POPC   GL142817   1.070   8.238   5.787
 3108POPC   GL242818   1.094   7.880   5.848
 3108POPC   C1A42819   1.060   8.360   6.225
 3108POPC   D2A42820   1.303   8.223   6.623
 3108POPC   C3A42821   1.124   8.327   7.047
 3108POPC   C4A42822   1.265   8.358   7.453
 3108POPC   C1B42823   1.259   7.884   6.218
 3108POPC   C2B42824   1.078   7.759   6.589
 3108POPC   C3B42825   1.204   7.843   6.963
 3108POPC   C4B42826   1.119   7.822   7.352
 3109POPC   NC342827  36.873  32.952   5.537
 3109POPC   PO442828  36.549  33.515   5.741
 3109POPC   GL142829  36.591  33.109   5.937
 3109POPC   GL242830  36.994  33.126   5.985
 3109POPC   C1A42831  36.704  32.887   6.313
 3109POPC   D2A42832  36.930  33.114   6.608
 3109POPC   C3A42833  36.657  33.149   6.923
 3109POPC   C4A42834  36.801  33.080   7.296
 3109POPC   C1B42835  37.329  33.026   6.270
 3109POPC   C2B42836  37.422  32.968   6.702
 3109POPC   C3B42837  37.150  32.822   7.025
 3109POPC   C4B42838  37.174  32.742   7.473
 3110POPC   NC342839  43.339  44.774   5.334
 3110POPC   PO442840  42.731  44.734   5.175
 3110POPC   GL142841  42.968  44.628   5.667
 3110POPC   GL242842  42.893  44.355   5.896
 3110POPC   C1A42843  42.973  44.799   6.142
 3110POPC   D2A42844  43.204  44.715   6.548
 3110POPC   C3A42845  43.044  44.625   6.976
 3110POPC   C4A42846  43.243  44.788   7.361
 3110POPC   C1B42847  43.289  44.358   6.162
 3110POPC   C2B42848  43.548  44.327   6.591
 3110POPC   C3B42849  43.523  44.421   7.082
 3110POPC   C4B42850  43.614  44.495   7.566
 3111POPC   NC342851   3.051   8.916   5.336
 3111POPC   PO442852   2.542   9.356   5.323
 3111POPC   GL142853   2.703   9.084   5.694
 3111POPC   GL242854   2.881   8.757   5.786
 3111POPC   C1A42855   2.686   9.099   6.162
 3111POPC   D2A42856   2.700   8.956   6.616
 3111POPC   C3A42857   2.902   9.199   6.973
 3111POPC   C4A42858   3.148   9.134   7.326
 3111POPC   C1B42859   2.896   8.631   6.222
 3111POPC   C2B42860   3.144   8.652   6.599
 3111POPC   C3B42861   2.978   8.711   6.986
 3111POPC   C4B42862   2.585   8.817   7.160
 3112POPC   NC342863   1.370  26.671   5.269
 3112POPC   PO442864   1.927  27.043   5.367
 3112POPC   GL142865   1.835  26.851   5.748
 3112POPC   GL242866   1.535  27.006   5.819
 3112POPC   C1A42867   1.923  26.907   6.211
 3112POPC   D2A42868   1.967  27.064   6.654
 3112POPC   C3A42869   2.096  26.958   7.107
 3112POPC   C4A42870   2.257  26.711   7.490
 3112POPC   C1B42871   1.414  26.826   6.234
 3112POPC   C2B42872   1.406  26.689   6.663
 3112POPC   C3B42873   1.594  26.860   7.027
 3112POPC   C4B42874   1.757  26.765   7.437
 3113POPC   NC342875  12.737  11.874   5.354
 3113POPC   PO442876  12.985  12.443   5.525
 3113POPC   GL142877  12.969  12.108   5.839
 3113POPC   GL242878  12.630  12.004   5.829
 3113POPC   C1A42879  12.882  12.197   6.278
 3113POPC   D2A42880  12.712  12.495   6.584
 3113POPC   C3A42881  12.921  12.322   6.959
 3113POPC   C4A42882  13.043  11.938   7.159
 3113POPC   C1B42883  12.620  11.756   6.201
 3113POPC   C2B42884  12.773  11.800   6.608
 3113POPC   C3B42885  12.623  11.674   6.985
 3113POPC   C4B42886  12.636  11.761   7.406
 3114POPC   NC342887  42.016  36.770   5.484
 3114POPC   PO442888  41.464  36.858   5.077
 3114POPC   GL142889  41.392  36.882   5.564
 3114POPC   GL242890  41.065  36.874   5.767
 3114POPC   C1A42891  41.523  36.808   6.021
 3114POPC   D2A42892  41.562  36.977   6.471
 3114POPC   C3A42893  41.626  36.758   6.893
 3114POPC   C4A42894  41.729  36.936   7.299
 3114POPC   C1B42895  41.074  36.971   6.255
 3114POPC   C2B42896  41.126  36.890   6.743
 3114POPC   C3B42897  41.219  37.062   7.153
 3114POPC   C4B42898  41.280  37.423   7.451
 3115POPC   NC342899  41.177  40.983   5.615
 3115POPC   PO442900  40.609  40.905   5.392
 3115POPC   GL142901  40.701  40.814   5.795
 3115POPC   GL242902  40.975  40.587   5.840
 3115POPC   C1A42903  40.565  40.822   6.210
 3115POPC   D2A42904  40.462  40.999   6.608
 3115POPC   C3A42905  40.621  40.807   6.968
 3115POPC   C4A42906  40.759  41.054   7.301
 3115POPC   C1B42907  41.072  40.841   6.228
 3115POPC   C2B42908  41.001  41.020   6.631
 3115POPC   C3B42909  41.136  40.830   7.007
 3115POPC   C4B42910  41.083  40.660   7.383
 3116POPC   NC342911  38.036  15.515   5.514
 3116POPC   PO442912  38.084  14.814   5.573
 3116POPC   GL142913  37.814  15.149   5.823
 3116POPC   GL242914  37.434  15.215   5.854
 3116POPC   C1A42915  37.818  15.330   6.245
 3116POPC   D2A42916  38.015  15.166   6.627
 3116POPC   C3A42917  37.908  15.231   7.043
 3116POPC   C4A42918  37.970  15.513   7.370
 3116POPC   C1B42919  37.312  15.214   6.306
 3116POPC   C2B42920  37.523  15.388   6.685
 3116POPC   C3B42921  37.423  15.334   7.122
 3116POPC   C4B42922  37.440  14.890   7.150
 3117POPC   NC342923  34.987  23.899   5.454
 3117POPC   PO442924  35.440  23.407   5.326
 3117POPC   GL142925  35.506  23.605   5.769
 3117POPC   GL242926  35.344  23.900   5.864
 3117POPC   C1A42927  35.399  23.536   6.223
 3117POPC   D2A42928  35.374  23.757   6.619
 3117POPC   C3A42929  35.436  23.510   7.003
 3117POPC   C4A42930  35.275  23.462   7.448
 3117POPC   C1B42931  35.069  23.929   6.202
 3117POPC   C2B42932  34.954  24.149   6.555
 3117POPC   C3B42933  34.990  24.151   6.974
 3117POPC   C4B42934  35.085  23.830   7.184
 3118POPC   NC342935  40.823  17.321   5.378
 3118POPC   PO442936  40.696  16.597   5.395
 3118POPC   GL142937  40.762  16.902   5.753
 3118POPC   GL242938  40.816  16.581   5.933
 3118POPC   C1A42939  40.823  17.029   6.198
 3118POPC   D2A42940  40.920  16.778   6.571
 3118POPC   C3A42941  40.755  16.963   6.944
 3118POPC   C4A42942  40.677  16.847   7.385
 3118POPC   C1B42943  41.229  16.469   6.093
 3118POPC   C2B42944  41.426  16.690   6.438
 3118POPC   C3B42945  41.334  16.543   6.852
 3118POPC   C4B42946  40.947  16.520   7.074
 3119POPC   NC342947  33.434  12.300   5.663
 3119POPC   PO442948  33.982  12.230   5.316
 3119POPC   GL142949  33.923  12.122   5.728
 3119POPC   GL242950  34.254  12.268   5.771
 3119POPC   C1A42951  33.711  11.954   6.130
 3119POPC   D2A42952  33.658  11.812   6.546
 3119POPC   C3A42953  33.745  12.123   6.857
 3119POPC   C4A42954  33.625  11.952   7.213
 3119POPC   C1B42955  34.195  12.038   6.140
 3119POPC   C2B42956  34.138  12.007   6.540
 3119POPC   C3B42957  34.265  12.071   6.946
 3119POPC   C4B42958  34.070  12.162   7.311
 3120POPC   NC342959  42.670   5.297   5.037
 3120POPC   PO442960  42.281   4.843   5.390
 3120POPC   GL142961  42.108   4.937   5.825
 3120POPC   GL242962  42.172   5.284   5.813
 3120POPC   C1A42963  42.180   5.038   6.282
 3120POPC   D2A42964  42.562   4.955   6.550
 3120POPC   C3A42965  42.489   4.855   7.010
 3120POPC   C4A42966  42.060   4.887   7.144
 3120POPC   C1B42967  42.548   5.350   6.085
 3120POPC   C2B42968  42.531   5.466   6.511
 3120POPC   C3B42969  42.282   5.299   6.831
 3120POPC   C4B42970  42.323   5.310   7.267
 3121POPC   NC342971  42.118  22.821   5.396
 3121POPC   PO442972  42.742  23.096   5.301
 3121POPC   GL142973  42.506  23.044   5.696
 3121POPC   GL242974  42.494  22.712   5.714
 3121POPC   C1A42975  42.653  22.887   6.145
 3121POPC   D2A42976  42.458  22.836   6.509
 3121POPC   C3A42977  42.543  22.956   6.902
 3121POPC   C4A42978  42.316  22.882   7.234
 3121POPC   C1B42979  42.153  22.800   6.061
 3121POPC   C2B42980  41.971  22.733   6.511
 3121POPC   C3B42981  42.125  22.573   6.883
 3121POPC   C4B42982  41.908  22.588   7.288
 3122POPC   NC342983  43.715  43.860   5.486
 3122POPC   PO442984  43.990  44.381   5.516
 3122POPC   GL142985  43.744  44.182   5.871
 3122POPC   GL242986  43.950  43.847   5.934
 3122POPC   C1A42987  43.533  43.914   6.203
 3122POPC   D2A42988  43.747  43.788   6.557
 3122POPC   C3A42989  43.594  43.919   6.951
 3122POPC   C4A42990  43.729  44.029   7.341
 3122POPC   C1B42991  44.209  43.703   6.298
 3122POPC   C2B42992  44.248  43.698   6.732
 3122POPC   C3B42993  44.126  43.851   7.096
 3122POPC   C4B42994  44.188  43.817   7.558
 3123POPC   NC342995  30.696   8.991   5.420
 3123POPC   PO442996  30.880   8.347   5.257
 3123POPC   GL142997  30.616   8.304   5.661
 3123POPC   GL242998  30.737   8.600   5.782
 3123POPC   C1A42999  30.686   8.134   6.124
 3123POPC   D2A43000  30.797   7.826   6.463
 3123POPC   C3A43001  30.715   7.997   6.853
 3123POPC   C4A43002  30.761   8.123   7.258
 3123POPC   C1B43003  30.751   8.664   6.228
 3123POPC   C2B43004  30.677   8.486   6.631
 3123POPC   C3B43005  30.820   8.610   7.030
 3123POPC   C4B43006  30.632   8.565   7.438
 3124POPC   NC343007  21.653  44.218   5.389
 3124POPC   PO443008  21.173  43.772   5.470
 3124POPC   GL143009  21.416  43.947   5.780
 3124POPC   GL243010  21.155  44.173   5.826
 3124POPC   C1A43011  21.516  44.061   6.240
 3124POPC   D2A43012  21.762  43.858   6.587
 3124POPC   C3A43013  21.604  43.907   7.024
 3124POPC   C4A43014  21.360  43.982   7.467
 3124POPC   C1B43015  21.066  43.852   6.146
 3124POPC   C2B43016  21.124  43.991   6.570
 3124POPC   C3B43017  21.090  44.009   7.015
 3124POPC   C4B43018  21.010  43.673   7.289
 3125POPC   NC343019   9.206  40.228   5.208
 3125POPC   PO443020   8.686  39.947   5.211
 3125POPC   GL143021   8.908  40.104   5.649
 3125POPC   GL243022   9.201  39.973   5.891
 3125POPC   C1A43023   8.814  40.138   6.145
 3125POPC   D2A43024   8.792  39.867   6.528
 3125POPC   C3A43025   8.893  40.123   6.890
 3125POPC   C4A43026   8.717  40.350   7.207
 3125POPC   C1B43027   9.299  40.007   6.397
 3125POPC   C2B43028   9.241  39.751   6.774
 3125POPC   C3B43029   8.863  39.619   7.008
 3125POPC   C4B43030   8.796  39.879   7.358
 3126POPC   NC343031  35.487  15.486   5.198
 3126POPC   PO443032  35.286  14.880   5.257
 3126POPC   GL143033  35.275  15.071   5.664
 3126POPC   GL243034  35.560  15.331   5.683
 3126POPC   C1A43035  35.098  15.070   6.088
 3126POPC   D2A43036  35.213  14.976   6.508
 3126POPC   C3A43037  35.124  15.257   6.837
 3126POPC   C4A43038  35.215  15.355   7.258
 3126POPC   C1B43039  35.587  15.264   6.118
 3126POPC   C2B43040  35.537  15.396   6.526
 3126POPC   C3B43041  35.618  15.216   6.910
 3126POPC   C4B43042  35.796  15.392   7.227
 3127POPC   NC343043   7.175   2.495   5.253
 3127POPC   PO443044   7.729   2.843   5.300
 3127POPC   GL143045   7.384   2.774   5.657
 3127POPC   GL243046   7.392   2.449   5.739
 3127POPC   C1A43047   7.227   2.737   6.128
 3127POPC   D2A43048   7.442   2.734   6.552
 3127POPC   C3A43049   7.348   2.705   7.004
 3127POPC   C4A43050   7.386   2.925   7.416
 3127POPC   C1B43051   7.751   2.633   6.004
 3127POPC   C2B43052   7.903   2.524   6.431
 3127POPC   C3B43053   7.801   2.445   6.864
 3127POPC   C4B43054   7.818   2.721   7.227
 3128POPC   NC343055   0.655  43.583   5.394
 3128POPC   PO443056   0.162  44.014   5.471
 3128POPC   GL143057   0.308  43.728   5.816
 3128POPC   GL243058   0.670  43.782   5.861
 3128POPC   C1A43059   0.361  43.820   6.268
 3128POPC   D2A43060   0.443  44.055   6.654
 3128POPC   C3A43061   0.299  43.777   6.986
 3128POPC   C4A43062   0.023  43.684   7.348
 3128POPC   C1B43063   0.745  43.490   6.197
 3128POPC   C2B43064   0.624  43.379   6.635
 3128POPC   C3B43065   0.789  43.559   7.025
 3128POPC   C4B43066   0.741  44.003   7.110
 3129POPC   NC343067   7.723  33.464   5.340
 3129POPC   PO443068   7.269  33.948   5.235
 3129POPC   GL143069   7.379  33.798   5.676
 3129POPC   GL243070   7.641  33.570   5.821
 3129POPC   C1A43071   7.310  33.939   6.112
 3129POPC   D2A43072   7.311  34.187   6.503
 3129POPC   C3A43073   7.187  33.931   6.856
 3129POPC   C4A43074   7.283  33.989   7.270
 3129POPC   C1B43075   7.578  33.537   6.249
 3129POPC   C2B43076   7.622  33.798   6.581
 3129POPC   C3B43077   7.656  33.728   6.988
 3129POPC   C4B43078   7.403  33.449   7.222
 3130POPC   NC343079  20.601  29.471   5.373
 3130POPC   PO443080  20.500  28.855   5.169
 3130POPC   GL143081  20.535  28.990   5.615
 3130POPC   GL243082  20.897  29.019   5.710
 3130POPC   C1A43083  20.537  29.124   6.052
 3130POPC   D2A43084  20.369  29.110   6.460
 3130POPC   C3A43085  20.555  29.268   6.845
 3130POPC   C4A43086  20.477  29.094   7.280
 3130POPC   C1B43087  21.080  29.009   6.116
 3130POPC   C2B43088  20.884  28.999   6.495
 3130POPC   C3B43089  21.057  29.029   6.861
 3130POPC   C4B43090  21.037  28.819   7.240
 3131POPC   NC343091  29.466   2.697   5.327
 3131POPC   PO443092  28.794   2.776   5.243
 3131POPC   GL143093  28.927   2.726   5.673
 3131POPC   GL243094  28.801   3.001   5.888
 3131POPC   C1A43095  29.224   2.705   6.034
 3131POPC   D2A43096  29.328   2.927   6.417
 3131POPC   C3A43097  29.482   2.750   6.789
 3131POPC   C4A43098  29.284   2.705   7.172
 3131POPC   C1B43099  28.812   2.839   6.330
 3131POPC   C2B43100  28.953   2.852   6.784
 3131POPC   C3B43101  28.890   3.012   7.216
 3131POPC   C4B43102  28.669   3.067   7.622
 3132POPC   NC343103  38.861  41.120   5.353
 3132POPC   PO443104  39.383  40.694   5.165
 3132POPC   GL143105  39.160  40.747   5.613
 3132POPC   GL243106  39.114  41.081   5.795
 3132POPC   C1A43107  39.297  40.642   6.072
 3132POPC   D2A43108  39.571  40.765   6.455
 3132POPC   C3A43109  39.495  40.628   6.905
 3132POPC   C4A43110  39.282  40.721   7.332
 3132POPC   C1B43111  39.233  41.119   6.230
 3132POPC   C2B43112  39.129  40.928   6.628
 3132POPC   C3B43113  38.955  40.973   7.021
 3132POPC   C4B43114  39.040  41.242   7.391
 3133POPC   NC343115  42.524  18.664   5.308
 3133POPC   PO443116  42.227  18.045   5.373
 3133POPC   GL143117  42.344  18.158   5.791
 3133POPC   GL243118  42.387  18.514   5.785
 3133POPC   C1A43119  42.131  18.210   6.209
 3133POPC   D2A43120  42.069  18.099   6.643
 3133POPC   C3A43121  42.468  18.147   6.855
 3133POPC   C4A43122  42.575  18.381   7.221
 3133POPC   C1B43123  41.978  18.643   5.980
 3133POPC   C2B43124  41.876  18.614   6.445
 3133POPC   C3B43125  42.191  18.606   6.799
 3133POPC   C4B43126  42.259  18.800   7.215
 3134POPC   NC343127   7.945  42.653   5.655
 3134POPC   PO443128   8.491  42.364   5.295
 3134POPC   GL143129   8.311  42.276   5.735
 3134POPC   GL243130   8.156  41.943   5.795
 3134POPC   C1A43131   8.274  42.392   6.191
 3134POPC   D2A43132   8.483  42.559   6.578
 3134POPC   C3A43133   8.332  42.370   6.948
 3134POPC   C4A43134   7.938  42.457   7.187
 3134POPC   C1B43135   7.993  41.961   6.199
 3134POPC   C2B43136   7.990  42.182   6.583
 3134POPC   C3B43137   7.986  41.994   6.955
 3134POPC   C4B43138   7.922  41.910   7.324
 3135POPC   NC343139  41.104  19.463   5.576
 3135POPC   PO443140  41.663  19.916   5.403
 3135POPC   GL143141  41.395  19.861   5.740
 3135POPC   GL243142  41.633  19.616   5.816
 3135POPC   C1A43143  41.346  19.747   6.203
 3135POPC   D2A43144  41.524  19.851   6.576
 3135POPC   C3A43145  41.309  19.752   6.952
 3135POPC   C4A43146  41.380  20.008   7.310
 3135POPC   C1B43147  41.850  19.613   6.201
 3135POPC   C2B43148  41.984  19.610   6.637
 3135POPC   C3B43149  41.826  19.828   7.001
 3135POPC   C4B43150  41.640  19.587   7.314
 3136POPC   NC343151  41.400   7.845   5.415
 3136POPC   PO443152  41.996   8.297   5.439
 3136POPC   GL143153  41.817   8.306   5.853
 3136POPC   GL243154  41.501   8.154   5.842
 3136POPC   C1A43155  41.672   8.267   6.312
 3136POPC   D2A43156  41.789   8.102   6.703
 3136POPC   C3A43157  41.618   8.277   7.092
 3136POPC   C4A43158  41.705   8.363   7.534
 3136POPC   C1B43159  41.271   7.974   6.217
 3136POPC   C2B43160  41.447   7.703   6.536
 3136POPC   C3B43161  41.403   7.844   6.949
 3136POPC   C4B43162  41.335   8.008   7.417
 3137POPC   NC343163  14.239  21.086   5.432
 3137POPC   PO443164  14.429  21.777   5.442
 3137POPC   GL143165  14.416  21.428   5.776
 3137POPC   GL243166  14.101  21.201   5.906
 3137POPC   C1A43167  14.511  21.310   6.200
 3137POPC   D2A43168  14.303  21.249   6.612
 3137POPC   C3A43169  14.570  21.173   6.976
 3137POPC   C4A43170  14.727  21.339   7.353
 3137POPC   C1B43171  14.029  21.536   6.229
 3137POPC   C2B43172  13.857  21.533   6.668
 3137POPC   C3B43173  13.920  21.528   7.113
 3137POPC   C4B43174  14.211  21.278   7.390
 3138POPC   NC343175  21.494  34.324   5.346
 3138POPC   PO443176  21.200  35.021   5.360
 3138POPC   GL143177  21.243  34.684   5.678
 3138POPC   GL243178  21.590  34.662   5.721
 3138POPC   C1A43179  21.305  34.698   6.154
 3138POPC   D2A43180  21.477  34.671   6.574
 3138POPC   C3A43181  21.219  34.514   6.934
 3138POPC   C4A43182  21.559  34.550   7.288
 3138POPC   C1B43183  21.455  34.265   5.978
 3138POPC   C2B43184  21.426  34.185   6.440
 3138POPC   C3B43185  21.615  34.217   6.876
 3138POPC   C4B43186  21.360  34.095   7.275
 3139POPC   NC343187  17.336  31.018   4.839
 3139POPC   PO443188  17.597  30.656   5.313
 3139POPC   GL143189  17.682  30.650   5.768
 3139POPC   GL243190  17.359  30.734   5.846
 3139POPC   C1A43191  17.739  30.856   6.202
 3139POPC   D2A43192  17.570  30.780   6.631
 3139POPC   C3A43193  17.803  30.917   7.007
 3139POPC   C4A43194  17.762  30.701   7.398
 3139POPC   C1B43195  17.167  30.807   6.255
 3139POPC   C2B43196  17.125  31.032   6.634
 3139POPC   C3B43197  17.283  30.970   7.040
 3139POPC   C4B43198  17.366  30.554   7.108
 3140POPC   NC343199  32.126  32.147   5.335
 3140POPC   PO443200  32.770  32.076   5.454
 3140POPC   GL143201  32.464  32.206   5.740
 3140POPC   GL243202  32.131  32.366   5.813
 3140POPC   C1A43203  32.542  32.317   6.148
 3140POPC   D2A43204  32.496  32.144   6.497
 3140POPC   C3A43205  32.370  32.351   6.831
 3140POPC   C4A43206  32.436  32.307   7.268
 3140POPC   C1B43207  32.031  32.324   6.267
 3140POPC   C2B43208  32.015  32.040   6.629
 3140POPC   C3B43209  31.949  32.197   7.066
 3140POPC   C4B43210  32.009  32.154   7.509
 3141POPC   NC343211   1.024  28.332   5.258
 3141POPC   PO443212   1.527  28.614   5.555
 3141POPC   GL143213   1.106  28.585   5.706
 3141POPC   GL243214   1.011  28.266   5.781
 3141POPC   C1A43215   1.002  28.699   6.124
 3141POPC   D2A43216   1.249  28.728   6.520
 3141POPC   C3A43217   1.256  28.382   6.815
 3141POPC   C4A43218   1.330  28.333   7.266
 3141POPC   C1B43219   1.079  28.179   6.226
 3141POPC   C2B43220   0.933  28.016   6.618
 3141POPC   C3B43221   1.045  27.978   7.043
 3141POPC   C4B43222   1.074  27.943   7.519
 3142POPC   NC343223  40.188  16.374   5.413
 3142POPC   PO443224  39.703  16.853   5.534
 3142POPC   GL143225  39.959  16.631   5.805
 3142POPC   GL243226  40.302  16.694   5.791
 3142POPC   C1A43227  39.930  16.484   6.206
 3142POPC   D2A43228  39.997  16.649   6.595
 3142POPC   C3A43229  39.839  16.560   6.975
 3142POPC   C4A43230  39.805  16.850   7.313
 3142POPC   C1B43231  40.387  16.748   6.218
 3142POPC   C2B43232  40.376  16.973   6.595
 3142POPC   C3B43233  40.244  16.921   7.013
 3142POPC   C4B43234  40.250  16.580   7.271
 3143POPC   NC343235  11.247   9.642   5.207
 3143POPC   PO443236  11.594  10.213   5.251
 3143POPC   GL143237  11.408   9.945   5.607
 3143POPC   GL243238  11.588  10.086   5.855
 3143POPC   C1A43239  11.266   9.707   6.027
 3143POPC   D2A43240  11.024   9.843   6.446
 3143POPC   C3A43241  10.949   9.696   6.897
 3143POPC   C4A43242  11.211   9.562   7.272
 3143POPC   C1B43243  11.352  10.167   6.227
 3143POPC   C2B43244  11.537   9.994   6.550
 3143POPC   C3B43245  11.427   9.851   6.922
 3143POPC   C4B43246  11.455  10.022   7.352
 3144POPC   NC343247  30.113  12.352   5.358
 3144POPC   PO443248  29.705  11.883   5.652
 3144POPC   GL143249  30.080  11.961   5.913
 3144POPC   GL243250  30.187  12.333   5.869
 3144POPC   C1A43251  29.954  11.810   6.333
 3144POPC   D2A43252  30.101  11.860   6.752
 3144POPC   C3A43253  29.839  11.989   7.118
 3144POPC   C4A43254  29.656  12.286   7.453
 3144POPC   C1B43255  30.137  12.287   6.344
 3144POPC   C2B43256  30.011  12.376   6.791
 3144POPC   C3B43257  30.102  12.441   7.238
 3144POPC   C4B43258  30.340  12.428   7.641
 3145POPC   NC343259  23.403  31.178   5.216
 3145POPC   PO443260  23.979  31.444   5.401
 3145POPC   GL143261  23.715  31.291   5.732
 3145POPC   GL243262  23.788  31.542   5.949
 3145POPC   C1A43263  23.515  31.150   6.125
 3145POPC   D2A43264  23.562  31.453   6.475
 3145POPC   C3A43265  23.669  31.277   6.874
 3145POPC   C4A43266  23.795  31.351   7.280
 3145POPC   C1B43267  23.924  31.843   6.280
 3145POPC   C2B43268  23.840  31.875   6.739
 3145POPC   C3B43269  24.075  31.746   7.112
 3145POPC   C4B43270  24.031  31.698   7.585
 3146POPC   NC343271   0.383  21.568   5.529
 3146POPC   PO443272   0.767  21.011   5.573
 3146POPC   GL143273   0.667  21.355   5.873
 3146POPC   GL243274   0.838  21.685   5.797
 3146POPC   C1A43275   0.295  21.418   6.191
 3146POPC   D2A43276   0.074  21.294   6.577
 3146POPC   C3A43277   0.321  21.403   6.899
 3146POPC   C4A43278   0.285  21.629   7.260
 3146POPC   C1B43279   0.672  21.780   6.186
 3146POPC   C2B43280   0.717  21.599   6.577
 3146POPC   C3B43281   0.699  21.748   6.992
 3146POPC   C4B43282   0.537  22.082   7.237
 3147POPC   NC343283  35.731  34.257   5.455
 3147POPC   PO443284  35.272  34.735   5.612
 3147POPC   GL143285  35.154  34.468   5.942
 3147POPC   GL243286  35.181  34.114   5.827
 3147POPC   C1A43287  35.274  34.615   6.369
 3147POPC   D2A43288  35.411  34.965   6.656
 3147POPC   C3A43289  35.314  34.793   7.047
 3147POPC   C4A43290  35.527  34.469   7.189
 3147POPC   C1B43291  35.385  34.113   6.251
 3147POPC   C2B43292  35.452  34.209   6.705
 3147POPC   C3B43293  35.208  34.089   7.058
 3147POPC   C4B43294  34.976  34.419   7.211
 3148POPC   NC343295  16.236  15.825   5.138
 3148POPC   PO443296  16.842  15.971   5.344
 3148POPC   GL143297  16.672  15.837   5.765
 3148POPC   GL243298  16.649  16.172   5.911
 3148POPC   C1A43299  16.672  15.784   6.247
 3148POPC   D2A43300  16.830  15.951   6.672
 3148POPC   C3A43301  16.573  15.846   7.040
 3148POPC   C4A43302  16.630  15.686   7.457
 3148POPC   C1B43303  17.017  16.168   6.226
 3148POPC   C2B43304  17.216  16.309   6.634
 3148POPC   C3B43305  17.211  16.174   7.067
 3148POPC   C4B43306  16.851  16.164   7.328
 3149POPC   NC343307   5.815  18.959   5.456
 3149POPC   PO443308   6.378  18.718   5.726
 3149POPC   GL143309   6.027  18.887   5.945
 3149POPC   GL243310   5.874  19.223   5.895
 3149POPC   C1A43311   6.073  19.013   6.365
 3149POPC   D2A43312   6.006  18.852   6.777
 3149POPC   C3A43313   6.142  19.111   7.108
 3149POPC   C4A43314   6.330  18.794   7.322
 3149POPC   C1B43315   5.591  19.193   6.236
 3149POPC   C2B43316   5.692  19.226   6.649
 3149POPC   C3B43317   5.624  19.078   7.032
 3149POPC   C4B43318   5.372  19.207   7.310
 3150POPC   NC343319  35.840  26.378   5.394
 3150POPC   PO443320  36.218  25.756   5.359
 3150POPC   GL143321  36.082  25.914   5.766
 3150POPC   GL243322  36.103  26.267   5.815
 3150POPC   C1A43323  35.976  25.828   6.205
 3150POPC   D2A43324  36.112  25.874   6.625
 3150POPC   C3A43325  35.896  25.903   7.021
 3150POPC   C4A43326  36.123  26.210   7.217
 3150POPC   C1B43327  35.888  26.342   6.231
 3150POPC   C2B43328  35.990  26.396   6.683
 3150POPC   C3B43329  35.735  26.491   7.065
 3150POPC   C4B43330  35.861  26.511   7.527
 3151POPC   NC343331  11.065  28.423   5.392
 3151POPC   PO443332  11.709  28.688   5.462
 3151POPC   GL143333  11.454  28.398   5.803
 3151POPC   GL243334  11.132  28.136   5.801
 3151POPC   C1A43335  11.602  28.401   6.255
 3151POPC   D2A43336  11.475  28.359   6.711
 3151POPC   C3A43337  11.613  28.494   7.139
 3151POPC   C4A43338  11.550  28.688   7.572
 3151POPC   C1B43339  11.110  28.341   6.233
 3151POPC   C2B43340  10.934  28.377   6.652
 3151POPC   C3B43341  11.078  28.358   7.078
 3151POPC   C4B43342  11.292  28.209   7.473
 3152POPC   NC343343  30.542  17.792   5.453
 3152POPC   PO443344  30.790  17.129   5.315
 3152POPC   GL143345  30.540  17.308   5.659
 3152POPC   GL243346  30.800  17.519   5.820
 3152POPC   C1A43347  30.398  17.351   6.096
 3152POPC   D2A43348  30.451  17.596   6.452
 3152POPC   C3A43349  30.356  17.488   6.859
 3152POPC   C4A43350  30.410  17.701   7.237
 3152POPC   C1B43351  30.918  17.633   6.248
 3152POPC   C2B43352  30.892  17.501   6.680
 3152POPC   C3B43353  30.930  17.683   7.073
 3152POPC   C4B43354  31.098  18.114   7.001
 3153POPC   NC343355   9.330  31.304   5.409
 3153POPC   PO443356   8.828  31.752   5.374
 3153POPC   GL143357   8.894  31.481   5.728
 3153POPC   GL243358   8.906  31.116   5.635
 3153POPC   C1A43359   8.740  31.602   6.134
 3153POPC   D2A43360   8.854  31.760   6.521
 3153POPC   C3A43361   9.051  31.448   6.785
 3153POPC   C4A43362   8.919  31.479   7.179
 3153POPC   C1B43363   8.819  31.090   6.065
 3153POPC   C2B43364   8.672  31.210   6.486
 3153POPC   C3B43365   8.676  31.094   6.913
 3153POPC   C4B43366   8.734  30.995   7.337
 3154POPC   NC343367  31.340   8.243   5.337
 3154POPC   PO443368  31.761   7.779   5.636
 3154POPC   GL143369  31.502   8.121   5.829
 3154POPC   GL243370  31.107   8.128   5.763
 3154POPC   C1A43371  31.565   8.200   6.287
 3154POPC   D2A43372  31.824   8.098   6.628
 3154POPC   C3A43373  31.632   7.971   7.000
 3154POPC   C4A43374  31.634   8.287   7.303
 3154POPC   C1B43375  31.138   8.379   6.108
 3154POPC   C2B43376  31.110   8.251   6.541
 3154POPC   C3B43377  31.193   8.252   6.986
 3154POPC   C4B43378  31.157   8.450   7.388
 3155POPC   NC343379  33.697  19.743   5.408
 3155POPC   PO443380  34.260  20.096   5.527
 3155POPC   GL143381  34.018  19.788   5.830
 3155POPC   GL243382  33.778  20.008   5.849
 3155POPC   C1A43383  33.833  19.696   6.281
 3155POPC   D2A43384  33.684  19.492   6.668
 3155POPC   C3A43385  33.785  19.729   7.057
 3155POPC   C4A43386  33.604  19.875   7.481
 3155POPC   C1B43387  34.084  20.132   6.219
 3155POPC   C2B43388  34.124  20.032   6.687
 3155POPC   C3B43389  33.975  20.206   7.093
 3155POPC   C4B43390  33.991  20.168   7.571
 3156POPC   NC343391  21.624  36.419   5.424
 3156POPC   PO443392  21.106  35.955   5.343
 3156POPC   GL143393  21.394  35.966   5.700
 3156POPC   GL243394  21.240  36.250   5.805
 3156POPC   C1A43395  21.596  36.113   6.120
 3156POPC   D2A43396  21.583  35.960   6.547
 3156POPC   C3A43397  21.579  36.176   6.893
 3156POPC   C4A43398  21.524  36.192   7.322
 3156POPC   C1B43399  21.087  36.010   6.173
 3156POPC   C2B43400  21.029  36.119   6.578
 3156POPC   C3B43401  21.093  36.189   6.995
 3156POPC   C4B43402  21.252  35.827   7.104
 3157POPC   NC343403  27.348   7.475   5.316
 3157POPC   PO443404  27.805   7.683   5.654
 3157POPC   GL143405  27.633   7.350   5.897
 3157POPC   GL243406  27.316   7.195   5.776
 3157POPC   C1A43407  27.622   7.383   6.347
 3157POPC   D2A43408  27.987   7.384   6.617
 3157POPC   C3A43409  28.010   7.472   7.058
 3157POPC   C4A43410  27.722   7.666   7.326
 3157POPC   C1B43411  27.198   7.552   6.082
 3157POPC   C2B43412  27.261   7.698   6.539
 3157POPC   C3B43413  27.492   7.508   6.863
 3157POPC   C4B43414  27.241   7.465   7.196
 3158POPC   NC343415  13.709  43.810   5.482
 3158POPC   PO443416  14.438  43.836   5.518
 3158POPC   GL143417  14.042  43.851   5.859
 3158POPC   GL243418  13.835  44.178   5.870
 3158POPC   C1A43419  13.658  43.793   6.173
 3158POPC   D2A43420  13.367  43.948   6.512
 3158POPC   C3A43421  13.561  43.891   6.909
 3158POPC   C4A43422  13.492  43.789   7.301
 3158POPC   C1B43423  13.647  44.332   6.279
 3158POPC   C2B43424  13.712  44.364   6.749
 3158POPC   C3B43425  13.751  44.304   7.223
 3158POPC   C4B43426  13.818  44.424   7.675
 3159POPC   NC343427  19.992  30.264   5.368
 3159POPC   PO443428  19.480  29.815   5.332
 3159POPC   GL143429  19.668  30.004   5.756
 3159POPC   GL243430  20.020  30.050   5.829
 3159POPC   C1A43431  19.705  29.949   6.241
 3159POPC   D2A43432  19.889  30.058   6.697
 3159POPC   C3A43433  19.587  29.939   7.079
 3159POPC   C4A43434  19.594  29.878   7.588
 3159POPC   C1B43435  20.203  29.971   6.232
 3159POPC   C2B43436  20.145  29.633   6.549
 3159POPC   C3B43437  20.008  29.627   6.973
 3159POPC   C4B43438  20.042  29.975   7.272
 3160POPC   NC343439  42.482   8.617   5.382
 3160POPC   PO443440  42.638   7.992   5.518
 3160POPC   GL143441  42.366   8.246   5.811
 3160POPC   GL243442  42.499   8.553   5.889
 3160POPC   C1A43443  42.166   8.374   6.224
 3160POPC   D2A43444  42.342   8.561   6.602
 3160POPC   C3A43445  42.099   8.427   6.950
 3160POPC   C4A43446  42.063   8.096   7.230
 3160POPC   C1B43447  42.673   8.332   6.262
 3160POPC   C2B43448  42.787   8.304   6.689
 3160POPC   C3B43449  42.600   8.399   7.080
 3160POPC   C4B43450  42.689   8.448   7.509
 3161POPC   NC343451  38.782  12.480   5.493
 3161POPC   PO443452  38.365  12.996   5.558
 3161POPC   GL143453  38.464  12.688   5.864
 3161POPC   GL243454  38.760  12.592   5.992
 3161POPC   C1A43455  38.280  12.698   6.247
 3161POPC   D2A43456  38.385  12.923   6.611
 3161POPC   C3A43457  38.536  12.647   6.925
 3161POPC   C4A43458  38.456  12.841   7.298
 3161POPC   C1B43459  38.711  13.035   6.177
 3161POPC   C2B43460  38.861  13.169   6.597
 3161POPC   C3B43461  38.817  13.081   7.018
 3161POPC   C4B43462  38.782  13.205   7.411
 3162POPC   NC343463   2.642  34.241   5.519
 3162POPC   PO443464   3.234  34.540   5.225
 3162POPC   GL143465   3.160  34.320   5.697
 3162POPC   GL243466   2.876  34.512   5.876
 3162POPC   C1A43467   3.116  34.243   6.214
 3162POPC   D2A43468   2.878  34.299   6.657
 3162POPC   C3A43469   2.870  34.491   7.120
 3162POPC   C4A43470   3.056  34.505   7.568
 3162POPC   C1B43471   2.660  34.573   6.289
 3162POPC   C2B43472   2.555  34.880   6.626
 3162POPC   C3B43473   2.495  34.856   7.075
 3162POPC   C4B43474   2.762  34.899   7.443
 3163POPC   NC343475  10.445  24.609   5.438
 3163POPC   PO443476  10.576  23.926   5.447
 3163POPC   GL143477  10.471  24.210   5.807
 3163POPC   GL243478  10.248  24.485   5.881
 3163POPC   C1A43479  10.398  24.110   6.231
 3163POPC   D2A43480  10.621  24.248   6.593
 3163POPC   C3A43481  10.358  24.292   6.955
 3163POPC   C4A43482  10.214  24.667   7.160
 3163POPC   C1B43483  10.497  24.610   6.209
 3163POPC   C2B43484  10.460  24.725   6.619
 3163POPC   C3B43485  10.733  24.652   6.947
 3163POPC   C4B43486  10.824  24.539   7.357
 3164POPC   NC343487  23.259  16.908   5.185
 3164POPC   PO443488  22.682  16.733   5.088
 3164POPC   GL143489  22.925  16.818   5.626
 3164POPC   GL243490  22.920  16.496   5.873
 3164POPC   C1A43491  23.100  16.898   6.109
 3164POPC   D2A43492  23.155  16.823   6.622
 3164POPC   C3A43493  22.928  16.992   7.048
 3164POPC   C4A43494  23.029  17.061   7.527
 3164POPC   C1B43495  23.018  16.368   6.334
 3164POPC   C2B43496  23.130  16.132   6.748
 3164POPC   C3B43497  23.032  16.093   7.205
 3164POPC   C4B43498  22.748  16.131   7.546
 3165POPC   NC343499  33.533   8.217   5.538
 3165POPC   PO443500  34.089   8.630   5.376
 3165POPC   GL143501  34.048   8.278   5.707
 3165POPC   GL243502  33.891   7.914   5.775
 3165POPC   C1A43503  34.084   8.165   6.155
 3165POPC   D2A43504  33.811   8.304   6.452
 3165POPC   C3A43505  33.880   8.082   6.815
 3165POPC   C4A43506  33.665   8.123   7.198
 3165POPC   C1B43507  33.616   7.858   6.178
 3165POPC   C2B43508  33.673   7.654   6.608
 3165POPC   C3B43509  33.756   7.642   7.066
 3165POPC   C4B43510  33.650   7.749   7.537
 3166POPC   NC343511  38.386  38.634   5.396
 3166POPC   PO443512  38.014  38.144   5.514
 3166POPC   GL143513  38.340  38.316   5.845
 3166POPC   GL243514  38.530  38.629   5.874
 3166POPC   C1A43515  38.337  38.442   6.323
 3166POPC   D2A43516  38.507  38.233   6.726
 3166POPC   C3A43517  38.440  38.188   7.196
 3166POPC   C4A43518  38.120  38.183   7.536
 3166POPC   C1B43519  38.211  38.884   6.081
 3166POPC   C2B43520  37.939  38.811   6.461
 3166POPC   C3B43521  38.046  38.929   6.911
 3166POPC   C4B43522  38.321  38.727   7.220
 3167POPC   NC343523  44.696  20.908   5.477
 3167POPC   PO443524  44.532  20.261   5.698
 3167POPC   GL143525  44.685  20.595   5.940
 3167POPC   GL243526  44.533  20.917   5.975
 3167POPC   C1A43527  44.541  20.589   6.380
 3167POPC   D2A43528  44.468  20.233   6.662
 3167POPC   C3A43529  44.603  20.357   7.068
 3167POPC   C4A43530   0.052  20.437   7.121
 3167POPC   C1B43531  44.920  20.922   6.255
 3167POPC   C2B43532  44.853  20.835   6.727
 3167POPC   C3B43533  44.686  20.844   7.138
 3167POPC   C4B43534  44.288  20.947   7.300
 3168POPC   NC343535  22.087  35.000   5.647
 3168POPC   PO443536  21.997  34.416   5.372
 3168POPC   GL143537  22.049  34.442   5.776
 3168POPC   GL243538  22.321  34.232   5.786
 3168POPC   C1A43539  21.843  34.626   6.156
 3168POPC   D2A43540  22.039  34.652   6.520
 3168POPC   C3A43541  21.887  34.672   6.914
 3168POPC   C4A43542  22.067  34.337   7.113
 3168POPC   C1B43543  22.375  34.464   6.169
 3168POPC   C2B43544  22.570  34.677   6.517
 3168POPC   C3B43545  22.508  34.599   6.936
 3168POPC   C4B43546  22.281  34.835   7.223
 3169POPC   NC343547  35.772  43.439   5.413
 3169POPC   PO443548  35.790  42.781   5.485
 3169POPC   GL143549  35.655  43.121   5.829
 3169POPC   GL243550  35.300  43.234   5.816
 3169POPC   C1A43551  35.574  43.179   6.311
 3169POPC   D2A43552  35.627  42.942   6.696
 3169POPC   C3A43553  35.619  43.055   7.140
 3169POPC   C4A43554  35.453  43.137   7.568
 3169POPC   C1B43555  35.071  43.194   6.246
 3169POPC   C2B43556  35.163  43.164   6.701
 3169POPC   C3B43557  35.108  43.100   7.153
 3169POPC   C4B43558  34.948  43.099   7.592
 3170POPC   NC343559  29.419   0.207   5.036
 3170POPC   PO443560  29.012   0.559   5.414
 3170POPC   GL143561  29.078   0.604   5.860
 3170POPC   GL243562  29.366   0.798   5.812
 3170POPC   C1A43563  29.285   0.374   6.219
 3170POPC   D2A43564  29.136   0.176   6.627
 3170POPC   C3A43565  29.268   0.410   6.978
 3170POPC   C4A43566  29.142   0.358   7.396
 3170POPC   C1B43567  29.263   0.900   6.248
 3170POPC   C2B43568  29.078   0.691   6.577
 3170POPC   C3B43569  28.922   0.781   6.975
 3170POPC   C4B43570  29.138   0.875   7.315
 3171POPC   NC343571   7.626   0.191   5.134
 3171POPC   PO443572   7.036   0.495   5.452
 3171POPC   GL143573   7.232   0.506   5.833
 3171POPC   GL243574   7.542   0.590   5.666
 3171POPC   C1A43575   7.315   0.310   6.269
 3171POPC   D2A43576   7.577   0.107   6.582
 3171POPC   C3A43577   7.387   0.322   6.905
 3171POPC   C4A43578   7.206   0.262   7.280
 3171POPC   C1B43579   7.653   0.653   6.103
 3171POPC   C2B43580   7.709   0.639   6.564
 3171POPC   C3B43581   7.758   0.630   7.043
 3171POPC   C4B43582   7.709   0.284   7.362
 3172POPC   NC343583  19.301  37.032   5.506
 3172POPC   PO443584  18.773  36.644   5.330
 3172POPC   GL143585  18.862  36.794   5.717
 3172POPC   GL243586  19.163  36.598   5.774
 3172POPC   C1A43587  18.886  36.826   6.149
 3172POPC   D2A43588  18.889  37.092   6.458
 3172POPC   C3A43589  18.938  36.943   6.871
 3172POPC   C4A43590  18.992  37.225   7.122
 3172POPC   C1B43591  19.397  36.835   6.114
 3172POPC   C2B43592  19.308  36.799   6.539
 3172POPC   C3B43593  19.449  36.956   6.940
 3172POPC   C4B43594  19.268  36.782   7.270
 3173POPC   NC343595  26.581  17.787   5.127
 3173POPC   PO443596  25.900  17.737   5.310
 3173POPC   GL143597  25.947  17.606   5.748
 3173POPC   GL243598  26.282  17.579   5.773
 3173POPC   C1A43599  25.891  17.419   6.177
 3173POPC   D2A43600  25.630  17.451   6.556
 3173POPC   C3A43601  25.861  17.685   6.893
 3173POPC   C4A43602  26.084  17.525   7.257
 3173POPC   C1B43603  26.373  17.266   6.109
 3173POPC   C2B43604  26.274  17.122   6.545
 3173POPC   C3B43605  26.353  17.186   6.981
 3173POPC   C4B43606  26.470  17.153   7.447
 3174POPC   NC343607   4.338  29.528   5.684
 3174POPC   PO443608   4.642  30.049   5.383
 3174POPC   GL143609   4.499  30.102   5.837
 3174POPC   GL243610   4.198  29.937   5.939
 3174POPC   C1A43611   4.543  30.001   6.308
 3174POPC   D2A43612   4.244  29.964   6.655
 3174POPC   C3A43613   4.367  29.781   7.055
 3174POPC   C4A43614   4.238  29.815   7.466
 3174POPC   C1B43615   4.223  29.597   6.302
 3174POPC   C2B43616   4.242  29.421   6.716
 3174POPC   C3B43617   4.000  29.426   7.125
 3174POPC   C4B43618   3.642  29.306   7.385
 3175POPC   NC343619  36.754  44.489   5.289
 3175POPC   PO443620  37.408  44.463   5.599
 3175POPC   GL143621  37.034  44.699   5.777
 3175POPC   GL243622  36.667  44.557   5.795
 3175POPC   C1A43623  37.006   0.021   6.112
 3175POPC   D2A43624  36.830   0.120   6.534
 3175POPC   C3A43625  36.984  44.893   6.901
 3175POPC   C4A43626  37.008  44.519   7.132
 3175POPC   C1B43627  36.732  44.603   6.250
 3175POPC   C2B43628  36.700  44.506   6.692
 3175POPC   C3B43629  36.544  44.350   7.099
 3175POPC   C4B43630  36.731  44.338   7.526
 3176POPC   NC343631  18.050  34.911   5.479
 3176POPC   PO443632  18.432  34.447   5.230
 3176POPC   GL143633  18.193  34.448   5.702
 3176POPC   GL243634  18.270  34.764   5.923
 3176POPC   C1A43635  18.036  34.401   6.184
 3176POPC   D2A43636  18.141  34.634   6.603
 3176POPC   C3A43637  18.185  34.385   6.992
 3176POPC   C4A43638  18.309  34.411   7.418
 3176POPC   C1B43639  18.535  34.841   6.293
 3176POPC   C2B43640  18.625  34.853   6.767
 3176POPC   C3B43641  18.506  34.830   7.225
 3176POPC   C4B43642  18.659  34.744   7.666
 3177POPC   NC343643  11.108   2.971   5.372
 3177POPC   PO443644  11.766   2.915   5.199
 3177POPC   GL143645  11.547   2.790   5.633
 3177POPC   GL243646  11.408   3.084   5.787
 3177POPC   C1A43647  11.417   2.580   6.092
 3177POPC   D2A43648  11.516   2.422   6.544
 3177POPC   C3A43649  11.580   2.648   6.917
 3177POPC   C4A43650  11.201   2.689   7.150
 3177POPC   C1B43651  11.297   3.059   6.229
 3177POPC   C2B43652  11.400   3.086   6.665
 3177POPC   C3B43653  11.281   3.193   7.090
 3177POPC   C4B43654  11.508   3.000   7.440
 3178POPC   NC343655  41.022  30.253   5.369
 3178POPC   PO443656  40.602  29.796   5.262
 3178POPC   GL143657  40.608  30.000   5.656
 3178POPC   GL243658  40.933  29.938   5.783
 3178POPC   C1A43659  40.496  29.982   6.099
 3178POPC   D2A43660  40.649  30.084   6.519
 3178POPC   C3A43661  40.494  29.943   6.896
 3178POPC   C4A43662  40.650  29.880   7.288
 3178POPC   C1B43663  41.048  30.124   6.181
 3178POPC   C2B43664  41.206  30.088   6.601
 3178POPC   C3B43665  40.996  30.134   6.995
 3178POPC   C4B43666  41.037  30.323   7.429
 3179POPC   NC343667  13.275   0.539   5.190
 3179POPC   PO443668  13.740   0.123   5.336
 3179POPC   GL143669  13.689   0.243   5.759
 3179POPC   GL243670  13.436   0.478   5.716
 3179POPC   C1A43671  13.817   0.274   6.180
 3179POPC   D2A43672  13.982   0.455   6.545
 3179POPC   C3A43673  13.757   0.295   6.905
 3179POPC   C4A43674  13.611   0.251   7.327
 3179POPC   C1B43675  13.302   0.378   6.123
 3179POPC   C2B43676  13.404   0.254   6.529
 3179POPC   C3B43677  13.244   0.384   6.916
 3179POPC   C4B43678  13.123   0.150   7.259
 3180POPC   NC343679  24.001  17.670   5.436
 3180POPC   PO443680  23.430  17.354   5.323
 3180POPC   GL143681  23.579  17.320   5.785
 3180POPC   GL243682  23.727  17.620   5.880
 3180POPC   C1A43683  23.629  17.103   6.195
 3180POPC   D2A43684  23.628  17.353   6.568
 3180POPC   C3A43685  23.707  17.319   7.018
 3180POPC   C4A43686  23.359  17.378   7.301
 3180POPC   C1B43687  23.925  17.788   6.265
 3180POPC   C2B43688  24.053  17.624   6.680
 3180POPC   C3B43689  23.930  17.818   7.081
 3180POPC   C4B43690  23.812  17.934   7.505
 3181POPC   NC343691  21.697   3.261   5.396
 3181POPC   PO443692  21.167   3.620   5.420
 3181POPC   GL143693  21.481   3.637   5.744
 3181POPC   GL243694  21.538   3.307   5.857
 3181POPC   C1A43695  21.460   3.674   6.206
 3181POPC   D2A43696  21.718   3.701   6.566
 3181POPC   C3A43697  21.484   3.804   6.936
 3181POPC   C4A43698  21.331   3.531   7.278
 3181POPC   C1B43699  21.853   3.348   6.171
 3181POPC   C2B43700  21.875   3.193   6.582
 3181POPC   C3B43701  21.749   3.347   6.959
 3181POPC   C4B43702  21.896   3.367   7.374
 3182POPC   NC343703   6.026  12.380   5.403
 3182POPC   PO443704   5.545  12.846   5.357
 3182POPC   GL143705   5.769  12.773   5.769
 3182POPC   GL243706   6.111  12.846   5.872
 3182POPC   C1A43707   5.740  12.806   6.244
 3182POPC   D2A43708   5.674  12.572   6.642
 3182POPC   C3A43709   5.730  12.743   7.050
 3182POPC   C4A43710   5.420  12.727   7.358
 3182POPC   C1B43711   6.260  12.896   6.275
 3182POPC   C2B43712   6.098  13.158   6.549
 3182POPC   C3B43713   6.120  13.185   6.971
 3182POPC   C4B43714   6.208  12.849   7.217
 3183POPC   NC343715  33.521   3.393   5.510
 3183POPC   PO443716  34.213   3.472   5.287
 3183POPC   GL143717  33.919   3.585   5.749
 3183POPC   GL243718  33.704   3.293   6.001
 3183POPC   C1A43719  33.790   3.755   6.172
 3183POPC   D2A43720  33.729   3.590   6.585
 3183POPC   C3A43721  33.646   3.753   6.972
 3183POPC   C4A43722  33.888   3.526   7.302
 3183POPC   C1B43723  33.672   3.093   6.441
 3183POPC   C2B43724  33.677   3.206   6.918
 3183POPC   C3B43725  33.582   3.125   7.362
 3183POPC   C4B43726  33.621   3.337   7.794
 3184POPC   NC343727   1.005   2.662   5.498
 3184POPC   PO443728   1.666   2.998   5.434
 3184POPC   GL143729   1.348   2.980   5.756
 3184POPC   GL243730   1.421   2.632   5.848
 3184POPC   C1A43731   1.131   3.014   6.177
 3184POPC   D2A43732   0.951   3.064   6.615
 3184POPC   C3A43733   0.991   2.739   6.948
 3184POPC   C4A43734   1.160   2.714   7.375
 3184POPC   C1B43735   1.636   2.855   6.198
 3184POPC   C2B43736   1.417   2.876   6.604
 3184POPC   C3B43737   1.440   2.973   7.042
 3184POPC   C4B43738   1.702   2.837   7.374
 3185POPC   NC343739  38.891  27.732   5.450
 3185POPC   PO443740  39.239  27.220   5.210
 3185POPC   GL143741  39.325  27.337   5.666
 3185POPC   GL243742  39.310  27.688   5.752
 3185POPC   C1A43743  39.390  27.367   6.133
 3185POPC   D2A43744  39.015  27.384   6.410
 3185POPC   C3A43745  38.989  27.673   6.779
 3185POPC   C4A43746  38.967  27.465   7.177
 3185POPC   C1B43747  39.243  27.892   6.167
 3185POPC   C2B43748  39.447  28.001   6.553
 3185POPC   C3B43749  39.581  28.059   6.972
 3185POPC   C4B43750  39.349  27.797   7.256
 3186POPC   NC343751  41.883  16.066   5.388
 3186POPC   PO443752  41.224  15.866   5.396
 3186POPC   GL143753  41.519  15.872   5.740
 3186POPC   GL243754  41.640  16.223   5.813
 3186POPC   C1A43755  41.323  15.929   6.137
 3186POPC   D2A43756  41.312  16.171   6.491
 3186POPC   C3A43757  41.339  16.015   6.903
 3186POPC   C4A43758  41.302  16.209   7.265
 3186POPC   C1B43759  41.814  16.018   6.172
 3186POPC   C2B43760  41.672  15.803   6.516
 3186POPC   C3B43761  41.837  15.896   6.902
 3186POPC   C4B43762  41.694  15.879   7.284
 3187POPC   NC343763  33.689  27.788   5.559
 3187POPC   PO443764  34.213  27.493   5.289
 3187POPC   GL143765  34.104  27.546   5.775
 3187POPC   GL243766  33.923  27.819   5.997
 3187POPC   C1A43767  33.964  27.394   6.226
 3187POPC   D2A43768  34.217  27.422   6.599
 3187POPC   C3A43769  34.001  27.602   6.941
 3187POPC   C4A43770  33.692  27.320   7.117
 3187POPC   C1B43771  33.584  27.746   6.340
 3187POPC   C2B43772  33.469  27.669   6.807
 3187POPC   C3B43773  33.440  27.725   7.279
 3187POPC   C4B43774  33.395  27.808   7.735
 3188POPC   NC343775  29.180  14.746   5.460
 3188POPC   PO443776  29.536  14.229   5.512
 3188POPC   GL143777  29.274  14.407   5.843
 3188POPC   GL243778  29.466  14.688   5.924
 3188POPC   C1A43779  29.130  14.571   6.282
 3188POPC   D2A43780  29.378  14.567   6.675
 3188POPC   C3A43781  29.133  14.458   7.015
 3188POPC   C4A43782  29.098  14.368   7.441
 3188POPC   C1B43783  29.555  14.305   6.258
 3188POPC   C2B43784  29.542  14.064   6.660
 3188POPC   C3B43785  29.467  14.008   7.142
 3188POPC   C4B43786  29.513  14.151   7.600
 3189POPC   NC343787  44.035  31.107   5.326
 3189POPC   PO443788  43.656  31.658   5.467
 3189POPC   GL143789  43.739  31.507   5.881
 3189POPC   GL243790  43.831  31.234   5.779
 3189POPC   C1A43791  44.027  31.438   6.261
 3189POPC   D2A43792  44.218  31.440   6.693
 3189POPC   C3A43793  43.942  31.584   7.028
 3189POPC   C4A43794  43.515  31.743   6.978
 3189POPC   C1B43795  43.701  31.054   6.165
 3189POPC   C2B43796  43.894  31.043   6.608
 3189POPC   C3B43797  43.745  31.127   7.060
 3189POPC   C4B43798  43.634  31.087   7.514
 3190POPC   NC343799  34.398   3.782   5.575
 3190POPC   PO443800  34.991   3.359   5.463
 3190POPC   GL143801  34.712   3.455   5.833
 3190POPC   GL243802  34.355   3.346   5.825
 3190POPC   C1A43803  34.633   3.585   6.291
 3190POPC   D2A43804  34.713   3.779   6.728
 3190POPC   C3A43805  34.732   3.573   7.172
 3190POPC   C4A43806  34.792   3.627   7.660
 3190POPC   C1B43807  34.156   3.408   6.232
 3190POPC   C2B43808  34.198   3.781   6.527
 3190POPC   C3B43809  34.246   3.700   6.967
 3190POPC   C4B43810  34.322   3.289   7.185
 3191POPC   NC343811  11.333  18.674   5.153
 3191POPC   PO443812  11.436  18.052   5.419
 3191POPC   GL143813  11.288  18.031   5.829
 3191POPC   GL243814  11.577  17.872   5.925
 3191POPC   C1A43815  11.071  18.246   6.187
 3191POPC   D2A43816  11.167  18.515   6.553
 3191POPC   C3A43817  11.080  18.325   6.948
 3191POPC   C4A43818  11.176  18.254   7.374
 3191POPC   C1B43819  11.515  18.056   6.336
 3191POPC   C2B43820  11.261  17.940   6.664
 3191POPC   C3B43821  11.395  17.928   7.071
 3191POPC   C4B43822  11.653  17.965   7.435
 3192POPC   NC343823  11.499  40.784   5.008
 3192POPC   PO443824  11.157  41.149   5.384
 3192POPC   GL143825  11.174  40.939   5.866
 3192POPC   GL243826  11.139  40.601   5.855
 3192POPC   C1A43827  11.065  40.990   6.288
 3192POPC   D2A43828  11.287  40.834   6.648
 3192POPC   C3A43829  11.518  41.024   6.935
 3192POPC   C4A43830  11.427  40.754   7.261
 3192POPC   C1B43831  11.317  40.530   6.238
 3192POPC   C2B43832  11.182  40.323   6.600
 3192POPC   C3B43833  11.187  40.375   7.001
 3192POPC   C4B43834  11.497  40.225   7.232
 3193POPC   NC343835  35.110  19.305   5.435
 3193POPC   PO443836  35.752  19.017   5.289
 3193POPC   GL143837  35.442  19.024   5.711
 3193POPC   GL243838  35.136  18.825   5.754
 3193POPC   C1A43839  35.282  19.158   6.155
 3193POPC   D2A43840  35.149  19.256   6.610
 3193POPC   C3A43841  35.309  18.998   6.964
 3193POPC   C4A43842  35.262  19.079   7.419
 3193POPC   C1B43843  35.434  18.665   6.104
 3193POPC   C2B43844  35.595  18.555   6.549
 3193POPC   C3B43845  35.674  18.580   7.022
 3193POPC   C4B43846  35.592  18.707   7.446
 3194POPC   NC343847   1.515   0.790   5.311
 3194POPC   PO443848   0.848   0.560   5.270
 3194POPC   GL143849   1.110   0.461   5.664
 3194POPC   GL243850   0.820   0.354   5.808
 3194POPC   C1A43851   1.200   0.183   6.080
 3194POPC   D2A43852   1.408   0.354   6.457
 3194POPC   C3A43853   1.357   0.191   6.865
 3194POPC   C4A43854   1.297   0.390   7.242
 3194POPC   C1B43855   0.911   0.582   6.201
 3194POPC   C2B43856   0.860   0.764   6.595
 3194POPC   C3B43857   1.206   0.706   6.854
 3194POPC   C4B43858   1.218   0.888   7.258
 3195POPC   NC343859   9.338  36.331   5.385
 3195POPC   PO443860   9.559  35.720   5.529
 3195POPC   GL143861   9.735  36.119   5.656
 3195POPC   GL243862   9.889  35.942   5.915
 3195POPC   C1A43863   9.612  36.359   6.035
 3195POPC   D2A43864   9.691  36.208   6.482
 3195POPC   C3A43865   9.504  36.335   6.889
 3195POPC   C4A43866   9.650  36.178   7.269
 3195POPC   C1B43867  10.135  36.049   6.268
 3195POPC   C2B43868  10.413  35.977   6.594
 3195POPC   C3B43869  10.171  35.954   6.956
 3195POPC   C4B43870  10.147  36.127   7.331
 3196POPC   NC343871  44.316  13.742   5.368
 3196POPC   PO443872  43.809  13.950   5.117
 3196POPC   GL143873  43.814  13.821   5.576
 3196POPC   GL243874  43.988  13.529   5.695
 3196POPC   C1A43875  43.635  13.767   6.027
 3196POPC   D2A43876  43.531  13.923   6.488
 3196POPC   C3A43877  43.772  13.745   6.856
 3196POPC   C4A43878  43.897  13.804   7.289
 3196POPC   C1B43879  44.204  13.624   6.102
 3196POPC   C2B43880  44.239  13.739   6.579
 3196POPC   C3B43881  44.250  13.516   7.004
 3196POPC   C4B43882  44.041  13.275   7.328
 3197POPC   NC343883  35.247  12.189   5.531
 3197POPC   PO443884  35.867  12.047   5.353
 3197POPC   GL143885  35.660  12.034   5.794
 3197POPC   GL243886  35.502  12.374   5.928
 3197POPC   C1A43887  35.521  11.991   6.255
 3197POPC   D2A43888  35.537  12.227   6.653
 3197POPC   C3A43889  35.557  12.014   7.068
 3197POPC   C4A43890  35.478  12.017   7.511
 3197POPC   C1B43891  35.135  12.350   6.225
 3197POPC   C2B43892  35.071  12.437   6.661
 3197POPC   C3B43893  35.047  12.047   6.935
 3197POPC   C4B43894  34.992  12.006   7.384
 3198POPC   NC343895  42.651  13.846   5.345
 3198POPC   PO443896  42.085  13.365   5.451
 3198POPC   GL143897  42.326  13.606   5.730
 3198POPC   GL243898  42.644  13.414   5.700
 3198POPC   C1A43899  42.240  13.749   6.173
 3198POPC   D2A43900  42.212  13.556   6.599
 3198POPC   C3A43901  42.240  13.682   7.037
 3198POPC   C4A43902  42.193  13.532   7.465
 3198POPC   C1B43903  42.544  13.334   6.131
 3198POPC   C2B43904  42.414  13.097   6.514
 3198POPC   C3B43905  42.538  13.249   6.913
 3198POPC   C4B43906  42.573  13.213   7.341
 3199POPC   NC343907   3.434  24.098   5.599
 3199POPC   PO443908   3.774  23.608   5.463
 3199POPC   GL143909   3.597  23.392   5.838
 3199POPC   GL243910   3.371  23.654   5.901
 3199POPC   C1A43911   3.563  23.258   6.289
 3199POPC   D2A43912   3.493  23.390   6.730
 3199POPC   C3A43913   3.175  23.487   7.028
 3199POPC   C4A43914   3.223  23.602   7.462
 3199POPC   C1B43915   3.321  23.713   6.338
 3199POPC   C2B43916   3.143  23.876   6.706
 3199POPC   C3B43917   3.144  24.010   7.142
 3199POPC   C4B43918   2.896  23.993   7.515
 3200POPC   NC343919   7.790   1.759   5.534
 3200POPC   PO443920   7.103   2.088   5.493
 3200POPC   GL143921   7.399   1.949   5.848
 3200POPC   GL243922   7.759   2.116   5.914
 3200POPC   C1A43923   7.534   1.753   6.239
 3200POPC   D2A43924   7.560   1.592   6.660
 3200POPC   C3A43925   7.567   1.874   7.015
 3200POPC   C4A43926   7.327   1.833   7.378
 3200POPC   C1B43927   7.484   2.276   6.247
 3200POPC   C2B43928   7.370   2.232   6.664
 3200POPC   C3B43929   7.188   2.221   7.059
 3200POPC   C4B43930   7.513   2.321   7.328
 3201POPC   NC343931   9.482   5.625   5.655
 3201POPC   PO443932   8.829   5.777   5.409
 3201POPC   GL143933   8.908   5.916   5.804
 3201POPC   GL243934   9.245   6.003   5.896
 3201POPC   C1A43935   8.744   5.838   6.197
 3201POPC   D2A43936   8.713   6.111   6.541
 3201POPC   C3A43937   8.664   5.880   6.893
 3201POPC   C4A43938   8.721   5.928   7.293
 3201POPC   C1B43939   9.219   5.682   6.231
 3201POPC   C2B43940   9.021   5.634   6.613
 3201POPC   C3B43941   9.158   5.815   6.979
 3201POPC   C4B43942   9.208   5.670   7.331
 3202POPC   NC343943   3.692   7.894   5.532
 3202POPC   PO443944   3.889   8.561   5.550
 3202POPC   GL143945   3.566   8.376   5.804
 3202POPC   GL243946   3.755   8.168   5.963
 3202POPC   C1A43947   3.361   8.377   6.220
 3202POPC   D2A43948   3.297   8.137   6.620
 3202POPC   C3A43949   3.296   8.315   7.008
 3202POPC   C4A43950   3.411   8.689   7.251
 3202POPC   C1B43951   3.615   7.933   6.274
 3202POPC   C2B43952   3.739   7.877   6.667
 3202POPC   C3B43953   3.787   8.196   6.951
 3202POPC   C4B43954   3.689   8.286   7.357
 3203POPC   NC343955  42.315  44.691   4.977
 3203POPC   PO443956  42.507  44.416   5.587
 3203POPC   GL143957  42.443  44.690   5.874
 3203POPC   GL243958  42.186  44.848   5.674
 3203POPC   C1A43959  42.519  44.588   6.284
 3203POPC   D2A43960  42.619  44.729   6.680
 3203POPC   C3A43961  42.440  44.516   7.007
 3203POPC   C4A43962  42.289  44.540   7.433
 3203POPC   C1B43963  42.009  44.920   6.089
 3203POPC   C2B43964  42.110  44.825   6.527
 3203POPC   C3B43965  42.083  44.887   6.972
 3203POPC   C4B43966  42.140   0.259   7.183
 3204POPC   NC343967  32.358   9.459   5.367
 3204POPC   PO443968  31.823   9.946   5.140
 3204POPC   GL143969  32.107   9.990   5.657
 3204POPC   GL243970  31.883  10.043   5.968
 3204POPC   C1A43971  32.367   9.849   6.054
 3204POPC   D2A43972  32.353   9.571   6.470
 3204POPC   C3A43973  32.501   9.697   6.857
 3204POPC   C4A43974  32.441   9.719   7.269
 3204POPC   C1B43975  31.927   9.644   6.212
 3204POPC   C2B43976  31.842   9.578   6.638
 3204POPC   C3B43977  32.005   9.628   7.013
 3204POPC   C4B43978  31.970   9.608   7.445
 3205POPC   NC343979  31.439  20.193   5.440
 3205POPC   PO443980  31.455  19.528   5.324
 3205POPC   GL143981  31.667  19.508   5.736
 3205POPC   GL243982  31.578  19.827   5.814
 3205POPC   C1A43983  31.790  19.498   6.178
 3205POPC   D2A43984  31.736  19.775   6.556
 3205POPC   C3A43985  31.633  19.677   6.971
 3205POPC   C4A43986  31.843  19.796   7.360
 3205POPC   C1B43987  31.364  19.884   6.228
 3205POPC   C2B43988  31.288  19.955   6.693
 3205POPC   C3B43989  31.313  20.064   7.140
 3205POPC   C4B43990  30.999  20.136   7.471
 3206POPC   NC343991  11.351  36.765   5.488
 3206POPC   PO443992  11.162  37.357   5.549
 3206POPC   GL143993  11.507  37.172   5.794
 3206POPC   GL243994  11.264  36.981   5.948
 3206POPC   C1A43995  11.650  37.108   6.229
 3206POPC   D2A43996  11.335  37.057   6.535
 3206POPC   C3A43997  11.411  36.958   6.941
 3206POPC   C4A43998  11.605  37.220   7.229
 3206POPC   C1B43999  11.204  36.633   6.209
 3206POPC   C2B44000  11.186  36.557   6.651
 3206POPC   C3B44001  11.029  36.551   7.030
 3206POPC   C4B44002  11.263  36.626   7.326
 3207POPC   NC344003  38.966  26.187   5.533
 3207POPC   PO444004  39.622  25.836   5.537
 3207POPC   GL144005  39.362  26.043   5.837
 3207POPC   GL244006  39.053  25.853   5.928
 3207POPC   C1A44007  39.268  26.146   6.279
 3207POPC   D2A44008  39.157  26.153   6.722
 3207POPC   C3A44009  39.505  26.138   7.000
 3207POPC   C4A44010  39.469  25.992   7.417
 3207POPC   C1B44011  38.983  25.690   6.341
 3207POPC   C2B44012  38.984  25.604   6.762
 3207POPC   C3B44013  39.029  25.828   7.119
 3207POPC   C4B44014  38.988  25.900   7.538
 3208POPC   NC344015  20.270  28.557   5.487
 3208POPC   PO444016  20.833  28.132   5.417
 3208POPC   GL144017  20.637  28.121   5.791
 3208POPC   GL244018  20.632  28.477   5.799
 3208POPC   C1A44019  20.775  28.169   6.203
 3208POPC   D2A44020  20.558  28.087   6.549
 3208POPC   C3A44021  20.730  28.244   6.889
 3208POPC   C4A44022  20.583  28.036   7.242
 3208POPC   C1B44023  20.702  28.660   6.149
 3208POPC   C2B44024  20.528  28.608   6.530
 3208POPC   C3B44025  20.616  28.746   6.930
 3208POPC   C4B44026  20.626  28.532   7.325
 3209POPC   NC344027  16.229  30.074   5.362
 3209POPC   PO444028  15.793  29.567   5.397
 3209POPC   GL144029  15.742  29.842   5.755
 3209POPC   GL244030  16.100  29.875   5.813
 3209POPC   C1A44031  15.819  29.955   6.216
 3209POPC   D2A44032  16.092  29.732   6.488
 3209POPC   C3A44033  15.887  29.780   6.855
 3209POPC   C4A44034  15.800  30.038   7.164
 3209POPC   C1B44035  16.307  30.118   6.154
 3209POPC   C2B44036  16.158  30.222   6.575
 3209POPC   C3B44037  16.308  30.057   6.968
 3209POPC   C4B44038  16.465  30.273   7.311
 3210POPC   NC344039  35.693  31.689   5.320
 3210POPC   PO444040  35.241  32.218   5.300
 3210POPC   GL144041  35.218  32.373   5.714
 3210POPC   GL244042  35.583  32.354   5.788
 3210POPC   C1A44043  35.195  32.622   6.137
 3210POPC   D2A44044  35.306  32.449   6.536
 3210POPC   C3A44045  35.264  32.633   6.922
 3210POPC   C4A44046  35.278  32.347   7.222
 3210POPC   C1B44047  35.351  32.124   6.119
 3210POPC   C2B44048  35.308  31.915   6.481
 3210POPC   C3B44049  35.376  31.971   6.893
 3210POPC   C4B44050  35.299  31.834   7.317
 3211POPC   NC344051   5.956  33.904   5.230
 3211POPC   PO444052   5.556  34.203   5.631
 3211POPC   GL144053   5.737  33.870   5.851
 3211POPC   GL244054   6.074  33.752   5.854
 3211POPC   C1A44055   5.561  33.778   6.214
 3211POPC   D2A44056   5.539  33.645   6.616
 3211POPC   C3A44057   5.844  33.868   6.867
 3211POPC   C4A44058   5.848  33.767   7.285
 3211POPC   C1B44059   6.045  33.623   6.304
 3211POPC   C2B44060   6.274  33.626   6.712
 3211POPC   C3B44061   6.312  33.604   7.187
 3211POPC   C4B44062   6.118  33.556   7.637
 3212POPC   NC344063  38.685  22.396   4.957
 3212POPC   PO444064  38.517  22.244   5.569
 3212POPC   GL144065  38.567  22.020   5.897
 3212POPC   GL244066  38.259  22.033   5.970
 3212POPC   C1A44067  38.606  22.064   6.330
 3212POPC   D2A44068  38.573  21.827   6.668
 3212POPC   C3A44069  38.670  22.112   6.945
 3212POPC   C4A44070  38.593  22.288   7.296
 3212POPC   C1B44071  38.113  21.865   6.335
 3212POPC   C2B44072  38.112  22.051   6.726
 3212POPC   C3B44073  38.109  22.204   7.116
 3212POPC   C4B44074  38.113  22.117   7.559
 3213POPC   NC344075   9.228  44.912   5.448
 3213POPC   PO444076   8.911   0.552   5.381
 3213POPC   GL144077   8.847   0.591   5.798
 3213POPC   GL244078   9.003   0.269   5.841
 3213POPC   C1A44079   9.046   0.654   6.200
 3213POPC   D2A44080   9.075   0.377   6.542
 3213POPC   C3A44081   9.008   0.548   6.953
 3213POPC   C4A44082   9.177   0.322   7.267
 3213POPC   C1B44083   8.844  44.974   6.114
 3213POPC   C2B44084   8.663   0.022   6.533
 3213POPC   C3B44085   8.863   0.042   6.903
 3213POPC   C4B44086   8.703   0.079   7.292
 3214POPC   NC344087  12.822  10.935   5.457
 3214POPC   PO444088  13.096  11.583   5.321
 3214POPC   GL144089  12.858  11.524   5.707
 3214POPC   GL244090  13.128  11.349   5.804
 3214POPC   C1A44091  12.710  11.270   6.069
 3214POPC   D2A44092  12.803  11.296   6.524
 3214POPC   C3A44093  12.608  11.053   6.866
 3214POPC   C4A44094  12.549  11.255   7.254
 3214POPC   C1B44095  13.119  11.642   6.157
 3214POPC   C2B44096  13.288  11.506   6.533
 3214POPC   C3B44097  13.104  11.482   6.919
 3214POPC   C4B44098  13.042  11.146   7.176
 3215POPC   NC344099  23.454  15.154   5.377
 3215POPC   PO444100  22.857  14.942   5.404
 3215POPC   GL144101  23.160  15.051   5.787
 3215POPC   GL244102  23.370  15.393   5.838
 3215POPC   C1A44103  23.176  15.146   6.246
 3215POPC   D2A44104  23.087  15.399   6.645
 3215POPC   C3A44105  23.022  15.157   7.052
 3215POPC   C4A44106  22.811  15.097   7.469
 3215POPC   C1B44107  23.513  15.559   6.261
 3215POPC   C2B44108  23.520  15.696   6.698
 3215POPC   C3B44109  23.243  15.629   7.079
 3215POPC   C4B44110  23.278  15.350   7.456
 3216POPC   NC344111   8.326  34.189   5.460
 3216POPC   PO444112   8.177  33.521   5.321
 3216POPC   GL144113   8.109  33.756   5.682
 3216POPC   GL244114   7.855  34.002   5.586
 3216POPC   C1A44115   8.275  33.774   6.092
 3216POPC   D2A44116   8.304  34.006   6.464
 3216POPC   C3A44117   8.383  33.768   6.832
 3216POPC   C4A44118   8.138  33.839   7.164
 3216POPC   C1B44119   7.806  34.007   6.038
 3216POPC   C2B44120   7.844  34.227   6.410
 3216POPC   C3B44121   7.937  34.164   6.821
 3216POPC   C4B44122   7.769  34.178   7.216
 3217POPC   NC344123  13.270  25.737   5.260
 3217POPC   PO444124  13.741  25.229   5.194
 3217POPC   GL144125  13.765  25.301   5.691
 3217POPC   GL244126  13.943  25.638   5.771
 3217POPC   C1A44127  13.615  25.019   6.101
 3217POPC   D2A44128  13.564  24.796   6.539
 3217POPC   C3A44129  13.692  25.074   6.898
 3217POPC   C4A44130  14.025  25.242   7.168
 3217POPC   C1B44131  13.743  25.533   6.187
 3217POPC   C2B44132  13.554  25.574   6.626
 3217POPC   C3B44133  13.623  25.575   7.061
 3217POPC   C4B44134  13.749  25.659   7.493
 3218POPC   NC344135  11.434   3.986   5.455
 3218POPC   PO444136  11.125   3.435   5.262
 3218POPC   GL144137  11.218   3.569   5.675
 3218POPC   GL244138  11.556   3.584   5.815
 3218POPC   C1A44139  11.109   3.580   6.105
 3218POPC   D2A44140  11.011   3.433   6.505
 3218POPC   C3A44141  11.019   3.747   6.822
 3218POPC   C4A44142  11.241   3.741   7.206
 3218POPC   C1B44143  11.583   3.464   6.333
 3218POPC   C2B44144  11.562   3.559   6.828
 3218POPC   C3B44145  11.674   3.449   7.303
 3218POPC   C4B44146  11.694   3.335   7.779
 3219POPC   NC344147  14.027  15.193   5.155
 3219POPC   PO444148  14.557  14.716   5.150
 3219POPC   GL144149  14.535  14.820   5.672
 3219POPC   GL244150  14.650  15.136   5.806
 3219POPC   C1A44151  14.318  14.961   6.153
 3219POPC   D2A44152  14.155  15.215   6.522
 3219POPC   C3A44153  14.293  15.152   6.971
 3219POPC   C4A44154  14.349  15.380   7.371
 3219POPC   C1B44155  14.621  15.370   6.210
 3219POPC   C2B44156  14.499  15.577   6.590
 3219POPC   C3B44157  14.662  15.525   6.974
 3219POPC   C4B44158  14.870  15.483   7.348
 3220POPC   NC344159  11.086  41.580   5.548
 3220POPC   PO444160  11.739  41.258   5.394
 3220POPC   GL144161  11.596  41.235   5.863
 3220POPC   GL244162  11.288  41.424   5.986
 3220POPC   C1A44163  11.531  41.174   6.340
 3220POPC   D2A44164  11.253  41.373   6.634
 3220POPC   C3A44165  11.315  41.484   7.033
 3220POPC   C4A44166  11.437  41.259   7.403
 3220POPC   C1B44167  10.938  41.537   6.287
 3220POPC   C2B44168  10.785  41.684   6.664
 3220POPC   C3B44169  10.801  41.506   7.063
 3220POPC   C4B44170  10.973  41.477   7.460
 3221POPC   NC344171  12.056  41.669   5.321
 3221POPC   PO444172  12.601  41.271   5.496
 3221POPC   GL144173  12.259  41.486   5.783
 3221POPC   GL244174  12.168  41.863   5.768
 3221POPC   C1A44175  12.201  41.658   6.231
 3221POPC   D2A44176  12.342  41.784   6.622
 3221POPC   C3A44177  12.346  41.549   6.985
 3221POPC   C4A44178  12.197  41.650   7.364
 3221POPC   C1B44179  11.772  41.702   5.961
 3221POPC   C2B44180  11.661  41.659   6.393
 3221POPC   C3B44181  11.794  41.715   6.845
 3221POPC   C4B44182  11.702  41.712   7.265
 3222POPC   NC344183  40.453  27.297   5.603
 3222POPC   PO444184  40.300  27.955   5.497
 3222POPC   GL144185  40.038  27.737   5.814
 3222POPC   GL244186  40.048  27.385   5.896
 3222POPC   C1A44187  39.802  27.811   6.198
 3222POPC   D2A44188  39.964  27.944   6.616
 3222POPC   C3A44189  40.002  27.608   6.958
 3222POPC   C4A44190  40.299  27.652   7.301
 3222POPC   C1B44191  40.291  27.229   6.267
 3222POPC   C2B44192  40.149  27.164   6.650
 3222POPC   C3B44193  40.403  27.216   6.971
 3222POPC   C4B44194  40.148  27.146   7.264
 3223POPC   NC344195  24.540  19.249   5.446
 3223POPC   PO444196  24.349  18.650   5.565
 3223POPC   GL144197  24.653  18.777   5.886
 3223POPC   GL244198  24.798  19.105   5.907
 3223POPC   C1A44199  24.666  18.857   6.328
 3223POPC   D2A44200  24.751  19.081   6.716
 3223POPC   C3A44201  24.544  18.899   7.057
 3223POPC   C4A44202  24.144  19.085   7.229
 3223POPC   C1B44203  24.473  19.319   6.223
 3223POPC   C2B44204  24.311  19.403   6.682
 3223POPC   C3B44205  24.525  19.411   7.099
 3223POPC   C4B44206  24.954  19.235   7.199
 3224POPC   NC344207  28.977  18.177   5.482
 3224POPC   PO444208  29.042  18.796   5.619
 3224POPC   GL144209  29.327  18.447   5.784
 3224POPC   GL244210  29.286  18.046   5.864
 3224POPC   C1A44211  29.235  18.388   6.224
 3224POPC   D2A44212  29.421  18.184   6.531
 3224POPC   C3A44213  29.151  18.276   6.868
 3224POPC   C4A44214  29.242  18.383   7.278
 3224POPC   C1B44215  28.850  18.065   6.106
 3224POPC   C2B44216  28.714  18.040   6.536
 3224POPC   C3B44217  28.662  18.072   6.986
 3224POPC   C4B44218  28.692  18.417   7.264
 3225POPC   NC344219  39.350  18.513   5.507
 3225POPC   PO444220  38.857  18.221   5.563
 3225POPC   GL144221  38.980  18.521   5.859
 3225POPC   GL244222  39.057  18.197   6.044
 3225POPC   C1A44223  39.209  18.646   6.215
 3225POPC   D2A44224  39.293  18.341   6.538
 3225POPC   C3A44225  39.285  18.545   6.928
 3225POPC   C4A44226  39.593  18.444   7.190
 3225POPC   C1B44227  38.789  18.316   6.394
 3225POPC   C2B44228  38.863  18.253   6.856
 3225POPC   C3B44229  39.155  18.122   7.208
 3225POPC   C4B44230  39.020  17.948   7.598
 3226POPC   NC344231   2.645   9.828   5.400
 3226POPC   PO444232   2.110   9.584   5.741
 3226POPC   GL144233   2.539   9.553   5.837
 3226POPC   GL244234   2.578   9.891   5.898
 3226POPC   C1A44235   2.858   9.580   6.187
 3226POPC   D2A44236   2.725   9.496   6.612
 3226POPC   C3A44237   2.889   9.699   7.009
 3226POPC   C4A44238   2.935   9.600   7.459
 3226POPC   C1B44239   2.431   9.839   6.338
 3226POPC   C2B44240   2.475   9.911   6.798
 3226POPC   C3B44241   2.370   9.684   7.182
 3226POPC   C4B44242   2.064   9.861   7.476
 3227POPC   NC344243  41.374  13.037   5.624
 3227POPC   PO444244  40.755  12.782   5.461
 3227POPC   GL144245  40.708  12.719   5.867
 3227POPC   GL244246  40.341  12.672   5.913
 3227POPC   C1A44247  40.884  12.840   6.268
 3227POPC   D2A44248  40.684  12.896   6.670
 3227POPC   C3A44249  40.921  13.011   7.000
 3227POPC   C4A44250  41.174  12.717   7.178
 3227POPC   C1B44251  40.548  12.435   6.258
 3227POPC   C2B44252  40.502  12.390   6.687
 3227POPC   C3B44253  40.659  12.542   7.064
 3227POPC   C4B44254  40.717  12.293   7.411
 3228POPC   NC344255   2.778  23.011   5.172
 3228POPC   PO444256   2.413  22.571   5.532
 3228POPC   GL144257   2.790  22.623   5.771
 3228POPC   GL244258   2.908  22.961   5.777
 3228POPC   C1A44259   2.784  22.724   6.216
 3228POPC   D2A44260   2.554  22.912   6.581
 3228POPC   C3A44261   2.644  22.789   7.010
 3228POPC   C4A44262   2.518  22.975   7.389
 3228POPC   C1B44263   3.090  23.146   6.164
 3228POPC   C2B44264   2.961  23.394   6.544
 3228POPC   C3B44265   2.706  23.305   6.935
 3228POPC   C4B44266   2.787  23.397   7.372
 3229POPC   NC344267  15.856  19.526   5.519
 3229POPC   PO444268  15.896  18.881   5.342
 3229POPC   GL144269  15.958  18.866   5.788
 3229POPC   GL244270  15.985  19.209   5.884
 3229POPC   C1A44271  16.101  18.838   6.230
 3229POPC   D2A44272  16.011  19.065   6.596
 3229POPC   C3A44273  15.961  18.859   6.962
 3229POPC   C4A44274  15.921  18.972   7.378
 3229POPC   C1B44275  15.785  19.526   6.170
 3229POPC   C2B44276  15.736  19.557   6.610
 3229POPC   C3B44277  15.835  19.360   7.008
 3229POPC   C4B44278  16.026  19.498   7.404
 3230POPC   NC344279   4.170   2.100   5.381
 3230POPC   PO444280   4.643   1.683   5.207
 3230POPC   GL144281   4.638   1.765   5.698
 3230POPC   GL244282   4.426   2.058   5.824
 3230POPC   C1A44283   4.622   1.773   6.185
 3230POPC   D2A44284   4.685   1.966   6.600
 3230POPC   C3A44285   4.571   1.744   6.954
 3230POPC   C4A44286   4.292   1.757   7.265
 3230POPC   C1B44287   4.087   2.143   6.141
 3230POPC   C2B44288   4.122   2.266   6.573
 3230POPC   C3B44289   4.087   2.151   6.985
 3230POPC   C4B44290   4.209   2.265   7.388
 3231POPC   NC344291  34.054  43.753   5.388
 3231POPC   PO444292  33.466  44.028   5.325
 3231POPC   GL144293  33.664  44.107   5.734
 3231POPC   GL244294  34.034  44.171   5.746
 3231POPC   C1A44295  33.618  44.156   6.189
 3231POPC   D2A44296  33.879  44.202   6.563
 3231POPC   C3A44297  33.543  44.157   6.859
 3231POPC   C4A44298  33.390  43.858   7.138
 3231POPC   C1B44299  34.040  43.890   6.128
 3231POPC   C2B44300  33.780  43.715   6.502
 3231POPC   C3B44301  33.888  43.801   6.954
 3231POPC   C4B44302  34.186  44.085   7.155
 3232POPC   NC344303  29.163   5.051   5.307
 3232POPC   PO444304  28.964   5.490   5.761
 3232POPC   GL144305  29.152   5.093   5.835
 3232POPC   GL244306  28.994   4.782   5.735
 3232POPC   C1A44307  29.324   4.822   6.147
 3232POPC   D2A44308  29.234   4.683   6.601
 3232POPC   C3A44309  29.243   5.018   6.899
 3232POPC   C4A44310  29.341   5.129   7.302
 3232POPC   C1B44311  28.833   4.735   6.183
 3232POPC   C2B44312  28.872   5.028   6.533
 3232POPC   C3B44313  28.739   5.039   6.983
 3232POPC   C4B44314  28.640   4.942   7.436
 3233POPC   NC344315  15.310  27.946   5.392
 3233POPC   PO444316  15.268  27.253   5.342
 3233POPC   GL144317  15.402  27.534   5.709
 3233POPC   GL244318  15.067  27.605   5.765
 3233POPC   C1A44319  15.376  27.664   6.177
 3233POPC   D2A44320  15.072  27.937   6.409
 3233POPC   C3A44321  15.162  27.879   6.840
 3233POPC   C4A44322  15.510  27.740   7.130
 3233POPC   C1B44323  15.106  27.251   6.075
 3233POPC   C2B44324  15.017  27.133   6.495
 3233POPC   C3B44325  15.162  27.351   6.874
 3233POPC   C4B44326  15.299  27.286   7.292
 3234POPC   NC344327  26.514  27.731   5.381
 3234POPC   PO444328  25.884  27.573   5.456
 3234POPC   GL144329  25.946  27.446   5.896
 3234POPC   GL244330  26.321  27.546   5.862
 3234POPC   C1A44331  25.940  27.669   6.317
 3234POPC   D2A44332  25.753  27.616   6.749
 3234POPC   C3A44333  26.035  27.854   7.001
 3234POPC   C4A44334  26.206  27.950   7.385
 3234POPC   C1B44335  26.295  27.322   6.255
 3234POPC   C2B44336  26.229  27.462   6.700
 3234POPC   C3B44337  26.051  27.362   7.106
 3234POPC   C4B44338  26.306  27.253   7.437
 3235POPC   NC344339   8.908  22.466   5.492
 3235POPC   PO444340   9.439  21.992   5.578
 3235POPC   GL144341   9.122  22.168   5.849
 3235POPC   GL244342   9.227  22.510   5.892
 3235POPC   C1A44343   8.841  22.237   6.196
 3235POPC   D2A44344   8.757  22.490   6.552
 3235POPC   C3A44345   8.728  22.299   6.975
 3235POPC   C4A44346   8.890  21.972   7.218
 3235POPC   C1B44347   9.350  22.366   6.298
 3235POPC   C2B44348   9.208  22.244   6.705
 3235POPC   C3B44349   9.213  22.363   7.123
 3235POPC   C4B44350   9.210  22.792   7.248
 3236POPC   NC344351  26.825  30.641   5.410
 3236POPC   PO444352  26.542  31.180   5.524
 3236POPC   GL144353  26.853  30.928   5.815
 3236POPC   GL244354  27.125  30.959   6.049
 3236POPC   C1A44355  26.991  30.469   6.031
 3236POPC   D2A44356  27.064  30.252   6.456
 3236POPC   C3A44357  26.856  30.434   6.846
 3236POPC   C4A44358  26.913  30.554   7.292
 3236POPC   C1B44359  26.668  30.789   6.250
 3236POPC   C2B44360  26.544  30.803   6.655
 3236POPC   C3B44361  26.816  30.953   6.977
 3236POPC   C4B44362  26.543  30.887   7.300
 3237POPC   NC344363  40.217  22.949   5.165
 3237POPC   PO444364  40.887  23.006   5.306
 3237POPC   GL144365  40.918  22.970   5.762
 3237POPC   GL244366  40.865  22.603   5.811
 3237POPC   C1A44367  40.946  23.199   6.218
 3237POPC   D2A44368  40.782  23.340   6.671
 3237POPC   C3A44369  40.732  23.041   7.054
 3237POPC   C4A44370  41.011  22.976   7.415
 3237POPC   C1B44371  40.644  22.767   6.157
 3237POPC   C2B44372  40.461  22.765   6.578
 3237POPC   C3B44373  40.240  22.568   6.901
 3237POPC   C4B44374  40.125  22.718   7.289
 3238POPC   NC344375  12.929   3.988   5.308
 3238POPC   PO444376  13.257   4.540   5.296
 3238POPC   GL144377  13.118   4.268   5.686
 3238POPC   GL244378  12.853   4.446   5.824
 3238POPC   C1A44379  13.031   4.057   6.121
 3238POPC   D2A44380  12.957   3.903   6.552
 3238POPC   C3A44381  12.987   4.174   6.935
 3238POPC   C4A44382  12.821   4.179   7.364
 3238POPC   C1B44383  12.590   4.379   6.160
 3238POPC   C2B44384  12.555   4.228   6.584
 3238POPC   C3B44385  12.510   4.401   6.999
 3238POPC   C4B44386  12.831   4.643   7.154
 3239POPC   NC344387  20.315   2.767   5.435
 3239POPC   PO444388  20.829   2.366   5.526
 3239POPC   GL144389  20.671   2.637   5.835
 3239POPC   GL244390  20.314   2.525   5.902
 3239POPC   C1A44391  20.880   2.784   6.221
 3239POPC   D2A44392  20.914   3.006   6.610
 3239POPC   C3A44393  20.869   2.736   6.959
 3239POPC   C4A44394  20.826   2.809   7.377
 3239POPC   C1B44395  20.384   2.873   6.212
 3239POPC   C2B44396  20.386   2.850   6.674
 3239POPC   C3B44397  20.367   2.809   7.128
 3239POPC   C4B44398  20.393   3.099   7.466
 3240POPC   NC344399  38.650  40.257   5.318
 3240POPC   PO444400  38.127  39.855   5.313
 3240POPC   GL144401  38.468  39.939   5.686
 3240POPC   GL244402  38.499  40.319   5.810
 3240POPC   C1A44403  38.570  39.895   6.150
 3240POPC   D2A44404  38.274  39.767   6.475
 3240POPC   C3A44405  38.139  39.919   6.861
 3240POPC   C4A44406  38.317  39.832   7.231
 3240POPC   C1B44407  38.462  40.388   6.259
 3240POPC   C2B44408  38.568  40.152   6.663
 3240POPC   C3B44409  38.442  40.304   7.079
 3240POPC   C4B44410  38.509  40.485   7.494
 3241POPC   NC344411   2.093  17.483   5.165
 3241POPC   PO444412   2.631  17.377   5.482
 3241POPC   GL144413   2.215  17.595   5.757
 3241POPC   GL244414   2.025  17.357   5.947
 3241POPC   C1A44415   1.952  17.827   6.125
 3241POPC   D2A44416   1.856  17.675   6.605
 3241POPC   C3A44417   2.106  17.691   7.045
 3241POPC   C4A44418   1.954  17.631   7.510
 3241POPC   C1B44419   2.318  17.526   6.297
 3241POPC   C2B44420   2.525  17.642   6.696
 3241POPC   C3B44421   2.613  17.600   7.153
 3241POPC   C4B44422   2.422  17.423   7.550
 3242POPC   NC344423  14.366  28.104   5.477
 3242POPC   PO444424  14.704  28.523   5.096
 3242POPC   GL144425  14.728  28.478   5.692
 3242POPC   GL244426  14.477  28.321   5.896
 3242POPC   C1A44427  14.655  28.581   6.260
 3242POPC   D2A44428  14.393  28.457   6.655
 3242POPC   C3A44429  14.245  28.488   7.122
 3242POPC   C4A44430  14.221  28.600   7.615
 3242POPC   C1B44431  14.595  28.051   6.250
 3242POPC   C2B44432  14.498  27.957   6.679
 3242POPC   C3B44433  14.547  28.022   7.114
 3242POPC   C4B44434  14.556  28.270   7.476
 3243POPC   NC344435  29.490  30.551   5.588
 3243POPC   PO444436  29.706  31.140   5.268
 3243POPC   GL144437  29.710  31.015   5.731
 3243POPC   GL244438  30.055  31.010   5.918
 3243POPC   C1A44439  29.705  30.783   6.154
 3243POPC   D2A44440  30.018  30.742   6.482
 3243POPC   C3A44441  29.897  30.516   6.862
 3243POPC   C4A44442  29.784  30.689   7.260
 3243POPC   C1B44443  30.344  31.127   6.259
 3243POPC   C2B44444  30.436  30.976   6.689
 3243POPC   C3B44445  30.205  30.993   7.076
 3243POPC   C4B44446  30.197  30.857   7.496
 3244POPC   NC344447  23.703  16.227   5.509
 3244POPC   PO444448  23.622  15.585   5.408
 3244POPC   GL144449  23.576  15.887   5.864
 3244POPC   GL244450  23.798  16.207   6.007
 3244POPC   C1A44451  23.421  16.060   6.293
 3244POPC   D2A44452  23.616  16.265   6.653
 3244POPC   C3A44453  23.543  16.051   7.062
 3244POPC   C4A44454  23.632  15.709   7.382
 3244POPC   C1B44455  23.906  15.893   6.316
 3244POPC   C2B44456  24.012  15.972   6.731
 3244POPC   C3B44457  24.025  16.185   7.110
 3244POPC   C4B44458  24.062  15.982   7.515
 3245POPC   NC344459  15.899   8.777   5.393
 3245POPC   PO444460  16.237   9.399   5.344
 3245POPC   GL144461  16.010   9.191   5.713
 3245POPC   GL244462  16.016   8.816   5.881
 3245POPC   C1A44463  15.793   9.278   6.103
 3245POPC   D2A44464  15.505   9.190   6.423
 3245POPC   C3A44465  15.626   8.992   6.788
 3245POPC   C4A44466  15.791   9.226   7.124
 3245POPC   C1B44467  15.900   8.825   6.326
 3245POPC   C2B44468  16.129   8.863   6.703
 3245POPC   C3B44469  16.341   9.157   6.948
 3245POPC   C4B44470  16.200   8.945   7.280
 3246POPC   NC344471   8.398  36.512   5.550
 3246POPC   PO444472   7.902  36.053   5.430
 3246POPC   GL144473   8.085  36.177   5.814
 3246POPC   GL244474   8.410  36.026   5.812
 3246POPC   C1A44475   8.177  36.203   6.254
 3246POPC   D2A44476   8.037  36.030   6.628
 3246POPC   C3A44477   8.142  36.264   6.983
 3246POPC   C4A44478   8.266  36.183   7.401
 3246POPC   C1B44479   8.395  35.732   6.193
 3246POPC   C2B44480   8.291  35.549   6.597
 3246POPC   C3B44481   8.308  35.778   7.000
 3246POPC   C4B44482   8.510  35.715   7.381
 3247POPC   NC344483  26.489  31.622   5.415
 3247POPC   PO444484  27.077  31.930   5.218
 3247POPC   GL144485  27.291  31.828   5.763
 3247POPC   GL244486  27.101  31.473   5.926
 3247POPC   C1A44487  27.144  31.829   6.252
 3247POPC   D2A44488  27.100  31.503   6.551
 3247POPC   C3A44489  26.806  31.628   6.841
 3247POPC   C4A44490  26.883  31.855   7.220
 3247POPC   C1B44491  26.808  31.283   6.213
 3247POPC   C2B44492  26.510  31.284   6.507
 3247POPC   C3B44493  26.424  31.274   6.925
 3247POPC   C4B44494  26.669  31.376   7.266
 3248POPC   NC344495  38.687  43.739   5.443
 3248POPC   PO444496  38.063  43.862   5.574
 3248POPC   GL144497  38.366  43.769   5.880
 3248POPC   GL244498  38.662  43.995   5.867
 3248POPC   C1A44499  38.261  43.706   6.303
 3248POPC   D2A44500  38.064  43.907   6.654
 3248POPC   C3A44501  38.262  44.016   7.037
 3248POPC   C4A44502  38.465  43.710   7.269
 3248POPC   C1B44503  38.595  44.114   6.258
 3248POPC   C2B44504  38.578  43.957   6.616
 3248POPC   C3B44505  38.774  43.937   6.949
 3248POPC   C4B44506  38.728  44.177   7.277
 3249POPC   NC344507  19.641   2.091   5.396
 3249POPC   PO444508  20.196   1.738   5.585
 3249POPC   GL144509  19.856   1.890   5.837
 3249POPC   GL244510  19.871   2.233   5.832
 3249POPC   C1A44511  19.736   1.856   6.268
 3249POPC   D2A44512  19.622   2.075   6.657
 3249POPC   C3A44513  19.805   1.811   7.006
 3249POPC   C4A44514  20.088   1.857   7.380
 3249POPC   C1B44515  19.864   2.348   6.269
 3249POPC   C2B44516  19.953   2.528   6.670
 3249POPC   C3B44517  19.976   2.314   7.043
 3249POPC   C4B44518  19.629   2.191   7.282
 3250POPC   NC344519  21.260  35.489   5.374
 3250POPC   PO444520  21.839  35.371   5.690
 3250POPC   GL144521  21.448  35.446   5.845
 3250POPC   GL244522  21.254  35.154   5.876
 3250POPC   C1A44523  21.416  35.639   6.193
 3250POPC   D2A44524  21.192  35.645   6.565
 3250POPC   C3A44525  21.436  35.438   6.854
 3250POPC   C4A44526  21.555  35.415   7.296
 3250POPC   C1B44527  21.281  35.173   6.339
 3250POPC   C2B44528  21.135  35.021   6.717
 3250POPC   C3B44529  21.389  34.972   7.038
 3250POPC   C4B44530  21.304  34.978   7.420
 3251POPC   NC344531  12.640  25.722   5.634
 3251POPC   PO444532  12.754  25.148   5.329
 3251POPC   GL144533  12.679  24.911   5.718
 3251POPC   GL244534  13.004  25.007   5.824
 3251POPC   C1A44535  12.675  24.857   6.197
 3251POPC   D2A44536  12.725  25.166   6.567
 3251POPC   C3A44537  12.595  25.170   7.009
 3251POPC   C4A44538  12.731  25.487   7.286
 3251POPC   C1B44539  13.131  25.188   6.240
 3251POPC   C2B44540  13.227  25.195   6.686
 3251POPC   C3B44541  13.152  25.253   7.107
 3251POPC   C4B44542  13.230  25.579   7.393
 3252POPC   NC344543   4.390  34.887   5.512
 3252POPC   PO444544   4.070  34.321   5.635
 3252POPC   GL144545   4.351  34.559   5.914
 3252POPC   GL244546   4.081  34.632   6.123
 3252POPC   C1A44547   4.459  34.931   6.231
 3252POPC   D2A44548   4.147  34.951   6.579
 3252POPC   C3A44549   4.324  34.693   6.937
 3252POPC   C4A44550   4.617  34.846   7.264
 3252POPC   C1B44551   4.139  34.226   6.342
 3252POPC   C2B44552   4.025  34.135   6.777
 3252POPC   C3B44553   3.902  34.447   7.138
 3252POPC   C4B44554   4.107  34.766   7.404
 3253POPC   NC344555  21.169  42.565   5.330
 3253POPC   PO444556  21.475  41.967   5.378
 3253POPC   GL144557  21.464  42.336   5.716
 3253POPC   GL244558  21.170  42.566   5.825
 3253POPC   C1A44559  21.545  42.486   6.162
 3253POPC   D2A44560  21.579  42.239   6.544
 3253POPC   C3A44561  21.704  42.418   6.903
 3253POPC   C4A44562  21.480  42.519   7.236
 3253POPC   C1B44563  21.124  42.802   6.209
 3253POPC   C2B44564  21.302  42.702   6.629
 3253POPC   C3B44565  21.038  42.600   7.008
 3253POPC   C4B44566  20.892  42.698   7.443
 3254POPC   NC344567  25.484   0.643   5.112
 3254POPC   PO444568  25.102   0.259   5.484
 3254POPC   GL144569  25.091   0.535   5.804
 3254POPC   GL244570  25.228   0.224   5.982
 3254POPC   C1A44571  25.003   0.608   6.245
 3254POPC   D2A44572  25.178   0.377   6.581
 3254POPC   C3A44573  25.158   0.576   6.963
 3254POPC   C4A44574  25.160   0.450   7.385
 3254POPC   C1B44575  25.475   0.012   6.287
 3254POPC   C2B44576  25.493  44.950   6.728
 3254POPC   C3B44577  25.519   0.220   7.075
 3254POPC   C4B44578  25.608   0.203   7.517
 3255POPC   NC344579  15.212  36.543   5.617
 3255POPC   PO444580  15.058  37.238   5.433
 3255POPC   GL144581  15.016  37.002   5.840
 3255POPC   GL244582  14.778  36.715   5.855
 3255POPC   C1A44583  14.854  36.996   6.289
 3255POPC   D2A44584  15.087  37.103   6.644
 3255POPC   C3A44585  14.991  37.024   7.013
 3255POPC   C4A44586  15.282  37.174   7.299
 3255POPC   C1B44587  15.049  36.528   6.230
 3255POPC   C2B44588  15.145  36.575   6.658
 3255POPC   C3B44589  15.252  36.616   7.124
 3255POPC   C4B44590  15.008  36.792   7.496
 3256POPC   NC344591  15.874  27.406   5.460
 3256POPC   PO444592  15.678  28.071   5.634
 3256POPC   GL144593  15.867  27.725   5.863
 3256POPC   GL244594  16.102  27.395   5.899
 3256POPC   C1A44595  15.907  27.724   6.266
 3256POPC   D2A44596  15.664  27.718   6.611
 3256POPC   C3A44597  15.982  27.843   6.844
 3256POPC   C4A44598  16.067  27.607   7.184
 3256POPC   C1B44599  16.310  27.398   6.285
 3256POPC   C2B44600  16.226  27.415   6.725
 3256POPC   C3B44601  16.178  27.126   7.015
 3256POPC   C4B44602  16.293  27.188   7.418
 3257POPC   NC344603  27.102  19.596   5.323
 3257POPC   PO444604  27.558  20.093   5.324
 3257POPC   GL144605  27.617  19.996   5.807
 3257POPC   GL244606  27.555  19.660   5.934
 3257POPC   C1A44607  27.750  20.234   6.141
 3257POPC   D2A44608  27.772  20.218   6.562
 3257POPC   C3A44609  27.634  19.914   6.830
 3257POPC   C4A44610  27.546  19.941   7.272
 3257POPC   C1B44611  27.507  19.721   6.374
 3257POPC   C2B44612  27.405  19.474   6.716
 3257POPC   C3B44613  27.632  19.302   7.031
 3257POPC   C4B44614  27.552  19.437   7.366
 3258POPC   NC344615  39.577  20.469   5.368
 3258POPC   PO444616  40.238  20.528   5.499
 3258POPC   GL144617  39.984  20.826   5.755
 3258POPC   GL244618  40.295  21.055   5.777
 3258POPC   C1A44619  39.713  20.740   6.167
 3258POPC   D2A44620  39.744  20.884   6.628
 3258POPC   C3A44621  39.625  20.663   7.036
 3258POPC   C4A44622  39.863  20.248   7.145
 3258POPC   C1B44623  40.333  20.769   6.137
 3258POPC   C2B44624  40.096  20.542   6.480
 3258POPC   C3B44625  40.107  20.653   6.928
 3258POPC   C4B44626  40.198  20.595   7.402
 3259POPC   NC344627   1.458  28.963   5.252
 3259POPC   PO444628   0.843  29.338   5.335
 3259POPC   GL144629   0.913  29.102   5.709
 3259POPC   GL244630   1.280  29.062   5.748
 3259POPC   C1A44631   0.952  29.209   6.139
 3259POPC   D2A44632   0.820  29.016   6.501
 3259POPC   C3A44633   1.029  29.154   6.845
 3259POPC   C4A44634   1.291  29.248   7.194
 3259POPC   C1B44635   1.444  29.079   6.188
 3259POPC   C2B44636   1.527  29.153   6.650
 3259POPC   C3B44637   1.448  28.828   6.993
 3259POPC   C4B44638   0.999  28.715   7.105
 3260POPC   NC344639  40.455  12.401   5.470
 3260POPC   PO444640  39.913  12.751   5.573
 3260POPC   GL144641  39.847  13.127   5.847
 3260POPC   GL244642  40.172  13.191   5.853
 3260POPC   C1A44643  39.941  13.094   6.302
 3260POPC   D2A44644  40.230  12.790   6.460
 3260POPC   C3A44645  40.201  12.725   6.905
 3260POPC   C4A44646  40.070  12.722   7.310
 3260POPC   C1B44647  40.476  13.131   6.149
 3260POPC   C2B44648  40.418  13.303   6.543
 3260POPC   C3B44649  40.197  13.253   6.914
 3260POPC   C4B44650  40.451  13.057   7.205
 3261POPC   NC344651  35.577  10.635   5.551
 3261POPC   PO444652  35.160  10.020   5.447
 3261POPC   GL144653  35.303  10.221   5.797
 3261POPC   GL244654  35.075  10.483   5.844
 3261POPC   C1A44655  35.450  10.390   6.218
 3261POPC   D2A44656  35.240  10.515   6.603
 3261POPC   C3A44657  35.437  10.757   6.981
 3261POPC   C4A44658  35.397  10.554   7.375
 3261POPC   C1B44659  35.206  10.830   6.109
 3261POPC   C2B44660  35.058  10.995   6.485
 3261POPC   C3B44661  34.952  10.836   6.875
 3261POPC   C4B44662  34.957  10.777   7.277
 3262POPC   NC344663  14.385  32.673   5.424
 3262POPC   PO444664  14.198  33.340   5.396
 3262POPC   GL144665  14.413  33.123   5.755
 3262POPC   GL244666  14.181  32.883   5.920
 3262POPC   C1A44667  14.663  32.946   6.116
 3262POPC   D2A44668  14.830  33.042   6.524
 3262POPC   C3A44669  14.652  32.830   6.892
 3262POPC   C4A44670  14.190  32.750   6.991
 3262POPC   C1B44671  14.254  33.247   6.242
 3262POPC   C2B44672  14.364  33.411   6.659
 3262POPC   C3B44673  14.345  33.241   7.093
 3262POPC   C4B44674  13.994  33.104   7.310
 3263POPC   NC344675  42.653   3.391   5.367
 3263POPC   PO444676  42.101   3.671   5.424
 3263POPC   GL144677  42.392   3.571   5.774
 3263POPC   GL244678  42.142   3.592   6.006
 3263POPC   C1A44679  42.578   3.462   6.207
 3263POPC   D2A44680  42.349   3.558   6.619
 3263POPC   C3A44681  42.407   3.544   7.100
 3263POPC   C4A44682  42.580   3.347   7.439
 3263POPC   C1B44683  42.157   3.942   6.333
 3263POPC   C2B44684  42.059   3.940   6.814
 3263POPC   C3B44685  42.193   3.974   7.275
 3263POPC   C4B44686  42.052   3.930   7.725
 3264POPC   NC344687  26.003   5.377   5.515
 3264POPC   PO444688  26.392   4.786   5.447
 3264POPC   GL144689  26.124   4.824   5.855
 3264POPC   GL244690  26.039   5.157   5.971
 3264POPC   C1A44691  26.054   4.822   6.355
 3264POPC   D2A44692  25.755   4.913   6.745
 3264POPC   C3A44693  25.876   5.230   7.069
 3264POPC   C4A44694  25.999   5.652   7.181
 3264POPC   C1B44695  25.826   5.328   6.331
 3264POPC   C2B44696  25.949   5.588   6.680
 3264POPC   C3B44697  26.367   5.493   6.886
 3264POPC   C4B44698  26.560   5.466   7.301
 3265POPC   NC344699   2.221  20.805   5.496
 3265POPC   PO444700   2.014  20.191   5.357
 3265POPC   GL144701   1.931  20.533   5.795
 3265POPC   GL244702   1.729  20.735   6.029
 3265POPC   C1A44703   2.193  20.783   6.182
 3265POPC   D2A44704   1.915  20.849   6.549
 3265POPC   C3A44705   1.991  20.811   7.003
 3265POPC   C4A44706   2.078  20.560   7.396
 3265POPC   C1B44707   1.896  20.390   6.314
 3265POPC   C2B44708   2.112  20.365   6.725
 3265POPC   C3B44709   1.839  20.278   7.053
 3265POPC   C4B44710   1.532  19.964   7.136
 3266POPC   NC344711  43.264  16.229   5.415
 3266POPC   PO444712  42.873  15.746   5.316
 3266POPC   GL144713  42.964  15.826   5.752
 3266POPC   GL244714  42.820  16.181   5.775
 3266POPC   C1A44715  43.163  15.687   6.175
 3266POPC   D2A44716  42.993  15.769   6.613
 3266POPC   C3A44717  43.155  15.692   7.059
 3266POPC   C4A44718  43.230  15.828   7.538
 3266POPC   C1B44719  42.981  16.161   6.234
 3266POPC   C2B44720  43.033  16.281   6.703
 3266POPC   C3B44721  43.083  16.179   7.164
 3266POPC   C4B44722  42.879  16.275   7.571
 3267POPC   NC344723  20.566   4.486   5.321
 3267POPC   PO444724  20.220   3.918   5.298
 3267POPC   GL144725  20.537   4.099   5.652
 3267POPC   GL244726  20.554   4.452   5.824
 3267POPC   C1A44727  20.505   4.060   6.133
 3267POPC   D2A44728  20.585   3.832   6.513
 3267POPC   C3A44729  20.518   4.065   6.908
 3267POPC   C4A44730  20.780   4.290   7.207
 3267POPC   C1B44731  20.609   4.562   6.274
 3267POPC   C2B44732  20.643   4.790   6.677
 3267POPC   C3B44733  20.755   4.822   7.142
 3267POPC   C4B44734  20.677   4.701   7.608
 3268POPC   NC344735  20.067   3.601   5.574
 3268POPC   PO444736  19.437   3.413   5.361
 3268POPC   GL144737  19.647   3.348   5.758
 3268POPC   GL244738  19.692   3.723   5.897
 3268POPC   C1A44739  19.774   3.349   6.202
 3268POPC   D2A44740  19.639   3.675   6.517
 3268POPC   C3A44741  19.707   3.509   6.947
 3268POPC   C4A44742  19.985   3.361   7.287
 3268POPC   C1B44743  20.078   3.751   6.239
 3268POPC   C2B44744  20.126   3.711   6.704
 3268POPC   C3B44745  20.002   3.917   7.072
 3268POPC   C4B44746  20.043   3.804   7.527
 3269POPC   NC344747  41.012  44.300   5.529
 3269POPC   PO444748  40.556  44.695   5.383
 3269POPC   GL144749  40.672  44.632   5.804
 3269POPC   GL244750  40.510  44.309   5.816
 3269POPC   C1A44751  40.956  44.802   6.165
 3269POPC   D2A44752  41.258  44.728   6.540
 3269POPC   C3A44753  41.014  44.757   6.940
 3269POPC   C4A44754  40.799   0.080   7.184
 3269POPC   C1B44755  40.614  44.412   6.271
 3269POPC   C2B44756  40.513  44.622   6.690
 3269POPC   C3B44757  40.586  44.467   7.109
 3269POPC   C4B44758  41.017  44.319   7.268
 3270POPC   NC344759   9.761  12.244   5.223
 3270POPC   PO444760  10.002  11.645   5.434
 3270POPC   GL144761   9.788  11.981   5.689
 3270POPC   GL244762   9.462  11.883   5.842
 3270POPC   C1A44763   9.921  12.218   6.071
 3270POPC   D2A44764   9.965  12.079   6.530
 3270POPC   C3A44765   9.889  12.363   6.891
 3270POPC   C4A44766   9.478  12.474   7.041
 3270POPC   C1B44767   9.526  11.964   6.259
 3270POPC   C2B44768   9.440  12.133   6.649
 3270POPC   C3B44769   9.648  11.905   6.944
 3270POPC   C4B44770   9.534  11.658   7.282
 3271POPC   NC344771   1.999  31.699   5.105
 3271POPC   PO444772   1.860  31.084   5.482
 3271POPC   GL144773   1.826  31.537   5.646
 3271POPC   GL244774   2.185  31.593   5.698
 3271POPC   C1A44775   1.786  31.773   6.067
 3271POPC   D2A44776   1.741  31.575   6.505
 3271POPC   C3A44777   1.902  31.664   6.949
 3271POPC   C4A44778   1.968  31.487   7.388
 3271POPC   C1B44779   2.158  31.422   6.138
 3271POPC   C2B44780   2.234  31.409   6.603
 3271POPC   C3B44781   2.169  31.197   7.002
 3271POPC   C4B44782   2.230  30.984   7.394
 3272POPC   NC344783  42.929  21.745   5.239
 3272POPC   PO444784  43.387  21.213   5.321
 3272POPC   GL144785  43.311  21.093   5.812
 3272POPC   GL244786  43.058  21.374   5.809
 3272POPC   C1A44787  43.105  21.134   6.296
 3272POPC   D2A44788  43.158  21.587   6.552
 3272POPC   C3A44789  43.172  21.724   7.021
 3272POPC   C4A44790  43.061  21.750   7.495
 3272POPC   C1B44791  42.811  21.535   6.168
 3272POPC   C2B44792  42.702  21.348   6.570
 3272POPC   C3B44793  42.975  21.259   6.901
 3272POPC   C4B44794  42.903  21.316   7.304
 3273POPC   NC344795   0.230   5.642   5.611
 3273POPC   PO444796   0.629   6.130   5.308
 3273POPC   GL144797   0.650   5.970   5.732
 3273POPC   GL244798   0.339   6.127   5.761
 3273POPC   C1A44799   0.556   5.854   6.187
 3273POPC   D2A44800   0.747   5.752   6.600
 3273POPC   C3A44801   0.467   5.889   6.898
 3273POPC   C4A44802   0.548   5.863   7.301
 3273POPC   C1B44803   0.128   6.200   6.106
 3273POPC   C2B44804   0.189   6.092   6.509
 3273POPC   C3B44805   0.140   6.317   6.864
 3273POPC   C4B44806   0.156   6.205   7.285
 3274POPC   NC344807  30.804  36.801   5.326
 3274POPC   PO444808  30.231  36.995   5.400
 3274POPC   GL144809  30.504  36.960   5.738
 3274POPC   GL244810  30.645  36.628   5.823
 3274POPC   C1A44811  30.635  37.003   6.163
 3274POPC   D2A44812  30.646  36.738   6.501
 3274POPC   C3A44813  30.508  36.858   6.900
 3274POPC   C4A44814  30.636  37.228   7.145
 3274POPC   C1B44815  30.929  36.493   6.147
 3274POPC   C2B44816  31.145  36.658   6.520
 3274POPC   C3B44817  30.971  36.617   6.945
 3274POPC   C4B44818  30.757  36.704   7.341
 3275POPC   NC344819  24.586  28.928   5.335
 3275POPC   PO444820  24.078  29.313   5.608
 3275POPC   GL144821  24.508  29.451   5.731
 3275POPC   GL244822  24.701  29.154   5.817
 3275POPC   C1A44823  24.506  29.493   6.182
 3275POPC   D2A44824  24.390  29.324   6.574
 3275POPC   C3A44825  24.359  29.502   6.974
 3275POPC   C4A44826  24.555  29.213   7.283
 3275POPC   C1B44827  24.526  28.952   6.226
 3275POPC   C2B44828  24.495  28.821   6.700
 3275POPC   C3B44829  24.781  28.765   7.063
 3275POPC   C4B44830  24.777  28.804   7.513
 3276POPC   NC344831   5.872   3.505   5.383
 3276POPC   PO444832   5.484   4.065   5.345
 3276POPC   GL144833   5.614   3.807   5.755
 3276POPC   GL244834   5.985   3.758   5.842
 3276POPC   C1A44835   5.605   3.663   6.200
 3276POPC   D2A44836   5.755   3.712   6.633
 3276POPC   C3A44837   5.679   3.385   6.945
 3276POPC   C4A44838   5.817   3.445   7.369
 3276POPC   C1B44839   6.147   3.745   6.263
 3276POPC   C2B44840   6.208   3.432   6.588
 3276POPC   C3B44841   6.172   3.531   7.011
 3276POPC   C4B44842   6.162   3.816   7.373
 3277POPC   NC344843  43.279  18.063   5.437
 3277POPC   PO444844  42.914  18.748   5.558
 3277POPC   GL144845  42.860  18.308   5.679
 3277POPC   GL244846  43.183  18.307   5.865
 3277POPC   C1A44847  42.779  18.175   6.119
 3277POPC   D2A44848  43.121  18.269   6.449
 3277POPC   C3A44849  42.978  18.301   6.893
 3277POPC   C4A44850  43.038  18.134   7.333
 3277POPC   C1B44851  43.400  17.970   6.094
 3277POPC   C2B44852  43.363  17.815   6.519
 3277POPC   C3B44853  43.464  18.134   6.854
 3277POPC   C4B44854  43.407  18.434   7.185
 3278POPC   NC344855  42.732   1.785   5.546
 3278POPC   PO444856  43.124   2.245   5.163
 3278POPC   GL144857  43.146   2.186   5.631
 3278POPC   GL244858  43.237   1.823   5.738
 3278POPC   C1A44859  42.996   2.240   6.077
 3278POPC   D2A44860  42.865   1.992   6.464
 3278POPC   C3A44861  43.092   2.071   6.859
 3278POPC   C4A44862  43.010   2.174   7.314
 3278POPC   C1B44863  43.162   1.660   6.175
 3278POPC   C2B44864  43.247   1.608   6.617
 3278POPC   C3B44865  43.037   1.590   7.038
 3278POPC   C4B44866  43.169   1.728   7.448
 3279POPC   NC344867   9.233  10.847   5.649
 3279POPC   PO444868   9.020  11.458   5.418
 3279POPC   GL144869   8.971  11.285   5.803
 3279POPC   GL244870   9.309  11.318   5.846
 3279POPC   C1A44871   8.958  11.097   6.231
 3279POPC   D2A44872   9.151  11.159   6.637
 3279POPC   C3A44873   8.892  11.110   6.991
 3279POPC   C4A44874   8.587  11.344   7.246
 3279POPC   C1B44875   9.239  11.544   6.206
 3279POPC   C2B44876   9.402  11.603   6.604
 3279POPC   C3B44877   9.144  11.647   6.921
 3279POPC   C4B44878   9.060  11.493   7.282
 3280POPC   NC344879  33.614  16.022   5.462
 3280POPC   PO444880  34.154  15.706   5.519
 3280POPC   GL144881  33.884  15.830   5.857
 3280POPC   GL244882  33.528  15.662   5.816
 3280POPC   C1A44883  33.904  16.135   6.205
 3280POPC   D2A44884  33.899  16.313   6.624
 3280POPC   C3A44885  33.521  16.288   6.821
 3280POPC   C4A44886  33.607  16.194   7.222
 3280POPC   C1B44887  33.642  15.567   6.226
 3280POPC   C2B44888  33.674  15.839   6.577
 3280POPC   C3B44889  33.920  15.885   6.941
 3280POPC   C4B44890  33.896  15.769   7.372
 3281POPC   NC344891  43.446  42.378   5.613
 3281POPC   PO444892  42.809  42.168   5.456
 3281POPC   GL144893  42.977  42.302   5.829
 3281POPC   GL244894  42.759  42.534   5.836
 3281POPC   C1A44895  43.140  42.262   6.277
 3281POPC   D2A44896  43.025  42.515   6.630
 3281POPC   C3A44897  43.062  42.298   7.018
 3281POPC   C4A44898  43.388  42.021   7.141
 3281POPC   C1B44899  43.087  42.726   6.140
 3281POPC   C2B44900  43.430  42.784   6.512
 3281POPC   C3B44901  43.412  42.667   7.009
 3281POPC   C4B44902  43.058  42.696   7.374
 3282POPC   NC344903  10.316  34.261   5.629
 3282POPC   PO444904  10.635  33.683   5.414
 3282POPC   GL144905  10.759  33.718   5.867
 3282POPC   GL244906  10.744  34.077   5.869
 3282POPC   C1A44907  10.664  33.735   6.329
 3282POPC   D2A44908  10.301  33.938   6.529
 3282POPC   C3A44909  10.339  33.844   6.947
 3282POPC   C4A44910  10.317  33.536   7.264
 3282POPC   C1B44911  10.661  34.240   6.290
 3282POPC   C2B44912  10.678  34.266   6.740
 3282POPC   C3B44913  10.674  34.164   7.183
 3282POPC   C4B44914  10.765  34.020   7.648
 3283POPC   NC344915  19.481   6.658   5.479
 3283POPC   PO444916  19.968   7.120   5.269
 3283POPC   GL144917  19.883   6.897   5.716
 3283POPC   GL244918  19.547   6.977   5.844
 3283POPC   C1A44919  19.830   6.650   6.129
 3283POPC   D2A44920  19.788   6.810   6.583
 3283POPC   C3A44921  19.673   6.512   6.900
 3283POPC   C4A44922  19.718   6.263   7.254
 3283POPC   C1B44923  19.400   6.992   6.254
 3283POPC   C2B44924  19.376   7.147   6.674
 3283POPC   C3B44925  19.544   6.983   7.060
 3283POPC   C4B44926  19.494   6.685   7.395
 3284POPC   NC344927   4.839  18.740   5.459
 3284POPC   PO444928   4.969  18.069   5.352
 3284POPC   GL144929   5.027  18.191   5.760
 3284POPC   GL244930   5.147  18.518   5.804
 3284POPC   C1A44931   5.228  18.176   6.168
 3284POPC   D2A44932   5.395  18.229   6.566
 3284POPC   C3A44933   5.058  18.257   6.855
 3284POPC   C4A44934   5.000  18.048   7.217
 3284POPC   C1B44935   4.827  18.500   6.117
 3284POPC   C2B44936   4.751  18.561   6.542
 3284POPC   C3B44937   4.579  18.494   6.940
 3284POPC   C4B44938   4.793  18.479   7.304
 3285POPC   NC344939  32.043  27.538   5.478
 3285POPC   PO444940  32.556  28.040   5.422
 3285POPC   GL144941  32.443  27.810   5.847
 3285POPC   GL244942  32.104  27.704   5.999
 3285POPC   C1A44943  32.551  27.654   6.280
 3285POPC   D2A44944  32.540  27.821   6.699
 3285POPC   C3A44945  32.318  27.636   7.033
 3285POPC   C4A44946  31.878  27.681   7.121
 3285POPC   C1B44947  32.079  27.600   6.476
 3285POPC   C2B44948  32.118  27.236   6.785
 3285POPC   C3B44949  32.053  27.216   7.231
 3285POPC   C4B44950  32.302  27.434   7.589
 3286POPC   NC344951  29.444  39.937   5.468
 3286POPC   PO444952  30.112  39.698   5.563
 3286POPC   GL144953  29.830  39.828   5.863
 3286POPC   GL244954  29.715  39.520   5.890
 3286POPC   C1A44955  29.708  40.025   6.277
 3286POPC   D2A44956  29.548  39.947   6.704
 3286POPC   C3A44957  29.832  40.110   6.991
 3286POPC   C4A44958  29.898  40.220   7.417
 3286POPC   C1B44959  29.816  39.537   6.330
 3286POPC   C2B44960  29.912  39.596   6.754
 3286POPC   C3B44961  29.908  39.630   7.167
 3286POPC   C4B44962  30.046  39.740   7.538
 3287POPC   NC344963   6.642  21.833   5.427
 3287POPC   PO444964   6.838  22.505   5.386
 3287POPC   GL144965   6.770  22.254   5.770
 3287POPC   GL244966   6.493  22.016   5.881
 3287POPC   C1A44967   6.772  22.285   6.225
 3287POPC   D2A44968   7.025  22.185   6.569
 3287POPC   C3A44969   6.894  22.094   6.964
 3287POPC   C4A44970   6.773  22.324   7.327
 3287POPC   C1B44971   6.602  21.794   6.300
 3287POPC   C2B44972   6.480  21.968   6.697
 3287POPC   C3B44973   6.390  22.339   6.964
 3287POPC   C4B44974   6.267  22.345   7.429
 3288POPC   NC344975  42.486  17.665   5.279
 3288POPC   PO444976  41.859  17.538   5.470
 3288POPC   GL144977  42.241  17.641   5.746
 3288POPC   GL244978  42.526  17.399   5.812
 3288POPC   C1A44979  42.419  17.787   6.163
 3288POPC   D2A44980  42.393  17.623   6.610
 3288POPC   C3A44981  42.210  17.741   7.025
 3288POPC   C4A44982  42.569  17.858   7.290
 3288POPC   C1B44983  42.187  17.334   6.190
 3288POPC   C2B44984  42.158  17.164   6.658
 3288POPC   C3B44985  42.381  17.233   7.106
 3288POPC   C4B44986  42.426  17.066   7.590
 3289POPC   NC344987  42.728   1.867   5.045
 3289POPC   PO444988  42.995   1.399   5.521
 3289POPC   GL144989  43.220   1.263   5.866
 3289POPC   GL244990  43.578   1.343   5.796
 3289POPC   C1A44991  43.040   1.137   6.268
 3289POPC   D2A44992  42.810   0.955   6.620
 3289POPC   C3A44993  43.020   1.023   7.033
 3289POPC   C4A44994  43.190   1.234   7.408
 3289POPC   C1B44995  43.560   1.155   6.226
 3289POPC   C2B44996  43.385   1.086   6.639
 3289POPC   C3B44997  43.460   1.315   6.979
 3289POPC   C4B44998  43.645   1.485   7.301
 3290POPC   NC344999  26.974  28.637   5.138
 3290POPC   PO445000  26.708  28.139   5.475
 3290POPC   GL145001  26.975  28.458   5.691
 3290POPC   GL245002  26.815  28.737   5.825
 3290POPC   C1A45003  27.080  28.461   6.160
 3290POPC   D2A45004  26.900  28.281   6.561
 3290POPC   C3A45005  27.086  28.315   6.999
 3290POPC   C4A45006  27.145  28.136   7.409
 3290POPC   C1B45007  26.631  28.718   6.273
 3290POPC   C2B45008  26.574  28.653   6.752
 3290POPC   C3B45009  26.575  28.586   7.200
 3290POPC   C4B45010  26.620  28.804   7.616
 3291POPC   NC345011  12.585  23.348   5.360
 3291POPC   PO445012  11.897  23.027   5.383
 3291POPC   GL145013  12.018  22.977   5.793
 3291POPC   GL245014  12.379  22.873   5.789
 3291POPC   C1A45015  12.018  23.110   6.230
 3291POPC   D2A45016  12.237  23.064   6.618
 3291POPC   C3A45017  12.070  22.795   6.898
 3291POPC   C4A45018  12.036  22.897   7.292
 3291POPC   C1B45019  12.520  22.932   6.200
 3291POPC   C2B45020  12.468  22.629   6.548
 3291POPC   C3B45021  12.566  22.740   6.951
 3291POPC   C4B45022  12.377  22.481   7.263
 3292POPC   NC345023  19.243   1.178   5.301
 3292POPC   PO445024  18.608   0.956   5.476
 3292POPC   GL145025  18.965   1.090   5.730
 3292POPC   GL245026  19.109   1.453   5.743
 3292POPC   C1A45027  19.251   1.104   6.090
 3292POPC   D2A45028  19.504   1.091   6.477
 3292POPC   C3A45029  19.246   1.196   6.824
 3292POPC   C4A45030  19.140   1.120   7.225
 3292POPC   C1B45031  19.296   1.603   6.169
 3292POPC   C2B45032  19.256   1.682   6.642
 3292POPC   C3B45033  19.332   1.597   7.130
 3292POPC   C4B45034  19.296   1.541   7.599
 3293POPC   NC345035  40.193  44.391   5.384
 3293POPC   PO445036  39.998  44.991   5.573
 3293POPC   GL145037  40.129  44.775   5.903
 3293POPC   GL245038  39.957  44.472   5.837
 3293POPC   C1A45039  39.898  44.735   6.291
 3293POPC   D2A45040  39.853  44.405   6.593
 3293POPC   C3A45041  39.996  44.541   7.014
 3293POPC   C4A45042  39.961  44.723   7.439
 3293POPC   C1B45043  40.141  44.231   6.182
 3293POPC   C2B45044  40.320  44.145   6.609
 3293POPC   C3B45045  40.203  44.072   7.027
 3293POPC   C4B45046  39.998  44.193   7.413
 3294POPC   NC345047  37.348  27.001   5.481
 3294POPC   PO445048  36.964  26.413   5.468
 3294POPC   GL145049  36.731  26.531   5.808
 3294POPC   GL245050  36.773  26.914   5.786
 3294POPC   C1A45051  36.832  26.618   6.244
 3294POPC   D2A45052  36.929  26.955   6.539
 3294POPC   C3A45053  37.167  26.795   6.888
 3294POPC   C4A45054  36.984  26.498   7.187
 3294POPC   C1B45055  36.531  27.062   6.165
 3294POPC   C2B45056  36.481  27.229   6.612
 3294POPC   C3B45057  36.652  26.986   6.987
 3294POPC   C4B45058  36.974  27.018   7.293
 3295POPC   NC345059  16.982  32.659   5.405
 3295POPC   PO445060  16.506  33.055   5.163
 3295POPC   GL145061  16.661  33.049   5.641
 3295POPC   GL245062  16.474  33.322   5.766
 3295POPC   C1A45063  16.690  32.992   6.131
 3295POPC   D2A45064  16.883  32.879   6.545
 3295POPC   C3A45065  16.665  32.883   6.940
 3295POPC   C4A45066  16.704  32.640   7.309
 3295POPC   C1B45067  16.571  33.491   6.198
 3295POPC   C2B45068  16.538  33.301   6.621
 3295POPC   C3B45069  16.540  33.413   7.071
 3295POPC   C4B45070  16.610  33.374   7.499
 3296POPC   NC345071  14.807  13.467   5.424
 3296POPC   PO445072  14.264  13.832   5.515
 3296POPC   GL145073  14.335  13.607   5.872
 3296POPC   GL245074  14.634  13.360   5.897
 3296POPC   C1A45075  14.149  13.773   6.241
 3296POPC   D2A45076  14.223  14.001   6.617
 3296POPC   C3A45077  14.148  13.808   6.998
 3296POPC   C4A45078  14.485  13.702   7.266
 3296POPC   C1B45079  14.634  13.567   6.305
 3296POPC   C2B45080  14.619  13.619   6.750
 3296POPC   C3B45081  14.926  13.540   7.076
 3296POPC   C4B45082  14.965  13.618   7.504
 3297POPC   NC345083  33.173  42.333   5.404
 3297POPC   PO445084  32.828  42.749   5.502
 3297POPC   GL145085  33.054  42.595   5.884
 3297POPC   GL245086  33.167  42.249   5.938
 3297POPC   C1A45087  33.054  42.562   6.355
 3297POPC   D2A45088  33.094  42.424   6.807
 3297POPC   C3A45089  32.769  42.581   7.125
 3297POPC   C4A45090  32.613  42.640   7.576
 3297POPC   C1B45091  33.417  42.195   6.344
 3297POPC   C2B45092  33.516  42.120   6.800
 3297POPC   C3B45093  33.357  42.227   7.240
 3297POPC   C4B45094  33.325  42.222   7.728
 3298POPC   NC345095   2.320  26.860   5.520
 3298POPC   PO445096   2.814  27.257   5.444
 3298POPC   GL145097   2.861  26.993   5.819
 3298POPC   GL245098   2.539  26.872   5.990
 3298POPC   C1A45099   2.865  27.123   6.278
 3298POPC   D2A45100   2.916  26.889   6.682
 3298POPC   C3A45101   2.577  27.002   6.957
 3298POPC   C4A45102   2.568  27.090   7.394
 3298POPC   C1B45103   2.857  26.612   6.235
 3298POPC   C2B45104   3.180  26.463   6.546
 3298POPC   C3B45105   3.257  26.518   6.985
 3298POPC   C4B45106   2.928  26.737   7.196
 3299POPC   NC345107  13.140  38.000   5.707
 3299POPC   PO445108  13.678  38.288   5.306
 3299POPC   GL145109  13.529  38.473   5.718
 3299POPC   GL245110  13.697  38.790   5.724
 3299POPC   C1A45111  13.348  38.412   6.156
 3299POPC   D2A45112  13.306  38.060   6.474
 3299POPC   C3A45113  13.480  38.154   6.883
 3299POPC   C4A45114  13.438  38.302   7.337
 3299POPC   C1B45115  13.857  38.563   6.105
 3299POPC   C2B45116  13.687  38.496   6.541
 3299POPC   C3B45117  13.736  38.579   6.990
 3299POPC   C4B45118  13.955  38.273   7.227
 3300POPC   NC345119  33.487  15.290   5.444
 3300POPC   PO445120  33.780  14.795   5.520
 3300POPC   GL145121  33.834  14.926   5.912
 3300POPC   GL245122  33.895  15.281   5.856
 3300POPC   C1A45123  33.724  15.042   6.323
 3300POPC   D2A45124  33.750  15.321   6.667
 3300POPC   C3A45125  33.685  15.136   7.046
 3300POPC   C4A45126  33.712  14.914   7.397
 3300POPC   C1B45127  34.189  15.220   6.224
 3300POPC   C2B45128  34.253  15.369   6.661
 3300POPC   C3B45129  34.157  15.342   7.144
 3300POPC   C4B45130  34.025  15.302   7.613
 3301POPC   NC345131   2.342  32.022   5.476
 3301POPC   PO445132   2.933  32.201   5.443
 3301POPC   GL145133   2.895  32.383   5.844
 3301POPC   GL245134   2.605  32.189   5.896
 3301POPC   C1A45135   2.993  32.197   6.271
 3301POPC   D2A45136   3.074  31.951   6.661
 3301POPC   C3A45137   3.168  32.214   7.026
 3301POPC   C4A45138   3.048  32.600   7.285
 3301POPC   C1B45139   2.575  32.493   6.228
 3301POPC   C2B45140   2.857  32.563   6.588
 3301POPC   C3B45141   2.693  32.252   6.830
 3301POPC   C4B45142   2.675  32.272   7.244
 3302POPC   NC345143  39.764  26.310   5.470
 3302POPC   PO445144  40.139  26.970   5.440
 3302POPC   GL145145  40.206  26.595   5.695
 3302POPC   GL245146  40.208  26.881   5.933
 3302POPC   C1A45147  40.078  26.465   6.151
 3302POPC   D2A45148  40.000  26.679   6.543
 3302POPC   C3A45149  39.917  26.468   6.938
 3302POPC   C4A45150  40.022  26.620   7.348
 3302POPC   C1B45151  39.818  27.012   6.180
 3302POPC   C2B45152  39.583  26.997   6.571
 3302POPC   C3B45153  39.745  26.960   7.011
 3302POPC   C4B45154  39.716  27.023   7.484
 3303POPC   NC345155  32.840  10.457   5.385
 3303POPC   PO445156  33.484  10.217   5.481
 3303POPC   GL145157  33.261  10.503   5.810
 3303POPC   GL245158  32.891  10.650   5.839
 3303POPC   C1A45159  33.115  10.444   6.242
 3303POPC   D2A45160  32.952  10.309   6.610
 3303POPC   C3A45161  33.229  10.289   6.932
 3303POPC   C4A45162  33.240  10.547   7.282
 3303POPC   C1B45163  32.666  10.795   6.207
 3303POPC   C2B45164  32.821  10.878   6.636
 3303POPC   C3B45165  32.800  10.597   7.002
 3303POPC   C4B45166  32.787  10.138   7.155
 3304POPC   NC345167  12.141  36.694   5.460
 3304POPC   PO445168  11.912  37.298   5.512
 3304POPC   GL145169  12.088  37.093   5.895
 3304POPC   GL245170  12.305  36.775   5.939
 3304POPC   C1A45171  12.146  36.994   6.368
 3304POPC   D2A45172  12.345  36.903   6.768
 3304POPC   C3A45173  12.152  36.996   7.175
 3304POPC   C4A45174  11.940  37.051   7.587
 3304POPC   C1B45175  11.877  36.652   6.079
 3304POPC   C2B45176  11.665  36.638   6.469
 3304POPC   C3B45177  11.660  36.510   6.894
 3304POPC   C4B45178  11.766  36.678   7.286
 3305POPC   NC345179   6.757  39.231   5.119
 3305POPC   PO445180   6.435  39.370   5.662
 3305POPC   GL145181   6.594  39.581   6.000
 3305POPC   GL245182   6.838  39.788   5.810
 3305POPC   C1A45183   6.565  39.545   6.481
 3305POPC   D2A45184   6.405  39.260   6.816
 3305POPC   C3A45185   6.732  39.020   7.031
 3305POPC   C4A45186   6.873  39.038   7.467
 3305POPC   C1B45187   6.877  39.908   6.257
 3305POPC   C2B45188   6.981  39.790   6.706
 3305POPC   C3B45189   6.657  39.714   7.020
 3305POPC   C4B45190   6.555  39.405   7.312
 3306POPC   NC345191  43.461  20.121   5.534
 3306POPC   PO445192  42.957  19.740   5.435
 3306POPC   GL145193  43.024  19.792   5.865
 3306POPC   GL245194  43.323  19.940   5.980
 3306POPC   C1A45195  42.855  19.911   6.282
 3306POPC   D2A45196  42.917  19.986   6.741
 3306POPC   C3A45197  42.971  19.618   7.008
 3306POPC   C4A45198  43.115  19.466   7.365
 3306POPC   C1B45199  43.609  19.909   6.329
 3306POPC   C2B45200  43.570  20.121   6.723
 3306POPC   C3B45201  43.340  20.005   7.089
 3306POPC   C4B45202  43.404  20.003   7.550
 3307POPC   NC345203   6.573   0.671   5.465
 3307POPC   PO445204   6.305   0.028   5.440
 3307POPC   GL145205   6.413   0.116   5.861
 3307POPC   GL245206   6.756   0.205   5.787
 3307POPC   C1A45207   6.475   0.365   6.247
 3307POPC   D2A45208   6.819   0.433   6.545
 3307POPC   C3A45209   6.769   0.614   6.964
 3307POPC   C4A45210   6.913   0.664   7.403
 3307POPC   C1B45211   6.877   0.045   6.185
 3307POPC   C2B45212   7.046  44.973   6.584
 3307POPC   C3B45213   6.867   0.085   6.970
 3307POPC   C4B45214   6.628   0.253   7.326
 3308POPC   NC345215   6.829   3.948   5.515
 3308POPC   PO445216   6.309   3.522   5.504
 3308POPC   GL145217   6.446   3.372   5.867
 3308POPC   GL245218   6.532   3.731   5.913
 3308POPC   C1A45219   6.411   3.088   6.232
 3308POPC   D2A45220   6.493   2.973   6.666
 3308POPC   C3A45221   6.645   3.294   6.968
 3308POPC   C4A45222   6.615   3.677   7.220
 3308POPC   C1B45223   6.632   3.574   6.308
 3308POPC   C2B45224   6.637   3.739   6.701
 3308POPC   C3B45225   6.999   3.691   6.927
 3308POPC   C4B45226   7.095   3.906   7.321
 3309POPC   NC345227  31.750  34.863   5.414
 3309POPC   PO445228  31.660  34.270   5.708
 3309POPC   GL145229  31.538  34.671   5.874
 3309POPC   GL245230  31.795  34.921   5.912
 3309POPC   C1A45231  31.484  34.658   6.310
 3309POPC   D2A45232  31.464  34.447   6.685
 3309POPC   C3A45233  31.385  34.689   7.038
 3309POPC   C4A45234  31.436  34.517   7.461
 3309POPC   C1B45235  31.965  34.764   6.292
 3309POPC   C2B45236  31.950  34.598   6.699
 3309POPC   C3B45237  31.810  34.419   7.088
 3309POPC   C4B45238  31.836  34.786   7.322
 3310POPC   NC345239  32.525  14.557   5.379
 3310POPC   PO445240  32.079  14.047   5.379
 3310POPC   GL145241  32.309  14.239   5.717
 3310POPC   GL245242  32.513  13.982   5.842
 3310POPC   C1A45243  32.217  14.609   6.034
 3310POPC   D2A45244  32.154  14.841   6.469
 3310POPC   C3A45245  32.103  14.661   6.920
 3310POPC   C4A45246  32.228  14.663   7.372
 3310POPC   C1B45247  32.349  14.158   6.232
 3310POPC   C2B45248  32.183  14.236   6.644
 3310POPC   C3B45249  32.238  14.045   7.051
 3310POPC   C4B45250  32.461  14.181   7.365
 3311POPC   NC345251  40.283  33.577   5.426
 3311POPC   PO445252  39.747  34.026   5.647
 3311POPC   GL145253  40.080  34.002   5.891
 3311POPC   GL245254  40.131  33.695   5.894
 3311POPC   C1A45255  40.051  33.950   6.334
 3311POPC   D2A45256  40.209  33.862   6.710
 3311POPC   C3A45257  39.977  33.986   7.061
 3311POPC   C4A45258  39.997  33.954   7.545
 3311POPC   C1B45259  40.256  33.469   6.260
 3311POPC   C2B45260  40.252  33.306   6.671
 3311POPC   C3B45261  40.181  33.459   7.085
 3311POPC   C4B45262  39.767  33.582   7.256
 3312POPC   NC345263  16.192  24.121   5.123
 3312POPC   PO445264  16.296  23.466   5.312
 3312POPC   GL145265  16.144  23.669   5.720
 3312POPC   GL245266  15.816  23.821   5.644
 3312POPC   C1A45267  16.099  23.545   6.190
 3312POPC   D2A45268  16.327  23.332   6.553
 3312POPC   C3A45269  16.088  23.347   6.944
 3312POPC   C4A45270  15.952  23.663   7.194
 3312POPC   C1B45271  15.853  23.988   6.083
 3312POPC   C2B45272  15.725  24.137   6.502
 3312POPC   C3B45273  15.852  24.112   6.931
 3312POPC   C4B45274  15.520  23.965   7.201
 3313POPC   NC345275  25.518   6.176   5.160
 3313POPC   PO445276  25.260   5.757   5.480
 3313POPC   GL145277  25.363   5.788   5.872
 3313POPC   GL245278  25.591   5.479   5.859
 3313POPC   C1A45279  25.193   5.942   6.280
 3313POPC   D2A45280  24.947   5.852   6.660
 3313POPC   C3A45281  24.999   5.978   7.120
 3313POPC   C4A45282  25.206   5.898   7.527
 3313POPC   C1B45283  25.342   5.439   6.236
 3313POPC   C2B45284  25.414   5.584   6.654
 3313POPC   C3B45285  25.428   5.693   7.082
 3313POPC   C4B45286  25.585   5.561   7.466
 3314POPC   NC345287  20.750  40.894   5.400
 3314POPC   PO445288  20.418  40.345   5.458
 3314POPC   GL145289  20.504  40.659   5.807
 3314POPC   GL245290  20.351  40.966   5.772
 3314POPC   C1A45291  20.827  40.737   6.147
 3314POPC   D2A45292  20.988  40.644   6.598
 3314POPC   C3A45293  20.837  40.616   7.057
 3314POPC   C4A45294  21.032  40.316   7.371
 3314POPC   C1B45295  20.392  40.963   6.249
 3314POPC   C2B45296  20.572  40.918   6.697
 3314POPC   C3B45297  20.339  40.859   7.128
 3314POPC   C4B45298  20.339  41.153   7.502
 3315POPC   NC345299   8.866  34.857   5.430
 3315POPC   PO445300   8.937  34.145   5.338
 3315POPC   GL145301   9.039  34.304   5.791
 3315POPC   GL245302   9.173  34.664   5.801
 3315POPC   C1A45303   9.124  34.388   6.256
 3315POPC   D2A45304   9.166  34.372   6.718
 3315POPC   C3A45305   8.851  34.600   6.982
 3315POPC   C4A45306   8.829  34.514   7.377
 3315POPC   C1B45307   9.015  34.879   6.161
 3315POPC   C2B45308   9.199  34.879   6.566
 3315POPC   C3B45309   9.315  34.783   6.984
 3315POPC   C4B45310   9.175  34.918   7.321
 3316POPC   NC345311  14.944  23.443   5.587
 3316POPC   PO445312  14.904  24.119   5.428
 3316POPC   GL145313  15.157  23.946   5.773
 3316POPC   GL245314  15.364  23.616   5.818
 3316POPC   C1A45315  15.048  23.788   6.192
 3316POPC   D2A45316  15.035  23.603   6.607
 3316POPC   C3A45317  15.047  23.845   6.983
 3316POPC   C4A45318  15.052  23.908   7.427
 3316POPC   C1B45319  15.538  23.623   6.250
 3316POPC   C2B45320  15.791  23.635   6.624
 3316POPC   C3B45321  15.531  23.525   6.951
 3316POPC   C4B45322  15.310  23.497   7.324
 3317POPC   NC345323  10.549  43.276   5.319
 3317POPC   PO445324  10.173  42.778   5.456
 3317POPC   GL145325  10.447  42.937   5.816
 3317POPC   GL245326  10.674  43.267   5.826
 3317POPC   C1A45327  10.559  43.014   6.257
 3317POPC   D2A45328  10.661  43.275   6.605
 3317POPC   C3A45329  10.496  43.185   7.005
 3317POPC   C4A45330  10.484  42.767   7.136
 3317POPC   C1B45331  10.994  43.298   6.171
 3317POPC   C2B45332  11.072  43.553   6.546
 3317POPC   C3B45333  11.100  43.383   6.938
 3317POPC   C4B45334  10.860  43.371   7.310
 3318POPC   NC345335   7.898  14.631   5.392
 3318POPC   PO445336   8.419  14.222   5.519
 3318POPC   GL145337   8.199  14.472   5.797
 3318POPC   GL245338   7.878  14.332   5.812
 3318POPC   C1A45339   8.213  14.356   6.207
 3318POPC   D2A45340   8.176  14.527   6.570
 3318POPC   C3A45341   8.332  14.265   6.878
 3318POPC   C4A45342   8.332  14.327   7.274
 3318POPC   C1B45343   7.760  14.602   6.168
 3318POPC   C2B45344   7.663  14.558   6.584
 3318POPC   C3B45345   7.866  14.525   6.975
 3318POPC   C4B45346   7.840  14.175   7.238
 3319POPC   NC345347  27.097  25.486   5.429
 3319POPC   PO445348  27.689  25.718   5.476
 3319POPC   GL145349  27.529  25.763   5.873
 3319POPC   GL245350  27.296  25.526   5.896
 3319POPC   C1A45351  27.654  25.519   6.269
 3319POPC   D2A45352  27.611  25.385   6.694
 3319POPC   C3A45353  27.875  25.412   7.036
 3319POPC   C4A45354  27.964  25.063   7.330
 3319POPC   C1B45355  27.196  25.760   6.270
 3319POPC   C2B45356  27.344  25.846   6.708
 3319POPC   C3B45357  27.349  25.574   7.107
 3319POPC   C4B45358  27.176  25.303   7.429
 3320POPC   NC345359  14.484  36.410   5.253
 3320POPC   PO445360  14.114  35.889   5.411
 3320POPC   GL145361  14.347  36.033   5.817
 3320POPC   GL245362  14.355  36.398   5.761
 3320POPC   C1A45363  14.433  35.890   6.289
 3320POPC   D2A45364  14.737  35.819   6.662
 3320POPC   C3A45365  14.551  36.041   7.008
 3320POPC   C4A45366  14.240  35.822   7.209
 3320POPC   C1B45367  14.553  36.381   6.170
 3320POPC   C2B45368  14.701  36.331   6.589
 3320POPC   C3B45369  14.751  36.541   6.985
 3320POPC   C4B45370  14.702  36.404   7.419
 3321POPC   NC345371   1.889  44.681   5.431
 3321POPC   PO445372   1.631   0.310   5.622
 3321POPC   GL145373   1.900  44.971   5.875
 3321POPC   GL245374   2.242  44.773   5.793
 3321POPC   C1A45375   1.982  44.797   6.301
 3321POPC   D2A45376   1.656  44.712   6.590
 3321POPC   C3A45377   1.730  44.672   6.995
 3321POPC   C4A45378   1.591  44.332   7.242
 3321POPC   C1B45379   2.350  44.476   6.130
 3321POPC   C2B45380   2.471  44.613   6.527
 3321POPC   C3B45381   2.227  44.749   6.861
 3321POPC   C4B45382   2.146  44.500   7.241
 3322POPC   NC345383  22.671  42.067   5.403
 3322POPC   PO445384  23.098  42.544   5.322
 3322POPC   GL145385  22.890  42.421   5.706
 3322POPC   GL245386  22.942  42.719   5.836
 3322POPC   C1A45387  22.917  42.236   6.147
 3322POPC   D2A45388  22.784  42.350   6.610
 3322POPC   C3A45389  22.865  42.155   7.035
 3322POPC   C4A45390  22.792  42.212   7.502
 3322POPC   C1B45391  22.848  42.735   6.265
 3322POPC   C2B45392  23.103  42.772   6.659
 3322POPC   C3B45393  22.979  42.650   7.083
 3322POPC   C4B45394  22.996  42.695   7.542
 3323POPC   NC345395  44.121  22.378   5.278
 3323POPC   PO445396  44.771  22.265   5.315
 3323POPC   GL145397  44.523  22.202   5.707
 3323POPC   GL245398  44.649  21.885   5.852
 3323POPC   C1A45399  44.653  22.327   6.148
 3323POPC   D2A45400  44.798  22.116   6.523
 3323POPC   C3A45401  44.605  22.194   6.923
 3323POPC   C4A45402  44.745  22.355   7.352
 3323POPC   C1B45403  44.370  21.907   6.229
 3323POPC   C2B45404  44.123  21.894   6.610
 3323POPC   C3B45405  44.223  21.818   7.038
 3323POPC   C4B45406  44.605  21.876   7.327
 3324POPC   NC345407  19.947  40.344   5.423
 3324POPC   PO445408  19.538  40.751   5.211
 3324POPC   GL145409  19.576  40.597   5.661
 3324POPC   GL245410  19.833  40.843   5.838
 3324POPC   C1A45411  19.463  40.659   6.127
 3324POPC   D2A45412  19.644  40.892   6.458
 3324POPC   C3A45413  19.575  40.924   6.870
 3324POPC   C4A45414  19.808  40.758   7.213
 3324POPC   C1B45415  19.923  41.198   6.177
 3324POPC   C2B45416  19.759  41.382   6.618
 3324POPC   C3B45417  19.869  41.267   7.092
 3324POPC   C4B45418  19.832  41.168   7.558
 3325POPC   NC345419  25.001  30.454   5.511
 3325POPC   PO445420  25.619  30.833   5.468
 3325POPC   GL145421  25.398  30.624   5.803
 3325POPC   GL245422  25.091  30.850   5.851
 3325POPC   C1A45423  25.273  30.552   6.257
 3325POPC   D2A45424  25.036  30.694   6.654
 3325POPC   C3A45425  25.199  30.580   7.091
 3325POPC   C4A45426  25.601  30.670   7.331
 3325POPC   C1B45427  25.458  31.014   6.115
 3325POPC   C2B45428  25.626  30.853   6.502
 3325POPC   C3B45429  25.588  30.982   6.915
 3325POPC   C4B45430  25.280  31.075   7.204
 3326POPC   NC345431  33.306  34.262   5.668
 3326POPC   PO445432  33.150  33.680   5.354
 3326POPC   GL145433  33.011  33.839   5.789
 3326POPC   GL245434  32.788  34.100   5.830
 3326POPC   C1A45435  33.014  33.909   6.262
 3326POPC   D2A45436  32.823  33.639   6.584
 3326POPC   C3A45437  33.034  33.718   6.985
 3326POPC   C4A45438  33.363  33.940   7.043
 3326POPC   C1B45439  32.809  34.357   6.199
 3326POPC   C2B45440  32.977  34.322   6.626
 3326POPC   C3B45441  32.921  34.226   7.072
 3326POPC   C4B45442  33.036  34.004   7.453
 3327POPC   NC345443  28.967  25.364   5.582
 3327POPC   PO445444  29.428  25.068   5.530
 3327POPC   GL145445  29.309  25.242   5.939
 3327POPC   GL245446  28.990  25.110   6.033
 3327POPC   C1A45447  29.266  25.447   6.348
 3327POPC   D2A45448  29.495  25.320   6.730
 3327POPC   C3A45449  29.311  25.326   7.164
 3327POPC   C4A45450  29.273  25.585   7.564
 3327POPC   C1B45451  29.255  24.942   6.379
 3327POPC   C2B45452  29.253  24.850   6.830
 3327POPC   C3B45453  28.926  24.962   7.125
 3327POPC   C4B45454  28.528  24.951   7.366
 3328POPC   NC345455  17.692   6.112   5.407
 3328POPC   PO445456  17.335   5.612   5.216
 3328POPC   GL145457  17.468   5.693   5.638
 3328POPC   GL245458  17.722   5.415   5.586
 3328POPC   C1A45459  17.349   5.868   6.084
 3328POPC   D2A45460  17.135   5.714   6.471
 3328POPC   C3A45461  17.335   5.804   6.864
 3328POPC   C4A45462  17.527   5.907   7.234
 3328POPC   C1B45463  17.656   5.459   6.042
 3328POPC   C2B45464  17.627   5.581   6.473
 3328POPC   C3B45465  17.683   5.431   6.877
 3328POPC   C4B45466  17.591   5.407   7.305
 3329POPC   NC345467  40.614  10.730   5.472
 3329POPC   PO445468  41.008  10.254   5.446
 3329POPC   GL145469  40.949  10.422   5.810
 3329POPC   GL245470  40.631  10.302   5.849
 3329POPC   C1A45471  41.149  10.540   6.178
 3329POPC   D2A45472  41.222  10.384   6.566
 3329POPC   C3A45473  41.002  10.403   6.928
 3329POPC   C4A45474  40.942  10.700   7.211
 3329POPC   C1B45475  40.638  10.509   6.250
 3329POPC   C2B45476  40.538  10.498   6.706
 3329POPC   C3B45477  40.453  10.667   7.121
 3329POPC   C4B45478  40.330  10.508   7.559
 3330POPC   NC345479  41.034   4.887   5.452
 3330POPC   PO445480  40.450   5.230   5.487
 3330POPC   GL145481  40.604   4.891   5.782
 3330POPC   GL245482  40.854   5.110   5.870
 3330POPC   C1A45483  40.753   4.811   6.246
 3330POPC   D2A45484  40.827   5.129   6.554
 3330POPC   C3A45485  40.522   5.095   6.860
 3330POPC   C4A45486  40.627   5.133   7.253
 3330POPC   C1B45487  40.563   5.339   6.161
 3330POPC   C2B45488  40.507   5.540   6.590
 3330POPC   C3B45489  40.792   5.522   6.978
 3330POPC   C4B45490  40.966   5.467   7.404
 3331POPC   NC345491   8.023   3.826   5.169
 3331POPC   PO445492   8.028   4.398   5.426
 3331POPC   GL145493   8.172   4.226   5.776
 3331POPC   GL245494   8.354   4.529   5.837
 3331POPC   C1A45495   8.377   4.145   6.169
 3331POPC   D2A45496   8.277   4.401   6.525
 3331POPC   C3A45497   8.230   4.168   6.891
 3331POPC   C4A45498   8.487   4.100   7.224
 3331POPC   C1B45499   8.487   4.775   6.182
 3331POPC   C2B45500   8.572   4.852   6.618
 3331POPC   C3B45501   8.562   4.568   6.960
 3331POPC   C4B45502   8.627   4.536   7.417
 3332POPC   NC345503  42.808  40.802   5.343
 3332POPC   PO445504  43.281  41.322   5.428
 3332POPC   GL145505  43.033  41.113   5.733
 3332POPC   GL245506  43.105  40.763   5.759
 3332POPC   C1A45507  42.919  41.087   6.173
 3332POPC   D2A45508  43.158  41.083   6.559
 3332POPC   C3A45509  42.935  41.101   6.944
 3332POPC   C4A45510  43.129  40.910   7.323
 3332POPC   C1B45511  42.949  40.579   6.129
 3332POPC   C2B45512  42.837  40.679   6.543
 3332POPC   C3B45513  42.939  40.585   6.969
 3332POPC   C4B45514  42.894  40.424   7.392
 3333POPC   NC345515  19.520  33.913   5.415
 3333POPC   PO445516  18.831  33.599   5.330
 3333POPC   GL145517  19.030  33.729   5.697
 3333POPC   GL245518  19.305  33.502   5.695
 3333POPC   C1A45519  18.895  33.946   6.103
 3333POPC   D2A45520  18.729  33.896   6.541
 3333POPC   C3A45521  18.944  33.906   6.959
 3333POPC   C4A45522  18.869  33.563   7.219
 3333POPC   C1B45523  19.592  33.527   6.045
 3333POPC   C2B45524  19.599  33.669   6.480
 3333POPC   C3B45525  19.615  33.658   6.925
 3333POPC   C4B45526  19.387  33.624   7.271
 3334POPC   NC345527   8.467   8.635   5.430
 3334POPC   PO445528   8.290   7.959   5.458
 3334POPC   GL145529   7.987   8.121   5.714
 3334POPC   GL245530   8.264   8.230   5.890
 3334POPC   C1A45531   7.889   8.047   6.146
 3334POPC   D2A45532   7.955   8.231   6.532
 3334POPC   C3A45533   8.033   7.995   6.884
 3334POPC   C4A45534   7.912   8.128   7.274
 3334POPC   C1B45535   8.455   8.263   6.307
 3334POPC   C2B45536   8.573   8.455   6.681
 3334POPC   C3B45537   8.649   8.271   7.048
 3334POPC   C4B45538   8.405   8.008   7.262
 3335POPC   NC345539  27.095  44.568   5.358
 3335POPC   PO445540  27.771  44.579   5.445
 3335POPC   GL145541  27.528  44.659   5.803
 3335POPC   GL245542  27.332  44.959   5.841
 3335POPC   C1A45543  27.714  44.662   6.203
 3335POPC   D2A45544  27.834  44.482   6.593
 3335POPC   C3A45545  27.707  44.679   6.920
 3335POPC   C4A45546  27.548  44.582   7.283
 3335POPC   C1B45547  27.209  44.744   6.234
 3335POPC   C2B45548  27.220  44.706   6.681
 3335POPC   C3B45549  27.293   0.021   6.977
 3335POPC   C4B45550  27.180  44.987   7.378
 3336POPC   NC345551   2.056   2.929   5.168
 3336POPC   PO445552   2.210   2.442   5.643
 3336POPC   GL145553   2.229   2.725   5.923
 3336POPC   GL245554   2.001   2.965   5.817
 3336POPC   C1A45555   2.160   2.702   6.338
 3336POPC   D2A45556   1.872   2.683   6.663
 3336POPC   C3A45557   2.007   2.543   7.053
 3336POPC   C4A45558   2.413   2.478   7.234
 3336POPC   C1B45559   2.169   3.191   6.171
 3336POPC   C2B45560   1.881   3.210   6.528
 3336POPC   C3B45561   1.924   3.107   6.948
 3336POPC   C4B45562   2.200   2.954   7.279
 3337POPC   NC345563  33.837  32.532   5.128
 3337POPC   PO445564  33.945  32.117   5.637
 3337POPC   GL145565  33.735  32.117   5.988
 3337POPC   GL245566  33.446  32.022   5.820
 3337POPC   C1A45567  33.885  32.171   6.411
 3337POPC   D2A45568  34.141  31.905   6.700
 3337POPC   C3A45569  34.054  32.018   7.107
 3337POPC   C4A45570  33.729  32.358   7.197
 3337POPC   C1B45571  33.291  32.171   6.226
 3337POPC   C2B45572  33.319  32.313   6.623
 3337POPC   C3B45573  33.602  32.030   6.829
 3337POPC   C4B45574  33.605  31.874   7.242
 3338POPC   NC345575  17.899   8.663   5.504
 3338POPC   PO445576  17.997   9.319   5.471
 3338POPC   GL145577  18.208   9.042   5.802
 3338POPC   GL245578  18.351   8.721   5.730
 3338POPC   C1A45579  18.130   8.841   6.198
 3338POPC   D2A45580  18.259   9.109   6.538
 3338POPC   C3A45581  18.111   8.972   6.904
 3338POPC   C4A45582  18.066   8.901   7.315
 3338POPC   C1B45583  18.622   8.796   6.096
 3338POPC   C2B45584  18.555   8.706   6.527
 3338POPC   C3B45585  18.485   8.632   6.950
 3338POPC   C4B45586  18.571   8.911   7.293
 3339POPC   NC345587  37.877  44.309   5.582
 3339POPC   PO445588  37.581  43.607   5.620
 3339POPC   GL145589  37.728  43.860   5.952
 3339POPC   GL245590  37.615  44.238   6.020
 3339POPC   C1A45591  37.658  43.865   6.352
 3339POPC   D2A45592  37.597  44.129   6.649
 3339POPC   C3A45593  37.734  43.962   7.030
 3339POPC   C4A45594  37.516  43.945   7.400
 3339POPC   C1B45595  38.046  44.188   6.200
 3339POPC   C2B45596  38.213  44.376   6.536
 3339POPC   C3B45597  37.972  44.411   6.889
 3339POPC   C4B45598  37.887  44.310   7.346
 3340POPC   NC345599   3.687  44.479   5.512
 3340POPC   PO445600   3.193  44.848   5.340
 3340POPC   GL145601   3.353  44.774   5.792
 3340POPC   GL245602   3.258  44.398   5.837
 3340POPC   C1A45603   3.527  44.905   6.241
 3340POPC   D2A45604   3.407  44.797   6.682
 3340POPC   C3A45605   3.609  44.956   7.062
 3340POPC   C4A45606   3.822  44.845   7.449
 3340POPC   C1B45607   3.355  44.437   6.298
 3340POPC   C2B45608   3.434  44.261   6.717
 3340POPC   C3B45609   3.573  44.357   7.146
 3340POPC   C4B45610   3.368  44.581   7.436
 3341POPC   NC345611  28.186  43.272   5.411
 3341POPC   PO445612  28.813  43.428   5.602
 3341POPC   GL145613  28.453  43.336   5.848
 3341POPC   GL245614  28.310  42.995   5.820
 3341POPC   C1A45615  28.259  43.327   6.237
 3341POPC   D2A45616  28.372  43.143   6.620
 3341POPC   C3A45617  28.213  43.342   7.023
 3341POPC   C4A45618  28.123  43.249   7.466
 3341POPC   C1B45619  28.442  42.823   6.204
 3341POPC   C2B45620  28.672  42.718   6.578
 3341POPC   C3B45621  28.597  42.874   6.972
 3341POPC   C4B45622  28.313  42.827   7.281
 3342POPC   NC345623  40.391   5.634   5.286
 3342POPC   PO445624  40.779   6.138   5.339
 3342POPC   GL145625  40.564   5.913   5.693
 3342POPC   GL245626  40.759   5.596   5.726
 3342POPC   C1A45627  40.496   5.869   6.172
 3342POPC   D2A45628  40.632   6.038   6.597
 3342POPC   C3A45629  40.430   5.884   6.982
 3342POPC   C4A45630  40.646   5.869   7.377
 3342POPC   C1B45631  41.064   5.508   6.100
 3342POPC   C2B45632  41.065   5.611   6.551
 3342POPC   C3B45633  41.047   5.952   6.893
 3342POPC   C4B45634  41.180   5.916   7.306
 3343POPC   NC345635  24.083  32.336   5.391
 3343POPC   PO445636  24.696  32.594   5.576
 3343POPC   GL145637  24.560  32.283   5.888
 3343POPC   GL245638  24.232  32.232   5.862
 3343POPC   C1A45639  24.455  32.095   6.298
 3343POPC   D2A45640  24.341  31.866   6.639
 3343POPC   C3A45641  24.468  32.066   6.977
 3343POPC   C4A45642  24.685  32.251   7.299
 3343POPC   C1B45643  24.076  32.430   6.227
 3343POPC   C2B45644  24.095  32.330   6.671
 3343POPC   C3B45645  23.982  32.245   7.095
 3343POPC   C4B45646  24.225  32.167   7.439
 3344POPC   NC345647   0.850  25.581   5.542
 3344POPC   PO445648   1.384  25.312   5.308
 3344POPC   GL145649   1.219  25.200   5.745
 3344POPC   GL245650   1.354  24.886   5.856
 3344POPC   C1A45651   1.186  25.207   6.209
 3344POPC   D2A45652   1.055  25.308   6.643
 3344POPC   C3A45653   1.210  25.320   7.081
 3344POPC   C4A45654   1.386  25.128   7.481
 3344POPC   C1B45655   1.553  24.883   6.265
 3344POPC   C2B45656   1.503  25.029   6.679
 3344POPC   C3B45657   1.452  24.874   7.057
 3344POPC   C4B45658   1.685  24.703   7.362
 3345POPC   NC345659  31.955  19.700   5.340
 3345POPC   PO445660  32.629  19.850   5.142
 3345POPC   GL145661  32.421  19.722   5.598
 3345POPC   GL245662  32.096  19.831   5.785
 3345POPC   C1A45663  32.376  19.522   6.042
 3345POPC   D2A45664  32.210  19.621   6.451
 3345POPC   C3A45665  32.449  19.787   6.783
 3345POPC   C4A45666  32.356  19.684   7.208
 3345POPC   C1B45667  31.945  19.988   6.145
 3345POPC   C2B45668  32.081  20.140   6.530
 3345POPC   C3B45669  32.022  20.006   6.928
 3345POPC   C4B45670  32.207  20.167   7.253
 3346POPC   NC345671  11.424  24.625   5.236
 3346POPC   PO445672  10.833  24.892   5.431
 3346POPC   GL145673  11.147  24.780   5.756
 3346POPC   GL245674  11.259  24.430   5.777
 3346POPC   C1A45675  11.216  24.744   6.219
 3346POPC   D2A45676  11.377  24.827   6.638
 3346POPC   C3A45677  11.247  24.647   7.040
 3346POPC   C4A45678  11.322  24.606   7.476
 3346POPC   C1B45679  10.973  24.285   6.152
 3346POPC   C2B45680  11.110  24.390   6.593
 3346POPC   C3B45681  11.536  24.334   6.787
 3346POPC   C4B45682  11.586  24.242   7.220
 3347POPC   NC345683  14.861  19.450   5.456
 3347POPC   PO445684  14.247  18.978   5.435
 3347POPC   GL145685  14.442  19.090   5.793
 3347POPC   GL245686  14.718  19.302   5.930
 3347POPC   C1A45687  14.483  18.939   6.196
 3347POPC   D2A45688  14.436  19.190   6.544
 3347POPC   C3A45689  14.239  18.978   6.861
 3347POPC   C4A45690  14.146  19.097   7.249
 3347POPC   C1B45691  14.762  19.548   6.339
 3347POPC   C2B45692  14.717  19.552   6.801
 3347POPC   C3B45693  14.646  19.203   7.100
 3347POPC   C4B45694  14.539  19.184   7.554
 3348POPC   NC345695   9.221   4.661   5.605
 3348POPC   PO445696   9.861   4.552   5.320
 3348POPC   GL145697   9.973   4.444   5.733
 3348POPC   GL245698   9.663   4.341   5.830
 3348POPC   C1A45699  10.066   4.324   6.178
 3348POPC   D2A45700   9.797   4.383   6.555
 3348POPC   C3A45701   9.903   4.537   7.000
 3348POPC   C4A45702   9.978   4.290   7.385
 3348POPC   C1B45703   9.348   4.296   6.145
 3348POPC   C2B45704   9.318   4.182   6.554
 3348POPC   C3B45705   9.426   4.368   6.922
 3348POPC   C4B45706   9.464   4.240   7.301
 3349POPC   NC345707  32.880  18.426   5.376
 3349POPC   PO445708  33.305  17.932   5.421
 3349POPC   GL145709  33.070  18.140   5.773
 3349POPC   GL245710  32.740  18.025   5.831
 3349POPC   C1A45711  33.055  18.426   6.176
 3349POPC   D2A45712  33.380  18.546   6.537
 3349POPC   C3A45713  33.232  18.618   6.998
 3349POPC   C4A45714  32.972  18.369   7.299
 3349POPC   C1B45715  32.697  18.028   6.286
 3349POPC   C2B45716  32.673  17.981   6.749
 3349POPC   C3B45717  32.516  18.020   7.179
 3349POPC   C4B45718  32.515  18.321   7.556
 3350POPC   NC345719   3.353   6.207   5.429
 3350POPC   PO445720   3.971   6.542   5.315
 3350POPC   GL145721   3.777   6.727   5.704
 3350POPC   GL245722   3.427   6.652   5.729
 3350POPC   C1A45723   3.785   6.548   6.154
 3350POPC   D2A45724   3.602   6.446   6.569
 3350POPC   C3A45725   3.545   6.488   7.015
 3350POPC   C4A45726   3.508   6.821   7.324
 3350POPC   C1B45727   3.286   6.475   6.128
 3350POPC   C2B45728   3.095   6.498   6.550
 3350POPC   C3B45729   3.077   6.267   6.935
 3350POPC   C4B45730   3.244   6.312   7.394
 3351POPC   NC345731  20.462  34.247   5.423
 3351POPC   PO445732  20.683  33.583   5.216
 3351POPC   GL145733  20.533  33.797   5.627
 3351POPC   GL245734  20.789  34.041   5.767
 3351POPC   C1A45735  20.450  33.721   6.085
 3351POPC   D2A45736  20.561  33.514   6.493
 3351POPC   C3A45737  20.513  33.809   6.854
 3351POPC   C4A45738  20.387  33.965   7.296
 3351POPC   C1B45739  20.949  34.150   6.194
 3351POPC   C2B45740  20.944  34.094   6.657
 3351POPC   C3B45741  20.879  34.076   7.101
 3351POPC   C4B45742  20.828  34.126   7.545
 3352POPC   NC345743  38.869   6.861   5.392
 3352POPC   PO445744  39.435   6.465   5.437
 3352POPC   GL145745  39.291   6.473   5.809
 3352POPC   GL245746  38.967   6.464   5.702
 3352POPC   C1A45747  39.365   6.487   6.244
 3352POPC   D2A45748  39.298   6.738   6.587
 3352POPC   C3A45749  39.382   6.633   6.983
 3352POPC   C4A45750  39.326   6.290   7.231
 3352POPC   C1B45751  38.970   6.768   6.071
 3352POPC   C2B45752  38.872   6.987   6.462
 3352POPC   C3B45753  38.909   6.911   6.897
 3352POPC   C4B45754  38.963   6.733   7.294
 3353POPC   NC345755  32.466   5.977   5.244
 3353POPC   PO445756  32.020   5.551   5.466
 3353POPC   GL145757  32.174   5.728   5.826
 3353POPC   GL245758  32.292   6.059   5.720
 3353POPC   C1A45759  32.132   5.513   6.233
 3353POPC   D2A45760  32.259   5.614   6.656
 3353POPC   C3A45761  32.058   5.593   7.049
 3353POPC   C4A45762  32.173   5.996   7.235
 3353POPC   C1B45763  32.566   6.266   6.018
 3353POPC   C2B45764  32.615   6.318   6.474
 3353POPC   C3B45765  32.547   6.138   6.885
 3353POPC   C4B45766  32.638   6.290   7.286
 3354POPC   NC345767  38.270  31.850   5.193
 3354POPC   PO445768  38.691  31.357   5.458
 3354POPC   GL145769  38.373  31.364   5.790
 3354POPC   GL245770  38.070  31.171   5.658
 3354POPC   C1A45771  38.410  31.602   6.192
 3354POPC   D2A45772  38.705  31.546   6.557
 3354POPC   C3A45773  38.695  31.748   6.982
 3354POPC   C4A45774  38.466  31.671   7.378
 3354POPC   C1B45775  38.041  31.131   6.108
 3354POPC   C2B45776  38.318  31.204   6.481
 3354POPC   C3B45777  38.305  31.412   6.872
 3354POPC   C4B45778  38.173  31.264   7.272
 3355POPC   NC345779  44.209  18.431   5.439
 3355POPC   PO445780  43.689  18.072   5.215
 3355POPC   GL145781  43.838  18.128   5.631
 3355POPC   GL245782  43.658  18.435   5.706
 3355POPC   C1A45783  43.957  18.230   6.069
 3355POPC   D2A45784  43.840  18.100   6.487
 3355POPC   C3A45785  43.979  18.246   6.882
 3355POPC   C4A45786  43.839  18.186   7.278
 3355POPC   C1B45787  43.541  18.516   6.172
 3355POPC   C2B45788  43.641  18.582   6.633
 3355POPC   C3B45789  43.806  18.699   7.061
 3355POPC   C4B45790  43.716  18.653   7.542
 3356POPC   NC345791   5.498   2.865   5.585
 3356POPC   PO445792   5.950   3.112   5.151
 3356POPC   GL145793   5.960   3.105   5.675
 3356POPC   GL245794   5.870   2.834   5.936
 3356POPC   C1A45795   5.969   3.301   6.086
 3356POPC   D2A45796   5.747   3.207   6.463
 3356POPC   C3A45797   5.949   2.965   6.804
 3356POPC   C4A45798   5.774   2.934   7.240
 3356POPC   C1B45799   5.724   2.477   6.185
 3356POPC   C2B45800   5.603   2.512   6.605
 3356POPC   C3B45801   5.828   2.462   6.969
 3356POPC   C4B45802   5.666   2.420   7.323
 3357POPC   NC345803  42.885  19.314   5.664
 3357POPC   PO445804  43.270  19.102   5.132
 3357POPC   GL145805  43.334  18.983   5.662
 3357POPC   GL245806  43.401  19.266   5.855
 3357POPC   C1A45807  43.189  18.922   6.141
 3357POPC   D2A45808  43.086  19.114   6.554
 3357POPC   C3A45809  43.198  18.809   6.870
 3357POPC   C4A45810  42.981  18.695   7.220
 3357POPC   C1B45811  43.262  19.499   6.218
 3357POPC   C2B45812  43.311  19.618   6.636
 3357POPC   C3B45813  43.380  19.293   6.954
 3357POPC   C4B45814  43.428  19.005   7.310
 3358POPC   NC345815  14.611  28.862   5.414
 3358POPC   PO445816  15.295  28.993   5.580
 3358POPC   GL145817  14.977  28.913   5.886
 3358POPC   GL245818  14.806  29.220   5.800
 3358POPC   C1A45819  15.066  28.922   6.335
 3358POPC   D2A45820  15.449  28.997   6.584
 3358POPC   C3A45821  15.411  28.840   7.008
 3358POPC   C4A45822  15.008  28.975   7.171
 3358POPC   C1B45823  14.975  29.410   6.210
 3358POPC   C2B45824  15.135  29.397   6.645
 3358POPC   C3B45825  14.921  29.474   7.049
 3358POPC   C4B45826  14.966  29.530   7.500
 3359POPC   NC345827  42.214  10.186   5.521
 3359POPC   PO445828  42.710   9.836   5.231
 3359POPC   GL145829  42.400   9.721   5.601
 3359POPC   GL245830  42.160   9.462   5.615
 3359POPC   C1A45831  42.270   9.684   6.092
 3359POPC   D2A45832  42.111   9.864   6.543
 3359POPC   C3A45833  42.366   9.891   6.937
 3359POPC   C4A45834  42.449   9.992   7.380
 3359POPC   C1B45835  41.915   9.301   5.999
 3359POPC   C2B45836  41.945   9.384   6.472
 3359POPC   C3B45837  42.147   9.423   6.903
 3359POPC   C4B45838  42.076   9.655   7.273
 3360POPC   NC345839  37.359  26.170   5.431
 3360POPC   PO445840  37.897  25.858   5.287
 3360POPC   GL145841  37.826  26.121   5.701
 3360POPC   GL245842  37.961  26.465   5.812
 3360POPC   C1A45843  37.607  26.129   6.126
 3360POPC   D2A45844  37.412  26.226   6.551
 3360POPC   C3A45845  37.566  26.003   6.926
 3360POPC   C4A45846  37.415  25.757   7.277
 3360POPC   C1B45847  37.799  26.599   6.260
 3360POPC   C2B45848  37.858  26.479   6.696
 3360POPC   C3B45849  37.608  26.481   7.094
 3360POPC   C4B45850  37.658  26.529   7.541
 3361POPC   NC345851  35.414  42.533   5.389
 3361POPC   PO445852  35.107  42.052   5.430
 3361POPC   GL145853  35.259  42.276   5.803
 3361POPC   GL245854  35.428  42.107   6.043
 3361POPC   C1A45855  35.365  42.625   6.089
 3361POPC   D2A45856  35.182  42.717   6.478
 3361POPC   C3A45857  35.317  42.580   6.881
 3361POPC   C4A45858  35.577  42.249   7.092
 3361POPC   C1B45859  35.122  42.186   6.351
 3361POPC   C2B45860  35.180  42.101   6.770
 3361POPC   C3B45861  35.077  42.219   7.202
 3361POPC   C4B45862  34.983  42.374   7.638
 3362POPC   NC345863  33.782  26.379   5.399
 3362POPC   PO445864  33.957  25.728   5.356
 3362POPC   GL145865  34.019  25.938   5.784
 3362POPC   GL245866  34.011  26.285   5.855
 3362POPC   C1A45867  34.040  25.921   6.238
 3362POPC   D2A45868  33.787  25.964   6.628
 3362POPC   C3A45869  33.895  25.834   7.066
 3362POPC   C4A45870  33.850  25.852   7.528
 3362POPC   C1B45871  34.013  26.548   6.210
 3362POPC   C2B45872  33.792  26.532   6.589
 3362POPC   C3B45873  33.788  26.327   7.001
 3362POPC   C4B45874  33.624  26.313   7.412
 3363POPC   NC345875   9.349  13.423   5.301
 3363POPC   PO445876   8.862  13.868   5.230
 3363POPC   GL145877   9.019  13.760   5.629
 3363POPC   GL245878   8.754  13.958   5.785
 3363POPC   C1A45879   9.122  13.812   6.087
 3363POPC   D2A45880   9.116  13.627   6.494
 3363POPC   C3A45881   9.154  13.742   6.926
 3363POPC   C4A45882   9.338  13.399   7.164
 3363POPC   C1B45883   8.707  14.117   6.225
 3363POPC   C2B45884   8.742  13.981   6.681
 3363POPC   C3B45885   8.696  13.961   7.138
 3363POPC   C4B45886   8.578  13.973   7.577
 3364POPC   NC345887   6.439   6.114   5.381
 3364POPC   PO445888   6.838   5.562   5.409
 3364POPC   GL145889   6.630   5.796   5.767
 3364POPC   GL245890   6.303   5.680   5.743
 3364POPC   C1A45891   6.631   5.931   6.240
 3364POPC   D2A45892   6.389   5.995   6.656
 3364POPC   C3A45893   6.628   5.970   7.057
 3364POPC   C4A45894   7.070   5.742   7.087
 3364POPC   C1B45895   6.485   5.453   6.106
 3364POPC   C2B45896   6.433   5.429   6.541
 3364POPC   C3B45897   6.647   5.484   6.917
 3364POPC   C4B45898   6.659   5.566   7.339
 3365POPC   NC345899  44.310   4.390   5.406
 3365POPC   PO445900  43.632   4.077   5.349
 3365POPC   GL145901  43.831   4.265   5.712
 3365POPC   GL245902  44.167   4.156   5.855
 3365POPC   C1A45903  43.757   4.184   6.158
 3365POPC   D2A45904  43.614   4.126   6.561
 3365POPC   C3A45905  43.832   4.324   6.856
 3365POPC   C4A45906  43.927   4.336   7.252
 3365POPC   C1B45907  44.158   3.886   6.229
 3365POPC   C2B45908  44.086   3.899   6.683
 3365POPC   C3B45909  44.176   3.881   7.127
 3365POPC   C4B45910  44.286   4.085   7.522
 3366POPC   NC345911  18.267  10.405   5.242
 3366POPC   PO445912  18.837  10.632   5.368
 3366POPC   GL145913  18.586  10.563   5.760
 3366POPC   GL245914  18.284  10.355   5.752
 3366POPC   C1A45915  18.491  10.464   6.213
 3366POPC   D2A45916  18.353  10.306   6.632
 3366POPC   C3A45917  18.384  10.559   7.027
 3366POPC   C4A45918  18.364  10.323   7.444
 3366POPC   C1B45919  17.997  10.337   6.141
 3366POPC   C2B45920  17.853  10.403   6.570
 3366POPC   C3B45921  17.938  10.315   6.994
 3366POPC   C4B45922  17.934  10.557   7.325
 3367POPC   NC345923  42.681  27.343   5.618
 3367POPC   PO445924  42.010  27.506   5.597
 3367POPC   GL145925  42.321  27.590   5.945
 3367POPC   GL245926  42.680  27.652   6.046
 3367POPC   C1A45927  42.284  27.657   6.384
 3367POPC   D2A45928  42.387  27.870   6.724
 3367POPC   C3A45929  42.180  27.836   7.100
 3367POPC   C4A45930  42.166  27.548   7.412
 3367POPC   C1B45931  42.620  27.276   6.308
 3367POPC   C2B45932  42.722  27.201   6.751
 3367POPC   C3B45933  42.485  27.189   7.115
 3367POPC   C4B45934  42.618  27.328   7.509
 3368POPC   NC345935  15.428  20.157   5.487
 3368POPC   PO445936  15.390  19.445   5.438
 3368POPC   GL145937  15.348  19.592   5.871
 3368POPC   GL245938  15.071  19.816   5.850
 3368POPC   C1A45939  15.262  19.699   6.334
 3368POPC   D2A45940  15.229  20.067   6.639
 3368POPC   C3A45941  15.147  19.899   7.059
 3368POPC   C4A45942  15.299  19.728   7.470
 3368POPC   C1B45943  14.879  20.038   6.225
 3368POPC   C2B45944  14.687  20.080   6.659
 3368POPC   C3B45945  14.622  19.947   7.098
 3368POPC   C4B45946  14.819  19.615   7.349
 3369POPC   NC345947  37.982  36.246   5.367
 3369POPC   PO445948  37.403  35.936   5.490
 3369POPC   GL145949  37.524  36.006   5.886
 3369POPC   GL245950  37.859  36.113   5.847
 3369POPC   C1A45951  37.424  35.874   6.277
 3369POPC   D2A45952  37.769  35.767   6.522
 3369POPC   C3A45953  37.584  35.713   6.863
 3369POPC   C4A45954  37.454  35.950   7.177
 3369POPC   C1B45955  37.814  36.232   6.285
 3369POPC   C2B45956  37.810  36.214   6.746
 3369POPC   C3B45957  37.826  36.347   7.156
 3369POPC   C4B45958  38.047  36.436   7.541
 3370POPC   NC345959  14.241   1.808   5.480
 3370POPC   PO445960  14.640   2.328   5.476
 3370POPC   GL145961  14.477   2.146   5.814
 3370POPC   GL245962  14.621   2.321   6.099
 3370POPC   C1A45963  14.558   1.784   6.069
 3370POPC   D2A45964  14.615   1.766   6.498
 3370POPC   C3A45965  14.306   1.798   6.807
 3370POPC   C4A45966  14.422   1.601   7.188
 3370POPC   C1B45967  14.237   2.126   6.266
 3370POPC   C2B45968  14.066   2.272   6.622
 3370POPC   C3B45969  14.390   2.305   6.914
 3370POPC   C4B45970  14.261   2.083   7.257
 3371POPC   NC345971  37.465  28.271   5.266
 3371POPC   PO445972  38.060  28.053   5.503
 3371POPC   GL145973  37.756  28.224   5.811
 3371POPC   GL245974  37.387  28.297   5.813
 3371POPC   C1A45975  37.584  28.106   6.225
 3371POPC   D2A45976  37.635  28.360   6.588
 3371POPC   C3A45977  37.549  28.176   6.974
 3371POPC   C4A45978  37.518  28.316   7.386
 3371POPC   C1B45979  37.265  28.508   6.242
 3371POPC   C2B45980  37.427  28.823   6.572
 3371POPC   C3B45981  37.482  28.719   7.024
 3371POPC   C4B45982  37.153  28.721   7.363
 3372POPC   NC345983   1.655  18.411   5.048
 3372POPC   PO445984   2.040  17.901   5.361
 3372POPC   GL145985   2.153  18.152   5.726
 3372POPC   GL245986   1.998  18.512   5.671
 3372POPC   C1A45987   2.263  18.254   6.130
 3372POPC   D2A45988   2.212  18.007   6.520
 3372POPC   C3A45989   1.974  18.145   6.878
 3372POPC   C4A45990   1.866  18.092   7.321
 3372POPC   C1B45991   1.957  18.678   6.112
 3372POPC   C2B45992   2.095  18.510   6.536
 3372POPC   C3B45993   2.238  18.576   6.944
 3372POPC   C4B45994   1.854  18.568   7.157
 3373POPC   NC345995  37.035  35.822   5.231
 3373POPC   PO445996  36.751  35.207   5.284
 3373POPC   GL145997  36.801  35.514   5.655
 3373POPC   GL245998  37.125  35.651   5.800
 3373POPC   C1A45999  36.712  35.532   6.106
 3373POPC   D2A46000  36.999  35.536   6.478
 3373POPC   C3A46001  36.783  35.337   6.809
 3373POPC   C4A46002  36.805  35.403   7.232
 3373POPC   C1B46003  37.191  35.287   6.054
 3373POPC   C2B46004  37.352  35.111   6.462
 3373POPC   C3B46005  37.278  35.287   6.861
 3373POPC   C4B46006  37.178  35.078   7.230
 3374POPC   NC346007  19.964  39.184   5.228
 3374POPC   PO446008  19.885  39.864   5.464
 3374POPC   GL146009  20.037  39.513   5.846
 3374POPC   GL246010  19.892  39.165   5.953
 3374POPC   C1A46011  20.074  39.389   6.359
 3374POPC   D2A46012  19.931  39.605   6.785
 3374POPC   C3A46013  19.814  39.384   7.205
 3374POPC   C4A46014  19.468  39.306   7.548
 3374POPC   C1B46015  19.920  38.849   6.315
 3374POPC   C2B46016  20.086  38.745   6.721
 3374POPC   C3B46017  19.993  38.871   7.146
 3374POPC   C4B46018  19.877  39.010   7.551
 3375POPC   NC346019   3.162  42.094   5.601
 3375POPC   PO446020   2.813  41.544   5.387
 3375POPC   GL146021   2.779  41.663   5.829
 3375POPC   GL246022   2.748  41.337   5.886
 3375POPC   C1A46023   2.952  41.698   6.281
 3375POPC   D2A46024   2.833  41.500   6.683
 3375POPC   C3A46025   2.821  41.726   7.057
 3375POPC   C4A46026   2.557  41.774   7.392
 3375POPC   C1B46027   2.808  41.191   6.272
 3375POPC   C2B46028   2.892  40.962   6.617
 3375POPC   C3B46029   2.966  41.119   7.021
 3375POPC   C4B46030   2.654  41.263   7.278
 3376POPC   NC346031  22.672  30.323   5.229
 3376POPC   PO446032  21.959  30.012   5.372
 3376POPC   GL146033  21.998  30.069   5.854
 3376POPC   GL246034  22.340  30.039   5.960
 3376POPC   C1A46035  22.023  29.797   6.289
 3376POPC   D2A46036  22.077  29.553   6.717
 3376POPC   C3A46037  22.157  29.845   7.091
 3376POPC   C4A46038  22.086  30.318   7.112
 3376POPC   C1B46039  22.271  30.259   6.300
 3376POPC   C2B46040  22.314  30.137   6.689
 3376POPC   C3B46041  22.573  30.159   7.058
 3376POPC   C4B46042  22.568  30.103   7.514
 3377POPC   NC346043  27.475  29.755   5.411
 3377POPC   PO446044  27.873  30.246   5.493
 3377POPC   GL146045  27.704  29.999   5.830
 3377POPC   GL246046  27.869  29.679   5.773
 3377POPC   C1A46047  27.517  30.071   6.265
 3377POPC   D2A46048  27.508  30.134   6.728
 3377POPC   C3A46049  27.413  29.816   7.048
 3377POPC   C4A46050  27.101  29.908   7.344
 3377POPC   C1B46051  27.858  29.702   6.243
 3377POPC   C2B46052  27.761  29.661   6.680
 3377POPC   C3B46053  27.929  29.835   7.058
 3377POPC   C4B46054  27.843  29.814   7.503
 3378POPC   NC346055  44.332   1.997   5.396
 3378POPC   PO446056  44.921   1.797   5.469
 3378POPC   GL146057  44.754   2.010   5.829
 3378POPC   GL246058   0.021   2.268   5.916
 3378POPC   C1A46059  44.535   1.949   6.236
 3378POPC   D2A46060  44.521   2.019   6.685
 3378POPC   C3A46061  44.465   1.735   6.996
 3378POPC   C4A46062  44.468   1.730   7.435
 3378POPC   C1B46063   0.052   1.965   6.262
 3378POPC   C2B46064   0.033   2.010   6.713
 3378POPC   C3B46065  44.885   2.029   7.132
 3378POPC   C4B46066   0.229   1.973   7.445
 3379POPC   NC346067  10.188  12.739   5.648
 3379POPC   PO446068  10.597  13.212   5.297
 3379POPC   GL146069  10.635  12.932   5.744
 3379POPC   GL246070  10.838  12.629   5.740
 3379POPC   C1A46071  10.496  12.853   6.230
 3379POPC   D2A46072  10.212  12.781   6.645
 3379POPC   C3A46073  10.328  13.013   7.033
 3379POPC   C4A46074  10.472  13.416   7.195
 3379POPC   C1B46075  10.811  12.417   6.161
 3379POPC   C2B46076  10.909  12.434   6.627
 3379POPC   C3B46077  10.705  12.443   7.072
 3379POPC   C4B46078  10.625  12.421   7.575
 3380POPC   NC346079   0.608   7.488   5.145
 3380POPC   PO446080   0.096   7.827   5.466
 3380POPC   GL146081   0.509   7.573   5.682
 3380POPC   GL246082   0.510   7.246   5.792
 3380POPC   C1A46083   0.453   7.526   6.186
 3380POPC   D2A46084   0.434   7.773   6.543
 3380POPC   C3A46085   0.457   7.583   6.896
 3380POPC   C4A46086   0.624   7.639   7.293
 3380POPC   C1B46087   0.200   7.080   6.135
 3380POPC   C2B46088   0.284   7.155   6.571
 3380POPC   C3B46089   0.074   7.148   6.966
 3380POPC   C4B46090   0.105   7.453   7.233
 3381POPC   NC346091  26.024   9.988   4.919
 3381POPC   PO446092  25.994   9.809   5.349
 3381POPC   GL146093  26.059   9.681   5.765
 3381POPC   GL246094  25.755   9.563   5.893
 3381POPC   C1A46095  26.229   9.705   6.206
 3381POPC   D2A46096  26.199   9.881   6.641
 3381POPC   C3A46097  26.421   9.749   7.043
 3381POPC   C4A46098  26.379   9.816   7.513
 3381POPC   C1B46099  25.732   9.715   6.341
 3381POPC   C2B46100  25.706   9.823   6.789
 3381POPC   C3B46101  25.921   9.670   7.139
 3381POPC   C4B46102  25.790   9.515   7.547
 3382POPC   NC346103  11.087  31.265   5.425
 3382POPC   PO446104  11.520  31.768   5.436
 3382POPC   GL146105  11.318  31.633   5.799
 3382POPC   GL246106  11.441  31.283   5.813
 3382POPC   C1A46107  11.242  31.489   6.236
 3382POPC   D2A46108  11.148  31.312   6.624
 3382POPC   C3A46109  11.346  31.526   6.936
 3382POPC   C4A46110  11.244  31.325   7.297
 3382POPC   C1B46111  11.639  31.096   6.176
 3382POPC   C2B46112  11.652  31.226   6.599
 3382POPC   C3B46113  11.667  31.125   7.031
 3382POPC   C4B46114  11.780  31.510   7.241
 3383POPC   NC346115  22.621  26.456   5.615
 3383POPC   PO446116  22.968  26.984   5.347
 3383POPC   GL146117  22.836  27.017   5.749
 3383POPC   GL246118  22.508  26.978   5.690
 3383POPC   C1A46119  22.901  26.890   6.189
 3383POPC   D2A46120  22.997  26.726   6.624
 3383POPC   C3A46121  23.041  26.952   7.045
 3383POPC   C4A46122  23.381  26.746   7.269
 3383POPC   C1B46123  22.443  27.138   6.135
 3383POPC   C2B46124  22.543  26.935   6.564
 3383POPC   C3B46125  22.595  26.716   6.956
 3383POPC   C4B46126  22.645  26.726   7.398
 3384POPC   NC346127  25.923  19.739   5.395
 3384POPC   PO446128  26.604  19.803   5.347
 3384POPC   GL146129  26.306  19.802   5.741
 3384POPC   GL246130  26.181  19.506   5.818
 3384POPC   C1A46131  25.977  19.825   6.135
 3384POPC   D2A46132  25.814  19.571   6.520
 3384POPC   C3A46133  25.779  19.823   6.925
 3384POPC   C4A46134  25.927  20.143   7.261
 3384POPC   C1B46135  26.405  19.572   6.230
 3384POPC   C2B46136  26.270  19.735   6.627
 3384POPC   C3B46137  26.262  19.791   7.057
 3384POPC   C4B46138  26.370  19.506   7.323
 3385POPC   NC346139   9.047  42.417   5.292
 3385POPC   PO446140   8.864  41.732   5.267
 3385POPC   GL146141   8.802  42.139   5.662
 3385POPC   GL246142   8.784  42.541   5.691
 3385POPC   C1A46143   8.768  42.340   6.142
 3385POPC   D2A46144   8.975  42.477   6.515
 3385POPC   C3A46145   8.853  42.246   6.891
 3385POPC   C4A46146   9.226  42.191   7.125
 3385POPC   C1B46147   9.087  42.718   6.016
 3385POPC   C2B46148   8.877  42.951   6.342
 3385POPC   C3B46149   8.862  42.917   6.774
 3385POPC   C4B46150   8.712  42.702   7.101
 3386POPC   NC346151   4.686  11.115   5.101
 3386POPC   PO446152   5.127  11.328   5.565
 3386POPC   GL146153   5.192  11.183   5.975
 3386POPC   GL246154   5.318  10.864   5.907
 3386POPC   C1A46155   4.952  11.113   6.355
 3386POPC   D2A46156   4.879  11.226   6.788
 3386POPC   C3A46157   5.144  11.418   7.096
 3386POPC   C4A46158   5.167  11.683   7.456
 3386POPC   C1B46159   5.366  10.822   6.341
 3386POPC   C2B46160   5.272  10.764   6.782
 3386POPC   C3B46161   5.254  10.926   7.201
 3386POPC   C4B46162   5.221  11.172   7.596
 3387POPC   NC346163  20.998  28.888   5.226
 3387POPC   PO446164  21.049  29.606   5.453
 3387POPC   GL146165  21.234  29.421   5.838
 3387POPC   GL246166  21.474  29.148   5.812
 3387POPC   C1A46167  21.427  29.432   6.281
 3387POPC   D2A46168  21.584  29.317   6.717
 3387POPC   C3A46169  21.302  29.460   7.050
 3387POPC   C4A46170  20.913  29.342   7.234
 3387POPC   C1B46171  21.647  28.991   6.236
 3387POPC   C2B46172  21.485  28.807   6.632
 3387POPC   C3B46173  21.512  28.883   7.056
 3387POPC   C4B46174  21.707  29.220   7.240
 3388POPC   NC346175   7.826  12.136   5.277
 3388POPC   PO446176   8.325  11.665   5.422
 3388POPC   GL146177   8.375  11.767   5.830
 3388POPC   GL246178   8.507  12.096   5.764
 3388POPC   C1A46179   8.074  11.957   6.150
 3388POPC   D2A46180   7.980  12.151   6.568
 3388POPC   C3A46181   8.108  11.987   6.972
 3388POPC   C4A46182   8.258  11.753   7.321
 3388POPC   C1B46183   8.586  12.058   6.199
 3388POPC   C2B46184   8.501  12.166   6.614
 3388POPC   C3B46185   8.475  12.406   6.969
 3388POPC   C4B46186   8.432  12.250   7.333
 3389POPC   NC346187  39.055  17.847   5.389
 3389POPC   PO446188  39.426  17.278   5.179
 3389POPC   GL146189  39.367  17.283   5.638
 3389POPC   GL246190  39.419  17.631   5.706
 3389POPC   C1A46191  39.481  17.265   6.084
 3389POPC   D2A46192  39.405  17.492   6.486
 3389POPC   C3A46193  39.277  17.256   6.852
 3389POPC   C4A46194  39.445  17.200   7.272
 3389POPC   C1B46195  39.074  17.621   6.039
 3389POPC   C2B46196  38.984  17.834   6.438
 3389POPC   C3B46197  39.083  17.764   6.857
 3389POPC   C4B46198  39.056  17.534   7.238
 3390POPC   NC346199  20.195   6.721   5.359
 3390POPC   PO446200  20.820   6.596   5.287
 3390POPC   GL146201  20.702   6.567   5.722
 3390POPC   GL246202  20.349   6.656   5.850
 3390POPC   C1A46203  20.798   6.799   6.092
 3390POPC   D2A46204  20.750   6.925   6.513
 3390POPC   C3A46205  20.876   6.685   6.878
 3390POPC   C4A46206  20.606   6.725   7.211
 3390POPC   C1B46207  20.297   6.854   6.271
 3390POPC   C2B46208  20.292   6.770   6.722
 3390POPC   C3B46209  20.091   6.711   7.100
 3390POPC   C4B46210  20.219   6.342   7.297
 3391POPC   NC346211  18.465   9.280   5.437
 3391POPC   PO446212  18.389   9.973   5.389
 3391POPC   GL146213  18.272   9.675   5.747
 3391POPC   GL246214  18.047   9.915   5.872
 3391POPC   C1A46215  18.324   9.454   6.154
 3391POPC   D2A46216  18.345   9.620   6.603
 3391POPC   C3A46217  18.252   9.495   7.055
 3391POPC   C4A46218  18.287   9.797   7.443
 3391POPC   C1B46219  17.926   9.773   6.288
 3391POPC   C2B46220  17.915   9.895   6.720
 3391POPC   C3B46221  17.829   9.800   7.165
 3391POPC   C4B46222  17.829   9.647   7.613
 3392POPC   NC346223   3.166  18.534   5.394
 3392POPC   PO446224   3.033  17.922   5.477
 3392POPC   GL146225   2.873  17.982   5.860
 3392POPC   GL246226   2.669  18.271   5.783
 3392POPC   C1A46227   2.674  17.976   6.241
 3392POPC   D2A46228   2.610  18.289   6.538
 3392POPC   C3A46229   2.487  18.098   6.952
 3392POPC   C4A46230   2.801  18.063   7.252
 3392POPC   C1B46231   2.886  18.529   6.104
 3392POPC   C2B46232   2.892  18.709   6.542
 3392POPC   C3B46233   2.772  18.515   6.953
 3392POPC   C4B46234   2.761  18.557   7.377
 3393POPC   NC346235   4.181   6.155   5.487
 3393POPC   PO446236   4.677   5.742   5.567
 3393POPC   GL146237   4.384   5.944   5.916
 3393POPC   GL246238   4.010   6.096   5.959
 3393POPC   C1A46239   4.353   6.165   6.317
 3393POPC   D2A46240   4.210   6.453   6.625
 3393POPC   C3A46241   4.336   6.253   7.002
 3393POPC   C4A46242   4.288   5.906   7.273
 3393POPC   C1B46243   3.850   6.065   6.366
 3393POPC   C2B46244   4.055   5.926   6.703
 3393POPC   C3B46245   3.882   5.749   7.021
 3393POPC   C4B46246   3.782   6.076   7.309
 3394POPC   NC346247  19.835  12.387   5.439
 3394POPC   PO446248  20.157  11.741   5.459
 3394POPC   GL146249  20.027  12.018   5.787
 3394POPC   GL246250  19.653  12.012   5.764
 3394POPC   C1A46251  19.876  11.901   6.228
 3394POPC   D2A46252  19.819  11.674   6.606
 3394POPC   C3A46253  19.783  11.887   7.004
 3394POPC   C4A46254  19.813  12.032   7.433
 3394POPC   C1B46255  19.599  12.305   6.148
 3394POPC   C2B46256  19.687  12.258   6.628
 3394POPC   C3B46257  19.609  12.375   7.080
 3394POPC   C4B46258  19.478  12.505   7.516
 3395POPC   NC346259   3.852  37.239   5.058
 3395POPC   PO446260   3.564  37.792   5.450
 3395POPC   GL146261   3.598  37.771   5.865
 3395POPC   GL246262   3.417  37.444   5.846
 3395POPC   C1A46263   3.731  37.964   6.266
 3395POPC   D2A46264   3.868  37.727   6.636
 3395POPC   C3A46265   3.768  37.826   7.080
 3395POPC   C4A46266   3.626  37.659   7.499
 3395POPC   C1B46267   3.555  37.466   6.286
 3395POPC   C2B46268   3.448  37.408   6.723
 3395POPC   C3B46269   3.274  37.628   7.102
 3395POPC   C4B46270   2.859  37.579   7.309
 3396POPC   NC346271  24.415  31.313   5.366
 3396POPC   PO446272  24.405  31.993   5.418
 3396POPC   GL146273  24.274  31.673   5.780
 3396POPC   GL246274  24.228  31.262   5.829
 3396POPC   C1A46275  24.387  31.572   6.216
 3396POPC   D2A46276  24.709  31.515   6.531
 3396POPC   C3A46277  24.603  31.533   6.935
 3396POPC   C4A46278  24.879  31.377   7.221
 3396POPC   C1B46279  24.033  31.201   6.221
 3396POPC   C2B46280  24.072  31.426   6.596
 3396POPC   C3B46281  24.183  31.262   6.964
 3396POPC   C4B46282  24.305  31.334   7.341
 3397POPC   NC346283  37.413  11.049   5.167
 3397POPC   PO446284  36.814  11.197   5.502
 3397POPC   GL146285  37.052  11.303   5.788
 3397POPC   GL246286  37.160  10.939   5.816
 3397POPC   C1A46287  36.886  11.505   6.148
 3397POPC   D2A46288  36.697  11.347   6.506
 3397POPC   C3A46289  36.838  11.433   6.931
 3397POPC   C4A46290  36.619  11.201   7.262
 3397POPC   C1B46291  36.951  10.992   6.193
 3397POPC   C2B46292  37.074  11.002   6.589
 3397POPC   C3B46293  36.940  10.939   6.975
 3397POPC   C4B46294  37.117  11.076   7.319
 3398POPC   NC346295  34.234  18.709   5.472
 3398POPC   PO446296  33.941  19.345   5.488
 3398POPC   GL146297  33.895  19.025   5.784
 3398POPC   GL246298  33.725  19.306   5.957
 3398POPC   C1A46299  33.734  18.805   6.148
 3398POPC   D2A46300  33.625  19.002   6.532
 3398POPC   C3A46301  33.694  18.807   6.898
 3398POPC   C4A46302  33.607  18.881   7.297
 3398POPC   C1B46303  34.033  19.216   6.280
 3398POPC   C2B46304  34.123  19.040   6.690
 3398POPC   C3B46305  33.941  19.235   7.051
 3398POPC   C4B46306  33.944  19.189   7.485
 3399POPC   NC346307  10.383   1.656   5.104
 3399POPC   PO446308  10.908   2.036   5.289
 3399POPC   GL146309  10.704   2.055   5.775
 3399POPC   GL246310  10.422   2.327   5.860
 3399POPC   C1A46311  10.486   2.004   6.224
 3399POPC   D2A46312  10.233   1.910   6.585
 3399POPC   C3A46313  10.496   1.958   6.913
 3399POPC   C4A46314  10.692   2.009   7.286
 3399POPC   C1B46315  10.532   2.524   6.281
 3399POPC   C2B46316  10.312   2.425   6.689
 3399POPC   C3B46317  10.290   2.368   7.151
 3399POPC   C4B46318  10.028   2.417   7.530
 3400POPC   NC346319  21.205  10.031   5.409
 3400POPC   PO446320  21.261   9.370   5.563
 3400POPC   GL146321  21.216   9.643   5.929
 3400POPC   GL246322  21.393   9.945   5.897
 3400POPC   C1A46323  21.345   9.650   6.359
 3400POPC   D2A46324  21.646   9.483   6.628
 3400POPC   C3A46325  21.626   9.658   7.025
 3400POPC   C4A46326  21.482   9.684   7.465
 3400POPC   C1B46327  21.142  10.093   6.277
 3400POPC   C2B46328  21.374  10.044   6.678
 3400POPC   C3B46329  21.242   9.982   7.102
 3400POPC   C4B46330  21.238  10.173   7.513
 3401POPC   NC346331   2.807   5.368   5.435
 3401POPC   PO446332   2.987   4.750   5.239
 3401POPC   GL146333   2.869   4.880   5.720
 3401POPC   GL246334   2.902   5.241   5.919
 3401POPC   C1A46335   2.827   4.803   6.163
 3401POPC   D2A46336   2.757   5.182   6.466
 3401POPC   C3A46337   2.954   5.165   6.885
 3401POPC   C4A46338   2.858   4.807   7.152
 3401POPC   C1B46339   2.532   5.525   6.152
 3401POPC   C2B46340   2.335   5.629   6.559
 3401POPC   C3B46341   2.411   5.529   6.996
 3401POPC   C4B46342   2.657   5.267   7.295
 3402POPC   NC346343  32.171  43.511   5.089
 3402POPC   PO446344  31.720  44.055   5.309
 3402POPC   GL146345  31.971  44.110   5.718
 3402POPC   GL246346  32.206  43.841   5.708
 3402POPC   C1A46347  32.215  44.129   6.145
 3402POPC   D2A46348  32.331  43.818   6.474
 3402POPC   C3A46349  32.480  43.934   6.905
 3402POPC   C4A46350  32.481  43.607   7.230
 3402POPC   C1B46351  31.910  43.733   6.082
 3402POPC   C2B46352  31.835  43.774   6.516
 3402POPC   C3B46353  32.049  43.656   6.904
 3402POPC   C4B46354  31.913  43.725   7.320
 3403POPC   NC346355  39.195  11.565   5.407
 3403POPC   PO446356  39.113  12.170   5.426
 3403POPC   GL146357  39.188  12.247   5.840
 3403POPC   GL246358  39.250  11.895   5.907
 3403POPC   C1A46359  39.095  12.274   6.258
 3403POPC   D2A46360  39.295  12.348   6.650
 3403POPC   C3A46361  39.411  11.991   6.896
 3403POPC   C4A46362  39.398  12.164   7.295
 3403POPC   C1B46363  39.350  11.807   6.355
 3403POPC   C2B46364  39.200  11.528   6.678
 3403POPC   C3B46365  39.030  11.642   7.065
 3403POPC   C4B46366  39.281  11.676   7.442
 3404POPC   NC346367  33.510  30.029   5.391
 3404POPC   PO446368  34.041  29.680   5.380
 3404POPC   GL146369  33.857  29.826   5.775
 3404POPC   GL246370  33.559  29.719   5.806
 3404POPC   C1A46371  33.816  29.802   6.244
 3404POPC   D2A46372  34.053  29.997   6.554
 3404POPC   C3A46373  33.911  29.865   6.898
 3404POPC   C4A46374  33.877  30.103   7.257
 3404POPC   C1B46375  33.407  29.529   6.142
 3404POPC   C2B46376  33.435  29.604   6.572
 3404POPC   C3B46377  33.552  29.514   6.974
 3404POPC   C4B46378  33.499  29.621   7.370
 3405POPC   NC346379  22.381  37.045   5.236
 3405POPC   PO446380  21.692  36.868   5.270
 3405POPC   GL146381  22.009  36.896   5.627
 3405POPC   GL246382  21.758  36.756   5.799
 3405POPC   C1A46383  22.015  37.058   6.115
 3405POPC   D2A46384  21.885  37.078   6.583
 3405POPC   C3A46385  22.104  36.908   6.947
 3405POPC   C4A46386  22.337  36.987   7.354
 3405POPC   C1B46387  21.743  36.613   6.223
 3405POPC   C2B46388  21.841  36.537   6.653
 3405POPC   C3B46389  21.657  36.647   7.059
 3405POPC   C4B46390  21.907  36.706   7.422
 3406POPC   NC346391  38.870  22.565   5.499
 3406POPC   PO446392  39.421  23.080   5.542
 3406POPC   GL146393  39.055  22.939   5.809
 3406POPC   GL246394  39.185  22.617   5.904
 3406POPC   C1A46395  38.888  22.845   6.243
 3406POPC   D2A46396  38.919  22.897   6.694
 3406POPC   C3A46397  38.930  23.308   6.891
 3406POPC   C4A46398  38.934  23.276   7.326
 3406POPC   C1B46399  39.426  22.781   6.280
 3406POPC   C2B46400  39.401  22.672   6.733
 3406POPC   C3B46401  39.262  22.884   7.118
 3406POPC   C4B46402  39.295  22.707   7.518
 3407POPC   NC346403  36.362  31.356   5.376
 3407POPC   PO446404  35.811  31.414   5.667
 3407POPC   GL146405  36.217  31.503   5.833
 3407POPC   GL246406  36.381  31.803   5.712
 3407POPC   C1A46407  36.418  31.409   6.199
 3407POPC   D2A46408  36.046  31.391   6.423
 3407POPC   C3A46409  36.111  31.366   6.830
 3407POPC   C4A46410  36.481  31.247   7.004
 3407POPC   C1B46411  36.257  31.913   6.148
 3407POPC   C2B46412  36.349  31.809   6.579
 3407POPC   C3B46413  36.217  31.844   7.023
 3407POPC   C4B46414  36.174  31.529   7.328
 3408POPC   NC346415  34.635  17.074   5.161
 3408POPC   PO446416  34.727  16.524   5.501
 3408POPC   GL146417  34.483  16.610   5.882
 3408POPC   GL246418  34.153  16.754   5.805
 3408POPC   C1A46419  34.621  16.654   6.302
 3408POPC   D2A46420  34.740  16.471   6.705
 3408POPC   C3A46421  35.076  16.672   6.884
 3408POPC   C4A46422  35.062  16.942   7.235
 3408POPC   C1B46423  34.078  16.675   6.258
 3408POPC   C2B46424  34.247  16.680   6.686
 3408POPC   C3B46425  34.277  16.689   7.148
 3408POPC   C4B46426  34.076  16.718   7.579
 3409POPC   NC346427  10.349  33.467   5.706
 3409POPC   PO446428  10.817  33.068   5.463
 3409POPC   GL146429  10.607  33.025   5.866
 3409POPC   GL246430  10.718  32.676   5.874
 3409POPC   C1A46431  10.644  33.214   6.307
 3409POPC   D2A46432  10.603  33.430   6.755
 3409POPC   C3A46433  10.706  33.191   7.144
 3409POPC   C4A46434  10.553  33.016   7.526
 3409POPC   C1B46435  10.880  32.730   6.303
 3409POPC   C2B46436  10.729  32.895   6.709
 3409POPC   C3B46437  10.536  32.708   7.074
 3409POPC   C4B46438  10.802  32.593   7.392
 3410POPC   NC346439  10.058  21.360   5.583
 3410POPC   PO446440   9.421  21.075   5.378
 3410POPC   GL146441   9.658  21.096   5.731
 3410POPC   GL246442   9.600  21.433   5.808
 3410POPC   C1A46443   9.614  20.993   6.133
 3410POPC   D2A46444   9.700  21.108   6.556
 3410POPC   C3A46445   9.464  21.285   6.897
 3410POPC   C4A46446   9.604  21.318   7.323
 3410POPC   C1B46447   9.859  21.461   6.199
 3410POPC   C2B46448  10.039  21.465   6.627
 3410POPC   C3B46449   9.887  21.624   7.029
 3410POPC   C4B46450   9.935  21.740   7.490
 3411POPC   NC346451   8.868  14.293   5.412
 3411POPC   PO446452   8.997  14.952   5.223
 3411POPC   GL146453   9.001  14.746   5.701
 3411POPC   GL246454   8.713  14.546   5.811
 3411POPC   C1A46455   9.119  14.507   6.137
 3411POPC   D2A46456   9.185  14.179   6.492
 3411POPC   C3A46457   9.045  14.311   6.929
 3411POPC   C4A46458   9.128  14.694   7.160
 3411POPC   C1B46459   8.621  14.659   6.196
 3411POPC   C2B46460   8.692  14.484   6.585
 3411POPC   C3B46461   8.648  14.673   6.975
 3411POPC   C4B46462   8.434  14.830   7.327
 3412POPC   NC346463  15.376  29.489   5.558
 3412POPC   PO446464  14.920  30.055   5.411
 3412POPC   GL146465  15.213  29.949   5.744
 3412POPC   GL246466  14.968  29.704   5.797
 3412POPC   C1A46467  15.356  29.755   6.146
 3412POPC   D2A46468  15.273  29.878   6.548
 3412POPC   C3A46469  15.389  29.718   6.944
 3412POPC   C4A46470  15.376  29.810   7.376
 3412POPC   C1B46471  14.851  29.937   6.153
 3412POPC   C2B46472  14.783  29.774   6.545
 3412POPC   C3B46473  14.893  29.957   6.905
 3412POPC   C4B46474  14.957  30.065   7.304
 3413POPC   NC346475  33.224   2.460   5.391
 3413POPC   PO446476  33.018   3.095   5.354
 3413POPC   GL146477  33.105   2.873   5.721
 3413POPC   GL246478  32.872   2.590   5.778
 3413POPC   C1A46479  33.237   3.034   6.126
 3413POPC   D2A46480  33.219   2.801   6.533
 3413POPC   C3A46481  33.055   2.933   6.919
 3413POPC   C4A46482  33.172   2.789   7.285
 3413POPC   C1B46483  32.788   2.793   6.199
 3413POPC   C2B46484  32.674   2.687   6.659
 3413POPC   C3B46485  32.721   2.547   7.117
 3413POPC   C4B46486  32.845   2.336   7.515
 3414POPC   NC346487  12.376  44.871   5.464
 3414POPC   PO446488  12.002  44.334   5.274
 3414POPC   GL146489  12.013  44.518   5.704
 3414POPC   GL246490  12.053  44.824   5.856
 3414POPC   C1A46491  11.873  44.499   6.176
 3414POPC   D2A46492  12.057  44.668   6.576
 3414POPC   C3A46493  12.040  44.458   6.979
 3414POPC   C4A46494  12.123  44.311   7.431
 3414POPC   C1B46495  11.979   0.050   6.222
 3414POPC   C2B46496  11.740   0.073   6.596
 3414POPC   C3B46497  11.728  44.888   6.988
 3414POPC   C4B46498  11.838   0.098   7.366
 3415POPC   NC346499  43.708  24.160   5.348
 3415POPC   PO446500  43.792  24.794   5.617
 3415POPC   GL146501  43.852  24.553   5.954
 3415POPC   GL246502  43.891  24.213   5.898
 3415POPC   C1A46503  43.874  24.559   6.390
 3415POPC   D2A46504  43.655  24.597   6.778
 3415POPC   C3A46505  43.999  24.674   7.065
 3415POPC   C4A46506  44.109  24.415   7.429
 3415POPC   C1B46507  44.042  24.080   6.299
 3415POPC   C2B46508  44.138  24.194   6.721
 3415POPC   C3B46509  43.842  24.202   7.045
 3415POPC   C4B46510  43.407  24.271   7.124
 3416POPC   NC346511  30.001  43.592   5.289
 3416POPC   PO446512  30.175  44.313   5.268
 3416POPC   GL146513  29.902  44.025   5.613
 3416POPC   GL246514  29.854  43.682   5.765
 3416POPC   C1A46515  29.726  44.068   6.075
 3416POPC   D2A46516  29.637  44.177   6.525
 3416POPC   C3A46517  29.890  43.945   6.852
 3416POPC   C4A46518  29.829  43.768   7.257
 3416POPC   C1B46519  30.107  43.725   6.184
 3416POPC   C2B46520  30.258  43.670   6.615
 3416POPC   C3B46521  30.170  43.410   7.006
 3416POPC   C4B46522  30.109  43.398   7.459
 3417POPC   NC346523   6.709  37.103   5.474
 3417POPC   PO446524   6.492  36.463   5.399
 3417POPC   GL146525   6.614  36.657   5.798
 3417POPC   GL246526   6.821  36.940   5.956
 3417POPC   C1A46527   6.384  36.750   6.179
 3417POPC   D2A46528   6.352  36.996   6.563
 3417POPC   C3A46529   6.464  36.863   6.963
 3417POPC   C4A46530   6.566  37.036   7.338
 3417POPC   C1B46531   7.125  36.804   6.297
 3417POPC   C2B46532   7.157  36.555   6.698
 3417POPC   C3B46533   6.969  36.823   7.016
 3417POPC   C4B46534   7.021  37.235   7.191
 3418POPC   NC346535  19.146  10.873   5.155
 3418POPC   PO446536  19.330  10.300   5.478
 3418POPC   GL146537  19.150  10.547   5.793
 3418POPC   GL246538  19.007  10.867   5.791
 3418POPC   C1A46539  19.140  10.592   6.235
 3418POPC   D2A46540  19.160  10.261   6.541
 3418POPC   C3A46541  19.102  10.417   6.945
 3418POPC   C4A46542  18.846  10.384   7.291
 3418POPC   C1B46543  18.730  10.902   6.203
 3418POPC   C2B46544  18.754  10.669   6.633
 3418POPC   C3B46545  18.809  10.844   7.073
 3418POPC   C4B46546  18.572  10.787   7.458
 3419POPC   NC346547  25.311  16.832   5.402
 3419POPC   PO446548  24.804  16.474   5.543
 3419POPC   GL146549  24.993  16.750   5.855
 3419POPC   GL246550  25.352  16.646   5.884
 3419POPC   C1A46551  24.964  16.934   6.287
 3419POPC   D2A46552  25.276  17.053   6.593
 3419POPC   C3A46553  25.393  16.877   6.984
 3419POPC   C4A46554  25.306  16.765   7.386
 3419POPC   C1B46555  25.217  16.491   6.308
 3419POPC   C2B46556  25.097  16.522   6.757
 3419POPC   C3B46557  25.239  16.313   7.162
 3419POPC   C4B46558  25.345  16.319   7.623
 3420POPC   NC346559  14.867  21.597   5.488
 3420POPC   PO446560  15.415  21.307   5.455
 3420POPC   GL146561  15.133  21.293   5.798
 3420POPC   GL246562  15.233  21.601   5.882
 3420POPC   C1A46563  15.028  21.295   6.236
 3420POPC   D2A46564  15.278  21.265   6.586
 3420POPC   C3A46565  15.108  21.166   6.949
 3420POPC   C4A46566  15.210  21.445   7.279
 3420POPC   C1B46567  14.896  21.818   6.142
 3420POPC   C2B46568  14.689  21.685   6.528
 3420POPC   C3B46569  14.859  21.611   6.933
 3420POPC   C4B46570  14.929  21.862   7.295
 3421POPC   NC346571  44.310  11.510   5.411
 3421POPC   PO446572  44.275  10.874   5.320
 3421POPC   GL146573  44.391  11.109   5.755
 3421POPC   GL246574  44.505  11.459   5.903
 3421POPC   C1A46575  44.659  11.067   6.180
 3421POPC   D2A46576  44.876  11.109   6.616
 3421POPC   C3A46577  44.667  11.142   7.051
 3421POPC   C4A46578  44.587  10.877   7.447
 3421POPC   C1B46579  44.778  11.568   6.302
 3421POPC   C2B46580  44.816  11.591   6.788
 3421POPC   C3B46581  44.520  11.629   7.164
 3421POPC   C4B46582  44.569  11.920   7.535
 3422POPC   NC346583   6.217  43.868   5.646
 3422POPC   PO446584   6.839  43.614   5.408
 3422POPC   GL146585   6.723  43.822   5.814
 3422POPC   GL246586   6.850  44.165   5.908
 3422POPC   C1A46587   6.708  43.685   6.255
 3422POPC   D2A46588   6.996  43.608   6.630
 3422POPC   C3A46589   6.960  43.400   7.030
 3422POPC   C4A46590   6.689  43.578   7.331
 3422POPC   C1B46591   6.553  44.190   6.279
 3422POPC   C2B46592   6.585  44.006   6.685
 3422POPC   C3B46593   6.680  44.120   7.097
 3422POPC   C4B46594   6.614  44.423   7.437
 3423POPC   NC346595  10.739   3.589   5.453
 3423POPC   PO446596  10.256   4.011   5.374
 3423POPC   GL146597  10.295   3.708   5.709
 3423POPC   GL246598  10.049   3.922   5.849
 3423POPC   C1A46599  10.556   3.512   6.079
 3423POPC   D2A46600  10.500   3.591   6.520
 3423POPC   C3A46601  10.641   3.347   6.880
 3423POPC   C4A46602  10.724   3.618   7.235
 3423POPC   C1B46603  10.043   3.553   6.126
 3423POPC   C2B46604  10.016   3.405   6.540
 3423POPC   C3B46605  10.180   3.577   6.931
 3423POPC   C4B46606  10.228   3.402   7.317
 3424POPC   NC346607  39.326   2.595   5.619
 3424POPC   PO446608  39.173   3.185   5.264
 3424POPC   GL146609  39.006   2.994   5.738
 3424POPC   GL246610  38.837   2.682   5.713
 3424POPC   C1A46611  39.121   2.890   6.199
 3424POPC   D2A46612  39.243   2.617   6.570
 3424POPC   C3A46613  39.515   2.827   6.874
 3424POPC   C4A46614  39.701   2.690   7.246
 3424POPC   C1B46615  38.914   2.447   6.120
 3424POPC   C2B46616  38.858   2.197   6.458
 3424POPC   C3B46617  38.865   2.333   6.872
 3424POPC   C4B46618  39.019   2.763   7.035
 3425POPC   NC346619  22.374   9.419   5.031
 3425POPC   PO446620  21.908   9.674   5.486
 3425POPC   GL146621  22.054   9.536   5.873
 3425POPC   GL246622  21.725   9.541   6.015
 3425POPC   C1A46623  22.134   9.486   6.324
 3425POPC   D2A46624  22.299   9.647   6.700
 3425POPC   C3A46625  22.163   9.436   7.043
 3425POPC   C4A46626  21.937   9.455   7.404
 3425POPC   C1B46627  21.780   9.900   6.308
 3425POPC   C2B46628  21.944  10.020   6.697
 3425POPC   C3B46629  22.016   9.941   7.114
 3425POPC   C4B46630  21.712  10.124   7.363
 3426POPC   NC346631   7.110  40.240   5.357
 3426POPC   PO446632   6.355  40.304   5.465
 3426POPC   GL146633   6.708  40.283   5.753
 3426POPC   GL246634   6.468  40.094   5.933
 3426POPC   C1A46635   6.775  40.413   6.221
 3426POPC   D2A46636   6.627  40.184   6.611
 3426POPC   C3A46637   6.860  40.185   7.040
 3426POPC   C4A46638   7.136  39.913   7.303
 3426POPC   C1B46639   6.255  39.896   6.265
 3426POPC   C2B46640   6.162  39.964   6.710
 3426POPC   C3B46641   6.310  40.321   6.986
 3426POPC   C4B46642   6.478  40.268   7.406
 3427POPC   NC346643  37.223  34.853   5.392
 3427POPC   PO446644  36.759  34.383   5.291
 3427POPC   GL146645  36.902  34.560   5.678
 3427POPC   GL246646  37.118  34.359   5.828
 3427POPC   C1A46647  37.019  34.808   6.053
 3427POPC   D2A46648  36.844  35.042   6.395
 3427POPC   C3A46649  36.968  34.859   6.810
 3427POPC   C4A46650  36.832  34.635   7.191
 3427POPC   C1B46651  36.982  34.350   6.288
 3427POPC   C2B46652  36.996  34.320   6.765
 3427POPC   C3B46653  36.955  34.110   7.189
 3427POPC   C4B46654  37.052  33.894   7.598
 3428POPC   NC346655  33.071  11.524   5.526
 3428POPC   PO446656  32.931  10.917   5.371
 3428POPC   GL146657  32.876  11.152   5.808
 3428POPC   GL246658  33.236  11.187   5.873
 3428POPC   C1A46659  32.908  11.239   6.274
 3428POPC   D2A46660  32.923  11.423   6.680
 3428POPC   C3A46661  32.846  11.398   7.109
 3428POPC   C4A46662  33.104  11.410   7.469
 3428POPC   C1B46663  33.309  10.921   6.231
 3428POPC   C2B46664  33.298  10.723   6.648
 3428POPC   C3B46665  33.175  10.985   7.010
 3428POPC   C4B46666  32.868  10.968   7.360
 3429POPC   NC346667  16.508   1.404   5.462
 3429POPC   PO446668  17.080   1.346   5.217
 3429POPC   GL146669  16.871   1.135   5.718
 3429POPC   GL246670  16.529   1.065   5.812
 3429POPC   C1A46671  16.740   1.334   6.184
 3429POPC   D2A46672  16.616   1.177   6.582
 3429POPC   C3A46673  16.671   1.438   6.933
 3429POPC   C4A46674  16.842   1.352   7.356
 3429POPC   C1B46675  16.319   1.008   6.198
 3429POPC   C2B46676  16.107   1.007   6.578
 3429POPC   C3B46677  16.298   1.090   6.975
 3429POPC   C4B46678  16.393   1.133   7.420
 3430POPC   NC346679  39.239  25.574   5.533
 3430POPC   PO446680  39.145  24.930   5.370
 3430POPC   GL146681  39.325  25.114   5.752
 3430POPC   GL246682  39.100  25.329   5.965
 3430POPC   C1A46683  39.474  25.072   6.166
 3430POPC   D2A46684  39.246  25.223   6.531
 3430POPC   C3A46685  39.399  25.155   6.970
 3430POPC   C4A46686  39.232  25.404   7.360
 3430POPC   C1B46687  39.454  25.589   6.161
 3430POPC   C2B46688  39.482  25.758   6.561
 3430POPC   C3B46689  39.481  25.645   6.968
 3430POPC   C4B46690  39.746  25.586   7.314
 3431POPC   NC346691  15.200  20.895   5.492
 3431POPC   PO446692  14.987  20.297   5.616
 3431POPC   GL146693  15.279  20.504   5.859
 3431POPC   GL246694  15.132  20.816   6.001
 3431POPC   C1A46695  15.434  20.502   6.267
 3431POPC   D2A46696  15.342  20.753   6.616
 3431POPC   C3A46697  15.303  20.528   6.989
 3431POPC   C4A46698  14.923  20.368   7.112
 3431POPC   C1B46699  15.509  21.052   6.194
 3431POPC   C2B46700  15.768  21.039   6.600
 3431POPC   C3B46701  15.671  20.891   6.996
 3431POPC   C4B46702  15.350  20.947   7.322
 3432POPC   NC346703  24.229  42.727   5.430
 3432POPC   PO446704  24.580  42.300   5.019
 3432POPC   GL146705  24.545  42.324   5.605
 3432POPC   GL246706  24.315  42.504   5.866
 3432POPC   C1A46707  24.332  42.047   6.023
 3432POPC   D2A46708  24.178  42.246   6.456
 3432POPC   C3A46709  24.285  42.176   6.912
 3432POPC   C4A46710  24.222  42.331   7.334
 3432POPC   C1B46711  24.617  42.407   6.221
 3432POPC   C2B46712  24.636  42.460   6.686
 3432POPC   C3B46713  24.478  42.669   7.054
 3432POPC   C4B46714  24.650  42.673   7.465
 3433POPC   NC346715  44.435  26.687   5.381
 3433POPC   PO446716   0.202  26.640   5.287
 3433POPC   GL146717  44.950  26.726   5.707
 3433POPC   GL246718  44.699  26.939   5.794
 3433POPC   C1A46719  44.861  26.652   6.181
 3433POPC   D2A46720  44.732  26.530   6.622
 3433POPC   C3A46721  44.954  26.677   6.999
 3433POPC   C4A46722  44.819  26.669   7.450
 3433POPC   C1B46723  44.503  27.110   6.191
 3433POPC   C2B46724  44.559  27.059   6.649
 3433POPC   C3B46725  44.501  26.944   7.088
 3433POPC   C4B46726  44.543  27.096   7.506
 3434POPC   NC346727  25.466   1.547   5.485
 3434POPC   PO446728  25.172   0.912   5.338
 3434POPC   GL146729  25.186   1.097   5.743
 3434POPC   GL246730  25.111   1.451   5.839
 3434POPC   C1A46731  25.237   1.055   6.169
 3434POPC   D2A46732  25.387   0.869   6.519
 3434POPC   C3A46733  25.335   1.055   6.896
 3434POPC   C4A46734  25.059   0.990   7.268
 3434POPC   C1B46735  25.500   1.479   6.111
 3434POPC   C2B46736  25.506   1.607   6.498
 3434POPC   C3B46737  25.238   1.586   6.815
 3434POPC   C4B46738  25.367   1.431   7.211
 3435POPC   NC346739  16.329  26.590   5.399
 3435POPC   PO446740  16.874  26.979   5.303
 3435POPC   GL146741  16.681  27.038   5.712
 3435POPC   GL246742  16.965  26.897   5.886
 3435POPC   C1A46743  16.416  26.911   6.083
 3435POPC   D2A46744  16.474  26.947   6.549
 3435POPC   C3A46745  16.402  26.676   6.929
 3435POPC   C4A46746  16.538  26.739   7.385
 3435POPC   C1B46747  17.105  26.667   6.263
 3435POPC   C2B46748  16.891  26.627   6.662
 3435POPC   C3B46749  16.889  26.547   7.085
 3435POPC   C4B46750  16.968  26.144   7.243
 3436POPC   NC346751  41.448  10.177   5.529
 3436POPC   PO446752  41.951  10.486   5.209
 3436POPC   GL146753  41.803  10.570   5.654
 3436POPC   GL246754  41.436  10.684   5.683
 3436POPC   C1A46755  41.671  10.430   6.092
 3436POPC   D2A46756  41.673  10.642   6.488
 3436POPC   C3A46757  41.634  10.426   6.852
 3436POPC   C4A46758  41.458  10.442   7.242
 3436POPC   C1B46759  41.485  10.911   6.086
 3436POPC   C2B46760  41.357  11.041   6.510
 3436POPC   C3B46761  41.334  10.829   6.912
 3436POPC   C4B46762  41.353  10.928   7.383
 3437POPC   NC346763  20.265   7.688   5.602
 3437POPC   PO446764  20.775   7.313   5.479
 3437POPC   GL146765  20.648   7.404   5.868
 3437POPC   GL246766  20.336   7.198   5.854
 3437POPC   C1A46767  20.796   7.408   6.296
 3437POPC   D2A46768  20.633   7.694   6.610
 3437POPC   C3A46769  20.811   7.517   6.930
 3437POPC   C4A46770  20.845   7.511   7.351
 3437POPC   C1B46771  20.295   7.426   6.255
 3437POPC   C2B46772  20.377   7.267   6.667
 3437POPC   C3B46773  20.461   7.187   7.109
 3437POPC   C4B46774  20.172   7.052   7.468
 3438POPC   NC346775   8.600  32.159   5.402
 3438POPC   PO446776   9.244  32.486   5.479
 3438POPC   GL146777   8.938  32.347   5.776
 3438POPC   GL246778   8.899  31.996   5.808
 3438POPC   C1A46779   8.928  32.220   6.247
 3438POPC   D2A46780   9.175  32.179   6.633
 3438POPC   C3A46781   9.025  32.283   7.076
 3438POPC   C4A46782   8.704  32.174   7.413
 3438POPC   C1B46783   9.215  31.818   6.103
 3438POPC   C2B46784   9.385  31.734   6.523
 3438POPC   C3B46785   9.352  31.855   6.986
 3438POPC   C4B46786   9.161  31.859   7.434
 3439POPC   NC346787   9.403  33.013   5.509
 3439POPC   PO446788  10.053  33.186   5.480
 3439POPC   GL146789   9.917  32.837   5.736
 3439POPC   GL246790  10.197  32.654   5.931
 3439POPC   C1A46791   9.695  32.816   6.121
 3439POPC   D2A46792   9.826  32.765   6.551
 3439POPC   C3A46793   9.768  32.802   7.012
 3439POPC   C4A46794   9.701  33.006   7.399
 3439POPC   C1B46795  10.179  33.009   6.173
 3439POPC   C2B46796  10.197  33.156   6.569
 3439POPC   C3B46797  10.029  33.379   6.883
 3439POPC   C4B46798  10.177  33.072   7.145
 3440POPC   NC346799   7.334  34.385   5.343
 3440POPC   PO446800   8.009  34.517   5.376
 3440POPC   GL146801   7.663  34.450   5.766
 3440POPC   GL246802   7.241  34.367   5.831
 3440POPC   C1A46803   7.522  34.549   6.199
 3440POPC   D2A46804   7.635  34.694   6.596
 3440POPC   C3A46805   7.473  34.487   6.957
 3440POPC   C4A46806   7.635  34.616   7.389
 3440POPC   C1B46807   7.051  34.688   6.145
 3440POPC   C2B46808   7.107  34.647   6.573
 3440POPC   C3B46809   7.124  34.857   6.946
 3440POPC   C4B46810   6.827  34.844   7.230
 3441POPC   NC346811   8.136  35.679   5.324
 3441POPC   PO446812   8.629  35.301   5.355
 3441POPC   GL146813   8.292  35.354   5.714
 3441POPC   GL246814   8.075  35.642   5.810
 3441POPC   C1A46815   8.157  35.147   6.095
 3441POPC   D2A46816   7.944  35.109   6.508
 3441POPC   C3A46817   8.232  35.052   6.818
 3441POPC   C4A46818   8.443  35.305   7.068
 3441POPC   C1B46819   7.909  35.564   6.202
 3441POPC   C2B46820   7.771  35.594   6.610
 3441POPC   C3B46821   7.930  35.440   6.991
 3441POPC   C4B46822   7.809  35.452   7.416
 3442POPC   NC346823   1.909  21.536   5.352
 3442POPC   PO446824   1.742  20.855   5.413
 3442POPC   GL146825   1.910  21.152   5.775
 3442POPC   GL246826   1.733  21.490   5.830
 3442POPC   C1A46827   2.057  21.302   6.237
 3442POPC   D2A46828   2.214  21.254   6.687
 3442POPC   C3A46829   1.967  21.325   7.084
 3442POPC   C4A46830   1.858  21.042   7.477
 3442POPC   C1B46831   1.691  21.691   6.247
 3442POPC   C2B46832   1.926  21.720   6.637
 3442POPC   C3B46833   1.983  21.863   7.056
 3442POPC   C4B46834   1.962  21.688   7.455
 3443POPC   NC346835  15.710   3.054   5.529
 3443POPC   PO446836  16.148   2.605   5.402
 3443POPC   GL146837  15.933   2.643   5.798
 3443POPC   GL246838  15.971   2.970   5.958
 3443POPC   C1A46839  16.096   2.525   6.216
 3443POPC   D2A46840  16.178   2.770   6.622
 3443POPC   C3A46841  16.064   2.509   6.994
 3443POPC   C4A46842  15.873   2.381   7.408
 3443POPC   C1B46843  15.711   2.897   6.302
 3443POPC   C2B46844  15.582   2.952   6.724
 3443POPC   C3B46845  15.681   2.847   7.161
 3443POPC   C4B46846  15.499   2.736   7.564
 3444POPC   NC346847  24.872  32.133   5.515
 3444POPC   PO446848  25.518  32.399   5.393
 3444POPC   GL146849  25.337  32.247   5.760
 3444POPC   GL246850  25.464  32.523   5.935
 3444POPC   C1A46851  25.308  32.110   6.213
 3444POPC   D2A46852  25.456  31.984   6.640
 3444POPC   C3A46853  25.262  32.261   6.919
 3444POPC   C4A46854  25.164  32.251   7.343
 3444POPC   C1B46855  25.099  32.637   6.170
 3444POPC   C2B46856  25.110  32.756   6.596
 3444POPC   C3B46857  25.404  32.766   6.936
 3444POPC   C4B46858  25.519  32.649   7.332
 3445POPC   NC346859  29.685   4.471   5.556
 3445POPC   PO446860  30.156   4.099   5.267
 3445POPC   GL146861  30.145   4.231   5.714
 3445POPC   GL246862  30.182   4.607   5.692
 3445POPC   C1A46863  29.867   4.225   6.117
 3445POPC   D2A46864  29.687   4.555   6.370
 3445POPC   C3A46865  29.701   4.576   6.809
 3445POPC   C4A46866  29.596   4.673   7.213
 3445POPC   C1B46867  30.141   4.646   6.138
 3445POPC   C2B46868  30.102   4.350   6.569
 3445POPC   C3B46869  30.129   4.388   7.032
 3445POPC   C4B46870  30.171   4.671   7.356
 3446POPC   NC346871  15.398  24.257   5.301
 3446POPC   PO446872  15.200  24.846   5.386
 3446POPC   GL146873  15.182  24.482   5.698
 3446POPC   GL246874  15.303  24.667   5.873
 3446POPC   C1A46875  15.181  24.291   6.165
 3446POPC   D2A46876  15.002  24.395   6.583
 3446POPC   C3A46877  15.256  24.345   6.962
 3446POPC   C4A46878  15.181  24.380   7.420
 3446POPC   C1B46879  15.017  24.801   6.189
 3446POPC   C2B46880  15.064  24.933   6.615
 3446POPC   C3B46881  14.965  24.775   7.037
 3446POPC   C4B46882  14.785  24.707   7.455
 3447POPC   NC346883  18.374  35.475   5.159
 3447POPC   PO446884  18.517  35.005   5.545
 3447POPC   GL146885  18.379  35.288   5.844
 3447POPC   GL246886  18.093  35.470   5.782
 3447POPC   C1A46887  18.309  35.334   6.268
 3447POPC   D2A46888  18.012  35.174   6.530
 3447POPC   C3A46889  18.151  35.082   6.940
 3447POPC   C4A46890  17.988  34.778   7.221
 3447POPC   C1B46891  18.000  35.742   6.134
 3447POPC   C2B46892  18.099  35.788   6.556
 3447POPC   C3B46893  18.173  35.838   6.989
 3447POPC   C4B46894  18.400  35.531   7.194
 3448POPC   NC346895  20.225  23.036   5.247
 3448POPC   PO446896  20.245  22.640   5.664
 3448POPC   GL146897  20.462  22.837   5.999
 3448POPC   GL246898  20.741  23.035   5.856
 3448POPC   C1A46899  20.398  22.795   6.459
 3448POPC   D2A46900  20.353  22.722   6.912
 3448POPC   C3A46901  20.191  23.080   7.075
 3448POPC   C4A46902  20.318  23.512   7.192
 3448POPC   C1B46903  20.857  22.991   6.315
 3448POPC   C2B46904  20.846  22.780   6.725
 3448POPC   C3B46905  20.803  22.965   7.110
 3448POPC   C4B46906  21.032  22.883   7.471
 3449POPC   NC346907  25.144  26.746   5.411
 3449POPC   PO446908  25.802  26.892   5.470
 3449POPC   GL146909  25.540  26.758   5.743
 3449POPC   GL246910  25.370  27.057   5.770
 3449POPC   C1A46911  25.283  26.671   6.090
 3449POPC   D2A46912  25.406  26.657   6.497
 3449POPC   C3A46913  25.131  26.788   6.801
 3449POPC   C4A46914  25.213  26.712   7.205
 3449POPC   C1B46915  25.610  27.054   6.190
 3449POPC   C2B46916  25.495  27.143   6.669
 3449POPC   C3B46917  25.422  27.198   7.123
 3449POPC   C4B46918  25.743  27.141   7.454
 3450POPC   NC346919  16.474  35.048   5.514
 3450POPC   PO446920  16.807  35.596   5.351
 3450POPC   GL146921  16.758  35.440   5.745
 3450POPC   GL246922  16.384  35.454   5.792
 3450POPC   C1A46923  16.718  35.622   6.143
 3450POPC   D2A46924  16.798  35.739   6.514
 3450POPC   C3A46925  16.721  35.453   6.816
 3450POPC   C4A46926  16.587  35.509   7.216
 3450POPC   C1B46927  16.577  35.142   6.124
 3450POPC   C2B46928  16.560  35.073   6.536
 3450POPC   C3B46929  16.401  35.074   6.966
 3450POPC   C4B46930  16.626  34.992   7.358
 3451POPC   NC346931   9.349  26.849   5.516
 3451POPC   PO446932   9.961  26.628   5.589
 3451POPC   GL146933   9.753  26.921   5.862
 3451POPC   GL246934   9.444  27.136   5.918
 3451POPC   C1A46935   9.829  27.153   6.248
 3451POPC   D2A46936   9.598  27.121   6.637
 3451POPC   C3A46937   9.786  26.769   6.812
 3451POPC   C4A46938   9.922  26.605   7.197
 3451POPC   C1B46939   9.431  26.774   6.239
 3451POPC   C2B46940   9.290  26.676   6.673
 3451POPC   C3B46941   9.368  26.785   7.108
 3451POPC   C4B46942   9.205  26.979   7.483
 3452POPC   NC346943  29.338   7.302   5.308
 3452POPC   PO446944  28.752   7.588   5.347
 3452POPC   GL146945  28.889   7.224   5.673
 3452POPC   GL246946  29.247   7.247   5.816
 3452POPC   C1A46947  28.862   7.250   6.161
 3452POPC   D2A46948  28.913   7.601   6.504
 3452POPC   C3A46949  28.975   7.474   6.948
 3452POPC   C4A46950  29.056   7.097   7.165
 3452POPC   C1B46951  29.401   7.072   6.227
 3452POPC   C2B46952  29.294   7.043   6.677
 3452POPC   C3B46953  29.484   7.359   6.945
 3452POPC   C4B46954  29.386   7.785   7.075
 3453POPC   NC346955  38.723   6.074   5.303
 3453POPC   PO446956  38.453   5.516   5.522
 3453POPC   GL146957  38.331   5.616   5.936
 3453POPC   GL246958  38.129   5.910   5.937
 3453POPC   C1A46959  38.339   5.662   6.384
 3453POPC   D2A46960  38.556   5.497   6.741
 3453POPC   C3A46961  38.350   5.733   7.056
 3453POPC   C4A46962  38.305   5.830   7.473
 3453POPC   C1B46963  38.301   6.162   6.289
 3453POPC   C2B46964  38.370   6.172   6.745
 3453POPC   C3B46965  38.190   6.256   7.181
 3453POPC   C4B46966  38.337   6.301   7.630
 3454POPC   NC346967  11.530  35.296   5.387
 3454POPC   PO446968  10.912  35.631   5.487
 3454POPC   GL146969  10.980  35.441   5.894
 3454POPC   GL246970  11.314  35.323   5.877
 3454POPC   C1A46971  11.082  35.282   6.331
 3454POPC   D2A46972  11.380  35.357   6.680
 3454POPC   C3A46973  11.250  35.236   7.068
 3454POPC   C4A46974  10.823  35.169   7.201
 3454POPC   C1B46975  11.492  35.611   6.223
 3454POPC   C2B46976  11.727  35.708   6.615
 3454POPC   C3B46977  11.616  35.639   7.069
 3454POPC   C4B46978  11.571  35.718   7.513
 3455POPC   NC346979   4.974   7.619   5.374
 3455POPC   PO446980   5.369   7.116   5.592
 3455POPC   GL146981   5.140   7.421   5.800
 3455POPC   GL246982   4.890   7.208   5.903
 3455POPC   C1A46983   5.071   7.682   6.139
 3455POPC   D2A46984   5.003   7.457   6.490
 3455POPC   C3A46985   5.061   7.546   6.924
 3455POPC   C4A46986   5.123   7.293   7.284
 3455POPC   C1B46987   4.635   7.133   6.260
 3455POPC   C2B46988   4.558   7.302   6.673
 3455POPC   C3B46989   4.668   7.198   7.091
 3455POPC   C4B46990   4.468   7.045   7.525
 3456POPC   NC346991  31.905   2.990   5.210
 3456POPC   PO446992  31.522   3.567   5.281
 3456POPC   GL146993  31.512   3.611   5.778
 3456POPC   GL246994  31.771   3.409   5.941
 3456POPC   C1A46995  31.584   3.823   6.233
 3456POPC   D2A46996  31.455   4.029   6.665
 3456POPC   C3A46997  31.406   3.719   7.014
 3456POPC   C4A46998  31.198   3.356   7.237
 3456POPC   C1B46999  31.951   3.309   6.336
 3456POPC   C2B47000  31.753   3.358   6.735
 3456POPC   C3B47001  31.736   3.308   7.185
 3456POPC   C4B47002  31.670   3.145   7.634
 3457POPC   NC347003  31.588  11.355   5.488
 3457POPC   PO447004  31.023  11.721   5.390
 3457POPC   GL147005  31.157  11.523   5.777
 3457POPC   GL247006  31.131  11.145   5.723
 3457POPC   C1A47007  31.428  11.622   6.175
 3457POPC   D2A47008  31.669  11.327   6.450
 3457POPC   C3A47009  31.615  11.410   6.919
 3457POPC   C4A47010  31.619  11.271   7.338
 3457POPC   C1B47011  31.210  11.172   6.173
 3457POPC   C2B47012  31.192  11.341   6.593
 3457POPC   C3B47013  31.165  11.170   6.983
 3457POPC   C4B47014  31.114  11.301   7.356
 3458POPC   NC347015   1.720  24.047   5.118
 3458POPC   PO447016   1.566  24.613   5.476
 3458POPC   GL147017   1.737  24.533   5.905
 3458POPC   GL247018   2.098  24.535   5.945
 3458POPC   C1A47019   1.790  24.456   6.366
 3458POPC   D2A47020   1.721  24.532   6.802
 3458POPC   C3A47021   1.677  24.245   7.165
 3458POPC   C4A47022   1.958  24.264   7.582
 3458POPC   C1B47023   2.247  24.665   6.355
 3458POPC   C2B47024   2.241  24.348   6.694
 3458POPC   C3B47025   2.171  24.343   7.130
 3458POPC   C4B47026   2.177  24.714   7.426
 3459POPC   NC347027  11.419  16.408   5.504
 3459POPC   PO447028  11.057  15.863   5.601
 3459POPC   GL147029  11.228  16.173   5.946
 3459POPC   GL247030  11.564  16.361   5.975
 3459POPC   C1A47031  11.104  16.152   6.402
 3459POPC   D2A47032  11.045  15.808   6.721
 3459POPC   C3A47033  11.121  15.979   7.127
 3459POPC   C4A47034  10.981  16.127   7.527
 3459POPC   C1B47035  11.641  16.237   6.367
 3459POPC   C2B47036  11.507  16.110   6.770
 3459POPC   C3B47037  11.711  15.925   7.098
 3459POPC   C4B47038  11.705  15.499   7.217
 3460POPC   NC347039  12.136  21.714   5.335
 3460POPC   PO447040  12.313  21.094   5.401
 3460POPC   GL147041  12.143  21.270   5.792
 3460POPC   GL247042  11.957  21.587   5.786
 3460POPC   C1A47043  12.285  21.468   6.186
 3460POPC   D2A47044  12.431  21.454   6.627
 3460POPC   C3A47045  12.265  21.129   6.904
 3460POPC   C4A47046  12.189  21.322   7.312
 3460POPC   C1B47047  11.744  21.393   6.120
 3460POPC   C2B47048  11.902  21.351   6.522
 3460POPC   C3B47049  11.882  21.492   6.915
 3460POPC   C4B47050  11.702  21.497   7.300
 3461POPC   NC347051  35.824  29.688   5.446
 3461POPC   PO447052  36.317  30.008   5.131
 3461POPC   GL147053  36.051  30.086   5.642
 3461POPC   GL247054  36.009  29.776   5.912
 3461POPC   C1A47055  36.069  30.217   6.158
 3461POPC   D2A47056  36.004  30.002   6.594
 3461POPC   C3A47057  36.262  29.949   6.982
 3461POPC   C4A47058  36.204  30.007   7.429
 3461POPC   C1B47059  35.893  29.579   6.337
 3461POPC   C2B47060  35.898  29.509   6.781
 3461POPC   C3B47061  35.892  29.633   7.191
 3461POPC   C4B47062  35.928  29.607   7.644
 3462POPC   NC347063   3.899  10.788   5.428
 3462POPC   PO447064   3.323  10.857   5.541
 3462POPC   GL147065   3.510  11.106   5.872
 3462POPC   GL247066   3.848  11.195   5.811
 3462POPC   C1A47067   3.401  11.240   6.292
 3462POPC   D2A47068   3.293  11.007   6.678
 3462POPC   C3A47069   3.423  11.198   7.084
 3462POPC   C4A47070   3.554  11.352   7.511
 3462POPC   C1B47071   3.901  11.099   6.271
 3462POPC   C2B47072   3.833  11.065   6.737
 3462POPC   C3B47073   3.933  11.200   7.176
 3462POPC   C4B47074   3.985  11.033   7.617
 3463POPC   NC347075  29.360  29.001   5.281
 3463POPC   PO447076  28.646  29.008   5.137
 3463POPC   GL147077  28.914  29.220   5.520
 3463POPC   GL247078  29.255  29.205   5.736
 3463POPC   C1A47079  28.836  29.178   6.007
 3463POPC   D2A47080  29.070  29.183   6.430
 3463POPC   C3A47081  28.895  29.122   6.853
 3463POPC   C4A47082  29.002  29.216   7.274
 3463POPC   C1B47083  29.377  29.478   6.104
 3463POPC   C2B47084  29.306  29.635   6.533
 3463POPC   C3B47085  29.291  29.489   6.945
 3463POPC   C4B47086  29.515  29.196   7.174
 3464POPC   NC347087   9.795  41.000   5.149
 3464POPC   PO447088   9.481  40.502   5.458
 3464POPC   GL147089   9.843  40.728   5.664
 3464POPC   GL247090   9.837  41.066   5.691
 3464POPC   C1A47091   9.936  40.742   6.098
 3464POPC   D2A47092   9.993  41.074   6.406
 3464POPC   C3A47093   9.809  41.036   6.802
 3464POPC   C4A47094  10.006  40.876   7.169
 3464POPC   C1B47095   9.601  41.136   6.081
 3464POPC   C2B47096   9.480  40.842   6.437
 3464POPC   C3B47097   9.244  40.945   6.824
 3464POPC   C4B47098   9.484  40.931   7.201
 3465POPC   NC347099   6.009  15.626   5.316
 3465POPC   PO447100   6.319  16.137   5.428
 3465POPC   GL147101   6.025  16.035   5.711
 3465POPC   GL247102   5.720  16.225   5.771
 3465POPC   C1A47103   6.097  15.836   6.059
 3465POPC   D2A47104   6.047  15.814   6.503
 3465POPC   C3A47105   6.120  16.085   6.807
 3465POPC   C4A47106   5.959  16.271   7.149
 3465POPC   C1B47107   5.859  16.256   6.210
 3465POPC   C2B47108   5.694  16.286   6.626
 3465POPC   C3B47109   5.582  16.550   6.970
 3465POPC   C4B47110   5.443  16.334   7.319
 3466POPC   NC347111  43.293  25.853   5.574
 3466POPC   PO447112  43.254  25.235   5.360
 3466POPC   GL147113  43.123  25.221   5.805
 3466POPC   GL247114  43.023  25.553   5.901
 3466POPC   C1A47115  43.009  24.996   6.204
 3466POPC   D2A47116  42.749  25.036   6.580
 3466POPC   C3A47117  42.838  25.295   6.954
 3466POPC   C4A47118  43.152  25.247   7.262
 3466POPC   C1B47119  43.298  25.414   6.267
 3466POPC   C2B47120  43.306  25.398   6.731
 3466POPC   C3B47121  43.538  25.545   7.084
 3466POPC   C4B47122  43.458  25.631   7.504
 3467POPC   NC347123   8.437  13.800   5.350
 3467POPC   PO447124   8.035  13.319   5.401
 3467POPC   GL147125   8.218  13.540   5.735
 3467POPC   GL247126   8.594  13.451   5.704
 3467POPC   C1A47127   8.097  13.854   6.062
 3467POPC   D2A47128   8.266  13.922   6.482
 3467POPC   C3A47129   8.019  13.864   6.859
 3467POPC   C4A47130   8.188  13.818   7.298
 3467POPC   C1B47131   8.559  13.633   6.107
 3467POPC   C2B47132   8.612  13.534   6.494
 3467POPC   C3B47133   8.447  13.581   6.885
 3467POPC   C4B47134   8.503  13.429   7.283
 3468POPC   NC347135   0.478  29.043   5.390
 3468POPC   PO447136  44.824  29.261   5.459
 3468POPC   GL147137   0.206  29.263   5.777
 3468POPC   GL247138   0.471  29.468   5.686
 3468POPC   C1A47139   0.481  28.967   6.063
 3468POPC   D2A47140   0.373  28.765   6.461
 3468POPC   C3A47141   0.434  28.992   6.857
 3468POPC   C4A47142   0.464  28.972   7.299
 3468POPC   C1B47143   0.521  29.469   6.131
 3468POPC   C2B47144   0.472  29.384   6.526
 3468POPC   C3B47145   0.611  29.509   6.922
 3468POPC   C4B47146   0.818  29.370   7.273
 3469POPC   NC347147  30.218  29.442   5.546
 3469POPC   PO447148  29.520  29.434   5.368
 3469POPC   GL147149  29.758  29.451   5.769
 3469POPC   GL247150  29.953  29.114   5.844
 3469POPC   C1A47151  29.917  29.452   6.210
 3469POPC   D2A47152  29.800  29.480   6.631
 3469POPC   C3A47153  30.027  29.291   6.982
 3469POPC   C4A47154  29.906  29.404   7.412
 3469POPC   C1B47155  30.207  28.971   6.219
 3469POPC   C2B47156  30.167  28.805   6.650
 3469POPC   C3B47157  30.329  28.739   7.052
 3469POPC   C4B47158  30.232  29.010   7.385
 3470POPC   NC347159   7.254  18.308   4.999
 3470POPC   PO447160   7.654  18.065   5.492
 3470POPC   GL147161   7.605  18.211   5.875
 3470POPC   GL247162   7.771  18.514   5.847
 3470POPC   C1A47163   7.361  18.174   6.235
 3470POPC   D2A47164   7.315  17.977   6.621
 3470POPC   C3A47165   7.200  18.281   6.916
 3470POPC   C4A47166   7.427  18.119   7.232
 3470POPC   C1B47167   7.682  18.609   6.264
 3470POPC   C2B47168   7.637  18.378   6.641
 3470POPC   C3B47169   7.645  18.541   7.068
 3470POPC   C4B47170   7.670  18.486   7.532
 3471POPC   NC347171  42.694   0.013   5.548
 3471POPC   PO447172  42.653   0.670   5.518
 3471POPC   GL147173  42.388   0.660   5.852
 3471POPC   GL247174  42.280   0.317   5.874
 3471POPC   C1A47175  42.463   0.610   6.283
 3471POPC   D2A47176  42.315   0.789   6.639
 3471POPC   C3A47177  42.520   0.672   6.982
 3471POPC   C4A47178  42.198   0.770   7.218
 3471POPC   C1B47179  42.459   0.105   6.255
 3471POPC   C2B47180  42.392   0.233   6.698
 3471POPC   C3B47181  42.595   0.074   7.079
 3471POPC   C4B47182  42.727  44.779   7.385
 3472POPC   NC347183  34.830   7.717   5.269
 3472POPC   PO447184  34.402   7.209   5.518
 3472POPC   GL147185  34.644   7.400   5.799
 3472POPC   GL247186  34.637   7.727   5.770
 3472POPC   C1A47187  34.547   7.441   6.242
 3472POPC   D2A47188  34.544   7.297   6.660
 3472POPC   C3A47189  34.752   7.488   6.970
 3472POPC   C4A47190  34.622   7.554   7.325
 3472POPC   C1B47191  34.962   7.683   6.085
 3472POPC   C2B47192  34.903   7.707   6.539
 3472POPC   C3B47193  34.573   7.926   6.802
 3472POPC   C4B47194  34.257   7.932   7.143
 3473POPC   NC347195  25.438  28.618   5.341
 3473POPC   PO447196  25.027  29.200   5.345
 3473POPC   GL147197  25.186  29.347   5.764
 3473POPC   GL247198  25.397  29.638   5.763
 3473POPC   C1A47199  25.389  29.296   6.206
 3473POPC   D2A47200  25.626  29.109   6.577
 3473POPC   C3A47201  25.304  28.938   6.878
 3473POPC   C4A47202  25.113  29.120   7.266
 3473POPC   C1B47203  25.499  29.797   6.177
 3473POPC   C2B47204  25.339  29.721   6.560
 3473POPC   C3B47205  25.348  29.446   6.893
 3473POPC   C4B47206  25.492  29.491   7.307
 3474POPC   NC347207  26.818  26.683   5.532
 3474POPC   PO447208  27.004  25.954   5.477
 3474POPC   GL147209  26.987  26.188   5.819
 3474POPC   GL247210  26.642  26.270   5.784
 3474POPC   C1A47211  26.807  26.071   6.221
 3474POPC   D2A47212  26.832  25.804   6.616
 3474POPC   C3A47213  26.969  25.937   7.026
 3474POPC   C4A47214  26.981  25.766   7.432
 3474POPC   C1B47215  26.692  26.574   6.161
 3474POPC   C2B47216  26.551  26.663   6.604
 3474POPC   C3B47217  26.666  26.430   7.019
 3474POPC   C4B47218  26.876  26.271   7.395
 3475POPC   NC347219  34.541  35.530   5.324
 3475POPC   PO447220  34.310  34.871   5.525
 3475POPC   GL147221  34.471  35.101   5.875
 3475POPC   GL247222  34.775  35.305   5.794
 3475POPC   C1A47223  34.689  35.107   6.272
 3475POPC   D2A47224  34.617  34.957   6.679
 3475POPC   C3A47225  34.541  35.293   7.006
 3475POPC   C4A47226  34.793  35.364   7.404
 3475POPC   C1B47227  34.864  35.585   6.181
 3475POPC   C2B47228  34.655  35.642   6.605
 3475POPC   C3B47229  34.848  35.724   7.028
 3475POPC   C4B47230  34.686  35.856   7.452
 3476POPC   NC347231  43.541  26.082   5.194
 3476POPC   PO447232  42.856  25.820   5.454
 3476POPC   GL147233  42.959  26.099   5.852
 3476POPC   GL247234  43.333  26.243   5.879
 3476POPC   C1A47235  43.014  26.389   6.215
 3476POPC   D2A47236  43.152  26.321   6.598
 3476POPC   C3A47237  42.936  26.078   6.878
 3476POPC   C4A47238  43.008  26.342   7.204
 3476POPC   C1B47239  43.241  25.928   6.256
 3476POPC   C2B47240  43.426  25.898   6.700
 3476POPC   C3B47241  43.387  26.014   7.171
 3476POPC   C4B47242  43.607  26.144   7.570
 3477POPC   NC347243  17.451  28.246   5.382
 3477POPC   PO447244  17.841  28.769   5.500
 3477POPC   GL147245  17.596  28.535   5.776
 3477POPC   GL247246  17.234  28.521   5.871
 3477POPC   C1A47247  17.633  28.348   6.151
 3477POPC   D2A47248  17.517  28.485   6.546
 3477POPC   C3A47249  17.664  28.269   6.892
 3477POPC   C4A47250  17.730  28.154   7.314
 3477POPC   C1B47251  17.142  28.188   6.171
 3477POPC   C2B47252  17.160  28.095   6.600
 3477POPC   C3B47253  17.167  28.382   6.923
 3477POPC   C4B47254  17.433  28.571   7.271
 3478POPC   NC347255  36.551  18.780   5.505
 3478POPC   PO447256  36.240  18.149   5.383
 3478POPC   GL147257  36.151  18.360   5.789
 3478POPC   GL247258  36.417  18.515   5.933
 3478POPC   C1A47259  35.975  18.422   6.221
 3478POPC   D2A47260  35.940  18.067   6.528
 3478POPC   C3A47261  35.838  18.111   6.979
 3478POPC   C4A47262  35.936  18.345   7.432
 3478POPC   C1B47263  36.467  18.369   6.351
 3478POPC   C2B47264  36.246  18.477   6.709
 3478POPC   C3B47265  36.296  18.307   7.086
 3478POPC   C4B47266  36.630  18.104   7.243
 3479POPC   NC347267  22.372  44.351   5.555
 3479POPC   PO447268  21.905  43.810   5.299
 3479POPC   GL147269  22.121  43.895   5.665
 3479POPC   GL247270  22.468  43.779   5.705
 3479POPC   C1A47271  21.993  43.995   6.068
 3479POPC   D2A47272  22.226  44.088   6.426
 3479POPC   C3A47273  22.170  44.004   6.852
 3479POPC   C4A47274  21.953  44.265   7.110
 3479POPC   C1B47275  22.367  43.639   6.117
 3479POPC   C2B47276  22.533  43.647   6.522
 3479POPC   C3B47277  22.675  43.449   6.886
 3479POPC   C4B47278  22.482  43.736   7.144
 3480POPC   NC347279   0.160   0.188   5.483
 3480POPC   PO447280   0.274   0.871   5.338
 3480POPC   GL147281   0.381   0.627   5.785
 3480POPC   GL247282   0.348   0.239   5.952
 3480POPC   C1A47283   0.404   0.623   6.274
 3480POPC   D2A47284   0.195   0.513   6.684
 3480POPC   C3A47285   0.451   0.399   7.032
 3480POPC   C4A47286   0.820   0.582   7.170
 3480POPC   C1B47287   0.693   0.121   6.263
 3480POPC   C2B47288   0.874   0.259   6.694
 3480POPC   C3B47289   0.889   0.067   7.125
 3480POPC   C4B47290   0.534   0.001   7.420
 3481POPC   NC347291   8.993   9.008   5.391
 3481POPC   PO447292   8.973   9.670   5.417
 3481POPC   GL147293   9.028   9.814   5.820
 3481POPC   GL247294   8.715   9.982   5.862
 3481POPC   C1A47295   8.800   9.577   6.150
 3481POPC   D2A47296   8.746   9.326   6.493
 3481POPC   C3A47297   8.682   9.525   6.895
 3481POPC   C4A47298   8.879   9.489   7.298
 3481POPC   C1B47299   8.876  10.073   6.261
 3481POPC   C2B47300   9.008   9.790   6.593
 3481POPC   C3B47301   8.932   9.967   6.994
 3481POPC   C4B47302   8.885  10.045   7.433
 3482POPC   NC347303   9.735  16.444   5.389
 3482POPC   PO447304   9.886  17.077   5.482
 3482POPC   GL147305   9.978  16.860   5.846
 3482POPC   GL247306   9.941  16.491   5.881
 3482POPC   C1A47307   9.877  16.893   6.262
 3482POPC   D2A47308   9.734  16.733   6.629
 3482POPC   C3A47309   9.904  16.948   6.977
 3482POPC   C4A47310  10.073  16.908   7.380
 3482POPC   C1B47311   9.525  16.517   6.119
 3482POPC   C2B47312   9.308  16.447   6.532
 3482POPC   C3B47313   9.403  16.559   6.966
 3482POPC   C4B47314   9.754  16.534   7.269
 3483POPC   NC347315   6.718  12.483   5.509
 3483POPC   PO447316   6.600  11.846   5.426
 3483POPC   GL147317   6.583  12.081   5.831
 3483POPC   GL247318   6.322  12.355   5.820
 3483POPC   C1A47319   6.711  11.991   6.270
 3483POPC   D2A47320   6.828  11.899   6.678
 3483POPC   C3A47321   6.621  12.076   7.017
 3483POPC   C4A47322   6.852  11.923   7.405
 3483POPC   C1B47323   6.514  12.450   6.193
 3483POPC   C2B47324   6.578  12.402   6.609
 3483POPC   C3B47325   6.227  12.475   6.864
 3483POPC   C4B47326   6.033  12.352   7.232
 3484POPC   NC347327  28.536   1.548   5.611
 3484POPC   PO447328  28.279   0.939   5.450
 3484POPC   GL147329  28.252   0.900   5.897
 3484POPC   GL247330  28.509   1.119   5.901
 3484POPC   C1A47331  28.252   1.042   6.378
 3484POPC   D2A47332  28.277   1.443   6.661
 3484POPC   C3A47333  28.427   1.491   7.105
 3484POPC   C4A47334  28.235   1.297   7.480
 3484POPC   C1B47335  28.723   0.890   6.196
 3484POPC   C2B47336  28.739   1.064   6.585
 3484POPC   C3B47337  28.466   1.023   6.904
 3484POPC   C4B47338  28.483   0.768   7.236
 3485POPC   NC347339   8.576   4.262   5.470
 3485POPC   PO447340   9.273   4.147   5.501
 3485POPC   GL147341   8.967   4.095   5.818
 3485POPC   GL247342   8.848   4.428   5.894
 3485POPC   C1A47343   8.889   4.079   6.280
 3485POPC   D2A47344   8.704   4.156   6.675
 3485POPC   C3A47345   8.951   4.230   7.037
 3485POPC   C4A47346   8.991   4.098   7.419
 3485POPC   C1B47347   8.977   4.653   6.259
 3485POPC   C2B47348   9.024   4.597   6.689
 3485POPC   C3B47349   9.013   4.761   7.110
 3485POPC   C4B47350   9.118   4.599   7.515
 3486POPC   NC347351  14.176   9.943   5.208
 3486POPC   PO447352  14.604   9.464   5.316
 3486POPC   GL147353  14.419   9.656   5.702
 3486POPC   GL247354  14.195   9.958   5.725
 3486POPC   C1A47355  14.388   9.699   6.163
 3486POPC   D2A47356  14.153   9.553   6.532
 3486POPC   C3A47357  14.336   9.541   6.937
 3486POPC   C4A47358  14.440   9.444   7.336
 3486POPC   C1B47359  14.123  10.152   6.148
 3486POPC   C2B47360  14.336  10.054   6.537
 3486POPC   C3B47361  14.410  10.087   6.962
 3486POPC   C4B47362  14.072  10.322   7.158
 3487POPC   NC347363  43.671   5.304   5.274
 3487POPC   PO447364  44.072   4.783   5.427
 3487POPC   GL147365  43.896   5.120   5.702
 3487POPC   GL247366  43.594   4.974   5.690
 3487POPC   C1A47367  43.882   5.257   6.138
 3487POPC   D2A47368  44.119   5.127   6.520
 3487POPC   C3A47369  44.004   5.293   6.934
 3487POPC   C4A47370  43.948   5.093   7.333
 3487POPC   C1B47371  43.741   4.678   5.997
 3487POPC   C2B47372  43.848   4.642   6.438
 3487POPC   C3B47373  43.837   4.827   6.847
 3487POPC   C4B47374  43.611   4.727   7.192
 3488POPC   NC347375   7.665  28.955   5.403
 3488POPC   PO447376   7.452  29.452   5.486
 3488POPC   GL147377   7.380  29.127   5.828
 3488POPC   GL247378   7.425  29.374   6.043
 3488POPC   C1A47379   7.347  28.983   6.319
 3488POPC   D2A47380   7.508  29.201   6.713
 3488POPC   C3A47381   7.382  29.034   7.152
 3488POPC   C4A47382   7.146  29.038   7.552
 3488POPC   C1B47383   7.718  29.562   6.356
 3488POPC   C2B47384   7.796  29.702   6.792
 3488POPC   C3B47385   7.570  29.510   7.140
 3488POPC   C4B47386   7.220  29.551   7.471
 3489POPC   NC347387   5.710   4.945   5.429
 3489POPC   PO447388   6.011   5.528   5.221
 3489POPC   GL147389   5.992   5.290   5.654
 3489POPC   GL247390   5.669   5.206   5.861
 3489POPC   C1A47391   6.121   5.104   6.073
 3489POPC   D2A47392   6.203   4.946   6.480
 3489POPC   C3A47393   6.077   5.167   6.857
 3489POPC   C4A47394   6.322   5.209   7.233
 3489POPC   C1B47395   5.678   4.944   6.263
 3489POPC   C2B47396   5.466   5.013   6.652
 3489POPC   C3B47397   5.582   4.867   7.051
 3489POPC   C4B47398   5.974   4.811   7.238
 3490POPC   NC347399  38.313  21.782   5.469
 3490POPC   PO447400  38.825  21.300   5.453
 3490POPC   GL147401  38.603  21.509   5.801
 3490POPC   GL247402  38.222  21.522   5.880
 3490POPC   C1A47403  38.569  21.569   6.229
 3490POPC   D2A47404  38.508  21.297   6.591
 3490POPC   C3A47405  38.556  21.472   7.020
 3490POPC   C4A47406  38.390  21.807   7.254
 3490POPC   C1B47407  38.094  21.361   6.275
 3490POPC   C2B47408  37.925  21.083   6.597
 3490POPC   C3B47409  37.981  21.194   7.025
 3490POPC   C4B47410  38.242  21.298   7.365
 3491POPC   NC347411   6.248  42.489   5.248
 3491POPC   PO447412   6.860  42.298   5.291
 3491POPC   GL147413   6.754  42.264   5.710
 3491POPC   GL247414   7.003  42.508   5.802
 3491POPC   C1A47415   6.590  42.455   6.096
 3491POPC   D2A47416   6.557  42.265   6.481
 3491POPC   C3A47417   6.574  42.474   6.868
 3491POPC   C4A47418   6.554  42.303   7.273
 3491POPC   C1B47419   7.012  42.184   6.166
 3491POPC   C2B47420   7.060  42.056   6.606
 3491POPC   C3B47421   7.017  42.226   7.027
 3491POPC   C4B47422   7.050  42.474   7.388
 3492POPC   NC347423  26.967  34.780   5.324
 3492POPC   PO447424  26.766  34.177   5.510
 3492POPC   GL147425  26.736  34.550   5.764
 3492POPC   GL247426  26.982  34.498   5.963
 3492POPC   C1A47427  26.584  34.620   6.222
 3492POPC   D2A47428  26.931  34.593   6.519
 3492POPC   C3A47429  26.886  34.504   6.965
 3492POPC   C4A47430  26.578  34.675   7.230
 3492POPC   C1B47431  27.247  34.259   6.297
 3492POPC   C2B47432  27.356  34.389   6.742
 3492POPC   C3B47433  27.261  34.225   7.184
 3492POPC   C4B47434  27.261  34.071   7.635
 3493POPC   NC347435  15.520   5.447   5.457
 3493POPC   PO447436  15.440   4.728   5.508
 3493POPC   GL147437  15.086   4.887   5.762
 3493POPC   GL247438  15.104   5.240   5.820
 3493POPC   C1A47439  14.787   4.896   6.129
 3493POPC   D2A47440  14.829   4.841   6.603
 3493POPC   C3A47441  15.066   5.165   6.859
 3493POPC   C4A47442  15.272   5.211   7.279
 3493POPC   C1B47443  15.245   5.170   6.239
 3493POPC   C2B47444  15.487   5.281   6.576
 3493POPC   C3B47445  15.504   5.506   6.923
 3493POPC   C4B47446  15.715   5.519   7.296
 3494POPC   NC347447   8.879  39.589   5.433
 3494POPC   PO447448   8.934  38.929   5.565
 3494POPC   GL147449   9.057  39.238   5.843
 3494POPC   GL247450   9.339  39.473   5.780
 3494POPC   C1A47451   8.761  39.279   6.177
 3494POPC   D2A47452   8.655  38.943   6.451
 3494POPC   C3A47453   8.804  38.966   6.832
 3494POPC   C4A47454   8.786  39.025   7.251
 3494POPC   C1B47455   9.198  39.552   6.217
 3494POPC   C2B47456   9.062  39.328   6.586
 3494POPC   C3B47457   9.199  39.244   7.012
 3494POPC   C4B47458   9.279  39.553   7.325
 3495POPC   NC347459   2.585   3.890   5.452
 3495POPC   PO447460   3.006   3.317   5.474
 3495POPC   GL147461   2.853   3.228   5.837
 3495POPC   GL247462   2.576   3.483   5.841
 3495POPC   C1A47463   3.002   3.277   6.254
 3495POPC   D2A47464   2.764   3.423   6.599
 3495POPC   C3A47465   2.899   3.497   7.006
 3495POPC   C4A47466   3.134   3.350   7.364
 3495POPC   C1B47467   2.795   3.740   6.168
 3495POPC   C2B47468   2.662   3.937   6.557
 3495POPC   C3B47469   2.518   3.874   7.008
 3495POPC   C4B47470   2.760   3.785   7.422
 3496POPC   NC347471  43.295  24.813   5.558
 3496POPC   PO447472  43.220  24.175   5.251
 3496POPC   GL147473  43.069  24.359   5.663
 3496POPC   GL247474  43.392  24.359   5.822
 3496POPC   C1A47475  42.948  24.462   6.126
 3496POPC   D2A47476  43.148  24.504   6.557
 3496POPC   C3A47477  42.936  24.454   6.955
 3496POPC   C4A47478  42.937  24.181   7.294
 3496POPC   C1B47479  43.424  24.686   6.168
 3496POPC   C2B47480  43.440  24.965   6.495
 3496POPC   C3B47481  43.181  24.916   6.854
 3496POPC   C4B47482  43.287  24.754   7.228
 3497POPC   NC347483  10.235  41.339   5.497
 3497POPC   PO447484  10.806  41.244   5.753
 3497POPC   GL147485  10.643  41.638   5.856
 3497POPC   GL247486  10.297  41.593   5.954
 3497POPC   C1A47487  10.588  41.902   6.228
 3497POPC   D2A47488  10.244  41.966   6.522
 3497POPC   C3A47489  10.345  41.746   6.887
 3497POPC   C4A47490  10.627  41.964   7.128
 3497POPC   C1B47491  10.366  41.477   6.410
 3497POPC   C2B47492  10.296  41.241   6.797
 3497POPC   C3B47493  10.476  41.131   7.206
 3497POPC   C4B47494  10.323  40.928   7.574
 3498POPC   NC347495  39.082  31.095   5.400
 3498POPC   PO447496  39.402  31.722   5.327
 3498POPC   GL147497  39.147  31.513   5.695
 3498POPC   GL247498  39.162  31.129   5.886
 3498POPC   C1A47499  39.029  31.546   6.144
 3498POPC   D2A47500  39.173  31.280   6.477
 3498POPC   C3A47501  39.029  31.358   6.910
 3498POPC   C4A47502  39.121  31.447   7.344
 3498POPC   C1B47503  39.538  31.014   6.123
 3498POPC   C2B47504  39.674  31.230   6.508
 3498POPC   C3B47505  39.561  31.427   6.925
 3498POPC   C4B47506  39.631  31.391   7.388
 3499POPC   NC347507   8.771   7.942   5.428
 3499POPC   PO447508   9.050   8.518   5.486
 3499POPC   GL147509   9.107   8.165   5.779
 3499POPC   GL247510   8.770   8.125   5.915
 3499POPC   C1A47511   9.143   7.972   6.217
 3499POPC   D2A47512   8.937   8.123   6.589
 3499POPC   C3A47513   9.063   7.971   6.995
 3499POPC   C4A47514   8.904   7.941   7.405
 3499POPC   C1B47515   8.961   8.469   6.187
 3499POPC   C2B47516   9.018   8.704   6.567
 3499POPC   C3B47517   9.144   8.536   6.943
 3499POPC   C4B47518   9.017   8.440   7.339
 3500POPC   NC347519  26.401   6.448   5.278
 3500POPC   PO447520  25.761   6.575   5.225
 3500POPC   GL147521  25.698   6.812   5.697
 3500POPC   GL247522  26.049   6.772   5.873
 3500POPC   C1A47523  25.706   6.766   6.216
 3500POPC   D2A47524  26.077   6.676   6.516
 3500POPC   C3A47525  26.022   6.510   6.936
 3500POPC   C4A47526  26.077   6.309   7.337
 3500POPC   C1B47527  26.360   6.969   6.171
 3500POPC   C2B47528  26.526   7.092   6.593
 3500POPC   C3B47529  26.429   6.856   6.984
 3500POPC   C4B47530  26.126   6.827   7.342
 3501POPC   NC347531  20.206  41.718   5.236
 3501POPC   PO447532  20.700  41.341   5.296
 3501POPC   GL147533  20.804  41.242   5.780
 3501POPC   GL247534  20.519  41.415   5.952
 3501POPC   C1A47535  20.874  41.248   6.265
 3501POPC   D2A47536  20.829  41.627   6.544
 3501POPC   C3A47537  20.824  41.608   6.994
 3501POPC   C4A47538  20.676  41.223   7.114
 3501POPC   C1B47539  20.347  41.443   6.390
 3501POPC   C2B47540  20.323  41.471   6.837
 3501POPC   C3B47541  20.219  41.587   7.259
 3501POPC   C4B47542  20.135  41.561   7.725
 3502POPC   NC347543  31.175   6.297   5.439
 3502POPC   PO447544  31.466   6.875   5.525
 3502POPC   GL147545  31.232   6.685   5.824
 3502POPC   GL247546  31.003   6.979   5.860
 3502POPC   C1A47547  31.411   6.449   6.182
 3502POPC   D2A47548  31.528   6.416   6.661
 3502POPC   C3A47549  31.714   6.750   6.919
 3502POPC   C4A47550  31.781   6.701   7.353
 3502POPC   C1B47551  31.081   6.872   6.304
 3502POPC   C2B47552  31.250   6.871   6.713
 3502POPC   C3B47553  31.254   6.801   7.181
 3502POPC   C4B47554  31.042   6.887   7.611
 3503POPC   NC347555  38.957  15.293   5.193
 3503POPC   PO447556  39.083  14.729   5.541
 3503POPC   GL147557  39.169  15.140   5.706
 3503POPC   GL247558  39.504  15.288   5.749
 3503POPC   C1A47559  39.125  15.224   6.146
 3503POPC   D2A47560  39.036  15.345   6.571
 3503POPC   C3A47561  39.187  15.101   6.921
 3503POPC   C4A47562  38.877  15.069   7.263
 3503POPC   C1B47563  39.601  15.007   6.133
 3503POPC   C2B47564  39.391  14.839   6.492
 3503POPC   C3B47565  39.614  14.805   6.875
 3503POPC   C4B47566  39.664  15.067   7.205
 3504POPC   NC347567  41.338   0.581   5.540
 3504POPC   PO447568  41.833   0.110   5.400
 3504POPC   GL147569  41.756   0.339   5.792
 3504POPC   GL247570  41.880   0.654   5.649
 3504POPC   C1A47571  41.494   0.515   6.160
 3504POPC   D2A47572  41.191   0.387   6.468
 3504POPC   C3A47573  41.370   0.496   6.857
 3504POPC   C4A47574  41.235   0.358   7.262
 3504POPC   C1B47575  41.936   0.770   6.067
 3504POPC   C2B47576  41.969   0.478   6.404
 3504POPC   C3B47577  41.895   0.516   6.836
 3504POPC   C4B47578  41.706   0.501   7.261
 3505POPC   NC347579  27.382  43.107   5.374
 3505POPC   PO447580  28.040  42.831   5.387
 3505POPC   GL147581  27.811  43.036   5.722
 3505POPC   GL247582  27.486  42.955   5.846
 3505POPC   C1A47583  27.942  42.938   6.167
 3505POPC   D2A47584  27.859  43.092   6.603
 3505POPC   C3A47585  27.855  42.987   7.058
 3505POPC   C4A47586  27.674  43.337   7.272
 3505POPC   C1B47587  27.489  43.161   6.247
 3505POPC   C2B47588  27.295  43.021   6.618
 3505POPC   C3B47589  27.184  42.844   6.987
 3505POPC   C4B47590  27.318  42.998   7.358
 3506POPC   NC347591  14.597  37.312   5.444
 3506POPC   PO447592  14.192  36.783   5.228
 3506POPC   GL147593  14.330  36.905   5.620
 3506POPC   GL247594  14.113  37.196   5.659
 3506POPC   C1A47595  14.260  36.806   6.074
 3506POPC   D2A47596  14.329  36.710   6.514
 3506POPC   C3A47597  14.465  36.979   6.858
 3506POPC   C4A47598  14.581  36.918   7.281
 3506POPC   C1B47599  13.986  37.235   6.079
 3506POPC   C2B47600  13.910  37.062   6.490
 3506POPC   C3B47601  13.998  37.204   6.903
 3506POPC   C4B47602  14.092  37.018   7.263
 3507POPC   NC347603  18.472  37.759   5.410
 3507POPC   PO447604  19.030  37.390   5.406
 3507POPC   GL147605  19.285  37.462   5.792
 3507POPC   GL247606  19.173  37.756   5.970
 3507POPC   C1A47607  19.330  37.324   6.236
 3507POPC   D2A47608  19.267  37.341   6.690
 3507POPC   C3A47609  19.210  37.697   6.963
 3507POPC   C4A47610  19.274  37.846   7.391
 3507POPC   C1B47611  19.007  37.682   6.403
 3507POPC   C2B47612  18.724  37.514   6.712
 3507POPC   C3B47613  18.697  37.651   7.129
 3507POPC   C4B47614  18.474  37.659   7.515
 3508POPC   NC347615  11.518  12.201   5.446
 3508POPC   PO447616  12.170  12.040   5.109
 3508POPC   GL147617  12.139  12.104   5.602
 3508POPC   GL247618  12.267  12.410   5.784
 3508POPC   C1A47619  11.912  12.074   6.024
 3508POPC   D2A47620  11.753  12.004   6.464
 3508POPC   C3A47621  11.922  12.172   6.872
 3508POPC   C4A47622  11.849  12.112   7.305
 3508POPC   C1B47623  12.369  12.230   6.186
 3508POPC   C2B47624  12.264  11.964   6.508
 3508POPC   C3B47625  12.441  12.128   6.848
 3508POPC   C4B47626  12.339  12.138   7.236
 3509POPC   NC347627  18.870  10.180   5.485
 3509POPC   PO447628  19.275   9.594   5.406
 3509POPC   GL147629  19.144   9.811   5.727
 3509POPC   GL247630  18.778   9.718   5.661
 3509POPC   C1A47631  19.305   9.904   6.131
 3509POPC   D2A47632  19.146   9.730   6.501
 3509POPC   C3A47633  19.321   9.753   6.868
 3509POPC   C4A47634  19.179   9.973   7.224
 3509POPC   C1B47635  18.808   9.642   6.104
 3509POPC   C2B47636  18.785   9.366   6.464
 3509POPC   C3B47637  18.831   9.507   6.903
 3509POPC   C4B47638  18.700   9.492   7.340
 3510POPC   NC347639  29.727  44.468   5.240
 3510POPC   PO447640  29.889   0.150   5.367
 3510POPC   GL147641  29.952  44.844   5.756
 3510POPC   GL247642  29.968  44.518   5.701
 3510POPC   C1A47643  29.831  44.616   6.180
 3510POPC   D2A47644  29.979  44.786   6.575
 3510POPC   C3A47645  29.867  44.761   7.001
 3510POPC   C4A47646  30.218  44.721   7.275
 3510POPC   C1B47647  30.187  44.246   6.009
 3510POPC   C2B47648  30.158  44.184   6.451
 3510POPC   C3B47649  30.176  44.388   6.857
 3510POPC   C4B47650  30.041  44.251   7.279
 3511POPC   NC347651  34.492  27.819   5.494
 3511POPC   PO447652  34.783  27.118   5.496
 3511POPC   GL147653  34.635  27.437   5.783
 3511POPC   GL247654  34.858  27.764   5.822
 3511POPC   C1A47655  34.458  27.577   6.160
 3511POPC   D2A47656  34.671  27.712   6.508
 3511POPC   C3A47657  34.515  27.723   6.880
 3511POPC   C4A47658  34.491  27.491   7.226
 3511POPC   C1B47659  34.829  28.055   6.156
 3511POPC   C2B47660  34.635  28.213   6.543
 3511POPC   C3B47661  34.861  28.143   6.881
 3511POPC   C4B47662  34.920  27.808   7.166
 3512POPC   NC347663  31.940   0.298   5.678
 3512POPC   PO447664  31.987  44.671   5.585
 3512POPC   GL147665  32.250  44.644   5.965
 3512POPC   GL247666  32.609  44.697   5.865
 3512POPC   C1A47667  32.183  44.567   6.410
 3512POPC   D2A47668  32.102  44.238   6.715
 3512POPC   C3A47669  32.260  44.463   7.049
 3512POPC   C4A47670  32.436  44.897   7.110
 3512POPC   C1B47671  32.732  44.603   6.312
 3512POPC   C2B47672  32.681  44.516   6.757
 3512POPC   C3B47673  32.750  44.523   7.223
 3512POPC   C4B47674  32.651  44.880   7.589
 3513POPC   NC347675   6.535  28.446   5.101
 3513POPC   PO447676   6.295  28.478   5.481
 3513POPC   GL147677   6.520  28.414   5.846
 3513POPC   GL247678   6.615  28.088   5.841
 3513POPC   C1A47679   6.610  28.458   6.280
 3513POPC   D2A47680   6.587  28.223   6.660
 3513POPC   C3A47681   6.620  28.395   7.067
 3513POPC   C4A47682   6.816  28.232   7.445
 3513POPC   C1B47683   6.386  27.982   6.243
 3513POPC   C2B47684   6.267  27.825   6.665
 3513POPC   C3B47685   6.390  27.935   7.111
 3513POPC   C4B47686   6.411  27.940   7.594
 3514POPC   NC347687   0.195   6.474   5.396
 3514POPC   PO447688   0.502   7.083   5.317
 3514POPC   GL147689   0.486   6.757   5.717
 3514POPC   GL247690   0.713   6.484   5.666
 3514POPC   C1A47691   0.656   6.852   6.159
 3514POPC   D2A47692   0.408   6.642   6.499
 3514POPC   C3A47693   0.424   6.795   6.917
 3514POPC   C4A47694   0.573   7.150   7.138
 3514POPC   C1B47695   0.641   6.350   6.111
 3514POPC   C2B47696   0.705   6.248   6.573
 3514POPC   C3B47697   0.634   6.359   7.016
 3514POPC   C4B47698   0.529   6.589   7.382
 3515POPC   NC347699  34.778  32.288   5.372
 3515POPC   PO447700  34.598  31.746   5.692
 3515POPC   GL147701  34.667  32.203   5.859
 3515POPC   GL247702  34.409  32.457   5.696
 3515POPC   C1A47703  34.846  32.273   6.284
 3515POPC   D2A47704  34.831  31.981   6.650
 3515POPC   C3A47705  34.844  32.130   7.061
 3515POPC   C4A47706  34.489  32.172   7.328
 3515POPC   C1B47707  34.286  32.428   6.143
 3515POPC   C2B47708  34.425  32.379   6.586
 3515POPC   C3B47709  34.234  32.457   6.980
 3515POPC   C4B47710  34.152  32.530   7.459
 3516POPC   NC347711  36.681   7.232   5.397
 3516POPC   PO447712  36.127   7.250   5.590
 3516POPC   GL147713  36.093   7.497   5.906
 3516POPC   GL247714  36.441   7.618   5.817
 3516POPC   C1A47715  35.894   7.303   6.237
 3516POPC   D2A47716  35.960   7.061   6.577
 3516POPC   C3A47717  35.867   7.196   6.961
 3516POPC   C4A47718  35.917   7.495   7.246
 3516POPC   C1B47719  36.522   7.310   6.112
 3516POPC   C2B47720  36.328   7.502   6.445
 3516POPC   C3B47721  36.295   7.471   6.891
 3516POPC   C4B47722  36.429   7.301   7.294
 3517POPC   NC347723  18.811  22.351   5.311
 3517POPC   PO447724  19.280  22.693   5.505
 3517POPC   GL147725  18.955  22.504   5.782
 3517POPC   GL247726  19.094  22.168   5.769
 3517POPC   C1A47727  18.835  22.426   6.235
 3517POPC   D2A47728  18.995  22.429   6.685
 3517POPC   C3A47729  18.878  22.269   7.097
 3517POPC   C4A47730  18.958  22.431   7.506
 3517POPC   C1B47731  19.351  22.396   6.128
 3517POPC   C2B47732  19.455  22.609   6.557
 3517POPC   C3B47733  19.396  22.445   7.022
 3517POPC   C4B47734  19.488  22.446   7.479
 3518POPC   NC347735  29.908   9.061   5.410
 3518POPC   PO447736  30.370   8.631   5.256
 3518POPC   GL147737  30.261   8.818   5.695
 3518POPC   GL247738  30.189   9.162   5.827
 3518POPC   C1A47739  29.984   8.842   6.108
 3518POPC   D2A47740  30.086   9.159   6.410
 3518POPC   C3A47741  30.000   9.229   6.836
 3518POPC   C4A47742  30.109   9.053   7.229
 3518POPC   C1B47743  29.810   9.383   6.039
 3518POPC   C2B47744  29.608   9.397   6.461
 3518POPC   C3B47745  29.480   9.209   6.844
 3518POPC   C4B47746  29.648   9.242   7.234
 3519POPC   NC347747  30.594  31.848   5.483
 3519POPC   PO447748  30.834  32.542   5.367
 3519POPC   GL147749  30.840  32.268   5.726
 3519POPC   GL247750  30.475  32.372   5.741
 3519POPC   C1A47751  30.946  32.189   6.182
 3519POPC   D2A47752  31.071  32.339   6.616
 3519POPC   C3A47753  30.958  32.271   7.070
 3519POPC   C4A47754  31.060  32.453   7.504
 3519POPC   C1B47755  30.444  32.094   6.091
 3519POPC   C2B47756  30.580  32.078   6.534
 3519POPC   C3B47757  30.430  32.108   6.926
 3519POPC   C4B47758  30.516  32.354   7.286
 3520POPC   NC347759  10.963  34.439   5.203
 3520POPC   PO447760  11.272  34.940   5.492
 3520POPC   GL147761  11.427  34.563   5.726
 3520POPC   GL247762  11.193  34.281   5.674
 3520POPC   C1A47763  11.538  34.547   6.187
 3520POPC   D2A47764  11.469  34.884   6.506
 3520POPC   C3A47765  11.413  34.762   6.947
 3520POPC   C4A47766  11.280  34.826   7.384
 3520POPC   C1B47767  11.050  34.482   6.075
 3520POPC   C2B47768  11.093  34.513   6.548
 3520POPC   C3B47769  11.238  34.285   6.929
 3520POPC   C4B47770  11.151  34.137   7.347
 3521POPC   NC347771  40.181  30.565   5.448
 3521POPC   PO447772  39.570  30.904   5.311
 3521POPC   GL147773  39.854  30.942   5.642
 3521POPC   GL247774  39.724  30.629   5.773
 3521POPC   C1A47775  40.059  30.856   6.058
 3521POPC   D2A47776  39.912  30.780   6.452
 3521POPC   C3A47777  40.228  30.826   6.728
 3521POPC   C4A47778  40.253  30.790   7.137
 3521POPC   C1B47779  39.603  30.424   6.152
 3521POPC   C2B47780  39.715  30.267   6.552
 3521POPC   C3B47781  39.785  30.551   6.897
 3521POPC   C4B47782  39.764  30.948   7.121
 3522POPC   NC347783  30.168  34.709   5.369
 3522POPC   PO447784  29.516  34.357   5.463
 3522POPC   GL147785  29.764  34.664   5.701
 3522POPC   GL247786  29.559  34.781   5.950
 3522POPC   C1A47787  30.023  34.648   6.082
 3522POPC   D2A47788  30.053  34.395   6.454
 3522POPC   C3A47789  29.922  34.555   6.850
 3522POPC   C4A47790  29.934  34.351   7.259
 3522POPC   C1B47791  29.572  34.540   6.319
 3522POPC   C2B47792  29.401  34.531   6.724
 3522POPC   C3B47793  29.485  34.512   7.133
 3522POPC   C4B47794  29.704  34.848   7.228
 3523POPC   NC347795  34.995  11.313   5.496
 3523POPC   PO447796  35.732  11.059   5.422
 3523POPC   GL147797  35.425  11.156   5.713
 3523POPC   GL247798  35.609  11.472   5.767
 3523POPC   C1A47799  35.263  11.340   6.116
 3523POPC   D2A47800  35.484  11.336   6.491
 3523POPC   C3A47801  35.290  11.265   6.882
 3523POPC   C4A47802  35.133  11.574   7.173
 3523POPC   C1B47803  35.749  11.126   6.095
 3523POPC   C2B47804  35.989  11.151   6.475
 3523POPC   C3B47805  35.808  11.261   6.875
 3523POPC   C4B47806  35.643  11.517   7.217
 3524POPC   NC347807  30.864  29.191   5.463
 3524POPC   PO447808  30.475  29.719   5.283
 3524POPC   GL147809  30.633  29.557   5.792
 3524POPC   GL247810  30.672  29.171   5.930
 3524POPC   C1A47811  30.443  29.458   6.251
 3524POPC   D2A47812  30.574  29.114   6.566
 3524POPC   C3A47813  30.615  29.203   7.025
 3524POPC   C4A47814  30.403  29.477   7.325
 3524POPC   C1B47815  31.013  29.136   6.245
 3524POPC   C2B47816  31.076  28.900   6.629
 3524POPC   C3B47817  30.926  28.775   7.061
 3524POPC   C4B47818  31.029  28.927   7.450
 3525POPC   NC347819   0.712  18.092   5.146
 3525POPC   PO447820   0.408  18.467   5.623
 3525POPC   GL147821   0.325  18.587   5.998
 3525POPC   GL247822   0.067  18.361   6.003
 3525POPC   C1A47823   0.540  18.448   6.328
 3525POPC   D2A47824   0.493  18.288   6.710
 3525POPC   C3A47825   0.433  18.586   6.984
 3525POPC   C4A47826   0.478  18.442   7.370
 3525POPC   C1B47827   0.121  18.136   6.343
 3525POPC   C2B47828   0.091  17.970   6.740
 3525POPC   C3B47829   0.094  18.237   7.083
 3525POPC   C4B47830   0.005  18.620   7.272
 3526POPC   NC347831  21.668  37.232   4.993
 3526POPC   PO447832  21.527  37.719   5.512
 3526POPC   GL147833  21.369  37.530   5.875
 3526POPC   GL247834  21.053  37.445   5.738
 3526POPC   C1A47835  21.418  37.579   6.357
 3526POPC   D2A47836  21.402  37.880   6.724
 3526POPC   C3A47837  21.396  37.766   7.160
 3526POPC   C4A47838  21.522  38.030   7.539
 3526POPC   C1B47839  21.013  37.327   6.156
 3526POPC   C2B47840  21.099  37.213   6.564
 3526POPC   C3B47841  21.037  37.345   6.938
 3526POPC   C4B47842  21.161  37.337   7.328
 3527POPC   NC347843  30.394  27.688   5.452
 3527POPC   PO447844  30.092  27.178   5.519
 3527POPC   GL147845  30.292  27.499   5.917
 3527POPC   GL247846  30.561  27.816   5.922
 3527POPC   C1A47847  30.436  27.661   6.378
 3527POPC   D2A47848  30.607  27.849   6.789
 3527POPC   C3A47849  30.387  27.733   7.197
 3527POPC   C4A47850  30.234  27.564   7.628
 3527POPC   C1B47851  30.900  27.926   6.293
 3527POPC   C2B47852  31.130  27.905   6.734
 3527POPC   C3B47853  31.014  27.673   7.144
 3527POPC   C4B47854  31.143  27.468   7.566
 3528POPC   NC347855  38.642  44.852   5.390
 3528POPC   PO447856  38.994  44.185   5.406
 3528POPC   GL147857  38.742  44.485   5.732
 3528POPC   GL247858  38.757  44.867   5.884
 3528POPC   C1A47859  38.427  44.540   6.073
 3528POPC   D2A47860  38.678  44.590   6.471
 3528POPC   C3A47861  38.622  44.420   6.848
 3528POPC   C4A47862  38.363  44.500   7.183
 3528POPC   C1B47863  38.472  44.996   6.295
 3528POPC   C2B47864  38.262  44.874   6.669
 3528POPC   C3B47865  38.627  44.929   6.905
 3528POPC   C4B47866  38.921  44.750   7.186
 3529POPC   NC347867   5.824   0.232   5.387
 3529POPC   PO447868   6.095   0.854   5.466
 3529POPC   GL147869   5.778   0.616   5.773
 3529POPC   GL247870   5.542   0.278   5.821
 3529POPC   C1A47871   5.964   0.328   6.090
 3529POPC   D2A47872   6.075   0.148   6.478
 3529POPC   C3A47873   6.302   0.363   6.810
 3529POPC   C4A47874   6.145   0.368   7.205
 3529POPC   C1B47875   5.479   0.497   6.258
 3529POPC   C2B47876   5.523   0.526   6.752
 3529POPC   C3B47877   5.617   0.239   7.108
 3529POPC   C4B47878   5.430  44.981   7.442
 3530POPC   NC347879  31.021  10.688   5.480
 3530POPC   PO447880  30.495  10.967   5.188
 3530POPC   GL147881  30.566  10.458   5.595
 3530POPC   GL247882  30.876  10.500   5.906
 3530POPC   C1A47883  30.462  10.417   6.123
 3530POPC   D2A47884  30.714  10.322   6.523
 3530POPC   C3A47885  30.556  10.408   6.951
 3530POPC   C4A47886  30.515  10.802   7.136
 3530POPC   C1B47887  30.861  10.761   6.281
 3530POPC   C2B47888  31.107  10.825   6.600
 3530POPC   C3B47889  31.008  10.685   7.003
 3530POPC   C4B47890  31.090  10.445   7.344
 3531POPC   NC347891  41.132  16.694   5.490
 3531POPC   PO447892  41.713  16.550   5.417
 3531POPC   GL147893  41.561  16.765   5.813
 3531POPC   GL247894  41.254  16.948   5.922
 3531POPC   C1A47895  41.733  17.036   6.137
 3531POPC   D2A47896  41.642  17.153   6.557
 3531POPC   C3A47897  41.763  16.840   6.881
 3531POPC   C4A47898  41.661  16.565   7.252
 3531POPC   C1B47899  41.261  17.293   6.228
 3531POPC   C2B47900  41.054  17.298   6.626
 3531POPC   C3B47901  41.262  17.051   6.898
 3531POPC   C4B47902  41.249  16.879   7.269
 3532POPC   NC347903  29.272  31.401   5.385
 3532POPC   PO447904  29.450  31.936   5.410
 3532POPC   GL147905  29.141  31.738   5.755
 3532POPC   GL247906  29.070  31.344   5.835
 3532POPC   C1A47907  28.956  31.674   6.191
 3532POPC   D2A47908  29.144  31.600   6.593
 3532POPC   C3A47909  28.958  31.597   6.990
 3532POPC   C4A47910  29.191  31.548   7.354
 3532POPC   C1B47911  29.406  31.202   6.104
 3532POPC   C2B47912  29.514  31.145   6.534
 3532POPC   C3B47913  29.290  31.168   6.931
 3532POPC   C4B47914  28.931  31.120   7.179
 3533POPC   NC347915  24.554   2.861   5.279
 3533POPC   PO447916  24.049   2.450   5.539
 3533POPC   GL147917  24.342   2.718   5.733
 3533POPC   GL247918  24.706   2.650   5.716
 3533POPC   C1A47919  24.450   2.730   6.160
 3533POPC   D2A47920  24.468   2.903   6.539
 3533POPC   C3A47921  24.292   2.797   6.896
 3533POPC   C4A47922  24.389   2.932   7.282
 3533POPC   C1B47923  24.860   2.439   6.083
 3533POPC   C2B47924  24.896   2.340   6.514
 3533POPC   C3B47925  24.751   2.533   6.898
 3533POPC   C4B47926  24.475   2.440   7.247
 3534POPC   NC347927  41.947  43.914   5.240
 3534POPC   PO447928  41.433  44.215   5.680
 3534POPC   GL147929  41.830  44.031   5.738
 3534POPC   GL247930  41.823  43.672   5.761
 3534POPC   C1A47931  41.901  44.020   6.167
 3534POPC   D2A47932  41.584  44.099   6.504
 3534POPC   C3A47933  41.618  43.946   6.934
 3534POPC   C4A47934  41.428  44.021   7.297
 3534POPC   C1B47935  41.687  43.557   6.196
 3534POPC   C2B47936  41.893  43.700   6.583
 3534POPC   C3B47937  42.074  43.645   6.995
 3534POPC   C4B47938  41.906  43.782   7.386
 3535POPC   NC347939  21.289   2.359   5.538
 3535POPC   PO447940  21.709   2.802   5.336
 3535POPC   GL147941  21.482   2.783   5.753
 3535POPC   GL247942  21.146   2.944   5.816
 3535POPC   C1A47943  21.373   2.645   6.183
 3535POPC   D2A47944  21.469   2.857   6.570
 3535POPC   C3A47945  21.543   2.627   6.922
 3535POPC   C4A47946  21.286   2.603   7.261
 3535POPC   C1B47947  21.242   3.176   6.225
 3535POPC   C2B47948  21.318   3.346   6.643
 3535POPC   C3B47949  21.271   3.091   7.012
 3535POPC   C4B47950  21.617   2.975   7.267
 3536POPC   NC347951  17.804  14.560   5.462
 3536POPC   PO447952  17.486  14.107   5.432
 3536POPC   GL147953  17.487  14.300   5.855
 3536POPC   GL247954  17.257  14.557   5.954
 3536POPC   C1A47955  17.520  14.216   6.314
 3536POPC   D2A47956  17.384  14.462   6.687
 3536POPC   C3A47957  17.602  14.506   7.099
 3536POPC   C4A47958  17.697  14.241   7.453
 3536POPC   C1B47959  17.033  14.366   6.296
 3536POPC   C2B47960  16.872  14.461   6.697
 3536POPC   C3B47961  17.081  14.532   7.112
 3536POPC   C4B47962  17.187  14.313   7.503
 3537POPC   NC347963  14.827  27.216   5.495
 3537POPC   PO447964  14.243  27.285   5.272
 3537POPC   GL147965  14.215  27.616   5.656
 3537POPC   GL247966  14.562  27.750   5.773
 3537POPC   C1A47967  14.192  27.717   6.117
 3537POPC   D2A47968  14.290  27.504   6.482
 3537POPC   C3A47969  14.160  27.594   6.887
 3537POPC   C4A47970  14.244  27.515   7.290
 3537POPC   C1B47971  14.700  27.554   6.147
 3537POPC   C2B47972  14.780  27.557   6.569
 3537POPC   C3B47973  14.670  27.543   6.970
 3537POPC   C4B47974  14.959  27.684   7.262
 3538POPC   NC347975  19.584   0.476   5.335
 3538POPC   PO447976  20.157   0.076   5.502
 3538POPC   GL147977  19.809   0.232   5.772
 3538POPC   GL247978  19.775   0.572   5.796
 3538POPC   C1A47979  19.818   0.280   6.239
 3538POPC   D2A47980  20.055   0.232   6.602
 3538POPC   C3A47981  19.857   0.372   6.985
 3538POPC   C4A47982  20.055   0.696   7.220
 3538POPC   C1B47983  19.553   0.698   6.136
 3538POPC   C2B47984  19.490   0.555   6.546
 3538POPC   C3B47985  19.426   0.716   6.932
 3538POPC   C4B47986  19.562   0.684   7.341
 3539POPC   NC347987  19.960   9.022   5.181
 3539POPC   PO447988  19.508   8.700   5.501
 3539POPC   GL147989  19.851   8.975   5.754
 3539POPC   GL247990  19.733   9.318   5.936
 3539POPC   C1A47991  20.127   9.066   6.127
 3539POPC   D2A47992  19.973   9.146   6.556
 3539POPC   C3A47993  19.819   9.124   6.960
 3539POPC   C4A47994  19.974   8.918   7.341
 3539POPC   C1B47995  19.620   8.967   6.229
 3539POPC   C2B47996  19.513   8.781   6.666
 3539POPC   C3B47997  19.493   8.803   7.147
 3539POPC   C4B47998  19.510   8.898   7.597
 3540POPC   NC347999   7.688  13.016   5.440
 3540POPC   PO448000   7.153  12.659   5.608
 3540POPC   GL148001   7.183  12.843   5.975
 3540POPC   GL248002   7.344  13.132   5.832
 3540POPC   C1A48003   7.439  12.664   6.312
 3540POPC   D2A48004   7.657  12.524   6.652
 3540POPC   C3A48005   7.493  12.602   7.011
 3540POPC   C4A48006   7.145  12.773   7.177
 3540POPC   C1B48007   7.488  13.162   6.261
 3540POPC   C2B48008   7.343  13.015   6.677
 3540POPC   C3B48009   7.459  13.156   7.083
 3540POPC   C4B48010   7.742  13.128   7.383
 3541POPC   NC348011  14.168  19.490   5.432
 3541POPC   PO448012  14.694  19.867   5.326
 3541POPC   GL148013  14.567  19.756   5.777
 3541POPC   GL248014  14.428  20.036   5.994
 3541POPC   C1A48015  14.303  19.545   6.122
 3541POPC   D2A48016  14.278  19.754   6.539
 3541POPC   C3A48017  14.204  19.510   6.894
 3541POPC   C4A48018  14.322  19.565   7.283
 3541POPC   C1B48019  14.253  20.293   6.339
 3541POPC   C2B48020  14.081  20.259   6.750
 3541POPC   C3B48021  14.101  20.001   7.123
 3541POPC   C4B48022  14.010  19.865   7.547
 3542POPC   NC348023  33.783  18.101   5.454
 3542POPC   PO448024  33.777  18.698   5.386
 3542POPC   GL148025  33.895  18.481   5.772
 3542POPC   GL248026  33.568  18.363   5.846
 3542POPC   C1A48027  34.010  18.334   6.174
 3542POPC   D2A48028  33.983  18.564   6.557
 3542POPC   C3A48029  33.926  18.361   6.961
 3542POPC   C4A48030  33.686  18.396   7.320
 3542POPC   C1B48031  33.423  18.061   6.140
 3542POPC   C2B48032  33.171  18.044   6.517
 3542POPC   C3B48033  33.375  18.150   6.884
 3542POPC   C4B48034  33.657  17.950   7.097
 3543POPC   NC348035   8.120  16.914   5.339
 3543POPC   PO448036   8.560  16.478   5.513
 3543POPC   GL148037   8.207  16.657   5.755
 3543POPC   GL248038   8.038  16.400   5.884
 3543POPC   C1A48039   8.061  16.810   6.166
 3543POPC   D2A48040   8.337  16.901   6.491
 3543POPC   C3A48041   8.340  16.980   6.921
 3543POPC   C4A48042   8.571  16.818   7.256
 3543POPC   C1B48043   8.415  16.421   6.152
 3543POPC   C2B48044   8.451  16.322   6.548
 3543POPC   C3B48045   8.340  16.486   6.892
 3543POPC   C4B48046   8.169  16.487   7.253
 3544POPC   NC348047  42.467  42.477   5.408
 3544POPC   PO448048  42.187  41.816   5.479
 3544POPC   GL148049  42.407  42.125   5.770
 3544POPC   GL248050  42.221  42.437   5.850
 3544POPC   C1A48051  42.614  42.204   6.181
 3544POPC   D2A48052  42.763  42.080   6.589
 3544POPC   C3A48053  42.582  42.398   6.843
 3544POPC   C4A48054  42.555  42.287   7.217
 3544POPC   C1B48055  42.108  42.172   6.185
 3544POPC   C2B48056  42.237  42.125   6.589
 3544POPC   C3B48057  42.121  42.114   7.009
 3544POPC   C4B48058  42.039  42.456   7.325
 3545POPC   NC348059  13.735   5.576   5.454
 3545POPC   PO448060  13.936   5.007   5.227
 3545POPC   GL148061  13.664   5.060   5.624
 3545POPC   GL248062  13.363   5.321   5.713
 3545POPC   C1A48063  13.725   5.187   6.078
 3545POPC   D2A48064  13.909   5.400   6.445
 3545POPC   C3A48065  13.880   5.187   6.860
 3545POPC   C4A48066  13.691   4.932   7.226
 3545POPC   C1B48067  13.218   5.345   6.184
 3545POPC   C2B48068  13.425   5.282   6.607
 3545POPC   C3B48069  13.427   5.335   7.081
 3545POPC   C4B48070  13.374   5.362   7.557
 3546POPC   NC348071  24.853  27.899   5.716
 3546POPC   PO448072  24.286  27.746   5.392
 3546POPC   GL148073  24.206  27.670   5.859
 3546POPC   GL248074  24.525  27.600   5.987
 3546POPC   C1A48075  24.165  27.634   6.349
 3546POPC   D2A48076  24.489  27.537   6.645
 3546POPC   C3A48077  24.457  27.431   7.067
 3546POPC   C4A48078  24.470  27.518   7.506
 3546POPC   C1B48079  24.629  27.926   6.302
 3546POPC   C2B48080  24.835  27.900   6.682
 3546POPC   C3B48081  24.791  27.795   7.086
 3546POPC   C4B48082  24.678  27.962   7.444
 3547POPC   NC348083  31.922   2.634   5.654
 3547POPC   PO448084  31.426   2.923   5.230
 3547POPC   GL148085  31.469   2.933   5.680
 3547POPC   GL248086  31.216   2.703   5.864
 3547POPC   C1A48087  31.544   2.998   6.130
 3547POPC   D2A48088  31.792   2.830   6.450
 3547POPC   C3A48089  31.685   2.870   6.901
 3547POPC   C4A48090  31.401   2.890   7.275
 3547POPC   C1B48091  31.414   2.492   6.248
 3547POPC   C2B48092  31.658   2.381   6.626
 3547POPC   C3B48093  31.570   2.404   7.048
 3547POPC   C4B48094  31.661   2.513   7.482
 3548POPC   NC348095  12.291  37.584   5.510
 3548POPC   PO448096  12.980  37.695   5.402
 3548POPC   GL148097  13.025  37.471   5.755
 3548POPC   GL248098  12.767  37.697   5.893
 3548POPC   C1A48099  13.022  37.366   6.191
 3548POPC   D2A48100  13.115  37.579   6.579
 3548POPC   C3A48101  13.080  37.361   6.977
 3548POPC   C4A48102  13.111  37.435   7.428
 3548POPC   C1B48103  12.681  37.751   6.344
 3548POPC   C2B48104  12.658  37.741   6.798
 3548POPC   C3B48105  12.680  37.698   7.266
 3548POPC   C4B48106  12.652  37.746   7.729
 3549POPC   NC348107  31.047  12.098   5.127
 3549POPC   PO448108  31.542  11.822   5.576
 3549POPC   GL148109  31.607  12.078   5.917
 3549POPC   GL248110  31.666  12.429   5.876
 3549POPC   C1A48111  31.706  12.082   6.344
 3549POPC   D2A48112  31.520  11.811   6.640
 3549POPC   C3A48113  31.385  11.915   7.052
 3549POPC   C4A48114  31.377  11.722   7.470
 3549POPC   C1B48115  31.317  12.414   6.193
 3549POPC   C2B48116  31.306  12.279   6.616
 3549POPC   C3B48117  31.271  12.448   6.984
 3549POPC   C4B48118  31.239  12.306   7.338
 3550POPC   NC348119   5.570  32.011   5.422
 3550POPC   PO448120   5.018  32.345   5.449
 3550POPC   GL148121   5.061  32.414   5.845
 3550POPC   GL248122   4.733  32.529   5.862
 3550POPC   C1A48123   5.186  32.252   6.236
 3550POPC   D2A48124   5.028  32.014   6.561
 3550POPC   C3A48125   5.162  32.213   6.906
 3550POPC   C4A48126   5.153  32.168   7.300
 3550POPC   C1B48127   4.862  32.665   6.243
 3550POPC   C2B48128   4.844  32.509   6.619
 3550POPC   C3B48129   4.965  32.702   6.989
 3550POPC   C4B48130   4.782  32.524   7.332
 3551POPC   NC348131  23.223  13.679   5.417
 3551POPC   PO448132  22.617  13.370   5.424
 3551POPC   GL148133  22.639  13.709   5.757
 3551POPC   GL248134  23.000  13.729   5.895
 3551POPC   C1A48135  22.627  13.817   6.216
 3551POPC   D2A48136  22.796  13.840   6.638
 3551POPC   C3A48137  22.784  13.578   7.018
 3551POPC   C4A48138  22.821  13.465   7.450
 3551POPC   C1B48139  23.248  13.693   6.341
 3551POPC   C2B48140  23.261  13.658   6.820
 3551POPC   C3B48141  23.207  13.281   7.114
 3551POPC   C4B48142  22.941  12.978   7.364
 3552POPC   NC348143  42.384  34.207   5.032
 3552POPC   PO448144  42.081  33.685   5.317
 3552POPC   GL148145  42.148  33.528   5.782
 3552POPC   GL248146  42.167  33.841   5.936
 3552POPC   C1A48147  42.299  33.503   6.283
 3552POPC   D2A48148  42.224  33.741   6.725
 3552POPC   C3A48149  42.436  33.706   7.170
 3552POPC   C4A48150  42.699  33.505   7.531
 3552POPC   C1B48151  41.888  33.822   6.311
 3552POPC   C2B48152  41.701  33.738   6.696
 3552POPC   C3B48153  41.863  33.991   7.031
 3552POPC   C4B48154  42.027  33.916   7.430
 3553POPC   NC348155   6.716   2.345   5.650
 3553POPC   PO448156   6.352   1.779   5.503
 3553POPC   GL148157   6.467   1.978   5.893
 3553POPC   GL248158   6.829   1.924   5.942
 3553POPC   C1A48159   6.563   2.171   6.312
 3553POPC   D2A48160   6.376   2.005   6.683
 3553POPC   C3A48161   6.654   1.979   7.005
 3553POPC   C4A48162   6.709   2.372   7.145
 3553POPC   C1B48163   7.055   1.991   6.327
 3553POPC   C2B48164   7.092   1.812   6.750
 3553POPC   C3B48165   6.962   1.596   7.111
 3553POPC   C4B48166   6.836   1.535   7.530
 3554POPC   NC348167   4.516  17.932   5.449
 3554POPC   PO448168   4.397  18.596   5.536
 3554POPC   GL148169   4.463  18.289   5.828
 3554POPC   GL248170   4.103  18.239   5.870
 3554POPC   C1A48171   4.407  18.244   6.268
 3554POPC   D2A48172   4.205  18.399   6.604
 3554POPC   C3A48173   4.175  18.149   6.950
 3554POPC   C4A48174   4.473  18.081   7.279
 3554POPC   C1B48175   4.085  18.636   6.158
 3554POPC   C2B48176   3.898  18.801   6.589
 3554POPC   C3B48177   4.095  18.717   6.993
 3554POPC   C4B48178   4.104  18.444   7.360
 3555POPC   NC348179  10.333  17.996   5.330
 3555POPC   PO448180  10.736  18.535   5.484
 3555POPC   GL148181  10.508  18.262   5.776
 3555POPC   GL248182  10.258  17.966   5.816
 3555POPC   C1A48183  10.568  18.121   6.191
 3555POPC   D2A48184  10.731  18.162   6.603
 3555POPC   C3A48185  10.498  18.456   6.859
 3555POPC   C4A48186  10.374  18.358   7.288
 3555POPC   C1B48187  10.011  18.051   6.134
 3555POPC   C2B48188  10.182  18.115   6.530
 3555POPC   C3B48189  10.227  18.012   6.932
 3555POPC   C4B48190  10.020  17.994   7.300
 3556POPC   NC348191  11.825  29.806   5.637
 3556POPC   PO448192  11.284  29.579   5.302
 3556POPC   GL148193  11.216  29.900   5.700
 3556POPC   GL248194  11.474  30.191   5.764
 3556POPC   C1A48195  11.049  30.157   6.099
 3556POPC   D2A48196  11.034  30.394   6.528
 3556POPC   C3A48197  11.081  30.200   6.941
 3556POPC   C4A48198  11.314  29.992   7.279
 3556POPC   C1B48199  11.520  29.940   6.174
 3556POPC   C2B48200  11.505  29.865   6.608
 3556POPC   C3B48201  11.654  29.727   6.990
 3556POPC   C4B48202  11.556  29.533   7.347
 3557POPC   NC348203  31.357  43.760   5.328
 3557POPC   PO448204  31.097  44.360   5.503
 3557POPC   GL148205  31.178  44.003   5.757
 3557POPC   GL248206  31.510  43.886   5.786
 3557POPC   C1A48207  31.085  43.818   6.141
 3557POPC   D2A48208  31.311  43.790   6.518
 3557POPC   C3A48209  31.144  43.829   6.924
 3557POPC   C4A48210  31.370  43.701   7.287
 3557POPC   C1B48211  31.550  44.104   6.159
 3557POPC   C2B48212  31.609  44.225   6.579
 3557POPC   C3B48213  31.636  44.022   6.964
 3557POPC   C4B48214  31.364  44.211   7.280
 3558POPC   NC348215  37.576  25.536   5.392
 3558POPC   PO448216  38.167  25.119   5.451
 3558POPC   GL148217  37.789  25.206   5.776
 3558POPC   GL248218  37.445  25.015   5.856
 3558POPC   C1A48219  37.703  25.327   6.239
 3558POPC   D2A48220  37.539  25.709   6.472
 3558POPC   C3A48221  37.301  25.571   6.825
 3558POPC   C4A48222  37.477  25.282   7.141
 3558POPC   C1B48223  37.520  24.812   6.280
 3558POPC   C2B48224  37.546  24.915   6.762
 3558POPC   C3B48225  37.427  24.771   7.187
 3558POPC   C4B48226  37.548  24.992   7.576
 3559POPC   NC348227  21.050  30.875   5.575
 3559POPC   PO448228  21.714  30.906   5.453
 3559POPC   GL148229  21.511  30.705   5.820
 3559POPC   GL248230  21.358  30.961   5.960
 3559POPC   C1A48231  21.404  30.499   6.232
 3559POPC   D2A48232  21.501  30.298   6.638
 3559POPC   C3A48233  21.301  30.464   6.976
 3559POPC   C4A48234  21.374  30.666   7.329
 3559POPC   C1B48235  21.315  31.005   6.383
 3559POPC   C2B48236  21.346  30.955   6.822
 3559POPC   C3B48237  21.217  31.114   7.182
 3559POPC   C4B48238  20.940  31.140   7.480
 3560POPC   NC348239  14.035  12.700   5.446
 3560POPC   PO448240  14.752  12.967   5.398
 3560POPC   GL148241  14.478  12.868   5.780
 3560POPC   GL248242  14.183  13.095   5.811
 3560POPC   C1A48243  14.248  12.734   6.181
 3560POPC   D2A48244  14.135  12.736   6.629
 3560POPC   C3A48245  14.497  12.644   6.937
 3560POPC   C4A48246  14.955  12.487   7.088
 3560POPC   C1B48247  14.236  13.247   6.233
 3560POPC   C2B48248  14.491  13.127   6.589
 3560POPC   C3B48249  14.506  13.176   7.029
 3560POPC   C4B48250  14.622  13.254   7.445
 3561POPC   NC348251  14.746  12.494   5.508
 3561POPC   PO448252  14.104  12.220   5.432
 3561POPC   GL148253  14.221  12.035   5.847
 3561POPC   GL248254  14.421  12.296   6.010
 3561POPC   C1A48255  14.397  11.787   6.190
 3561POPC   D2A48256  14.384  11.783   6.630
 3561POPC   C3A48257  14.669  12.002   6.945
 3561POPC   C4A48258  14.759  12.131   7.395
 3561POPC   C1B48259  14.157  12.206   6.357
 3561POPC   C2B48260  14.197  12.224   6.797
 3561POPC   C3B48261  14.308  12.241   7.227
 3561POPC   C4B48262  14.333  12.430   7.622
 3562POPC   NC348263  28.951  32.068   5.317
 3562POPC   PO448264  28.312  32.200   5.526
 3562POPC   GL148265  28.347  32.329   5.891
 3562POPC   GL248266  28.700  32.462   5.796
 3562POPC   C1A48267  28.116  32.178   6.257
 3562POPC   D2A48268  28.147  31.942   6.631
 3562POPC   C3A48269  28.179  32.251   6.952
 3562POPC   C4A48270  28.169  32.391   7.362
 3562POPC   C1B48271  28.654  32.526   6.239
 3562POPC   C2B48272  28.565  32.345   6.640
 3562POPC   C3B48273  28.678  32.419   7.072
 3562POPC   C4B48274  28.590  32.668   7.450
 3563POPC   NC348275  11.283  32.766   5.487
 3563POPC   PO448276  11.533  33.373   5.368
 3563POPC   GL148277  11.399  33.222   5.757
 3563POPC   GL248278  11.064  33.285   5.841
 3563POPC   C1A48279  11.488  33.138   6.190
 3563POPC   D2A48280  11.763  33.182   6.553
 3563POPC   C3A48281  11.472  33.038   6.862
 3563POPC   C4A48282  11.104  32.846   7.081
 3563POPC   C1B48283  11.085  33.472   6.235
 3563POPC   C2B48284  11.119  33.368   6.688
 3563POPC   C3B48285  11.206  33.359   7.165
 3563POPC   C4B48286  11.064  33.158   7.583
 3564POPC   NC348287  33.072  19.956   5.203
 3564POPC   PO448288  33.561  20.190   5.354
 3564POPC   GL148289  33.297  19.909   5.676
 3564POPC   GL248290  32.945  19.744   5.663
 3564POPC   C1A48291  33.367  19.745   6.090
 3564POPC   D2A48292  33.176  19.663   6.512
 3564POPC   C3A48293  33.279  19.695   6.961
 3564POPC   C4A48294  33.119  19.889   7.362
 3564POPC   C1B48295  32.886  19.537   6.076
 3564POPC   C2B48296  32.699  19.430   6.482
 3564POPC   C3B48297  32.805  19.449   6.918
 3564POPC   C4B48298  32.996  19.408   7.292
 3565POPC   NC348299  21.959   7.419   5.296
 3565POPC   PO448300  22.495   7.786   5.646
 3565POPC   GL148301  22.415   7.356   5.762
 3565POPC   GL248302  22.034   7.228   5.808
 3565POPC   C1A48303  22.407   7.186   6.171
 3565POPC   D2A48304  22.205   7.138   6.573
 3565POPC   C3A48305  22.361   7.364   6.940
 3565POPC   C4A48306  22.267   7.410   7.387
 3565POPC   C1B48307  21.914   7.408   6.235
 3565POPC   C2B48308  21.839   7.507   6.687
 3565POPC   C3B48309  21.839   7.445   7.116
 3565POPC   C4B48310  21.787   7.806   7.339
 3566POPC   NC348311  11.755  39.226   5.512
 3566POPC   PO448312  12.271  38.840   5.320
 3566POPC   GL148313  12.160  39.056   5.735
 3566POPC   GL248314  11.844  38.926   5.913
 3566POPC   C1A48315  12.081  39.343   6.112
 3566POPC   D2A48316  12.017  39.301   6.562
 3566POPC   C3A48317  11.955  39.470   6.957
 3566POPC   C4A48318  12.183  39.638   7.296
 3566POPC   C1B48319  11.918  38.872   6.343
 3566POPC   C2B48320  12.022  38.843   6.803
 3566POPC   C3B48321  11.841  38.776   7.208
 3566POPC   C4B48322  11.981  38.824   7.639
 3567POPC   NC348323  10.395   8.420   5.324
 3567POPC   PO448324  10.012   7.870   5.485
 3567POPC   GL148325  10.368   8.043   5.771
 3567POPC   GL248326  10.695   8.205   5.692
 3567POPC   C1A48327  10.433   8.434   6.069
 3567POPC   D2A48328  10.525   8.420   6.540
 3567POPC   C3A48329  10.238   8.468   6.911
 3567POPC   C4A48330  10.021   8.549   7.333
 3567POPC   C1B48331  10.894   8.228   6.120
 3567POPC   C2B48332  10.903   8.059   6.560
 3567POPC   C3B48333  10.754   8.167   6.997
 3567POPC   C4B48334  11.022   8.338   7.333
 3568POPC   NC348335  14.765   5.909   5.534
 3568POPC   PO448336  14.489   6.358   5.197
 3568POPC   GL148337  14.404   6.199   5.749
 3568POPC   GL248338  14.467   5.880   5.934
 3568POPC   C1A48339  14.170   6.244   6.143
 3568POPC   D2A48340  13.938   5.959   6.435
 3568POPC   C3A48341  14.100   5.968   6.867
 3568POPC   C4A48342  14.352   5.733   7.172
 3568POPC   C1B48343  14.673   6.169   6.241
 3568POPC   C2B48344  14.488   6.262   6.632
 3568POPC   C3B48345  14.684   5.978   6.851
 3568POPC   C4B48346  14.799   5.966   7.232
 3569POPC   NC348347  10.655  13.658   5.243
 3569POPC   PO448348  10.200  13.211   5.633
 3569POPC   GL148349  10.640  13.445   5.757
 3569POPC   GL248350  10.696  13.826   5.721
 3569POPC   C1A48351  10.695  13.384   6.208
 3569POPC   D2A48352  10.414  13.270   6.568
 3569POPC   C3A48353  10.211  13.618   6.776
 3569POPC   C4A48354  10.343  13.896   7.084
 3569POPC   C1B48355  10.682  13.925   6.161
 3569POPC   C2B48356  10.520  13.995   6.584
 3569POPC   C3B48357  10.767  14.115   6.938
 3569POPC   C4B48358  10.803  13.830   7.311
 3570POPC   NC348359   9.352  21.577   5.377
 3570POPC   PO448360   8.655  21.210   5.473
 3570POPC   GL148361   8.893  21.307   5.819
 3570POPC   GL248362   9.166  21.071   5.874
 3570POPC   C1A48363   8.776  21.457   6.233
 3570POPC   D2A48364   8.987  21.362   6.622
 3570POPC   C3A48365   8.755  21.571   6.904
 3570POPC   C4A48366   8.649  21.535   7.302
 3570POPC   C1B48367   9.295  21.381   6.201
 3570POPC   C2B48368   9.489  21.648   6.526
 3570POPC   C3B48369   9.254  21.764   6.882
 3570POPC   C4B48370   9.155  21.541   7.239
 3571POPC   NC348371  40.617  10.006   5.413
 3571POPC   PO448372  40.580   9.408   5.212
 3571POPC   GL148373  40.803   9.519   5.663
 3571POPC   GL248374  40.635   9.768   5.886
 3571POPC   C1A48375  41.003   9.507   6.132
 3571POPC   D2A48376  41.048   9.243   6.543
 3571POPC   C3A48377  40.979   9.498   6.922
 3571POPC   C4A48378  40.581   9.450   7.141
 3571POPC   C1B48379  40.819  10.019   6.221
 3571POPC   C2B48380  40.955   9.940   6.625
 3571POPC   C3B48381  40.747   9.958   7.021
 3571POPC   C4B48382  40.704  10.261   7.355
 3572POPC   NC348383  15.839   4.646   5.315
 3572POPC   PO448384  16.022   5.291   5.444
 3572POPC   GL148385  15.962   5.090   5.832
 3572POPC   GL248386  15.600   5.096   5.860
 3572POPC   C1A48387  16.220   5.017   6.213
 3572POPC   D2A48388  16.346   5.199   6.601
 3572POPC   C3A48389  16.420   4.930   6.942
 3572POPC   C4A48390  16.153   4.786   7.289
 3572POPC   C1B48391  15.712   4.902   6.259
 3572POPC   C2B48392  15.895   4.974   6.678
 3572POPC   C3B48393  15.729   5.045   7.085
 3572POPC   C4B48394  15.655   4.762   7.428
 3573POPC   NC348395   8.336   3.304   5.444
 3573POPC   PO448396   7.732   3.591   5.440
 3573POPC   GL148397   7.945   3.761   5.776
 3573POPC   GL248398   8.314   3.720   5.826
 3573POPC   C1A48399   7.980   3.641   6.199
 3573POPC   D2A48400   8.121   3.855   6.525
 3573POPC   C3A48401   8.000   3.706   6.938
 3573POPC   C4A48402   8.226   3.441   7.199
 3573POPC   C1B48403   8.483   3.383   6.117
 3573POPC   C2B48404   8.367   3.376   6.556
 3573POPC   C3B48405   8.507   3.707   6.844
 3573POPC   C4B48406   8.786   3.687   7.171
 3574POPC   NC348407  30.168   7.401   5.502
 3574POPC   PO448408  29.705   7.884   5.284
 3574POPC   GL148409  29.760   7.678   5.703
 3574POPC   GL248410  29.769   7.315   5.808
 3574POPC   C1A48411  29.770   7.720   6.162
 3574POPC   D2A48412  29.612   7.797   6.595
 3574POPC   C3A48413  29.910   7.670   6.895
 3574POPC   C4A48414  30.274   7.825   7.110
 3574POPC   C1B48415  29.921   7.240   6.252
 3574POPC   C2B48416  30.186   7.181   6.643
 3574POPC   C3B48417  30.134   7.230   7.097
 3574POPC   C4B48418  29.738   7.066   7.289
 3575POPC   NC348419  39.591  19.413   5.466
 3575POPC   PO448420  40.068  19.056   5.161
 3575POPC   GL148421  40.014  19.057   5.643
 3575POPC   GL248422  40.274  19.025   5.872
 3575POPC   C1A48423  39.804  19.107   6.077
 3575POPC   D2A48424  39.736  19.036   6.556
 3575POPC   C3A48425  39.874  19.110   7.018
 3575POPC   C4A48426  39.995  18.779   7.338
 3575POPC   C1B48427  40.198  18.877   6.318
 3575POPC   C2B48428  40.298  18.947   6.761
 3575POPC   C3B48429  40.468  18.917   7.188
 3575POPC   C4B48430  40.437  18.897   7.645
 3576POPC   NC348431  30.756  34.961   5.366
 3576POPC   PO448432  30.905  35.636   5.415
 3576POPC   GL148433  30.813  35.487   5.843
 3576POPC   GL248434  30.634  35.175   5.838
 3576POPC   C1A48435  30.611  35.494   6.285
 3576POPC   D2A48436  30.505  35.528   6.737
 3576POPC   C3A48437  30.773  35.481   7.094
 3576POPC   C4A48438  30.697  35.507   7.523
 3576POPC   C1B48439  30.965  35.136   6.194
 3576POPC   C2B48440  30.915  35.225   6.646
 3576POPC   C3B48441  30.619  35.030   6.952
 3576POPC   C4B48442  30.406  35.121   7.353
 3577POPC   NC348443  13.982  34.386   5.264
 3577POPC   PO448444  13.536  34.858   5.325
 3577POPC   GL148445  13.797  34.806   5.701
 3577POPC   GL248446  14.144  34.688   5.655
 3577POPC   C1A48447  13.671  34.750   6.127
 3577POPC   D2A48448  13.433  34.640   6.496
 3577POPC   C3A48449  13.510  34.765   6.922
 3577POPC   C4A48450  13.334  34.436   7.194
 3577POPC   C1B48451  14.030  34.382   5.981
 3577POPC   C2B48452  13.944  34.415   6.431
 3577POPC   C3B48453  13.794  34.340   6.854
 3577POPC   C4B48454  13.822  34.490   7.275
 3578POPC   NC348455   6.070  43.398   5.099
 3578POPC   PO448456   5.815  43.898   5.406
 3578POPC   GL148457   5.677  43.779   5.809
 3578POPC   GL248458   5.800  43.480   5.966
 3578POPC   C1A48459   5.762  43.886   6.253
 3578POPC   D2A48460   5.838  43.599   6.635
 3578POPC   C3A48461   5.633  43.721   7.043
 3578POPC   C4A48462   5.786  44.081   7.320
 3578POPC   C1B48463   6.179  43.585   6.241
 3578POPC   C2B48464   6.381  43.527   6.637
 3578POPC   C3B48465   6.275  43.689   7.033
 3578POPC   C4B48466   6.005  43.615   7.377
 3579POPC   NC348467   2.713  36.383   5.217
 3579POPC   PO448468   2.820  35.743   5.468
 3579POPC   GL148469   2.763  35.926   5.859
 3579POPC   GL248470   2.799  36.270   5.734
 3579POPC   C1A48471   2.729  35.827   6.337
 3579POPC   D2A48472   2.617  35.910   6.777
 3579POPC   C3A48473   2.711  35.843   7.230
 3579POPC   C4A48474   2.755  35.880   7.703
 3579POPC   C1B48475   2.720  36.330   6.166
 3579POPC   C2B48476   2.896  36.309   6.593
 3579POPC   C3B48477   2.695  36.343   7.020
 3579POPC   C4B48478   2.831  36.287   7.417
 3580POPC   NC348479   7.909  32.222   5.298
 3580POPC   PO448480   8.440  32.581   5.536
 3580POPC   GL148481   8.220  32.280   5.758
 3580POPC   GL248482   8.480  32.264   5.961
 3580POPC   C1A48483   8.027  32.328   6.179
 3580POPC   D2A48484   7.828  32.578   6.478
 3580POPC   C3A48485   7.975  32.444   6.874
 3580POPC   C4A48486   8.123  32.203   7.230
 3580POPC   C1B48487   8.448  32.019   6.297
 3580POPC   C2B48488   8.389  32.168   6.700
 3580POPC   C3B48489   8.511  32.459   7.026
 3580POPC   C4B48490   8.379  32.597   7.447
 3581POPC   NC348491  19.554  13.638   5.465
 3581POPC   PO448492  20.066  13.320   5.532
 3581POPC   GL148493  19.909  13.438   5.927
 3581POPC   GL248494  19.887  13.751   5.852
 3581POPC   C1A48495  19.804  13.637   6.345
 3581POPC   D2A48496  19.743  13.840   6.723
 3581POPC   C3A48497  19.781  13.492   6.996
 3581POPC   C4A48498  20.168  13.260   7.035
 3581POPC   C1B48499  20.172  13.910   6.130
 3581POPC   C2B48500  20.261  13.864   6.576
 3581POPC   C3B48501  20.164  13.847   7.022
 3581POPC   C4B48502  19.956  13.743   7.385
 3582POPC   NC348503  37.128   1.611   5.321
 3582POPC   PO448504  36.879   2.206   5.311
 3582POPC   GL148505  36.805   2.235   5.756
 3582POPC   GL248506  37.125   2.361   5.827
 3582POPC   C1A48507  36.875   2.129   6.210
 3582POPC   D2A48508  37.084   2.188   6.614
 3582POPC   C3A48509  36.979   1.899   6.943
 3582POPC   C4A48510  36.653   1.907   7.257
 3582POPC   C1B48511  37.255   2.534   6.237
 3582POPC   C2B48512  37.183   2.686   6.682
 3582POPC   C3B48513  37.283   2.399   7.056
 3582POPC   C4B48514  37.110   2.158   7.408
 3583POPC   NC348515  28.789   6.481   5.148
 3583POPC   PO448516  29.242   6.865   5.446
 3583POPC   GL148517  29.258   6.734   5.853
 3583POPC   GL248518  29.598   6.838   5.826
 3583POPC   C1A48519  29.107   6.659   6.295
 3583POPC   D2A48520  28.970   6.514   6.726
 3583POPC   C3A48521  29.077   6.581   7.178
 3583POPC   C4A48522  29.081   6.428   7.625
 3583POPC   C1B48523  29.638   6.545   6.134
 3583POPC   C2B48524  29.563   6.615   6.540
 3583POPC   C3B48525  29.494   6.370   6.876
 3583POPC   C4B48526  29.579   6.551   7.255
 3584POPC   NC348527  14.626  22.209   5.367
 3584POPC   PO448528  14.032  22.309   5.603
 3584POPC   GL148529  14.381  22.106   5.844
 3584POPC   GL248530  14.746  22.248   5.847
 3584POPC   C1A48531  14.353  22.033   6.291
 3584POPC   D2A48532  14.271  22.375   6.645
 3584POPC   C3A48533  14.156  22.154   7.028
 3584POPC   C4A48534  14.383  21.711   7.150
 3584POPC   C1B48535  14.618  22.460   6.204
 3584POPC   C2B48536  14.743  22.227   6.564
 3584POPC   C3B48537  14.637  22.064   6.915
 3584POPC   C4B48538  14.534  22.162   7.367
 3585POPC   NC348539  16.569  19.856   5.464
 3585POPC   PO448540  15.907  19.987   5.435
 3585POPC   GL148541  15.744  19.938   5.837
 3585POPC   GL248542  15.848  20.269   5.888
 3585POPC   C1A48543  15.633  20.022   6.279
 3585POPC   D2A48544  15.760  20.071   6.708
 3585POPC   C3A48545  15.676  19.844   7.108
 3585POPC   C4A48546  15.769  19.904   7.571
 3585POPC   C1B48547  16.133  20.035   6.184
 3585POPC   C2B48548  16.274  20.001   6.619
 3585POPC   C3B48549  16.173  20.017   7.057
 3585POPC   C4B48550  16.317  19.928   7.472
 3586POPC   NC348551  43.327   4.564   5.466
 3586POPC   PO448552  43.215   5.205   5.415
 3586POPC   GL148553  43.166   5.150   5.880
 3586POPC   GL248554  43.180   4.808   5.960
 3586POPC   C1A48555  42.996   5.208   6.284
 3586POPC   D2A48556  43.067   5.005   6.634
 3586POPC   C3A48557  42.824   5.216   6.934
 3586POPC   C4A48558  42.939   5.514   7.228
 3586POPC   C1B48559  43.466   4.986   6.283
 3586POPC   C2B48560  43.579   5.233   6.635
 3586POPC   C3B48561  43.382   5.126   7.011
 3586POPC   C4B48562  43.076   4.801   7.116
 3587POPC   NC348563  34.167  31.725   5.484
 3587POPC   PO448564  33.624  31.209   5.370
 3587POPC   GL148565  33.895  31.299   5.754
 3587POPC   GL248566  33.717  31.594   5.836
 3587POPC   C1A48567  33.902  31.375   6.254
 3587POPC   D2A48568  33.697  31.522   6.661
 3587POPC   C3A48569  33.978  31.506   7.023
 3587POPC   C4A48570  34.016  31.262   7.386
 3587POPC   C1B48571  33.480  31.218   6.025
 3587POPC   C2B48572  33.464  31.093   6.443
 3587POPC   C3B48573  33.428  31.108   6.898
 3587POPC   C4B48574  33.498  31.399   7.197
 3588POPC   NC348575  20.206   1.280   5.549
 3588POPC   PO448576  19.608   0.936   5.476
 3588POPC   GL148577  19.783   1.090   5.838
 3588POPC   GL248578  19.658   1.417   5.860
 3588POPC   C1A48579  20.046   0.894   6.140
 3588POPC   D2A48580  19.974   0.719   6.520
 3588POPC   C3A48581  19.892   1.007   6.830
 3588POPC   C4A48582  19.636   1.151   7.151
 3588POPC   C1B48583  19.900   1.368   6.280
 3588POPC   C2B48584  20.100   1.488   6.700
 3588POPC   C3B48585  20.083   1.387   7.151
 3588POPC   C4B48586  19.784   1.479   7.501
 3589POPC   NC348587  35.958  11.537   5.348
 3589POPC   PO448588  36.286  10.980   5.197
 3589POPC   GL148589  36.266  11.236   5.627
 3589POPC   GL248590  36.159  10.998   5.833
 3589POPC   C1A48591  36.358  11.407   6.083
 3589POPC   D2A48592  36.256  11.591   6.506
 3589POPC   C3A48593  36.319  11.380   6.879
 3589POPC   C4A48594  36.114  11.326   7.261
 3589POPC   C1B48595  36.449  10.926   6.208
 3589POPC   C2B48596  36.433  10.928   6.648
 3589POPC   C3B48597  36.121  10.869   6.957
 3589POPC   C4B48598  36.267  10.851   7.360
 3590POPC   NC348599  12.384  42.427   5.386
 3590POPC   PO448600  11.802  42.057   5.338
 3590POPC   GL148601  11.958  42.334   5.726
 3590POPC   GL248602  11.724  42.553   5.880
 3590POPC   C1A48603  12.084  42.479   6.207
 3590POPC   D2A48604  11.830  42.633   6.614
 3590POPC   C3A48605  12.075  42.542   7.015
 3590POPC   C4A48606  12.438  42.428   7.316
 3590POPC   C1B48607  11.692  42.179   6.155
 3590POPC   C2B48608  11.678  42.140   6.572
 3590POPC   C3B48609  11.662  42.193   7.001
 3590POPC   C4B48610  12.027  42.105   7.252
 3591POPC   NC348611  11.733  38.400   5.362
 3591POPC   PO448612  12.306  38.038   5.569
 3591POPC   GL148613  12.009  38.240   5.779
 3591POPC   GL248614  12.082  38.544   5.694
 3591POPC   C1A48615  11.784  38.387   6.135
 3591POPC   D2A48616  12.019  38.413   6.521
 3591POPC   C3A48617  11.878  38.327   6.908
 3591POPC   C4A48618  11.812  38.120   7.262
 3591POPC   C1B48619  12.256  38.598   6.081
 3591POPC   C2B48620  12.450  38.691   6.486
 3591POPC   C3B48621  12.525  38.661   6.919
 3591POPC   C4B48622  12.255  38.464   7.211
 3592POPC   NC348623  30.449  35.660   5.494
 3592POPC   PO448624  30.610  36.380   5.384
 3592POPC   GL148625  30.628  36.101   5.716
 3592POPC   GL248626  30.271  36.086   5.812
 3592POPC   C1A48627  30.806  35.948   6.105
 3592POPC   D2A48628  30.630  35.976   6.516
 3592POPC   C3A48629  30.741  35.953   6.936
 3592POPC   C4A48630  30.917  36.200   7.236
 3592POPC   C1B48631  30.427  36.323   6.187
 3592POPC   C2B48632  30.347  36.380   6.642
 3592POPC   C3B48633  30.467  36.371   7.067
 3592POPC   C4B48634  30.279  36.450   7.454
 3593POPC   NC348635  16.378   3.794   5.607
 3593POPC   PO448636  16.819   3.311   5.445
 3593POPC   GL148637  16.655   3.417   5.815
 3593POPC   GL248638  16.397   3.181   5.782
 3593POPC   C1A48639  16.774   3.593   6.218
 3593POPC   D2A48640  16.988   3.492   6.589
 3593POPC   C3A48641  16.789   3.612   6.947
 3593POPC   C4A48642  16.712   3.478   7.321
 3593POPC   C1B48643  16.308   3.362   6.190
 3593POPC   C2B48644  16.434   3.446   6.603
 3593POPC   C3B48645  16.468   3.199   6.964
 3593POPC   C4B48646  16.255   3.216   7.345
 3594POPC   NC348647  34.450   8.397   5.182
 3594POPC   PO448648  34.918   8.094   5.536
 3594POPC   GL148649  34.563   8.231   5.807
 3594POPC   GL248650  34.837   8.171   6.028
 3594POPC   C1A48651  34.471   8.488   6.204
 3594POPC   D2A48652  34.316   8.363   6.624
 3594POPC   C3A48653  34.368   8.630   7.003
 3594POPC   C4A48654  34.401   8.401   7.403
 3594POPC   C1B48655  34.569   7.999   6.295
 3594POPC   C2B48656  34.833   8.289   6.565
 3594POPC   C3B48657  34.804   8.377   7.000
 3594POPC   C4B48658  34.764   8.031   7.250
 3595POPC   NC348659  39.452  37.291   5.591
 3595POPC   PO448660  39.040  36.727   5.377
 3595POPC   GL148661  39.050  36.828   5.765
 3595POPC   GL248662  39.334  36.782   5.858
 3595POPC   C1A48663  38.956  36.809   6.218
 3595POPC   D2A48664  38.957  36.837   6.668
 3595POPC   C3A48665  39.290  37.090   6.828
 3595POPC   C4A48666  39.600  37.193   7.145
 3595POPC   C1B48667  39.393  36.518   6.202
 3595POPC   C2B48668  39.431  36.636   6.617
 3595POPC   C3B48669  39.250  36.598   7.024
 3595POPC   C4B48670  38.976  36.913   7.217
 3596POPC   NC348671   9.286  34.448   5.354
 3596POPC   PO448672   9.907  34.370   5.424
 3596POPC   GL148673   9.849  34.436   5.846
 3596POPC   GL248674   9.546  34.278   5.945
 3596POPC   C1A48675   9.749  34.703   6.197
 3596POPC   D2A48676   9.678  34.673   6.635
 3596POPC   C3A48677   9.780  34.946   6.981
 3596POPC   C4A48678   9.650  34.867   7.465
 3596POPC   C1B48679   9.829  34.167   6.325
 3596POPC   C2B48680   9.933  34.259   6.768
 3596POPC   C3B48681   9.659  34.410   7.138
 3596POPC   C4B48682   9.812  34.389   7.607
 3597POPC   NC348683  21.042   6.192   5.316
 3597POPC   PO448684  21.331   5.482   5.332
 3597POPC   GL148685  21.381   5.646   5.764
 3597POPC   GL248686  21.044   5.794   5.877
 3597POPC   C1A48687  21.465   5.640   6.221
 3597POPC   D2A48688  21.419   5.510   6.681
 3597POPC   C3A48689  21.546   5.853   6.960
 3597POPC   C4A48690  21.821   6.168   7.170
 3597POPC   C1B48691  20.786   5.825   6.271
 3597POPC   C2B48692  20.821   5.701   6.735
 3597POPC   C3B48693  20.973   5.825   7.155
 3597POPC   C4B48694  21.213   6.197   7.162
 3598POPC   NC348695  12.998  41.512   5.431
 3598POPC   PO448696  12.450  41.958   5.326
 3598POPC   GL148697  12.684  41.769   5.752
 3598POPC   GL248698  13.054  41.765   5.858
 3598POPC   C1A48699  12.726  41.688   6.253
 3598POPC   D2A48700  12.762  41.459   6.679
 3598POPC   C3A48701  12.854  41.632   7.113
 3598POPC   C4A48702  12.655  41.518   7.526
 3598POPC   C1B48703  13.259  41.675   6.269
 3598POPC   C2B48704  13.255  41.521   6.711
 3598POPC   C3B48705  13.193  41.236   7.053
 3598POPC   C4B48706  13.137  41.354   7.475
 3599POPC   NC348707  32.873   7.898   5.347
 3599POPC   PO448708  33.195   8.535   5.447
 3599POPC   GL148709  33.189   8.497   5.866
 3599POPC   GL248710  32.862   8.450   5.910
 3599POPC   C1A48711  33.220   8.213   6.228
 3599POPC   D2A48712  33.375   8.073   6.614
 3599POPC   C3A48713  33.350   8.391   6.905
 3599POPC   C4A48714  33.168   8.212   7.269
 3599POPC   C1B48715  32.728   8.431   6.309
 3599POPC   C2B48716  32.871   8.276   6.714
 3599POPC   C3B48717  32.672   8.115   7.086
 3599POPC   C4B48718  32.745   8.101   7.527
 3600POPC   NC348719   8.993  20.889   5.422
 3600POPC   PO448720   9.136  20.324   5.474
 3600POPC   GL148721   8.972  20.541   5.847
 3600POPC   GL248722   8.701  20.811   5.858
 3600POPC   C1A48723   8.984  20.451   6.285
 3600POPC   D2A48724   8.998  20.283   6.702
 3600POPC   C3A48725   9.083  20.507   7.082
 3600POPC   C4A48726   9.171  20.532   7.507
 3600POPC   C1B48727   8.871  20.952   6.281
 3600POPC   C2B48728   8.904  20.862   6.755
 3600POPC   C3B48729   8.967  21.007   7.206
 3600POPC   C4B48730   8.815  20.873   7.669
 3601POPC   NC348731   0.209   5.689   5.085
 3601POPC   PO448732   0.549   5.151   5.375
 3601POPC   GL148733   0.468   5.194   5.776
 3601POPC   GL248734   0.783   5.336   5.858
 3601POPC   C1A48735   0.246   5.124   6.139
 3601POPC   D2A48736   0.364   4.943   6.498
 3601POPC   C3A48737   0.506   5.096   6.922
 3601POPC   C4A48738   0.226   4.961   7.269
 3601POPC   C1B48739   0.656   5.364   6.302
 3601POPC   C2B48740   0.303   5.468   6.619
 3601POPC   C3B48741   0.232   5.483   7.099
 3601POPC   C4B48742   0.475   5.372   7.500
 3602POPC   NC348743   3.822  38.830   5.645
 3602POPC   PO448744   4.339  39.196   5.320
 3602POPC   GL148745   4.379  39.171   5.754
 3602POPC   GL248746   4.650  38.959   5.847
 3602POPC   C1A48747   4.227  39.338   6.135
 3602POPC   D2A48748   4.344  39.298   6.546
 3602POPC   C3A48749   4.228  39.603   6.866
 3602POPC   C4A48750   4.225  39.480   7.292
 3602POPC   C1B48751   4.386  38.833   6.200
 3602POPC   C2B48752   4.131  38.819   6.582
 3602POPC   C3B48753   4.268  38.833   6.999
 3602POPC   C4B48754   4.125  38.971   7.375
 3603POPC   NC348755  41.939  19.467   5.417
 3603POPC   PO448756  42.283  18.981   5.027
 3603POPC   GL148757  42.240  19.008   5.556
 3603POPC   GL248758  42.002  19.152   5.807
 3603POPC   C1A48759  42.417  18.967   6.022
 3603POPC   D2A48760  42.478  19.113   6.471
 3603POPC   C3A48761  42.646  18.898   6.852
 3603POPC   C4A48762  42.739  19.140   7.226
 3603POPC   C1B48763  41.965  19.102   6.252
 3603POPC   C2B48764  42.020  19.078   6.700
 3603POPC   C3B48765  42.308  19.293   6.967
 3603POPC   C4B48766  42.148  19.556   7.278
 3604POPC   NC348767  36.541  27.090   5.335
 3604POPC   PO448768  36.273  26.540   5.384
 3604POPC   GL148769  36.280  26.768   5.747
 3604POPC   GL248770  36.224  27.146   5.736
 3604POPC   C1A48771  36.330  26.586   6.162
 3604POPC   D2A48772  36.426  26.730   6.567
 3604POPC   C3A48773  36.435  26.521   6.947
 3604POPC   C4A48774  36.282  26.709   7.315
 3604POPC   C1B48775  36.020  27.003   6.104
 3604POPC   C2B48776  35.980  27.038   6.520
 3604POPC   C3B48777  36.014  26.871   6.896
 3604POPC   C4B48778  35.841  26.962   7.308
 3605POPC   NC348779  11.627  44.711   5.071
 3605POPC   PO448780  11.036  44.839   5.497
 3605POPC   GL148781  11.147  44.610   5.860
 3605POPC   GL248782  11.516  44.588   5.809
 3605POPC   C1A48783  11.310  44.419   6.241
 3605POPC   D2A48784  11.543  44.577   6.584
 3605POPC   C3A48785  11.396  44.400   6.917
 3605POPC   C4A48786  11.115  44.436   7.233
 3605POPC   C1B48787  11.489  44.891   6.169
 3605POPC   C2B48788  11.251  44.997   6.539
 3605POPC   C3B48789  11.213  44.880   6.971
 3605POPC   C4B48790  11.382  44.877   7.380
 3606POPC   NC348791  42.186   7.867   5.503
 3606POPC   PO448792  42.599   7.387   5.381
 3606POPC   GL148793  42.498   7.551   5.779
 3606POPC   GL248794  42.142   7.527   5.899
 3606POPC   C1A48795  42.582   7.435   6.189
 3606POPC   D2A48796  42.481   7.575   6.593
 3606POPC   C3A48797  42.391   7.324   6.947
 3606POPC   C4A48798  42.620   7.299   7.328
 3606POPC   C1B48799  42.323   7.885   6.178
 3606POPC   C2B48800  42.323   8.053   6.630
 3606POPC   C3B48801  42.489   7.872   7.032
 3606POPC   C4B48802  42.242   7.630   7.336
 3607POPC   NC348803  34.177  33.790   5.538
 3607POPC   PO448804  34.742  33.402   5.357
 3607POPC   GL148805  34.585  33.568   5.748
 3607POPC   GL248806  34.746  33.852   5.864
 3607POPC   C1A48807  34.418  33.678   6.182
 3607POPC   D2A48808  34.643  33.747   6.558
 3607POPC   C3A48809  34.406  33.629   6.940
 3607POPC   C4A48810  34.227  33.752   7.325
 3607POPC   C1B48811  34.856  34.092   6.227
 3607POPC   C2B48812  34.930  34.213   6.639
 3607POPC   C3B48813  34.677  34.071   6.979
 3607POPC   C4B48814  34.534  34.192   7.391
 3608POPC   NC348815  41.273   1.430   5.557
 3608POPC   PO448816  41.855   1.109   5.405
 3608POPC   GL148817  41.629   1.108   5.774
 3608POPC   GL248818  41.732   1.473   5.807
 3608POPC   C1A48819  41.416   1.044   6.192
 3608POPC   D2A48820  41.429   1.397   6.523
 3608POPC   C3A48821  41.318   1.319   6.976
 3608POPC   C4A48822  41.241   0.901   7.172
 3608POPC   C1B48823  41.850   1.291   6.203
 3608POPC   C2B48824  41.830   0.994   6.537
 3608POPC   C3B48825  41.699   0.971   6.960
 3608POPC   C4B48826  41.778   0.982   7.399
 3609POPC   NC348827  27.570   4.635   5.465
 3609POPC   PO448828  27.812   4.002   5.334
 3609POPC   GL148829  27.859   4.269   5.703
 3609POPC   GL248830  27.964   4.631   5.817
 3609POPC   C1A48831  27.592   4.281   6.065
 3609POPC   D2A48832  27.684   4.401   6.467
 3609POPC   C3A48833  27.686   4.199   6.855
 3609POPC   C4A48834  27.496   4.338   7.249
 3609POPC   C1B48835  27.809   4.832   6.219
 3609POPC   C2B48836  27.896   4.820   6.671
 3609POPC   C3B48837  27.820   4.665   7.069
 3609POPC   C4B48838  27.806   4.642   7.539
 3610POPC   NC348839   1.583  28.233   5.298
 3610POPC   PO448840   2.190  28.038   5.462
 3610POPC   GL148841   1.862  28.234   5.744
 3610POPC   GL248842   1.496  28.103   5.774
 3610POPC   C1A48843   1.875  28.299   6.200
 3610POPC   D2A48844   2.180  28.397   6.560
 3610POPC   C3A48845   2.119  28.446   7.034
 3610POPC   C4A48846   1.803  28.631   7.333
 3610POPC   C1B48847   1.505  27.890   6.164
 3610POPC   C2B48848   1.580  28.087   6.561
 3610POPC   C3B48849   1.568  27.957   6.985
 3610POPC   C4B48850   1.812  28.105   7.321
 3611POPC   NC348851  32.429  35.631   5.306
 3611POPC   PO448852  31.852  35.315   5.443
 3611POPC   GL148853  32.128  35.286   5.770
 3611POPC   GL248854  32.328  35.001   5.753
 3611POPC   C1A48855  32.015  35.254   6.220
 3611POPC   D2A48856  32.195  35.117   6.602
 3611POPC   C3A48857  31.895  35.115   6.927
 3611POPC   C4A48858  32.110  35.219   7.306
 3611POPC   C1B48859  32.517  35.192   6.159
 3611POPC   C2B48860  32.711  35.069   6.565
 3611POPC   C3B48861  32.601  35.177   6.988
 3611POPC   C4B48862  32.601  35.376   7.412
 3612POPC   NC348863  20.526  32.576   5.468
 3612POPC   PO448864  20.392  31.964   5.574
 3612POPC   GL148865  20.614  32.250   5.872
 3612POPC   GL248866  20.870  32.551   5.864
 3612POPC   C1A48867  20.537  32.330   6.305
 3612POPC   D2A48868  20.541  32.640   6.627
 3612POPC   C3A48869  20.533  32.473   7.033
 3612POPC   C4A48870  20.411  32.150   7.318
 3612POPC   C1B48871  20.959  32.633   6.324
 3612POPC   C2B48872  21.021  32.517   6.779
 3612POPC   C3B48873  20.957  32.178   7.095
 3612POPC   C4B48874  20.854  32.405   7.453
 3613POPC   NC348875  16.881   5.545   5.207
 3613POPC   PO448876  16.557   6.098   5.195
 3613POPC   GL148877  16.603   5.877   5.612
 3613POPC   GL248878  16.279   5.825   5.785
 3613POPC   C1A48879  16.779   5.811   6.060
 3613POPC   D2A48880  16.783   6.072   6.456
 3613POPC   C3A48881  16.838   5.930   6.901
 3613POPC   C4A48882  16.682   6.194   7.233
 3613POPC   C1B48883  16.291   5.669   6.227
 3613POPC   C2B48884  16.438   5.706   6.661
 3613POPC   C3B48885  16.319   5.859   7.076
 3613POPC   C4B48886  16.103   5.785   7.482
 3614POPC   NC348887  33.313  30.908   5.186
 3614POPC   PO448888  32.805  30.408   5.417
 3614POPC   GL148889  33.018  30.483   5.885
 3614POPC   GL248890  33.302  30.767   5.877
 3614POPC   C1A48891  32.766  30.623   6.295
 3614POPC   D2A48892  32.653  30.662   6.788
 3614POPC   C3A48893  32.589  30.447   7.177
 3614POPC   C4A48894  32.410  30.465   7.600
 3614POPC   C1B48895  33.348  30.581   6.285
 3614POPC   C2B48896  33.092  30.346   6.590
 3614POPC   C3B48897  33.065  30.364   7.027
 3614POPC   C4B48898  33.112  30.744   7.240
 3615POPC   NC348899  32.508  11.099   5.456
 3615POPC   PO448900  32.000  11.514   5.340
 3615POPC   GL148901  32.170  11.379   5.744
 3615POPC   GL248902  32.160  10.984   5.821
 3615POPC   C1A48903  32.423  11.338   6.115
 3615POPC   D2A48904  32.450  11.237   6.543
 3615POPC   C3A48905  32.439  11.547   6.869
 3615POPC   C4A48906  32.244  11.572   7.266
 3615POPC   C1B48907  32.156  10.889   6.283
 3615POPC   C2B48908  32.348  10.719   6.666
 3615POPC   C3B48909  32.458  11.000   6.996
 3615POPC   C4B48910  32.044  11.156   7.055
 3616POPC   NC348911  35.718   0.916   5.329
 3616POPC   PO448912  36.064   1.509   5.061
 3616POPC   GL148913  36.013   1.334   5.529
 3616POPC   GL248914  36.208   1.053   5.603
 3616POPC   C1A48915  35.920   1.243   5.995
 3616POPC   D2A48916  36.089   1.192   6.444
 3616POPC   C3A48917  36.039   1.287   6.882
 3616POPC   C4A48918  36.197   1.416   7.284
 3616POPC   C1B48919  36.432   1.081   6.008
 3616POPC   C2B48920  36.474   0.864   6.400
 3616POPC   C3B48921  36.475   0.981   6.813
 3616POPC   C4B48922  36.533   0.958   7.233
 3617POPC   NC348923  29.336  10.644   5.481
 3617POPC   PO448924  29.100  11.288   5.327
 3617POPC   GL148925  28.942  11.310   5.773
 3617POPC   GL248926  29.156  11.584   5.928
 3617POPC   C1A48927  29.053  11.195   6.254
 3617POPC   D2A48928  29.369  11.148   6.626
 3617POPC   C3A48929  29.230  11.144   7.044
 3617POPC   C4A48930  28.828  11.172   7.085
 3617POPC   C1B48931  29.514  11.482   6.245
 3617POPC   C2B48932  29.767  11.459   6.667
 3617POPC   C3B48933  29.512  11.563   7.052
 3617POPC   C4B48934  29.026  11.642   7.078
 3618POPC   NC348935  18.604   6.206   5.508
 3618POPC   PO448936  18.286   6.793   5.338
 3618POPC   GL148937  18.326   6.655   5.732
 3618POPC   GL248938  18.059   6.469   5.678
 3618POPC   C1A48939  18.308   6.877   6.154
 3618POPC   D2A48940  18.467   7.020   6.566
 3618POPC   C3A48941  18.256   6.850   6.928
 3618POPC   C4A48942  18.301   6.599   7.306
 3618POPC   C1B48943  18.096   6.381   6.113
 3618POPC   C2B48944  18.032   6.515   6.527
 3618POPC   C3B48945  18.125   6.338   6.902
 3618POPC   C4B48946  17.916   6.259   7.256
 3619POPC   NC348947  34.340  16.214   5.577
 3619POPC   PO448948  34.886  15.777   5.446
 3619POPC   GL148949  34.611  15.814   5.797
 3619POPC   GL248950  34.736  16.145   5.933
 3619POPC   C1A48951  34.384  15.842   6.194
 3619POPC   D2A48952  34.363  16.233   6.442
 3619POPC   C3A48953  34.340  16.207   6.913
 3619POPC   C4A48954  34.396  15.808   7.141
 3619POPC   C1B48955  35.036  15.850   6.179
 3619POPC   C2B48956  35.188  15.763   6.635
 3619POPC   C3B48957  34.943  15.780   7.040
 3619POPC   C4B48958  34.765  15.569   7.399
 3620POPC   NC348959   9.869  10.564   5.367
 3620POPC   PO448960   9.419  10.131   5.494
 3620POPC   GL148961   9.592  10.499   5.825
 3620POPC   GL248962   9.945  10.606   5.869
 3620POPC   C1A48963   9.654  10.755   6.262
 3620POPC   D2A48964   9.405  10.711   6.662
 3620POPC   C3A48965   9.646  10.692   7.025
 3620POPC   C4A48966   9.943  10.979   7.161
 3620POPC   C1B48967   9.877  10.280   6.216
 3620POPC   C2B48968   9.771  10.319   6.677
 3620POPC   C3B48969  10.082  10.377   7.052
 3620POPC   C4B48970  10.188  10.152   7.469
 3621POPC   NC348971   3.061  33.464   5.487
 3621POPC   PO448972   2.423  33.820   5.557
 3621POPC   GL148973   2.718  33.834   5.855
 3621POPC   GL248974   2.705  33.481   5.861
 3621POPC   C1A48975   2.818  33.835   6.301
 3621POPC   D2A48976   2.648  33.740   6.716
 3621POPC   C3A48977   2.583  34.061   7.043
 3621POPC   C4A48978   2.731  34.092   7.485
 3621POPC   C1B48979   2.998  33.376   6.164
 3621POPC   C2B48980   3.082  33.441   6.597
 3621POPC   C3B48981   2.989  33.551   7.031
 3621POPC   C4B48982   2.902  33.551   7.485
 3622POPC   NC348983  22.266  16.895   5.047
 3622POPC   PO448984  22.269  16.495   5.468
 3622POPC   GL148985  22.160  16.642   5.838
 3622POPC   GL248986  22.487  16.770   5.911
 3622POPC   C1A48987  22.147  16.670   6.295
 3622POPC   D2A48988  22.288  16.525   6.707
 3622POPC   C3A48989  22.371  16.816   7.061
 3622POPC   C4A48990  22.048  16.944   7.377
 3622POPC   C1B48991  22.666  16.728   6.369
 3622POPC   C2B48992  22.783  16.518   6.798
 3622POPC   C3B48993  22.531  16.330   7.132
 3622POPC   C4B48994  22.329  16.521   7.540
 3623POPC   NC348995  44.218  43.003   5.596
 3623POPC   PO448996  43.552  42.832   5.545
 3623POPC   GL148997  43.786  42.994   5.882
 3623POPC   GL248998  43.824  43.353   5.721
 3623POPC   C1A48999  43.993  42.832   6.284
 3623POPC   D2A49000  43.904  42.674   6.728
 3623POPC   C3A49001  43.854  42.969   7.091
 3623POPC   C4A49002  43.992  42.949   7.551
 3623POPC   C1B49003  43.776  43.422   6.161
 3623POPC   C2B49004  43.913  43.288   6.564
 3623POPC   C3B49005  43.809  43.457   6.951
 3623POPC   C4B49006  43.949  43.420   7.347
 3624POPC   NC349007  35.237  27.175   5.372
 3624POPC   PO449008  35.439  27.778   5.280
 3624POPC   GL149009  35.356  27.624   5.719
 3624POPC   GL249010  35.143  27.341   5.857
 3624POPC   C1A49011  35.559  27.576   6.110
 3624POPC   D2A49012  35.718  27.490   6.489
 3624POPC   C3A49013  35.646  27.732   6.849
 3624POPC   C4A49014  35.386  27.608   7.193
 3624POPC   C1B49015  35.079  27.579   6.244
 3624POPC   C2B49016  35.155  27.653   6.686
 3624POPC   C3B49017  35.013  27.333   6.972
 3624POPC   C4B49018  34.950  27.353   7.392
 3625POPC   NC349019  34.331  44.512   5.321
 3625POPC   PO449020  35.017  44.672   5.280
 3625POPC   GL149021  34.639  44.698   5.681
 3625POPC   GL249022  34.284  44.610   5.831
 3625POPC   C1A49023  34.624  44.770   6.165
 3625POPC   D2A49024  34.371  44.792   6.551
 3625POPC   C3A49025  34.599  44.906   6.929
 3625POPC   C4A49026  34.900  44.891   7.261
 3625POPC   C1B49027  34.296  44.341   6.243
 3625POPC   C2B49028  34.380  44.317   6.711
 3625POPC   C3B49029  34.565  44.431   7.111
 3625POPC   C4B49030  34.342  44.602   7.452
 3626POPC   NC349031  40.585  26.819   5.334
 3626POPC   PO449032  41.113  27.155   5.566
 3626POPC   GL149033  40.815  27.059   5.890
 3626POPC   GL249034  40.683  26.734   5.825
 3626POPC   C1A49035  40.808  27.126   6.355
 3626POPC   D2A49036  41.021  27.247   6.761
 3626POPC   C3A49037  40.905  26.983   7.094
 3626POPC   C4A49038  40.830  26.585   7.211
 3626POPC   C1B49039  40.552  26.650   6.247
 3626POPC   C2B49040  40.522  26.797   6.643
 3626POPC   C3B49041  40.383  26.710   7.022
 3626POPC   C4B49042  40.495  26.847   7.460
 3627POPC   NC349043  31.606  29.776   5.521
 3627POPC   PO449044  31.140  30.192   5.227
 3627POPC   GL149045  31.269  30.209   5.705
 3627POPC   GL249046  31.167  29.904   5.876
 3627POPC   C1A49047  31.409  30.305   6.152
 3627POPC   D2A49048  31.358  30.421   6.606
 3627POPC   C3A49049  31.339  30.103   6.946
 3627POPC   C4A49050  31.117  29.881   7.270
 3627POPC   C1B49051  31.546  29.820   6.166
 3627POPC   C2B49052  31.802  29.742   6.531
 3627POPC   C3B49053  31.729  29.432   6.843
 3627POPC   C4B49054  31.555  29.645   7.160
 3628POPC   NC349055  35.544  29.021   5.262
 3628POPC   PO449056  35.608  29.458   5.770
 3628POPC   GL149057  35.518  29.024   5.832
 3628POPC   GL249058  35.158  29.004   5.794
 3628POPC   C1A49059  35.431  28.880   6.262
 3628POPC   D2A49060  35.557  29.152   6.620
 3628POPC   C3A49061  35.447  29.070   7.056
 3628POPC   C4A49062  35.624  28.773   7.333
 3628POPC   C1B49063  35.062  29.223   6.203
 3628POPC   C2B49064  34.871  29.281   6.633
 3628POPC   C3B49065  34.895  29.569   6.971
 3628POPC   C4B49066  35.134  29.454   7.318
 3629POPC   NC349067  43.349  31.188   5.522
 3629POPC   PO449068  42.813  31.379   5.188
 3629POPC   GL149069  42.979  31.519   5.689
 3629POPC   GL249070  43.285  31.716   5.823
 3629POPC   C1A49071  43.163  31.304   6.139
 3629POPC   D2A49072  43.429  31.254   6.544
 3629POPC   C3A49073  43.257  31.262   6.953
 3629POPC   C4A49074  43.328  31.459   7.377
 3629POPC   C1B49075  43.434  31.702   6.280
 3629POPC   C2B49076  43.122  31.687   6.640
 3629POPC   C3B49077  42.985  31.674   7.096
 3629POPC   C4B49078  42.975  31.790   7.595
 3630POPC   NC349079  33.027   6.383   5.384
 3630POPC   PO449080  32.941   5.702   5.200
 3630POPC   GL149081  32.781   5.832   5.626
 3630POPC   GL249082  32.649   5.519   5.767
 3630POPC   C1A49083  32.987   5.988   6.016
 3630POPC   D2A49084  33.116   5.776   6.384
 3630POPC   C3A49085  32.994   5.865   6.814
 3630POPC   C4A49086  33.225   5.974   7.169
 3630POPC   C1B49087  32.635   5.648   6.206
 3630POPC   C2B49088  32.736   5.462   6.616
 3630POPC   C3B49089  32.596   5.589   7.063
 3630POPC   C4B49090  32.737   5.817   7.430
 3631POPC   NC349091  32.734  29.970   5.255
 3631POPC   PO449092  33.306  29.555   5.405
 3631POPC   GL149093  33.041  29.634   5.739
 3631POPC   GL249094  33.111  29.980   5.788
 3631POPC   C1A49095  32.906  29.568   6.176
 3631POPC   D2A49096  32.953  29.837   6.546
 3631POPC   C3A49097  33.039  29.667   6.951
 3631POPC   C4A49098  33.043  29.834   7.328
 3631POPC   C1B49099  33.335  30.042   6.197
 3631POPC   C2B49100  33.538  30.103   6.610
 3631POPC   C3B49101  33.428  30.011   7.037
 3631POPC   C4B49102  33.386  30.161   7.500
 3632POPC   NC349103  21.700  30.434   5.433
 3632POPC   PO449104  22.363  30.359   5.560
 3632POPC   GL149105  22.318  30.622   5.902
 3632POPC   GL249106  22.029  30.846   5.855
 3632POPC   C1A49107  22.440  30.733   6.306
 3632POPC   D2A49108  22.256  30.648   6.719
 3632POPC   C3A49109  22.470  30.660   7.113
 3632POPC   C4A49110  22.300  30.538   7.542
 3632POPC   C1B49111  21.906  30.621   6.202
 3632POPC   C2B49112  21.746  30.749   6.578
 3632POPC   C3B49113  21.778  30.712   7.014
 3632POPC   C4B49114  22.057  30.915   7.295
 3633POPC   NC349115  13.689  22.552   5.440
 3633POPC   PO449116  13.264  22.059   5.422
 3633POPC   GL149117  13.509  22.182   5.781
 3633POPC   GL249118  13.394  22.523   5.885
 3633POPC   C1A49119  13.739  22.024   6.152
 3633POPC   D2A49120  13.914  22.013   6.555
 3633POPC   C3A49121  13.687  21.992   6.935
 3633POPC   C4A49122  13.656  22.349   7.212
 3633POPC   C1B49123  13.714  22.513   6.248
 3633POPC   C2B49124  13.784  22.489   6.718
 3633POPC   C3B49125  14.008  22.712   7.048
 3633POPC   C4B49126  13.784  22.849   7.442
 3634POPC   NC349127  17.551  12.015   5.343
 3634POPC   PO449128  17.013  11.668   5.446
 3634POPC   GL149129  17.379  11.867   5.791
 3634POPC   GL249130  17.704  12.138   5.809
 3634POPC   C1A49131  17.710  11.731   6.104
 3634POPC   D2A49132  17.807  11.703   6.533
 3634POPC   C3A49133  17.570  11.889   6.859
 3634POPC   C4A49134  17.692  11.787   7.278
 3634POPC   C1B49135  17.496  12.193   6.207
 3634POPC   C2B49136  17.228  12.296   6.593
 3634POPC   C3B49137  17.254  12.273   7.019
 3634POPC   C4B49138  17.664  12.301   7.202
 3635POPC   NC349139   1.509  15.284   5.103
 3635POPC   PO449140   1.220  15.019   5.359
 3635POPC   GL149141   1.307  14.958   5.807
 3635POPC   GL249142   1.377  15.293   5.900
 3635POPC   C1A49143   1.162  14.963   6.243
 3635POPC   D2A49144   1.046  14.969   6.687
 3635POPC   C3A49145   1.250  15.001   7.103
 3635POPC   C4A49146   1.417  15.067   7.515
 3635POPC   C1B49147   1.450  15.376   6.361
 3635POPC   C2B49148   1.353  15.409   6.809
 3635POPC   C3B49149   1.610  15.410   7.197
 3635POPC   C4B49150   1.799  15.391   7.649
 3636POPC   NC349151  37.248  13.814   5.357
 3636POPC   PO449152  37.316  14.165   5.929
 3636POPC   GL149153  36.988  13.803   5.860
 3636POPC   GL249154  36.609  13.652   5.824
 3636POPC   C1A49155  36.801  13.762   6.283
 3636POPC   D2A49156  36.972  13.568   6.640
 3636POPC   C3A49157  36.900  13.775   7.001
 3636POPC   C4A49158  36.984  13.518   7.359
 3636POPC   C1B49159  36.397  13.467   6.225
 3636POPC   C2B49160  36.427  13.584   6.673
 3636POPC   C3B49161  36.556  13.431   7.085
 3636POPC   C4B49162  36.535  13.556   7.559
 3637POPC   NC349163   7.259  20.656   5.353
 3637POPC   PO449164   7.756  21.090   5.463
 3637POPC   GL149165   7.682  20.655   5.716
 3637POPC   GL249166   7.299  20.539   5.835
 3637POPC   C1A49167   7.638  20.585   6.179
 3637POPC   D2A49168   7.463  20.892   6.457
 3637POPC   C3A49169   7.346  20.730   6.853
 3637POPC   C4A49170   7.615  20.655   7.167
 3637POPC   C1B49171   7.131  20.426   6.260
 3637POPC   C2B49172   7.236  20.245   6.664
 3637POPC   C3B49173   7.091  20.336   7.084
 3637POPC   C4B49174   6.924  20.750   7.240
 3638POPC   NC349175  40.100   1.871   5.410
 3638POPC   PO449176  39.688   1.501   5.808
 3638POPC   GL149177  40.041   1.835   5.916
 3638POPC   GL249178  40.419   1.819   5.903
 3638POPC   C1A49179  40.072   2.065   6.282
 3638POPC   D2A49180  39.721   1.879   6.492
 3638POPC   C3A49181  39.724   1.943   6.914
 3638POPC   C4A49182  39.804   2.198   7.249
 3638POPC   C1B49183  40.503   1.752   6.369
 3638POPC   C2B49184  40.179   1.759   6.704
 3638POPC   C3B49185  40.207   1.898   7.111
 3638POPC   C4B49186  40.196   1.739   7.573
 3639POPC   NC349187  29.684  17.371   5.605
 3639POPC   PO449188  29.209  17.793   5.415
 3639POPC   GL149189  29.200  17.417   5.699
 3639POPC   GL249190  28.906  17.358   5.806
 3639POPC   C1A49191  29.276  17.171   6.103
 3639POPC   D2A49192  29.400  17.314   6.503
 3639POPC   C3A49193  29.130  17.283   6.867
 3639POPC   C4A49194  29.294  17.358   7.250
 3639POPC   C1B49195  29.120  17.643   6.155
 3639POPC   C2B49196  29.140  17.759   6.611
 3639POPC   C3B49197  29.102  17.800   7.063
 3639POPC   C4B49198  28.771  17.716   7.344
 3640POPC   NC349199  29.993  14.165   5.422
 3640POPC   PO449200  30.049  14.783   5.163
 3640POPC   GL149201  30.189  14.636   5.629
 3640POPC   GL249202  29.926  14.445   5.838
 3640POPC   C1A49203  30.362  14.683   6.096
 3640POPC   D2A49204  30.421  14.508   6.569
 3640POPC   C3A49205  30.212  14.692   6.981
 3640POPC   C4A49206  30.043  14.524   7.406
 3640POPC   C1B49207  29.881  14.669   6.222
 3640POPC   C2B49208  29.901  14.515   6.607
 3640POPC   C3B49209  29.825  14.344   6.973
 3640POPC   C4B49210  29.574  14.493   7.248
 3641POPC   NC349211  33.278  27.136   5.273
 3641POPC   PO449212  32.666  27.073   5.283
 3641POPC   GL149213  32.983  26.991   5.679
 3641POPC   GL249214  33.325  27.136   5.788
 3641POPC   C1A49215  33.086  26.802   6.120
 3641POPC   D2A49216  32.953  26.591   6.531
 3641POPC   C3A49217  33.099  26.802   6.933
 3641POPC   C4A49218  32.962  26.954   7.337
 3641POPC   C1B49219  33.326  27.293   6.227
 3641POPC   C2B49220  33.358  27.180   6.665
 3641POPC   C3B49221  33.187  27.311   7.069
 3641POPC   C4B49222  33.234  27.342   7.547
 3642POPC   NC349223  13.950  30.834   5.237
 3642POPC   PO449224  13.362  30.833   5.618
 3642POPC   GL149225  13.654  30.671   5.864
 3642POPC   GL249226  13.739  30.390   5.696
 3642POPC   C1A49227  13.542  30.616   6.281
 3642POPC   D2A49228  13.371  30.762   6.656
 3642POPC   C3A49229  13.664  30.715   6.987
 3642POPC   C4A49230  13.828  30.815   7.391
 3642POPC   C1B49231  13.860  30.235   6.117
 3642POPC   C2B49232  13.902  30.396   6.567
 3642POPC   C3B49233  13.483  30.272   6.733
 3642POPC   C4B49234  13.207  30.475   7.058
 3643POPC   NC349235  15.941   4.030   5.297
 3643POPC   PO449236  15.827   3.486   5.446
 3643POPC   GL149237  15.973   3.490   5.821
 3643POPC   GL249238  15.951   3.844   5.882
 3643POPC   C1A49239  15.803   3.409   6.217
 3643POPC   D2A49240  15.685   3.490   6.624
 3643POPC   C3A49241  15.947   3.308   6.920
 3643POPC   C4A49242  15.839   3.503   7.290
 3643POPC   C1B49243  16.127   3.835   6.308
 3643POPC   C2B49244  16.099   3.802   6.755
 3643POPC   C3B49245  16.272   3.676   7.151
 3643POPC   C4B49246  16.104   3.833   7.563
 3644POPC   NC349247  29.701  15.073   5.155
 3644POPC   PO449248  30.247  15.442   5.299
 3644POPC   GL149249  29.996  15.162   5.602
 3644POPC   GL249250  29.635  15.163   5.709
 3644POPC   C1A49251  30.040  15.117   6.075
 3644POPC   D2A49252  30.234  15.006   6.496
 3644POPC   C3A49253  30.088  15.181   6.892
 3644POPC   C4A49254  30.222  15.197   7.317
 3644POPC   C1B49255  29.518  15.143   6.154
 3644POPC   C2B49256  29.694  15.019   6.545
 3644POPC   C3B49257  29.679  14.883   6.949
 3644POPC   C4B49258  29.697  15.142   7.299
 3645POPC   NC349259  44.326   5.982   5.350
 3645POPC   PO449260   0.024   6.002   5.378
 3645POPC   GL149261  44.784   5.937   5.754
 3645POPC   GL249262  44.589   5.629   5.707
 3645POPC   C1A49263  44.764   5.820   6.207
 3645POPC   D2A49264  44.688   5.984   6.640
 3645POPC   C3A49265  44.843   5.862   7.063
 3645POPC   C4A49266  44.614   5.788   7.462
 3645POPC   C1B49267  44.322   5.551   6.093
 3645POPC   C2B49268  44.461   5.528   6.537
 3645POPC   C3B49269  44.377   5.657   6.965
 3645POPC   C4B49270  44.132   5.607   7.362
 3646POPC   NC349271  31.588  44.423   5.552
 3646POPC   PO449272  31.532   0.092   5.369
 3646POPC   GL149273  31.313  44.877   5.772
 3646POPC   GL249274  31.288  44.523   5.947
 3646POPC   C1A49275  31.243  44.968   6.230
 3646POPC   D2A49276  31.211  44.995   6.694
 3646POPC   C3A49277  31.235  44.702   7.054
 3646POPC   C4A49278  31.329  44.674   7.506
 3646POPC   C1B49279  31.643  44.622   6.229
 3646POPC   C2B49280  31.683  44.738   6.672
 3646POPC   C3B49281  31.722  44.524   7.059
 3646POPC   C4B49282  31.917  44.242   7.349
 3647POPC   NC349283   8.885  33.671   5.328
 3647POPC   PO449284   9.446  33.447   5.665
 3647POPC   GL149285   9.036  33.717   5.819
 3647POPC   GL249286   8.681  33.913   5.745
 3647POPC   C1A49287   8.876  33.628   6.229
 3647POPC   D2A49288   9.191  33.556   6.552
 3647POPC   C3A49289   9.251  33.792   6.947
 3647POPC   C4A49290   9.123  33.673   7.363
 3647POPC   C1B49291   8.703  34.102   6.163
 3647POPC   C2B49292   8.832  33.981   6.624
 3647POPC   C3B49293   8.837  34.053   7.102
 3647POPC   C4B49294   8.556  33.946   7.453
 3648POPC   NC349295  17.366  13.662   5.423
 3648POPC   PO449296  17.844  13.180   5.546
 3648POPC   GL149297  17.540  13.412   5.851
 3648POPC   GL249298  17.530  13.790   5.885
 3648POPC   C1A49299  17.545  13.511   6.314
 3648POPC   D2A49300  17.666  13.315   6.700
 3648POPC   C3A49301  17.593  13.632   7.015
 3648POPC   C4A49302  17.864  13.766   7.370
 3648POPC   C1B49303  17.166  13.852   6.176
 3648POPC   C2B49304  17.137  13.984   6.636
 3648POPC   C3B49305  17.337  14.071   7.051
 3648POPC   C4B49306  17.369  13.839   7.445
 3649POPC   NC349307  25.572  19.000   5.451
 3649POPC   PO449308  24.935  18.964   5.422
 3649POPC   GL149309  25.159  18.749   5.732
 3649POPC   GL249310  25.361  18.987   5.923
 3649POPC   C1A49311  25.103  18.621   6.152
 3649POPC   D2A49312  25.169  18.897   6.481
 3649POPC   C3A49313  25.170  18.821   6.911
 3649POPC   C4A49314  25.392  18.982   7.258
 3649POPC   C1B49315  25.551  19.184   6.293
 3649POPC   C2B49316  25.530  19.210   6.770
 3649POPC   C3B49317  25.491  19.459   7.154
 3649POPC   C4B49318  25.356  19.395   7.592
 3650POPC   NC349319   8.090   9.069   4.966
 3650POPC   PO449320   8.459   9.108   5.515
 3650POPC   GL149321   8.182   8.966   5.838
 3650POPC   GL249322   8.003   8.661   5.724
 3650POPC   C1A49323   8.077   9.090   6.283
 3650POPC   D2A49324   8.247   9.408   6.586
 3650POPC   C3A49325   8.258   9.307   7.051
 3650POPC   C4A49326   8.168   8.986   7.359
 3650POPC   C1B49327   8.075   8.592   6.186
 3650POPC   C2B49328   8.126   8.706   6.635
 3650POPC   C3B49329   8.188   8.509   7.039
 3650POPC   C4B49330   8.227   8.502   7.493
 3651POPC   NC349331  41.489  17.744   5.272
 3651POPC   PO449332  41.292  17.116   5.428
 3651POPC   GL149333  41.505  17.367   5.784
 3651POPC   GL249334  41.437  17.720   5.791
 3651POPC   C1A49335  41.711  17.557   6.198
 3651POPC   D2A49336  41.865  17.619   6.643
 3651POPC   C3A49337  41.625  17.415   6.994
 3651POPC   C4A49338  41.677  17.158   7.330
 3651POPC   C1B49339  41.268  17.836   6.215
 3651POPC   C2B49340  41.363  17.707   6.650
 3651POPC   C3B49341  41.558  17.914   7.037
 3651POPC   C4B49342  41.400  17.776   7.437
 3652POPC   NC349343  14.109   3.042   5.397
 3652POPC   PO449344  13.460   2.793   5.289
 3652POPC   GL149345  13.489   2.714   5.721
 3652POPC   GL249346  13.709   3.012   5.789
 3652POPC   C1A49347  13.433   2.698   6.177
 3652POPC   D2A49348  13.700   2.662   6.538
 3652POPC   C3A49349  13.491   2.695   6.918
 3652POPC   C4A49350  13.575   2.562   7.336
 3652POPC   C1B49351  13.682   3.183   6.221
 3652POPC   C2B49352  13.456   3.161   6.606
 3652POPC   C3B49353  13.422   3.239   7.048
 3652POPC   C4B49354  13.733   3.042   7.295
 3653POPC   NC349355  12.217  26.248   5.483
 3653POPC   PO449356  11.678  26.123   5.312
 3653POPC   GL149357  11.832  26.154   5.809
 3653POPC   GL249358  12.207  26.081   5.965
 3653POPC   C1A49359  11.804  26.026   6.251
 3653POPC   D2A49360  12.175  26.133   6.551
 3653POPC   C3A49361  12.037  26.206   6.972
 3653POPC   C4A49362  11.812  26.029   7.291
 3653POPC   C1B49363  12.498  25.840   6.264
 3653POPC   C2B49364  12.488  25.650   6.688
 3653POPC   C3B49365  12.291  25.652   7.090
 3653POPC   C4B49366  12.417  25.865   7.464
 3654POPC   NC349367  13.958  29.162   5.470
 3654POPC   PO449368  13.436  28.867   5.262
 3654POPC   GL149369  13.465  29.022   5.738
 3654POPC   GL249370  13.802  28.954   5.906
 3654POPC   C1A49371  13.472  29.170   6.212
 3654POPC   D2A49372  13.681  28.974   6.585
 3654POPC   C3A49373  13.559  29.141   7.017
 3654POPC   C4A49374  13.429  28.984   7.449
 3654POPC   C1B49375  13.991  29.237   6.230
 3654POPC   C2B49376  13.914  29.409   6.667
 3654POPC   C3B49377  13.986  29.453   7.097
 3654POPC   C4B49378  13.749  29.400   7.483
 3655POPC   NC349379  22.062   2.500   5.219
 3655POPC   PO449380  22.443   2.870   5.593
 3655POPC   GL149381  22.156   2.724   5.813
 3655POPC   GL249382  21.943   2.995   5.773
 3655POPC   C1A49383  22.229   2.504   6.191
 3655POPC   D2A49384  22.311   2.259   6.560
 3655POPC   C3A49385  22.425   2.538   6.853
 3655POPC   C4A49386  22.492   2.820   7.210
 3655POPC   C1B49387  21.836   2.835   6.191
 3655POPC   C2B49388  21.962   2.668   6.603
 3655POPC   C3B49389  22.021   2.830   7.025
 3655POPC   C4B49390  22.068   2.921   7.500
 3656POPC   NC349391  23.753  11.979   5.454
 3656POPC   PO449392  24.300  12.008   5.592
 3656POPC   GL149393  23.953  11.989   5.932
 3656POPC   GL249394  23.592  11.841   5.916
 3656POPC   C1A49395  23.835  12.089   6.365
 3656POPC   D2A49396  23.679  11.941   6.772
 3656POPC   C3A49397  23.770  12.173   7.169
 3656POPC   C4A49398  24.052  12.496   7.343
 3656POPC   C1B49399  23.344  11.934   6.293
 3656POPC   C2B49400  23.139  11.952   6.696
 3656POPC   C3B49401  23.314  11.947   7.114
 3656POPC   C4B49402  23.521  11.915   7.523
 3657POPC   NC349403  40.458  15.424   5.568
 3657POPC   PO449404  41.075  15.068   5.523
 3657POPC   GL149405  40.764  15.079   5.820
 3657POPC   GL249406  40.878  15.430   5.853
 3657POPC   C1A49407  40.673  15.142   6.264
 3657POPC   D2A49408  40.910  15.210   6.648
 3657POPC   C3A49409  40.641  15.189   7.002
 3657POPC   C4A49410  40.447  14.871   7.232
 3657POPC   C1B49411  40.970  15.577   6.235
 3657POPC   C2B49412  41.172  15.664   6.589
 3657POPC   C3B49413  41.040  15.574   7.010
 3657POPC   C4B49414  40.987  15.593   7.454
 3658POPC   NC349415  41.016  39.540   5.449
 3658POPC   PO449416  40.767  38.925   5.564
 3658POPC   GL149417  40.787  39.220   5.915
 3658POPC   GL249418  40.482  39.370   6.017
 3658POPC   C1A49419  40.759  39.132   6.364
 3658POPC   D2A49420  40.635  39.152   6.797
 3658POPC   C3A49421  40.872  39.300   7.147
 3658POPC   C4A49422  40.857  39.323   7.590
 3658POPC   C1B49423  40.510  39.560   6.454
 3658POPC   C2B49424  40.468  39.601   6.925
 3658POPC   C3B49425  40.406  39.340   7.327
 3658POPC   C4B49426  40.386  39.211   7.788
 3659POPC   NC349427  41.246  19.835   5.211
 3659POPC   PO449428  40.638  19.612   5.526
 3659POPC   GL149429  40.868  19.926   5.745
 3659POPC   GL249430  40.899  19.655   6.005
 3659POPC   C1A49431  41.003  20.122   6.156
 3659POPC   D2A49432  40.984  19.903   6.576
 3659POPC   C3A49433  40.932  20.106   7.012
 3659POPC   C4A49434  40.892  19.993   7.474
 3659POPC   C1B49435  40.558  19.827   6.252
 3659POPC   C2B49436  40.423  19.992   6.679
 3659POPC   C3B49437  40.419  19.984   7.151
 3659POPC   C4B49438  40.424  19.737   7.552
 3660POPC   NC349439  36.342  39.211   5.333
 3660POPC   PO449440  35.910  39.559   5.368
 3660POPC   GL149441  36.144  39.410   5.781
 3660POPC   GL249442  35.942  39.242   6.062
 3660POPC   C1A49443  36.440  39.270   6.157
 3660POPC   D2A49444  36.527  39.082   6.594
 3660POPC   C3A49445  36.321  39.249   6.980
 3660POPC   C4A49446  36.035  39.041   7.295
 3660POPC   C1B49447  36.035  39.291   6.538
 3660POPC   C2B49448  35.838  39.408   6.971
 3660POPC   C3B49449  35.621  39.355   7.387
 3660POPC   C4B49450  35.767  39.210   7.791
 3661POPC   NC349451  23.250   1.486   5.597
 3661POPC   PO449452  22.821   1.396   5.028
 3661POPC   GL149453  22.758   1.282   5.504
 3661POPC   GL249454  22.782   1.536   5.821
 3661POPC   C1A49455  22.826   1.053   5.931
 3661POPC   D2A49456  23.005   1.112   6.360
 3661POPC   C3A49457  22.791   1.092   6.774
 3661POPC   C4A49458  22.852   0.967   7.210
 3661POPC   C1B49459  23.004   1.612   6.233
 3661POPC   C2B49460  22.877   1.594   6.690
 3661POPC   C3B49461  22.965   1.485   7.157
 3661POPC   C4B49462  22.921   1.651   7.609
 3662POPC   NC349463  10.701  26.189   5.697
 3662POPC   PO449464  10.256  25.749   5.544
 3662POPC   GL149465  10.252  26.075   5.928
 3662POPC   GL249466  10.300  26.445   5.915
 3662POPC   C1A49467  10.284  26.217   6.375
 3662POPC   D2A49468  10.501  25.983   6.687
 3662POPC   C3A49469  10.382  25.919   7.089
 3662POPC   C4A49470  10.752  25.846   7.377
 3662POPC   C1B49471  10.645  26.590   6.209
 3662POPC   C2B49472  10.724  26.675   6.654
 3662POPC   C3B49473  10.660  26.392   7.004
 3662POPC   C4B49474  10.479  26.277   7.427
 3663POPC   NC349475  44.413  29.440   5.665
 3663POPC   PO449476  44.800  29.918   5.356
 3663POPC   GL149477  44.639  30.104   5.745
 3663POPC   GL249478  44.929  30.298   5.860
 3663POPC   C1A49479  44.414  29.992   6.159
 3663POPC   D2A49480  44.486  30.187   6.584
 3663POPC   C3A49481  44.320  29.995   6.983
 3663POPC   C4A49482  44.380  29.665   7.339
 3663POPC   C1B49483  44.900  30.099   6.289
 3663POPC   C2B49484  44.683  29.725   6.572
 3663POPC   C3B49485  44.793  29.803   6.991
 3663POPC   C4B49486  44.932  30.242   7.017
 3664POPC   NC349487  36.489  43.801   5.160
 3664POPC   PO449488  36.237  44.400   5.378
 3664POPC   GL149489  36.242  43.982   5.628
 3664POPC   GL249490  35.883  43.868   5.675
 3664POPC   C1A49491  36.415  43.829   6.055
 3664POPC   D2A49492  36.494  44.097   6.434
 3664POPC   C3A49493  36.444  43.911   6.854
 3664POPC   C4A49494  36.477  43.879   7.298
 3664POPC   C1B49495  35.927  43.903   6.127
 3664POPC   C2B49496  36.101  43.722   6.524
 3664POPC   C3B49497  35.933  43.807   6.967
 3664POPC   C4B49498  35.982  43.817   7.449
 3665POPC   NC349499  18.757   6.741   5.366
 3665POPC   PO449500  19.161   6.314   5.407
 3665POPC   GL149501  18.950   6.485   5.780
 3665POPC   GL249502  18.781   6.806   5.897
 3665POPC   C1A49503  19.126   6.564   6.172
 3665POPC   D2A49504  18.961   6.823   6.502
 3665POPC   C3A49505  19.201   6.682   6.820
 3665POPC   C4A49506  19.220   6.340   7.108
 3665POPC   C1B49507  18.612   6.480   6.203
 3665POPC   C2B49508  18.553   6.503   6.651
 3665POPC   C3B49509  18.727   6.711   7.010
 3665POPC   C4B49510  19.043   6.836   7.276
 3666POPC   NC349511  11.460   0.020   5.534
 3666POPC   PO449512  11.163   0.662   5.471
 3666POPC   GL149513  11.181   0.472   5.884
 3666POPC   GL249514  11.113   0.132   5.912
 3666POPC   C1A49515  11.416   0.419   6.294
 3666POPC   D2A49516  11.566   0.776   6.562
 3666POPC   C3A49517  11.540   0.817   7.002
 3666POPC   C4A49518  11.537   0.497   7.331
 3666POPC   C1B49519  10.886   0.254   6.282
 3666POPC   C2B49520  10.985   0.457   6.606
 3666POPC   C3B49521  11.250   0.398   6.918
 3666POPC   C4B49522  11.085   0.270   7.315
 3667POPC   NC349523   7.240   7.482   5.390
 3667POPC   PO449524   7.823   7.090   5.455
 3667POPC   GL149525   7.683   7.355   5.809
 3667POPC   GL249526   7.681   7.709   5.807
 3667POPC   C1A49527   7.291   7.298   6.047
 3667POPC   D2A49528   7.115   7.383   6.467
 3667POPC   C3A49529   7.337   7.397   6.841
 3667POPC   C4A49530   7.317   7.114   7.151
 3667POPC   C1B49531   7.462   7.751   6.210
 3667POPC   C2B49532   7.459   7.876   6.643
 3667POPC   C3B49533   7.171   7.871   6.969
 3667POPC   C4B49534   7.237   7.765   7.365
 3668POPC   NC349535   5.264  41.318   5.515
 3668POPC   PO449536   5.010  41.915   5.364
 3668POPC   GL149537   5.074  41.723   5.799
 3668POPC   GL249538   5.331  41.523   5.981
 3668POPC   C1A49539   4.869  41.572   6.204
 3668POPC   D2A49540   4.919  41.341   6.602
 3668POPC   C3A49541   5.056  41.363   7.038
 3668POPC   C4A49542   4.845  41.229   7.441
 3668POPC   C1B49543   5.280  41.840   6.300
 3668POPC   C2B49544   5.036  41.834   6.701
 3668POPC   C3B49545   5.220  41.856   7.108
 3668POPC   C4B49546   5.549  41.988   7.407
 3669POPC   NC349547  40.554  43.467   5.510
 3669POPC   PO449548  40.981  42.931   5.388
 3669POPC   GL149549  40.836  43.129   5.750
 3669POPC   GL249550  41.047  43.432   5.736
 3669POPC   C1A49551  40.687  43.340   6.129
 3669POPC   D2A49552  40.836  43.403   6.533
 3669POPC   C3A49553  40.626  43.124   6.825
 3669POPC   C4A49554  40.682  43.262   7.228
 3669POPC   C1B49555  41.190  43.280   6.146
 3669POPC   C2B49556  41.318  43.169   6.531
 3669POPC   C3B49557  41.125  43.175   6.898
 3669POPC   C4B49558  41.227  43.241   7.273
 3670POPC   NC349559  18.259   4.641   5.006
 3670POPC   PO449560  18.486   5.041   5.532
 3670POPC   GL149561  18.380   5.226   5.916
 3670POPC   GL249562  18.030   5.142   5.938
 3670POPC   C1A49563  18.586   5.367   6.320
 3670POPC   D2A49564  18.528   5.097   6.669
 3670POPC   C3A49565  18.516   5.209   7.108
 3670POPC   C4A49566  18.508   5.112   7.560
 3670POPC   C1B49567  18.094   5.450   6.285
 3670POPC   C2B49568  18.155   5.433   6.698
 3670POPC   C3B49569  18.052   5.082   6.966
 3670POPC   C4B49570  18.045   5.206   7.404
 3671POPC   NC349571  10.260  36.685   5.300
 3671POPC   PO449572  10.319  37.354   5.443
 3671POPC   GL149573  10.336  37.077   5.781
 3671POPC   GL249574  10.494  36.749   5.748
 3671POPC   C1A49575  10.293  37.032   6.221
 3671POPC   D2A49576  10.441  37.193   6.607
 3671POPC   C3A49577  10.317  36.899   6.920
 3671POPC   C4A49578  10.199  36.828   7.345
 3671POPC   C1B49579  10.768  36.966   6.029
 3671POPC   C2B49580  10.852  36.930   6.444
 3671POPC   C3B49581  10.870  37.018   6.875
 3671POPC   C4B49582  10.696  36.866   7.263
 3672POPC   NC349583  15.408  35.999   5.258
 3672POPC   PO449584  14.855  36.261   5.492
 3672POPC   GL149585  15.002  35.997   5.784
 3672POPC   GL249586  15.372  36.038   5.770
 3672POPC   C1A49587  14.924  36.024   6.216
 3672POPC   D2A49588  15.202  36.040   6.557
 3672POPC   C3A49589  15.083  36.161   6.948
 3672POPC   C4A49590  14.963  35.967   7.294
 3672POPC   C1B49591  15.496  36.220   6.174
 3672POPC   C2B49592  15.613  36.333   6.628
 3672POPC   C3B49593  15.609  36.044   6.927
 3672POPC   C4B49594  15.461  35.972   7.299
 3673POPC   NC349595  20.019  36.420   5.412
 3673POPC   PO449596  19.704  35.826   5.359
 3673POPC   GL149597  19.696  35.878   5.811
 3673POPC   GL249598  19.889  36.166   5.847
 3673POPC   C1A49599  19.674  36.016   6.275
 3673POPC   D2A49600  19.808  35.918   6.696
 3673POPC   C3A49601  19.673  36.107   7.087
 3673POPC   C4A49602  19.638  36.076   7.560
 3673POPC   C1B49603  20.232  36.270   6.135
 3673POPC   C2B49604  20.235  36.117   6.516
 3673POPC   C3B49605  20.136  36.249   6.917
 3673POPC   C4B49606  20.112  36.194   7.352
 3674POPC   NC349607  30.430  15.023   5.229
 3674POPC   PO449608  30.911  15.433   5.395
 3674POPC   GL149609  30.837  15.106   5.747
 3674POPC   GL249610  30.473  15.067   5.756
 3674POPC   C1A49611  30.706  15.046   6.213
 3674POPC   D2A49612  30.731  15.208   6.622
 3674POPC   C3A49613  30.623  15.045   7.008
 3674POPC   C4A49614  30.880  15.378   7.170
 3674POPC   C1B49615  30.425  15.456   6.028
 3674POPC   C2B49616  30.377  15.557   6.480
 3674POPC   C3B49617  30.430  15.555   6.935
 3674POPC   C4B49618  30.477  15.663   7.368
 3675POPC   NC349619  35.926  28.766   5.628
 3675POPC   PO449620  36.319  28.239   5.392
 3675POPC   GL149621  36.133  28.206   5.806
 3675POPC   GL249622  35.777  28.238   5.748
 3675POPC   C1A49623  36.170  28.439   6.220
 3675POPC   D2A49624  36.365  28.633   6.596
 3675POPC   C3A49625  36.215  28.482   6.989
 3675POPC   C4A49626  36.118  28.645   7.409
 3675POPC   C1B49627  35.659  28.441   6.146
 3675POPC   C2B49628  35.814  28.663   6.522
 3675POPC   C3B49629  35.648  28.546   6.885
 3675POPC   C4B49630  35.796  28.290   7.192
 3676POPC   NC349631  16.203  20.346   5.453
 3676POPC   PO449632  15.612  20.646   5.465
 3676POPC   GL149633  15.742  20.753   5.886
 3676POPC   GL249634  16.066  20.853   5.883
 3676POPC   C1A49635  15.936  20.613   6.315
 3676POPC   D2A49636  16.071  20.471   6.744
 3676POPC   C3A49637  15.816  20.394   7.113
 3676POPC   C4A49638  15.686  20.618   7.467
 3676POPC   C1B49639  16.361  20.934   6.235
 3676POPC   C2B49640  16.282  20.937   6.682
 3676POPC   C3B49641  16.166  20.803   7.124
 3676POPC   C4B49642  16.317  20.455   7.312
 3677POPC   NC349643  39.579  35.354   5.354
 3677POPC   PO449644  40.170  35.591   5.322
 3677POPC   GL149645  39.976  35.321   5.652
 3677POPC   GL249646  40.164  35.256   5.881
 3677POPC   C1A49647  39.704  35.422   6.040
 3677POPC   D2A49648  39.627  35.325   6.497
 3677POPC   C3A49649  39.804  35.412   6.942
 3677POPC   C4A49650  39.991  35.153   7.317
 3677POPC   C1B49651  40.118  35.331   6.342
 3677POPC   C2B49652  40.265  35.283   6.774
 3677POPC   C3B49653  40.294  35.537   7.182
 3677POPC   C4B49654  40.286  35.428   7.654
 3678POPC   NC349655  19.157  44.593   5.458
 3678POPC   PO449656  18.759   0.108   5.741
 3678POPC   GL149657  19.091  44.823   5.912
 3678POPC   GL249658  18.963  44.486   5.959
 3678POPC   C1A49659  19.410  44.726   6.237
 3678POPC   D2A49660  19.402  44.940   6.641
 3678POPC   C3A49661  19.337  44.676   7.013
 3678POPC   C4A49662  19.087  44.462   7.371
 3678POPC   C1B49663  18.967  44.550   6.454
 3678POPC   C2B49664  18.943  44.356   6.890
 3678POPC   C3B49665  18.873  44.028   7.224
 3678POPC   C4B49666  18.914  44.063   7.671
 3679POPC   NC349667  10.741  25.326   5.320
 3679POPC   PO449668  10.138  24.969   5.384
 3679POPC   GL149669  10.399  25.250   5.693
 3679POPC   GL249670  10.545  24.947   5.828
 3679POPC   C1A49671  10.685  25.566   6.019
 3679POPC   D2A49672  10.881  25.685   6.478
 3679POPC   C3A49673  10.704  25.551   6.924
 3679POPC   C4A49674  10.408  25.463   7.301
 3679POPC   C1B49675  10.500  25.132   6.190
 3679POPC   C2B49676  10.631  25.210   6.559
 3679POPC   C3B49677  10.440  25.105   6.946
 3679POPC   C4B49678  10.576  24.981   7.325
 3680POPC   NC349679  36.387  35.647   5.395
 3680POPC   PO449680  35.778  35.408   5.174
 3680POPC   GL149681  36.014  35.247   5.613
 3680POPC   GL249682  36.249  35.441   5.829
 3680POPC   C1A49683  35.953  35.105   6.084
 3680POPC   D2A49684  35.852  35.241   6.543
 3680POPC   C3A49685  36.128  35.183   6.923
 3680POPC   C4A49686  36.490  35.026   7.117
 3680POPC   C1B49687  36.080  35.587   6.212
 3680POPC   C2B49688  36.343  35.486   6.561
 3680POPC   C3B49689  36.417  35.625   6.987
 3680POPC   C4B49690  36.611  35.853   7.352
 3681POPC   NC349691  23.924   2.918   5.467
 3681POPC   PO449692  23.306   2.637   5.206
 3681POPC   GL149693  23.502   2.699   5.669
 3681POPC   GL249694  23.445   2.997   5.890
 3681POPC   C1A49695  23.653   2.586   6.111
 3681POPC   D2A49696  23.998   2.634   6.406
 3681POPC   C3A49697  23.884   2.526   6.822
 3681POPC   C4A49698  23.973   2.572   7.251
 3681POPC   C1B49699  23.849   3.062   6.141
 3681POPC   C2B49700  24.000   3.121   6.585
 3681POPC   C3B49701  23.731   3.009   6.942
 3681POPC   C4B49702  23.472   2.703   7.140
 3682POPC   NC349703   1.668  18.113   5.576
 3682POPC   PO449704   1.211  18.440   5.209
 3682POPC   GL149705   1.224  18.486   5.695
 3682POPC   GL249706   0.870  18.513   5.846
 3682POPC   C1A49707   1.345  18.283   6.137
 3682POPC   D2A49708   1.629  18.145   6.496
 3682POPC   C3A49709   1.478  18.252   6.940
 3682POPC   C4A49710   1.347  18.242   7.385
 3682POPC   C1B49711   0.999  18.633   6.253
 3682POPC   C2B49712   1.023  18.368   6.615
 3682POPC   C3B49713   0.900  18.346   7.051
 3682POPC   C4B49714   0.958  18.579   7.423
 3683POPC   NC349715  24.174   6.444   5.408
 3683POPC   PO449716  24.815   6.641   5.542
 3683POPC   GL149717  24.524   6.391   5.789
 3683POPC   GL249718  24.302   6.682   5.871
 3683POPC   C1A49719  24.309   6.247   6.182
 3683POPC   D2A49720  24.518   6.165   6.586
 3683POPC   C3A49721  24.420   6.349   6.993
 3683POPC   C4A49722  24.763   6.404   7.257
 3683POPC   C1B49723  24.600   6.672   6.248
 3683POPC   C2B49724  24.730   6.665   6.697
 3683POPC   C3B49725  24.650   6.869   7.097
 3683POPC   C4B49726  24.760   7.034   7.523
 3684POPC   NC349727  38.637   2.158   5.351
 3684POPC   PO449728  38.165   1.742   5.481
 3684POPC   GL149729  38.383   1.970   5.828
 3684POPC   GL249730  38.566   2.258   5.826
 3684POPC   C1A49731  38.515   1.869   6.257
 3684POPC   D2A49732  38.349   1.782   6.675
 3684POPC   C3A49733  38.664   1.858   6.995
 3684POPC   C4A49734  38.537   1.778   7.416
 3684POPC   C1B49735  38.405   2.400   6.186
 3684POPC   C2B49736  38.384   2.288   6.597
 3684POPC   C3B49737  38.283   2.182   6.990
 3684POPC   C4B49738  38.536   2.291   7.304
 3685POPC   NC349739  36.572  26.181   5.415
 3685POPC   PO449740  37.122  25.728   5.261
 3685POPC   GL149741  36.951  25.909   5.674
 3685POPC   GL249742  36.608  25.805   5.751
 3685POPC   C1A49743  36.999  26.035   6.141
 3685POPC   D2A49744  36.932  25.849   6.579
 3685POPC   C3A49745  37.028  25.985   7.027
 3685POPC   C4A49746  36.932  25.818   7.460
 3685POPC   C1B49747  36.484  26.088   6.088
 3685POPC   C2B49748  36.504  26.202   6.515
 3685POPC   C3B49749  36.519  26.004   6.923
 3685POPC   C4B49750  36.608  26.182   7.315
 3686POPC   NC349751  12.385  14.454   5.509
 3686POPC   PO449752  13.008  14.283   5.278
 3686POPC   GL149753  12.858  14.333   5.748
 3686POPC   GL249754  12.549  14.226   5.950
 3686POPC   C1A49755  12.833  14.568   6.184
 3686POPC   D2A49756  12.763  14.646   6.644
 3686POPC   C3A49757  12.717  14.371   6.998
 3686POPC   C4A49758  12.776  14.490   7.403
 3686POPC   C1B49759  12.773  14.053   6.302
 3686POPC   C2B49760  12.964  14.074   6.688
 3686POPC   C3B49761  13.190  14.172   7.085
 3686POPC   C4B49762  13.244  14.338   7.507
 3687POPC   NC349763  40.289  22.035   5.158
 3687POPC   PO449764  39.824  21.632   5.180
 3687POPC   GL149765  40.081  21.951   5.597
 3687POPC   GL249766  39.904  22.241   5.773
 3687POPC   C1A49767  40.158  21.921   6.089
 3687POPC   D2A49768  40.290  22.123   6.502
 3687POPC   C3A49769  40.179  21.994   6.921
 3687POPC   C4A49770  40.276  22.189   7.308
 3687POPC   C1B49771  39.931  22.392   6.243
 3687POPC   C2B49772  39.814  22.351   6.717
 3687POPC   C3B49773  39.670  22.491   7.161
 3687POPC   C4B49774  39.764  22.534   7.615
 3688POPC   NC349775  32.485   1.834   5.442
 3688POPC   PO449776  32.301   2.487   5.437
 3688POPC   GL149777  32.202   2.171   5.725
 3688POPC   GL249778  32.559   2.161   5.833
 3688POPC   C1A49779  32.186   1.946   6.123
 3688POPC   D2A49780  32.061   2.010   6.565
 3688POPC   C3A49781  32.341   2.025   6.911
 3688POPC   C4A49782  32.123   1.854   7.261
 3688POPC   C1B49783  32.584   2.308   6.268
 3688POPC   C2B49784  32.801   2.179   6.638
 3688POPC   C3B49785  32.844   2.043   7.059
 3688POPC   C4B49786  32.609   1.913   7.377
 3689POPC   NC349787  39.675  13.075   5.361
 3689POPC   PO449788  39.130  12.788   5.532
 3689POPC   GL149789  39.225  12.748   5.912
 3689POPC   GL249790  39.533  12.734   5.911
 3689POPC   C1A49791  39.123  12.776   6.325
 3689POPC   D2A49792  39.345  12.939   6.618
 3689POPC   C3A49793  39.207  12.782   6.932
 3689POPC   C4A49794  39.026  12.588   7.258
 3689POPC   C1B49795  39.591  12.554   6.276
 3689POPC   C2B49796  39.769  12.674   6.644
 3689POPC   C3B49797  39.717  12.943   6.993
 3689POPC   C4B49798  39.558  12.635   7.246
 3690POPC   NC349799  41.679  29.533   5.499
 3690POPC   PO449800  41.754  28.987   5.232
 3690POPC   GL149801  41.455  29.068   5.601
 3690POPC   GL249802  41.692  29.156   5.849
 3690POPC   C1A49803  41.205  29.225   6.000
 3690POPC   D2A49804  41.251  29.333   6.468
 3690POPC   C3A49805  41.218  29.131   6.891
 3690POPC   C4A49806  41.311  29.329   7.299
 3690POPC   C1B49807  41.737  28.860   6.168
 3690POPC   C2B49808  41.583  28.934   6.565
 3690POPC   C3B49809  41.711  29.211   6.904
 3690POPC   C4B49810  41.659  28.965   7.255
 3691POPC   NC349811  11.660  43.166   5.384
 3691POPC   PO449812  10.995  43.200   5.419
 3691POPC   GL149813  11.282  43.192   5.747
 3691POPC   GL249814  11.355  42.849   5.709
 3691POPC   C1A49815  11.471  43.069   6.151
 3691POPC   D2A49816  11.291  43.065   6.551
 3691POPC   C3A49817  11.499  43.010   6.940
 3691POPC   C4A49818  11.380  43.081   7.366
 3691POPC   C1B49819  10.986  42.802   6.011
 3691POPC   C2B49820  10.907  42.726   6.476
 3691POPC   C3B49821  10.937  42.901   6.894
 3691POPC   C4B49822  10.938  42.836   7.337
 3692POPC   NC349823  21.961  39.477   5.384
 3692POPC   PO449824  22.297  38.932   5.450
 3692POPC   GL149825  22.219  39.262   5.778
 3692POPC   GL249826  21.839  39.307   5.845
 3692POPC   C1A49827  22.232  39.486   6.182
 3692POPC   D2A49828  22.395  39.474   6.611
 3692POPC   C3A49829  22.142  39.412   7.010
 3692POPC   C4A49830  22.106  39.229   7.439
 3692POPC   C1B49831  21.969  39.041   6.193
 3692POPC   C2B49832  22.079  39.064   6.624
 3692POPC   C3B49833  22.028  38.902   7.040
 3692POPC   C4B49834  21.797  38.778   7.396
 3693POPC   NC349835   3.344  38.208   5.544
 3693POPC   PO449836   3.412  38.844   5.449
 3693POPC   GL149837   3.402  38.607   5.881
 3693POPC   GL249838   3.694  38.393   5.932
 3693POPC   C1A49839   3.401  38.354   6.326
 3693POPC   D2A49840   3.439  38.044   6.700
 3693POPC   C3A49841   3.453  38.248   7.118
 3693POPC   C4A49842   3.241  38.095   7.503
 3693POPC   C1B49843   3.708  38.749   6.272
 3693POPC   C2B49844   3.550  38.853   6.666
 3693POPC   C3B49845   3.690  38.744   7.068
 3693POPC   C4B49846   3.731  38.682   7.512
 3694POPC   NC349847   3.270   7.004   5.359
 3694POPC   PO449848   3.842   7.445   5.429
 3694POPC   GL149849   3.673   7.260   5.776
 3694POPC   GL249850   3.723   7.573   5.938
 3694POPC   C1A49851   3.502   6.996   6.114
 3694POPC   D2A49852   3.586   6.955   6.577
 3694POPC   C3A49853   3.603   7.248   6.957
 3694POPC   C4A49854   3.785   7.560   7.254
 3694POPC   C1B49855   3.593   7.437   6.351
 3694POPC   C2B49856   3.326   7.594   6.662
 3694POPC   C3B49857   3.388   7.783   7.010
 3694POPC   C4B49858   3.225   7.487   7.265
 3695POPC   NC349859  30.612   4.137   5.384
 3695POPC   PO449860  30.688   4.866   5.462
 3695POPC   GL149861  30.662   4.478   5.810
 3695POPC   GL249862  30.702   4.064   5.863
 3695POPC   C1A49863  30.923   4.364   6.190
 3695POPC   D2A49864  31.073   4.429   6.585
 3695POPC   C3A49865  30.891   4.744   6.839
 3695POPC   C4A49866  30.733   4.593   7.201
 3695POPC   C1B49867  30.415   4.218   6.165
 3695POPC   C2B49868  30.537   4.562   6.452
 3695POPC   C3B49869  30.587   4.332   6.797
 3695POPC   C4B49870  30.550   4.120   7.182
 3696POPC   NC349871   9.343   0.563   5.577
 3696POPC   PO449872   9.939   0.309   5.363
 3696POPC   GL149873   9.833   0.563   5.754
 3696POPC   GL249874   9.917   0.377   6.001
 3696POPC   C1A49875   9.591   0.728   6.169
 3696POPC   D2A49876   9.362   0.842   6.579
 3696POPC   C3A49877   9.532   0.605   6.935
 3696POPC   C4A49878   9.799   0.379   7.217
 3696POPC   C1B49879   9.843   0.348   6.439
 3696POPC   C2B49880   9.995   0.127   6.790
 3696POPC   C3B49881  10.135  44.993   7.187
 3696POPC   C4B49882   9.969   0.050   7.623
 3697POPC   NC349883  11.810  28.213   5.472
 3697POPC   PO449884  12.424  28.464   5.442
 3697POPC   GL149885  12.161  28.453   5.765
 3697POPC   GL249886  12.218  28.103   5.794
 3697POPC   C1A49887  12.134  28.504   6.201
 3697POPC   D2A49888  11.982  28.333   6.572
 3697POPC   C3A49889  12.188  28.314   6.927
 3697POPC   C4A49890  12.103  28.450   7.335
 3697POPC   C1B49891  12.348  28.017   6.202
 3697POPC   C2B49892  12.212  27.873   6.581
 3697POPC   C3B49893  12.427  27.836   6.922
 3697POPC   C4B49894  12.545  28.125   7.253
 3698POPC   NC349895  38.021  10.225   5.262
 3698POPC   PO449896  38.635  10.578   5.305
 3698POPC   GL149897  38.496  10.522   5.739
 3698POPC   GL249898  38.296  10.217   5.753
 3698POPC   C1A49899  38.403  10.658   6.191
 3698POPC   D2A49900  38.491  10.854   6.630
 3698POPC   C3A49901  38.356  10.631   7.012
 3698POPC   C4A49902  38.641  10.521   7.370
 3698POPC   C1B49903  38.555  10.157   6.141
 3698POPC   C2B49904  38.547  10.036   6.602
 3698POPC   C3B49905  38.568  10.139   7.019
 3698POPC   C4B49906  38.212  10.202   7.284
 3699POPC   NC349907  11.052  23.821   5.288
 3699POPC   PO449908  11.648  23.884   5.588
 3699POPC   GL149909  11.326  23.630   5.702
 3699POPC   GL249910  11.152  23.919   5.787
 3699POPC   C1A49911  11.318  23.378   6.055
 3699POPC   D2A49912  11.261  23.241   6.458
 3699POPC   C3A49913  11.483  23.415   6.780
 3699POPC   C4A49914  11.264  23.373   7.153
 3699POPC   C1B49915  11.353  23.889   6.196
 3699POPC   C2B49916  11.217  23.898   6.610
 3699POPC   C3B49917  11.303  23.868   7.025
 3699POPC   C4B49918  11.687  23.729   7.134
 3700POPC   NC349919  18.300   7.205   5.555
 3700POPC   PO449920  18.273   7.861   5.542
 3700POPC   GL149921  18.103   7.595   5.852
 3700POPC   GL249922  18.457   7.509   5.942
 3700POPC   C1A49923  18.066   7.355   6.239
 3700POPC   D2A49924  18.186   7.446   6.662
 3700POPC   C3A49925  18.012   7.287   7.035
 3700POPC   C4A49926  18.256   7.124   7.387
 3700POPC   C1B49927  18.483   7.755   6.316
 3700POPC   C2B49928  18.581   7.736   6.758
 3700POPC   C3B49929  18.428   7.585   7.132
 3700POPC   C4B49930  18.100   7.625   7.424
 3701POPC   NC349931  38.164  27.577   5.440
 3701POPC   PO449932  38.805  27.348   5.687
 3701POPC   GL149933  38.471  27.619   5.863
 3701POPC   GL249934  38.156  27.414   5.906
 3701POPC   C1A49935  38.439  27.827   6.298
 3701POPC   D2A49936  38.538  27.991   6.724
 3701POPC   C3A49937  38.393  27.741   7.049
 3701POPC   C4A49938  38.511  27.455   7.405
 3701POPC   C1B49939  38.372  27.308   6.250
 3701POPC   C2B49940  38.536  27.430   6.638
 3701POPC   C3B49941  38.308  27.253   6.967
 3701POPC   C4B49942  38.037  27.311   7.289
 3702POPC   NC349943  12.492   1.996   5.445
 3702POPC   PO449944  12.980   2.393   5.386
 3702POPC   GL149945  12.942   2.021   5.740
 3702POPC   GL249946  12.646   1.923   5.930
 3702POPC   C1A49947  13.037   2.049   6.235
 3702POPC   D2A49948  13.088   2.422   6.557
 3702POPC   C3A49949  13.032   2.380   7.013
 3702POPC   C4A49950  12.814   2.046   7.227
 3702POPC   C1B49951  12.535   1.708   6.321
 3702POPC   C2B49952  12.632   1.698   6.779
 3702POPC   C3B49953  12.405   1.697   7.172
 3702POPC   C4B49954  12.455   1.923   7.577
 3703POPC   NC349955  31.264  34.404   5.514
 3703POPC   PO449956  30.582  34.521   5.339
 3703POPC   GL149957  30.741  34.569   5.724
 3703POPC   GL249958  30.984  34.786   5.816
 3703POPC   C1A49959  30.529  34.726   6.058
 3703POPC   D2A49960  30.587  34.880   6.446
 3703POPC   C3A49961  30.450  34.588   6.721
 3703POPC   C4A49962  30.381  34.615   7.157
 3703POPC   C1B49963  31.009  34.617   6.189
 3703POPC   C2B49964  31.061  34.747   6.602
 3703POPC   C3B49965  30.893  34.583   6.954
 3703POPC   C4B49966  30.956  34.571   7.340
 3704POPC   NC349967  32.431  31.208   5.221
 3704POPC   PO449968  32.014  31.714   5.201
 3704POPC   GL149969  32.069  31.763   5.683
 3704POPC   GL249970  32.312  31.492   5.777
 3704POPC   C1A49971  32.259  31.892   6.099
 3704POPC   D2A49972  32.468  31.636   6.437
 3704POPC   C3A49973  32.212  31.562   6.810
 3704POPC   C4A49974  32.169  31.755   7.214
 3704POPC   C1B49975  32.043  31.441   6.161
 3704POPC   C2B49976  32.021  31.166   6.511
 3704POPC   C3B49977  31.817  31.189   6.919
 3704POPC   C4B49978  31.927  31.307   7.338
 3705POPC   NC349979  13.033  24.771   5.353
 3705POPC   PO449980  12.431  24.483   5.469
 3705POPC   GL149981  12.635  24.428   5.895
 3705POPC   GL249982  12.966  24.478   5.818
 3705POPC   C1A49983  12.850  24.304   6.293
 3705POPC   D2A49984  12.782  24.332   6.734
 3705POPC   C3A49985  12.567  24.157   7.095
 3705POPC   C4A49986  12.513  24.598   7.259
 3705POPC   C1B49987  13.191  24.677   6.151
 3705POPC   C2B49988  13.047  24.745   6.546
 3705POPC   C3B49989  12.972  24.792   6.967
 3705POPC   C4B49990  13.001  24.445   7.197
 3706POPC   NC349991  11.168  38.359   5.046
 3706POPC   PO449992  11.519  38.851   5.397
 3706POPC   GL149993  11.447  38.603   5.781
 3706POPC   GL249994  11.136  38.403   5.738
 3706POPC   C1A49995  11.425  38.751   6.227
 3706POPC   D2A49996  11.567  38.628   6.652
 3706POPC   C3A49997  11.336  38.704   7.040
 3706POPC   C4A49998  10.944  38.919   7.179
 3706POPC   C1B49999  11.284  38.235   6.155
 3706POPC   C2B50000  11.548  38.133   6.541
 3706POPC   C3B50001  11.381  38.186   6.953
 3706POPC   C4B50002  11.109  38.139   7.301
 3707POPC   NC350003  40.129  32.058   5.382
 3707POPC   PO450004  39.840  32.570   5.625
 3707POPC   GL150005  40.148  32.398   5.804
 3707POPC   GL250006  39.980  32.132   5.891
 3707POPC   C1A50007  40.165  32.506   6.242
 3707POPC   D2A50008  40.187  32.259   6.585
 3707POPC   C3A50009  40.152  32.392   7.000
 3707POPC   C4A50010  40.081  32.183   7.400
 3707POPC   C1B50011  39.675  31.806   6.025
 3707POPC   C2B50012  39.639  31.757   6.483
 3707POPC   C3B50013  39.546  32.146   6.731
 3707POPC   C4B50014  39.641  32.265   7.150
 3708POPC   NC350015  10.871   0.985   5.662
 3708POPC   PO450016  10.478   1.165   5.050
 3708POPC   GL150017  10.383   1.180   5.579
 3708POPC   GL250018  10.364   1.548   5.703
 3708POPC   C1A50019  10.409   1.176   6.114
 3708POPC   D2A50020  10.317   1.250   6.620
 3708POPC   C3A50021  10.430   1.040   7.063
 3708POPC   C4A50022  10.710   1.141   7.421
 3708POPC   C1B50023  10.716   1.593   6.037
 3708POPC   C2B50024  10.785   1.674   6.517
 3708POPC   C3B50025  10.863   1.563   6.972
 3708POPC   C4B50026  10.483   1.545   7.209
 3709POPC   NC350027   1.111  33.070   5.389
 3709POPC   PO450028   1.720  33.132   5.337
 3709POPC   GL150029   1.468  32.961   5.763
 3709POPC   GL250030   1.108  32.875   5.882
 3709POPC   C1A50031   1.531  32.836   6.206
 3709POPC   D2A50032   1.398  32.975   6.633
 3709POPC   C3A50033   1.564  32.826   7.053
 3709POPC   C4A50034   1.538  32.914   7.520
 3709POPC   C1B50035   1.048  33.216   6.185
 3709POPC   C2B50036   1.037  33.358   6.628
 3709POPC   C3B50037   1.075  33.103   7.018
 3709POPC   C4B50038   1.068  33.121   7.461
 3710POPC   NC350039  40.759  27.954   5.319
 3710POPC   PO450040  40.732  27.265   5.238
 3710POPC   GL150041  40.860  27.576   5.652
 3710POPC   GL250042  40.586  27.741   5.851
 3710POPC   C1A50043  40.996  27.557   6.112
 3710POPC   D2A50044  40.887  27.697   6.535
 3710POPC   C3A50045  41.189  27.746   6.887
 3710POPC   C4A50046  41.290  28.047   7.250
 3710POPC   C1B50047  40.327  27.729   6.225
 3710POPC   C2B50048  40.402  27.629   6.651
 3710POPC   C3B50049  40.702  27.635   7.016
 3710POPC   C4B50050  40.682  27.330   7.389
 3711POPC   NC350051  37.500  33.973   5.279
 3711POPC   PO450052  38.091  33.716   5.488
 3711POPC   GL150053  37.901  33.631   5.861
 3711POPC   GL250054  37.611  33.805   5.761
 3711POPC   C1A50055  37.796  33.768   6.283
 3711POPC   D2A50056  37.981  33.928   6.615
 3711POPC   C3A50057  37.964  33.693   6.957
 3711POPC   C4A50058  38.042  33.889   7.304
 3711POPC   C1B50059  37.385  34.023   6.081
 3711POPC   C2B50060  37.211  33.926   6.482
 3711POPC   C3B50061  37.501  33.897   6.839
 3711POPC   C4B50062  37.489  33.846   7.273
 3712POPC   NC350063   5.306  11.747   5.567
 3712POPC   PO450064   5.921  11.927   5.463
 3712POPC   GL150065   6.106  11.885   5.837
 3712POPC   GL250066   5.979  11.578   5.915
 3712POPC   C1A50067   6.192  12.053   6.236
 3712POPC   D2A50068   6.247  11.975   6.666
 3712POPC   C3A50069   5.847  12.101   6.820
 3712POPC   C4A50070   5.531  12.265   7.118
 3712POPC   C1B50071   5.697  11.828   6.175
 3712POPC   C2B50072   5.492  11.774   6.591
 3712POPC   C3B50073   5.541  11.742   7.032
 3712POPC   C4B50074   5.886  11.849   7.264
 3713POPC   NC350075   8.977  40.637   5.595
 3713POPC   PO450076   9.234  41.042   5.146
 3713POPC   GL150077   9.323  40.975   5.693
 3713POPC   GL250078   9.416  40.705   5.907
 3713POPC   C1A50079   9.081  40.969   6.162
 3713POPC   D2A50080   8.749  40.997   6.494
 3713POPC   C3A50081   8.766  40.718   6.842
 3713POPC   C4A50082   8.845  40.905   7.209
 3713POPC   C1B50083   9.240  40.439   6.145
 3713POPC   C2B50084   9.067  40.460   6.516
 3713POPC   C3B50085   9.313  40.441   6.865
 3713POPC   C4B50086   9.176  40.540   7.254
 3714POPC   NC350087  16.272  35.699   5.248
 3714POPC   PO450088  16.031  35.093   5.400
 3714POPC   GL150089  15.893  35.241   5.798
 3714POPC   GL250090  15.769  35.587   5.894
 3714POPC   C1A50091  16.091  35.272   6.176
 3714POPC   D2A50092  16.047  35.113   6.583
 3714POPC   C3A50093  15.875  35.122   6.973
 3714POPC   C4A50094  16.108  35.367   7.294
 3714POPC   C1B50095  15.660  35.425   6.355
 3714POPC   C2B50096  15.714  35.568   6.761
 3714POPC   C3B50097  15.648  35.518   7.201
 3714POPC   C4B50098  15.748  35.630   7.644
 3715POPC   NC350099  39.239  21.585   5.505
 3715POPC   PO450100  39.287  20.838   5.465
 3715POPC   GL150101  39.249  21.132   5.743
 3715POPC   GL250102  39.597  21.217   5.698
 3715POPC   C1A50103  38.994  21.282   6.118
 3715POPC   D2A50104  38.985  21.493   6.509
 3715POPC   C3A50105  38.952  21.218   6.872
 3715POPC   C4A50106  39.078  21.351   7.273
 3715POPC   C1B50107  39.501  21.230   6.158
 3715POPC   C2B50108  39.304  21.086   6.526
 3715POPC   C3B50109  39.460  21.185   6.950
 3715POPC   C4B50110  39.654  21.088   7.334
 3716POPC   NC350111  30.361   5.902   5.485
 3716POPC   PO450112  29.716   6.036   5.611
 3716POPC   GL150113  29.715   5.909   6.003
 3716POPC   GL250114  29.830   5.573   5.877
 3716POPC   C1A50115  29.749   5.703   6.375
 3716POPC   D2A50116  29.863   5.608   6.777
 3716POPC   C3A50117  29.683   5.911   7.052
 3716POPC   C4A50118  29.736   5.865   7.543
 3716POPC   C1B50119  30.215   5.640   6.098
 3716POPC   C2B50120  30.238   5.842   6.489
 3716POPC   C3B50121  30.363   5.726   6.897
 3716POPC   C4B50122  30.120   5.758   7.222
 3717POPC   NC350123   9.465   8.660   5.368
 3717POPC   PO450124   8.771   8.750   5.080
 3717POPC   GL150125   8.773   8.808   5.765
 3717POPC   GL250126   8.558   8.625   5.937
 3717POPC   C1A50127   8.995   9.008   6.135
 3717POPC   D2A50128   9.241   9.183   6.516
 3717POPC   C3A50129   9.005   9.135   6.917
 3717POPC   C4A50130   9.069   8.937   7.313
 3717POPC   C1B50131   8.539   8.841   6.325
 3717POPC   C2B50132   8.540   8.962   6.768
 3717POPC   C3B50133   8.616   8.776   7.151
 3717POPC   C4B50134   8.620   8.835   7.589
 3718POPC   NC350135   7.939  30.609   5.228
 3718POPC   PO450136   8.531  30.952   5.342
 3718POPC   GL150137   8.373  30.980   5.762
 3718POPC   GL250138   8.022  31.075   5.680
 3718POPC   C1A50139   8.414  30.845   6.229
 3718POPC   D2A50140   8.295  30.529   6.555
 3718POPC   C3A50141   8.054  30.605   6.928
 3718POPC   C4A50142   8.208  30.911   7.224
 3718POPC   C1B50143   7.953  30.878   6.082
 3718POPC   C2B50144   8.025  30.989   6.524
 3718POPC   C3B50145   7.798  31.051   6.905
 3718POPC   C4B50146   7.685  30.820   7.250
 3719POPC   NC350147  40.704  23.504   5.487
 3719POPC   PO450148  40.524  24.181   5.607
 3719POPC   GL150149  40.812  23.969   5.874
 3719POPC   GL250150  40.817  23.623   5.968
 3719POPC   C1A50151  41.119  23.975   6.191
 3719POPC   D2A50152  41.175  23.725   6.561
 3719POPC   C3A50153  40.959  23.801   6.938
 3719POPC   C4A50154  41.001  23.462   7.162
 3719POPC   C1B50155  40.557  23.833   6.297
 3719POPC   C2B50156  40.398  23.816   6.727
 3719POPC   C3B50157  40.489  23.635   7.136
 3719POPC   C4B50158  40.390  23.776   7.566
 3720POPC   NC350159  43.980   9.907   5.687
 3720POPC   PO450160  43.457   9.603   5.409
 3720POPC   GL150161  43.587   9.609   5.841
 3720POPC   GL250162  43.850   9.407   5.883
 3720POPC   C1A50163  43.690   9.727   6.292
 3720POPC   D2A50164  43.904   9.708   6.709
 3720POPC   C3A50165  43.764   9.919   7.102
 3720POPC   C4A50166  43.556  10.062   7.489
 3720POPC   C1B50167  44.127   9.465   6.213
 3720POPC   C2B50168  44.370   9.182   6.491
 3720POPC   C3B50169  44.250   9.232   6.915
 3720POPC   C4B50170  44.155   9.608   7.183
 3721POPC   NC350171  12.677  20.763   5.360
 3721POPC   PO450172  13.322  20.431   5.202
 3721POPC   GL150173  13.076  20.629   5.632
 3721POPC   GL250174  12.739  20.415   5.738
 3721POPC   C1A50175  12.894  20.803   6.048
 3721POPC   D2A50176  12.785  20.625   6.482
 3721POPC   C3A50177  12.739  20.857   6.860
 3721POPC   C4A50178  12.934  20.715   7.244
 3721POPC   C1B50179  12.657  20.241   6.169
 3721POPC   C2B50180  12.593  20.101   6.608
 3721POPC   C3B50181  12.733  20.313   6.992
 3721POPC   C4B50182  12.539  20.364   7.419
 3722POPC   NC350183  21.002   5.321   5.658
 3722POPC   PO450184  20.526   5.015   5.268
 3722POPC   GL150185  20.460   4.977   5.753
 3722POPC   GL250186  20.466   5.319   5.893
 3722POPC   C1A50187  20.345   4.984   6.234
 3722POPC   D2A50188  20.057   5.096   6.573
 3722POPC   C3A50189  20.271   4.994   6.982
 3722POPC   C4A50190  20.365   5.062   7.437
 3722POPC   C1B50191  20.735   5.316   6.296
 3722POPC   C2B50192  20.955   5.209   6.690
 3722POPC   C3B50193  20.895   5.318   7.130
 3722POPC   C4B50194  20.981   5.103   7.520
 3723POPC   NC350195  38.443  11.635   5.605
 3723POPC   PO450196  38.279  12.263   5.511
 3723POPC   GL150197  38.469  12.172   5.869
 3723POPC   GL250198  38.750  12.003   5.797
 3723POPC   C1A50199  38.548  12.244   6.294
 3723POPC   D2A50200  38.412  11.927   6.552
 3723POPC   C3A50201  38.444  12.102   6.935
 3723POPC   C4A50202  38.579  11.843   7.229
 3723POPC   C1B50203  38.832  11.832   6.226
 3723POPC   C2B50204  38.916  11.962   6.656
 3723POPC   C3B50205  38.944  12.144   7.065
 3723POPC   C4B50206  38.980  12.097   7.555
 3724POPC   NC350207   0.272  16.388   5.398
 3724POPC   PO450208   0.204  16.954   5.598
 3724POPC   GL150209   0.336  16.825   5.981
 3724POPC   GL250210   0.519  16.531   5.868
 3724POPC   C1A50211   0.208  16.829   6.422
 3724POPC   D2A50212   0.219  16.579   6.811
 3724POPC   C3A50213   0.281  16.871   7.149
 3724POPC   C4A50214   0.216  16.978   7.580
 3724POPC   C1B50215   0.566  16.484   6.332
 3724POPC   C2B50216   0.679  16.742   6.711
 3724POPC   C3B50217   0.712  16.603   7.141
 3724POPC   C4B50218   0.548  16.579   7.564
 3725POPC   NC350219  26.271  23.712   4.943
 3725POPC   PO450220  26.643  23.824   5.371
 3725POPC   GL150221  26.414  23.739   5.798
 3725POPC   GL250222  26.282  23.397   5.904
 3725POPC   C1A50223  26.223  23.774   6.255
 3725POPC   D2A50224  26.223  23.609   6.712
 3725POPC   C3A50225  26.134  23.798   7.135
 3725POPC   C4A50226  26.159  23.619   7.575
 3725POPC   C1B50227  26.123  23.253   6.341
 3725POPC   C2B50228  25.963  23.163   6.781
 3725POPC   C3B50229  25.930  23.340   7.199
 3725POPC   C4B50230  25.905  23.125   7.608
 3726POPC   NC350231   8.832  32.621   5.279
 3726POPC   PO450232   9.083  33.253   5.247
 3726POPC   GL150233   8.939  33.210   5.682
 3726POPC   GL250234   8.852  32.858   5.738
 3726POPC   C1A50235   9.064  33.134   6.134
 3726POPC   D2A50236   9.113  33.028   6.572
 3726POPC   C3A50237   9.076  33.278   6.965
 3726POPC   C4A50238   9.105  33.165   7.375
 3726POPC   C1B50239   8.746  32.690   6.162
 3726POPC   C2B50240   8.833  32.568   6.610
 3726POPC   C3B50241   8.892  32.790   6.975
 3726POPC   C4B50242   8.625  33.008   7.223
 3727POPC   NC350243   0.957  22.737   5.600
 3727POPC   PO450244   0.278  22.809   5.294
 3727POPC   GL150245   0.464  22.872   5.714
 3727POPC   GL250246   0.155  22.898   5.914
 3727POPC   C1A50247   0.590  22.862   6.178
 3727POPC   D2A50248   0.343  22.924   6.566
 3727POPC   C3A50249   0.527  22.866   6.989
 3727POPC   C4A50250   0.779  23.021   7.327
 3727POPC   C1B50251   0.137  22.538   6.214
 3727POPC   C2B50252   0.237  22.388   6.646
 3727POPC   C3B50253   0.122  22.553   7.070
 3727POPC   C4B50254   0.217  22.579   7.521
 3728POPC   NC350255  43.104  22.800   5.228
 3728POPC   PO450256  43.056  22.147   5.451
 3728POPC   GL150257  43.158  22.151   5.870
 3728POPC   GL250258  43.492  21.981   5.970
 3728POPC   C1A50259  43.053  22.022   6.268
 3728POPC   D2A50260  43.231  22.106   6.653
 3728POPC   C3A50261  42.942  22.166   6.958
 3728POPC   C4A50262  43.106  22.211   7.330
 3728POPC   C1B50263  43.438  22.369   6.253
 3728POPC   C2B50264  43.412  22.622   6.631
 3728POPC   C3B50265  43.416  22.458   7.019
 3728POPC   C4B50266  43.653  22.515   7.387
 3729POPC   NC350267  24.352   4.825   5.562
 3729POPC   PO450268  24.534   4.224   5.346
 3729POPC   GL150269  24.605   4.259   5.771
 3729POPC   GL250270  24.791   4.572   5.715
 3729POPC   C1A50271  24.347   4.144   6.146
 3729POPC   D2A50272  24.033   4.352   6.432
 3729POPC   C3A50273  24.163   4.338   6.872
 3729POPC   C4A50274  24.359   4.315   7.298
 3729POPC   C1B50275  24.557   4.610   6.143
 3729POPC   C2B50276  24.599   4.395   6.528
 3729POPC   C3B50277  24.668   4.495   6.935
 3729POPC   C4B50278  24.930   4.474   7.295
 3730POPC   NC350279  20.391   9.383   5.461
 3730POPC   PO450280  20.765   9.879   5.348
 3730POPC   GL150281  20.689   9.782   5.790
 3730POPC   GL250282  20.770   9.427   5.815
 3730POPC   C1A50283  20.674   9.791   6.270
 3730POPC   D2A50284  20.894   9.836   6.695
 3730POPC   C3A50285  20.696   9.969   7.103
 3730POPC   C4A50286  20.742  10.137   7.562
 3730POPC   C1B50287  20.618   9.273   6.206
 3730POPC   C2B50288  20.581   9.392   6.652
 3730POPC   C3B50289  20.628   9.437   7.089
 3730POPC   C4B50290  20.981   9.596   7.321
 3731POPC   NC350291  34.557  24.993   5.463
 3731POPC   PO450292  34.653  25.606   5.375
 3731POPC   GL150293  34.677  25.425   5.777
 3731POPC   GL250294  34.374  25.581   5.900
 3731POPC   C1A50295  35.009  25.374   6.133
 3731POPC   D2A50296  34.956  25.243   6.577
 3731POPC   C3A50297  34.668  25.484   6.895
 3731POPC   C4A50298  34.549  25.301   7.326
 3731POPC   C1B50299  34.530  25.372   6.292
 3731POPC   C2B50300  34.452  25.088   6.652
 3731POPC   C3B50301  34.387  24.896   7.068
 3731POPC   C4B50302  34.070  24.843   7.411
 3732POPC   NC350303  42.517  30.045   5.352
 3732POPC   PO450304  41.943  29.871   5.660
 3732POPC   GL150305  42.149  30.172   5.908
 3732POPC   GL250306  42.514  30.173   5.873
 3732POPC   C1A50307  42.169  30.182   6.361
 3732POPC   D2A50308  42.124  29.845   6.641
 3732POPC   C3A50309  42.131  29.989   7.046
 3732POPC   C4A50310  42.489  29.835   7.267
 3732POPC   C1B50311  42.680  30.177   6.324
 3732POPC   C2B50312  42.620  30.121   6.779
 3732POPC   C3B50313  42.722  30.286   7.195
 3732POPC   C4B50314  42.741  30.256   7.678
 3733POPC   NC350315   6.244  11.555   5.467
 3733POPC   PO450316   5.988  10.991   5.182
 3733POPC   GL150317   6.026  11.000   5.676
 3733POPC   GL250318   5.717  11.154   5.768
 3733POPC   C1A50319   6.125  11.150   6.136
 3733POPC   D2A50320   5.984  11.508   6.450
 3733POPC   C3A50321   6.030  11.538   6.887
 3733POPC   C4A50322   6.109  11.355   7.287
 3733POPC   C1B50323   5.615  11.275   6.203
 3733POPC   C2B50324   5.428  11.257   6.634
 3733POPC   C3B50325   5.627  11.237   7.036
 3733POPC   C4B50326   5.627  11.432   7.436
 3734POPC   NC350327  34.912  30.434   5.530
 3734POPC   PO450328  34.439  30.837   5.307
 3734POPC   GL150329  34.466  30.648   5.746
 3734POPC   GL250330  34.226  30.879   5.892
 3734POPC   C1A50331  34.706  30.577   6.183
 3734POPC   D2A50332  34.829  30.755   6.638
 3734POPC   C3A50333  34.688  30.527   7.047
 3734POPC   C4A50334  34.721  30.516   7.526
 3734POPC   C1B50335  34.316  30.861   6.336
 3734POPC   C2B50336  34.319  30.723   6.744
 3734POPC   C3B50337  34.355  30.962   7.096
 3734POPC   C4B50338  34.341  30.863   7.538
 3735POPC   NC350339  25.968  21.824   4.850
 3735POPC   PO450340  26.216  22.099   5.385
 3735POPC   GL150341  26.003  21.974   5.811
 3735POPC   GL250342  26.128  22.284   5.928
 3735POPC   C1A50343  25.889  22.010   6.290
 3735POPC   D2A50344  26.054  22.147   6.706
 3735POPC   C3A50345  25.964  21.937   7.094
 3735POPC   C4A50346  25.834  22.087   7.493
 3735POPC   C1B50347  26.053  22.509   6.334
 3735POPC   C2B50348  26.129  22.650   6.773
 3735POPC   C3B50349  25.975  22.448   7.150
 3735POPC   C4B50350  25.818  22.585   7.555
 3736POPC   NC350351  32.852  17.738   5.412
 3736POPC   PO450352  33.261  17.114   5.357
 3736POPC   GL150353  33.154  17.440   5.703
 3736POPC   GL250354  32.779  17.414   5.768
 3736POPC   C1A50355  33.039  17.697   6.100
 3736POPC   D2A50356  33.026  17.548   6.538
 3736POPC   C3A50357  33.282  17.616   6.905
 3736POPC   C4A50358  33.028  17.881   7.133
 3736POPC   C1B50359  32.550  17.431   6.121
 3736POPC   C2B50360  32.491  17.571   6.498
 3736POPC   C3B50361  32.569  17.474   6.904
 3736POPC   C4B50362  32.684  17.536   7.288
 3737POPC   NC350363  37.545  18.630   5.481
 3737POPC   PO450364  37.767  18.050   5.229
 3737POPC   GL150365  37.699  18.171   5.725
 3737POPC   GL250366  37.352  18.277   5.837
 3737POPC   C1A50367  37.775  18.316   6.194
 3737POPC   D2A50368  37.936  18.654   6.468
 3737POPC   C3A50369  37.941  18.513   6.884
 3737POPC   C4A50370  37.950  18.615   7.286
 3737POPC   C1B50371  37.304  18.200   6.297
 3737POPC   C2B50372  37.534  18.274   6.688
 3737POPC   C3B50373  37.539  18.278   7.137
 3737POPC   C4B50374  37.579  17.864   7.238
 3738POPC   NC350375  24.173   8.946   5.405
 3738POPC   PO450376  23.550   9.167   5.148
 3738POPC   GL150377  23.682   8.993   5.613
 3738POPC   GL250378  23.670   8.671   5.863
 3738POPC   C1A50379  23.671   9.120   6.091
 3738POPC   D2A50380  23.591   8.900   6.525
 3738POPC   C3A50381  23.455   9.152   6.904
 3738POPC   C4A50382  23.594   9.256   7.332
 3738POPC   C1B50383  23.979   8.734   6.212
 3738POPC   C2B50384  24.088   8.788   6.651
 3738POPC   C3B50385  23.803   8.783   7.004
 3738POPC   C4B50386  23.426   8.530   7.067
 3739POPC   NC350387   3.219   4.495   5.536
 3739POPC   PO450388   3.790   4.080   5.465
 3739POPC   GL150389   3.629   4.327   5.764
 3739POPC   GL250390   3.736   4.679   5.662
 3739POPC   C1A50391   3.412   4.216   6.147
 3739POPC   D2A50392   3.587   4.011   6.515
 3739POPC   C3A50393   3.545   4.190   6.883
 3739POPC   C4A50394   3.352   4.310   7.208
 3739POPC   C1B50395   3.607   4.696   6.110
 3739POPC   C2B50396   3.581   4.562   6.525
 3739POPC   C3B50397   3.796   4.637   6.915
 3739POPC   C4B50398   3.820   4.504   7.332
 3740POPC   NC350399  29.711  32.316   5.498
 3740POPC   PO450400  29.146  32.430   5.056
 3740POPC   GL150401  29.214  32.323   5.637
 3740POPC   GL250402  29.485  32.109   5.878
 3740POPC   C1A50403  29.059  32.242   6.085
 3740POPC   D2A50404  29.074  32.403   6.518
 3740POPC   C3A50405  29.018  32.096   6.831
 3740POPC   C4A50406  29.049  32.045   7.264
 3740POPC   C1B50407  29.565  32.335   6.243
 3740POPC   C2B50408  29.503  32.128   6.623
 3740POPC   C3B50409  29.512  32.266   7.040
 3740POPC   C4B50410  29.474  32.337   7.489
 3741POPC   NC350411  28.551   0.578   5.370
 3741POPC   PO450412  28.121   0.076   5.394
 3741POPC   GL150413  28.232   0.351   5.764
 3741POPC   GL250414  28.591   0.377   5.838
 3741POPC   C1A50415  28.226   0.505   6.206
 3741POPC   D2A50416  27.870   0.560   6.487
 3741POPC   C3A50417  28.032   0.656   6.899
 3741POPC   C4A50418  28.165   0.373   7.224
 3741POPC   C1B50419  28.744   0.389   6.259
 3741POPC   C2B50420  28.562   0.564   6.631
 3741POPC   C3B50421  28.658   0.327   6.988
 3741POPC   C4B50422  28.640   0.306   7.411
 3742POPC   NC350423  44.230  25.963   5.473
 3742POPC   PO450424  43.708  26.337   5.534
 3742POPC   GL150425  43.991  26.224   5.835
 3742POPC   GL250426  43.781  25.916   5.803
 3742POPC   C1A50427  44.090  26.434   6.253
 3742POPC   D2A50428  43.833  26.464   6.653
 3742POPC   C3A50429  44.050  26.512   7.048
 3742POPC   C4A50430  44.093  26.244   7.409
 3742POPC   C1B50431  43.693  26.129   6.221
 3742POPC   C2B50432  43.925  25.989   6.554
 3742POPC   C3B50433  43.855  26.022   6.979
 3742POPC   C4B50434  43.921  25.788   7.333
 3743POPC   NC350435  20.714  34.949   5.317
 3743POPC   PO450436  20.947  34.300   5.323
 3743POPC   GL150437  20.746  34.575   5.721
 3743POPC   GL250438  20.638  34.957   5.807
 3743POPC   C1A50439  20.534  34.515   6.132
 3743POPC   D2A50440  20.443  34.165   6.446
 3743POPC   C3A50441  20.401  34.290   6.897
 3743POPC   C4A50442  20.564  34.461   7.273
 3743POPC   C1B50443  20.861  34.936   6.161
 3743POPC   C2B50444  20.910  34.612   6.479
 3743POPC   C3B50445  20.723  34.695   6.847
 3743POPC   C4B50446  20.853  34.970   7.156
 3744POPC   NC350447  29.285  38.902   5.446
 3744POPC   PO450448  29.390  39.477   5.470
 3744POPC   GL150449  29.342  39.186   5.850
 3744POPC   GL250450  29.037  38.993   5.919
 3744POPC   C1A50451  29.330  39.312   6.257
 3744POPC   D2A50452  29.210  39.564   6.614
 3744POPC   C3A50453  29.429  39.511   6.984
 3744POPC   C4A50454  29.328  39.139   7.131
 3744POPC   C1B50455  28.916  39.036   6.400
 3744POPC   C2B50456  28.888  39.079   6.878
 3744POPC   C3B50457  28.857  39.156   7.356
 3744POPC   C4B50458  28.804  39.051   7.802
 3745POPC   NC350459  39.502  37.282   4.976
 3745POPC   PO450460  39.161  37.635   5.447
 3745POPC   GL150461  39.151  37.614   5.915
 3745POPC   GL250462  39.126  37.264   6.004
 3745POPC   C1A50463  39.340  37.783   6.324
 3745POPC   D2A50464  39.373  38.088   6.709
 3745POPC   C3A50465  39.445  37.858   7.121
 3745POPC   C4A50466  39.485  37.566   7.497
 3745POPC   C1B50467  39.018  37.334   6.430
 3745POPC   C2B50468  39.135  37.593   6.769
 3745POPC   C3B50469  39.131  37.450   7.152
 3745POPC   C4B50470  38.777  37.372   7.321
 3746POPC   NC350471   5.418  33.698   5.509
 3746POPC   PO450472   4.740  33.670   5.555
 3746POPC   GL150473   5.060  33.608   5.867
 3746POPC   GL250474   5.177  33.942   5.894
 3746POPC   C1A50475   5.086  33.592   6.318
 3746POPC   D2A50476   4.760  33.654   6.616
 3746POPC   C3A50477   4.911  33.641   7.030
 3746POPC   C4A50478   4.943  33.930   7.355
 3746POPC   C1B50479   5.162  34.120   6.298
 3746POPC   C2B50480   5.162  33.999   6.732
 3746POPC   C3B50481   5.378  33.838   7.094
 3746POPC   C4B50482   5.466  34.009   7.497
 3747POPC   NC350483  18.636  31.500   5.363
 3747POPC   PO450484  19.046  31.121   5.627
 3747POPC   GL150485  19.043  31.506   5.843
 3747POPC   GL250486  19.302  31.708   5.671
 3747POPC   C1A50487  19.146  31.470   6.270
 3747POPC   D2A50488  18.963  31.661   6.616
 3747POPC   C3A50489  19.135  31.569   6.999
 3747POPC   C4A50490  19.081  31.550   7.411
 3747POPC   C1B50491  19.505  31.770   6.056
 3747POPC   C2B50492  19.438  31.839   6.498
 3747POPC   C3B50493  19.557  31.824   6.933
 3747POPC   C4B50494  19.505  31.872   7.388
 3748POPC   NC350495  22.999  33.585   5.600
 3748POPC   PO450496  22.612  34.079   5.392
 3748POPC   GL150497  22.740  33.931   5.840
 3748POPC   GL250498  23.106  33.968   5.917
 3748POPC   C1A50499  22.749  33.629   6.201
 3748POPC   D2A50500  22.921  33.725   6.590
 3748POPC   C3A50501  22.747  33.589   6.983
 3748POPC   C4A50502  22.556  33.493   7.344
 3748POPC   C1B50503  23.398  33.918   6.243
 3748POPC   C2B50504  23.361  33.958   6.665
 3748POPC   C3B50505  23.245  33.665   6.988
 3748POPC   C4B50506  23.132  33.641   7.353
 3749POPC   NC350507  17.603  31.117   5.535
 3749POPC   PO450508  17.547  31.875   5.498
 3749POPC   GL150509  17.692  31.651   5.900
 3749POPC   GL250510  17.549  31.300   6.002
 3749POPC   C1A50511  17.742  31.591   6.376
 3749POPC   D2A50512  17.541  31.314   6.697
 3749POPC   C3A50513  17.578  31.404   7.133
 3749POPC   C4A50514  17.735  31.688   7.467
 3749POPC   C1B50515  17.233  31.562   6.225
 3749POPC   C2B50516  17.012  31.526   6.614
 3749POPC   C3B50517  17.088  31.458   7.016
 3749POPC   C4B50518  17.282  31.831   7.204
 3750POPC   NC350519  37.561  31.992   5.596
 3750POPC   PO450520  37.698  31.427   5.238
 3750POPC   GL150521  37.669  31.490   5.664
 3750POPC   GL250522  37.543  31.159   5.720
 3750POPC   C1A50523  37.882  31.623   6.077
 3750POPC   D2A50524  37.847  31.410   6.497
 3750POPC   C3A50525  37.689  31.615   6.852
 3750POPC   C4A50526  37.780  31.576   7.258
 3750POPC   C1B50527  37.450  31.325   6.112
 3750POPC   C2B50528  37.307  31.297   6.517
 3750POPC   C3B50529  37.532  31.103   6.849
 3750POPC   C4B50530  37.700  31.064   7.242
 3751POPC   NC350531  14.340  16.028   5.615
 3751POPC   PO450532  14.424  15.379   5.395
 3751POPC   GL150533  14.395  15.580   5.828
 3751POPC   GL250534  14.670  15.807   5.933
 3751POPC   C1A50535  14.157  15.739   6.221
 3751POPC   D2A50536  14.151  15.991   6.621
 3751POPC   C3A50537  14.174  15.740   6.994
 3751POPC   C4A50538  14.472  15.877   7.286
 3751POPC   C1B50539  14.598  16.030   6.353
 3751POPC   C2B50540  14.641  16.037   6.834
 3751POPC   C3B50541  14.955  15.973   7.210
 3751POPC   C4B50542  14.974  15.870   7.672
 3752POPC   NC350543  11.687  44.152   5.554
 3752POPC   PO450544  11.930  43.548   5.356
 3752POPC   GL150545  11.973  43.781   5.779
 3752POPC   GL250546  12.180  44.032   5.754
 3752POPC   C1A50547  11.763  43.972   6.182
 3752POPC   D2A50548  11.859  44.179   6.572
 3752POPC   C3A50549  11.741  44.021   6.956
 3752POPC   C4A50550  11.818  43.875   7.338
 3752POPC   C1B50551  12.290  43.935   6.215
 3752POPC   C2B50552  12.354  44.108   6.644
 3752POPC   C3B50553  12.270  43.997   7.048
 3752POPC   C4B50554  12.559  43.682   7.199
 3753POPC   NC350555  38.022  42.446   5.513
 3753POPC   PO450556  38.633  42.283   5.396
 3753POPC   GL150557  38.461  42.466   5.789
 3753POPC   GL250558  38.425  42.193   6.028
 3753POPC   C1A50559  38.401  42.692   6.177
 3753POPC   D2A50560  38.526  42.467   6.549
 3753POPC   C3A50561  38.245  42.459   6.902
 3753POPC   C4A50562  38.422  42.398   7.308
 3753POPC   C1B50563  38.782  42.002   6.264
 3753POPC   C2B50564  38.823  41.895   6.714
 3753POPC   C3B50565  38.673  41.991   7.118
 3753POPC   C4B50566  38.603  42.001   7.587
 3754POPC   NC350567  44.126  15.110   5.516
 3754POPC   PO450568  43.497  15.005   5.458
 3754POPC   GL150569  43.737  15.003   5.835
 3754POPC   GL250570  43.745  15.366   5.783
 3754POPC   C1A50571  43.821  14.904   6.274
 3754POPC   D2A50572  43.829  15.140   6.648
 3754POPC   C3A50573  43.830  14.920   7.021
 3754POPC   C4A50574  43.928  15.156   7.366
 3754POPC   C1B50575  44.033  15.372   6.138
 3754POPC   C2B50576  44.272  15.326   6.528
 3754POPC   C3B50577  44.100  15.562   6.857
 3754POPC   C4B50578  44.040  15.715   7.246
 3755POPC   NC350579   6.400  40.769   5.368
 3755POPC   PO450580   7.010  40.629   5.116
 3755POPC   GL150581   6.832  40.797   5.607
 3755POPC   GL250582   6.489  40.721   5.844
 3755POPC   C1A50583   6.898  40.899   6.064
 3755POPC   D2A50584   6.886  40.951   6.502
 3755POPC   C3A50585   6.822  40.631   6.788
 3755POPC   C4A50586   6.790  40.676   7.234
 3755POPC   C1B50587   6.398  40.986   6.173
 3755POPC   C2B50588   6.382  40.783   6.560
 3755POPC   C3B50589   6.398  40.905   6.962
 3755POPC   C4B50590   6.261  40.717   7.332
 3756POPC   NC350591  19.117  40.887   5.298
 3756POPC   PO450592  19.145  40.315   5.632
 3756POPC   GL150593  19.068  40.754   5.798
 3756POPC   GL250594  19.320  41.013   5.755
 3756POPC   C1A50595  19.020  40.892   6.236
 3756POPC   D2A50596  19.176  40.727   6.625
 3756POPC   C3A50597  19.038  40.947   6.999
 3756POPC   C4A50598  18.970  40.791   7.456
 3756POPC   C1B50599  19.395  41.223   6.145
 3756POPC   C2B50600  19.261  41.243   6.590
 3756POPC   C3B50601  19.358  41.351   7.039
 3756POPC   C4B50602  19.405  41.022   7.340
 3757POPC   NC350603  38.660   1.198   5.071
 3757POPC   PO450604  38.418   0.868   5.589
 3757POPC   GL150605  38.463   1.120   5.965
 3757POPC   GL250606  38.304   1.487   5.979
 3757POPC   C1A50607  38.616   1.006   6.398
 3757POPC   D2A50608  38.805   0.863   6.769
 3757POPC   C3A50609  38.481   0.880   7.106
 3757POPC   C4A50610  38.259   0.953   7.506
 3757POPC   C1B50611  38.252   1.370   6.376
 3757POPC   C2B50612  38.314   1.242   6.778
 3757POPC   C3B50613  38.304   1.371   7.197
 3757POPC   C4B50614  38.131   1.502   7.614
 3758POPC   NC350615   8.641  23.161   5.415
 3758POPC   PO450616   9.239  22.838   5.479
 3758POPC   GL150617   8.947  22.941   5.830
 3758POPC   GL250618   8.730  22.674   5.917
 3758POPC   C1A50619   9.068  22.818   6.278
 3758POPC   D2A50620   9.236  22.782   6.705
 3758POPC   C3A50621   9.115  23.183   6.944
 3758POPC   C4A50622   8.717  23.243   7.185
 3758POPC   C1B50623   8.558  22.889   6.245
 3758POPC   C2B50624   8.717  23.013   6.621
 3758POPC   C3B50625   8.785  22.796   6.961
 3758POPC   C4B50626   8.524  22.728   7.239
 3759POPC   NC350627  24.856   2.311   5.276
 3759POPC   PO450628  25.298   1.902   5.274
 3759POPC   GL150629  25.255   1.946   5.750
 3759POPC   GL250630  25.149   2.271   5.718
 3759POPC   C1A50631  25.107   1.838   6.199
 3759POPC   D2A50632  24.807   1.817   6.562
 3759POPC   C3A50633  24.972   2.026   6.925
 3759POPC   C4A50634  25.286   1.927   7.190
 3759POPC   C1B50635  25.340   2.304   6.161
 3759POPC   C2B50636  25.385   2.113   6.606
 3759POPC   C3B50637  25.632   2.218   6.994
 3759POPC   C4B50638  25.488   2.312   7.445
 3760POPC   NC350639  39.579   4.455   5.396
 3760POPC   PO450640  39.068   4.063   5.426
 3760POPC   GL150641  39.261   4.288   5.778
 3760POPC   GL250642  39.042   4.522   5.963
 3760POPC   C1A50643  39.478   4.299   6.188
 3760POPC   D2A50644  39.354   4.101   6.608
 3760POPC   C3A50645  39.268   4.291   6.994
 3760POPC   C4A50646  39.583   4.541   7.150
 3760POPC   C1B50647  38.978   4.167   6.240
 3760POPC   C2B50648  38.822   4.137   6.668
 3760POPC   C3B50649  38.773   4.433   7.013
 3760POPC   C4B50650  38.936   4.389   7.420
 3761POPC   NC350651   5.118  13.658   5.502
 3761POPC   PO450652   4.846  14.136   5.839
 3761POPC   GL150653   5.291  13.917   5.916
 3761POPC   GL250654   5.325  13.528   5.940
 3761POPC   C1A50655   5.480  13.792   6.328
 3761POPC   D2A50656   5.279  13.480   6.607
 3761POPC   C3A50657   5.268  13.577   7.055
 3761POPC   C4A50658   4.914  13.738   7.327
 3761POPC   C1B50659   4.927  13.427   6.174
 3761POPC   C2B50660   4.761  13.377   6.597
 3761POPC   C3B50661   4.806  13.319   7.036
 3761POPC   C4B50662   4.700  13.246   7.476
 3762POPC   NC350663  31.884   0.278   5.128
 3762POPC   PO450664  32.421   0.549   5.384
 3762POPC   GL150665  32.397   0.614   5.812
 3762POPC   GL250666  32.089   0.809   5.760
 3762POPC   C1A50667  32.290   0.413   6.247
 3762POPC   D2A50668  32.069   0.083   6.539
 3762POPC   C3A50669  32.134   0.270   6.961
 3762POPC   C4A50670  32.314   0.598   7.212
 3762POPC   C1B50671  31.893   0.763   6.167
 3762POPC   C2B50672  31.885   0.548   6.572
 3762POPC   C3B50673  31.826   0.697   7.004
 3762POPC   C4B50674  31.835   0.444   7.373
 3763POPC   NC350675  34.961  14.656   5.513
 3763POPC   PO450676  35.411  14.198   5.385
 3763POPC   GL150677  35.407  14.508   5.698
 3763POPC   GL250678  35.422  14.265   5.960
 3763POPC   C1A50679  35.509  14.743   6.091
 3763POPC   D2A50680  35.433  14.523   6.493
 3763POPC   C3A50681  35.485  14.698   6.903
 3763POPC   C4A50682  35.417  14.504   7.317
 3763POPC   C1B50683  35.096  14.040   6.214
 3763POPC   C2B50684  35.008  14.016   6.604
 3763POPC   C3B50685  35.171  14.248   6.921
 3763POPC   C4B50686  34.977  14.091   7.278
 3764POPC   NC350687  27.309  43.672   5.297
 3764POPC   PO450688  26.863  44.159   5.430
 3764POPC   GL150689  26.763  43.975   5.812
 3764POPC   GL250690  26.924  43.664   5.751
 3764POPC   C1A50691  26.807  43.835   6.251
 3764POPC   D2A50692  26.968  44.001   6.618
 3764POPC   C3A50693  26.846  43.754   6.938
 3764POPC   C4A50694  26.696  43.831   7.307
 3764POPC   C1B50695  27.157  43.509   6.096
 3764POPC   C2B50696  27.062  43.466   6.560
 3764POPC   C3B50697  27.203  43.403   7.032
 3764POPC   C4B50698  27.008  43.434   7.475
 3765POPC   NC350699   1.960   5.718   5.034
 3765POPC   PO450700   2.227   6.167   5.505
 3765POPC   GL150701   2.042   5.930   5.810
 3765POPC   GL250702   2.024   6.224   5.992
 3765POPC   C1A50703   1.935   5.767   6.233
 3765POPC   D2A50704   1.677   5.877   6.598
 3765POPC   C3A50705   1.824   5.674   6.964
 3765POPC   C4A50706   1.688   5.772   7.429
 3765POPC   C1B50707   2.356   6.056   6.211
 3765POPC   C2B50708   2.155   6.120   6.564
 3765POPC   C3B50709   1.976   6.149   6.948
 3765POPC   C4B50710   2.150   5.912   7.279
 3766POPC   NC350711  32.779  33.288   5.371
 3766POPC   PO450712  33.333  32.886   5.451
 3766POPC   GL150713  33.032  32.975   5.776
 3766POPC   GL250714  33.096  33.315   5.800
 3766POPC   C1A50715  32.794  33.058   6.199
 3766POPC   D2A50716  32.617  33.144   6.635
 3766POPC   C3A50717  32.704  32.843   6.996
 3766POPC   C4A50718  33.102  32.700   7.201
 3766POPC   C1B50719  33.148  33.435   6.223
 3766POPC   C2B50720  33.261  33.363   6.662
 3766POPC   C3B50721  33.020  33.227   7.034
 3766POPC   C4B50722  32.626  33.403   7.246
 3767POPC   NC350723  37.778  35.664   5.577
 3767POPC   PO450724  37.697  34.983   5.427
 3767POPC   GL150725  37.649  35.195   5.798
 3767POPC   GL250726  37.994  35.243   5.892
 3767POPC   C1A50727  37.663  35.408   6.200
 3767POPC   D2A50728  37.968  35.275   6.502
 3767POPC   C3A50729  37.784  35.214   6.860
 3767POPC   C4A50730  37.627  35.357   7.222
 3767POPC   C1B50731  38.162  35.581   6.141
 3767POPC   C2B50732  38.278  35.721   6.516
 3767POPC   C3B50733  38.106  35.609   6.893
 3767POPC   C4B50734  37.940  35.848   7.225
 3768POPC   NC350735  10.191  23.829   5.188
 3768POPC   PO450736   9.591  23.773   5.528
 3768POPC   GL150737   9.707  23.712   5.922
 3768POPC   GL250738   9.777  23.396   5.867
 3768POPC   C1A50739   9.929  23.834   6.296
 3768POPC   D2A50740   9.989  23.967   6.719
 3768POPC   C3A50741   9.726  23.745   7.040
 3768POPC   C4A50742   9.728  23.989   7.437
 3768POPC   C1B50743   9.986  23.320   6.209
 3768POPC   C2B50744  10.084  23.424   6.639
 3768POPC   C3B50745  10.051  23.300   7.057
 3768POPC   C4B50746   9.962  23.481   7.421
 3769POPC   NC350747  34.070  24.265   5.367
 3769POPC   PO450748  34.508  23.745   5.452
 3769POPC   GL150749  34.651  23.711   5.888
 3769POPC   GL250750  34.617  23.356   5.964
 3769POPC   C1A50751  34.589  23.809   6.359
 3769POPC   D2A50752  34.500  24.074   6.751
 3769POPC   C3A50753  34.549  23.874   7.135
 3769POPC   C4A50754  34.347  23.887   7.547
 3769POPC   C1B50755  34.912  23.413   6.299
 3769POPC   C2B50756  34.914  23.588   6.732
 3769POPC   C3B50757  34.756  23.390   7.106
 3769POPC   C4B50758  34.340  23.436   7.313
 3770POPC   NC350759  25.939   6.359   5.617
 3770POPC   PO450760  26.260   5.775   5.508
 3770POPC   GL150761  26.112   5.674   5.904
 3770POPC   GL250762  25.866   5.917   5.872
 3770POPC   C1A50763  26.216   5.795   6.291
 3770POPC   D2A50764  26.095   6.117   6.565
 3770POPC   C3A50765  26.303   6.042   6.938
 3770POPC   C4A50766  26.405   5.925   7.342
 3770POPC   C1B50767  25.697   5.832   6.270
 3770POPC   C2B50768  25.572   6.064   6.627
 3770POPC   C3B50769  25.786   6.047   6.989
 3770POPC   C4B50770  25.643   6.084   7.406
 3771POPC   NC350771  31.581  31.699   5.411
 3771POPC   PO450772  31.325  31.062   5.441
 3771POPC   GL150773  31.316  31.280   5.835
 3771POPC   GL250774  31.597  31.566   5.892
 3771POPC   C1A50775  31.568  31.179   6.194
 3771POPC   D2A50776  31.622  31.480   6.483
 3771POPC   C3A50777  31.349  31.420   6.796
 3771POPC   C4A50778  31.431  31.366   7.221
 3771POPC   C1B50779  31.704  31.911   6.182
 3771POPC   C2B50780  31.512  31.968   6.591
 3771POPC   C3B50781  31.708  31.750   6.932
 3771POPC   C4B50782  31.659  31.824   7.329
 3772POPC   NC350783  28.921  41.715   5.114
 3772POPC   PO450784  28.578  41.955   5.678
 3772POPC   GL150785  28.285  41.820   6.009
 3772POPC   GL250786  28.524  41.903   6.187
 3772POPC   C1A50787  28.099  41.859   6.440
 3772POPC   D2A50788  28.159  41.985   6.895
 3772POPC   C3A50789  28.279  41.629   7.172
 3772POPC   C4A50790  28.284  41.256   7.476
 3772POPC   C1B50791  28.743  41.498   6.183
 3772POPC   C2B50792  28.895  41.320   6.558
 3772POPC   C3B50793  28.780  41.413   6.988
 3772POPC   C4B50794  28.797  41.250   7.417
 3773POPC   NC350795   9.919   5.033   5.339
 3773POPC   PO450796   9.322   5.135   5.651
 3773POPC   GL150797   9.714   4.920   5.787
 3773POPC   GL250798  10.025   5.167   5.840
 3773POPC   C1A50799   9.902   4.787   6.156
 3773POPC   D2A50800   9.964   4.867   6.589
 3773POPC   C3A50801   9.567   4.872   6.822
 3773POPC   C4A50802   9.507   4.780   7.255
 3773POPC   C1B50803   9.895   5.304   6.294
 3773POPC   C2B50804   9.836   5.342   6.786
 3773POPC   C3B50805   9.796   5.205   7.255
 3773POPC   C4B50806   9.959   5.233   7.729
 3774POPC   NC350807  29.934  18.036   5.226
 3774POPC   PO450808  29.752  18.622   5.279
 3774POPC   GL150809  29.857  18.407   5.683
 3774POPC   GL250810  29.800  18.070   5.800
 3774POPC   C1A50811  29.730  18.440   6.139
 3774POPC   D2A50812  29.906  18.402   6.559
 3774POPC   C3A50813  29.687  18.375   6.938
 3774POPC   C4A50814  29.830  18.494   7.335
 3774POPC   C1B50815  30.001  18.009   6.233
 3774POPC   C2B50816  30.178  17.974   6.678
 3774POPC   C3B50817  30.064  18.062   7.129
 3774POPC   C4B50818  30.051  17.877   7.561
 3775POPC   NC350819  14.544  30.365   5.442
 3775POPC   PO450820  14.336  30.977   5.442
 3775POPC   GL150821  14.181  30.682   5.721
 3775POPC   GL250822  14.528  30.662   5.863
 3775POPC   C1A50823  14.130  30.659   6.175
 3775POPC   D2A50824  14.403  30.615   6.540
 3775POPC   C3A50825  14.192  30.681   6.955
 3775POPC   C4A50826  14.148  30.428   7.342
 3775POPC   C1B50827  14.592  30.983   6.193
 3775POPC   C2B50828  14.837  30.936   6.574
 3775POPC   C3B50829  14.777  30.952   6.981
 3775POPC   C4B50830  14.586  30.750   7.300
 3776POPC   NC350831  42.713  24.241   5.290
 3776POPC   PO450832  42.817  24.827   5.563
 3776POPC   GL150833  42.544  24.499   5.752
 3776POPC   GL250834  42.185  24.561   5.836
 3776POPC   C1A50835  42.450  24.287   6.165
 3776POPC   D2A50836  42.666  24.240   6.562
 3776POPC   C3A50837  42.419  24.293   6.952
 3776POPC   C4A50838  42.450  24.250   7.409
 3776POPC   C1B50839  42.015  24.786   6.212
 3776POPC   C2B50840  41.951  24.976   6.605
 3776POPC   C3B50841  42.049  24.903   7.042
 3776POPC   C4B50842  41.913  25.037   7.483
 3777POPC   NC350843  17.432  12.983   5.561
 3777POPC   PO450844  17.568  12.449   5.160
 3777POPC   GL150845  17.348  12.484   5.646
 3777POPC   GL250846  17.610  12.657   5.909
 3777POPC   C1A50847  17.175  12.584   6.131
 3777POPC   D2A50848  17.559  12.638   6.445
 3777POPC   C3A50849  17.538  12.708   6.882
 3777POPC   C4A50850  17.522  12.817   7.301
 3777POPC   C1B50851  17.431  13.035   6.191
 3777POPC   C2B50852  17.228  13.045   6.615
 3777POPC   C3B50853  17.311  13.192   7.046
 3777POPC   C4B50854  17.546  13.346   7.419
 3778POPC   NC350855   6.724  19.023   5.614
 3778POPC   PO450856   6.195  19.525   5.631
 3778POPC   GL150857   6.433  19.282   5.987
 3778POPC   GL250858   6.832  19.292   6.046
 3778POPC   C1A50859   6.521  19.335   6.451
 3778POPC   D2A50860   6.482  19.021   6.736
 3778POPC   C3A50861   6.731  19.046   7.072
 3778POPC   C4A50862   6.605  19.279   7.394
 3778POPC   C1B50863   6.709  18.886   6.287
 3778POPC   C2B50864   6.782  18.617   6.661
 3778POPC   C3B50865   6.757  18.530   7.098
 3778POPC   C4B50866   6.773  18.716   7.529
 3779POPC   NC350867  28.698  11.317   5.108
 3779POPC   PO450868  28.181  11.164   5.177
 3779POPC   GL150869  28.412  11.305   5.636
 3779POPC   GL250870  28.452  11.021   5.880
 3779POPC   C1A50871  28.582  11.437   6.128
 3779POPC   D2A50872  28.692  11.376   6.627
 3779POPC   C3A50873  28.481  11.558   7.051
 3779POPC   C4A50874  28.267  11.624   7.489
 3779POPC   C1B50875  28.582  10.955   6.339
 3779POPC   C2B50876  28.461  10.933   6.798
 3779POPC   C3B50877  28.358  11.079   7.220
 3779POPC   C4B50878  28.556  10.913   7.576
 3780POPC   NC350879  44.773  27.625   5.299
 3780POPC   PO450880  44.363  27.149   5.479
 3780POPC   GL150881  44.665  27.444   5.771
 3780POPC   GL250882  44.957  27.692   5.777
 3780POPC   C1A50883  44.616  27.647   6.166
 3780POPC   D2A50884  44.364  27.538   6.513
 3780POPC   C3A50885  44.588  27.506   6.904
 3780POPC   C4A50886  44.411  27.529   7.290
 3780POPC   C1B50887   0.148  27.680   6.191
 3780POPC   C2B50888   0.060  27.595   6.653
 3780POPC   C3B50889   0.050  27.609   7.128
 3780POPC   C4B50890   0.230  27.743   7.555
 3781POPC   NC350891  17.837  23.952   5.632
 3781POPC   PO450892  17.511  24.317   5.149
 3781POPC   GL150893  17.504  24.442   5.623
 3781POPC   GL250894  17.409  24.806   5.693
 3781POPC   C1A50895  17.581  24.434   6.103
 3781POPC   D2A50896  17.406  24.504   6.545
 3781POPC   C3A50897  17.644  24.448   6.963
 3781POPC   C4A50898  17.584  24.346   7.455
 3781POPC   C1B50899  17.449  24.927   6.132
 3781POPC   C2B50900  17.513  25.017   6.559
 3781POPC   C3B50901  17.262  24.864   6.891
 3781POPC   C4B50902  17.437  24.790   7.276
 3782POPC   NC350903  22.167  35.665   5.523
 3782POPC   PO450904  22.513  35.061   5.466
 3782POPC   GL150905  22.411  35.307   5.885
 3782POPC   GL250906  22.188  35.553   6.008
 3782POPC   C1A50907  22.255  35.154   6.316
 3782POPC   D2A50908  22.236  35.043   6.750
 3782POPC   C3A50909  22.376  35.295   7.039
 3782POPC   C4A50910  22.114  35.407   7.345
 3782POPC   C1B50911  21.958  35.653   6.361
 3782POPC   C2B50912  21.943  35.549   6.806
 3782POPC   C3B50913  21.840  35.807   7.163
 3782POPC   C4B50914  21.822  35.723   7.617
 3783POPC   NC350915  43.692  28.778   5.461
 3783POPC   PO450916  43.338  29.325   5.358
 3783POPC   GL150917  43.649  29.348   5.724
 3783POPC   GL250918  43.897  29.130   5.807
 3783POPC   C1A50919  43.556  29.249   6.188
 3783POPC   D2A50920  43.669  29.136   6.641
 3783POPC   C3A50921  43.629  29.235   7.106
 3783POPC   C4A50922  43.764  28.938   7.412
 3783POPC   C1B50923  44.034  29.035   6.212
 3783POPC   C2B50924  44.097  28.839   6.583
 3783POPC   C3B50925  44.089  29.034   6.967
 3783POPC   C4B50926  44.252  29.116   7.318
 3784POPC   NC350927  36.708  16.428   5.592
 3784POPC   PO450928  37.126  16.859   5.234
 3784POPC   GL150929  36.973  16.950   5.724
 3784POPC   GL250930  36.610  16.887   5.795
 3784POPC   C1A50931  36.969  16.767   6.198
 3784POPC   D2A50932  36.924  16.574   6.607
 3784POPC   C3A50933  37.098  16.735   6.955
 3784POPC   C4A50934  37.242  16.520   7.288
 3784POPC   C1B50935  36.518  17.099   6.178
 3784POPC   C2B50936  36.683  17.036   6.595
 3784POPC   C3B50937  36.597  16.846   7.001
 3784POPC   C4B50938  36.746  16.670   7.394
 3785POPC   NC350939   8.520  31.405   5.395
 3785POPC   PO450940   7.922  31.746   5.351
 3785POPC   GL150941   8.156  31.561   5.699
 3785POPC   GL250942   8.412  31.780   5.786
 3785POPC   C1A50943   8.293  31.355   6.096
 3785POPC   D2A50944   8.296  31.566   6.489
 3785POPC   C3A50945   8.223  31.327   6.864
 3785POPC   C4A50946   8.405  31.406   7.255
 3785POPC   C1B50947   8.017  31.824   6.098
 3785POPC   C2B50948   7.895  31.960   6.527
 3785POPC   C3B50949   8.085  31.813   6.907
 3785POPC   C4B50950   7.969  31.723   7.337
 3786POPC   NC350951   9.159   3.695   5.374
 3786POPC   PO450952   8.452   3.769   5.344
 3786POPC   GL150953   8.760   3.539   5.647
 3786POPC   GL250954   8.999   3.236   5.625
 3786POPC   C1A50955   8.978   3.616   6.045
 3786POPC   D2A50956   8.869   3.545   6.489
 3786POPC   C3A50957   9.080   3.801   6.783
 3786POPC   C4A50958   9.313   3.759   7.186
 3786POPC   C1B50959   9.141   3.133   6.071
 3786POPC   C2B50960   9.254   3.177   6.525
 3786POPC   C3B50961   9.153   3.320   6.931
 3786POPC   C4B50962   9.214   3.277   7.364
 3787POPC   NC350963  40.519   6.523   5.409
 3787POPC   PO450964  40.774   7.147   5.442
 3787POPC   GL150965  40.516   6.935   5.824
 3787POPC   GL250966  40.318   6.592   5.897
 3787POPC   C1A50967  40.588   6.831   6.286
 3787POPC   D2A50968  40.750   6.577   6.660
 3787POPC   C3A50969  40.727   6.826   7.052
 3787POPC   C4A50970  41.134   7.000   7.186
 3787POPC   C1B50971  40.349   6.382   6.331
 3787POPC   C2B50972  40.308   6.399   6.805
 3787POPC   C3B50973  40.592   6.330   7.158
 3787POPC   C4B50974  40.539   6.378   7.657
 3788POPC   NC350975  21.958  42.670   5.485
 3788POPC   PO450976  22.378  43.146   5.419
 3788POPC   GL150977  22.227  43.014   5.819
 3788POPC   GL250978  22.435  42.740   5.882
 3788POPC   C1A50979  22.079  43.149   6.255
 3788POPC   D2A50980  22.229  43.264   6.678
 3788POPC   C3A50981  21.991  43.514   6.978
 3788POPC   C4A50982  21.855  43.249   7.290
 3788POPC   C1B50983  22.041  42.646   6.133
 3788POPC   C2B50984  21.856  42.731   6.534
 3788POPC   C3B50985  22.053  42.822   6.943
 3788POPC   C4B50986  22.003  42.565   7.304
 3789POPC   NC350987  21.510   0.064   5.546
 3789POPC   PO450988  21.193  44.510   5.350
 3789POPC   GL150989  21.388  44.616   5.758
 3789POPC   GL250990  21.643  44.401   5.889
 3789POPC   C1A50991  21.456  44.760   6.209
 3789POPC   D2A50992  21.418   0.037   6.572
 3789POPC   C3A50993  21.298  44.841   6.960
 3789POPC   C4A50994  21.451  44.813   7.383
 3789POPC   C1B50995  21.856  44.442   6.290
 3789POPC   C2B50996  21.639  44.354   6.692
 3789POPC   C3B50997  21.452  44.374   7.116
 3789POPC   C4B50998  21.665  44.378   7.532
 3790POPC   NC350999  30.298   2.146   5.386
 3790POPC   PO451000  31.043   1.908   5.418
 3790POPC   GL151001  30.860   1.894   5.827
 3790POPC   GL251002  30.500   1.964   5.815
 3790POPC   C1A51003  30.706   1.796   6.251
 3790POPC   D2A51004  30.657   2.010   6.626
 3790POPC   C3A51005  30.515   1.761   6.916
 3790POPC   C4A51006  30.809   1.657   7.230
 3790POPC   C1B51007  30.272   2.112   6.178
 3790POPC   C2B51008  30.133   2.134   6.589
 3790POPC   C3B51009  30.320   2.241   6.964
 3790POPC   C4B51010  30.716   2.152   7.174
 3791POPC   NC351011  30.564   9.800   5.437
 3791POPC   PO451012  31.177  10.135   5.400
 3791POPC   GL151013  30.868  10.049   5.721
 3791POPC   GL251014  30.929   9.739   5.789
 3791POPC   C1A51015  30.564   9.934   6.083
 3791POPC   D2A51016  30.645   9.805   6.492
 3791POPC   C3A51017  30.346   9.693   6.795
 3791POPC   C4A51018  30.499   9.769   7.187
 3791POPC   C1B51019  31.039   9.523   6.167
 3791POPC   C2B51020  30.889   9.360   6.543
 3791POPC   C3B51021  30.907   9.590   6.915
 3791POPC   C4B51022  30.865   9.443   7.320
 3792POPC   NC351023  23.785  17.060   5.424
 3792POPC   PO451024  23.268  16.520   5.436
 3792POPC   GL151025  23.419  16.507   5.844
 3792POPC   GL251026  23.653  16.739   5.834
 3792POPC   C1A51027  23.469  16.594   6.296
 3792POPC   D2A51028  23.711  16.793   6.670
 3792POPC   C3A51029  23.645  16.577   7.059
 3792POPC   C4A51030  23.210  16.551   7.103
 3792POPC   C1B51031  23.949  16.654   6.227
 3792POPC   C2B51032  24.143  16.492   6.608
 3792POPC   C3B51033  24.154  16.678   7.032
 3792POPC   C4B51034  24.009  16.990   7.326
 3793POPC   NC351035   7.574  36.602   5.503
 3793POPC   PO451036   7.142  37.262   5.551
 3793POPC   GL151037   7.324  36.918   5.819
 3793POPC   GL251038   7.145  36.574   5.799
 3793POPC   C1A51039   7.633  36.919   6.160
 3793POPC   D2A51040   7.654  37.162   6.540
 3793POPC   C3A51041   7.439  37.021   6.907
 3793POPC   C4A51042   7.687  37.042   7.262
 3793POPC   C1B51043   7.430  36.429   6.141
 3793POPC   C2B51044   7.790  36.502   6.461
 3793POPC   C3B51045   7.804  36.648   6.895
 3793POPC   C4B51046   7.501  36.559   7.225
 3794POPC   NC351047  43.971   1.273   5.362
 3794POPC   PO451048  43.506   0.854   5.562
 3794POPC   GL151049  43.898   0.926   5.839
 3794POPC   GL251050  44.126   1.221   5.829
 3794POPC   C1A51051  44.046   1.035   6.284
 3794POPC   D2A51052  43.898   1.226   6.671
 3794POPC   C3A51053  43.856   1.024   7.096
 3794POPC   C4A51054  44.115   0.932   7.469
 3794POPC   C1B51055  44.287   1.489   6.150
 3794POPC   C2B51056  44.213   1.637   6.550
 3794POPC   C3B51057  43.941   1.680   6.898
 3794POPC   C4B51058  44.007   1.832   7.277
 3795POPC   NC351059  33.613  10.686   5.462
 3795POPC   PO451060  34.227  10.367   5.535
 3795POPC   GL151061  33.885  10.454   5.826
 3795POPC   GL251062  33.931  10.798   5.879
 3795POPC   C1A51063  33.633  10.532   6.208
 3795POPC   D2A51064  33.712  10.350   6.603
 3795POPC   C3A51065  33.673  10.540   6.977
 3795POPC   C4A51066  33.672  10.227   7.250
 3795POPC   C1B51067  33.823  11.035   6.239
 3795POPC   C2B51068  33.731  10.966   6.667
 3795POPC   C3B51069  33.901  10.981   7.083
 3795POPC   C4B51070  33.898  10.693   7.447
 3796POPC   NC351071   1.033   1.661   5.406
 3796POPC   PO451072   1.238   2.232   5.545
 3796POPC   GL151073   1.234   2.084   5.934
 3796POPC   GL251074   1.302   1.720   5.852
 3796POPC   C1A51075   1.153   2.184   6.399
 3796POPC   D2A51076   1.207   2.226   6.870
 3796POPC   C3A51077   1.002   1.948   7.166
 3796POPC   C4A51078   1.057   1.782   7.613
 3796POPC   C1B51079   1.391   1.749   6.291
 3796POPC   C2B51080   1.287   1.619   6.710
 3796POPC   C3B51081   1.497   1.746   7.075
 3796POPC   C4B51082   1.471   2.094   7.352
 3797POPC   NC351083  15.665  24.964   5.291
 3797POPC   PO451084  16.264  25.166   5.491
 3797POPC   GL151085  15.915  25.184   5.759
 3797POPC   GL251086  15.822  24.813   5.754
 3797POPC   C1A51087  15.795  25.414   6.160
 3797POPC   D2A51088  15.991  25.541   6.566
 3797POPC   C3A51089  15.854  25.402   6.990
 3797POPC   C4A51090  16.027  25.356   7.443
 3797POPC   C1B51091  16.014  24.900   6.157
 3797POPC   C2B51092  15.900  25.005   6.559
 3797POPC   C3B51093  16.082  24.921   6.940
 3797POPC   C4B51094  15.824  24.928   7.279
 3798POPC   NC351095   8.023   5.817   5.439
 3798POPC   PO451096   8.303   6.381   5.214
 3798POPC   GL151097   8.405   6.019   5.703
 3798POPC   GL251098   8.269   5.680   5.854
 3798POPC   C1A51099   8.317   6.088   6.163
 3798POPC   D2A51100   8.293   5.824   6.533
 3798POPC   C3A51101   8.207   6.085   6.882
 3798POPC   C4A51102   8.129   6.014   7.287
 3798POPC   C1B51103   7.929   5.754   6.169
 3798POPC   C2B51104   7.891   5.516   6.542
 3798POPC   C3B51105   7.977   5.619   6.957
 3798POPC   C4B51106   8.350   5.565   7.168
 3799POPC   NC351107  41.779   4.845   5.434
 3799POPC   PO451108  41.231   5.285   5.324
 3799POPC   GL151109  41.356   5.152   5.749
 3799POPC   GL251110  41.668   5.252   5.708
 3799POPC   C1A51111  41.248   5.005   6.183
 3799POPC   D2A51112  41.216   4.812   6.592
 3799POPC   C3A51113  41.234   5.090   6.943
 3799POPC   C4A51114  41.552   4.880   7.163
 3799POPC   C1B51115  41.712   5.248   6.130
 3799POPC   C2B51116  41.529   5.307   6.531
 3799POPC   C3B51117  41.772   5.245   6.888
 3799POPC   C4B51118  41.786   5.318   7.319
 3800POPC   NC351119  34.336  17.720   5.582
 3800POPC   PO451120  34.900  17.447   5.285
 3800POPC   GL151121  34.748  17.409   5.739
 3800POPC   GL251122  34.757  17.045   5.794
 3800POPC   C1A51123  34.620  17.565   6.184
 3800POPC   D2A51124  34.318  17.589   6.545
 3800POPC   C3A51125  34.514  17.695   6.914
 3800POPC   C4A51126  34.739  17.732   7.307
 3800POPC   C1B51127  34.404  17.107   6.074
 3800POPC   C2B51128  34.496  17.107   6.498
 3800POPC   C3B51129  34.641  16.959   6.878
 3800POPC   C4B51130  34.633  17.264   7.147
 3801POPC   NC351131  28.622   8.024   5.404
 3801POPC   PO451132  28.205   8.548   5.521
 3801POPC   GL151133  28.495   8.384   5.761
 3801POPC   GL251134  28.343   8.107   5.839
 3801POPC   C1A51135  28.480   8.447   6.210
 3801POPC   D2A51136  28.173   8.358   6.540
 3801POPC   C3A51137  28.404   8.377   6.918
 3801POPC   C4A51138  28.486   8.132   7.245
 3801POPC   C1B51139  28.721   8.022   6.113
 3801POPC   C2B51140  28.618   8.041   6.549
 3801POPC   C3B51141  28.266   7.891   6.802
 3801POPC   C4B51142  27.968   8.096   7.049
 3802POPC   NC351143  11.914   9.977   5.475
 3802POPC   PO451144  12.060   9.365   5.503
 3802POPC   GL151145  11.848   9.603   5.820
 3802POPC   GL251146  12.009   9.410   6.043
 3802POPC   C1A51147  11.914   9.892   6.188
 3802POPC   D2A51148  12.140   9.935   6.574
 3802POPC   C3A51149  11.919   9.958   6.964
 3802POPC   C4A51150  11.791   9.604   7.208
 3802POPC   C1B51151  12.336   9.537   6.304
 3802POPC   C2B51152  12.389   9.494   6.741
 3802POPC   C3B51153  12.337   9.384   7.170
 3802POPC   C4B51154  12.558   9.398   7.564
 3803POPC   NC351155   5.196   4.436   5.431
 3803POPC   PO451156   4.571   4.448   5.484
 3803POPC   GL151157   4.863   4.306   5.834
 3803POPC   GL251158   5.160   4.067   5.801
 3803POPC   C1A51159   4.781   4.222   6.292
 3803POPC   D2A51160   4.972   4.327   6.691
 3803POPC   C3A51161   4.871   4.463   7.103
 3803POPC   C4A51162   4.854   4.400   7.566
 3803POPC   C1B51163   5.279   4.290   6.218
 3803POPC   C2B51164   5.436   4.500   6.602
 3803POPC   C3B51165   5.375   4.388   7.049
 3803POPC   C4B51166   5.608   4.441   7.429
 3804POPC   NC351167  24.457  24.648   5.427
 3804POPC   PO451168  23.983  24.995   5.547
 3804POPC   GL151169  24.243  24.797   5.890
 3804POPC   GL251170  24.349  24.446   5.890
 3804POPC   C1A51171  24.331  24.742   6.340
 3804POPC   D2A51172  24.487  24.567   6.740
 3804POPC   C3A51173  24.368  24.791   7.142
 3804POPC   C4A51174  24.263  24.707   7.593
 3804POPC   C1B51175  24.168  24.255   6.272
 3804POPC   C2B51176  24.252  24.112   6.697
 3804POPC   C3B51177  24.269  24.285   7.136
 3804POPC   C4B51178  24.191  24.198   7.590
 3805POPC   NC351179  30.030   8.283   5.234
 3805POPC   PO451180  30.320   7.829   5.635
 3805POPC   GL151181  30.049   8.066   5.880
 3805POPC   GL251182  30.030   8.379   5.764
 3805POPC   C1A51183  30.012   8.142   6.324
 3805POPC   D2A51184  30.256   8.160   6.688
 3805POPC   C3A51185  29.972   8.265   6.969
 3805POPC   C4A51186  29.805   8.033   7.248
 3805POPC   C1B51187  30.311   8.473   6.088
 3805POPC   C2B51188  30.200   8.629   6.519
 3805POPC   C3B51189  30.302   8.660   6.973
 3805POPC   C4B51190  30.085   8.540   7.385
 3806POPC   NC351191  41.065  24.235   5.526
 3806POPC   PO451192  40.785  24.845   5.347
 3806POPC   GL151193  40.802  24.695   5.807
 3806POPC   GL251194  40.495  24.833   5.961
 3806POPC   C1A51195  40.746  24.392   6.186
 3806POPC   D2A51196  40.831  24.160   6.586
 3806POPC   C3A51197  40.647  24.216   7.010
 3806POPC   C4A51198  41.025  24.225   7.275
 3806POPC   C1B51199  40.605  24.824   6.410
 3806POPC   C2B51200  40.822  24.679   6.791
 3806POPC   C3B51201  40.749  24.677   7.246
 3806POPC   C4B51202  40.531  24.745   7.623
 3807POPC   NC351203   1.162  21.981   5.393
 3807POPC   PO451204   1.415  22.617   5.492
 3807POPC   GL151205   1.251  22.474   5.905
 3807POPC   GL251206   0.987  22.208   5.856
 3807POPC   C1A51207   1.242  22.421   6.352
 3807POPC   D2A51208   1.461  22.104   6.599
 3807POPC   C3A51209   1.150  22.007   6.893
 3807POPC   C4A51210   1.081  22.202   7.273
 3807POPC   C1B51211   1.186  21.901   6.163
 3807POPC   C2B51212   1.271  21.631   6.538
 3807POPC   C3B51213   1.513  21.642   6.938
 3807POPC   C4B51214   1.514  21.922   7.286
 3808POPC   NC351215  17.500   0.332   5.334
 3808POPC   PO451216  17.663   0.923   5.554
 3808POPC   GL151217  17.373   0.666   5.729
 3808POPC   GL251218  17.648   0.442   5.827
 3808POPC   C1A51219  17.301   0.643   6.182
 3808POPC   D2A51220  17.486   0.873   6.559
 3808POPC   C3A51221  17.323   0.719   6.963
 3808POPC   C4A51222  17.453   0.491   7.341
 3808POPC   C1B51223  17.860   0.634   6.195
 3808POPC   C2B51224  18.008   0.787   6.606
 3808POPC   C3B51225  17.884   0.600   7.014
 3808POPC   C4B51226  17.889   0.233   7.271
 3809POPC   NC351227   0.358  27.071   5.339
 3809POPC   PO451228   0.410  26.546   5.813
 3809POPC   GL151229   0.404  26.962   5.916
 3809POPC   GL251230   0.167  27.226   5.773
 3809POPC   C1A51231   0.513  26.977   6.358
 3809POPC   D2A51232   0.446  26.705   6.734
 3809POPC   C3A51233   0.645  26.809   7.118
 3809POPC   C4A51234   0.846  26.606   7.529
 3809POPC   C1B51235   0.003  27.189   6.165
 3809POPC   C2B51236   0.044  26.990   6.542
 3809POPC   C3B51237   0.193  27.132   6.907
 3809POPC   C4B51238   0.028  27.116   7.308
 3810POPC   NC351239   1.780  42.227   5.364
 3810POPC   PO451240   2.419  42.427   5.360
 3810POPC   GL151241   2.137  42.367   5.713
 3810POPC   GL251242   2.179  42.670   5.837
 3810POPC   C1A51243   2.095  42.171   6.140
 3810POPC   D2A51244   2.237  42.220   6.600
 3810POPC   C3A51245   1.878  42.309   6.915
 3810POPC   C4A51246   1.852  42.274   7.381
 3810POPC   C1B51247   2.256  42.638   6.269
 3810POPC   C2B51248   2.141  42.705   6.695
 3810POPC   C3B51249   2.221  42.622   7.147
 3810POPC   C4B51250   2.115  42.695   7.598
 3811POPC   NC351251  14.810  44.410   5.457
 3811POPC   PO451252  14.348  44.784   5.212
 3811POPC   GL151253  14.487  44.790   5.655
 3811POPC   GL251254  14.734  44.974   5.851
 3811POPC   C1A51255  14.386  44.587   6.078
 3811POPC   D2A51256  14.228  44.572   6.548
 3811POPC   C3A51257  14.447  44.607   6.969
 3811POPC   C4A51258  14.263  44.485   7.371
 3811POPC   C1B51259  14.763  44.854   6.267
 3811POPC   C2B51260  14.702  44.952   6.686
 3811POPC   C3B51261  14.819  44.976   7.119
 3811POPC   C4B51262  14.685  44.883   7.549
 3812POPC   NC351263  35.817  21.479   5.156
 3812POPC   PO451264  36.404  21.658   5.557
 3812POPC   GL151265  36.087  21.548   5.837
 3812POPC   GL251266  35.927  21.336   5.646
 3812POPC   C1A51267  36.174  21.606   6.272
 3812POPC   D2A51268  36.357  21.443   6.658
 3812POPC   C3A51269  36.232  21.630   7.024
 3812POPC   C4A51270  36.416  21.959   7.229
 3812POPC   C1B51271  35.824  21.224   6.115
 3812POPC   C2B51272  35.843  21.349   6.555
 3812POPC   C3B51273  35.921  21.130   6.930
 3812POPC   C4B51274  36.232  21.154   7.216
 3813POPC   NC351275  44.479   5.000   5.460
 3813POPC   PO451276  44.935   5.415   5.333
 3813POPC   GL151277  44.931   5.197   5.727
 3813POPC   GL251278   0.063   4.836   5.749
 3813POPC   C1A51279  44.745   5.252   6.141
 3813POPC   D2A51280  44.678   5.047   6.539
 3813POPC   C3A51281  44.763   5.279   6.913
 3813POPC   C4A51282  44.436   5.191   7.196
 3813POPC   C1B51283  44.910   4.728   6.193
 3813POPC   C2B51284  44.977   4.636   6.641
 3813POPC   C3B51285  44.725   4.761   7.002
 3813POPC   C4B51286  44.740   4.847   7.442
 3814POPC   NC351287  39.973   5.177   5.395
 3814POPC   PO451288  39.973   4.515   5.148
 3814POPC   GL151289  40.101   4.711   5.606
 3814POPC   GL251290  39.779   4.807   5.768
 3814POPC   C1A51291  40.178   4.986   6.036
 3814POPC   D2A51292  40.179   5.158   6.462
 3814POPC   C3A51293  39.990   5.022   6.837
 3814POPC   C4A51294  40.120   5.146   7.235
 3814POPC   C1B51295  39.708   5.168   6.071
 3814POPC   C2B51296  39.541   5.182   6.486
 3814POPC   C3B51297  39.554   5.330   6.882
 3814POPC   C4B51298  39.622   5.057   7.224
 3815POPC   NC351299  36.242  36.399   5.425
 3815POPC   PO451300  35.972  35.771   5.556
 3815POPC   GL151301  36.252  35.976   5.810
 3815POPC   GL251302  36.053  36.257   5.885
 3815POPC   C1A51303  36.345  36.022   6.265
 3815POPC   D2A51304  36.115  35.928   6.666
 3815POPC   C3A51305  36.267  36.100   7.063
 3815POPC   C4A51306  36.224  36.150   7.510
 3815POPC   C1B51307  36.051  36.453   6.303
 3815POPC   C2B51308  36.004  36.428   6.759
 3815POPC   C3B51309  36.059  36.542   7.210
 3815POPC   C4B51310  35.853  36.496   7.609
 3816POPC   NC351311  23.576  41.080   5.413
 3816POPC   PO451312  23.684  40.637   5.547
 3816POPC   GL151313  23.765  40.710   5.978
 3816POPC   GL251314  23.667  41.060   6.019
 3816POPC   C1A51315  23.886  40.794   6.420
 3816POPC   D2A51316  23.690  40.999   6.785
 3816POPC   C3A51317  23.701  40.730   7.156
 3816POPC   C4A51318  24.093  40.554   7.330
 3816POPC   C1B51319  23.915  41.296   6.349
 3816POPC   C2B51320  24.168  41.180   6.707
 3816POPC   C3B51321  24.087  41.070   7.155
 3816POPC   C4B51322  23.890  40.984   7.571
 3817POPC   NC351323  26.639  43.768   5.307
 3817POPC   PO451324  26.008  44.071   5.326
 3817POPC   GL151325  26.138  44.110   5.720
 3817POPC   GL251326  26.285  43.798   5.686
 3817POPC   C1A51327  25.993  44.198   6.143
 3817POPC   D2A51328  25.897  43.900   6.473
 3817POPC   C3A51329  25.833  43.953   6.908
 3817POPC   C4A51330  25.981  43.685   7.220
 3817POPC   C1B51331  26.323  43.799   6.128
 3817POPC   C2B51332  26.409  44.060   6.494
 3817POPC   C3B51333  26.364  43.979   6.927
 3817POPC   C4B51334  26.243  44.094   7.331
 3818POPC   NC351335   9.149  16.071   5.308
 3818POPC   PO451336   8.555  15.845   5.306
 3818POPC   GL151337   8.777  16.042   5.684
 3818POPC   GL251338   9.090  15.860   5.765
 3818POPC   C1A51339   8.763  16.033   6.146
 3818POPC   D2A51340   8.583  15.846   6.504
 3818POPC   C3A51341   8.793  15.954   6.877
 3818POPC   C4A51342   8.953  15.813   7.262
 3818POPC   C1B51343   9.295  15.981   6.134
 3818POPC   C2B51344   9.147  15.964   6.533
 3818POPC   C3B51345   9.297  16.064   6.957
 3818POPC   C4B51346   9.584  15.785   7.172
 3819POPC   NC351347   8.230  16.149   5.468
 3819POPC   PO451348   7.813  15.712   5.629
 3819POPC   GL151349   7.954  15.912   5.922
 3819POPC   GL251350   8.314  15.933   5.925
 3819POPC   C1A51351   8.011  16.094   6.312
 3819POPC   D2A51352   7.911  15.977   6.727
 3819POPC   C3A51353   8.296  15.985   6.956
 3819POPC   C4A51354   8.581  16.183   7.279
 3819POPC   C1B51355   8.215  15.609   6.245
 3819POPC   C2B51356   8.218  15.469   6.668
 3819POPC   C3B51357   8.062  15.556   7.096
 3819POPC   C4B51358   8.232  15.820   7.438
 3820POPC   NC351359  30.753  28.410   5.438
 3820POPC   PO451360  30.394  28.982   5.547
 3820POPC   GL151361  30.451  28.671   5.870
 3820POPC   GL251362  30.612  28.333   5.927
 3820POPC   C1A51363  30.688  28.712   6.249
 3820POPC   D2A51364  30.645  28.621   6.666
 3820POPC   C3A51365  30.838  28.299   6.875
 3820POPC   C4A51366  31.115  28.173   7.211
 3820POPC   C1B51367  30.487  28.213   6.354
 3820POPC   C2B51368  30.294  28.274   6.761
 3820POPC   C3B51369  30.432  28.244   7.190
 3820POPC   C4B51370  30.261  28.091   7.586
 3821POPC   NC351371   7.002  11.585   5.407
 3821POPC   PO451372   6.492  11.105   5.484
 3821POPC   GL151373   6.544  11.268   5.846
 3821POPC   GL251374   6.734  11.582   5.860
 3821POPC   C1A51375   6.686  11.181   6.270
 3821POPC   D2A51376   6.909  11.266   6.695
 3821POPC   C3A51377   6.809  11.089   7.114
 3821POPC   C4A51378   6.619  11.317   7.488
 3821POPC   C1B51379   6.410  11.604   6.181
 3821POPC   C2B51380   6.470  11.515   6.604
 3821POPC   C3B51381   6.580  11.565   7.032
 3821POPC   C4B51382   6.374  11.778   7.364
 3822POPC   NC351383  23.590  34.868   5.396
 3822POPC   PO451384  23.443  35.457   5.316
 3822POPC   GL151385  23.419  35.263   5.724
 3822POPC   GL251386  23.738  35.082   5.846
 3822POPC   C1A51387  23.332  35.123   6.152
 3822POPC   D2A51388  23.549  34.984   6.564
 3822POPC   C3A51389  23.380  35.131   6.963
 3822POPC   C4A51390  23.466  35.524   7.160
 3822POPC   C1B51391  23.821  35.301   6.270
 3822POPC   C2B51392  23.758  35.448   6.721
 3822POPC   C3B51393  23.958  35.358   7.160
 3822POPC   C4B51394  24.084  35.368   7.633
 3823POPC   NC351395  18.751  30.771   5.562
 3823POPC   PO451396  19.333  30.657   5.198
 3823POPC   GL151397  19.160  30.580   5.726
 3823POPC   GL251398  19.289  30.776   5.975
 3823POPC   C1A51399  18.915  30.493   6.154
 3823POPC   D2A51400  19.129  30.619   6.573
 3823POPC   C3A51401  18.845  30.638   6.914
 3823POPC   C4A51402  18.710  30.314   7.213
 3823POPC   C1B51403  18.974  30.991   6.272
 3823POPC   C2B51404  18.999  31.140   6.715
 3823POPC   C3B51405  19.048  31.061   7.178
 3823POPC   C4B51406  19.204  31.082   7.609
 3824POPC   NC351407  23.237   0.661   5.203
 3824POPC   PO451408  22.626   0.459   5.317
 3824POPC   GL151409  22.720   0.604   5.720
 3824POPC   GL251410  23.107   0.640   5.740
 3824POPC   C1A51411  22.789   0.608   6.183
 3824POPC   D2A51412  22.973   0.659   6.581
 3824POPC   C3A51413  22.757   0.533   6.946
 3824POPC   C4A51414  22.704   0.114   7.104
 3824POPC   C1B51415  23.323   0.776   6.142
 3824POPC   C2B51416  23.465   0.820   6.595
 3824POPC   C3B51417  23.269   0.715   7.007
 3824POPC   C4B51418  23.174   0.306   7.186
 3825POPC   NC351419   4.954  32.797   5.478
 3825POPC   PO451420   5.325  33.286   5.305
 3825POPC   GL151421   5.315  33.150   5.719
 3825POPC   GL251422   5.390  32.804   5.715
 3825POPC   C1A51423   5.007  33.127   6.062
 3825POPC   D2A51424   4.847  33.144   6.491
 3825POPC   C3A51425   5.144  33.260   6.789
 3825POPC   C4A51426   5.386  33.076   7.119
 3825POPC   C1B51427   5.363  32.745   6.136
 3825POPC   C2B51428   5.337  32.650   6.568
 3825POPC   C3B51429   5.503  32.588   6.971
 3825POPC   C4B51430   5.322  32.639   7.377
 3826POPC   NC351431  11.258  14.798   5.091
 3826POPC   PO451432  11.253  14.339   5.524
 3826POPC   GL151433  11.299  14.409   5.942
 3826POPC   GL251434  11.502  14.141   5.951
 3826POPC   C1A51435  11.272  14.686   6.332
 3826POPC   D2A51436  11.256  14.825   6.787
 3826POPC   C3A51437  11.400  14.502   7.079
 3826POPC   C4A51438  11.174  14.177   7.236
 3826POPC   C1B51439  11.214  14.122   6.325
 3826POPC   C2B51440  11.294  14.147   6.727
 3826POPC   C3B51441  11.646  13.998   6.959
 3826POPC   C4B51442  11.584  13.917   7.347
 3827POPC   NC351443  40.952  33.473   5.442
 3827POPC   PO451444  40.509  33.967   5.273
 3827POPC   GL151445  40.590  33.888   5.722
 3827POPC   GL251446  40.611  33.525   5.835
 3827POPC   C1A51447  40.549  33.895   6.182
 3827POPC   D2A51448  40.659  33.624   6.557
 3827POPC   C3A51449  40.627  33.768   6.971
 3827POPC   C4A51450  40.846  34.027   7.269
 3827POPC   C1B51451  40.948  33.545   6.145
 3827POPC   C2B51452  41.108  33.321   6.560
 3827POPC   C3B51453  41.084  33.514   6.958
 3827POPC   C4B51454  40.854  33.530   7.351
 3828POPC   NC351455  14.285  17.863   5.317
 3828POPC   PO451456  14.121  17.253   5.150
 3828POPC   GL151457  14.470  17.522   5.603
 3828POPC   GL251458  14.318  17.807   5.811
 3828POPC   C1A51459  14.551  17.435   6.062
 3828POPC   D2A51460  14.321  17.213   6.390
 3828POPC   C3A51461  14.479  17.294   6.787
 3828POPC   C4A51462  14.526  17.509   7.158
 3828POPC   C1B51463  14.070  18.026   6.112
 3828POPC   C2B51464  14.073  18.068   6.559
 3828POPC   C3B51465  14.219  17.861   6.930
 3828POPC   C4B51466  14.115  17.746   7.348
 3829POPC   NC351467  30.964  18.459   5.499
 3829POPC   PO451468  30.356  18.254   5.297
 3829POPC   GL151469  30.349  18.183   5.759
 3829POPC   GL251470  30.640  18.379   5.876
 3829POPC   C1A51471  30.512  18.022   6.195
 3829POPC   D2A51472  30.749  17.999   6.603
 3829POPC   C3A51473  30.577  18.108   6.999
 3829POPC   C4A51474  30.774  18.034   7.424
 3829POPC   C1B51475  30.889  18.385   6.286
 3829POPC   C2B51476  30.926  18.557   6.719
 3829POPC   C3B51477  30.823  18.514   7.164
 3829POPC   C4B51478  30.816  18.495   7.636
 3830POPC   NC351479  37.636   3.415   5.253
 3830POPC   PO451480  37.238   3.386   5.742
 3830POPC   GL151481  37.700   3.437   5.832
 3830POPC   GL251482  37.964   3.723   5.894
 3830POPC   C1A51483  37.883   3.381   6.259
 3830POPC   D2A51484  38.065   3.401   6.653
 3830POPC   C3A51485  37.796   3.373   6.989
 3830POPC   C4A51486  38.003   3.710   7.144
 3830POPC   C1B51487  37.601   3.782   6.197
 3830POPC   C2B51488  37.535   3.579   6.581
 3830POPC   C3B51489  37.496   3.774   6.951
 3830POPC   C4B51490  37.302   3.626   7.312
 3831POPC   NC351491  38.320  25.782   5.455
 3831POPC   PO451492  38.570  26.468   5.482
 3831POPC   GL151493  38.451  26.335   5.892
 3831POPC   GL251494  38.562  26.021   5.848
 3831POPC   C1A51495  38.125  26.218   6.221
 3831POPC   D2A51496  38.073  25.966   6.605
 3831POPC   C3A51497  38.056  26.142   7.031
 3831POPC   C4A51498  38.103  26.439   7.339
 3831POPC   C1B51499  38.535  25.938   6.276
 3831POPC   C2B51500  38.662  26.029   6.659
 3831POPC   C3B51501  38.546  25.995   7.058
 3831POPC   C4B51502  38.586  26.321   7.317
 3832POPC   NC351503   2.713  38.398   5.045
 3832POPC   PO451504   2.996  38.518   5.461
 3832POPC   GL151505   2.890  38.644   5.894
 3832POPC   GL251506   2.592  38.846   5.857
 3832POPC   C1A51507   2.925  38.515   6.348
 3832POPC   D2A51508   3.168  38.509   6.757
 3832POPC   C3A51509   2.946  38.386   7.126
 3832POPC   C4A51510   2.785  38.417   7.551
 3832POPC   C1B51511   2.672  38.955   6.316
 3832POPC   C2B51512   2.655  38.714   6.746
 3832POPC   C3B51513   2.536  38.707   7.182
 3832POPC   C4B51514   2.281  38.955   7.468
 3833POPC   NC351515  44.063   3.887   5.452
 3833POPC   PO451516  44.088   3.194   5.463
 3833POPC   GL151517  43.947   3.439   5.820
 3833POPC   GL251518  43.746   3.756   5.831
 3833POPC   C1A51519  43.928   3.332   6.258
 3833POPC   D2A51520  44.225   3.408   6.577
 3833POPC   C3A51521  44.142   3.305   6.989
 3833POPC   C4A51522  43.883   3.495   7.274
 3833POPC   C1B51523  43.565   3.700   6.243
 3833POPC   C2B51524  43.403   3.683   6.668
 3833POPC   C3B51525  43.648   3.879   7.032
 3833POPC   C4B51526  43.796   3.929   7.505
 3834POPC   NC351527   5.815  14.168   5.410
 3834POPC   PO451528   5.763  14.778   5.307
 3834POPC   GL151529   5.855  14.546   5.743
 3834POPC   GL251530   6.203  14.561   5.633
 3834POPC   C1A51531   5.874  14.221   6.179
 3834POPC   D2A51532   5.986  14.064   6.664
 3834POPC   C3A51533   5.718  14.076   7.038
 3834POPC   C4A51534   5.354  14.285   7.211
 3834POPC   C1B51535   6.259  14.545   6.070
 3834POPC   C2B51536   6.247  14.481   6.528
 3834POPC   C3B51537   6.023  14.548   6.943
 3834POPC   C4B51538   6.145  14.642   7.394
 3835POPC   NC351539  16.403  22.320   5.565
 3835POPC   PO451540  16.968  21.880   5.550
 3835POPC   GL151541  16.857  22.210   5.811
 3835POPC   GL251542  16.600  22.015   5.951
 3835POPC   C1A51543  16.856  22.372   6.222
 3835POPC   D2A51544  16.567  22.378   6.548
 3835POPC   C3A51545  16.794  22.309   6.891
 3835POPC   C4A51546  16.639  22.066   7.213
 3835POPC   C1B51547  16.375  21.881   6.318
 3835POPC   C2B51548  16.307  21.934   6.781
 3835POPC   C3B51549  16.243  21.744   7.207
 3835POPC   C4B51550  16.435  21.838   7.615
 3836POPC   NC351551   6.512   6.813   5.356
 3836POPC   PO451552   6.854   6.250   5.225
 3836POPC   GL151553   6.631   6.449   5.687
 3836POPC   GL251554   6.782   6.794   5.811
 3836POPC   C1A51555   6.628   6.471   6.166
 3836POPC   D2A51556   6.826   6.548   6.562
 3836POPC   C3A51557   6.583   6.441   6.887
 3836POPC   C4A51558   6.476   6.443   7.310
 3836POPC   C1B51559   7.011   6.900   6.234
 3836POPC   C2B51560   7.136   6.915   6.707
 3836POPC   C3B51561   6.941   6.770   7.119
 3836POPC   C4B51562   6.703   6.930   7.498
 3837POPC   NC351563  11.089   6.103   5.390
 3837POPC   PO451564  11.710   5.820   5.369
 3837POPC   GL151565  11.479   5.804   5.787
 3837POPC   GL251566  11.473   6.139   5.942
 3837POPC   C1A51567  11.621   5.634   6.215
 3837POPC   D2A51568  11.710   5.589   6.671
 3837POPC   C3A51569  11.419   5.867   6.884
 3837POPC   C4A51570  11.426   6.012   7.281
 3837POPC   C1B51571  11.182   5.974   6.249
 3837POPC   C2B51572  11.063   6.173   6.652
 3837POPC   C3B51573  11.037   6.301   7.079
 3837POPC   C4B51574  10.972   6.142   7.493
 3838POPC   NC351575  26.101  16.389   5.421
 3838POPC   PO451576  26.074  15.776   5.507
 3838POPC   GL151577  26.057  16.048   5.900
 3838POPC   GL251578  26.135  16.398   5.936
 3838POPC   C1A51579  26.089  16.120   6.370
 3838POPC   D2A51580  25.995  16.231   6.814
 3838POPC   C3A51581  26.154  16.060   7.197
 3838POPC   C4A51582  26.040  15.810   7.561
 3838POPC   C1B51583  25.751  16.496   6.224
 3838POPC   C2B51584  25.604  16.518   6.683
 3838POPC   C3B51585  25.715  16.512   7.162
 3838POPC   C4B51586  25.864  16.306   7.545
 3839POPC   NC351587  10.354   6.951   5.226
 3839POPC   PO451588   9.970   6.435   5.213
 3839POPC   GL151589  10.292   6.491   5.592
 3839POPC   GL251590  10.590   6.269   5.644
 3839POPC   C1A51591  10.368   6.609   6.087
 3839POPC   D2A51592  10.458   6.874   6.529
 3839POPC   C3A51593  10.541   6.679   6.946
 3839POPC   C4A51594  10.630   6.811   7.373
 3839POPC   C1B51595  10.788   6.303   6.077
 3839POPC   C2B51596  10.607   6.361   6.515
 3839POPC   C3B51597  10.557   6.168   6.939
 3839POPC   C4B51598  10.472   6.311   7.367
 3840POPC   NC351599  19.294  25.892   5.373
 3840POPC   PO451600  18.919  26.431   5.391
 3840POPC   GL151601  18.990  26.115   5.705
 3840POPC   GL251602  18.724  25.889   5.671
 3840POPC   C1A51603  19.056  25.803   6.050
 3840POPC   D2A51604  18.902  25.879   6.457
 3840POPC   C3A51605  19.154  25.815   6.831
 3840POPC   C4A51606  18.991  25.886   7.243
 3840POPC   C1B51607  18.652  26.194   6.062
 3840POPC   C2B51608  18.835  26.410   6.438
 3840POPC   C3B51609  18.814  26.218   6.855
 3840POPC   C4B51610  18.714  26.340   7.254
 3841POPC   NC351611  40.200  14.092   5.390
 3841POPC   PO451612  39.986  13.421   5.431
 3841POPC   GL151613  39.984  13.746   5.732
 3841POPC   GL251614  40.336  13.720   5.790
 3841POPC   C1A51615  39.700  13.927   6.063
 3841POPC   D2A51616  39.685  13.975   6.535
 3841POPC   C3A51617  39.692  13.602   6.797
 3841POPC   C4A51618  39.781  13.429   7.181
 3841POPC   C1B51619  40.158  13.580   6.178
 3841POPC   C2B51620  40.130  13.722   6.576
 3841POPC   C3B51621  40.192  13.779   6.982
 3841POPC   C4B51622  40.322  13.563   7.355
 3842POPC   NC351623  32.992   5.175   5.298
 3842POPC   PO451624  33.133   4.622   5.608
 3842POPC   GL151625  33.007   5.006   5.825
 3842POPC   GL251626  32.835   4.774   5.994
 3842POPC   C1A51627  33.048   5.299   6.205
 3842POPC   D2A51628  33.245   5.359   6.653
 3842POPC   C3A51629  33.017   5.288   7.046
 3842POPC   C4A51630  32.842   4.909   7.222
 3842POPC   C1B51631  33.097   4.815   6.335
 3842POPC   C2B51632  33.075   4.870   6.759
 3842POPC   C3B51633  33.344   4.844   7.150
 3842POPC   C4B51634  33.222   5.028   7.562
 3843POPC   NC351635  23.717  35.833   5.359
 3843POPC   PO451636  24.017  36.218   5.619
 3843POPC   GL151637  23.717  35.933   5.877
 3843POPC   GL251638  23.821  35.599   5.837
 3843POPC   C1A51639  23.547  35.738   6.304
 3843POPC   D2A51640  23.390  35.823   6.745
 3843POPC   C3A51641  23.523  36.225   6.954
 3843POPC   C4A51642  23.845  36.312   7.297
 3843POPC   C1B51643  24.047  35.772   6.233
 3843POPC   C2B51644  23.888  35.967   6.627
 3843POPC   C3B51645  23.832  35.850   7.049
 3843POPC   C4B51646  23.990  35.826   7.436
 3844POPC   NC351647   4.712   4.895   5.486
 3844POPC   PO451648   4.099   5.009   5.262
 3844POPC   GL151649   4.271   4.890   5.728
 3844POPC   GL251650   4.097   4.834   6.014
 3844POPC   C1A51651   4.596   4.912   6.141
 3844POPC   D2A51652   4.592   5.195   6.534
 3844POPC   C3A51653   4.564   5.030   6.935
 3844POPC   C4A51654   4.249   4.761   7.088
 3844POPC   C1B51655   4.244   5.280   6.109
 3844POPC   C2B51656   4.151   5.467   6.517
 3844POPC   C3B51657   4.309   5.476   6.935
 3844POPC   C4B51658   4.149   5.406   7.337
 3845POPC   NC351659  30.613  11.487   5.310
 3845POPC   PO451660  30.638  10.919   5.710
 3845POPC   GL151661  30.656  11.297   5.915
 3845POPC   GL251662  30.317  11.448   5.833
 3845POPC   C1A51663  30.758  11.283   6.343
 3845POPC   D2A51664  30.696  11.070   6.730
 3845POPC   C3A51665  30.657  11.286   7.112
 3845POPC   C4A51666  30.665  11.141   7.516
 3845POPC   C1B51667  30.419  11.655   6.235
 3845POPC   C2B51668  30.530  11.579   6.681
 3845POPC   C3B51669  30.471  11.754   7.082
 3845POPC   C4B51670  30.419  11.584   7.497
 3846POPC   NC351671  35.120  36.634   5.367
 3846POPC   PO451672  34.616  36.850   5.331
 3846POPC   GL151673  34.626  36.992   5.756
 3846POPC   GL251674  34.971  36.912   5.834
 3846POPC   C1A51675  34.589  36.865   6.214
 3846POPC   D2A51676  34.626  36.603   6.617
 3846POPC   C3A51677  34.487  36.744   7.061
 3846POPC   C4A51678  34.438  37.048   7.425
 3846POPC   C1B51679  34.999  36.541   6.128
 3846POPC   C2B51680  35.143  36.462   6.560
 3846POPC   C3B51681  34.993  36.616   6.990
 3846POPC   C4B51682  34.911  36.822   7.410
 3847POPC   NC351683   2.540  42.867   5.477
 3847POPC   PO451684   2.002  43.335   5.308
 3847POPC   GL151685   2.124  43.151   5.660
 3847POPC   GL251686   1.809  43.029   5.766
 3847POPC   C1A51687   2.201  43.121   6.100
 3847POPC   D2A51688   1.989  43.167   6.491
 3847POPC   C3A51689   2.222  43.172   6.860
 3847POPC   C4A51690   2.062  43.105   7.237
 3847POPC   C1B51691   1.759  42.820   6.157
 3847POPC   C2B51692   1.540  42.926   6.545
 3847POPC   C3B51693   1.719  42.853   6.939
 3847POPC   C4B51694   1.700  42.750   7.346
 3848POPC   NC351695  38.377  34.040   5.312
 3848POPC   PO451696  38.396  34.729   5.373
 3848POPC   GL151697  38.324  34.414   5.689
 3848POPC   GL251698  38.005  34.181   5.667
 3848POPC   C1A51699  38.519  34.391   6.103
 3848POPC   D2A51700  38.853  34.393   6.435
 3848POPC   C3A51701  38.591  34.490   6.823
 3848POPC   C4A51702  38.612  34.846   7.113
 3848POPC   C1B51703  37.898  34.263   6.072
 3848POPC   C2B51704  38.094  34.431   6.434
 3848POPC   C3B51705  38.061  34.366   6.866
 3848POPC   C4B51706  38.282  34.429   7.257
 3849POPC   NC351707  17.833  26.183   5.132
 3849POPC   PO451708  17.325  26.373   5.572
 3849POPC   GL151709  17.366  26.284   5.979
 3849POPC   GL251710  17.728  26.274   6.136
 3849POPC   C1A51711  17.370  25.901   6.184
 3849POPC   D2A51712  17.061  25.760   6.474
 3849POPC   C3A51713  17.148  25.767   6.897
 3849POPC   C4A51714  17.423  25.953   7.222
 3849POPC   C1B51715  17.442  26.291   6.469
 3849POPC   C2B51716  17.234  26.261   6.800
 3849POPC   C3B51717  17.385  26.459   7.102
 3849POPC   C4B51718  17.787  26.418   7.234
 3850POPC   NC351719  13.951  21.855   5.560
 3850POPC   PO451720  13.780  21.204   5.470
 3850POPC   GL151721  13.568  21.257   5.843
 3850POPC   GL251722  13.405  21.616   5.797
 3850POPC   C1A51723  13.697  21.118   6.275
 3850POPC   D2A51724  13.487  21.201   6.648
 3850POPC   C3A51725  13.652  21.108   7.012
 3850POPC   C4A51726  13.332  21.117   7.298
 3850POPC   C1B51727  13.509  21.593   6.242
 3850POPC   C2B51728  13.343  21.679   6.619
 3850POPC   C3B51729  13.409  21.570   7.028
 3850POPC   C4B51730  13.510  21.773   7.388
 3851POPC   NC351731   4.746  42.602   5.622
 3851POPC   PO451732   5.214  42.501   5.158
 3851POPC   GL151733   5.176  42.354   5.675
 3851POPC   GL251734   5.087  42.632   5.995
 3851POPC   C1A51735   4.928  42.144   6.061
 3851POPC   D2A51736   4.754  42.209   6.491
 3851POPC   C3A51737   5.037  42.355   6.839
 3851POPC   C4A51738   5.086  42.329   7.298
 3851POPC   C1B51739   4.690  42.677   6.293
 3851POPC   C2B51740   4.580  42.619   6.741
 3851POPC   C3B51741   4.616  42.605   7.170
 3851POPC   C4B51742   4.709  42.970   7.379
 3852POPC   NC351743   2.431  19.989   5.498
 3852POPC   PO451744   3.013  19.627   5.474
 3852POPC   GL151745   2.946  19.470   5.884
 3852POPC   GL251746   2.590  19.523   5.956
 3852POPC   C1A51747   3.004  19.633   6.283
 3852POPC   D2A51748   2.970  20.001   6.548
 3852POPC   C3A51749   2.937  19.838   6.982
 3852POPC   C4A51750   2.555  19.661   7.070
 3852POPC   C1B51751   2.566  19.903   6.193
 3852POPC   C2B51752   2.463  19.989   6.635
 3852POPC   C3B51753   2.675  20.270   6.871
 3852POPC   C4B51754   2.794  20.241   7.276
 3853POPC   NC351755  27.997  19.218   5.365
 3853POPC   PO451756  27.276  19.084   5.233
 3853POPC   GL151757  27.381  19.238   5.707
 3853POPC   GL251758  27.738  19.151   5.836
 3853POPC   C1A51759  27.417  19.224   6.210
 3853POPC   D2A51760  27.668  19.056   6.577
 3853POPC   C3A51761  27.491  18.823   6.955
 3853POPC   C4A51762  27.310  18.964   7.369
 3853POPC   C1B51763  27.721  18.757   6.162
 3853POPC   C2B51764  27.925  18.617   6.582
 3853POPC   C3B51765  28.012  18.876   6.946
 3853POPC   C4B51766  27.818  18.928   7.350
 3854POPC   NC351767  34.064  12.692   5.232
 3854POPC   PO451768  33.583  13.145   5.370
 3854POPC   GL151769  33.877  12.985   5.689
 3854POPC   GL251770  33.887  12.632   5.726
 3854POPC   C1A51771  33.764  12.920   6.146
 3854POPC   D2A51772  33.679  12.995   6.596
 3854POPC   C3A51773  33.730  12.830   7.018
 3854POPC   C4A51774  33.845  13.165   7.282
 3854POPC   C1B51775  34.095  12.542   6.164
 3854POPC   C2B51776  34.029  12.532   6.629
 3854POPC   C3B51777  34.204  12.582   7.042
 3854POPC   C4B51778  34.243  12.625   7.504
 3855POPC   NC351779  29.729  42.776   5.473
 3855POPC   PO451780  30.143  42.352   5.144
 3855POPC   GL151781  29.978  42.349   5.667
 3855POPC   GL251782  29.991  42.663   5.901
 3855POPC   C1A51783  29.958  42.218   6.140
 3855POPC   D2A51784  30.164  42.279   6.556
 3855POPC   C3A51785  29.914  42.254   6.916
 3855POPC   C4A51786  29.926  42.411   7.324
 3855POPC   C1B51787  29.668  42.734   6.170
 3855POPC   C2B51788  29.687  42.549   6.549
 3855POPC   C3B51789  29.584  42.639   6.938
 3855POPC   C4B51790  29.455  42.617   7.306
 3856POPC   NC351791  10.813   0.254   5.444
 3856POPC   PO451792  10.365  44.700   5.522
 3856POPC   GL151793  10.359  44.706   5.951
 3856POPC   GL251794  10.664  44.893   5.907
 3856POPC   C1A51795  10.360  44.835   6.389
 3856POPC   D2A51796  10.460  44.533   6.704
 3856POPC   C3A51797  10.280  44.480   7.118
 3856POPC   C4A51798  10.215  44.139   7.399
 3856POPC   C1B51799  10.873  44.753   6.275
 3856POPC   C2B51800  10.784  44.913   6.698
 3856POPC   C3B51801  10.731  44.734   7.111
 3856POPC   C4B51802  10.915  44.803   7.545
 3857POPC   NC351803   3.020  10.512   5.571
 3857POPC   PO451804   2.626  10.235   5.184
 3857POPC   GL151805   2.554  10.333   5.643
 3857POPC   GL251806   2.529  10.690   5.722
 3857POPC   C1A51807   2.700  10.330   6.125
 3857POPC   D2A51808   2.849  10.558   6.530
 3857POPC   C3A51809   2.683  10.382   6.951
 3857POPC   C4A51810   2.687  10.060   7.313
 3857POPC   C1B51811   2.508  10.791   6.185
 3857POPC   C2B51812   2.403  10.779   6.643
 3857POPC   C3B51813   2.576  10.892   7.056
 3857POPC   C4B51814   2.682  10.959   7.504
 3858POPC   NC351815  42.996  17.106   5.368
 3858POPC   PO451816  42.936  17.834   5.176
 3858POPC   GL151817  42.932  17.730   5.653
 3858POPC   GL251818  43.112  17.410   5.759
 3858POPC   C1A51819  42.952  17.691   6.141
 3858POPC   D2A51820  43.001  17.375   6.485
 3858POPC   C3A51821  42.852  17.449   6.882
 3858POPC   C4A51822  43.085  17.796   6.970
 3858POPC   C1B51823  43.408  17.415   6.114
 3858POPC   C2B51824  43.493  17.206   6.496
 3858POPC   C3B51825  43.400  17.362   6.879
 3858POPC   C4B51826  43.555  17.186   7.241
 3859POPC   NC351827  44.260  23.530   5.136
 3859POPC   PO451828  43.747  23.809   5.059
 3859POPC   GL151829  43.953  23.758   5.530
 3859POPC   GL251830  43.627  23.827   5.736
 3859POPC   C1A51831  44.043  23.669   5.996
 3859POPC   D2A51832  44.174  23.619   6.492
 3859POPC   C3A51833  43.967  23.724   6.891
 3859POPC   C4A51834  44.164  23.893   7.289
 3859POPC   C1B51835  43.548  23.697   6.164
 3859POPC   C2B51836  43.510  23.587   6.602
 3859POPC   C3B51837  43.524  23.485   7.045
 3859POPC   C4B51838  43.615  23.832   7.291
 3860POPC   NC351839   6.731  44.812   5.372
 3860POPC   PO451840   6.415  44.303   5.664
 3860POPC   GL151841   6.617  44.639   5.866
 3860POPC   GL251842   6.964  44.703   5.828
 3860POPC   C1A51843   6.459  44.743   6.261
 3860POPC   D2A51844   6.533  44.955   6.615
 3860POPC   C3A51845   6.462  44.777   7.033
 3860POPC   C4A51846   6.317  44.861   7.454
 3860POPC   C1B51847   6.940  44.537   6.251
 3860POPC   C2B51848   6.785  44.493   6.662
 3860POPC   C3B51849   6.939  44.563   7.069
 3860POPC   C4B51850   6.911  44.841   7.447
 3861POPC   NC351851  34.885  18.510   5.389
 3861POPC   PO451852  34.267  18.189   5.506
 3861POPC   GL151853  34.484  18.335   5.860
 3861POPC   GL251854  34.624  18.653   5.819
 3861POPC   C1A51855  34.506  18.155   6.280
 3861POPC   D2A51856  34.219  18.093   6.646
 3861POPC   C3A51857  34.396  18.159   7.071
 3861POPC   C4A51858  34.831  18.177   7.077
 3861POPC   C1B51859  34.820  18.853   6.148
 3861POPC   C2B51860  35.068  18.767   6.484
 3861POPC   C3B51861  34.861  18.771   6.865
 3861POPC   C4B51862  34.777  18.775   7.291
 3862POPC   NC351863  27.903  28.232   5.573
 3862POPC   PO451864  27.392  28.615   5.354
 3862POPC   GL151865  27.478  28.439   5.782
 3862POPC   GL251866  27.494  28.109   5.886
 3862POPC   C1A51867  27.579  28.465   6.234
 3862POPC   D2A51868  27.388  28.444   6.601
 3862POPC   C3A51869  27.633  28.467   6.936
 3862POPC   C4A51870  27.583  28.640   7.334
 3862POPC   C1B51871  27.587  27.939   6.258
 3862POPC   C2B51872  27.727  28.063   6.619
 3862POPC   C3B51873  27.531  27.955   6.998
 3862POPC   C4B51874  27.668  28.130   7.323
 3863POPC   NC351875  10.785  29.699   5.415
 3863POPC   PO451876  10.596  30.303   5.344
 3863POPC   GL151877  10.620  30.234   5.792
 3863POPC   GL251878  10.640  29.891   5.866
 3863POPC   C1A51879  10.462  30.247   6.238
 3863POPC   D2A51880  10.624  30.051   6.626
 3863POPC   C3A51881  10.561  30.162   7.071
 3863POPC   C4A51882  10.799  29.972   7.382
 3863POPC   C1B51883  10.306  29.762   6.139
 3863POPC   C2B51884  10.238  29.681   6.552
 3863POPC   C3B51885  10.391  29.674   6.969
 3863POPC   C4B51886  10.184  29.861   7.315
 3864POPC   NC351887  43.188  10.265   5.605
 3864POPC   PO451888  43.440  10.950   5.551
 3864POPC   GL151889  43.236  10.692   5.870
 3864POPC   GL251890  42.929  10.710   5.779
 3864POPC   C1A51891  43.378  10.438   6.243
 3864POPC   D2A51892  43.488  10.136   6.547
 3864POPC   C3A51893  43.445  10.292   6.951
 3864POPC   C4A51894  43.472  10.522   7.290
 3864POPC   C1B51895  42.882  10.451   6.192
 3864POPC   C2B51896  43.033  10.427   6.641
 3864POPC   C3B51897  43.001  10.490   7.123
 3864POPC   C4B51898  43.042  10.169   7.480
 3865POPC   NC351899  39.669  22.053   5.327
 3865POPC   PO451900  39.040  22.244   5.203
 3865POPC   GL151901  39.029  22.075   5.652
 3865POPC   GL251902  39.357  22.153   5.769
 3865POPC   C1A51903  39.024  21.864   6.100
 3865POPC   D2A51904  39.062  22.011   6.566
 3865POPC   C3A51905  39.019  21.746   6.949
 3865POPC   C4A51906  38.967  21.914   7.360
 3865POPC   C1B51907  39.480  22.131   6.218
 3865POPC   C2B51908  39.563  21.909   6.621
 3865POPC   C3B51909  39.417  22.060   7.026
 3865POPC   C4B51910  39.097  22.387   7.143
 3866POPC   NC351911  35.062  21.679   5.330
 3866POPC   PO451912  34.518  21.620   5.437
 3866POPC   GL151913  34.561  21.229   5.671
 3866POPC   GL251914  34.883  21.250   5.862
 3866POPC   C1A51915  34.450  21.026   6.061
 3866POPC   D2A51916  34.362  21.156   6.476
 3866POPC   C3A51917  34.612  21.100   6.853
 3866POPC   C4A51918  34.377  21.055   7.230
 3866POPC   C1B51919  34.604  21.504   6.165
 3866POPC   C2B51920  34.561  21.605   6.635
 3866POPC   C3B51921  34.631  21.594   7.107
 3866POPC   C4B51922  34.458  21.502   7.556
 3867POPC   NC351923  32.346  44.399   5.514
 3867POPC   PO451924  32.963  44.708   5.371
 3867POPC   GL151925  33.112  44.789   5.764
 3867POPC   GL251926  33.305   0.052   5.663
 3867POPC   C1A51927  33.329  44.614   6.132
 3867POPC   D2A51928  33.212  44.358   6.485
 3867POPC   C3A51929  33.226  44.541   6.912
 3867POPC   C4A51930  33.197  44.323   7.312
 3867POPC   C1B51931  33.193   0.119   6.120
 3867POPC   C2B51932  33.115  44.901   6.523
 3867POPC   C3B51933  32.920  44.932   6.927
 3867POPC   C4B51934  33.098  44.872   7.324
 3868POPC   NC351935   2.401  31.020   5.016
 3868POPC   PO451936   2.846  30.914   5.472
 3868POPC   GL151937   2.747  30.647   5.791
 3868POPC   GL251938   3.033  30.440   5.647
 3868POPC   C1A51939   2.788  30.764   6.245
 3868POPC   D2A51940   2.712  30.620   6.664
 3868POPC   C3A51941   2.925  30.819   6.980
 3868POPC   C4A51942   2.742  30.912   7.361
 3868POPC   C1B51943   3.063  30.347   6.077
 3868POPC   C2B51944   3.140  30.382   6.503
 3868POPC   C3B51945   3.005  30.266   6.906
 3868POPC   C4B51946   3.004  30.446   7.323
 3869POPC   NC351947   7.568  21.519   5.460
 3869POPC   PO451948   7.024  21.053   5.285
 3869POPC   GL151949   7.217  21.259   5.697
 3869POPC   GL251950   7.428  21.056   5.880
 3869POPC   C1A51951   7.487  21.506   6.103
 3869POPC   D2A51952   7.658  21.535   6.565
 3869POPC   C3A51953   7.381  21.590   6.937
 3869POPC   C4A51954   7.207  21.198   7.169
 3869POPC   C1B51955   7.821  21.084   6.115
 3869POPC   C2B51956   7.947  21.111   6.537
 3869POPC   C3B51957   7.695  21.124   6.907
 3869POPC   C4B51958   7.700  21.359   7.281
 3870POPC   NC351959  31.082  14.505   5.635
 3870POPC   PO451960  30.532  14.164   5.520
 3870POPC   GL151961  30.654  14.300   5.888
 3870POPC   GL251962  30.351  14.186   6.030
 3870POPC   C1A51963  30.847  14.554   6.228
 3870POPC   D2A51964  30.922  14.706   6.619
 3870POPC   C3A51965  30.832  14.357   6.895
 3870POPC   C4A51966  30.653  14.533   7.184
 3870POPC   C1B51967  30.665  14.084   6.357
 3870POPC   C2B51968  30.526  13.968   6.749
 3870POPC   C3B51969  30.309  14.186   7.056
 3870POPC   C4B51970  30.418  14.203   7.496
 3871POPC   NC351971   9.775  29.549   5.431
 3871POPC   PO451972   9.966  28.868   5.341
 3871POPC   GL151973   9.787  29.092   5.683
 3871POPC   GL251974  10.033  29.327   5.790
 3871POPC   C1A51975   9.644  29.158   6.109
 3871POPC   D2A51976   9.825  28.953   6.479
 3871POPC   C3A51977   9.710  29.077   6.887
 3871POPC   C4A51978   9.587  29.097   7.284
 3871POPC   C1B51979  10.148  29.278   6.194
 3871POPC   C2B51980  10.300  29.159   6.568
 3871POPC   C3B51981  10.193  28.965   6.914
 3871POPC   C4B51982  10.135  29.238   7.270
 3872POPC   NC351983  10.961  10.571   5.442
 3872POPC   PO451984  10.314  10.458   5.401
 3872POPC   GL151985  10.453  10.674   5.796
 3872POPC   GL251986  10.797  10.773   5.892
 3872POPC   C1A51987  10.307  10.667   6.229
 3872POPC   D2A51988  10.276  10.366   6.557
 3872POPC   C3A51989  10.596  10.361   6.842
 3872POPC   C4A51990  10.616  10.514   7.240
 3872POPC   C1B51991  10.828  10.538   6.315
 3872POPC   C2B51992  11.066  10.308   6.656
 3872POPC   C3B51993  11.047  10.182   7.089
 3872POPC   C4B51994  11.046  10.296   7.578
 3873POPC   NC351995  40.126  25.460   5.086
 3873POPC   PO451996  40.200  26.064   5.374
 3873POPC   GL151997  40.059  26.101   5.804
 3873POPC   GL251998  40.384  26.090   5.848
 3873POPC   C1A51999  39.775  26.033   6.150
 3873POPC   D2A52000  39.848  26.117   6.557
 3873POPC   C3A52001  39.949  25.888   6.919
 3873POPC   C4A52002  39.961  26.100   7.317
 3873POPC   C1B52003  40.299  26.029   6.252
 3873POPC   C2B52004  40.318  26.286   6.611
 3873POPC   C3B52005  40.369  26.185   7.026
 3873POPC   C4B52006  40.449  26.327   7.433
 3874POPC   NC352007  21.970  28.795   5.338
 3874POPC   PO452008  22.484  29.167   5.272
 3874POPC   GL152009  22.306  29.011   5.711
 3874POPC   GL252010  21.944  28.921   5.812
 3874POPC   C1A52011  22.210  29.183   6.154
 3874POPC   D2A52012  22.445  29.142   6.514
 3874POPC   C3A52013  22.472  29.241   6.932
 3874POPC   C4A52014  22.200  29.347   7.233
 3874POPC   C1B52015  22.037  28.677   6.164
 3874POPC   C2B52016  22.044  28.815   6.583
 3874POPC   C3B52017  22.074  28.895   7.004
 3874POPC   C4B52018  21.896  28.781   7.385
 3875POPC   NC352019  32.275  26.814   5.307
 3875POPC   PO452020  32.299  27.298   5.773
 3875POPC   GL152021  32.494  26.939   5.810
 3875POPC   GL252022  32.236  26.720   5.820
 3875POPC   C1A52023  32.572  26.776   6.225
 3875POPC   D2A52024  32.413  26.814   6.644
 3875POPC   C3A52025  32.606  26.727   7.045
 3875POPC   C4A52026  32.465  26.997   7.386
 3875POPC   C1B52027  32.072  26.586   6.242
 3875POPC   C2B52028  32.112  26.422   6.685
 3875POPC   C3B52029  32.110  26.714   7.064
 3875POPC   C4B52030  32.208  26.582   7.516
 3876POPC   NC352031  40.465  19.151   5.367
 3876POPC   PO452032  41.121  19.008   5.421
 3876POPC   GL152033  41.057  19.001   5.831
 3876POPC   GL252034  40.754  19.188   5.858
 3876POPC   C1A52035  41.055  18.964   6.254
 3876POPC   D2A52036  41.075  19.264   6.580
 3876POPC   C3A52037  40.876  19.149   6.954
 3876POPC   C4A52038  41.050  18.978   7.281
 3876POPC   C1B52039  40.609  19.214   6.315
 3876POPC   C2B52040  40.647  19.524   6.670
 3876POPC   C3B52041  40.785  19.618   7.110
 3876POPC   C4B52042  40.679  19.304   7.428
 3877POPC   NC352043  31.263  30.607   5.386
 3877POPC   PO452044  31.797  30.194   5.597
 3877POPC   GL152045  31.723  30.571   5.815
 3877POPC   GL252046  31.407  30.741   5.846
 3877POPC   C1A52047  31.762  30.706   6.235
 3877POPC   D2A52048  31.763  30.747   6.670
 3877POPC   C3A52049  31.650  30.542   7.046
 3877POPC   C4A52050  31.651  30.874   7.350
 3877POPC   C1B52051  31.242  30.777   6.228
 3877POPC   C2B52052  31.321  30.961   6.584
 3877POPC   C3B52053  31.296  30.918   6.987
 3877POPC   C4B52054  31.187  30.627   7.300
 3878POPC   NC352055  11.954  31.583   5.421
 3878POPC   PO452056  12.650  31.442   5.431
 3878POPC   GL152057  12.343  31.559   5.785
 3878POPC   GL252058  12.018  31.360   5.871
 3878POPC   C1A52059  12.281  31.734   6.198
 3878POPC   D2A52060  12.455  31.543   6.581
 3878POPC   C3A52061  12.259  31.611   6.973
 3878POPC   C4A52062  12.249  31.533   7.492
 3878POPC   C1B52063  12.083  31.296   6.314
 3878POPC   C2B52064  12.157  31.138   6.713
 3878POPC   C3B52065  12.165  31.161   7.149
 3878POPC   C4B52066  11.954  31.112   7.519
 3879POPC   NC352067  12.386   5.619   5.565
 3879POPC   PO452068  12.031   5.135   5.261
 3879POPC   GL152069  12.040   5.103   5.734
 3879POPC   GL252070  11.964   4.728   5.773
 3879POPC   C1A52071  12.061   5.280   6.183
 3879POPC   D2A52072  11.993   5.127   6.587
 3879POPC   C3A52073  12.100   5.248   6.994
 3879POPC   C4A52074  12.236   4.948   7.290
 3879POPC   C1B52075  11.757   4.901   6.130
 3879POPC   C2B52076  11.519   5.156   6.411
 3879POPC   C3B52077  11.547   5.093   6.847
 3879POPC   C4B52078  11.724   4.946   7.238
 3880POPC   NC352079  43.721  21.529   5.191
 3880POPC   PO452080  44.226  21.186   5.406
 3880POPC   GL152081  43.982  21.254   5.770
 3880POPC   GL252082  43.681  21.466   5.724
 3880POPC   C1A52083  43.857  21.163   6.180
 3880POPC   D2A52084  44.021  21.374   6.569
 3880POPC   C3A52085  43.939  21.121   6.924
 3880POPC   C4A52086  43.953  21.389   7.248
 3880POPC   C1B52087  43.449  21.461   6.138
 3880POPC   C2B52088  43.524  21.247   6.593
 3880POPC   C3B52089  43.476  21.325   7.059
 3880POPC   C4B52090  43.544  21.677   7.378
 3881POPC   NC352091  20.932   0.877   5.472
 3881POPC   PO452092  20.655   1.483   5.332
 3881POPC   GL152093  20.630   1.493   5.790
 3881POPC   GL252094  20.897   1.237   5.886
 3881POPC   C1A52095  20.414   1.415   6.196
 3881POPC   D2A52096  20.353   1.085   6.524
 3881POPC   C3A52097  20.521   1.192   6.934
 3881POPC   C4A52098  20.569   1.563   7.156
 3881POPC   C1B52099  20.824   1.108   6.297
 3881POPC   C2B52100  20.985   1.316   6.648
 3881POPC   C3B52101  21.043   1.333   7.073
 3881POPC   C4B52102  20.917   1.010   7.302
 3882POPC   NC352103  37.476   4.694   5.517
 3882POPC   PO452104  37.836   5.220   5.290
 3882POPC   GL152105  37.649   5.175   5.744
 3882POPC   GL252106  37.725   4.853   5.939
 3882POPC   C1A52107  37.487   5.231   6.198
 3882POPC   D2A52108  37.545   5.219   6.650
 3882POPC   C3A52109  37.802   4.924   6.870
 3882POPC   C4A52110  37.770   5.115   7.236
 3882POPC   C1B52111  37.355   4.743   6.240
 3882POPC   C2B52112  37.375   4.705   6.698
 3882POPC   C3B52113  37.400   4.759   7.184
 3882POPC   C4B52114  37.139   4.779   7.570
 3883POPC   NC352115  22.066  27.897   5.483
 3883POPC   PO452116  22.477  27.455   5.200
 3883POPC   GL152117  22.470  27.498   5.694
 3883POPC   GL252118  22.126  27.543   5.851
 3883POPC   C1A52119  22.517  27.669   6.141
 3883POPC   D2A52120  22.490  27.961   6.493
 3883POPC   C3A52121  22.429  27.840   6.944
 3883POPC   C4A52122  22.196  27.571   7.213
 3883POPC   C1B52123  22.028  27.730   6.292
 3883POPC   C2B52124  21.905  27.590   6.733
 3883POPC   C3B52125  21.786  27.298   7.090
 3883POPC   C4B52126  21.883  27.369   7.557
 3884POPC   NC352127  28.984  33.116   5.518
 3884POPC   PO452128  29.500  32.730   5.517
 3884POPC   GL152129  29.164  32.759   5.884
 3884POPC   GL252130  28.844  32.942   5.963
 3884POPC   C1A52131  29.228  32.846   6.315
 3884POPC   D2A52132  29.592  32.769   6.590
 3884POPC   C3A52133  29.459  32.762   7.021
 3884POPC   C4A52134  29.048  32.753   7.211
 3884POPC   C1B52135  28.718  32.994   6.379
 3884POPC   C2B52136  28.741  32.950   6.838
 3884POPC   C3B52137  28.668  33.135   7.255
 3884POPC   C4B52138  28.491  33.123   7.683
 3885POPC   NC352139  30.007  37.402   5.392
 3885POPC   PO452140  30.047  38.055   5.285
 3885POPC   GL152141  29.903  37.866   5.674
 3885POPC   GL252142  29.643  37.601   5.736
 3885POPC   C1A52143  29.987  37.772   6.117
 3885POPC   D2A52144  29.850  37.978   6.503
 3885POPC   C3A52145  29.937  37.768   6.897
 3885POPC   C4A52146  29.706  37.472   7.119
 3885POPC   C1B52147  29.490  37.716   6.206
 3885POPC   C2B52148  29.443  37.725   6.696
 3885POPC   C3B52149  29.474  37.926   7.119
 3885POPC   C4B52150  29.499  37.703   7.550
 3886POPC   NC352151   8.086   2.531   5.341
 3886POPC   PO452152   8.626   2.943   5.387
 3886POPC   GL152153   8.353   2.796   5.744
 3886POPC   GL252154   8.206   2.439   5.828
 3886POPC   C1A52155   8.194   2.904   6.163
 3886POPC   D2A52156   8.328   2.806   6.585
 3886POPC   C3A52157   8.148   3.011   6.916
 3886POPC   C4A52158   8.263   2.962   7.322
 3886POPC   C1B52159   8.361   2.408   6.243
 3886POPC   C2B52160   8.314   2.301   6.681
 3886POPC   C3B52161   8.275   2.514   7.078
 3886POPC   C4B52162   8.148   2.530   7.569
 3887POPC   NC352163  36.536  23.595   5.465
 3887POPC   PO452164  37.090  23.922   5.348
 3887POPC   GL152165  36.938  23.806   5.759
 3887POPC   GL252166  36.649  24.008   5.750
 3887POPC   C1A52167  36.718  23.566   6.119
 3887POPC   D2A52168  36.730  23.355   6.540
 3887POPC   C3A52169  37.015  23.614   6.787
 3887POPC   C4A52170  36.971  23.838   7.175
 3887POPC   C1B52171  36.757  24.102   6.169
 3887POPC   C2B52172  36.667  23.884   6.550
 3887POPC   C3B52173  36.490  23.793   6.949
 3887POPC   C4B52174  36.551  24.137   7.222
 3888POPC   NC352175   2.512  22.185   5.327
 3888POPC   PO452176   3.123  21.910   5.408
 3888POPC   GL152177   2.899  22.118   5.793
 3888POPC   GL252178   2.546  22.158   5.835
 3888POPC   C1A52179   3.032  22.255   6.240
 3888POPC   D2A52180   2.862  22.486   6.653
 3888POPC   C3A52181   3.101  22.526   7.057
 3888POPC   C4A52182   3.127  22.349   7.475
 3888POPC   C1B52183   2.546  22.239   6.280
 3888POPC   C2B52184   2.772  21.994   6.627
 3888POPC   C3B52185   2.747  22.153   7.053
 3888POPC   C4B52186   2.640  22.451   7.394
 3889POPC   NC352187   6.148  10.000   5.401
 3889POPC   PO452188   5.583   9.638   5.365
 3889POPC   GL152189   5.868   9.706   5.734
 3889POPC   GL252190   6.166   9.891   5.882
 3889POPC   C1A52191   5.731   9.713   6.159
 3889POPC   D2A52192   5.740   9.487   6.530
 3889POPC   C3A52193   5.677   9.731   6.886
 3889POPC   C4A52194   5.642   9.487   7.243
 3889POPC   C1B52195   6.371  10.122   6.218
 3889POPC   C2B52196   6.111   9.925   6.533
 3889POPC   C3B52197   6.176   9.903   6.946
 3889POPC   C4B52198   5.873  10.050   7.237
 3890POPC   NC352199  27.861   1.098   5.608
 3890POPC   PO452200  27.390   1.600   5.456
 3890POPC   GL152201  27.448   1.406   5.865
 3890POPC   GL252202  27.387   1.071   5.899
 3890POPC   C1A52203  27.648   1.330   6.298
 3890POPC   D2A52204  27.706   1.025   6.666
 3890POPC   C3A52205  27.975   1.178   6.999
 3890POPC   C4A52206  27.918   1.581   7.164
 3890POPC   C1B52207  27.435   0.840   6.256
 3890POPC   C2B52208  27.184   0.913   6.605
 3890POPC   C3B52209  27.145   0.921   7.005
 3890POPC   C4B52210  27.529   0.987   7.177
 3891POPC   NC352211  19.993  44.635   5.440
 3891POPC   PO452212  19.417  44.976   5.365
 3891POPC   GL152213  19.580  44.780   5.738
 3891POPC   GL252214  19.525  44.439   5.820
 3891POPC   C1A52215  19.902  44.815   6.065
 3891POPC   D2A52216  20.065  44.735   6.461
 3891POPC   C3A52217  19.857  44.835   6.848
 3891POPC   C4A52218  19.911  44.928   7.267
 3891POPC   C1B52219  19.808  44.337   6.196
 3891POPC   C2B52220  19.807  44.344   6.675
 3891POPC   C3B52221  19.774  44.413   7.127
 3891POPC   C4B52222  19.508  44.221   7.452
 3892POPC   NC352223  18.652  36.307   5.638
 3892POPC   PO452224  18.353  35.935   5.179
 3892POPC   GL152225  18.457  35.827   5.731
 3892POPC   GL252226  18.294  36.104   5.921
 3892POPC   C1A52227  18.513  35.802   6.233
 3892POPC   D2A52228  18.533  36.071   6.606
 3892POPC   C3A52229  18.670  35.936   6.957
 3892POPC   C4A52230  18.542  36.113   7.305
 3892POPC   C1B52231  18.145  36.257   6.312
 3892POPC   C2B52232  18.210  36.486   6.704
 3892POPC   C3B52233  18.123  36.337   7.150
 3892POPC   C4B52234  18.073  36.345   7.616
 3893POPC   NC352235   5.085  28.765   5.415
 3893POPC   PO452236   5.302  28.210   5.520
 3893POPC   GL152237   5.340  28.521   5.818
 3893POPC   GL252238   4.984  28.503   5.915
 3893POPC   C1A52239   5.321  28.680   6.248
 3893POPC   D2A52240   5.016  28.559   6.556
 3893POPC   C3A52241   5.140  28.633   6.970
 3893POPC   C4A52242   5.202  28.478   7.374
 3893POPC   C1B52243   5.172  28.182   6.228
 3893POPC   C2B52244   5.061  28.049   6.660
 3893POPC   C3B52245   4.878  28.203   7.067
 3893POPC   C4B52246   4.744  28.247   7.523
 3894POPC   NC352247  24.895   4.436   5.172
 3894POPC   PO452248  25.523   4.338   5.240
 3894POPC   GL152249  25.308   4.388   5.654
 3894POPC   GL252250  25.098   4.098   5.736
 3894POPC   C1A52251  25.446   4.358   6.092
 3894POPC   D2A52252  25.684   4.483   6.457
 3894POPC   C3A52253  25.549   4.361   6.853
 3894POPC   C4A52254  25.409   4.235   7.236
 3894POPC   C1B52255  24.951   4.163   6.173
 3894POPC   C2B52256  25.137   4.041   6.602
 3894POPC   C3B52257  24.988   4.077   6.991
 3894POPC   C4B52258  24.866   3.969   7.411
 3895POPC   NC352259  10.936  15.446   5.421
 3895POPC   PO452260  11.453  15.206   5.036
 3895POPC   GL152261  11.423  15.281   5.522
 3895POPC   GL252262  11.744  15.248   5.714
 3895POPC   C1A52263  11.290  15.303   6.001
 3895POPC   D2A52264  11.399  15.195   6.454
 3895POPC   C3A52265  11.327  15.334   6.886
 3895POPC   C4A52266  11.103  15.477   7.237
 3895POPC   C1B52267  11.738  15.014   6.123
 3895POPC   C2B52268  11.738  14.833   6.569
 3895POPC   C3B52269  11.691  14.925   7.032
 3895POPC   C4B52270  11.645  14.750   7.441
 3896POPC   NC352271  22.690   2.424   5.443
 3896POPC   PO452272  22.655   3.057   5.112
 3896POPC   GL152273  22.867   3.126   5.626
 3896POPC   GL252274  23.001   2.791   5.670
 3896POPC   C1A52275  22.819   3.041   6.077
 3896POPC   D2A52276  22.681   2.711   6.394
 3896POPC   C3A52277  22.830   2.814   6.788
 3896POPC   C4A52278  22.993   2.898   7.155
 3896POPC   C1B52279  23.135   2.628   6.114
 3896POPC   C2B52280  23.226   2.538   6.593
 3896POPC   C3B52281  23.051   2.412   7.044
 3896POPC   C4B52282  23.180   2.430   7.490
 3897POPC   NC352283  32.028  15.476   5.529
 3897POPC   PO452284  32.158  14.838   5.367
 3897POPC   GL152285  32.244  15.043   5.741
 3897POPC   GL252286  31.909  15.033   5.794
 3897POPC   C1A52287  32.251  15.272   6.155
 3897POPC   D2A52288  32.307  15.626   6.464
 3897POPC   C3A52289  32.301  15.480   6.914
 3897POPC   C4A52290  32.388  15.068   7.097
 3897POPC   C1B52291  31.738  14.815   6.133
 3897POPC   C2B52292  31.668  14.716   6.569
 3897POPC   C3B52293  31.679  14.973   6.924
 3897POPC   C4B52294  31.913  15.058   7.261
 3898POPC   NC352295  11.185  20.224   5.422
 3898POPC   PO452296  11.378  20.831   5.479
 3898POPC   GL152297  11.468  20.727   5.873
 3898POPC   GL252298  11.164  20.550   5.860
 3898POPC   C1A52299  11.415  20.675   6.321
 3898POPC   D2A52300  11.511  20.407   6.671
 3898POPC   C3A52301  11.310  20.580   7.076
 3898POPC   C4A52302  11.465  20.970   7.291
 3898POPC   C1B52303  10.955  20.439   6.210
 3898POPC   C2B52304  11.014  20.536   6.631
 3898POPC   C3B52305  10.786  20.405   6.956
 3898POPC   C4B52306  10.855  20.386   7.344
 3899POPC   NC352307   5.449  18.275   5.344
 3899POPC   PO452308   6.049  18.611   5.253
 3899POPC   GL152309   5.890  18.441   5.669
 3899POPC   GL252310   5.590  18.248   5.815
 3899POPC   C1A52311   6.020  18.277   6.093
 3899POPC   D2A52312   5.950  18.063   6.475
 3899POPC   C3A52313   5.825  18.303   6.848
 3899POPC   C4A52314   5.849  18.625   7.205
 3899POPC   C1B52315   5.606  18.601   6.084
 3899POPC   C2B52316   5.600  18.728   6.504
 3899POPC   C3B52317   5.431  18.629   6.896
 3899POPC   C4B52318   5.439  18.303   7.209
 3900POPC   NC352319  35.884  27.934   5.306
 3900POPC   PO452320  36.407  27.525   5.274
 3900POPC   GL152321  36.213  27.679   5.689
 3900POPC   GL252322  35.878  27.735   5.774
 3900POPC   C1A52323  36.148  27.511   6.139
 3900POPC   D2A52324  36.182  27.675   6.558
 3900POPC   C3A52325  36.042  27.417   6.874
 3900POPC   C4A52326  36.250  27.231   7.141
 3900POPC   C1B52327  35.874  27.969   6.206
 3900POPC   C2B52328  35.957  28.158   6.627
 3900POPC   C3B52329  36.111  27.943   7.000
 3900POPC   C4B52330  35.893  27.685   7.299
 3901POPC   NC352331  23.258  43.329   5.347
 3901POPC   PO452332  23.806  42.908   5.293
 3901POPC   GL152333  23.681  43.055   5.693
 3901POPC   GL252334  23.894  43.294   5.904
 3901POPC   C1A52335  23.595  42.955   6.115
 3901POPC   D2A52336  23.493  43.090   6.510
 3901POPC   C3A52337  23.659  42.993   6.930
 3901POPC   C4A52338  23.395  42.882   7.260
 3901POPC   C1B52339  23.745  43.487   6.290
 3901POPC   C2B52340  23.667  43.498   6.761
 3901POPC   C3B52341  23.948  43.526   7.113
 3901POPC   C4B52342  24.077  43.437   7.543
 3902POPC   NC352343  14.147  31.414   5.388
 3902POPC   PO452344  14.741  31.628   5.247
 3902POPC   GL152345  14.564  31.533   5.650
 3902POPC   GL252346  14.678  31.206   5.740
 3902POPC   C1A52347  14.281  31.427   6.041
 3902POPC   D2A52348  13.982  31.467   6.419
 3902POPC   C3A52349  14.147  31.540   6.861
 3902POPC   C4A52350  14.003  31.733   7.261
 3902POPC   C1B52351  14.783  31.508   6.095
 3902POPC   C2B52352  14.701  31.429   6.518
 3902POPC   C3B52353  14.814  31.452   6.963
 3902POPC   C4B52354  14.473  31.287   7.253
 3903POPC   NC352355  15.750  44.752   5.448
 3903POPC   PO452356  15.028  44.823   5.459
 3903POPC   GL152357  15.295  44.639   5.743
 3903POPC   GL252358  15.246  44.953   5.963
 3903POPC   C1A52359  15.381  44.529   6.195
 3903POPC   D2A52360  15.196  44.778   6.542
 3903POPC   C3A52361  14.964  44.547   6.860
 3903POPC   C4A52362  14.879  44.490   7.305
 3903POPC   C1B52363  15.468   0.180   6.316
 3903POPC   C2B52364  15.575   0.067   6.749
 3903POPC   C3B52365  15.376  44.799   7.048
 3903POPC   C4B52366  15.645  44.613   7.384
 3904POPC   NC352367  26.469  41.336   5.019
 3904POPC   PO452368  26.833  41.727   5.188
 3904POPC   GL152369  26.855  41.775   5.686
 3904POPC   GL252370  26.718  41.479   5.879
 3904POPC   C1A52371  26.859  41.886   6.171
 3904POPC   D2A52372  27.008  42.001   6.609
 3904POPC   C3A52373  26.810  41.939   7.043
 3904POPC   C4A52374  27.002  41.603   7.328
 3904POPC   C1B52375  26.719  41.421   6.351
 3904POPC   C2B52376  26.808  41.493   6.797
 3904POPC   C3B52377  26.535  41.487   7.175
 3904POPC   C4B52378  26.571  41.350   7.630
 3905POPC   NC352379  27.861  15.527   5.551
 3905POPC   PO452380  27.736  14.940   5.380
 3905POPC   GL152381  27.786  15.085   5.803
 3905POPC   GL252382  27.547  15.328   5.924
 3905POPC   C1A52383  27.923  15.147   6.220
 3905POPC   D2A52384  27.684  15.144   6.609
 3905POPC   C3A52385  27.843  15.273   6.992
 3905POPC   C4A52386  27.798  15.023   7.319
 3905POPC   C1B52387  27.305  15.133   6.281
 3905POPC   C2B52388  27.218  15.264   6.740
 3905POPC   C3B52389  27.360  15.320   7.166
 3905POPC   C4B52390  27.228  15.605   7.519
 3906POPC   NC352391  40.314  38.833   5.537
 3906POPC   PO452392  39.827  38.376   5.513
 3906POPC   GL152393  40.090  38.461   5.860
 3906POPC   GL252394  39.997  38.829   5.927
 3906POPC   C1A52395  40.088  38.510   6.314
 3906POPC   D2A52396  39.837  38.747   6.641
 3906POPC   C3A52397  39.934  38.526   7.014
 3906POPC   C4A52398  40.349  38.482   7.127
 3906POPC   C1B52399  40.216  39.008   6.283
 3906POPC   C2B52400  40.340  38.775   6.680
 3906POPC   C3B52401  40.197  38.952   7.088
 3906POPC   C4B52402  40.215  38.786   7.515
 3907POPC   NC352403   6.651  43.174   5.439
 3907POPC   PO452404   6.060  43.374   5.561
 3907POPC   GL152405   6.441  43.371   5.864
 3907POPC   GL252406   6.856  43.306   5.888
 3907POPC   C1A52407   6.539  43.193   6.271
 3907POPC   D2A52408   6.771  43.104   6.623
 3907POPC   C3A52409   6.483  43.137   6.952
 3907POPC   C4A52410   6.328  43.240   7.361
 3907POPC   C1B52411   6.909  42.873   6.144
 3907POPC   C2B52412   6.950  42.593   6.511
 3907POPC   C3B52413   6.997  42.758   6.937
 3907POPC   C4B52414   6.804  42.945   7.293
 3908POPC   NC352415  31.604  13.007   5.363
 3908POPC   PO452416  31.199  12.488   5.389
 3908POPC   GL152417  31.310  12.789   5.742
 3908POPC   GL252418  31.098  13.034   5.828
 3908POPC   C1A52419  31.530  12.873   6.149
 3908POPC   D2A52420  31.732  12.596   6.467
 3908POPC   C3A52421  31.692  12.724   6.899
 3908POPC   C4A52422  31.583  12.690   7.362
 3908POPC   C1B52423  31.040  13.006   6.278
 3908POPC   C2B52424  31.259  12.821   6.619
 3908POPC   C3B52425  31.266  12.976   7.066
 3908POPC   C4B52426  31.360  13.139   7.505
 3909POPC   NC352427  13.884  42.831   5.377
 3909POPC   PO452428  13.492  43.400   5.405
 3909POPC   GL152429  13.455  43.476   5.830
 3909POPC   GL252430  13.765  43.314   5.922
 3909POPC   C1A52431  13.376  43.359   6.275
 3909POPC   D2A52432  13.345  43.466   6.702
 3909POPC   C3A52433  13.384  43.324   7.123
 3909POPC   C4A52434  13.627  43.379   7.544
 3909POPC   C1B52435  13.787  43.094   6.350
 3909POPC   C2B52436  13.697  43.059   6.803
 3909POPC   C3B52437  13.699  42.948   7.259
 3909POPC   C4B52438  13.755  42.906   7.710
 3910POPC   NC352439  10.200  30.147   5.486
 3910POPC   PO452440   9.525  29.963   5.384
 3910POPC   GL152441   9.749  30.136   5.736
 3910POPC   GL252442   9.941  29.849   5.802
 3910POPC   C1A52443   9.914  30.175   6.179
 3910POPC   D2A52444   9.766  29.962   6.573
 3910POPC   C3A52445   9.497  29.889   6.949
 3910POPC   C4A52446   9.714  30.115   7.269
 3910POPC   C1B52447   9.747  29.663   6.138
 3910POPC   C2B52448   9.785  29.455   6.533
 3910POPC   C3B52449   9.890  29.559   6.950
 3910POPC   C4B52450   9.758  29.567   7.376
 3911POPC   NC352451  39.959  18.642   5.308
 3911POPC   PO452452  39.526  18.098   5.390
 3911POPC   GL152453  39.775  18.311   5.739
 3911POPC   GL252454  40.058  18.557   5.807
 3911POPC   C1A52455  39.696  18.450   6.174
 3911POPC   D2A52456  39.856  18.528   6.602
 3911POPC   C3A52457  39.897  18.166   6.887
 3911POPC   C4A52458  39.965  18.160   7.368
 3911POPC   C1B52459  40.219  18.368   6.191
 3911POPC   C2B52460  40.374  18.438   6.618
 3911POPC   C3B52461  40.272  18.473   7.036
 3911POPC   C4B52462  40.376  18.433   7.464
 3912POPC   NC352463  33.669  13.594   5.407
 3912POPC   PO452464  34.062  14.035   5.275
 3912POPC   GL152465  34.017  13.881   5.724
 3912POPC   GL252466  33.924  13.511   5.840
 3912POPC   C1A52467  34.131  13.862   6.175
 3912POPC   D2A52468  34.244  13.515   6.457
 3912POPC   C3A52469  34.017  13.575   6.850
 3912POPC   C4A52470  34.166  13.547   7.269
 3912POPC   C1B52471  33.758  13.441   6.282
 3912POPC   C2B52472  33.574  13.774   6.570
 3912POPC   C3B52473  33.438  13.931   6.971
 3912POPC   C4B52474  33.795  13.941   7.254
 3913POPC   NC352475  39.379  38.524   5.446
 3913POPC   PO452476  38.708  38.290   5.451
 3913POPC   GL152477  38.942  38.284   5.851
 3913POPC   GL252478  39.035  38.641   5.906
 3913POPC   C1A52479  39.292  38.308   6.202
 3913POPC   D2A52480  39.332  38.684   6.503
 3913POPC   C3A52481  39.432  38.603   6.940
 3913POPC   C4A52482  39.296  38.334   7.253
 3913POPC   C1B52483  38.847  38.494   6.333
 3913POPC   C2B52484  38.948  38.478   6.790
 3913POPC   C3B52485  38.825  38.526   7.248
 3913POPC   C4B52486  38.957  38.325   7.666
 3914POPC   NC352487   4.387  13.125   5.275
 3914POPC   PO452488   4.663  12.594   5.222
 3914POPC   GL152489   4.679  12.850   5.642
 3914POPC   GL252490   4.500  13.161   5.777
 3914POPC   C1A52491   4.781  12.908   6.129
 3914POPC   D2A52492   4.580  12.890   6.582
 3914POPC   C3A52493   4.654  12.828   7.050
 3914POPC   C4A52494   4.443  12.805   7.479
 3914POPC   C1B52495   4.408  13.258   6.237
 3914POPC   C2B52496   4.269  13.297   6.701
 3914POPC   C3B52497   4.301  13.207   7.150
 3914POPC   C4B52498   4.174  13.265   7.579
 3915POPC   NC352499  39.830  28.072   5.497
 3915POPC   PO452500  40.148  28.563   5.242
 3915POPC   GL152501  40.091  28.488   5.708
 3915POPC   GL252502  39.743  28.472   5.789
 3915POPC   C1A52503  40.154  28.221   6.114
 3915POPC   D2A52504  40.546  28.137   6.414
 3915POPC   C3A52505  40.413  28.100   6.852
 3915POPC   C4A52506  40.072  28.079   7.137
 3915POPC   C1B52507  39.624  28.316   6.180
 3915POPC   C2B52508  39.706  28.438   6.606
 3915POPC   C3B52509  39.911  28.552   6.990
 3915POPC   C4B52510  40.063  28.469   7.450
 3916POPC   NC352511   4.498  34.089   5.507
 3916POPC   PO452512   4.124  33.613   5.172
 3916POPC   GL152513   4.233  33.653   5.676
 3916POPC   GL252514   4.242  33.932   5.922
 3916POPC   C1A52515   4.435  33.504   6.111
 3916POPC   D2A52516   4.332  33.359   6.539
 3916POPC   C3A52517   4.261  33.664   6.850
 3916POPC   C4A52518   4.453  33.653   7.235
 3916POPC   C1B52519   4.635  34.019   6.162
 3916POPC   C2B52520   4.718  34.203   6.555
 3916POPC   C3B52521   4.615  34.051   6.939
 3916POPC   C4B52522   4.271  34.116   7.208
 3917POPC   NC352523  12.072   3.239   5.271
 3917POPC   PO452524  11.898   3.867   5.474
 3917POPC   GL152525  12.060   3.757   5.883
 3917POPC   GL252526  12.008   3.386   5.944
 3917POPC   C1A52527  12.027   3.719   6.333
 3917POPC   D2A52528  12.050   3.474   6.701
 3917POPC   C3A52529  12.132   3.629   7.128
 3917POPC   C4A52530  12.070   3.650   7.603
 3917POPC   C1B52531  12.338   3.311   6.264
 3917POPC   C2B52532  12.556   3.146   6.598
 3917POPC   C3B52533  12.352   3.153   6.977
 3917POPC   C4B52534  12.456   3.269   7.377
 3918POPC   NC352535   4.300  21.887   5.568
 3918POPC   PO452536   3.850  21.333   5.583
 3918POPC   GL152537   4.064  21.419   5.934
 3918POPC   GL252538   4.427  21.486   5.914
 3918POPC   C1A52539   3.897  21.256   6.318
 3918POPC   D2A52540   4.115  21.231   6.730
 3918POPC   C3A52541   4.116  21.640   6.882
 3918POPC   C4A52542   4.247  21.837   7.231
 3918POPC   C1B52543   4.399  21.187   6.294
 3918POPC   C2B52544   4.631  21.180   6.684
 3918POPC   C3B52545   4.500  21.368   7.120
 3918POPC   C4B52546   4.489  21.229   7.603
 3919POPC   NC352547  20.989  33.904   5.099
 3919POPC   PO452548  21.645  33.834   5.326
 3919POPC   GL152549  21.360  33.799   5.663
 3919POPC   GL252550  21.050  33.623   5.579
 3919POPC   C1A52551  21.468  33.772   6.099
 3919POPC   D2A52552  21.693  33.760   6.497
 3919POPC   C3A52553  21.421  33.758   6.871
 3919POPC   C4A52554  21.248  33.600   7.264
 3919POPC   C1B52555  20.966  33.629   6.026
 3919POPC   C2B52556  21.116  33.627   6.451
 3919POPC   C3B52557  20.947  33.560   6.857
 3919POPC   C4B52558  20.710  33.568   7.262
 3920POPC   NC352559  40.389  24.647   5.484
 3920POPC   PO452560  39.886  24.298   5.311
 3920POPC   GL152561  39.944  24.534   5.730
 3920POPC   GL252562  39.723  24.789   5.797
 3920POPC   C1A52563  40.158  24.499   6.162
 3920POPC   D2A52564  40.367  24.376   6.567
 3920POPC   C3A52565  40.084  24.335   6.912
 3920POPC   C4A52566  39.752  24.319   7.228
 3920POPC   C1B52567  39.631  24.597   6.214
 3920POPC   C2B52568  39.578  24.808   6.621
 3920POPC   C3B52569  39.818  24.807   7.014
 3920POPC   C4B52570  40.257  24.753   7.156
 3921POPC   NC352571  34.323  10.924   5.505
 3921POPC   PO452572  34.341  11.645   5.370
 3921POPC   GL152573  34.515  11.347   5.736
 3921POPC   GL252574  34.269  11.183   5.931
 3921POPC   C1A52575  34.744  11.276   6.158
 3921POPC   D2A52576  34.951  11.492   6.530
 3921POPC   C3A52577  34.782  11.312   6.900
 3921POPC   C4A52578  34.736  11.238   7.312
 3921POPC   C1B52579  34.327  10.975   6.284
 3921POPC   C2B52580  34.536  10.954   6.634
 3921POPC   C3B52581  34.471  10.869   7.072
 3921POPC   C4B52582  34.261  11.034   7.438
 3922POPC   NC352583   6.738  41.850   5.369
 3922POPC   PO452584   6.504  41.211   5.492
 3922POPC   GL152585   6.595  41.482   5.805
 3922POPC   GL252586   6.384  41.776   5.729
 3922POPC   C1A52587   6.756  41.376   6.211
 3922POPC   D2A52588   6.526  41.273   6.606
 3922POPC   C3A52589   6.664  41.402   6.986
 3922POPC   C4A52590   7.038  41.205   7.179
 3922POPC   C1B52591   6.585  41.901   6.100
 3922POPC   C2B52592   6.651  41.761   6.515
 3922POPC   C3B52593   6.615  41.936   6.891
 3922POPC   C4B52594   6.686  41.823   7.294
 3923POPC   NC352595   6.428  35.466   5.592
 3923POPC   PO452596   7.051  35.635   5.431
 3923POPC   GL152597   6.866  35.611   5.844
 3923POPC   GL252598   6.824  35.241   5.863
 3923POPC   C1A52599   6.906  35.481   6.300
 3923POPC   D2A52600   6.859  35.213   6.686
 3923POPC   C3A52601   6.832  35.397   7.115
 3923POPC   C4A52602   6.454  35.537   7.375
 3923POPC   C1B52603   6.550  35.109   6.196
 3923POPC   C2B52604   6.359  35.120   6.597
 3923POPC   C3B52605   6.429  35.076   7.050
 3923POPC   C4B52606   6.411  34.962   7.507
 3924POPC   NC352607   1.742  36.158   5.132
 3924POPC   PO452608   2.197  36.467   5.174
 3924POPC   GL152609   2.066  36.372   5.619
 3924POPC   GL252610   2.303  36.140   5.741
 3924POPC   C1A52611   2.228  36.520   6.087
 3924POPC   D2A52612   2.406  36.447   6.559
 3924POPC   C3A52613   2.188  36.393   6.984
 3924POPC   C4A52614   1.966  36.481   7.380
 3924POPC   C1B52615   2.284  36.032   6.209
 3924POPC   C2B52616   2.132  35.995   6.655
 3924POPC   C3B52617   2.214  35.896   7.110
 3924POPC   C4B52618   2.323  35.663   7.509
 3925POPC   NC352619  36.071   8.775   5.475
 3925POPC   PO452620  36.360   9.365   5.531
 3925POPC   GL152621  36.235   9.097   5.875
 3925POPC   GL252622  35.922   8.902   5.936
 3925POPC   C1A52623  36.288   9.070   6.307
 3925POPC   D2A52624  36.078   9.179   6.679
 3925POPC   C3A52625  36.214   8.924   7.005
 3925POPC   C4A52626  36.360   9.093   7.362
 3925POPC   C1B52627  35.802   8.868   6.343
 3925POPC   C2B52628  35.849   8.678   6.718
 3925POPC   C3B52629  35.709   8.823   7.100
 3925POPC   C4B52630  35.934   8.844   7.446
 3926POPC   NC352631   3.388  37.231   5.337
 3926POPC   PO452632   2.981  36.678   5.484
 3926POPC   GL152633   2.845  36.809   5.903
 3926POPC   GL252634   2.879  37.179   5.954
 3926POPC   C1A52635   2.867  36.780   6.354
 3926POPC   D2A52636   2.818  36.775   6.786
 3926POPC   C3A52637   2.836  37.050   7.099
 3926POPC   C4A52638   2.567  37.153   7.388
 3926POPC   C1B52639   2.643  37.230   6.359
 3926POPC   C2B52640   2.373  36.968   6.618
 3926POPC   C3B52641   2.295  36.884   7.052
 3926POPC   C4B52642   2.100  36.986   7.495
 3927POPC   NC352643  37.990  43.422   5.727
 3927POPC   PO452644  38.488  43.329   5.304
 3927POPC   GL152645  38.578  43.297   5.740
 3927POPC   GL252646  38.651  42.956   5.799
 3927POPC   C1A52647  38.412  43.221   6.175
 3927POPC   D2A52648  38.444  43.010   6.587
 3927POPC   C3A52649  38.102  42.995   6.868
 3927POPC   C4A52650  38.070  43.237   7.276
 3927POPC   C1B52651  38.886  43.029   6.160
 3927POPC   C2B52652  38.911  42.827   6.538
 3927POPC   C3B52653  38.861  42.952   6.957
 3927POPC   C4B52654  38.490  42.881   7.178
 3928POPC   NC352655  30.225  15.878   5.432
 3928POPC   PO452656  29.553  16.138   5.479
 3928POPC   GL152657  29.863  16.028   5.800
 3928POPC   GL252658  29.805  15.666   5.689
 3928POPC   C1A52659  30.125  16.102   6.218
 3928POPC   D2A52660  30.373  16.110   6.660
 3928POPC   C3A52661  30.223  16.033   7.107
 3928POPC   C4A52662  30.185  16.047   7.565
 3928POPC   C1B52663  29.911  15.610   6.120
 3928POPC   C2B52664  29.886  15.500   6.547
 3928POPC   C3B52665  29.768  15.596   6.977
 3928POPC   C4B52666  29.969  15.641   7.358
 3929POPC   NC352667  25.188   6.916   5.537
 3929POPC   PO452668  25.474   6.342   5.593
 3929POPC   GL152669  25.213   6.522   5.910
 3929POPC   GL252670  25.252   6.829   6.016
 3929POPC   C1A52671  25.059   6.443   6.338
 3929POPC   D2A52672  25.113   6.318   6.777
 3929POPC   C3A52673  25.499   6.445   6.998
 3929POPC   C4A52674  25.639   6.867   7.077
 3929POPC   C1B52675  25.065   6.960   6.358
 3929POPC   C2B52676  25.260   6.793   6.692
 3929POPC   C3B52677  25.130   6.762   7.087
 3929POPC   C4B52678  25.094   7.159   7.155
 3930POPC   NC352679   9.560   1.678   5.340
 3930POPC   PO452680   9.479   0.979   5.382
 3930POPC   GL152681   9.471   1.295   5.699
 3930POPC   GL252682   9.825   1.442   5.733
 3930POPC   C1A52683   9.473   1.238   6.149
 3930POPC   D2A52684   9.781   1.127   6.458
 3930POPC   C3A52685   9.682   1.181   6.889
 3930POPC   C4A52686  10.020   1.356   7.139
 3930POPC   C1B52687   9.949   1.031   5.935
 3930POPC   C2B52688  10.121   0.783   6.301
 3930POPC   C3B52689  10.053   0.781   6.763
 3930POPC   C4B52690   9.933   0.862   7.210
 3931POPC   NC352691  14.658  34.918   5.532
 3931POPC   PO452692  14.420  34.305   5.371
 3931POPC   GL152693  14.552  34.438   5.841
 3931POPC   GL252694  14.585  34.782   6.011
 3931POPC   C1A52695  14.444  34.375   6.306
 3931POPC   D2A52696  14.346  34.347   6.757
 3931POPC   C3A52697  14.632  34.492   7.062
 3931POPC   C4A52698  14.597  34.921   7.123
 3931POPC   C1B52699  14.164  34.862   6.156
 3931POPC   C2B52700  13.929  34.913   6.561
 3931POPC   C3B52701  14.088  34.800   6.967
 3931POPC   C4B52702  13.974  34.960   7.375
 3932POPC   NC352703  41.371  15.428   5.479
 3932POPC   PO452704  41.977  15.587   5.452
 3932POPC   GL152705  41.780  15.404   5.796
 3932POPC   GL252706  41.635  15.069   5.787
 3932POPC   C1A52707  41.487  15.437   6.150
 3932POPC   D2A52708  41.445  15.225   6.537
 3932POPC   C3A52709  41.587  15.445   6.881
 3932POPC   C4A52710  41.433  15.403   7.268
 3932POPC   C1B52711  41.747  14.925   6.227
 3932POPC   C2B52712  41.660  14.765   6.677
 3932POPC   C3B52713  41.517  14.899   7.095
 3932POPC   C4B52714  41.765  14.954   7.508
 3933POPC   NC352715  32.418  29.286   5.204
 3933POPC   PO452716  31.962  28.752   5.213
 3933POPC   GL152717  32.239  28.922   5.606
 3933POPC   GL252718  32.301  29.300   5.707
 3933POPC   C1A52719  32.201  29.010   6.102
 3933POPC   D2A52720  32.121  28.833   6.565
 3933POPC   C3A52721  32.105  29.079   6.928
 3933POPC   C4A52722  32.278  29.210   7.301
 3933POPC   C1B52723  32.011  29.483   6.047
 3933POPC   C2B52724  32.076  29.337   6.465
 3933POPC   C3B52725  32.274  29.532   6.810
 3933POPC   C4B52726  32.097  29.693   7.130
 3934POPC   NC352727  35.735  30.999   5.472
 3934POPC   PO452728  35.032  30.880   5.476
 3934POPC   GL152729  35.096  30.750   5.878
 3934POPC   GL252730  35.431  30.725   5.795
 3934POPC   C1A52731  35.216  30.564   6.284
 3934POPC   D2A52732  35.354  30.707   6.677
 3934POPC   C3A52733  35.201  30.474   7.025
 3934POPC   C4A52734  35.471  30.429   7.338
 3934POPC   C1B52735  35.430  31.017   6.155
 3934POPC   C2B52736  35.735  31.000   6.486
 3934POPC   C3B52737  35.649  31.122   6.889
 3934POPC   C4B52738  35.321  30.961   7.137
 3935POPC   NC352739  41.134   2.677   4.965
 3935POPC   PO452740  41.681   2.772   5.300
 3935POPC   GL152741  41.717   2.856   5.711
 3935POPC   GL252742  41.426   3.080   5.710
 3935POPC   C1A52743  41.906   2.710   6.084
 3935POPC   D2A52744  41.770   2.603   6.474
 3935POPC   C3A52745  41.925   2.801   6.830
 3935POPC   C4A52746  41.783   2.759   7.234
 3935POPC   C1B52747  41.358   2.772   6.056
 3935POPC   C2B52748  41.281   2.669   6.479
 3935POPC   C3B52749  41.413   2.919   6.832
 3935POPC   C4B52750  41.323   2.966   7.254
 3936POPC   NC352751  29.956  13.140   5.239
 3936POPC   PO452752  29.841  12.607   5.097
 3936POPC   GL152753  29.828  12.721   5.623
 3936POPC   GL252754  30.055  12.994   5.865
 3936POPC   C1A52755  29.820  12.628   6.116
 3936POPC   D2A52756  29.932  12.851   6.538
 3936POPC   C3A52757  29.778  12.804   7.015
 3936POPC   C4A52758  29.668  13.087   7.416
 3936POPC   C1B52759  30.339  12.721   6.158
 3936POPC   C2B52760  30.402  12.660   6.605
 3936POPC   C3B52761  30.265  12.987   6.907
 3936POPC   C4B52762  30.152  12.983   7.326
 3937POPC   NC352763  39.790  10.176   5.588
 3937POPC   PO452764  39.680   9.556   5.375
 3937POPC   GL152765  39.913   9.681   5.760
 3937POPC   GL252766  40.181   9.956   5.797
 3937POPC   C1A52767  40.060   9.645   6.192
 3937POPC   D2A52768  39.911   9.861   6.547
 3937POPC   C3A52769  39.961   9.663   6.926
 3937POPC   C4A52770  39.821   9.674   7.329
 3937POPC   C1B52771  40.289  10.124   6.201
 3937POPC   C2B52772  40.397  10.027   6.615
 3937POPC   C3B52773  40.272  10.159   7.031
 3937POPC   C4B52774  40.298   9.838   7.303
 3938POPC   NC352775   3.339  19.282   5.594
 3938POPC   PO452776   3.910  19.259   5.226
 3938POPC   GL152777   3.742  18.979   5.666
 3938POPC   GL252778   3.429  18.837   5.803
 3938POPC   C1A52779   3.759  19.028   6.152
 3938POPC   D2A52780   3.590  19.319   6.475
 3938POPC   C3A52781   3.475  19.248   6.922
 3938POPC   C4A52782   3.637  18.902   7.101
 3938POPC   C1B52783   3.243  18.931   6.207
 3938POPC   C2B52784   3.391  18.816   6.613
 3938POPC   C3B52785   3.152  18.833   6.979
 3938POPC   C4B52786   3.201  18.851   7.397
 3939POPC   NC352787  41.783  17.028   5.443
 3939POPC   PO452788  42.515  17.088   5.340
 3939POPC   GL152789  42.216  16.983   5.728
 3939POPC   GL252790  42.082  16.615   5.765
 3939POPC   C1A52791  42.261  16.839   6.178
 3939POPC   D2A52792  42.213  16.607   6.548
 3939POPC   C3A52793  42.315  16.757   6.953
 3939POPC   C4A52794  42.072  16.853   7.301
 3939POPC   C1B52795  41.839  16.530   6.172
 3939POPC   C2B52796  41.780  16.339   6.595
 3939POPC   C3B52797  42.017  16.360   6.962
 3939POPC   C4B52798  42.056  16.231   7.361
 3940POPC   NC352799  15.184  11.102   5.417
 3940POPC   PO452800  14.882  11.691   5.253
 3940POPC   GL152801  14.995  11.555   5.726
 3940POPC   GL252802  15.354  11.624   5.867
 3940POPC   C1A52803  14.990  11.357   6.166
 3940POPC   D2A52804  14.984  11.128   6.576
 3940POPC   C3A52805  15.056  11.340   6.989
 3940POPC   C4A52806  15.084  11.069   7.344
 3940POPC   C1B52807  15.298  11.732   6.276
 3940POPC   C2B52808  15.412  11.484   6.610
 3940POPC   C3B52809  15.560  11.603   7.005
 3940POPC   C4B52810  15.469  11.393   7.341
 3941POPC   NC352811  25.671  43.806   5.481
 3941POPC   PO452812  25.020  43.963   5.434
 3941POPC   GL152813  25.296  44.130   5.753
 3941POPC   GL252814  25.053  44.339   5.859
 3941POPC   C1A52815  25.480  44.069   6.197
 3941POPC   D2A52816  25.357  44.021   6.662
 3941POPC   C3A52817  25.350  43.881   7.110
 3941POPC   C4A52818  25.526  43.580   7.428
 3941POPC   C1B52819  24.968  44.047   6.164
 3941POPC   C2B52820  24.848  44.142   6.563
 3941POPC   C3B52821  24.970  44.263   6.942
 3941POPC   C4B52822  24.892  44.026   7.303
 3942POPC   NC352823  37.292  31.647   5.153
 3942POPC   PO452824  36.725  31.269   5.067
 3942POPC   GL152825  36.820  31.504   5.545
 3942POPC   GL252826  37.143  31.494   5.712
 3942POPC   C1A52827  36.776  31.749   6.003
 3942POPC   D2A52828  36.892  31.656   6.471
 3942POPC   C3A52829  36.725  31.716   6.925
 3942POPC   C4A52830  36.734  31.533   7.368
 3942POPC   C1B52831  36.926  31.279   6.100
 3942POPC   C2B52832  36.764  31.164   6.533
 3942POPC   C3B52833  36.994  31.257   6.937
 3942POPC   C4B52834  37.273  31.370   7.287
 3943POPC   NC352835  38.964  20.794   5.138
 3943POPC   PO452836  38.467  20.433   5.416
 3943POPC   GL152837  38.380  20.651   5.767
 3943POPC   GL252838  38.321  21.029   5.744
 3943POPC   C1A52839  38.517  20.509   6.158
 3943POPC   D2A52840  38.390  20.253   6.490
 3943POPC   C3A52841  38.465  20.417   6.885
 3943POPC   C4A52842  38.324  20.330   7.276
 3943POPC   C1B52843  38.169  20.889   6.162
 3943POPC   C2B52844  38.352  20.796   6.554
 3943POPC   C3B52845  38.466  20.949   6.961
 3943POPC   C4B52846  38.672  20.990   7.343
 3944POPC   NC352847  19.300  35.609   5.510
 3944POPC   PO452848  19.012  35.208   4.986
 3944POPC   GL152849  19.027  35.165   5.498
 3944POPC   GL252850  18.825  35.433   5.652
 3944POPC   C1A52851  18.976  35.081   5.999
 3944POPC   D2A52852  18.826  35.231   6.443
 3944POPC   C3A52853  19.107  35.218   6.816
 3944POPC   C4A52854  19.079  35.316   7.269
 3944POPC   C1B52855  18.956  35.586   6.103
 3944POPC   C2B52856  18.984  35.774   6.550
 3944POPC   C3B52857  19.131  35.764   7.026
 3944POPC   C4B52858  18.827  35.719   7.424
 3945POPC   NC352859  43.321  30.465   5.473
 3945POPC   PO452860  42.914  31.001   5.599
 3945POPC   GL152861  43.065  30.706   5.847
 3945POPC   GL252862  43.000  30.346   5.847
 3945POPC   C1A52863  42.934  30.672   6.248
 3945POPC   D2A52864  43.038  30.908   6.600
 3945POPC   C3A52865  42.944  30.752   7.004
 3945POPC   C4A52866  43.197  30.940   7.338
 3945POPC   C1B52867  43.172  30.197   6.221
 3945POPC   C2B52868  43.082  30.385   6.628
 3945POPC   C3B52869  43.198  30.284   7.010
 3945POPC   C4B52870  43.129  30.463   7.430
 3946POPC   NC352871  40.790  42.528   5.263
 3946POPC   PO452872  40.744  41.864   5.271
 3946POPC   GL152873  40.887  42.157   5.657
 3946POPC   GL252874  41.009  42.516   5.712
 3946POPC   C1A52875  40.976  42.193   6.106
 3946POPC   D2A52876  40.738  42.368   6.437
 3946POPC   C3A52877  40.776  42.233   6.833
 3946POPC   C4A52878  40.580  42.399   7.183
 3946POPC   C1B52879  40.780  42.722   6.053
 3946POPC   C2B52880  40.914  42.859   6.476
 3946POPC   C3B52881  41.050  42.669   6.886
 3946POPC   C4B52882  40.905  42.822   7.278
 3947POPC   NC352883  35.865  14.255   5.366
 3947POPC   PO452884  36.363  14.673   5.510
 3947POPC   GL152885  36.222  14.405   5.803
 3947POPC   GL252886  35.899  14.523   5.823
 3947POPC   C1A52887  36.270  14.555   6.230
 3947POPC   D2A52888  36.476  14.732   6.577
 3947POPC   C3A52889  36.361  14.494   6.918
 3947POPC   C4A52890  36.294  14.470   7.338
 3947POPC   C1B52891  35.841  14.314   6.216
 3947POPC   C2B52892  35.918  14.383   6.651
 3947POPC   C3B52893  35.857  14.387   7.100
 3947POPC   C4B52894  35.846  14.426   7.574
 3948POPC   NC352895  21.596  33.334   5.443
 3948POPC   PO452896  21.024  32.754   5.391
 3948POPC   GL152897  21.253  32.921   5.768
 3948POPC   GL252898  21.333  33.282   5.871
 3948POPC   C1A52899  21.391  32.881   6.221
 3948POPC   D2A52900  21.680  32.835   6.591
 3948POPC   C3A52901  21.397  32.842   6.936
 3948POPC   C4A52902  21.120  33.138   7.089
 3948POPC   C1B52903  21.636  33.310   6.239
 3948POPC   C2B52904  21.484  33.297   6.673
 3948POPC   C3B52905  21.621  33.257   7.105
 3948POPC   C4B52906  21.477  33.259   7.573
 3949POPC   NC352907  14.132  25.509   5.303
 3949POPC   PO452908  14.600  25.070   5.484
 3949POPC   GL152909  14.685  25.320   5.865
 3949POPC   GL252910  14.469  25.584   5.734
 3949POPC   C1A52911  14.668  25.203   6.326
 3949POPC   D2A52912  14.327  25.172   6.654
 3949POPC   C3A52913  14.513  25.061   7.042
 3949POPC   C4A52914  14.408  25.057   7.471
 3949POPC   C1B52915  14.278  25.567   6.169
 3949POPC   C2B52916  14.054  25.706   6.574
 3949POPC   C3B52917  14.141  25.697   7.030
 3949POPC   C4B52918  14.526  25.524   7.236
 3950POPC   NC352919  11.974   7.257   5.098
 3950POPC   PO452920  12.092   7.868   5.402
 3950POPC   GL152921  11.973   7.571   5.710
 3950POPC   GL252922  11.986   7.228   5.605
 3950POPC   C1A52923  12.146   7.595   6.123
 3950POPC   D2A52924  11.993   7.621   6.528
 3950POPC   C3A52925  12.197   7.704   6.870
 3950POPC   C4A52926  12.157   7.546   7.287
 3950POPC   C1B52927  12.020   7.097   6.016
 3950POPC   C2B52928  11.906   7.137   6.419
 3950POPC   C3B52929  12.049   7.197   6.818
 3950POPC   C4B52930  12.045   7.059   7.206
 3951POPC   NC352931  43.543   6.862   5.278
 3951POPC   PO452932  44.109   6.404   5.344
 3951POPC   GL152933  44.014   6.460   5.772
 3951POPC   GL252934  43.664   6.517   5.867
 3951POPC   C1A52935  44.194   6.618   6.154
 3951POPC   D2A52936  44.095   6.786   6.568
 3951POPC   C3A52937  44.145   6.590   6.985
 3951POPC   C4A52938  43.788   6.478   7.265
 3951POPC   C1B52939  43.716   6.849   6.183
 3951POPC   C2B52940  43.539   7.010   6.531
 3951POPC   C3B52941  43.698   6.905   6.915
 3951POPC   C4B52942  43.509   6.942   7.288
 3952POPC   NC352943  34.812  34.787   5.635
 3952POPC   PO452944  34.513  34.114   5.501
 3952POPC   GL152945  34.655  34.363   5.844
 3952POPC   GL252946  34.387  34.571   5.923
 3952POPC   C1A52947  34.748  34.583   6.268
 3952POPC   D2A52948  34.469  34.426   6.578
 3952POPC   C3A52949  34.539  34.557   6.992
 3952POPC   C4A52950  34.812  34.893   7.147
 3952POPC   C1B52951  34.269  34.810   6.280
 3952POPC   C2B52952  34.129  34.802   6.698
 3952POPC   C3B52953  34.193  34.885   7.124
 3952POPC   C4B52954  34.424  35.008   7.458
 3953POPC   NC352955  25.856  30.305   5.458
 3953POPC   PO452956  26.169  29.652   5.422
 3953POPC   GL152957  26.153  29.947   5.752
 3953POPC   GL252958  25.806  29.947   5.807
 3953POPC   C1A52959  26.149  29.884   6.198
 3953POPC   D2A52960  26.054  30.086   6.567
 3953POPC   C3A52961  25.930  29.951   6.956
 3953POPC   C4A52962  26.156  29.847   7.304
 3953POPC   C1B52963  25.746  30.254   6.131
 3953POPC   C2B52964  25.561  30.205   6.525
 3953POPC   C3B52965  25.626  30.355   6.924
 3953POPC   C4B52966  25.637  30.150   7.349
 3954POPC   NC352967  22.909  33.366   5.144
 3954POPC   PO452968  22.921  32.728   5.397
 3954POPC   GL152969  22.753  33.020   5.736
 3954POPC   GL252970  23.019  33.166   5.891
 3954POPC   C1A52971  22.587  33.120   6.182
 3954POPC   D2A52972  22.734  33.240   6.611
 3954POPC   C3A52973  22.569  33.071   7.037
 3954POPC   C4A52974  22.683  32.930   7.478
 3954POPC   C1B52975  23.218  33.448   6.171
 3954POPC   C2B52976  23.344  33.444   6.551
 3954POPC   C3B52977  23.221  33.143   6.817
 3954POPC   C4B52978  23.046  33.170   7.216
 3955POPC   NC352979   1.570   0.696   5.854
 3955POPC   PO452980   1.964   0.811   5.275
 3955POPC   GL152981   2.066   0.659   5.806
 3955POPC   GL252982   1.943   0.793   6.165
 3955POPC   C1A52983   2.372   0.571   6.176
 3955POPC   D2A52984   2.205   0.578   6.639
 3955POPC   C3A52985   2.249   0.587   7.096
 3955POPC   C4A52986   2.140   0.237   7.413
 3955POPC   C1B52987   1.924   0.323   6.284
 3955POPC   C2B52988   1.896   0.143   6.702
 3955POPC   C3B52989   1.783   0.345   7.082
 3955POPC   C4B52990   1.703   0.718   7.332
 3956POPC   NC352991  40.964  21.618   5.533
 3956POPC   PO452992  41.584  21.634   5.227
 3956POPC   GL152993  41.626  21.357   5.601
 3956POPC   GL252994  41.284  21.248   5.716
 3956POPC   C1A52995  41.694  21.306   6.068
 3956POPC   D2A52996  41.820  21.518   6.467
 3956POPC   C3A52997  41.770  21.273   6.848
 3956POPC   C4A52998  41.651  21.360   7.279
 3956POPC   C1B52999  41.173  21.264   6.152
 3956POPC   C2B53000  41.366  21.319   6.524
 3956POPC   C3B53001  41.285  21.436   6.941
 3956POPC   C4B53002  41.147  21.342   7.387
 3957POPC   NC353003  26.093  31.059   5.533
 3957POPC   PO453004  26.377  30.402   5.418
 3957POPC   GL153005  26.323  30.618   5.794
 3957POPC   GL253006  25.950  30.669   5.860
 3957POPC   C1A53007  26.257  30.428   6.199
 3957POPC   D2A53008  26.077  30.575   6.567
 3957POPC   C3A53009  26.305  30.415   6.899
 3957POPC   C4A53010  26.065  30.408   7.223
 3957POPC   C1B53011  26.157  30.945   6.203
 3957POPC   C2B53012  26.071  31.064   6.638
 3957POPC   C3B53013  26.077  30.913   7.064
 3957POPC   C4B53014  26.187  31.223   7.379
 3958POPC   NC353015  39.044  42.092   5.505
 3958POPC   PO453016  39.614  42.409   5.378
 3958POPC   GL153017  39.332  42.450   5.727
 3958POPC   GL253018  38.973  42.576   5.652
 3958POPC   C1A53019  39.313  42.220   6.153
 3958POPC   D2A53020  39.325  41.925   6.547
 3958POPC   C3A53021  39.250  42.081   6.976
 3958POPC   C4A53022  39.460  42.397   7.213
 3958POPC   C1B53023  38.886  42.500   6.116
 3958POPC   C2B53024  39.029  42.349   6.559
 3958POPC   C3B53025  38.873  42.442   6.984
 3958POPC   C4B53026  38.993  42.292   7.402
 3959POPC   NC353027  21.942  37.929   5.520
 3959POPC   PO453028  22.025  37.345   5.270
 3959POPC   GL153029  22.138  37.410   5.701
 3959POPC   GL253030  21.883  37.546   5.913
 3959POPC   C1A53031  22.370  37.429   6.102
 3959POPC   D2A53032  22.362  37.231   6.539
 3959POPC   C3A53033  22.275  37.462   6.947
 3959POPC   C4A53034  22.378  37.891   7.144
 3959POPC   C1B53035  21.931  37.531   6.372
 3959POPC   C2B53036  21.786  37.551   6.824
 3959POPC   C3B53037  21.892  37.787   7.217
 3959POPC   C4B53038  22.046  37.965   7.615
 3960POPC   NC353039  16.748  31.322   5.473
 3960POPC   PO453040  16.597  31.983   5.455
 3960POPC   GL153041  16.721  31.721   5.829
 3960POPC   GL253042  16.541  31.391   5.927
 3960POPC   C1A53043  16.695  31.743   6.279
 3960POPC   D2A53044  16.503  31.632   6.679
 3960POPC   C3A53045  16.726  31.820   6.991
 3960POPC   C4A53046  16.850  31.703   7.402
 3960POPC   C1B53047  16.770  31.208   6.284
 3960POPC   C2B53048  16.645  31.149   6.735
 3960POPC   C3B53049  16.560  31.300   7.162
 3960POPC   C4B53050  16.444  31.100   7.577
 3961POPC   NC353051  11.450  29.142   5.403
 3961POPC   PO453052  10.845  28.835   5.423
 3961POPC   GL153053  10.968  29.046   5.829
 3961POPC   GL253054  11.080  29.392   5.765
 3961POPC   C1A53055  11.150  29.015   6.272
 3961POPC   D2A53056  11.217  28.796   6.693
 3961POPC   C3A53057  11.075  28.958   7.083
 3961POPC   C4A53058  11.071  29.408   7.169
 3961POPC   C1B53059  11.482  29.373   6.032
 3961POPC   C2B53060  11.622  29.361   6.467
 3961POPC   C3B53061  11.468  29.258   6.851
 3961POPC   C4B53062  11.569  29.024   7.181
 3962POPC   NC353063  14.620  43.429   5.421
 3962POPC   PO453064  14.330  42.859   5.337
 3962POPC   GL153065  14.213  43.042   5.753
 3962POPC   GL253066  14.274  43.388   5.812
 3962POPC   C1A53067  14.269  43.012   6.223
 3962POPC   D2A53068  14.195  43.192   6.665
 3962POPC   C3A53069  14.162  42.934   7.048
 3962POPC   C4A53070  14.228  42.778   7.491
 3962POPC   C1B53071  14.106  43.506   6.239
 3962POPC   C2B53072  13.832  43.550   6.612
 3962POPC   C3B53073  13.872  43.455   7.071
 3962POPC   C4B53074  14.105  43.276   7.435
 3963POPC   NC353075  10.706  38.105   5.586
 3963POPC   PO453076  10.529  38.709   5.371
 3963POPC   GL153077  10.635  38.600   5.783
 3963POPC   GL253078  10.906  38.863   5.803
 3963POPC   C1A53079  10.446  38.454   6.198
 3963POPC   D2A53080  10.541  38.260   6.618
 3963POPC   C3A53081  10.261  38.369   6.964
 3963POPC   C4A53082  10.076  38.088   7.243
 3963POPC   C1B53083  10.935  38.611   6.189
 3963POPC   C2B53084  11.081  38.469   6.579
 3963POPC   C3B53085  10.892  38.433   6.953
 3963POPC   C4B53086  10.658  38.489   7.298
 3964POPC   NC353087  43.247  43.175   5.430
 3964POPC   PO453088  42.588  42.933   5.387
 3964POPC   GL153089  42.921  42.996   5.752
 3964POPC   GL253090  42.881  43.312   5.785
 3964POPC   C1A53091  43.287  43.178   6.093
 3964POPC   D2A53092  43.401  43.392   6.514
 3964POPC   C3A53093  43.399  43.155   6.861
 3964POPC   C4A53094  43.321  43.138   7.276
 3964POPC   C1B53095  42.733  43.178   6.200
 3964POPC   C2B53096  42.973  43.028   6.533
 3964POPC   C3B53097  42.939  42.924   6.936
 3964POPC   C4B53098  42.826  43.224   7.231
 3965POPC   NC353099  35.678   2.203   5.696
 3965POPC   PO453100  35.237   1.848   5.267
 3965POPC   GL153101  35.191   1.954   5.729
 3965POPC   GL253102  35.476   1.750   5.785
 3965POPC   C1A53103  35.186   1.891   6.188
 3965POPC   D2A53104  35.522   2.039   6.477
 3965POPC   C3A53105  35.555   2.065   6.944
 3965POPC   C4A53106  35.269   1.868   7.248
 3965POPC   C1B53107  35.628   1.609   6.171
 3965POPC   C2B53108  35.809   1.624   6.566
 3965POPC   C3B53109  35.604   1.563   6.953
 3965POPC   C4B53110  35.751   1.720   7.350
 3966POPC   NC353111  35.080   1.513   5.539
 3966POPC   PO453112  34.588   1.055   5.373
 3966POPC   GL153113  34.591   1.176   5.834
 3966POPC   GL253114  34.324   1.415   5.925
 3966POPC   C1A53115  34.443   0.964   6.224
 3966POPC   D2A53116  34.454   0.833   6.631
 3966POPC   C3A53117  34.484   1.238   6.790
 3966POPC   C4A53118  34.607   1.340   7.182
 3966POPC   C1B53119  34.575   1.461   6.302
 3966POPC   C2B53120  34.692   1.733   6.672
 3966POPC   C3B53121  34.764   1.810   7.130
 3966POPC   C4B53122  34.915   1.582   7.519
 3967POPC   NC353123  13.089  44.172   5.418
 3967POPC   PO453124  12.832  44.847   5.495
 3967POPC   GL153125  12.776  44.614   5.829
 3967POPC   GL253126  12.554  44.374   5.637
 3967POPC   C1A53127  12.937  44.743   6.248
 3967POPC   D2A53128  12.967  44.959   6.647
 3967POPC   C3A53129  12.970  44.714   7.034
 3967POPC   C4A53130  12.979  44.424   7.376
 3967POPC   C1B53131  12.369  44.411   6.041
 3967POPC   C2B53132  12.514  44.511   6.402
 3967POPC   C3B53133  12.533  44.588   6.799
 3967POPC   C4B53134  12.495  44.559   7.191
 3968POPC   NC353135  19.597  24.432   5.399
 3968POPC   PO453136  18.917  24.553   5.296
 3968POPC   GL153137  18.928  24.759   5.742
 3968POPC   GL253138  19.246  24.908   5.841
 3968POPC   C1A53139  18.925  24.599   6.215
 3968POPC   D2A53140  18.972  24.184   6.472
 3968POPC   C3A53141  18.973  24.141   6.940
 3968POPC   C4A53142  18.883  24.251   7.348
 3968POPC   C1B53143  19.265  24.975   6.313
 3968POPC   C2B53144  19.182  24.839   6.753
 3968POPC   C3B53145  19.232  24.587   7.168
 3968POPC   C4B53146  19.341  24.368   7.558
 3969POPC   NC353147  16.960  35.958   5.606
 3969POPC   PO453148  16.597  36.559   5.521
 3969POPC   GL153149  16.629  36.310   5.838
 3969POPC   GL253150  16.964  36.362   5.946
 3969POPC   C1A53151  16.595  36.117   6.224
 3969POPC   D2A53152  16.796  36.233   6.600
 3969POPC   C3A53153  16.512  36.083   6.844
 3969POPC   C4A53154  16.466  36.006   7.250
 3969POPC   C1B53155  17.142  36.021   6.234
 3969POPC   C2B53156  17.269  35.896   6.666
 3969POPC   C3B53157  16.953  35.862   6.975
 3969POPC   C4B53158  16.922  36.213   7.161
 3970POPC   NC353159  12.697  28.094   5.558
 3970POPC   PO453160  13.207  28.526   5.792
 3970POPC   GL153161  12.952  28.236   5.978
 3970POPC   GL253162  12.629  28.360   5.968
 3970POPC   C1A53163  12.825  28.090   6.366
 3970POPC   D2A53164  12.658  28.241   6.739
 3970POPC   C3A53165  12.978  28.310   7.065
 3970POPC   C4A53166  13.029  28.721   7.247
 3970POPC   C1B53167  12.635  28.601   6.317
 3970POPC   C2B53168  12.400  28.702   6.672
 3970POPC   C3B53169  12.542  28.621   7.109
 3970POPC   C4B53170  12.556  28.529   7.563
 3971POPC   NC353171  39.824  17.282   5.393
 3971POPC   PO453172  40.394  17.550   5.364
 3971POPC   GL153173  40.122  17.532   5.728
 3971POPC   GL253174  40.102  17.169   5.808
 3971POPC   C1A53175  39.917  17.536   6.130
 3971POPC   D2A53176  39.987  17.378   6.537
 3971POPC   C3A53177  39.818  17.620   6.858
 3971POPC   C4A53178  40.172  17.780   7.074
 3971POPC   C1B53179  39.923  16.998   6.182
 3971POPC   C2B53180  39.630  17.013   6.516
 3971POPC   C3B53181  39.769  17.095   6.890
 3971POPC   C4B53182  39.995  17.311   7.228
 3972POPC   NC353183  27.245   8.947   5.355
 3972POPC   PO453184  26.681   8.768   5.382
 3972POPC   GL153185  26.899   8.667   5.797
 3972POPC   GL253186  27.161   8.856   5.865
 3972POPC   C1A53187  26.862   8.535   6.235
 3972POPC   D2A53188  26.828   8.791   6.610
 3972POPC   C3A53189  26.654   8.662   7.026
 3972POPC   C4A53190  26.577   8.956   7.388
 3972POPC   C1B53191  27.301   8.785   6.318
 3972POPC   C2B53192  27.309   8.748   6.763
 3972POPC   C3B53193  27.121   8.780   7.200
 3972POPC   C4B53194  27.089   8.829   7.662
 3973POPC   NC353195  28.261   3.912   5.467
 3973POPC   PO453196  28.654   4.533   5.420
 3973POPC   GL153197  28.380   4.314   5.771
 3973POPC   GL253198  28.480   3.982   5.921
 3973POPC   C1A53199  28.093   4.215   6.156
 3973POPC   D2A53200  28.164   4.369   6.577
 3973POPC   C3A53201  28.306   4.210   6.928
 3973POPC   C4A53202  28.069   4.255   7.311
 3973POPC   C1B53203  28.586   4.265   6.260
 3973POPC   C2B53204  28.850   4.349   6.566
 3973POPC   C3B53205  28.766   4.516   6.915
 3973POPC   C4B53206  28.597   4.411   7.308
 3974POPC   NC353207  19.605  29.380   5.387
 3974POPC   PO453208  19.985  28.909   5.540
 3974POPC   GL153209  19.816  29.058   5.887
 3974POPC   GL253210  20.083  29.323   5.910
 3974POPC   C1A53211  19.883  28.946   6.328
 3974POPC   D2A53212  19.932  29.195   6.702
 3974POPC   C3A53213  19.863  29.050   7.111
 3974POPC   C4A53214  19.448  28.929   7.192
 3974POPC   C1B53215  19.780  29.446   6.232
 3974POPC   C2B53216  19.595  29.617   6.602
 3974POPC   C3B53217  19.525  29.414   6.944
 3974POPC   C4B53218  19.651  29.473   7.301
 3975POPC   NC353219  31.391  39.892   5.326
 3975POPC   PO453220  31.900  40.009   5.544
 3975POPC   GL153221  31.511  40.055   5.797
 3975POPC   GL253222  31.374  39.726   5.845
 3975POPC   C1A53223  31.244  40.116   6.162
 3975POPC   D2A53224  31.197  39.886   6.560
 3975POPC   C3A53225  31.316  40.082   6.946
 3975POPC   C4A53226  31.220  39.924   7.292
 3975POPC   C1B53227  31.621  39.791   6.283
 3975POPC   C2B53228  31.663  39.728   6.782
 3975POPC   C3B53229  31.738  39.902   7.232
 3975POPC   C4B53230  32.020  40.152   7.518
 3976POPC   NC353231  37.915  39.454   5.073
 3976POPC   PO453232  38.425  39.139   5.446
 3976POPC   GL153233  38.544  39.347   5.789
 3976POPC   GL253234  38.745  39.096   5.865
 3976POPC   C1A53235  38.365  39.389   6.154
 3976POPC   D2A53236  38.245  39.195   6.503
 3976POPC   C3A53237  38.204  39.423   6.859
 3976POPC   C4A53238  38.240  39.310   7.266
 3976POPC   C1B53239  38.683  38.977   6.271
 3976POPC   C2B53240  38.551  38.804   6.646
 3976POPC   C3B53241  38.574  39.085   6.952
 3976POPC   C4B53242  38.704  39.049   7.351
 3977POPC   NC353243  10.160  23.804   5.668
 3977POPC   PO453244  10.759  23.408   5.366
 3977POPC   GL153245  10.548  23.484   5.784
 3977POPC   GL253246  10.700  23.770   5.924
 3977POPC   C1A53247  10.397  23.585   6.253
 3977POPC   D2A53248  10.491  23.770   6.611
 3977POPC   C3A53249  10.421  23.642   6.989
 3977POPC   C4A53250  10.166  23.892   7.208
 3977POPC   C1B53251  10.908  23.587   6.309
 3977POPC   C2B53252  10.912  23.544   6.790
 3977POPC   C3B53253  10.808  23.973   7.000
 3977POPC   C4B53254  10.597  24.079   7.386
 3978POPC   NC353255   9.577  17.316   5.228
 3978POPC   PO453256   9.885  17.879   5.478
 3978POPC   GL153257   9.610  17.760   5.833
 3978POPC   GL253258   9.484  17.412   5.751
 3978POPC   C1A53259   9.767  17.640   6.269
 3978POPC   D2A53260   9.737  17.865   6.647
 3978POPC   C3A53261   9.775  17.657   7.025
 3978POPC   C4A53262  10.029  17.416   7.262
 3978POPC   C1B53263   9.500  17.226   6.175
 3978POPC   C2B53264   9.693  17.264   6.603
 3978POPC   C3B53265   9.486  17.237   6.975
 3978POPC   C4B53266   9.475  16.958   7.268
 3979POPC   NC353267  22.664  42.779   5.378
 3979POPC   PO453268  22.843  43.444   5.194
 3979POPC   GL153269  22.866  43.185   5.618
 3979POPC   GL253270  22.654  43.308   5.837
 3979POPC   C1A53271  23.104  43.149   6.055
 3979POPC   D2A53272  23.027  43.270   6.505
 3979POPC   C3A53273  23.188  43.221   6.908
 3979POPC   C4A53274  22.954  43.154   7.263
 3979POPC   C1B53275  22.587  43.180   6.257
 3979POPC   C2B53276  22.652  42.985   6.658
 3979POPC   C3B53277  22.554  42.914   7.026
 3979POPC   C4B53278  22.358  43.196   7.197
 3980POPC   NC353279  44.060  17.690   5.394
 3980POPC   PO453280  43.380  17.589   5.355
 3980POPC   GL153281  43.627  17.671   5.718
 3980POPC   GL253282  43.835  17.375   5.750
 3980POPC   C1A53283  43.851  17.714   6.139
 3980POPC   D2A53284  43.808  17.598   6.591
 3980POPC   C3A53285  43.696  17.733   7.055
 3980POPC   C4A53286  43.753  17.748   7.530
 3980POPC   C1B53287  43.880  17.156   6.154
 3980POPC   C2B53288  44.057  17.146   6.566
 3980POPC   C3B53289  43.952  17.289   6.950
 3980POPC   C4B53290  44.026  17.386   7.347
 3981POPC   NC353291  12.032  37.371   5.077
 3981POPC   PO453292  11.832  37.941   5.322
 3981POPC   GL153293  11.944  37.734   5.823
 3981POPC   GL253294  12.276  37.769   5.983
 3981POPC   C1A53295  11.975  37.488   6.272
 3981POPC   D2A53296  11.880  37.286   6.711
 3981POPC   C3A53297  12.030  37.497   7.108
 3981POPC   C4A53298  11.844  37.539   7.538
 3981POPC   C1B53299  12.068  37.985   6.269
 3981POPC   C2B53300  12.029  37.881   6.684
 3981POPC   C3B53301  12.252  37.956   7.068
 3981POPC   C4B53302  12.202  37.875   7.492
 3982POPC   NC353303  15.379  30.271   5.353
 3982POPC   PO453304  15.336  30.950   5.458
 3982POPC   GL153305  15.053  30.801   5.776
 3982POPC   GL253306  15.190  30.461   5.785
 3982POPC   C1A53307  14.952  30.607   6.195
 3982POPC   D2A53308  15.064  30.344   6.543
 3982POPC   C3A53309  14.910  30.472   6.917
 3982POPC   C4A53310  15.064  30.606   7.283
 3982POPC   C1B53311  15.406  30.265   6.158
 3982POPC   C2B53312  15.597  30.245   6.600
 3982POPC   C3B53313  15.357  30.218   6.987
 3982POPC   C4B53314  15.517  30.409   7.348
 3983POPC   NC353315  38.054  12.651   5.584
 3983POPC   PO453316  37.580  13.037   5.438
 3983POPC   GL153317  37.557  12.726   5.776
 3983POPC   GL253318  37.256  12.877   5.922
 3983POPC   C1A53319  37.746  12.604   6.198
 3983POPC   D2A53320  37.860  12.862   6.578
 3983POPC   C3A53321  38.018  12.807   7.012
 3983POPC   C4A53322  37.979  13.029   7.419
 3983POPC   C1B53323  37.513  13.096   6.226
 3983POPC   C2B53324  37.414  13.193   6.664
 3983POPC   C3B53325  37.520  13.042   7.082
 3983POPC   C4B53326  37.480  13.207   7.482
 3984POPC   NC353327  42.464  20.198   5.536
 3984POPC   PO453328  42.455  19.481   5.534
 3984POPC   GL153329  42.233  19.606   5.852
 3984POPC   GL253330  42.060  19.893   5.726
 3984POPC   C1A53331  42.367  19.586   6.282
 3984POPC   D2A53332  42.415  19.910   6.602
 3984POPC   C3A53333  42.504  19.792   7.013
 3984POPC   C4A53334  42.627  19.599   7.430
 3984POPC   C1B53335  42.156  20.030   6.141
 3984POPC   C2B53336  41.959  20.133   6.534
 3984POPC   C3B53337  42.117  20.238   6.932
 3984POPC   C4B53338  42.223  20.056   7.329
 3985POPC   NC353339  29.834  31.597   5.301
 3985POPC   PO453340  30.422  31.354   5.520
 3985POPC   GL153341  30.018  31.488   5.780
 3985POPC   GL253342  29.630  31.553   5.766
 3985POPC   C1A53343  29.888  31.386   6.222
 3985POPC   D2A53344  30.018  31.277   6.665
 3985POPC   C3A53345  30.175  31.539   7.028
 3985POPC   C4A53346  30.041  31.613   7.473
 3985POPC   C1B53347  29.462  31.696   6.181
 3985POPC   C2B53348  29.649  31.637   6.600
 3985POPC   C3B53349  29.651  31.530   7.037
 3985POPC   C4B53350  29.589  31.858   7.314
 3986POPC   NC353351  29.457  18.984   5.377
 3986POPC   PO453352  28.845  19.321   5.249
 3986POPC   GL153353  29.005  19.445   5.693
 3986POPC   GL253354  29.288  19.207   5.835
 3986POPC   C1A53355  28.921  19.366   6.154
 3986POPC   D2A53356  29.283  19.269   6.455
 3986POPC   C3A53357  29.143  19.129   6.845
 3986POPC   C4A53358  28.981  18.757   7.011
 3986POPC   C1B53359  29.427  18.868   6.168
 3986POPC   C2B53360  29.389  18.709   6.632
 3986POPC   C3B53361  29.490  18.815   7.091
 3986POPC   C4B53362  29.646  18.957   7.501
 3987POPC   NC353363  30.935  12.953   5.325
 3987POPC   PO453364  30.275  12.867   5.445
 3987POPC   GL153365  30.595  12.731   5.675
 3987POPC   GL253366  30.604  13.031   5.848
 3987POPC   C1A53367  30.851  12.613   6.027
 3987POPC   D2A53368  30.869  12.483   6.468
 3987POPC   C3A53369  30.835  12.696   6.877
 3987POPC   C4A53370  30.549  12.705   7.206
 3987POPC   C1B53371  30.486  13.204   6.213
 3987POPC   C2B53372  30.651  13.106   6.599
 3987POPC   C3B53373  30.758  13.184   7.007
 3987POPC   C4B53374  30.892  13.011   7.412
 3988POPC   NC353375  16.718  28.872   5.118
 3988POPC   PO453376  17.005  28.309   5.452
 3988POPC   GL153377  16.744  28.264   5.809
 3988POPC   GL253378  16.475  28.040   5.835
 3988POPC   C1A53379  16.706  28.458   6.181
 3988POPC   D2A53380  16.702  28.336   6.589
 3988POPC   C3A53381  16.613  28.611   6.887
 3988POPC   C4A53382  16.818  28.579   7.239
 3988POPC   C1B53383  16.372  28.022   6.271
 3988POPC   C2B53384  16.514  27.870   6.686
 3988POPC   C3B53385  16.795  28.024   7.024
 3988POPC   C4B53386  16.674  28.139   7.467
 3989POPC   NC353387  13.301   9.503   5.409
 3989POPC   PO453388  13.738   9.919   5.107
 3989POPC   GL153389  13.725   9.806   5.561
 3989POPC   GL253390  13.400   9.933   5.685
 3989POPC   C1A53391  13.850   9.718   6.027
 3989POPC   D2A53392  13.726   9.813   6.471
 3989POPC   C3A53393  13.933   9.841   6.903
 3989POPC   C4A53394  13.906   9.524   7.248
 3989POPC   C1B53395  13.320   9.740   6.101
 3989POPC   C2B53396  13.328   9.498   6.499
 3989POPC   C3B53397  13.429   9.708   6.875
 3989POPC   C4B53398  13.321   9.539   7.223
 3990POPC   NC353399  42.707  44.015   5.493
 3990POPC   PO453400  43.303  43.654   5.484
 3990POPC   GL153401  43.120  43.903   5.852
 3990POPC   GL253402  42.800  43.784   5.922
 3990POPC   C1A53403  42.923  44.060   6.309
 3990POPC   D2A53404  43.200  43.930   6.624
 3990POPC   C3A53405  43.092  44.083   7.025
 3990POPC   C4A53406  42.795  44.279   7.293
 3990POPC   C1B53407  43.020  43.581   6.246
 3990POPC   C2B53408  42.896  43.512   6.677
 3990POPC   C3B53409  43.155  43.574   7.026
 3990POPC   C4B53410  43.376  43.647   7.383
 3991POPC   NC353411  13.185  30.432   5.739
 3991POPC   PO453412  12.724  30.776   5.420
 3991POPC   GL153413  12.886  30.872   5.849
 3991POPC   GL253414  12.756  31.199   5.875
 3991POPC   C1A53415  12.997  30.779   6.287
 3991POPC   D2A53416  12.902  30.455   6.617
 3991POPC   C3A53417  12.714  30.623   6.990
 3991POPC   C4A53418  12.869  30.687   7.381
 3991POPC   C1B53419  12.564  31.128   6.238
 3991POPC   C2B53420  12.623  30.949   6.608
 3991POPC   C3B53421  12.640  31.204   6.937
 3991POPC   C4B53422  12.638  31.141   7.339
 3992POPC   NC353423  11.643   4.964   5.427
 3992POPC   PO453424  10.997   5.011   5.567
 3992POPC   GL153425  11.328   4.944   5.841
 3992POPC   GL253426  11.547   5.262   5.844
 3992POPC   C1A53427  11.263   4.760   6.220
 3992POPC   D2A53428  11.134   4.838   6.629
 3992POPC   C3A53429  10.953   4.938   7.010
 3992POPC   C4A53430  11.211   5.039   7.353
 3992POPC   C1B53431  11.189   5.409   6.094
 3992POPC   C2B53432  11.203   5.552   6.538
 3992POPC   C3B53433  11.184   5.412   6.974
 3992POPC   C4B53434  11.569   5.445   7.216
 3993POPC   NC353435  16.095  43.832   5.266
 3993POPC   PO453436  15.880  44.310   5.386
 3993POPC   GL153437  15.817  44.101   5.787
 3993POPC   GL253438  16.081  43.863   5.802
 3993POPC   C1A53439  15.695  44.070   6.248
 3993POPC   D2A53440  15.664  44.163   6.709
 3993POPC   C3A53441  16.026  44.102   6.986
 3993POPC   C4A53442  16.135  44.234   7.421
 3993POPC   C1B53443  15.982  43.642   6.202
 3993POPC   C2B53444  15.857  43.683   6.659
 3993POPC   C3B53445  15.861  43.634   7.126
 3993POPC   C4B53446  15.959  43.309   7.453
 3994POPC   NC353447  17.622  23.860   5.118
 3994POPC   PO453448  17.732  23.505   5.689
 3994POPC   GL153449  17.383  23.712   5.841
 3994POPC   GL253450  17.275  23.455   6.028
 3994POPC   C1A53451  17.351  23.951   6.247
 3994POPC   D2A53452  17.598  24.006   6.652
 3994POPC   C3A53453  17.437  23.977   7.077
 3994POPC   C4A53454  17.582  23.847   7.505
 3994POPC   C1B53455  17.517  23.459   6.396
 3994POPC   C2B53456  17.445  23.505   6.820
 3994POPC   C3B53457  17.347  23.503   7.238
 3994POPC   C4B53458  17.147  23.463   7.647
 3995POPC   NC353459  13.067  15.342   5.392
 3995POPC   PO453460  12.567  14.890   5.518
 3995POPC   GL153461  12.689  15.101   5.903
 3995POPC   GL253462  12.815  15.445   5.846
 3995POPC   C1A53463  12.655  15.049   6.348
 3995POPC   D2A53464  12.506  15.108   6.779
 3995POPC   C3A53465  12.738  14.914   7.095
 3995POPC   C4A53466  13.122  14.698   7.051
 3995POPC   C1B53467  13.114  15.293   6.169
 3995POPC   C2B53468  13.123  15.066   6.575
 3995POPC   C3B53469  13.109  15.232   6.979
 3995POPC   C4B53470  13.331  15.470   7.270
 3996POPC   NC353471  31.348  15.379   5.242
 3996POPC   PO453472  31.342  14.721   5.335
 3996POPC   GL153473  31.392  14.949   5.725
 3996POPC   GL253474  31.494  15.326   5.738
 3996POPC   C1A53475  31.228  14.964   6.160
 3996POPC   D2A53476  31.326  15.124   6.577
 3996POPC   C3A53477  31.176  14.975   6.990
 3996POPC   C4A53478  31.415  14.948   7.406
 3996POPC   C1B53479  31.724  15.357   6.157
 3996POPC   C2B53480  31.906  15.310   6.586
 3996POPC   C3B53481  31.787  15.492   6.995
 3996POPC   C4B53482  31.414  15.404   7.189
 3997POPC   NC353483   0.321  41.855   5.135
 3997POPC   PO453484   0.527  42.457   5.397
 3997POPC   GL153485   0.492  42.302   5.806
 3997POPC   GL253486   0.645  42.020   5.937
 3997POPC   C1A53487   0.592  42.493   6.185
 3997POPC   D2A53488   0.381  42.637   6.519
 3997POPC   C3A53489   0.540  42.526   6.900
 3997POPC   C4A53490   0.193  42.403   7.157
 3997POPC   C1B53491   0.276  42.083   6.224
 3997POPC   C2B53492   0.266  42.167   6.651
 3997POPC   C3B53493   0.484  42.017   6.983
 3997POPC   C4B53494   0.181  41.873   7.232
 3998POPC   NC353495   6.825   8.379   5.542
 3998POPC   PO453496   6.252   7.989   5.560
 3998POPC   GL153497   6.475   8.272   5.874
 3998POPC   GL253498   6.795   8.084   5.984
 3998POPC   C1A53499   6.671   8.493   6.251
 3998POPC   D2A53500   6.653   8.318   6.677
 3998POPC   C3A53501   6.739   8.542   7.042
 3998POPC   C4A53502   6.920   8.233   7.269
 3998POPC   C1B53503   6.440   8.009   6.304
 3998POPC   C2B53504   6.217   8.029   6.704
 3998POPC   C3B53505   6.175   8.054   7.163
 3998POPC   C4B53506   6.255   7.789   7.502
 3999POPC   NC353507  31.505  16.355   5.396
 3999POPC   PO453508  31.656  15.704   5.376
 3999POPC   GL153509  31.757  15.836   5.797
 3999POPC   GL253510  31.746  16.192   5.811
 3999POPC   C1A53511  31.518  15.856   6.187
 3999POPC   D2A53512  31.487  15.622   6.567
 3999POPC   C3A53513  31.301  15.811   6.902
 3999POPC   C4A53514  31.550  15.975   7.203
 3999POPC   C1B53515  31.615  16.366   6.198
 3999POPC   C2B53516  31.558  16.178   6.614
 3999POPC   C3B53517  31.538  16.428   6.990
 3999POPC   C4B53518  31.719  16.454   7.401
 4000POPC   NC353519  10.890   4.561   5.592
 4000POPC   PO453520  11.575   4.478   5.437
 4000POPC   GL153521  11.302   4.375   5.808
 4000POPC   GL253522  11.277   4.033   5.918
 4000POPC   C1A53523  10.997   4.333   6.187
 4000POPC   D2A53524  11.201   4.315   6.569
 4000POPC   C3A53525  10.949   4.416   6.911
 4000POPC   C4A53526  11.095   4.515   7.329
 4000POPC   C1B53527  11.589   3.934   6.164
 4000POPC   C2B53528  11.655   4.064   6.547
 4000POPC   C3B53529  11.518   4.078   6.939
 4000POPC   C4B53530  11.747   3.935   7.294
 4001POPC   NC353531   2.310  43.763   5.334
 4001POPC   PO453532   1.880  44.271   5.638
 4001POPC   GL153533   1.721  43.926   5.925
 4001POPC   GL253534   1.775  43.568   5.765
 4001POPC   C1A53535   1.785  44.015   6.374
 4001POPC   D2A53536   2.006  44.329   6.612
 4001POPC   C3A53537   2.188  44.103   6.919
 4001POPC   C4A53538   2.005  44.023   7.308
 4001POPC   C1B53539   2.011  43.585   6.179
 4001POPC   C2B53540   2.066  43.663   6.632
 4001POPC   C3B53541   2.090  43.606   7.052
 4001POPC   C4B53542   2.192  43.565   7.454
 4002POPC   NC353543   2.316  33.296   5.551
 4002POPC   PO453544   1.926  33.802   5.261
 4002POPC   GL153545   1.940  33.688   5.777
 4002POPC   GL253546   2.238  33.672   5.981
 4002POPC   C1A53547   1.863  33.694   6.287
 4002POPC   D2A53548   2.138  33.740   6.672
 4002POPC   C3A53549   1.971  33.782   7.096
 4002POPC   C4A53550   1.702  33.922   7.444
 4002POPC   C1B53551   2.428  33.477   6.312
 4002POPC   C2B53552   2.338  33.259   6.681
 4002POPC   C3B53553   2.550  33.272   7.047
 4002POPC   C4B53554   2.457  33.637   7.262
 4003POPC   NC353555  10.510  22.988   5.396
 4003POPC   PO453556  10.015  23.434   5.404
 4003POPC   GL153557  10.183  23.096   5.761
 4003POPC   GL253558  10.408  22.726   5.835
 4003POPC   C1A53559  10.474  23.107   6.137
 4003POPC   D2A53560  10.740  23.121   6.491
 4003POPC   C3A53561  10.559  23.146   6.902
 4003POPC   C4A53562  10.773  23.201   7.285
 4003POPC   C1B53563  10.601  22.617   6.258
 4003POPC   C2B53564  10.702  22.631   6.712
 4003POPC   C3B53565  10.626  22.688   7.149
 4003POPC   C4B53566  10.332  22.572   7.465
 4004POPC   NC353567  20.814  37.004   5.372
 4004POPC   PO453568  20.499  36.427   5.279
 4004POPC   GL153569  20.522  36.695   5.683
 4004POPC   GL253570  20.811  36.863   5.839
 4004POPC   C1A53571  20.412  36.781   6.134
 4004POPC   D2A53572  20.188  36.653   6.512
 4004POPC   C3A53573  20.411  36.689   6.886
 4004POPC   C4A53574  20.231  36.658   7.246
 4004POPC   C1B53575  20.898  36.853   6.257
 4004POPC   C2B53576  20.632  36.992   6.557
 4004POPC   C3B53577  20.538  37.199   6.938
 4004POPC   C4B53578  20.766  37.016   7.268
 4005POPC   NC353579   3.195  35.833   5.218
 4005POPC   PO453580   3.805  36.115   5.507
 4005POPC   GL153581   3.576  36.082   5.844
 4005POPC   GL253582   3.259  36.034   5.695
 4005POPC   C1A53583   3.581  36.267   6.249
 4005POPC   D2A53584   3.450  36.288   6.669
 4005POPC   C3A53585   3.619  35.879   6.833
 4005POPC   C4A53586   3.657  35.764   7.265
 4005POPC   C1B53587   3.155  36.032   6.167
 4005POPC   C2B53588   3.149  35.870   6.627
 4005POPC   C3B53589   3.176  35.972   7.085
 4005POPC   C4B53590   3.238  35.905   7.556
 4006POPC   NC353591   2.987  31.807   5.210
 4006POPC   PO453592   3.574  31.442   5.330
 4006POPC   GL153593   3.514  31.468   5.757
 4006POPC   GL253594   3.185  31.528   5.684
 4006POPC   C1A53595   3.651  31.400   6.189
 4006POPC   D2A53596   3.553  31.224   6.588
 4006POPC   C3A53597   3.674  31.478   6.925
 4006POPC   C4A53598   3.860  31.562   7.316
 4006POPC   C1B53599   3.144  31.316   6.085
 4006POPC   C2B53600   3.087  31.454   6.502
 4006POPC   C3B53601   3.169  31.365   6.930
 4006POPC   C4B53602   3.306  31.711   7.172
 4007POPC   NC353603   8.038  19.997   5.322
 4007POPC   PO453604   8.562  19.666   5.604
 4007POPC   GL153605   8.252  19.865   5.793
 4007POPC   GL253606   7.991  19.621   5.739
 4007POPC   C1A53607   8.186  19.954   6.235
 4007POPC   D2A53608   8.144  20.177   6.634
 4007POPC   C3A53609   8.237  20.010   7.003
 4007POPC   C4A53610   8.393  19.613   7.098
 4007POPC   C1B53611   7.815  19.576   6.152
 4007POPC   C2B53612   7.975  19.625   6.577
 4007POPC   C3B53613   7.837  19.708   6.979
 4007POPC   C4B53614   7.984  19.794   7.388
 4008POPC   NC353615   3.292  39.882   5.411
 4008POPC   PO453616   3.952  40.118   5.356
 4008POPC   GL153617   3.763  39.884   5.656
 4008POPC   GL253618   3.528  40.133   5.769
 4008POPC   C1A53619   3.725  39.775   6.093
 4008POPC   D2A53620   3.848  39.973   6.475
 4008POPC   C3A53621   3.677  39.902   6.883
 4008POPC   C4A53622   3.718  40.212   7.200
 4008POPC   C1B53623   3.230  40.035   6.118
 4008POPC   C2B53624   3.198  39.833   6.519
 4008POPC   C3B53625   3.151  39.975   6.927
 4008POPC   C4B53626   3.323  39.872   7.285
 4009POPC   NC353627   9.764  18.669   5.405
 4009POPC   PO453628  10.053  19.260   5.398
 4009POPC   GL153629   9.800  19.043   5.756
 4009POPC   GL253630   9.454  18.859   5.814
 4009POPC   C1A53631   9.827  18.889   6.179
 4009POPC   D2A53632   9.755  19.056   6.577
 4009POPC   C3A53633   9.800  18.904   6.962
 4009POPC   C4A53634   9.864  19.194   7.292
 4009POPC   C1B53635   9.307  19.025   6.248
 4009POPC   C2B53636   9.192  19.052   6.704
 4009POPC   C3B53637   9.357  19.122   7.130
 4009POPC   C4B53638   9.293  19.223   7.566
 4010POPC   NC353639   4.899  22.260   5.185
 4010POPC   PO453640   5.495  21.880   5.180
 4010POPC   GL153641   5.230  21.984   5.627
 4010POPC   GL253642   4.887  21.820   5.742
 4010POPC   C1A53643   5.114  22.131   6.081
 4010POPC   D2A53644   4.778  22.174   6.439
 4010POPC   C3A53645   4.986  22.316   6.834
 4010POPC   C4A53646   4.935  22.292   7.278
 4010POPC   C1B53647   4.871  21.709   6.217
 4010POPC   C2B53648   5.122  21.854   6.638
 4010POPC   C3B53649   5.212  21.867   7.123
 4010POPC   C4B53650   5.294  21.602   7.505
 4011POPC   NC353651  35.216  17.799   5.171
 4011POPC   PO453652  35.635  17.364   5.512
 4011POPC   GL153653  35.575  17.495   5.919
 4011POPC   GL253654  35.226  17.461   6.006
 4011POPC   C1A53655  35.633  17.667   6.323
 4011POPC   D2A53656  35.462  17.554   6.713
 4011POPC   C3A53657  35.693  17.619   7.091
 4011POPC   C4A53658  35.741  17.524   7.593
 4011POPC   C1B53659  35.102  17.814   6.286
 4011POPC   C2B53660  34.974  17.770   6.713
 4011POPC   C3B53661  35.088  17.469   7.043
 4011POPC   C4B53662  35.269  17.560   7.419
 4012POPC   NC353663  13.684  36.069   5.449
 4012POPC   PO453664  13.042  35.976   5.231
 4012POPC   GL153665  13.248  36.221   5.715
 4012POPC   GL253666  13.642  36.244   5.906
 4012POPC   C1A53667  13.259  36.188   6.205
 4012POPC   D2A53668  13.538  36.108   6.592
 4012POPC   C3A53669  13.372  36.121   7.019
 4012POPC   C4A53670  13.285  35.733   7.224
 4012POPC   C1B53671  14.045  36.289   6.196
 4012POPC   C2B53672  14.186  36.242   6.649
 4012POPC   C3B53673  13.913  36.151   6.995
 4012POPC   C4B53674  13.749  35.731   6.998
 4013POPC   NC353675   4.492  33.369   5.322
 4013POPC   PO453676   4.507  32.720   5.407
 4013POPC   GL153677   4.543  33.001   5.758
 4013POPC   GL253678   4.218  33.145   5.771
 4013POPC   C1A53679   4.456  32.988   6.206
 4013POPC   D2A53680   4.450  32.847   6.659
 4013POPC   C3A53681   4.392  33.144   7.009
 4013POPC   C4A53682   4.747  33.209   7.256
 4013POPC   C1B53683   3.995  33.231   6.175
 4013POPC   C2B53684   3.951  32.972   6.586
 4013POPC   C3B53685   3.877  33.030   7.032
 4013POPC   C4B53686   3.923  33.456   7.190
 4014POPC   NC353687  34.306   5.906   5.433
 4014POPC   PO453688  35.011   5.724   5.541
 4014POPC   GL153689  34.665   5.952   5.797
 4014POPC   GL253690  34.813   6.274   5.770
 4014POPC   C1A53691  34.405   5.989   6.191
 4014POPC   D2A53692  34.528   5.841   6.621
 4014POPC   C3A53693  34.666   5.554   6.936
 4014POPC   C4A53694  34.557   5.839   7.259
 4014POPC   C1B53695  35.029   6.100   6.137
 4014POPC   C2B53696  35.034   5.792   6.478
 4014POPC   C3B53697  35.002   5.919   6.902
 4014POPC   C4B53698  34.977   6.139   7.290
 4015POPC   NC353699  38.444  19.975   5.382
 4015POPC   PO453700  38.463  19.342   5.370
 4015POPC   GL153701  38.594  19.571   5.689
 4015POPC   GL253702  38.229  19.653   5.736
 4015POPC   C1A53703  38.603  19.715   6.114
 4015POPC   D2A53704  38.729  19.870   6.493
 4015POPC   C3A53705  38.531  19.887   6.875
 4015POPC   C4A53706  38.648  19.781   7.259
 4015POPC   C1B53707  38.132  19.926   6.094
 4015POPC   C2B53708  37.989  19.933   6.528
 4015POPC   C3B53709  38.044  19.973   6.987
 4015POPC   C4B53710  38.132  19.880   7.447
 4016POPC   NC353711   4.748   0.676   5.468
 4016POPC   PO453712   5.424   0.493   5.356
 4016POPC   GL153713   5.232   0.700   5.699
 4016POPC   GL253714   5.048   0.412   5.798
 4016POPC   C1A53715   5.071   0.829   6.123
 4016POPC   D2A53716   5.184   0.906   6.578
 4016POPC   C3A53717   5.066   0.688   6.986
 4016POPC   C4A53718   5.246   0.475   7.361
 4016POPC   C1B53719   4.885   0.334   6.197
 4016POPC   C2B53720   5.105   0.284   6.576
 4016POPC   C3B53721   5.093   0.166   6.988
 4016POPC   C4B53722   4.754   0.303   7.287
 4017POPC   NC353723  20.236  27.057   5.336
 4017POPC   PO453724  19.744  26.505   5.396
 4017POPC   GL153725  19.718  26.724   5.799
 4017POPC   GL253726  19.866  27.049   5.705
 4017POPC   C1A53727  19.659  26.611   6.257
 4017POPC   D2A53728  19.919  26.443   6.602
 4017POPC   C3A53729  19.801  26.471   7.014
 4017POPC   C4A53730  19.400  26.664   7.087
 4017POPC   C1B53731  19.904  27.227   6.131
 4017POPC   C2B53732  19.943  26.998   6.493
 4017POPC   C3B53733  19.775  26.975   6.878
 4017POPC   C4B53734  19.839  26.920   7.278
 4018POPC   NC353735   5.643  32.951   5.292
 4018POPC   PO453736   5.851  33.510   5.462
 4018POPC   GL153737   5.779  33.335   5.846
 4018POPC   GL253738   5.850  33.007   5.773
 4018POPC   C1A53739   5.516  33.265   6.202
 4018POPC   D2A53740   5.602  33.105   6.616
 4018POPC   C3A53741   5.841  33.340   6.917
 4018POPC   C4A53742   5.801  33.267   7.345
 4018POPC   C1B53743   5.852  32.871   6.215
 4018POPC   C2B53744   5.930  32.719   6.654
 4018POPC   C3B53745   5.944  32.836   7.077
 4018POPC   C4B53746   5.815  32.729   7.491
 4019POPC   NC353747  43.965   7.543   5.293
 4019POPC   PO453748  43.882   6.920   5.580
 4019POPC   GL153749  43.800   7.281   5.721
 4019POPC   GL253750  44.079   7.467   5.813
 4019POPC   C1A53751  43.671   7.376   6.122
 4019POPC   D2A53752  43.910   7.633   6.430
 4019POPC   C3A53753  43.876   7.489   6.858
 4019POPC   C4A53754  44.080   7.479   7.287
 4019POPC   C1B53755  44.147   7.183   6.164
 4019POPC   C2B53756  44.276   7.254   6.580
 4019POPC   C3B53757  44.185   7.104   6.969
 4019POPC   C4B53758  44.001   6.968   7.327
 4020POPC   NC353759  13.712   4.605   5.224
 4020POPC   PO453760  13.899   3.991   5.341
 4020POPC   GL153761  13.652   4.024   5.717
 4020POPC   GL253762  13.626   4.386   5.702
 4020POPC   C1A53763  13.579   4.084   6.169
 4020POPC   D2A53764  13.363   4.211   6.549
 4020POPC   C3A53765  13.516   4.176   6.977
 4020POPC   C4A53766  13.412   4.469   7.329
 4020POPC   C1B53767  13.804   4.659   6.018
 4020POPC   C2B53768  13.893   4.842   6.431
 4020POPC   C3B53769  13.991   4.703   6.844
 4020POPC   C4B53770  13.934   4.468   7.197
 4021POPC   NC353771   1.184  24.859   5.345
 4021POPC   PO453772   0.976  24.176   5.482
 4021POPC   GL153773   1.083  24.458   5.797
 4021POPC   GL253774   0.862  24.737   5.722
 4021POPC   C1A53775   1.305  24.448   6.203
 4021POPC   D2A53776   1.306  24.229   6.621
 4021POPC   C3A53777   1.212  24.427   7.033
 4021POPC   C4A53778   1.295  24.400   7.499
 4021POPC   C1B53779   0.898  24.789   6.144
 4021POPC   C2B53780   1.086  24.795   6.536
 4021POPC   C3B53781   0.943  24.871   6.961
 4021POPC   C4B53782   1.005  24.799   7.383
 4022POPC   NC353783  13.037  13.849   5.432
 4022POPC   PO453784  12.383  13.942   5.574
 4022POPC   GL153785  12.737  13.749   5.832
 4022POPC   GL253786  13.056  13.895   5.936
 4022POPC   C1A53787  12.825  13.457   6.157
 4022POPC   D2A53788  12.913  13.412   6.586
 4022POPC   C3A53789  12.576  13.265   6.850
 4022POPC   C4A53790  12.638  13.219   7.285
 4022POPC   C1B53791  13.243  13.712   6.328
 4022POPC   C2B53792  13.278  13.704   6.796
 4022POPC   C3B53793  13.110  13.667   7.178
 4022POPC   C4B53794  13.295  13.836   7.547
 4023POPC   NC353795  29.037  34.114   5.489
 4023POPC   PO453796  28.836  34.777   5.482
 4023POPC   GL153797  28.868  34.527   5.818
 4023POPC   GL253798  29.199  34.419   5.921
 4023POPC   C1A53799  28.765  34.431   6.213
 4023POPC   D2A53800  28.987  34.332   6.521
 4023POPC   C3A53801  28.903  34.519   6.904
 4023POPC   C4A53802  29.024  34.449   7.298
 4023POPC   C1B53803  29.129  34.770   6.257
 4023POPC   C2B53804  29.173  35.003   6.642
 4023POPC   C3B53805  29.202  34.913   7.047
 4023POPC   C4B53806  28.959  34.978   7.354
 4024POPC   NC353807  37.568  17.644   5.255
 4024POPC   PO453808  37.894  17.088   5.469
 4024POPC   GL153809  37.663  17.332   5.753
 4024POPC   GL253810  37.821  17.659   5.711
 4024POPC   C1A53811  37.642  17.478   6.189
 4024POPC   D2A53812  37.652  17.459   6.648
 4024POPC   C3A53813  37.291  17.613   6.876
 4024POPC   C4A53814  37.244  17.487   7.300
 4024POPC   C1B53815  38.036  17.867   6.059
 4024POPC   C2B53816  37.923  17.899   6.502
 4024POPC   C3B53817  37.975  18.004   6.940
 4024POPC   C4B53818  37.993  18.069   7.418
 4025POPC   NC353819   0.734   3.618   5.388
 4025POPC   PO453820   0.057   3.393   5.319
 4025POPC   GL153821   0.261   3.274   5.704
 4025POPC   GL253822   0.515   3.490   5.824
 4025POPC   C1A53823   0.088   3.161   6.110
 4025POPC   D2A53824   0.126   3.202   6.585
 4025POPC   C3A53825   0.467   3.299   6.873
 4025POPC   C4A53826   0.403   3.293   7.347
 4025POPC   C1B53827   0.357   3.577   6.243
 4025POPC   C2B53828   0.094   3.720   6.579
 4025POPC   C3B53829   0.237   3.774   7.005
 4025POPC   C4B53830   0.644   3.686   7.183
 4026POPC   NC353831   9.219  23.976   5.376
 4026POPC   PO453832   8.644  23.605   5.255
 4026POPC   GL153833   8.860  23.521   5.717
 4026POPC   GL253834   9.170  23.740   5.853
 4026POPC   C1A53835   8.969  23.358   6.165
 4026POPC   D2A53836   8.775  23.512   6.567
 4026POPC   C3A53837   8.924  23.668   6.992
 4026POPC   C4A53838   8.829  23.803   7.431
 4026POPC   C1B53839   9.361  23.792   6.300
 4026POPC   C2B53840   9.405  24.009   6.738
 4026POPC   C3B53841   9.285  23.966   7.209
 4026POPC   C4B53842   9.281  24.055   7.678
 4027POPC   NC353843  40.257   9.063   5.184
 4027POPC   PO453844  39.609   8.709   5.134
 4027POPC   GL153845  39.785   8.773   5.624
 4027POPC   GL253846  39.812   9.122   5.773
 4027POPC   C1A53847  40.015   8.718   6.092
 4027POPC   D2A53848  40.202   8.793   6.516
 4027POPC   C3A53849  39.984   8.669   6.906
 4027POPC   C4A53850  40.043   8.712   7.328
 4027POPC   C1B53851  39.771   9.178   6.251
 4027POPC   C2B53852  39.868   9.166   6.724
 4027POPC   C3B53853  39.895   9.186   7.196
 4027POPC   C4B53854  39.740   9.306   7.665
 4028POPC   NC353855  33.100  43.879   5.114
 4028POPC   PO453856  32.560  43.604   5.351
 4028POPC   GL153857  32.823  43.955   5.574
 4028POPC   GL253858  33.167  43.891   5.723
 4028POPC   C1A53859  32.870  44.229   5.982
 4028POPC   D2A53860  32.749  44.108   6.442
 4028POPC   C3A53861  32.972  44.101   6.865
 4028POPC   C4A53862  32.898  43.887   7.239
 4028POPC   C1B53863  33.182  43.889   6.208
 4028POPC   C2B53864  33.268  43.760   6.635
 4028POPC   C3B53865  33.079  43.490   6.969
 4028POPC   C4B53866  33.175  43.456   7.426
 4029POPC   NC353867  14.230   7.765   5.394
 4029POPC   PO453868  14.537   7.188   5.448
 4029POPC   GL153869  14.551   7.426   5.829
 4029POPC   GL253870  14.618   7.786   5.747
 4029POPC   C1A53871  14.392   7.385   6.268
 4029POPC   D2A53872  13.989   7.383   6.529
 4029POPC   C3A53873  14.138   7.434   6.970
 4029POPC   C4A53874  14.547   7.216   7.118
 4029POPC   C1B53875  14.232   7.815   6.055
 4029POPC   C2B53876  14.283   7.829   6.526
 4029POPC   C3B53877  14.612   7.654   6.838
 4029POPC   C4B53878  14.852   7.630   7.248
 4030POPC   NC353879  38.794  10.094   5.542
 4030POPC   PO453880  38.272   9.724   5.425
 4030POPC   GL153881  38.401   9.726   5.850
 4030POPC   GL253882  38.700   9.635   5.846
 4030POPC   C1A53883  38.287   9.739   6.289
 4030POPC   D2A53884  38.035   9.687   6.668
 4030POPC   C3A53885  38.285   9.700   7.073
 4030POPC   C4A53886  38.253   9.492   7.475
 4030POPC   C1B53887  38.812   9.732   6.282
 4030POPC   C2B53888  39.011   9.796   6.689
 4030POPC   C3B53889  38.934   9.498   7.013
 4030POPC   C4B53890  38.751   9.539   7.424
 4031POPC   NC353891  39.641  27.077   5.353
 4031POPC   PO453892  39.312  26.505   5.504
 4031POPC   GL153893  39.383  26.830   5.752
 4031POPC   GL253894  39.728  26.762   5.756
 4031POPC   C1A53895  39.206  26.894   6.152
 4031POPC   D2A53896  39.088  26.742   6.556
 4031POPC   C3A53897  39.138  27.083   6.832
 4031POPC   C4A53898  39.260  27.039   7.236
 4031POPC   C1B53899  39.582  26.539   6.142
 4031POPC   C2B53900  39.521  26.490   6.581
 4031POPC   C3B53901  39.376  26.619   6.972
 4031POPC   C4B53902  39.539  26.521   7.390
 4032POPC   NC353903  37.656  40.150   5.343
 4032POPC   PO453904  37.630  39.513   5.439
 4032POPC   GL153905  37.717  39.643   5.883
 4032POPC   GL253906  37.988  39.883   5.871
 4032POPC   C1A53907  37.788  39.730   6.353
 4032POPC   D2A53908  37.677  40.056   6.681
 4032POPC   C3A53909  37.633  39.896   7.109
 4032POPC   C4A53910  37.884  39.717   7.412
 4032POPC   C1B53911  38.011  40.167   6.240
 4032POPC   C2B53912  38.102  40.383   6.643
 4032POPC   C3B53913  37.936  40.343   7.059
 4032POPC   C4B53914  37.998  40.220   7.467
 4033POPC   NC353915   0.747  32.575   5.390
 4033POPC   PO453916   0.318  32.106   5.412
 4033POPC   GL153917   0.572  32.190   5.733
 4033POPC   GL253918   0.261  32.275   5.905
 4033POPC   C1A53919   0.690  32.219   6.181
 4033POPC   D2A53920   0.655  31.918   6.497
 4033POPC   C3A53921   0.578  31.986   6.905
 4033POPC   C4A53922   0.840  32.240   7.086
 4033POPC   C1B53923   0.205  32.030   6.284
 4033POPC   C2B53924   0.211  32.251   6.686
 4033POPC   C3B53925   0.368  32.381   7.158
 4033POPC   C4B53926   0.212  32.624   7.503
 4034POPC   NC353927   6.339  23.505   5.473
 4034POPC   PO453928   6.952  23.478   5.393
 4034POPC   GL153929   6.894  23.296   5.840
 4034POPC   GL253930   6.558  23.328   5.915
 4034POPC   C1A53931   6.910  23.376   6.332
 4034POPC   D2A53932   6.863  23.751   6.616
 4034POPC   C3A53933   6.662  23.753   7.055
 4034POPC   C4A53934   6.633  23.955   7.461
 4034POPC   C1B53935   6.423  23.243   6.335
 4034POPC   C2B53936   6.562  23.362   6.738
 4034POPC   C3B53937   6.431  23.285   7.152
 4034POPC   C4B53938   6.494  23.477   7.559
 4035POPC   NC353939   0.702   1.007   5.466
 4035POPC   PO453940   1.144   1.350   5.084
 4035POPC   GL153941   0.994   1.301   5.711
 4035POPC   GL253942   1.001   0.932   5.859
 4035POPC   C1A53943   1.094   1.346   6.173
 4035POPC   D2A53944   1.269   1.112   6.516
 4035POPC   C3A53945   1.059   1.195   6.884
 4035POPC   C4A53946   1.097   1.442   7.247
 4035POPC   C1B53947   0.673   1.056   6.132
 4035POPC   C2B53948   0.683   1.244   6.516
 4035POPC   C3B53949   0.522   1.085   6.886
 4035POPC   C4B53950   0.714   1.083   7.251
 4036POPC   NC353951   2.020  23.572   5.505
 4036POPC   PO453952   1.986  22.974   5.298
 4036POPC   GL153953   2.169  22.988   5.713
 4036POPC   GL253954   1.906  23.170   5.805
 4036POPC   C1A53955   2.159  22.819   6.152
 4036POPC   D2A53956   1.995  22.944   6.548
 4036POPC   C3A53957   2.123  22.797   6.946
 4036POPC   C4A53958   1.787  22.882   7.206
 4036POPC   C1B53959   1.761  23.253   6.190
 4036POPC   C2B53960   1.849  23.462   6.556
 4036POPC   C3B53961   1.948  23.304   6.945
 4036POPC   C4B53962   1.753  23.372   7.335
 4037POPC   NC353963  39.537  39.448   5.410
 4037POPC   PO453964  40.231  39.295   5.514
 4037POPC   GL153965  39.996  39.373   5.874
 4037POPC   GL253966  39.681  39.242   5.867
 4037POPC   C1A53967  40.014  39.489   6.305
 4037POPC   D2A53968  40.121  39.284   6.702
 4037POPC   C3A53969  39.954  39.408   7.102
 4037POPC   C4A53970  39.957  39.237   7.520
 4037POPC   C1B53971  39.506  39.447   6.226
 4037POPC   C2B53972  39.618  39.471   6.652
 4037POPC   C3B53973  39.557  39.132   6.928
 4037POPC   C4B53974  39.479  39.298   7.314
 4038POPC   NC353975  15.287  11.838   5.418
 4038POPC   PO453976  14.721  12.081   5.679
 4038POPC   GL153977  15.006  12.025   5.947
 4038POPC   GL253978  15.327  12.152   5.823
 4038POPC   C1A53979  14.850  11.986   6.350
 4038POPC   D2A53980  14.887  11.653   6.596
 4038POPC   C3A53981  15.141  11.845   6.866
 4038POPC   C4A53982  15.175  11.836   7.282
 4038POPC   C1B53983  15.248  12.387   6.203
 4038POPC   C2B53984  15.387  12.448   6.610
 4038POPC   C3B53985  15.437  12.263   7.050
 4038POPC   C4B53986  15.373  12.252   7.509
 4039POPC   NC353987  25.006   6.193   5.582
 4039POPC   PO453988  24.293   5.999   5.469
 4039POPC   GL153989  24.477   5.817   5.835
 4039POPC   GL253990  24.840   5.726   5.792
 4039POPC   C1A53991  24.372   5.727   6.260
 4039POPC   D2A53992  24.179   5.776   6.655
 4039POPC   C3A53993  24.504   5.750   6.940
 4039POPC   C4A53994  24.466   5.924   7.285
 4039POPC   C1B53995  24.846   5.546   6.208
 4039POPC   C2B53996  24.731   5.397   6.629
 4039POPC   C3B53997  24.950   5.469   7.005
 4039POPC   C4B53998  24.850   5.593   7.402
 4040POPC   NC353999  25.605  27.665   5.088
 4040POPC   PO454000  25.155  27.631   5.522
 4040POPC   GL154001  25.428  27.544   5.889
 4040POPC   GL254002  25.255  27.807   6.011
 4040POPC   C1A54003  25.472  27.522   6.332
 4040POPC   D2A54004  25.319  27.839   6.576
 4040POPC   C3A54005  25.273  27.674   6.974
 4040POPC   C4A54006  25.628  27.666   7.254
 4040POPC   C1B54007  24.970  27.553   6.292
 4040POPC   C2B54008  24.985  27.329   6.685
 4040POPC   C3B54009  24.886  27.145   7.077
 4040POPC   C4B54010  24.985  27.405   7.389
 4041POPC   NC354011   4.747  16.974   5.622
 4041POPC   PO454012   5.112  16.364   5.359
 4041POPC   GL154013   5.204  16.380   5.774
 4041POPC   GL254014   5.138  16.695   5.854
 4041POPC   C1A54015   5.366  16.361   6.180
 4041POPC   D2A54016   5.307  16.598   6.516
 4041POPC   C3A54017   5.138  16.373   6.855
 4041POPC   C4A54018   5.012  16.589   7.209
 4041POPC   C1B54019   5.203  16.981   6.166
 4041POPC   C2B54020   5.018  17.077   6.539
 4041POPC   C3B54021   5.226  16.926   6.887
 4041POPC   C4B54022   5.395  16.905   7.290
 4042POPC   NC354023  13.600  30.053   5.343
 4042POPC   PO454024  14.047  29.610   5.536
 4042POPC   GL154025  13.714  29.834   5.787
 4042POPC   GL254026  13.681  29.500   5.899
 4042POPC   C1A54027  13.476  29.860   6.206
 4042POPC   D2A54028  13.422  29.585   6.584
 4042POPC   C3A54029  13.573  29.751   6.999
 4042POPC   C4A54030  13.644  30.202   7.195
 4042POPC   C1B54031  13.986  29.738   6.201
 4042POPC   C2B54032  13.847  29.902   6.579
 4042POPC   C3B54033  14.032  29.969   6.971
 4042POPC   C4B54034  13.995  29.856   7.416
 4043POPC   NC354035   5.360  10.053   5.328
 4043POPC   PO454036   4.800   9.720   5.438
 4043POPC   GL154037   5.018   9.974   5.752
 4043POPC   GL254038   5.382   9.904   5.815
 4043POPC   C1A54039   5.052  10.012   6.210
 4043POPC   D2A54040   5.291   9.882   6.563
 4043POPC   C3A54041   5.084   9.920   6.999
 4043POPC   C4A54042   5.392   9.932   7.300
 4043POPC   C1B54043   5.198   9.515   5.994
 4043POPC   C2B54044   5.062   9.437   6.410
 4043POPC   C3B54045   5.235   9.458   6.836
 4043POPC   C4B54046   5.135   9.457   7.273
 4044POPC   NC354047  35.846  16.922   5.474
 4044POPC   PO454048  36.329  16.390   5.315
 4044POPC   GL154049  36.175  16.573   5.716
 4044POPC   GL254050  36.375  16.446   5.971
 4044POPC   C1A54051  36.041  16.810   6.114
 4044POPC   D2A54052  36.187  16.930   6.553
 4044POPC   C3A54053  36.069  16.806   6.940
 4044POPC   C4A54054  35.916  16.778   7.341
 4044POPC   C1B54055  36.494  16.597   6.331
 4044POPC   C2B54056  36.423  16.462   6.738
 4044POPC   C3B54057  36.319  16.444   7.196
 4044POPC   C4B54058  36.465  16.260   7.578
 4045POPC   NC354059  18.182  21.691   5.288
 4045POPC   PO454060  18.032  21.153   5.545
 4045POPC   GL154061  18.246  21.507   5.772
 4045POPC   GL254062  18.100  21.867   5.758
 4045POPC   C1A54063  18.463  21.421   6.189
 4045POPC   D2A54064  18.440  21.121   6.573
 4045POPC   C3A54065  18.404  21.320   6.994
 4045POPC   C4A54066  18.103  21.248   7.336
 4045POPC   C1B54067  18.073  21.746   6.188
 4045POPC   C2B54068  18.187  21.611   6.595
 4045POPC   C3B54069  17.963  21.572   6.958
 4045POPC   C4B54070  17.883  21.715   7.348
 4046POPC   NC354071  23.226  44.109   5.409
 4046POPC   PO454072  23.552  43.551   5.612
 4046POPC   GL154073  23.743  43.909   5.749
 4046POPC   GL254074  23.436  44.022   5.857
 4046POPC   C1A54075  23.845  44.037   6.175
 4046POPC   D2A54076  23.992  43.858   6.538
 4046POPC   C3A54077  23.946  44.044   6.917
 4046POPC   C4A54078  24.116  43.967   7.297
 4046POPC   C1B54079  23.364  43.854   6.252
 4046POPC   C2B54080  23.494  43.967   6.657
 4046POPC   C3B54081  23.512  43.869   7.090
 4046POPC   C4B54082  23.315  44.064   7.419
 4047POPC   NC354083  12.675  35.679   5.149
 4047POPC   PO454084  11.967  35.471   5.322
 4047POPC   GL154085  12.107  35.408   5.755
 4047POPC   GL254086  11.824  35.242   5.850
 4047POPC   C1A54087  12.359  35.141   6.101
 4047POPC   D2A54088  12.517  35.202   6.565
 4047POPC   C3A54089  12.321  35.194   7.027
 4047POPC   C4A54090  12.062  35.458   7.342
 4047POPC   C1B54091  11.949  35.394   6.256
 4047POPC   C2B54092  11.961  35.247   6.660
 4047POPC   C3B54093  11.767  35.137   7.040
 4047POPC   C4B54094  11.659  35.195   7.460
 4048POPC   NC354095  12.187  28.898   5.429
 4048POPC   PO454096  11.832  29.432   5.380
 4048POPC   GL154097  12.070  29.300   5.762
 4048POPC   GL254098  12.123  28.947   5.914
 4048POPC   C1A54099  12.053  29.345   6.209
 4048POPC   D2A54100  12.131  29.172   6.620
 4048POPC   C3A54101  11.997  29.350   7.033
 4048POPC   C4A54102  12.191  29.427   7.457
 4048POPC   C1B54103  11.761  28.910   6.182
 4048POPC   C2B54104  11.730  28.819   6.622
 4048POPC   C3B54105  12.000  28.809   6.973
 4048POPC   C4B54106  12.019  28.954   7.382
 4049POPC   NC354107  44.537   0.683   5.412
 4049POPC   PO454108  44.739   0.026   5.360
 4049POPC   GL154109  44.595   0.262   5.731
 4049POPC   GL254110  44.876   0.447   5.862
 4049POPC   C1A54111  44.407   0.493   6.088
 4049POPC   D2A54112  44.332   0.671   6.494
 4049POPC   C3A54113  44.561   0.469   6.823
 4049POPC   C4A54114  44.842   0.497   7.165
 4049POPC   C1B54115  44.929   0.256   6.302
 4049POPC   C2B54116  44.918   0.076   6.760
 4049POPC   C3B54117   0.063   0.054   7.215
 4049POPC   C4B54118   0.097   0.148   7.689
 4050POPC   NC354119  26.315   1.059   5.281
 4050POPC   PO454120  25.917   1.541   5.561
 4050POPC   GL154121  25.981   1.370   5.895
 4050POPC   GL254122  26.049   1.031   5.811
 4050POPC   C1A54123  26.003   1.524   6.290
 4050POPC   D2A54124  26.341   1.539   6.551
 4050POPC   C3A54125  26.218   1.580   6.947
 4050POPC   C4A54126  26.328   1.369   7.286
 4050POPC   C1B54127  25.806   1.032   6.231
 4050POPC   C2B54128  25.800   1.204   6.659
 4050POPC   C3B54129  25.861   1.152   7.094
 4050POPC   C4B54130  26.099   0.911   7.397
 4051POPC   NC354131  36.137  10.562   5.219
 4051POPC   PO454132  35.800  10.257   5.688
 4051POPC   GL154133  36.136  10.484   5.803
 4051POPC   GL254134  36.377  10.222   5.818
 4051POPC   C1A54135  36.014  10.679   6.211
 4051POPC   D2A54136  35.740  10.705   6.565
 4051POPC   C3A54137  35.809  10.411   6.917
 4051POPC   C4A54138  35.898  10.509   7.353
 4051POPC   C1B54139  36.206  10.193   6.250
 4051POPC   C2B54140  36.246  10.447   6.632
 4051POPC   C3B54141  36.317  10.406   7.072
 4051POPC   C4B54142  36.499  10.059   7.294
 4052POPC   NC354143  16.717  23.215   5.249
 4052POPC   PO454144  16.756  22.583   5.406
 4052POPC   GL154145  16.727  22.774   5.806
 4052POPC   GL254146  16.947  23.084   5.773
 4052POPC   C1A54147  16.566  22.803   6.239
 4052POPC   D2A54148  16.850  22.857   6.588
 4052POPC   C3A54149  16.649  22.841   6.976
 4052POPC   C4A54150  16.665  22.571   7.305
 4052POPC   C1B54151  16.825  23.244   6.189
 4052POPC   C2B54152  17.005  23.354   6.596
 4052POPC   C3B54153  17.043  23.173   7.002
 4052POPC   C4B54154  16.811  23.141   7.396
 4053POPC   NC354155  42.655  26.250   5.444
 4053POPC   PO454156  41.941  26.223   5.428
 4053POPC   GL154157  42.097  25.913   5.759
 4053POPC   GL254158  42.473  25.911   5.804
 4053POPC   C1A54159  42.190  25.828   6.221
 4053POPC   D2A54160  42.410  25.999   6.583
 4053POPC   C3A54161  42.347  25.779   6.955
 4053POPC   C4A54162  42.066  25.867   7.285
 4053POPC   C1B54163  42.525  26.273   6.118
 4053POPC   C2B54164  42.633  26.464   6.553
 4053POPC   C3B54165  42.530  26.377   7.011
 4053POPC   C4B54166  42.586  26.047   7.328
 4054POPC   NC354167  17.603  25.213   5.285
 4054POPC   PO454168  17.524  25.882   5.357
 4054POPC   GL154169  17.395  25.519   5.680
 4054POPC   GL254170  17.683  25.255   5.798
 4054POPC   C1A54171  17.329  25.410   6.148
 4054POPC   D2A54172  17.517  25.551   6.577
 4054POPC   C3A54173  17.423  25.342   6.981
 4054POPC   C4A54174  17.494  25.294   7.416
 4054POPC   C1B54175  17.840  25.302   6.258
 4054POPC   C2B54176  17.993  25.216   6.705
 4054POPC   C3B54177  17.864  25.023   7.118
 4054POPC   C4B54178  17.818  24.944   7.605
 4055POPC   NC354179  36.673  19.754   5.313
 4055POPC   PO454180  37.291  19.666   5.254
 4055POPC   GL154181  37.036  19.765   5.676
 4055POPC   GL254182  36.713  19.952   5.805
 4055POPC   C1A54183  37.142  19.832   6.104
 4055POPC   D2A54184  37.017  19.621   6.466
 4055POPC   C3A54185  37.205  19.736   6.826
 4055POPC   C4A54186  37.222  19.702   7.247
 4055POPC   C1B54187  36.655  19.960   6.275
 4055POPC   C2B54188  36.575  19.738   6.701
 4055POPC   C3B54189  36.718  19.796   7.151
 4055POPC   C4B54190  36.563  19.832   7.617
 4056POPC   NC354191   8.106  18.519   5.478
 4056POPC   PO454192   8.376  17.971   5.313
 4056POPC   GL154193   8.150  18.067   5.723
 4056POPC   GL254194   8.441  18.294   5.800
 4056POPC   C1A54195   8.072  18.250   6.156
 4056POPC   D2A54196   8.130  18.476   6.544
 4056POPC   C3A54197   8.022  18.241   6.926
 4056POPC   C4A54198   8.088  18.279   7.351
 4056POPC   C1B54199   8.567  18.479   6.187
 4056POPC   C2B54200   8.585  18.243   6.556
 4056POPC   C3B54201   8.511  18.337   6.956
 4056POPC   C4B54202   8.558  18.110   7.305
 4057POPC   NC354203  32.406  20.246   4.941
 4057POPC   PO454204  31.906  20.216   5.443
 4057POPC   GL154205  32.164  20.331   5.807
 4057POPC   GL254206  32.408  20.157   6.053
 4057POPC   C1A54207  32.040  20.515   6.175
 4057POPC   D2A54208  31.944  20.682   6.548
 4057POPC   C3A54209  32.122  20.520   6.899
 4057POPC   C4A54210  32.105  20.716   7.292
 4057POPC   C1B54211  32.465  20.460   6.437
 4057POPC   C2B54212  32.504  20.808   6.735
 4057POPC   C3B54213  32.611  20.785   7.193
 4057POPC   C4B54214  32.832  20.613   7.575
 4058POPC   NC354215  44.794  31.152   5.375
 4058POPC   PO454216  44.538  31.771   5.364
 4058POPC   GL154217  44.629  31.524   5.711
 4058POPC   GL254218  44.377  31.248   5.711
 4058POPC   C1A54219  44.548  31.570   6.138
 4058POPC   D2A54220  44.816  31.703   6.471
 4058POPC   C3A54221  44.637  31.667   6.877
 4058POPC   C4A54222  44.758  31.665   7.291
 4058POPC   C1B54223  44.467  31.042   6.090
 4058POPC   C2B54224  44.621  31.182   6.478
 4058POPC   C3B54225  44.543  31.066   6.881
 4058POPC   C4B54226  44.427  31.315   7.180
 4059POPC   NC354227  18.209  24.665   5.206
 4059POPC   PO454228  18.255  24.164   5.592
 4059POPC   GL154229  18.250  24.599   5.734
 4059POPC   GL254230  17.919  24.758   5.625
 4059POPC   C1A54231  18.410  24.669   6.167
 4059POPC   D2A54232  18.523  24.423   6.555
 4059POPC   C3A54233  18.729  24.608   6.915
 4059POPC   C4A54234  18.552  24.637   7.322
 4059POPC   C1B54235  17.941  24.846   6.059
 4059POPC   C2B54236  17.974  24.745   6.500
 4059POPC   C3B54237  18.177  24.647   6.902
 4059POPC   C4B54238  18.024  24.569   7.307
 4060POPC   NC354239  43.069  14.843   5.483
 4060POPC   PO454240  42.974  14.179   5.246
 4060POPC   GL154241  42.960  14.388   5.711
 4060POPC   GL254242  43.276  14.571   5.855
 4060POPC   C1A54243  42.927  14.438   6.224
 4060POPC   D2A54244  42.750  14.315   6.666
 4060POPC   C3A54245  42.946  14.429   7.054
 4060POPC   C4A54246  43.062  14.140   7.357
 4060POPC   C1B54247  43.313  14.804   6.264
 4060POPC   C2B54248  43.378  14.938   6.703
 4060POPC   C3B54249  43.393  14.673   7.083
 4060POPC   C4B54250  43.462  14.470   7.488
 4061POPC   NC354251  24.568  28.130   5.265
 4061POPC   PO454252  24.172  28.726   5.231
 4061POPC   GL154253  24.387  28.497   5.619
 4061POPC   GL254254  24.316  28.153   5.726
 4061POPC   C1A54255  24.578  28.418   6.093
 4061POPC   D2A54256  24.756  28.384   6.567
 4061POPC   C3A54257  24.567  28.300   7.002
 4061POPC   C4A54258  24.287  28.593   7.238
 4061POPC   C1B54259  24.162  28.111   6.182
 4061POPC   C2B54260  24.295  28.036   6.660
 4061POPC   C3B54261  24.232  27.896   7.119
 4061POPC   C4B54262  24.198  27.965   7.591
 4062POPC   NC354263  27.659  38.333   5.457
 4062POPC   PO454264  27.113  38.348   5.554
 4062POPC   GL154265  27.414  38.306   5.936
 4062POPC   GL254266  27.747  38.112   5.912
 4062POPC   C1A54267  27.388  38.318   6.414
 4062POPC   D2A54268  27.555  38.249   6.855
 4062POPC   C3A54269  27.380  38.542   7.155
 4062POPC   C4A54270  27.577  38.788   7.516
 4062POPC   C1B54271  27.877  38.239   6.333
 4062POPC   C2B54272  27.815  38.610   6.599
 4062POPC   C3B54273  27.847  38.665   7.052
 4062POPC   C4B54274  27.808  38.360   7.420
 4063POPC   NC354275  26.518  44.441   5.633
 4063POPC   PO454276  26.945  44.975   5.478
 4063POPC   GL154277  26.840  44.778   5.852
 4063POPC   GL254278  27.019  44.457   5.847
 4063POPC   C1A54279  26.707  44.857   6.280
 4063POPC   D2A54280  26.835   0.058   6.657
 4063POPC   C3A54281  26.776  44.849   7.049
 4063POPC   C4A54282  26.537  44.755   7.458
 4063POPC   C1B54283  26.819  44.353   6.233
 4063POPC   C2B54284  26.712  44.457   6.645
 4063POPC   C3B54285  26.775  44.284   7.029
 4063POPC   C4B54286  27.061  44.494   7.247
 4064POPC   NC354287   1.782   6.325   5.554
 4064POPC   PO454288   2.075   6.943   5.408
 4064POPC   GL154289   1.996   6.728   5.847
 4064POPC   GL254290   1.655   6.602   5.947
 4064POPC   C1A54291   1.977   6.606   6.335
 4064POPC   D2A54292   2.155   6.587   6.754
 4064POPC   C3A54293   2.201   6.858   7.092
 4064POPC   C4A54294   1.939   6.822   7.474
 4064POPC   C1B54295   1.552   6.277   6.250
 4064POPC   C2B54296   1.587   6.416   6.671
 4064POPC   C3B54297   1.723   6.594   7.058
 4064POPC   C4B54298   1.820   6.307   7.427
 4065POPC   NC354299  36.252   5.829   5.385
 4065POPC   PO454300  36.629   6.353   5.338
 4065POPC   GL154301  36.386   6.182   5.761
 4065POPC   GL254302  36.093   5.918   5.846
 4065POPC   C1A54303  36.173   6.278   6.191
 4065POPC   D2A54304  35.822   6.188   6.513
 4065POPC   C3A54305  35.874   6.152   6.964
 4065POPC   C4A54306  36.216   6.083   7.236
 4065POPC   C1B54307  36.028   5.771   6.272
 4065POPC   C2B54308  36.172   5.825   6.704
 4065POPC   C3B54309  35.986   5.648   7.088
 4065POPC   C4B54310  36.137   5.617   7.518
 4066POPC   NC354311  21.612   0.763   5.490
 4066POPC   PO454312  21.061   0.266   5.475
 4066POPC   GL154313  21.324   0.487   5.814
 4066POPC   GL254314  21.262   0.850   5.887
 4066POPC   C1A54315  21.543   0.504   6.248
 4066POPC   D2A54316  21.743   0.435   6.682
 4066POPC   C3A54317  21.483   0.308   7.049
 4066POPC   C4A54318  21.550   0.280   7.543
 4066POPC   C1B54319  21.018   0.634   6.213
 4066POPC   C2B54320  21.163   0.488   6.622
 4066POPC   C3B54321  21.243   0.756   6.960
 4066POPC   C4B54322  21.260   0.652   7.367
 4067POPC   NC354323  12.467  38.419   5.377
 4067POPC   PO454324  13.151  38.334   5.396
 4067POPC   GL154325  13.004  38.495   5.759
 4067POPC   GL254326  12.707  38.275   5.814
 4067POPC   C1A54327  12.855  38.609   6.174
 4067POPC   D2A54328  12.909  38.375   6.565
 4067POPC   C3A54329  13.106  38.518   6.956
 4067POPC   C4A54330  12.950  38.517   7.371
 4067POPC   C1B54331  12.529  38.209   6.219
 4067POPC   C2B54332  12.451  38.191   6.657
 4067POPC   C3B54333  12.708  38.191   7.036
 4067POPC   C4B54334  12.588  38.171   7.450
 4068POPC   NC354335  15.749   0.752   5.454
 4068POPC   PO454336  16.051   0.148   5.416
 4068POPC   GL154337  15.992   0.449   5.777
 4068POPC   GL254338  15.603   0.444   5.852
 4068POPC   C1A54339  15.946   0.647   6.204
 4068POPC   D2A54340  15.780   0.518   6.623
 4068POPC   C3A54341  16.006   0.620   7.016
 4068POPC   C4A54342  16.146   0.314   7.362
 4068POPC   C1B54343  15.433   0.694   6.200
 4068POPC   C2B54344  15.560   0.954   6.579
 4068POPC   C3B54345  15.524   0.822   7.042
 4068POPC   C4B54346  15.712   0.617   7.439
 4069POPC   NC354347  42.104  41.359   5.621
 4069POPC   PO454348  42.396  40.936   5.167
 4069POPC   GL154349  42.367  40.775   5.613
 4069POPC   GL254350  42.049  40.843   5.701
 4069POPC   C1A54351  42.478  40.815   6.098
 4069POPC   D2A54352  42.479  41.070   6.512
 4069POPC   C3A54353  42.479  40.825   6.890
 4069POPC   C4A54354  42.611  40.865   7.306
 4069POPC   C1B54355  41.973  40.907   6.147
 4069POPC   C2B54356  41.896  40.780   6.580
 4069POPC   C3B54357  41.991  40.952   6.980
 4069POPC   C4B54358  42.088  40.771   7.367
 4070POPC   NC354359  18.007  20.714   5.409
 4070POPC   PO454360  18.462  20.250   5.526
 4070POPC   GL154361  18.312  20.423   5.888
 4070POPC   GL254362  18.037  20.300   5.868
 4070POPC   C1A54363  18.383  20.366   6.348
 4070POPC   D2A54364  18.478  20.530   6.810
 4070POPC   C3A54365  18.201  20.847   7.018
 4070POPC   C4A54366  17.829  20.814   7.301
 4070POPC   C1B54367  17.891  20.451   6.221
 4070POPC   C2B54368  17.995  20.537   6.640
 4070POPC   C3B54369  18.025  20.380   7.033
 4070POPC   C4B54370  17.633  20.372   7.191
 4071POPC   NC354371   0.610  20.601   5.409
 4071POPC   PO454372  44.934  20.506   5.348
 4071POPC   GL154373   0.184  20.611   5.744
 4071POPC   GL254374   0.287  20.978   5.860
 4071POPC   C1A54375   0.400  20.563   6.163
 4071POPC   D2A54376   0.333  20.768   6.570
 4071POPC   C3A54377   0.574  20.600   6.903
 4071POPC   C4A54378   0.562  20.295   7.199
 4071POPC   C1B54379   0.626  21.017   6.229
 4071POPC   C2B54380   0.697  21.104   6.663
 4071POPC   C3B54381   0.650  21.075   7.090
 4071POPC   C4B54382   0.224  20.917   7.078
 4072POPC   NC354383  17.061  31.956   5.513
 4072POPC   PO454384  16.600  32.541   5.612
 4072POPC   GL154385  16.859  32.343   5.843
 4072POPC   GL254386  17.021  32.647   5.932
 4072POPC   C1A54387  16.656  32.270   6.230
 4072POPC   D2A54388  16.433  32.123   6.573
 4072POPC   C3A54389  16.495  32.298   6.977
 4072POPC   C4A54390  16.564  32.122   7.371
 4072POPC   C1B54391  17.116  32.468   6.322
 4072POPC   C2B54392  16.908  32.355   6.680
 4072POPC   C3B54393  16.995  32.252   7.083
 4072POPC   C4B54394  17.056  32.243   7.491
 4073POPC   NC354395  34.407  32.996   5.302
 4073POPC   PO454396  34.866  32.702   5.568
 4073POPC   GL154397  34.691  33.056   5.757
 4073POPC   GL254398  34.378  32.958   5.859
 4073POPC   C1A54399  34.754  33.277   6.137
 4073POPC   D2A54400  34.946  33.292   6.552
 4073POPC   C3A54401  34.694  33.201   6.937
 4073POPC   C4A54402  34.471  33.321   7.382
 4073POPC   C1B54403  34.678  32.764   6.187
 4073POPC   C2B54404  34.876  32.727   6.587
 4073POPC   C3B54405  34.745  32.650   7.009
 4073POPC   C4B54406  34.402  32.874   7.193
 4074POPC   NC354407  22.633   4.987   5.366
 4074POPC   PO454408  23.329   4.970   5.257
 4074POPC   GL154409  23.062   4.996   5.700
 4074POPC   GL254410  23.208   5.223   5.981
 4074POPC   C1A54411  22.720   5.065   6.059
 4074POPC   D2A54412  22.615   4.934   6.514
 4074POPC   C3A54413  22.713   5.201   6.899
 4074POPC   C4A54414  22.706   5.268   7.358
 4074POPC   C1B54415  23.142   4.821   6.229
 4074POPC   C2B54416  23.106   4.748   6.673
 4074POPC   C3B54417  23.066   4.832   7.114
 4074POPC   C4B54418  23.197   4.535   7.450
 4075POPC   NC354419  15.205  34.287   5.495
 4075POPC   PO454420  15.077  34.991   5.683
 4075POPC   GL154421  15.052  34.615   5.856
 4075POPC   GL254422  15.379  34.569   5.895
 4075POPC   C1A54423  14.948  34.480   6.267
 4075POPC   D2A54424  14.786  34.728   6.622
 4075POPC   C3A54425  15.074  34.784   6.973
 4075POPC   C4A54426  15.127  34.647   7.380
 4075POPC   C1B54427  15.453  34.420   6.288
 4075POPC   C2B54428  15.325  34.424   6.689
 4075POPC   C3B54429  15.244  34.270   7.082
 4075POPC   C4B54430  15.428  34.254   7.485
 4076POPC   NC354431  20.913  44.875   5.243
 4076POPC   PO454432  20.433  44.418   5.281
 4076POPC   GL154433  20.476  44.603   5.650
 4076POPC   GL254434  20.820  44.586   5.691
 4076POPC   C1A54435  20.374  44.545   6.071
 4076POPC   D2A54436  20.562  44.626   6.474
 4076POPC   C3A54437  20.307  44.527   6.861
 4076POPC   C4A54438  20.286  44.563   7.280
 4076POPC   C1B54439  20.975  44.583   6.102
 4076POPC   C2B54440  21.070  44.534   6.549
 4076POPC   C3B54441  20.828  44.646   6.929
 4076POPC   C4B54442  21.018  44.543   7.318
 4077POPC   NC354443  38.497  30.952   5.477
 4077POPC   PO454444  38.073  30.521   5.331
 4077POPC   GL154445  38.369  30.494   5.686
 4077POPC   GL254446  38.391  30.814   5.936
 4077POPC   C1A54447  38.507  30.342   6.077
 4077POPC   D2A54448  38.614  30.530   6.445
 4077POPC   C3A54449  38.386  30.513   6.834
 4077POPC   C4A54450  38.704  30.534   7.135
 4077POPC   C1B54451  38.696  31.082   6.156
 4077POPC   C2B54452  38.779  30.996   6.602
 4077POPC   C3B54453  38.570  30.991   6.962
 4077POPC   C4B54454  38.668  31.234   7.274
 4078POPC   NC354455  10.333  15.144   5.251
 4078POPC   PO454456  10.961  14.876   5.469
 4078POPC   GL154457  10.665  15.176   5.760
 4078POPC   GL254458  10.311  15.275   5.761
 4078POPC   C1A54459  10.628  15.355   6.199
 4078POPC   D2A54460  10.896  15.255   6.568
 4078POPC   C3A54461  10.790  15.079   6.959
 4078POPC   C4A54462  10.661  15.227   7.337
 4078POPC   C1B54463  10.221  15.054   6.165
 4078POPC   C2B54464  10.388  15.016   6.587
 4078POPC   C3B54465  10.253  15.190   6.981
 4078POPC   C4B54466  10.202  15.031   7.389
 4079POPC   NC354467   7.214  32.789   5.394
 4079POPC   PO454468   6.971  33.504   5.367
 4079POPC   GL154469   7.266  33.270   5.637
 4079POPC   GL254470   7.053  33.058   5.820
 4079POPC   C1A54471   7.535  33.079   6.006
 4079POPC   D2A54472   7.670  33.074   6.477
 4079POPC   C3A54473   7.576  32.818   6.893
 4079POPC   C4A54474   7.499  32.877   7.379
 4079POPC   C1B54475   7.103  33.319   6.212
 4079POPC   C2B54476   7.237  33.314   6.669
 4079POPC   C3B54477   7.138  33.053   7.058
 4079POPC   C4B54478   7.121  33.142   7.532
 4080POPC   NC354479  11.816  23.446   5.599
 4080POPC   PO454480  12.367  23.791   5.450
 4080POPC   GL154481  12.192  23.704   5.832
 4080POPC   GL254482  12.330  23.375   5.867
 4080POPC   C1A54483  11.960  23.822   6.211
 4080POPC   D2A54484  11.743  23.912   6.603
 4080POPC   C3A54485  12.064  23.970   6.916
 4080POPC   C4A54486  12.146  23.802   7.320
 4080POPC   C1B54487  12.354  23.488   6.306
 4080POPC   C2B54488  12.071  23.532   6.650
 4080POPC   C3B54489  12.047  23.352   7.057
 4080POPC   C4B54490  12.223  23.335   7.499
 4081POPC   NC354491   5.738   5.860   5.375
 4081POPC   PO454492   6.170   6.174   5.751
 4081POPC   GL154493   5.827   6.023   5.926
 4081POPC   GL254494   5.790   5.706   5.861
 4081POPC   C1A54495   5.876   6.071   6.349
 4081POPC   D2A54496   5.642   6.103   6.692
 4081POPC   C3A54497   5.875   6.078   7.048
 4081POPC   C4A54498   5.678   5.993   7.450
 4081POPC   C1B54499   6.009   5.591   6.216
 4081POPC   C2B54500   5.981   5.666   6.652
 4081POPC   C3B54501   6.184   5.660   7.025
 4081POPC   C4B54502   5.954   5.558   7.384
 4082POPC   NC354503  35.883  18.567   5.383
 4082POPC   PO454504  35.248  18.239   5.294
 4082POPC   GL154505  35.234  18.299   5.739
 4082POPC   GL254506  35.328  17.956   5.825
 4082POPC   C1A54507  34.996  18.358   6.125
 4082POPC   D2A54508  34.929  18.269   6.565
 4082POPC   C3A54509  35.217  18.433   6.862
 4082POPC   C4A54510  35.212  18.447   7.275
 4082POPC   C1B54511  35.495  18.157   6.201
 4082POPC   C2B54512  35.430  18.052   6.626
 4082POPC   C3B54513  35.311  17.961   7.052
 4082POPC   C4B54514  35.560  17.989   7.404
 4083POPC   NC354515   9.029  41.412   4.964
 4083POPC   PO454516   8.792  41.123   5.569
 4083POPC   GL154517   8.956  41.383   5.923
 4083POPC   GL254518   8.997  41.702   5.801
 4083POPC   C1A54519   8.904  41.490   6.354
 4083POPC   D2A54520   8.585  41.497   6.669
 4083POPC   C3A54521   8.685  41.381   7.086
 4083POPC   C4A54522   9.099  41.338   7.293
 4083POPC   C1B54523   9.156  42.033   6.044
 4083POPC   C2B54524   9.051  41.971   6.479
 4083POPC   C3B54525   9.036  41.725   6.866
 4083POPC   C4B54526   8.894  41.819   7.276
 4084POPC   NC354527  16.972   4.564   5.375
 4084POPC   PO454528  16.285   4.344   5.322
 4084POPC   GL154529  16.647   4.256   5.673
 4084POPC   GL254530  16.828   3.935   5.818
 4084POPC   C1A54531  16.923   4.406   6.038
 4084POPC   D2A54532  16.925   4.362   6.468
 4084POPC   C3A54533  16.739   4.470   6.847
 4084POPC   C4A54534  16.907   4.307   7.243
 4084POPC   C1B54535  16.581   4.063   6.180
 4084POPC   C2B54536  16.586   3.960   6.601
 4084POPC   C3B54537  16.531   4.058   7.018
 4084POPC   C4B54538  16.403   4.342   7.353
 4085POPC   NC354539  10.301  31.137   5.580
 4085POPC   PO454540   9.804  31.660   5.547
 4085POPC   GL154541   9.717  31.274   5.802
 4085POPC   GL254542  10.010  31.205   6.022
 4085POPC   C1A54543   9.547  31.060   6.184
 4085POPC   D2A54544   9.762  31.037   6.602
 4085POPC   C3A54545   9.594  31.383   6.863
 4085POPC   C4A54546   9.477  31.472   7.282
 4085POPC   C1B54547   9.823  31.568   6.293
 4085POPC   C2B54548   9.845  31.807   6.721
 4085POPC   C3B54549   9.863  31.807   7.198
 4085POPC   C4B54550  10.080  31.844   7.677
 4086POPC   NC354551  37.177  12.818   5.413
 4086POPC   PO454552  36.851  13.463   5.390
 4086POPC   GL154553  36.904  13.229   5.755
 4086POPC   GL254554  36.707  12.978   5.601
 4086POPC   C1A54555  36.884  13.221   6.232
 4086POPC   D2A54556  36.698  13.142   6.661
 4086POPC   C3A54557  36.964  13.128   7.045
 4086POPC   C4A54558  36.703  13.084   7.457
 4086POPC   C1B54559  36.732  12.769   6.004
 4086POPC   C2B54560  36.658  12.688   6.449
 4086POPC   C3B54561  36.853  12.660   6.871
 4086POPC   C4B54562  36.764  12.304   7.095
 4087POPC   NC354563  42.279  33.257   5.317
 4087POPC   PO454564  42.014  32.660   5.435
 4087POPC   GL154565  42.030  33.010   5.760
 4087POPC   GL254566  41.723  33.231   5.711
 4087POPC   C1A54567  42.161  32.961   6.232
 4087POPC   D2A54568  42.080  32.716   6.630
 4087POPC   C3A54569  42.229  32.824   7.055
 4087POPC   C4A54570  42.470  33.182   7.197
 4087POPC   C1B54571  41.837  33.330   6.159
 4087POPC   C2B54572  41.982  33.296   6.639
 4087POPC   C3B54573  41.995  33.446   7.103
 4087POPC   C4B54574  42.192  33.433   7.549
 4088POPC   NC354575  15.585  25.960   5.339
 4088POPC   PO454576  14.921  25.766   5.480
 4088POPC   GL154577  15.096  25.823   5.877
 4088POPC   GL254578  15.295  26.071   5.780
 4088POPC   C1A54579  15.405  25.821   6.241
 4088POPC   D2A54580  15.287  26.045   6.626
 4088POPC   C3A54581  15.368  25.800   6.970
 4088POPC   C4A54582  15.151  25.617   7.319
 4088POPC   C1B54583  15.358  26.318   6.175
 4088POPC   C2B54584  15.530  26.485   6.590
 4088POPC   C3B54585  15.486  26.340   7.022
 4088POPC   C4B54586  15.446  26.230   7.469
 4089POPC   NC354587  13.053  34.776   5.353
 4089POPC   PO454588  12.924  34.127   5.382
 4089POPC   GL154589  12.939  34.414   5.751
 4089POPC   GL254590  12.761  34.755   5.786
 4089POPC   C1A54591  12.828  34.374   6.190
 4089POPC   D2A54592  12.503  34.219   6.441
 4089POPC   C3A54593  12.705  34.152   6.805
 4089POPC   C4A54594  12.814  34.363   7.116
 4089POPC   C1B54595  12.805  34.882   6.245
 4089POPC   C2B54596  12.883  34.640   6.650
 4089POPC   C3B54597  12.994  34.819   7.058
 4089POPC   C4B54598  12.841  35.022   7.404
 4090POPC   NC354599  11.938  20.134   5.454
 4090POPC   PO454600  12.328  19.608   5.545
 4090POPC   GL154601  12.130  19.841   5.864
 4090POPC   GL254602  12.267  20.185   5.852
 4090POPC   C1A54603  12.096  19.715   6.298
 4090POPC   D2A54604  12.246  19.642   6.715
 4090POPC   C3A54605  11.902  19.740   6.997
 4090POPC   C4A54606  11.663  20.114   7.058
 4090POPC   C1B54607  12.135  20.238   6.293
 4090POPC   C2B54608  12.072  20.191   6.745
 4090POPC   C3B54609  12.298  20.021   7.092
 4090POPC   C4B54610  12.306  19.934   7.586
 4091POPC   NC354611  36.961  16.136   5.101
 4091POPC   PO454612  37.168  16.502   5.644
 4091POPC   GL154613  37.045  16.162   5.896
 4091POPC   GL254614  37.384  16.035   5.897
 4091POPC   C1A54615  36.793  16.174   6.274
 4091POPC   D2A54616  36.870  16.070   6.700
 4091POPC   C3A54617  36.797  16.283   7.058
 4091POPC   C4A54618  36.681  15.924   7.291
 4091POPC   C1B54619  37.319  15.729   6.215
 4091POPC   C2B54620  37.100  15.637   6.553
 4091POPC   C3B54621  37.251  15.764   6.922
 4091POPC   C4B54622  37.206  16.020   7.220
 4092POPC   NC354623  33.363  21.305   5.449
 4092POPC   PO454624  32.771  21.122   5.540
 4092POPC   GL154625  33.044  21.212   5.908
 4092POPC   GL254626  32.827  21.064   6.167
 4092POPC   C1A54627  33.281  21.293   6.325
 4092POPC   D2A54628  33.273  21.528   6.742
 4092POPC   C3A54629  33.178  21.353   7.160
 4092POPC   C4A54630  32.919  21.143   7.491
 4092POPC   C1B54631  32.806  21.501   6.322
 4092POPC   C2B54632  32.826  21.789   6.685
 4092POPC   C3B54633  32.991  21.845   7.105
 4092POPC   C4B54634  33.151  22.038   7.469
 4093POPC   NC354635  33.953   7.265   5.433
 4093POPC   PO454636  33.497   7.747   5.494
 4093POPC   GL154637  33.631   7.456   5.819
 4093POPC   GL254638  34.011   7.377   5.915
 4093POPC   C1A54639  33.607   7.316   6.222
 4093POPC   D2A54640  33.916   7.197   6.508
 4093POPC   C3A54641  33.650   7.153   6.843
 4093POPC   C4A54642  33.476   7.245   7.220
 4093POPC   C1B54643  34.077   7.655   6.255
 4093POPC   C2B54644  34.172   7.645   6.683
 4093POPC   C3B54645  34.197   7.373   7.035
 4093POPC   C4B54646  34.108   7.527   7.423
 4094POPC   NC354647  33.009  28.156   5.449
 4094POPC   PO454648  32.719  28.783   5.346
 4094POPC   GL154649  32.967  28.650   5.742
 4094POPC   GL254650  33.305  28.472   5.761
 4094POPC   C1A54651  33.001  28.609   6.209
 4094POPC   D2A54652  33.027  28.799   6.644
 4094POPC   C3A54653  32.959  28.443   6.889
 4094POPC   C4A54654  32.621  28.186   7.053
 4094POPC   C1B54655  33.327  28.166   6.136
 4094POPC   C2B54656  33.200  28.054   6.600
 4094POPC   C3B54657  33.324  28.140   7.038
 4094POPC   C4B54658  33.284  28.343   7.464
 4095POPC   NC354659   8.306  23.818   5.027
 4095POPC   PO454660   7.952  23.532   5.414
 4095POPC   GL154661   8.294  23.432   5.676
 4095POPC   GL254662   8.373  23.751   5.807
 4095POPC   C1A54663   8.462  23.346   6.087
 4095POPC   D2A54664   8.294  23.304   6.510
 4095POPC   C3A54665   8.400  23.528   6.917
 4095POPC   C4A54666   8.326  23.632   7.350
 4095POPC   C1B54667   8.068  23.657   6.191
 4095POPC   C2B54668   7.989  23.709   6.677
 4095POPC   C3B54669   7.960  23.908   7.128
 4095POPC   C4B54670   7.643  24.099   7.424
 4096POPC   NC354671  40.535   2.189   5.555
 4096POPC   PO454672  40.844   1.653   5.479
 4096POPC   GL154673  40.933   1.807   5.875
 4096POPC   GL254674  40.950   2.169   5.894
 4096POPC   C1A54675  41.115   1.807   6.295
 4096POPC   D2A54676  40.971   1.582   6.688
 4096POPC   C3A54677  40.694   1.809   6.942
 4096POPC   C4A54678  40.642   1.811   7.362
 4096POPC   C1B54679  40.591   2.239   6.223
 4096POPC   C2B54680  40.419   2.207   6.676
 4096POPC   C3B54681  40.587   2.303   7.105
 4096POPC   C4B54682  40.959   2.193   7.357
 4097POPC   NC354683  34.850  31.431   5.477
 4097POPC   PO454684  35.455  31.285   5.201
 4097POPC   GL154685  35.313  31.369   5.673
 4097POPC   GL254686  35.437  31.749   5.775
 4097POPC   C1A54687  35.223  31.483   6.141
 4097POPC   D2A54688  35.453  31.431   6.541
 4097POPC   C3A54689  35.245  31.460   6.961
 4097POPC   C4A54690  35.064  31.362   7.397
 4097POPC   C1B54691  35.717  31.761   6.202
 4097POPC   C2B54692  35.821  31.781   6.669
 4097POPC   C3B54693  35.730  31.619   7.069
 4097POPC   C4B54694  35.564  31.334   7.368
 4098POPC   NC354695  24.153  14.550   5.435
 4098POPC   PO454696  24.810  14.609   5.459
 4098POPC   GL154697  24.711  14.392   5.866
 4098POPC   GL254698  24.357  14.491   5.908
 4098POPC   C1A54699  24.562  14.298   6.322
 4098POPC   D2A54700  24.441  14.657   6.585
 4098POPC   C3A54701  24.450  14.583   7.036
 4098POPC   C4A54702  24.754  14.381   7.327
 4098POPC   C1B54703  24.063  14.427   6.275
 4098POPC   C2B54704  24.026  14.400   6.732
 4098POPC   C3B54705  23.913  14.609   7.115
 4098POPC   C4B54706  23.724  14.504   7.518
 4099POPC   NC354707  28.723  15.251   5.331
 4099POPC   PO454708  29.290  15.184   5.339
 4099POPC   GL154709  29.082  15.151   5.726
 4099POPC   GL254710  29.168  15.428   5.840
 4099POPC   C1A54711  28.988  15.060   6.151
 4099POPC   D2A54712  29.173  15.029   6.553
 4099POPC   C3A54713  28.967  14.953   6.956
 4099POPC   C4A54714  29.247  14.866   7.303
 4099POPC   C1B54715  29.377  15.633   6.164
 4099POPC   C2B54716  29.391  15.494   6.583
 4099POPC   C3B54717  29.344  15.292   6.975
 4099POPC   C4B54718  29.056  15.322   7.339
 4100POPC   NC354719  39.633   8.331   5.398
 4100POPC   PO454720  40.191   7.959   5.449
 4100POPC   GL154721  40.223   8.253   5.765
 4100POPC   GL254722  39.877   8.312   5.832
 4100POPC   C1A54723  40.194   8.208   6.193
 4100POPC   D2A54724  40.018   8.311   6.534
 4100POPC   C3A54725  40.072   8.072   6.868
 4100POPC   C4A54726  40.046   8.218   7.258
 4100POPC   C1B54727  39.650   8.179   6.205
 4100POPC   C2B54728  39.617   8.024   6.637
 4100POPC   C3B54729  39.593   8.065   7.082
 4100POPC   C4B54730  39.591   8.020   7.544
 4101POPC   NC354731  41.876  40.441   5.296
 4101POPC   PO454732  41.438  39.852   5.321
 4101POPC   GL154733  41.281  39.928   5.761
 4101POPC   GL254734  41.376  40.272   5.854
 4101POPC   C1A54735  41.406  39.918   6.222
 4101POPC   D2A54736  41.228  39.986   6.648
 4101POPC   C3A54737  41.416  39.815   7.069
 4101POPC   C4A54738  41.639  39.762   7.499
 4101POPC   C1B54739  41.118  40.329   6.248
 4101POPC   C2B54740  40.927  40.456   6.655
 4101POPC   C3B54741  41.151  40.304   7.034
 4101POPC   C4B54742  41.373  40.207   7.432
 4102POPC   NC354743  40.958  11.547   5.341
 4102POPC   PO454744  40.357  11.124   5.465
 4102POPC   GL154745  40.769  11.208   5.719
 4102POPC   GL254746  40.883  11.563   5.836
 4102POPC   C1A54747  40.962  11.033   6.124
 4102POPC   D2A54748  40.908  10.821   6.556
 4102POPC   C3A54749  40.883  11.113   6.884
 4102POPC   C4A54750  40.935  11.212   7.328
 4102POPC   C1B54751  41.032  11.793   6.186
 4102POPC   C2B54752  41.072  11.556   6.578
 4102POPC   C3B54753  40.957  11.608   7.006
 4102POPC   C4B54754  41.056  11.851   7.330
 4103POPC   NC354755  17.157  22.295   5.402
 4103POPC   PO454756  17.761  21.910   5.340
 4103POPC   GL154757  17.553  22.089   5.680
 4103POPC   GL254758  17.805  22.278   5.790
 4103POPC   C1A54759  17.356  22.242   6.087
 4103POPC   D2A54760  17.265  22.000   6.479
 4103POPC   C3A54761  17.312  22.177   6.920
 4103POPC   C4A54762  17.107  22.260   7.321
 4103POPC   C1B54763  17.871  22.218   6.177
 4103POPC   C2B54764  17.723  22.185   6.579
 4103POPC   C3B54765  17.821  22.088   7.001
 4103POPC   C4B54766  17.680  22.165   7.442
 4104POPC   NC354767  32.328  18.773   5.377
 4104POPC   PO454768  32.540  18.116   5.352
 4104POPC   GL154769  32.395  18.371   5.685
 4104POPC   GL254770  32.625  18.638   5.781
 4104POPC   C1A54771  32.227  18.214   6.056
 4104POPC   D2A54772  32.201  18.006   6.433
 4104POPC   C3A54773  32.116  18.240   6.820
 4104POPC   C4A54774  32.105  18.311   7.246
 4104POPC   C1B54775  32.443  18.669   6.173
 4104POPC   C2B54776  32.486  18.432   6.526
 4104POPC   C3B54777  32.585  18.476   6.949
 4104POPC   C4B54778  32.350  18.754   7.153
 4105POPC   NC354779  18.762  27.973   5.485
 4105POPC   PO454780  18.784  28.676   5.534
 4105POPC   GL154781  18.455  28.302   5.754
 4105POPC   GL254782  18.069  28.332   5.776
 4105POPC   C1A54783  18.311  28.166   6.174
 4105POPC   D2A54784  17.990  28.148   6.493
 4105POPC   C3A54785  18.168  28.162   6.911
 4105POPC   C4A54786  18.216  28.013   7.323
 4105POPC   C1B54787  18.057  28.607   6.193
 4105POPC   C2B54788  17.979  28.643   6.680
 4105POPC   C3B54789  17.981  28.578   7.156
 4105POPC   C4B54790  18.296  28.547   7.510
 4106POPC   NC354791  40.184  29.662   5.411
 4106POPC   PO454792  39.893  30.223   5.523
 4106POPC   GL154793  39.863  29.837   5.766
 4106POPC   GL254794  39.959  30.081   6.008
 4106POPC   C1A54795  40.028  29.605   6.128
 4106POPC   D2A54796  40.152  29.868   6.471
 4106POPC   C3A54797  39.955  29.892   6.852
 4106POPC   C4A54798  40.134  29.768   7.233
 4106POPC   C1B54799  40.136  30.359   6.267
 4106POPC   C2B54800  40.224  30.329   6.692
 4106POPC   C3B54801  40.146  30.284   7.119
 4106POPC   C4B54802  39.930  30.535   7.460
 4107POPC   NC354803  21.238  10.984   5.711
 4107POPC   PO454804  21.327  10.447   5.234
 4107POPC   GL154805  21.430  10.433   5.693
 4107POPC   GL254806  21.119  10.395   5.857
 4107POPC   C1A54807  21.561  10.363   6.155
 4107POPC   D2A54808  21.665  10.468   6.612
 4107POPC   C3A54809  21.451  10.446   7.000
 4107POPC   C4A54810  21.469  10.610   7.387
 4107POPC   C1B54811  21.105  10.611   6.278
 4107POPC   C2B54812  21.034  10.446   6.697
 4107POPC   C3B54813  20.951  10.402   7.142
 4107POPC   C4B54814  20.941  10.606   7.543
 4108POPC   NC354815  38.365  17.051   5.367
 4108POPC   PO454816  38.604  17.713   5.434
 4108POPC   GL154817  38.470  17.502   5.833
 4108POPC   GL254818  38.177  17.292   5.836
 4108POPC   C1A54819  38.662  17.334   6.229
 4108POPC   D2A54820  38.812  17.387   6.653
 4108POPC   C3A54821  38.587  17.429   7.019
 4108POPC   C4A54822  38.241  17.653   7.198
 4108POPC   C1B54823  38.146  17.415   6.269
 4108POPC   C2B54824  38.179  17.487   6.698
 4108POPC   C3B54825  38.025  17.233   6.964
 4108POPC   C4B54826  37.742  17.381   7.223
 4109POPC   NC354827  11.642  25.747   5.571
 4109POPC   PO454828  11.139  25.548   5.200
 4109POPC   GL154829  11.162  25.269   5.595
 4109POPC   GL254830  11.449  25.266   5.772
 4109POPC   C1A54831  11.017  25.185   6.053
 4109POPC   D2A54832  11.147  25.257   6.499
 4109POPC   C3A54833  10.992  25.100   6.907
 4109POPC   C4A54834  11.073  25.009   7.337
 4109POPC   C1B54835  11.540  25.162   6.204
 4109POPC   C2B54836  11.676  25.264   6.623
 4109POPC   C3B54837  11.512  25.123   7.020
 4109POPC   C4B54838  11.597  25.065   7.417
 4110POPC   NC354839  37.992  37.716   5.381
 4110POPC   PO454840  37.494  37.216   5.310
 4110POPC   GL154841  37.637  37.470   5.655
 4110POPC   GL254842  37.363  37.492   5.842
 4110POPC   C1A54843  37.825  37.695   6.054
 4110POPC   D2A54844  37.815  37.598   6.539
 4110POPC   C3A54845  38.018  37.562   6.977
 4110POPC   C4A54846  37.881  37.761   7.373
 4110POPC   C1B54847  37.380  37.601   6.280
 4110POPC   C2B54848  37.295  37.761   6.682
 4110POPC   C3B54849  37.478  37.839   7.074
 4110POPC   C4B54850  37.379  37.737   7.490
 4111POPC   NC354851  37.769  43.399   5.239
 4111POPC   PO454852  37.778  42.825   5.497
 4111POPC   GL154853  37.989  42.944   5.866
 4111POPC   GL254854  37.619  43.074   5.913
 4111POPC   C1A54855  37.942  43.027   6.328
 4111POPC   D2A54856  37.634  43.161   6.681
 4111POPC   C3A54857  37.649  42.971   7.102
 4111POPC   C4A54858  37.996  42.725   7.321
 4111POPC   C1B54859  37.563  43.383   6.232
 4111POPC   C2B54860  37.285  43.580   6.553
 4111POPC   C3B54861  37.318  43.703   6.971
 4111POPC   C4B54862  37.515  43.449   7.303
 4112POPC   NC354863  42.501  31.687   5.343
 4112POPC   PO454864  42.027  31.283   5.231
 4112POPC   GL154865  42.186  31.456   5.653
 4112POPC   GL254866  42.510  31.318   5.759
 4112POPC   C1A54867  42.175  31.535   6.122
 4112POPC   D2A54868  41.969  31.566   6.545
 4112POPC   C3A54869  42.061  31.440   6.963
 4112POPC   C4A54870  42.075  31.617   7.363
 4112POPC   C1B54871  42.670  31.448   6.191
 4112POPC   C2B54872  42.533  31.807   6.473
 4112POPC   C3B54873  42.406  31.901   6.922
 4112POPC   C4B54874  42.549  31.707   7.319
 4113POPC   NC354875  41.196  41.907   5.348
 4113POPC   PO454876  41.680  41.476   5.219
 4113POPC   GL154877  41.663  41.645   5.664
 4113POPC   GL254878  41.323  41.627   5.797
 4113POPC   C1A54879  41.702  41.549   6.131
 4113POPC   D2A54880  41.881  41.777   6.460
 4113POPC   C3A54881  41.651  41.882   6.839
 4113POPC   C4A54882  41.464  41.624   7.143
 4113POPC   C1B54883  41.207  41.527   6.243
 4113POPC   C2B54884  41.222  41.554   6.688
 4113POPC   C3B54885  41.089  41.326   7.060
 4113POPC   C4B54886  40.947  41.468   7.516
 4114POPC   NC354887  36.534   3.359   5.316
 4114POPC   PO454888  35.767   3.446   5.353
 4114POPC   GL154889  35.941   3.536   5.759
 4114POPC   GL254890  36.265   3.412   5.780
 4114POPC   C1A54891  36.002   3.664   6.176
 4114POPC   D2A54892  36.175   3.606   6.569
 4114POPC   C3A54893  35.954   3.736   6.935
 4114POPC   C4A54894  35.953   3.638   7.364
 4114POPC   C1B54895  36.493   3.623   6.123
 4114POPC   C2B54896  36.589   3.887   6.512
 4114POPC   C3B54897  36.472   3.742   6.946
 4114POPC   C4B54898  36.468   3.542   7.377
 4115POPC   NC354899  21.928   6.473   5.321
 4115POPC   PO454900  22.259   7.070   5.369
 4115POPC   GL154901  22.373   6.813   5.791
 4115POPC   GL254902  22.426   6.410   5.830
 4115POPC   C1A54903  22.239   6.701   6.255
 4115POPC   D2A54904  21.949   6.686   6.642
 4115POPC   C3A54905  22.037   6.948   7.020
 4115POPC   C4A54906  22.212   6.894   7.443
 4115POPC   C1B54907  22.307   6.164   6.226
 4115POPC   C2B54908  22.199   6.211   6.682
 4115POPC   C3B54909  22.227   6.464   7.074
 4115POPC   C4B54910  22.146   6.392   7.526
 4116POPC   NC354911  40.508  35.220   5.364
 4116POPC   PO454912  40.748  35.863   5.554
 4116POPC   GL154913  40.572  35.553   5.864
 4116POPC   GL254914  40.678  35.189   5.844
 4116POPC   C1A54915  40.617  35.390   6.329
 4116POPC   D2A54916  40.762  35.198   6.746
 4116POPC   C3A54917  40.812  35.471   7.129
 4116POPC   C4A54918  40.682  35.754   7.471
 4116POPC   C1B54919  40.429  34.920   6.120
 4116POPC   C2B54920  40.269  34.776   6.485
 4116POPC   C3B54921  40.474  34.772   6.865
 4116POPC   C4B54922  40.498  35.068   7.197
 4117POPC   NC354923   8.519  21.639   5.595
 4117POPC   PO454924   7.900  21.865   5.434
 4117POPC   GL154925   7.912  21.623   5.814
 4117POPC   GL254926   8.119  21.344   5.762
 4117POPC   C1A54927   8.049  21.533   6.233
 4117POPC   D2A54928   8.336  21.479   6.583
 4117POPC   C3A54929   8.123  21.450   6.991
 4117POPC   C4A54930   8.124  21.601   7.432
 4117POPC   C1B54931   8.364  21.137   6.117
 4117POPC   C2B54932   8.432  20.962   6.544
 4117POPC   C3B54933   8.503  21.114   6.962
 4117POPC   C4B54934   8.460  21.111   7.408
 4118POPC   NC354935  11.878  27.187   5.439
 4118POPC   PO454936  12.459  26.748   5.316
 4118POPC   GL154937  12.266  26.922   5.705
 4118POPC   GL254938  12.056  26.639   5.787
 4118POPC   C1A54939  12.044  27.021   6.142
 4118POPC   D2A54940  12.011  26.861   6.597
 4118POPC   C3A54941  11.844  27.080   6.970
 4118POPC   C4A54942  11.952  27.155   7.416
 4118POPC   C1B54943  12.036  26.499   6.213
 4118POPC   C2B54944  11.726  26.427   6.547
 4118POPC   C3B54945  11.691  26.598   6.920
 4118POPC   C4B54946  11.927  26.668   7.279
 4119POPC   NC354947   8.254   4.793   5.389
 4119POPC   PO454948   7.884   5.272   5.089
 4119POPC   GL154949   8.018   5.235   5.603
 4119POPC   GL254950   8.294   5.075   5.815
 4119POPC   C1A54951   7.906   5.257   6.093
 4119POPC   D2A54952   8.125   5.045   6.438
 4119POPC   C3A54953   8.156   5.118   6.866
 4119POPC   C4A54954   8.493   5.033   7.175
 4119POPC   C1B54955   7.975   4.773   6.028
 4119POPC   C2B54956   7.834   4.621   6.424
 4119POPC   C3B54957   7.895   4.620   6.864
 4119POPC   C4B54958   8.132   4.518   7.218
 4120POPC   NC354959  26.236  18.694   5.283
 4120POPC   PO454960  25.947  19.271   5.416
 4120POPC   GL154961  25.937  19.062   5.805
 4120POPC   GL254962  26.200  18.864   5.754
 4120POPC   C1A54963  26.055  19.201   6.212
 4120POPC   D2A54964  26.066  19.087   6.636
 4120POPC   C3A54965  25.999  19.340   6.978
 4120POPC   C4A54966  25.885  19.146   7.363
 4120POPC   C1B54967  26.442  18.668   6.090
 4120POPC   C2B54968  26.332  18.618   6.519
 4120POPC   C3B54969  26.463  18.828   6.863
 4120POPC   C4B54970  26.360  19.024   7.216
 4121POPC   NC354971  13.371  11.189   5.376
 4121POPC   PO454972  13.899  11.586   5.406
 4121POPC   GL154973  13.601  11.540   5.692
 4121POPC   GL254974  13.426  11.810   5.789
 4121POPC   C1A54975  13.557  11.353   6.087
 4121POPC   D2A54976  13.776  11.366   6.455
 4121POPC   C3A54977  13.613  11.177   6.829
 4121POPC   C4A54978  13.541  11.111   7.263
 4121POPC   C1B54979  13.799  11.817   6.122
 4121POPC   C2B54980  13.799  11.851   6.594
 4121POPC   C3B54981  13.580  11.670   6.951
 4121POPC   C4B54982  13.809  11.553   7.315
 4122POPC   NC354983   8.924  10.135   5.422
 4122POPC   PO454984   8.788  10.799   5.542
 4122POPC   GL154985   8.764  10.500   5.811
 4122POPC   GL254986   9.088  10.359   5.847
 4122POPC   C1A54987   8.770  10.597   6.217
 4122POPC   D2A54988   8.855  10.712   6.626
 4122POPC   C3A54989   8.662  10.443   6.939
 4122POPC   C4A54990   8.758  10.537   7.366
 4122POPC   C1B54991   9.254  10.439   6.242
 4122POPC   C2B54992   9.211  10.249   6.642
 4122POPC   C3B54993   9.379  10.237   7.040
 4122POPC   C4B54994   9.261  10.510   7.349
 4123POPC   NC354995   7.289  22.379   5.447
 4123POPC   PO454996   7.168  21.785   5.401
 4123POPC   GL154997   7.449  21.961   5.751
 4123POPC   GL254998   7.709  22.237   5.739
 4123POPC   C1A54999   7.369  22.189   6.157
 4123POPC   D2A55000   7.502  22.009   6.560
 4123POPC   C3A55001   7.425  22.232   6.909
 4123POPC   C4A55002   7.269  22.184   7.292
 4123POPC   C1B55003   7.841  22.002   6.157
 4123POPC   C2B55004   8.018  21.916   6.584
 4123POPC   C3B55005   7.847  21.897   6.994
 4123POPC   C4B55006   7.803  22.235   7.268
 4124POPC   NC355007  35.081  33.078   5.437
 4124POPC   PO455008  35.760  33.073   5.315
 4124POPC   GL155009  35.538  33.165   5.702
 4124POPC   GL255010  35.420  32.847   5.735
 4124POPC   C1A55011  35.309  33.174   6.124
 4124POPC   D2A55012  35.353  32.980   6.546
 4124POPC   C3A55013  35.255  33.177   6.990
 4124POPC   C4A55014  35.401  33.172   7.461
 4124POPC   C1B55015  35.682  32.774   6.091
 4124POPC   C2B55016  35.806  32.734   6.528
 4124POPC   C3B55017  35.710  32.908   6.928
 4124POPC   C4B55018  35.618  32.708   7.300
 4125POPC   NC355019  44.195  20.043   5.452
 4125POPC   PO455020  43.555  19.651   5.584
 4125POPC   GL155021  43.828  19.862   5.812
 4125POPC   GL255022  44.093  19.668   5.763
 4125POPC   C1A55023  44.095  20.005   6.146
 4125POPC   D2A55024  44.120  19.830   6.533
 4125POPC   C3A55025  44.056  20.076   6.908
 4125POPC   C4A55026  43.836  20.048   7.278
 4125POPC   C1B55027  44.283  19.475   6.112
 4125POPC   C2B55028  44.329  19.351   6.539
 4125POPC   C3B55029  44.219  19.565   6.950
 4125POPC   C4B55030  44.077  19.576   7.358
 4126POPC   NC355031  39.249  10.985   5.531
 4126POPC   PO455032  38.849  11.464   5.703
 4126POPC   GL155033  39.241  11.363   5.903
 4126POPC   GL255034  39.218  11.027   6.019
 4126POPC   C1A55035  39.599  11.333   6.215
 4126POPC   D2A55036  39.722  11.016   6.542
 4126POPC   C3A55037  39.445  11.096   6.882
 4126POPC   C4A55038  39.178  11.195   7.213
 4126POPC   C1B55039  39.207  11.063   6.437
 4126POPC   C2B55040  38.931  11.066   6.781
 4126POPC   C3B55041  38.723  10.969   7.161
 4126POPC   C4B55042  38.924  10.962   7.580
 4127POPC   NC355043   9.905  41.907   5.349
 4127POPC   PO455044   9.507  42.393   5.341
 4127POPC   GL155045   9.672  42.405   5.761
 4127POPC   GL255046   9.813  42.084   5.916
 4127POPC   C1A55047   9.665  42.527   6.203
 4127POPC   D2A55048   9.800  42.706   6.624
 4127POPC   C3A55049   9.649  42.574   7.073
 4127POPC   C4A55050   9.672  42.219   7.384
 4127POPC   C1B55051   9.729  42.025   6.390
 4127POPC   C2B55052   9.836  42.094   6.863
 4127POPC   C3B55053  10.059  41.928   7.242
 4127POPC   C4B55054  10.233  42.066   7.634
 4128POPC   NC355055  36.099   0.011   5.520
 4128POPC   PO455056  36.156   0.595   5.388
 4128POPC   GL155057  36.220   0.531   5.813
 4128POPC   GL255058  35.915   0.356   5.875
 4128POPC   C1A55059  36.041   0.769   6.153
 4128POPC   D2A55060  35.819   0.771   6.547
 4128POPC   C3A55061  36.017   0.776   6.940
 4128POPC   C4A55062  36.262   0.514   7.193
 4128POPC   C1B55063  36.018   0.297   6.325
 4128POPC   C2B55064  35.962   0.109   6.720
 4128POPC   C3B55065  35.691   0.344   6.949
 4128POPC   C4B55066  35.680   0.601   7.291
 4129POPC   NC355067  37.717  41.712   5.480
 4129POPC   PO455068  37.749  41.161   5.783
 4129POPC   GL155069  37.856  41.605   5.958
 4129POPC   GL255070  37.529  41.837   5.955
 4129POPC   C1A55071  37.870  41.853   6.340
 4129POPC   D2A55072  37.616  41.868   6.710
 4129POPC   C3A55073  37.757  41.775   7.109
 4129POPC   C4A55074  37.889  41.506   7.429
 4129POPC   C1B55075  37.241  41.887   6.333
 4129POPC   C2B55076  37.101  41.789   6.777
 4129POPC   C3B55077  37.278  41.586   7.152
 4129POPC   C4B55078  37.450  41.761   7.546
 4130POPC   NC355079  10.831  40.838   5.507
 4130POPC   PO455080  10.201  40.862   5.329
 4130POPC   GL155081  10.368  40.751   5.767
 4130POPC   GL255082  10.311  41.067   5.942
 4130POPC   C1A55083  10.687  40.587   6.123
 4130POPC   D2A55084  10.813  40.664   6.589
 4130POPC   C3A55085  10.449  40.743   6.836
 4130POPC   C4A55086  10.303  40.461   7.151
 4130POPC   C1B55087  10.507  41.000   6.353
 4130POPC   C2B55088  10.783  41.171   6.675
 4130POPC   C3B55089  10.991  41.021   7.041
 4130POPC   C4B55090  10.802  40.641   7.192
 4131POPC   NC355091  34.193   9.340   4.970
 4131POPC   PO455092  34.667   9.040   5.374
 4131POPC   GL155093  34.561   8.764   5.751
 4131POPC   GL255094  34.882   8.613   5.777
 4131POPC   C1A55095  34.357   8.975   6.152
 4131POPC   D2A55096  34.537   9.253   6.424
 4131POPC   C3A55097  34.433   9.199   6.842
 4131POPC   C4A55098  34.505   9.200   7.277
 4131POPC   C1B55099  34.850   8.843   6.183
 4131POPC   C2B55100  34.709   8.800   6.598
 4131POPC   C3B55101  34.853   8.956   6.980
 4131POPC   C4B55102  34.755   8.787   7.380
 4132POPC   NC355103  40.529   8.333   5.360
 4132POPC   PO455104  41.066   8.088   5.609
 4132POPC   GL155105  40.785   8.244   5.857
 4132POPC   GL255106  40.720   8.550   5.770
 4132POPC   C1A55107  40.662   8.031   6.214
 4132POPC   D2A55108  40.378   7.813   6.500
 4132POPC   C3A55109  40.541   7.890   6.893
 4132POPC   C4A55110  40.920   7.907   7.112
 4132POPC   C1B55111  40.546   8.571   6.182
 4132POPC   C2B55112  40.511   8.348   6.588
 4132POPC   C3B55113  40.442   8.417   7.005
 4132POPC   C4B55114  40.773   8.588   7.193
 4133POPC   NC355115  22.683   6.058   5.412
 4133POPC   PO455116  22.947   5.400   5.344
 4133POPC   GL155117  23.016   5.662   5.739
 4133POPC   GL255118  23.056   6.042   5.783
 4133POPC   C1A55119  22.965   5.733   6.191
 4133POPC   D2A55120  22.986   6.013   6.548
 4133POPC   C3A55121  23.060   5.836   6.944
 4133POPC   C4A55122  23.139   5.446   7.142
 4133POPC   C1B55123  22.826   6.249   6.123
 4133POPC   C2B55124  22.654   6.406   6.536
 4133POPC   C3B55125  22.665   6.219   6.943
 4133POPC   C4B55126  22.882   6.140   7.314
 4134POPC   NC355127   5.492  23.938   5.384
 4134POPC   PO455128   6.012  23.818   5.420
 4134POPC   GL155129   5.924  23.726   5.859
 4134POPC   GL255130   5.604  23.904   5.889
 4134POPC   C1A55131   6.093  23.641   6.301
 4134POPC   D2A55132   6.319  23.797   6.666
 4134POPC   C3A55133   6.140  23.751   7.090
 4134POPC   C4A55134   5.785  24.037   7.258
 4134POPC   C1B55135   5.592  23.743   6.317
 4134POPC   C2B55136   5.773  23.786   6.741
 4134POPC   C3B55137   5.635  23.577   7.135
 4134POPC   C4B55138   5.637  23.655   7.614
 4135POPC   NC355139   0.593  31.729   5.481
 4135POPC   PO455140   0.263  31.108   5.385
 4135POPC   GL155141   0.399  31.338   5.763
 4135POPC   GL255142   0.164  31.628   5.789
 4135POPC   C1A55143   0.431  31.464   6.231
 4135POPC   D2A55144   0.291  31.621   6.662
 4135POPC   C3A55145   0.530  31.498   7.056
 4135POPC   C4A55146   0.536  31.465   7.516
 4135POPC   C1B55147  44.977  31.286   6.074
 4135POPC   C2B55148   0.116  31.141   6.503
 4135POPC   C3B55149  44.988  31.296   6.898
 4135POPC   C4B55150   0.091  31.284   7.304
 4136POPC   NC355151  14.586  10.777   5.364
 4136POPC   PO455152  14.080  10.368   5.362
 4136POPC   GL155153  14.390  10.434   5.770
 4136POPC   GL255154  14.490  10.771   5.919
 4136POPC   C1A55155  14.648  10.350   6.192
 4136POPC   D2A55156  14.761  10.632   6.582
 4136POPC   C3A55157  14.696  10.525   7.038
 4136POPC   C4A55158  14.521  10.307   7.427
 4136POPC   C1B55159  14.262  10.640   6.318
 4136POPC   C2B55160  14.270  10.542   6.731
 4136POPC   C3B55161  14.274  10.789   7.070
 4136POPC   C4B55162  14.047  11.111   7.195
 4137POPC   NC355163  22.904   7.976   5.534
 4137POPC   PO455164  23.080   7.381   5.231
 4137POPC   GL155165  22.936   7.436   5.688
 4137POPC   GL255166  23.047   7.690   5.912
 4137POPC   C1A55167  22.921   7.210   6.113
 4137POPC   D2A55168  22.742   7.108   6.564
 4137POPC   C3A55169  22.897   7.263   6.977
 4137POPC   C4A55170  22.757   7.287   7.416
 4137POPC   C1B55171  22.746   7.661   6.252
 4137POPC   C2B55172  23.014   7.634   6.602
 4137POPC   C3B55173  23.073   7.751   6.997
 4137POPC   C4B55174  22.655   7.737   7.174
 4138POPC   NC355175  10.997  36.093   5.457
 4138POPC   PO455176  11.623  36.397   5.473
 4138POPC   GL155177  11.462  36.187   5.853
 4138POPC   GL255178  11.374  35.829   5.748
 4138POPC   C1A55179  11.423  36.179   6.325
 4138POPC   D2A55180  11.276  35.923   6.648
 4138POPC   C3A55181  11.336  36.128   7.018
 4138POPC   C4A55182  11.557  36.211   7.368
 4138POPC   C1B55183  11.087  35.879   6.101
 4138POPC   C2B55184  10.852  35.726   6.456
 4138POPC   C3B55185  10.928  35.584   6.865
 4138POPC   C4B55186  11.116  35.721   7.240
 4139POPC   NC355187  13.715  33.407   5.313
 4139POPC   PO455188  13.535  32.816   5.602
 4139POPC   GL155189  13.412  33.135   5.818
 4139POPC   GL255190  13.792  33.237   5.783
 4139POPC   C1A55191  13.288  33.035   6.245
 4139POPC   D2A55192  13.471  33.187   6.631
 4139POPC   C3A55193  13.693  32.944   6.923
 4139POPC   C4A55194  13.588  32.825   7.345
 4139POPC   C1B55195  13.736  33.293   6.187
 4139POPC   C2B55196  13.849  33.520   6.509
 4139POPC   C3B55197  13.908  33.409   6.884
 4139POPC   C4B55198  14.012  33.620   7.221
 4140POPC   NC355199  29.680  17.318   5.058
 4140POPC   PO455200  30.011  17.694   5.546
 4140POPC   GL155201  29.964  17.580   5.977
 4140POPC   GL255202  29.616  17.578   6.064
 4140POPC   C1A55203  29.955  17.526   6.440
 4140POPC   D2A55204  29.838  17.280   6.787
 4140POPC   C3A55205  29.944  17.489   7.178
 4140POPC   C4A55206  30.147  17.360   7.577
 4140POPC   C1B55207  29.779  17.117   6.185
 4140POPC   C2B55208  29.604  16.828   6.475
 4140POPC   C3B55209  29.451  16.885   6.875
 4140POPC   C4B55210  29.682  17.034   7.216
 4141POPC   NC355211  37.413  21.146   5.456
 4141POPC   PO455212  37.876  21.615   5.450
 4141POPC   GL155213  37.769  21.301   5.795
 4141POPC   GL255214  37.418  21.413   5.898
 4141POPC   C1A55215  37.659  21.033   6.145
 4141POPC   D2A55216  37.336  21.129   6.446
 4141POPC   C3A55217  37.472  21.157   6.856
 4141POPC   C4A55218  37.548  21.327   7.273
 4141POPC   C1B55219  37.631  21.538   6.276
 4141POPC   C2B55220  37.785  21.578   6.678
 4141POPC   C3B55221  37.726  21.805   7.039
 4141POPC   C4B55222  37.902  21.678   7.386
 4142POPC   NC355223   3.638  34.279   5.442
 4142POPC   PO455224   3.888  34.958   5.514
 4142POPC   GL155225   3.679  34.650   5.806
 4142POPC   GL255226   3.348  34.752   5.926
 4142POPC   C1A55227   3.630  34.374   6.154
 4142POPC   D2A55228   3.741  34.499   6.557
 4142POPC   C3A55229   3.526  34.257   6.845
 4142POPC   C4A55230   3.402  34.388   7.234
 4142POPC   C1B55231   3.272  34.699   6.376
 4142POPC   C2B55232   3.240  34.678   6.821
 4142POPC   C3B55233   3.263  34.915   7.209
 4142POPC   C4B55234   3.260  35.056   7.651
 4143POPC   NC355235  38.923  34.637   5.422
 4143POPC   PO455236  39.473  34.235   5.189
 4143POPC   GL155237  39.394  34.439   5.630
 4143POPC   GL255238  39.538  34.796   5.667
 4143POPC   C1A55239  39.325  34.504   6.105
 4143POPC   D2A55240  39.376  34.475   6.583
 4143POPC   C3A55241  39.087  34.632   6.919
 4143POPC   C4A55242  38.856  34.369   7.241
 4143POPC   C1B55243  39.390  35.009   6.050
 4143POPC   C2B55244  39.257  34.972   6.459
 4143POPC   C3B55245  39.432  35.030   6.880
 4143POPC   C4B55246  39.506  34.796   7.222
 4144POPC   NC355247  28.591   5.642   5.532
 4144POPC   PO455248  28.474   6.303   5.447
 4144POPC   GL155249  28.238   6.043   5.747
 4144POPC   GL255250  28.548   6.024   5.930
 4144POPC   C1A55251  28.146   5.781   6.171
 4144POPC   D2A55252  28.322   5.628   6.603
 4144POPC   C3A55253  28.221   5.805   7.022
 4144POPC   C4A55254  28.381   5.858   7.455
 4144POPC   C1B55255  28.696   5.740   6.284
 4144POPC   C2B55256  28.832   5.518   6.680
 4144POPC   C3B55257  28.743   5.728   7.056
 4144POPC   C4B55258  28.578   6.163   7.041
 4145POPC   NC355259  30.020  26.049   5.353
 4145POPC   PO455260  30.357  25.629   5.519
 4145POPC   GL155261  30.094  25.866   5.860
 4145POPC   GL255262  29.831  26.128   5.826
 4145POPC   C1A55263  29.972  25.986   6.303
 4145POPC   D2A55264  29.810  25.842   6.695
 4145POPC   C3A55265  29.920  26.048   7.089
 4145POPC   C4A55266  29.660  26.174   7.475
 4145POPC   C1B55267  29.563  26.301   6.168
 4145POPC   C2B55268  29.575  26.339   6.634
 4145POPC   C3B55269  29.706  26.499   7.057
 4145POPC   C4B55270  30.076  26.453   7.401
 4146POPC   NC355271  21.015  37.947   5.552
 4146POPC   PO455272  20.595  37.376   5.546
 4146POPC   GL155273  20.547  37.333   5.974
 4146POPC   GL255274  20.647  37.716   5.953
 4146POPC   C1A55275  20.587  37.475   6.406
 4146POPC   D2A55276  20.951  37.707   6.559
 4146POPC   C3A55277  20.935  37.850   6.981
 4146POPC   C4A55278  20.709  37.606   7.243
 4146POPC   C1B55279  20.608  37.995   6.321
 4146POPC   C2B55280  20.480  37.844   6.746
 4146POPC   C3B55281  20.238  37.801   7.108
 4146POPC   C4B55282  20.123  38.021   7.460
 4147POPC   NC355283   4.877   6.873   5.508
 4147POPC   PO455284   5.342   6.423   5.558
 4147POPC   GL155285   5.286   6.706   5.897
 4147POPC   GL255286   4.965   6.568   5.907
 4147POPC   C1A55287   5.109   6.821   6.326
 4147POPC   D2A55288   5.090   7.024   6.737
 4147POPC   C3A55289   5.198   6.824   7.099
 4147POPC   C4A55290   4.882   6.823   7.377
 4147POPC   C1B55291   4.986   6.295   6.250
 4147POPC   C2B55292   4.747   6.305   6.623
 4147POPC   C3B55293   4.828   6.473   6.993
 4147POPC   C4B55294   5.054   6.350   7.310
 4148POPC   NC355295  38.767  30.186   5.456
 4148POPC   PO455296  39.331  29.899   5.303
 4148POPC   GL155297  39.142  29.917   5.714
 4148POPC   GL255298  39.427  30.089   5.816
 4148POPC   C1A55299  39.062  29.720   6.141
 4148POPC   D2A55300  38.904  29.595   6.582
 4148POPC   C3A55301  39.090  29.759   6.994
 4148POPC   C4A55302  39.075  30.137   7.290
 4148POPC   C1B55303  39.552  29.851   6.189
 4148POPC   C2B55304  39.402  29.836   6.592
 4148POPC   C3B55305  39.490  30.078   6.977
 4148POPC   C4B55306  39.735  30.083   7.343
 4149POPC   NC355307   3.299   3.704   5.482
 4149POPC   PO455308   3.807   3.291   5.551
 4149POPC   GL155309   3.677   3.560   5.838
 4149POPC   GL255310   3.355   3.398   5.887
 4149POPC   C1A55311   3.806   3.615   6.261
 4149POPC   D2A55312   3.598   3.508   6.647
 4149POPC   C3A55313   3.821   3.606   7.025
 4149POPC   C4A55314   3.623   3.475   7.424
 4149POPC   C1B55315   3.301   3.708   6.203
 4149POPC   C2B55316   3.151   3.759   6.625
 4149POPC   C3B55317   3.327   3.767   7.061
 4149POPC   C4B55318   3.257   3.879   7.488
 4150POPC   NC355319  10.065  28.427   5.404
 4150POPC   PO455320  10.648  28.129   5.355
 4150POPC   GL155321  10.510  28.478   5.674
 4150POPC   GL255322  10.795  28.541   5.870
 4150POPC   C1A55323  10.225  28.546   6.088
 4150POPC   D2A55324  10.195  28.265   6.508
 4150POPC   C3A55325  10.178  28.444   6.957
 4150POPC   C4A55326  10.228  28.338   7.422
 4150POPC   C1B55327  10.623  28.271   6.239
 4150POPC   C2B55328  10.591  27.999   6.651
 4150POPC   C3B55329  10.583  28.144   7.081
 4150POPC   C4B55330  10.731  28.156   7.513
 4151POPC   NC355331  33.417  17.523   5.241
 4151POPC   PO455332  34.035  17.360   5.496
 4151POPC   GL155333  33.693  17.596   5.706
 4151POPC   GL255334  33.862  17.885   5.906
 4151POPC   C1A55335  33.515  17.552   6.131
 4151POPC   D2A55336  33.623  17.781   6.534
 4151POPC   C3A55337  33.880  17.575   6.845
 4151POPC   C4A55338  34.110  17.725   7.212
 4151POPC   C1B55339  34.021  17.507   6.138
 4151POPC   C2B55340  33.998  17.180   6.440
 4151POPC   C3B55341  34.132  17.134   6.873
 4151POPC   C4B55342  34.131  17.182   7.303
 4152POPC   NC355343  12.770   0.924   5.444
 4152POPC   PO455344  12.651   1.575   5.563
 4152POPC   GL155345  12.940   1.498   5.915
 4152POPC   GL255346  13.014   1.151   5.870
 4152POPC   C1A55347  12.887   1.328   6.339
 4152POPC   D2A55348  12.540   1.212   6.619
 4152POPC   C3A55349  12.695   1.188   7.046
 4152POPC   C4A55350  13.067   1.382   7.172
 4152POPC   C1B55351  13.111   0.866   6.245
 4152POPC   C2B55352  13.004   0.940   6.675
 4152POPC   C3B55353  13.238   0.928   7.033
 4152POPC   C4B55354  13.302   0.647   7.354
 4153POPC   NC355355   2.572  30.280   5.426
 4153POPC   PO455356   3.069  29.885   5.299
 4153POPC   GL155357   2.880  29.963   5.755
 4153POPC   GL255358   2.570  30.155   5.897
 4153POPC   C1A55359   2.816  29.874   6.229
 4153POPC   D2A55360   2.999  29.748   6.613
 4153POPC   C3A55361   2.822  29.733   6.996
 4153POPC   C4A55362   3.017  29.936   7.295
 4153POPC   C1B55363   2.557  30.292   6.311
 4153POPC   C2B55364   2.573  30.088   6.703
 4153POPC   C3B55365   2.564  30.155   7.155
 4153POPC   C4B55366   2.460  30.499   7.413
 4154POPC   NC355367  43.578   0.394   5.472
 4154POPC   PO455368  44.248   0.338   5.379
 4154POPC   GL155369  44.012   0.390   5.772
 4154POPC   GL255370  44.065   0.099   5.969
 4154POPC   C1A55371  43.889   0.557   6.203
 4154POPC   D2A55372  43.747   0.720   6.607
 4154POPC   C3A55373  44.045   0.598   6.908
 4154POPC   C4A55374  44.285   0.502   7.263
 4154POPC   C1B55375  43.599   0.172   6.075
 4154POPC   C2B55376  43.400   0.194   6.470
 4154POPC   C3B55377  43.569   0.297   6.866
 4154POPC   C4B55378  43.850   0.232   7.182
 4155POPC   NC355379  33.391   5.645   5.057
 4155POPC   PO455380  33.863   6.015   5.368
 4155POPC   GL155381  33.983   5.982   5.839
 4155POPC   GL255382  34.180   5.651   5.854
 4155POPC   C1A55383  33.710   6.009   6.250
 4155POPC   D2A55384  33.509   5.896   6.678
 4155POPC   C3A55385  33.730   5.930   7.064
 4155POPC   C4A55386  33.607   5.847   7.496
 4155POPC   C1B55387  34.054   5.620   6.262
 4155POPC   C2B55388  34.025   5.854   6.621
 4155POPC   C3B55389  34.165   5.681   6.971
 4155POPC   C4B55390  34.026   5.509   7.320
 4156POPC   NC355391  11.973   2.561   5.401
 4156POPC   PO455392  12.270   3.044   5.655
 4156POPC   GL155393  11.982   2.691   5.897
 4156POPC   GL255394  11.762   2.347   5.809
 4156POPC   C1A55395  11.831   2.771   6.300
 4156POPC   D2A55396  12.052   2.971   6.597
 4156POPC   C3A55397  11.833   3.089   6.971
 4156POPC   C4A55398  12.008   3.028   7.362
 4156POPC   C1B55399  11.822   2.191   6.225
 4156POPC   C2B55400  12.073   2.412   6.578
 4156POPC   C3B55401  12.114   2.626   6.978
 4156POPC   C4B55402  11.895   2.524   7.353
 4157POPC   NC355403  21.749   9.231   5.550
 4157POPC   PO455404  21.391   8.727   5.256
 4157POPC   GL155405  21.426   8.789   5.750
 4157POPC   GL255406  21.433   9.118   5.947
 4157POPC   C1A55407  21.354   8.725   6.225
 4157POPC   D2A55408  21.467   8.937   6.611
 4157POPC   C3A55409  21.592   8.679   6.957
 4157POPC   C4A55410  21.356   8.808   7.290
 4157POPC   C1B55411  21.142   9.213   6.287
 4157POPC   C2B55412  21.095   9.356   6.725
 4157POPC   C3B55413  21.305   9.271   7.098
 4157POPC   C4B55414  21.728   9.148   7.060
 4158POPC   NC355415  44.929  20.083   5.541
 4158POPC   PO455416  44.453  19.627   5.378
 4158POPC   GL155417  44.601  19.746   5.800
 4158POPC   GL255418  44.937  19.656   5.814
 4158POPC   C1A55419  44.679  19.780   6.269
 4158POPC   D2A55420  44.942  19.852   6.646
 4158POPC   C3A55421  44.689  19.870   7.021
 4158POPC   C4A55422  44.349  19.995   7.338
 4158POPC   C1B55423   0.172  19.585   6.199
 4158POPC   C2B55424   0.348  19.519   6.590
 4158POPC   C3B55425   0.134  19.498   6.986
 4158POPC   C4B55426   0.079  19.465   7.426
 4159POPC   NC355427  19.611   9.929   5.422
 4159POPC   PO455428  19.911   9.370   5.455
 4159POPC   GL155429  20.024   9.703   5.706
 4159POPC   GL255430  20.243   9.531   5.928
 4159POPC   C1A55431  19.848   9.861   6.086
 4159POPC   D2A55432  19.666   9.606   6.394
 4159POPC   C3A55433  19.830   9.620   6.815
 4159POPC   C4A55434  19.682   9.768   7.224
 4159POPC   C1B55435  20.191   9.570   6.364
 4159POPC   C2B55436  20.319   9.845   6.707
 4159POPC   C3B55437  20.204   9.836   7.129
 4159POPC   C4B55438  20.125   9.416   7.246
 4160POPC   NC355439  24.162  25.416   5.500
 4160POPC   PO455440  24.687  25.017   5.330
 4160POPC   GL155441  24.549  25.183   5.761
 4160POPC   GL255442  24.505  25.556   5.858
 4160POPC   C1A55443  24.604  25.188   6.236
 4160POPC   D2A55444  24.517  25.073   6.689
 4160POPC   C3A55445  24.558  25.273   7.110
 4160POPC   C4A55446  24.363  25.197   7.517
 4160POPC   C1B55447  24.294  25.596   6.277
 4160POPC   C2B55448  24.394  25.582   6.722
 4160POPC   C3B55449  24.185  25.610   7.116
 4160POPC   C4B55450  23.906  25.484   7.467
 4161POPC   NC355451  19.601  10.699   5.533
 4161POPC   PO455452  20.054  10.150   5.448
 4161POPC   GL155453  20.027  10.470   5.725
 4161POPC   GL255454  19.716  10.298   5.821
 4161POPC   C1A55455  20.015  10.665   6.138
 4161POPC   D2A55456  20.129  10.499   6.536
 4161POPC   C3A55457  19.941  10.654   6.931
 4161POPC   C4A55458  19.963  10.631   7.392
 4161POPC   C1B55459  19.611  10.319   6.237
 4161POPC   C2B55460  19.642  10.078   6.609
 4161POPC   C3B55461  19.585  10.231   7.023
 4161POPC   C4B55462  19.455  10.592   7.278
 4162POPC   NC355463  21.536  43.495   5.367
 4162POPC   PO455464  21.525  42.836   5.457
 4162POPC   GL155465  21.393  43.047   5.821
 4162POPC   GL255466  21.485  43.414   5.857
 4162POPC   C1A55467  21.566  43.046   6.242
 4162POPC   D2A55468  21.713  43.215   6.644
 4162POPC   C3A55469  21.572  42.963   6.975
 4162POPC   C4A55470  21.257  42.992   7.253
 4162POPC   C1B55471  21.474  43.553   6.292
 4162POPC   C2B55472  21.346  43.567   6.723
 4162POPC   C3B55473  21.433  43.449   7.121
 4162POPC   C4B55474  21.374  43.428   7.562
 4163POPC   NC355475  14.826  26.221   5.403
 4163POPC   PO455476  14.132  25.991   5.363
 4163POPC   GL155477  14.243  26.074   5.767
 4163POPC   GL255478  14.593  26.071   5.823
 4163POPC   C1A55479  14.013  26.025   6.136
 4163POPC   D2A55480  14.063  26.235   6.505
 4163POPC   C3A55481  14.374  26.065   6.789
 4163POPC   C4A55482  14.495  26.049   7.236
 4163POPC   C1B55483  14.856  26.259   6.103
 4163POPC   C2B55484  14.808  26.134   6.503
 4163POPC   C3B55485  14.837  26.290   6.907
 4163POPC   C4B55486  15.009  26.081   7.241
 4164POPC   NC355487  12.839   4.744   5.393
 4164POPC   PO455488  12.801   5.394   5.545
 4164POPC   GL155489  12.523   5.225   5.909
 4164POPC   GL255490  12.476   4.834   5.852
 4164POPC   C1A55491  12.548   5.280   6.387
 4164POPC   D2A55492  12.898   5.351   6.688
 4164POPC   C3A55493  13.103   4.996   6.896
 4164POPC   C4A55494  13.163   4.964   7.343
 4164POPC   C1B55495  12.290   4.813   6.284
 4164POPC   C2B55496  12.437   4.893   6.741
 4164POPC   C3B55497  12.649   5.111   7.079
 4164POPC   C4B55498  12.683   5.016   7.539
 4165POPC   NC355499   5.365  34.691   5.412
 4165POPC   PO455500   4.678  34.507   5.388
 4165POPC   GL155501   4.827  34.370   5.813
 4165POPC   GL255502   5.168  34.462   5.838
 4165POPC   C1A55503   4.868  34.586   6.235
 4165POPC   D2A55504   4.770  34.795   6.641
 4165POPC   C3A55505   4.877  34.506   6.963
 4165POPC   C4A55506   4.696  34.363   7.330
 4165POPC   C1B55507   5.417  34.560   6.206
 4165POPC   C2B55508   5.301  34.523   6.641
 4165POPC   C3B55509   5.380  34.364   7.046
 4165POPC   C4B55510   5.198  34.411   7.410
 4166POPC   NC355511  12.212  43.914   5.223
 4166POPC   PO455512  12.846  43.791   5.311
 4166POPC   GL155513  12.991  43.751   5.718
 4166POPC   GL255514  12.684  43.905   5.857
 4166POPC   C1A55515  13.056  43.731   6.162
 4166POPC   D2A55516  12.825  43.852   6.556
 4166POPC   C3A55517  13.046  43.766   6.957
 4166POPC   C4A55518  13.014  43.914   7.363
 4166POPC   C1B55519  12.866  44.216   6.164
 4166POPC   C2B55520  12.960  44.342   6.616
 4166POPC   C3B55521  12.751  44.169   6.996
 4166POPC   C4B55522  12.575  44.120   7.442
 4167POPC   NC355523  27.368   3.803   5.249
 4167POPC   PO455524  26.824   3.513   5.476
 4167POPC   GL155525  26.719   3.289   5.849
 4167POPC   GL255526  26.727   3.595   6.068
 4167POPC   C1A55527  26.869   3.133   6.259
 4167POPC   D2A55528  26.848   3.427   6.583
 4167POPC   C3A55529  27.063   3.378   6.945
 4167POPC   C4A55530  26.752   3.344   7.221
 4167POPC   C1B55531  26.965   3.872   6.373
 4167POPC   C2B55532  27.025   3.877   6.842
 4167POPC   C3B55533  26.701   3.852   7.167
 4167POPC   C4B55534  26.562   4.124   7.541
 4168POPC   NC355535  39.353  44.482   5.501
 4168POPC   PO455536  39.130   0.086   5.454
 4168POPC   GL155537  39.296  44.980   5.896
 4168POPC   GL255538  39.498  44.691   5.943
 4168POPC   C1A55539  39.364  44.924   6.365
 4168POPC   D2A55540  39.144  44.709   6.664
 4168POPC   C3A55541  39.490  44.626   6.912
 4168POPC   C4A55542  39.461  44.740   7.306
 4168POPC   C1B55543  39.080  44.532   6.157
 4168POPC   C2B55544  39.028  44.227   6.548
 4168POPC   C3B55545  39.137  44.287   7.003
 4168POPC   C4B55546  39.128  44.388   7.473
 4169POPC   NC355547   5.048  15.790   5.411
 4169POPC   PO455548   5.611  15.461   5.178
 4169POPC   GL155549   5.636  15.677   5.680
 4169POPC   GL255550   5.338  15.869   5.799
 4169POPC   C1A55551   5.607  15.800   6.188
 4169POPC   D2A55552   5.314  15.958   6.525
 4169POPC   C3A55553   5.420  15.934   6.970
 4169POPC   C4A55554   5.258  15.674   7.340
 4169POPC   C1B55555   4.996  16.028   6.083
 4169POPC   C2B55556   4.840  16.157   6.494
 4169POPC   C3B55557   4.889  15.927   6.882
 4169POPC   C4B55558   4.986  16.085   7.266
 4170POPC   NC355559  31.949   3.555   5.498
 4170POPC   PO455560  32.386   3.149   5.152
 4170POPC   GL155561  32.459   3.380   5.609
 4170POPC   GL255562  32.385   3.724   5.678
 4170POPC   C1A55563  32.401   3.421   6.096
 4170POPC   D2A55564  32.459   3.349   6.554
 4170POPC   C3A55565  32.223   3.472   6.907
 4170POPC   C4A55566  32.232   3.353   7.300
 4170POPC   C1B55567  32.075   3.809   6.058
 4170POPC   C2B55568  32.137   3.760   6.487
 4170POPC   C3B55569  31.888   3.838   6.858
 4170POPC   C4B55570  31.962   3.784   7.272
 4171POPC   NC355571  37.280   3.832   5.622
 4171POPC   PO455572  36.579   3.824   5.399
 4171POPC   GL155573  36.797   3.633   5.730
 4171POPC   GL255574  36.750   3.262   5.757
 4171POPC   C1A55575  36.966   3.783   6.173
 4171POPC   D2A55576  37.140   3.911   6.552
 4171POPC   C3A55577  36.993   3.655   6.876
 4171POPC   C4A55578  36.866   3.846   7.236
 4171POPC   C1B55579  36.580   3.126   6.127
 4171POPC   C2B55580  36.646   3.365   6.529
 4171POPC   C3B55581  36.653   3.264   6.955
 4171POPC   C4B55582  36.907   3.270   7.271
 4172POPC   NC355583  44.863  30.377   5.328
 4172POPC   PO455584  44.412  30.839   5.391
 4172POPC   GL155585  44.594  30.666   5.738
 4172POPC   GL255586  44.881  30.863   5.781
 4172POPC   C1A55587  44.509  30.493   6.152
 4172POPC   D2A55588  44.387  30.731   6.528
 4172POPC   C3A55589  44.483  30.545   6.919
 4172POPC   C4A55590  44.612  30.577   7.290
 4172POPC   C1B55591  44.909  30.778   6.201
 4172POPC   C2B55592  44.876  30.580   6.567
 4172POPC   C3B55593  44.957  30.764   6.940
 4172POPC   C4B55594   0.111  30.635   7.317
 4173POPC   NC355595  37.426   0.034   5.539
 4173POPC   PO455596  38.162  44.835   5.469
 4173POPC   GL155597  37.866  44.794   5.790
 4173POPC   GL255598  37.537  44.791   5.970
 4173POPC   C1A55599  37.986  44.785   6.211
 4173POPC   D2A55600  37.716  44.620   6.493
 4173POPC   C3A55601  37.713  44.884   6.838
 4173POPC   C4A55602  37.930  44.793   7.218
 4173POPC   C1B55603  37.254  44.562   6.242
 4173POPC   C2B55604  37.235  44.485   6.670
 4173POPC   C3B55605  37.487  44.439   7.039
 4173POPC   C4B55606  37.427  44.804   7.249
 4174POPC   NC355607  28.823  35.307   5.413
 4174POPC   PO455608  28.162  35.559   5.425
 4174POPC   GL155609  28.445  35.422   5.739
 4174POPC   GL255610  28.487  35.073   5.721
 4174POPC   C1A55611  28.413  35.358   6.172
 4174POPC   D2A55612  28.332  35.199   6.571
 4174POPC   C3A55613  28.287  35.489   6.922
 4174POPC   C4A55614  28.467  35.516   7.334
 4174POPC   C1B55615  28.626  34.902   6.113
 4174POPC   C2B55616  28.700  34.836   6.554
 4174POPC   C3B55617  28.662  35.071   6.946
 4174POPC   C4B55618  28.276  35.063   7.201
 4175POPC   NC355619  41.904  24.778   5.475
 4175POPC   PO455620  41.531  24.208   5.540
 4175POPC   GL155621  41.346  24.566   5.777
 4175POPC   GL255622  41.641  24.682   5.908
 4175POPC   C1A55623  41.226  24.641   6.198
 4175POPC   D2A55624  41.589  24.575   6.506
 4175POPC   C3A55625  41.396  24.441   6.903
 4175POPC   C4A55626  41.248  24.676   7.242
 4175POPC   C1B55627  41.845  24.304   6.120
 4175POPC   C2B55628  42.066  24.259   6.516
 4175POPC   C3B55629  41.924  24.420   6.906
 4175POPC   C4B55630  41.751  24.585   7.283
 4176POPC   NC355631   5.163  38.048   5.514
 4176POPC   PO455632   4.963  38.754   5.499
 4176POPC   GL155633   5.143  38.463   5.808
 4176POPC   GL255634   4.982  38.201   5.974
 4176POPC   C1A55635   5.406  38.468   6.199
 4176POPC   D2A55636   5.541  38.738   6.534
 4176POPC   C3A55637   5.477  38.522   6.921
 4176POPC   C4A55638   5.320  38.587   7.324
 4176POPC   C1B55639   4.908  38.643   6.202
 4176POPC   C2B55640   5.060  38.585   6.607
 4176POPC   C3B55641   4.970  38.419   6.996
 4176POPC   C4B55642   4.779  38.748   7.214
 4177POPC   NC355643  35.879  19.261   5.668
 4177POPC   PO455644  36.239  19.827   5.435
 4177POPC   GL155645  36.175  19.967   5.860
 4177POPC   GL255646  35.995  19.690   5.881
 4177POPC   C1A55647  35.940  20.012   6.251
 4177POPC   D2A55648  35.843  20.083   6.655
 4177POPC   C3A55649  36.016  19.766   6.866
 4177POPC   C4A55650  36.218  19.807   7.252
 4177POPC   C1B55651  36.286  19.627   6.227
 4177POPC   C2B55652  36.208  19.355   6.556
 4177POPC   C3B55653  36.199  19.307   6.949
 4177POPC   C4B55654  36.463  19.358   7.238
 4178POPC   NC355655   4.249   7.790   5.265
 4178POPC   PO455656   4.642   7.274   5.435
 4178POPC   GL155657   4.378   7.243   5.826
 4178POPC   GL255658   4.218   7.535   5.753
 4178POPC   C1A55659   4.111   7.368   6.206
 4178POPC   D2A55660   4.104   7.540   6.586
 4178POPC   C3A55661   4.132   7.306   6.954
 4178POPC   C4A55662   4.296   7.454   7.304
 4178POPC   C1B55663   4.564   7.618   6.096
 4178POPC   C2B55664   4.615   7.785   6.517
 4178POPC   C3B55665   4.637   7.820   6.969
 4178POPC   C4B55666   4.776   7.656   7.362
 4179POPC   NC355667   7.278  30.470   5.474
 4179POPC   PO455668   7.566  30.939   5.275
 4179POPC   GL155669   7.661  30.725   5.670
 4179POPC   GL255670   7.508  30.995   5.875
 4179POPC   C1A55671   7.592  30.527   6.075
 4179POPC   D2A55672   7.786  30.535   6.480
 4179POPC   C3A55673   7.510  30.632   6.814
 4179POPC   C4A55674   7.303  30.450   7.184
 4179POPC   C1B55675   7.526  30.994   6.361
 4179POPC   C2B55676   7.337  31.188   6.729
 4179POPC   C3B55677   7.205  30.983   7.111
 4179POPC   C4B55678   6.933  30.762   7.432
 4180POPC   NC355679  39.158   8.651   5.059
 4180POPC   PO455680  39.274   8.035   5.324
 4180POPC   GL155681  39.368   8.060   5.756
 4180POPC   GL255682  39.369   8.400   5.830
 4180POPC   C1A55683  39.146   8.099   6.155
 4180POPC   D2A55684  39.214   8.318   6.539
 4180POPC   C3A55685  39.098   8.065   6.909
 4180POPC   C4A55686  39.151   8.253   7.324
 4180POPC   C1B55687  39.510   8.695   6.102
 4180POPC   C2B55688  39.638   8.631   6.518
 4180POPC   C3B55689  39.449   8.612   6.947
 4180POPC   C4B55690  39.594   8.494   7.369
 4181POPC   NC355691  13.617  10.354   5.282
 4181POPC   PO455692  13.256  10.850   5.661
 4181POPC   GL155693  13.427  10.425   5.821
 4181POPC   GL255694  13.783  10.284   5.769
 4181POPC   C1A55695  13.576  10.229   6.223
 4181POPC   D2A55696  13.854  10.286   6.593
 4181POPC   C3A55697  13.597  10.215   6.950
 4181POPC   C4A55698  13.348  10.467   7.204
 4181POPC   C1B55699  13.837  10.647   6.046
 4181POPC   C2B55700  13.757  10.786   6.482
 4181POPC   C3B55701  13.783  10.706   6.949
 4181POPC   C4B55702  13.815  10.693   7.422
 4182POPC   NC355703  28.820  19.780   5.285
 4182POPC   PO455704  29.408  20.147   5.258
 4182POPC   GL155705  29.215  19.937   5.676
 4182POPC   GL255706  28.856  19.945   5.764
 4182POPC   C1A55707  29.238  19.764   6.142
 4182POPC   D2A55708  29.006  19.670   6.569
 4182POPC   C3A55709  29.249  19.617   6.975
 4182POPC   C4A55710  29.316  19.302   7.303
 4182POPC   C1B55711  28.738  19.868   6.167
 4182POPC   C2B55712  28.665  20.047   6.562
 4182POPC   C3B55713  28.851  19.956   6.962
 4182POPC   C4B55714  28.771  20.179   7.314
 4183POPC   NC355715  42.896   2.784   5.408
 4183POPC   PO455716  43.495   2.606   5.572
 4183POPC   GL155717  43.343   2.701   5.940
 4183POPC   GL255718  43.073   2.920   5.863
 4183POPC   C1A55719  43.218   2.645   6.350
 4183POPC   D2A55720  42.824   2.551   6.557
 4183POPC   C3A55721  42.978   2.555   6.981
 4183POPC   C4A55722  43.416   2.511   7.193
 4183POPC   C1B55723  42.923   3.046   6.260
 4183POPC   C2B55724  43.029   2.996   6.717
 4183POPC   C3B55725  43.202   3.000   7.154
 4183POPC   C4B55726  42.999   3.128   7.588
 4184POPC   NC355727  29.098  29.658   5.252
 4184POPC   PO455728  29.423  30.182   5.304
 4184POPC   GL155729  29.321  29.873   5.667
 4184POPC   GL255730  29.015  29.670   5.767
 4184POPC   C1A55731  29.242  29.982   6.123
 4184POPC   D2A55732  29.318  30.150   6.557
 4184POPC   C3A55733  29.182  29.987   6.943
 4184POPC   C4A55734  28.790  30.120   7.131
 4184POPC   C1B55735  28.877  29.634   6.227
 4184POPC   C2B55736  28.805  29.614   6.684
 4184POPC   C3B55737  28.639  29.536   7.091
 4184POPC   C4B55738  28.664  29.481   7.568
 4185POPC   NC355739  27.424  32.171   5.402
 4185POPC   PO455740  27.741  32.801   5.318
 4185POPC   GL155741  27.709  32.446   5.712
 4185POPC   GL255742  27.867  32.164   5.781
 4185POPC   C1A55743  27.697  32.496   6.183
 4185POPC   D2A55744  27.858  32.608   6.615
 4185POPC   C3A55745  27.723  32.465   7.029
 4185POPC   C4A55746  27.331  32.261   7.181
 4185POPC   C1B55747  27.633  31.998   6.138
 4185POPC   C2B55748  27.638  32.147   6.581
 4185POPC   C3B55749  27.768  31.965   6.980
 4185POPC   C4B55750  27.699  31.616   7.220
 4186POPC   NC355751  24.188  30.634   5.513
 4186POPC   PO455752  23.637  30.787   5.253
 4186POPC   GL155753  23.559  30.819   5.701
 4186POPC   GL255754  23.856  30.819   5.859
 4186POPC   C1A55755  23.409  30.625   6.087
 4186POPC   D2A55756  23.446  30.440   6.518
 4186POPC   C3A55757  23.536  30.723   6.868
 4186POPC   C4A55758  23.768  30.522   7.196
 4186POPC   C1B55759  23.880  30.711   6.278
 4186POPC   C2B55760  23.986  30.895   6.642
 4186POPC   C3B55761  24.176  30.768   6.990
 4186POPC   C4B55762  24.046  30.903   7.382
 4187POPC   NC355763  13.831  24.673   5.131
 4187POPC   PO455764  13.283  24.375   5.442
 4187POPC   GL155765  13.488  24.372   5.859
 4187POPC   GL255766  13.844  24.227   5.909
 4187POPC   C1A55767  13.426  24.245   6.283
 4187POPC   D2A55768  13.704  24.240   6.626
 4187POPC   C3A55769  13.468  24.338   6.993
 4187POPC   C4A55770  13.464  24.717   7.191
 4187POPC   C1B55771  13.883  24.540   6.204
 4187POPC   C2B55772  14.078  24.641   6.590
 4187POPC   C3B55773  13.906  24.598   6.971
 4187POPC   C4B55774  13.971  24.783   7.347
 4188POPC   NC355775  24.129   1.939   5.453
 4188POPC   PO455776  24.433   2.435   5.172
 4188POPC   GL155777  24.520   2.192   5.634
 4188POPC   GL255778  24.715   1.860   5.699
 4188POPC   C1A55779  24.438   2.148   6.102
 4188POPC   D2A55780  24.230   2.197   6.516
 4188POPC   C3A55781  24.469   2.091   6.853
 4188POPC   C4A55782  24.597   1.945   7.267
 4188POPC   C1B55783  24.471   1.630   6.058
 4188POPC   C2B55784  24.301   1.680   6.472
 4188POPC   C3B55785  24.423   1.575   6.876
 4188POPC   C4B55786  24.265   1.554   7.264
 4189POPC   NC355787  27.225  41.919   5.315
 4189POPC   PO455788  27.174  42.652   5.351
 4189POPC   GL155789  27.166  42.556   5.768
 4189POPC   GL255790  26.828  42.506   5.874
 4189POPC   C1A55791  27.223  42.312   6.158
 4189POPC   D2A55792  27.177  42.493   6.589
 4189POPC   C3A55793  27.142  42.341   7.031
 4189POPC   C4A55794  27.042  42.583   7.446
 4189POPC   C1B55795  26.752  42.370   6.301
 4189POPC   C2B55796  26.695  42.378   6.730
 4189POPC   C3B55797  26.682  42.571   7.084
 4189POPC   C4B55798  26.599  42.328   7.442
 4190POPC   NC355799  31.969  33.128   5.450
 4190POPC   PO455800  32.566  32.869   5.335
 4190POPC   GL155801  32.506  33.026   5.753
 4190POPC   GL255802  32.609  32.701   5.854
 4190POPC   C1A55803  32.327  33.288   6.120
 4190POPC   D2A55804  32.031  33.237   6.472
 4190POPC   C3A55805  32.179  33.229   6.925
 4190POPC   C4A55806  32.160  33.169   7.394
 4190POPC   C1B55807  32.318  32.778   6.214
 4190POPC   C2B55808  32.126  32.758   6.636
 4190POPC   C3B55809  32.209  32.747   7.093
 4190POPC   C4B55810  32.495  32.781   7.470
 4191POPC   NC355811   7.168  29.818   5.493
 4191POPC   PO455812   7.704  30.245   5.440
 4191POPC   GL155813   7.786  30.097   5.817
 4191POPC   GL255814   7.596  29.800   5.835
 4191POPC   C1A55815   7.691  30.069   6.252
 4191POPC   D2A55816   7.511  30.131   6.661
 4191POPC   C3A55817   7.752  30.190   7.038
 4191POPC   C4A55818   7.738  30.345   7.468
 4191POPC   C1B55819   7.273  29.800   6.232
 4191POPC   C2B55820   7.292  29.678   6.692
 4191POPC   C3B55821   7.280  29.926   7.102
 4191POPC   C4B55822   6.897  29.971   7.370
 4192POPC   NC355823  26.731  42.781   5.432
 4192POPC   PO455824  26.983  43.361   5.338
 4192POPC   GL155825  26.994  43.102   5.751
 4192POPC   GL255826  26.666  42.990   5.910
 4192POPC   C1A55827  27.075  42.868   6.169
 4192POPC   D2A55828  26.807  42.846   6.527
 4192POPC   C3A55829  26.788  43.138   6.854
 4192POPC   C4A55830  26.806  43.023   7.282
 4192POPC   C1B55831  26.692  43.315   6.234
 4192POPC   C2B55832  26.525  43.542   6.619
 4192POPC   C3B55833  26.439  43.445   7.099
 4192POPC   C4B55834  26.138  43.237   7.410
 4193POPC   NC355835  27.174  27.293   5.602
 4193POPC   PO455836  27.624  27.857   5.481
 4193POPC   GL155837  27.722  27.590   5.811
 4193POPC   GL255838  27.390  27.602   5.926
 4193POPC   C1A55839  27.762  27.451   6.253
 4193POPC   D2A55840  27.566  27.577   6.653
 4193POPC   C3A55841  27.678  27.372   7.034
 4193POPC   C4A55842  27.808  27.633   7.373
 4193POPC   C1B55843  27.255  27.393   6.290
 4193POPC   C2B55844  27.121  27.283   6.716
 4193POPC   C3B55845  27.137  27.215   7.124
 4193POPC   C4B55846  27.308  27.476   7.398
 4194POPC   NC355847  23.962  44.286   5.387
 4194POPC   PO455848  24.511  44.720   5.410
 4194POPC   GL155849  24.562  44.569   5.817
 4194POPC   GL255850  24.238  44.425   5.812
 4194POPC   C1A55851  24.528  44.716   6.248
 4194POPC   D2A55852  24.646  44.603   6.651
 4194POPC   C3A55853  24.510  44.789   7.002
 4194POPC   C4A55854  24.741  44.633   7.341
 4194POPC   C1B55855  24.072  44.488   6.230
 4194POPC   C2B55856  24.126  44.718   6.598
 4194POPC   C3B55857  24.051  44.532   6.979
 4194POPC   C4B55858  24.190  44.583   7.348
 4195POPC   NC355859  32.684  16.098   5.102
 4195POPC   PO455860  33.245  15.695   5.385
 4195POPC   GL155861  33.036  15.869   5.751
 4195POPC   GL255862  32.771  15.682   5.912
 4195POPC   C1A55863  33.016  16.170   6.115
 4195POPC   D2A55864  33.089  16.355   6.541
 4195POPC   C3A55865  32.900  16.242   6.906
 4195POPC   C4A55866  33.101  16.205   7.292
 4195POPC   C1B55867  33.130  15.681   6.225
 4195POPC   C2B55868  33.150  15.849   6.663
 4195POPC   C3B55869  32.977  15.728   7.087
 4195POPC   C4B55870  33.070  15.412   7.432
 4196POPC   NC355871  18.999   4.678   4.970
 4196POPC   PO455872  19.254   4.142   5.283
 4196POPC   GL155873  18.999   4.223   5.678
 4196POPC   GL255874  18.688   4.015   5.675
 4196POPC   C1A55875  19.066   4.456   6.114
 4196POPC   D2A55876  19.191   4.639   6.530
 4196POPC   C3A55877  19.134   4.395   6.901
 4196POPC   C4A55878  19.080   4.521   7.327
 4196POPC   C1B55879  18.608   4.207   6.101
 4196POPC   C2B55880  18.656   4.463   6.482
 4196POPC   C3B55881  18.647   4.229   6.869
 4196POPC   C4B55882  18.636   4.309   7.294
 4197POPC   NC355883  44.133  27.972   5.481
 4197POPC   PO455884  43.524  28.346   5.440
 4197POPC   GL155885  43.837  28.299   5.802
 4197POPC   GL255886  44.221  28.396   5.810
 4197POPC   C1A55887  43.869  28.494   6.217
 4197POPC   D2A55888  43.624  28.615   6.568
 4197POPC   C3A55889  43.806  28.619   6.942
 4197POPC   C4A55890  43.904  28.246   7.024
 4197POPC   C1B55891  44.364  28.603   6.207
 4197POPC   C2B55892  44.527  28.540   6.627
 4197POPC   C3B55893  44.515  28.713   7.045
 4197POPC   C4B55894  44.182  28.595   7.315
 4198POPC   NC355895  35.032   9.282   5.512
 4198POPC   PO455896  34.511   9.776   5.530
 4198POPC   GL155897  34.553   9.585   5.929
 4198POPC   GL255898  34.655   9.259   5.853
 4198POPC   C1A55899  34.672   9.732   6.349
 4198POPC   D2A55900  34.365   9.689   6.665
 4198POPC   C3A55901  34.434   9.677   7.086
 4198POPC   C4A55902  34.461  10.040   7.290
 4198POPC   C1B55903  34.968   9.347   6.148
 4198POPC   C2B55904  35.048   9.264   6.551
 4198POPC   C3B55905  34.842   9.505   6.810
 4198POPC   C4B55906  34.917   9.479   7.199
 4199POPC   NC355907   5.452  42.044   5.323
 4199POPC   PO455908   6.165  41.976   5.257
 4199POPC   GL155909   5.963  42.047   5.661
 4199POPC   GL255910   6.218  42.295   5.751
 4199POPC   C1A55911   6.068  41.985   6.130
 4199POPC   D2A55912   6.164  41.952   6.591
 4199POPC   C3A55913   5.832  42.043   6.916
 4199POPC   C4A55914   5.752  42.435   7.178
 4199POPC   C1B55915   6.097  42.558   6.121
 4199POPC   C2B55916   6.303  42.750   6.494
 4199POPC   C3B55917   6.129  42.741   6.914
 4199POPC   C4B55918   6.339  42.753   7.265
 4200POPC   NC355919   8.738  20.083   5.524
 4200POPC   PO455920   9.080  19.491   5.415
 4200POPC   GL155921   9.028  19.763   5.810
 4200POPC   GL255922   9.221  20.056   5.900
 4200POPC   C1A55923   8.713  19.921   6.172
 4200POPC   D2A55924   8.587  19.923   6.619
 4200POPC   C3A55925   8.844  19.870   6.983
 4200POPC   C4A55926   8.974  20.055   7.362
 4200POPC   C1B55927   9.175  19.963   6.322
 4200POPC   C2B55928   9.321  19.899   6.704
 4200POPC   C3B55929   9.355  20.077   7.049
 4200POPC   C4B55930   9.447  20.078   7.511
 4201POPC   NC355931   7.747  19.258   5.451
 4201POPC   PO455932   7.129  19.285   5.618
 4201POPC   GL155933   7.433  19.171   5.874
 4201POPC   GL255934   7.380  18.833   5.823
 4201POPC   C1A55935   7.446  19.096   6.308
 4201POPC   D2A55936   7.199  19.257   6.660
 4201POPC   C3A55937   7.497  19.332   7.009
 4201POPC   C4A55938   7.902  19.301   7.296
 4201POPC   C1B55939   7.164  18.659   6.180
 4201POPC   C2B55940   7.270  18.715   6.610
 4201POPC   C3B55941   7.232  18.882   7.002
 4201POPC   C4B55942   7.539  18.945   7.339
 4202POPC   NC355943  42.778   6.241   5.446
 4202POPC   PO455944  43.285   6.500   5.154
 4202POPC   GL155945  43.231   6.712   5.649
 4202POPC   GL255946  43.070   6.523   5.948
 4202POPC   C1A55947  43.213   6.953   6.106
 4202POPC   D2A55948  42.970   6.743   6.466
 4202POPC   C3A55949  43.161   6.764   6.892
 4202POPC   C4A55950  43.021   7.021   7.221
 4202POPC   C1B55951  42.731   6.371   6.172
 4202POPC   C2B55952  42.792   6.243   6.593
 4202POPC   C3B55953  42.686   6.368   7.013
 4202POPC   C4B55954  42.714   6.404   7.464
 4203POPC   NC355955  21.356  25.566   5.179
 4203POPC   PO455956  21.360  26.186   5.355
 4203POPC   GL155957  21.450  26.355   5.788
 4203POPC   GL255958  21.778  26.280   5.891
 4203POPC   C1A55959  21.348  26.422   6.259
 4203POPC   D2A55960  21.189  26.233   6.667
 4203POPC   C3A55961  21.258  26.156   7.111
 4203POPC   C4A55962  20.970  25.866   7.361
 4203POPC   C1B55963  21.849  26.294   6.361
 4203POPC   C2B55964  21.704  26.251   6.814
 4203POPC   C3B55965  21.812  26.135   7.240
 4203POPC   C4B55966  21.969  26.046   7.668
 4204POPC   NC355967   0.718  42.898   5.296
 4204POPC   PO455968   0.243  43.342   5.435
 4204POPC   GL155969   0.509  43.188   5.779
 4204POPC   GL255970   0.400  42.820   5.778
 4204POPC   C1A55971   0.541  43.023   6.232
 4204POPC   D2A55972   0.816  42.882   6.608
 4204POPC   C3A55973   0.687  43.035   7.041
 4204POPC   C4A55974   0.335  43.313   7.178
 4204POPC   C1B55975   0.071  42.742   6.117
 4204POPC   C2B55976  44.946  42.911   6.530
 4204POPC   C3B55977   0.203  42.897   6.923
 4204POPC   C4B55978   0.168  42.882   7.390
 4205POPC   NC355979   2.018   1.314   5.374
 4205POPC   PO455980   1.430   1.088   5.661
 4205POPC   GL155981   1.850   1.144   5.807
 4205POPC   GL255982   1.811   1.501   5.816
 4205POPC   C1A55983   2.164   1.275   6.144
 4205POPC   D2A55984   2.363   1.012   6.431
 4205POPC   C3A55985   2.286   1.103   6.844
 4205POPC   C4A55986   2.066   1.059   7.214
 4205POPC   C1B55987   1.650   1.322   6.224
 4205POPC   C2B55988   1.843   1.112   6.546
 4205POPC   C3B55989   1.657   0.981   6.895
 4205POPC   C4B55990   1.558   1.245   7.208
 4206POPC   NC355991  35.027  43.920   5.226
 4206POPC   PO455992  34.413  44.033   5.357
 4206POPC   GL155993  34.529  43.991   5.807
 4206POPC   GL255994  34.703  44.271   5.942
 4206POPC   C1A55995  34.545  43.871   6.265
 4206POPC   D2A55996  34.276  43.836   6.615
 4206POPC   C3A55997  34.417  43.636   6.990
 4206POPC   C4A55998  34.626  43.464   7.358
 4206POPC   C1B55999  34.798  44.306   6.387
 4206POPC   C2B56000  34.778  43.999   6.737
 4206POPC   C3B56001  34.759  43.960   7.180
 4206POPC   C4B56002  34.573  44.112   7.531
 4207POPC   NC356003  27.001  21.141   5.370
 4207POPC   PO456004  26.677  20.584   5.481
 4207POPC   GL156005  26.943  20.509   5.831
 4207POPC   GL256006  27.093  20.817   5.780
 4207POPC   C1A56007  26.845  20.360   6.266
 4207POPC   D2A56008  26.734  20.453   6.698
 4207POPC   C3A56009  26.936  20.346   7.102
 4207POPC   C4A56010  26.972  20.524   7.528
 4207POPC   C1B56011  26.829  20.858   6.170
 4207POPC   C2B56012  26.864  20.961   6.596
 4207POPC   C3B56013  26.992  20.842   6.996
 4207POPC   C4B56014  26.624  20.747   7.225
 4208POPC   NC356015  39.857  34.394   5.385
 4208POPC   PO456016  40.182  34.899   5.428
 4208POPC   GL156017  40.053  34.757   5.804
 4208POPC   GL256018  39.858  34.471   5.880
 4208POPC   C1A56019  39.883  34.914   6.159
 4208POPC   D2A56020  39.743  34.822   6.545
 4208POPC   C3A56021  39.963  34.889   6.898
 4208POPC   C4A56022  40.154  34.664   7.247
 4208POPC   C1B56023  39.812  34.390   6.286
 4208POPC   C2B56024  39.999  34.374   6.671
 4208POPC   C3B56025  39.748  34.439   6.966
 4208POPC   C4B56026  39.765  34.351   7.365
 4209POPC   NC356027  27.260  34.012   5.421
 4209POPC   PO456028  27.807  33.616   5.300
 4209POPC   GL156029  27.623  33.754   5.719
 4209POPC   GL256030  27.634  33.427   5.856
 4209POPC   C1A56031  27.458  33.813   6.147
 4209POPC   D2A56032  27.607  33.980   6.521
 4209POPC   C3A56033  27.541  33.911   6.926
 4209POPC   C4A56034  27.705  34.052   7.360
 4209POPC   C1B56035  27.811  33.486   6.312
 4209POPC   C2B56036  27.837  33.478   6.761
 4209POPC   C3B56037  27.864  33.620   7.152
 4209POPC   C4B56038  27.859  33.649   7.645
 4210POPC   NC356039  28.639  19.111   5.597
 4210POPC   PO456040  28.043  18.810   5.579
 4210POPC   GL156041  28.181  18.942   5.999
 4210POPC   GL256042  28.322  19.272   5.996
 4210POPC   C1A56043  28.216  19.034   6.455
 4210POPC   D2A56044  28.577  19.065   6.737
 4210POPC   C3A56045  28.495  18.853   7.112
 4210POPC   C4A56046  28.650  18.854   7.527
 4210POPC   C1B56047  28.414  19.538   6.364
 4210POPC   C2B56048  28.518  19.576   6.808
 4210POPC   C3B56049  28.315  19.317   7.118
 4210POPC   C4B56050  28.047  19.355   7.456
 4211POPC   NC356051  22.083  31.851   5.342
 4211POPC   PO456052  22.501  32.358   5.215
 4211POPC   GL156053  22.286  32.270   5.596
 4211POPC   GL256054  22.504  32.002   5.689
 4211POPC   C1A56055  22.100  32.448   5.984
 4211POPC   D2A56056  21.940  32.407   6.423
 4211POPC   C3A56057  22.169  32.445   6.797
 4211POPC   C4A56058  22.188  32.381   7.231
 4211POPC   C1B56059  22.315  31.999   6.107
 4211POPC   C2B56060  22.375  32.046   6.528
 4211POPC   C3B56061  22.407  31.928   6.939
 4211POPC   C4B56062  22.556  31.956   7.369
 4212POPC   NC356063  44.691  28.800   5.462
 4212POPC   PO456064  44.646  28.074   5.413
 4212POPC   GL156065  44.727  28.155   5.825
 4212POPC   GL256066  44.749  28.496   5.873
 4212POPC   C1A56067  44.611  28.163   6.252
 4212POPC   D2A56068  44.668  27.952   6.619
 4212POPC   C3A56069  44.638  28.192   6.993
 4212POPC   C4A56070  44.747  27.951   7.349
 4212POPC   C1B56071  44.877  28.661   6.274
 4212POPC   C2B56072  44.954  28.808   6.717
 4212POPC   C3B56073   0.150  28.580   7.023
 4212POPC   C4B56074  44.855  28.475   7.353
 4213POPC   NC356075  27.842  28.728   5.240
 4213POPC   PO456076  27.544  29.302   5.344
 4213POPC   GL156077  27.509  29.312   5.807
 4213POPC   GL256078  27.548  28.934   5.882
 4213POPC   C1A56079  27.560  29.279   6.242
 4213POPC   D2A56080  27.519  28.976   6.545
 4213POPC   C3A56081  27.443  29.277   6.857
 4213POPC   C4A56082  27.706  29.405   7.175
 4213POPC   C1B56083  27.888  28.843   6.160
 4213POPC   C2B56084  27.963  28.723   6.595
 4213POPC   C3B56085  27.838  28.944   6.971
 4213POPC   C4B56086  27.995  28.944   7.391
 4214POPC   NC356087  20.401  27.867   5.383
 4214POPC   PO456088  20.732  27.280   5.450
 4214POPC   GL156089  20.539  27.535   5.757
 4214POPC   GL256090  20.334  27.280   5.844
 4214POPC   C1A56091  20.479  27.741   6.151
 4214POPC   D2A56092  20.672  27.595   6.559
 4214POPC   C3A56093  20.490  27.641   6.944
 4214POPC   C4A56094  20.615  27.489   7.358
 4214POPC   C1B56095  20.386  27.255   6.295
 4214POPC   C2B56096  20.353  27.184   6.736
 4214POPC   C3B56097  20.197  27.251   7.121
 4214POPC   C4B56098  20.151  27.367   7.544
 4215POPC   NC356099   9.659  42.833   5.425
 4215POPC   PO456100   9.727  43.477   5.558
 4215POPC   GL156101   9.589  43.134   5.822
 4215POPC   GL256102   9.894  42.903   5.867
 4215POPC   C1A56103   9.593  43.045   6.237
 4215POPC   D2A56104   9.739  43.336   6.524
 4215POPC   C3A56105   9.635  43.136   6.862
 4215POPC   C4A56106   9.674  43.248   7.237
 4215POPC   C1B56107  10.088  43.193   6.165
 4215POPC   C2B56108  10.170  43.074   6.612
 4215POPC   C3B56109  10.040  42.925   7.031
 4215POPC   C4B56110   9.982  42.880   7.474
 4216POPC   NC356111   9.421  43.803   5.478
 4216POPC   PO456112   8.769  43.759   5.434
 4216POPC   GL156113   8.928  43.679   5.797
 4216POPC   GL256114   9.043  44.025   5.776
 4216POPC   C1A56115   8.933  43.807   6.228
 4216POPC   D2A56116   9.229  43.733   6.533
 4216POPC   C3A56117   9.010  43.744   6.932
 4216POPC   C4A56118   8.863  43.721   7.359
 4216POPC   C1B56119   9.320  44.116   6.104
 4216POPC   C2B56120   9.258  44.242   6.497
 4216POPC   C3B56121   9.342  44.124   6.893
 4216POPC   C4B56122   9.051  44.174   7.236
 4217POPC   NC356123   5.618   0.967   5.404
 4217POPC   PO456124   4.923   1.142   5.419
 4217POPC   GL156125   5.059   1.298   5.775
 4217POPC   GL256126   5.402   1.192   5.796
 4217POPC   C1A56127   4.857   1.310   6.167
 4217POPC   D2A56128   4.636   1.391   6.542
 4217POPC   C3A56129   4.769   1.106   6.848
 4217POPC   C4A56130   4.779   1.309   7.240
 4217POPC   C1B56131   5.616   1.041   6.179
 4217POPC   C2B56132   5.663   1.117   6.632
 4217POPC   C3B56133   5.511   0.977   7.038
 4217POPC   C4B56134   5.248   1.103   7.371
 4218POPC   NC356135  18.425  33.379   5.480
 4218POPC   PO456136  18.773  32.894   5.335
 4218POPC   GL156137  18.480  32.877   5.771
 4218POPC   GL256138  18.132  33.039   5.839
 4218POPC   C1A56139  18.332  32.790   6.231
 4218POPC   D2A56140  18.138  32.686   6.643
 4218POPC   C3A56141  18.379  32.771   7.035
 4218POPC   C4A56142  18.666  32.706   7.413
 4218POPC   C1B56143  17.858  32.964   6.244
 4218POPC   C2B56144  17.909  33.130   6.680
 4218POPC   C3B56145  17.963  33.051   7.133
 4218POPC   C4B56146  17.866  33.315   7.528
 4219POPC   NC356147  37.504  29.385   5.571
 4219POPC   PO456148  37.687  28.873   5.247
 4219POPC   GL156149  37.722  28.936   5.716
 4219POPC   GL256150  37.424  28.799   5.815
 4219POPC   C1A56151  37.597  29.122   6.169
 4219POPC   D2A56152  37.689  29.301   6.568
 4219POPC   C3A56153  37.497  29.242   6.958
 4219POPC   C4A56154  37.807  29.372   7.239
 4219POPC   C1B56155  37.750  28.633   6.136
 4219POPC   C2B56156  37.970  28.830   6.501
 4219POPC   C3B56157  37.947  28.940   6.955
 4219POPC   C4B56158  37.935  28.597   7.248
 4220POPC   NC356159  13.883  13.588   5.559
 4220POPC   PO456160  13.429  14.049   5.597
 4220POPC   GL156161  13.478  13.640   5.845
 4220POPC   GL256162  13.209  13.398   5.836
 4220POPC   C1A56163  13.705  13.482   6.207
 4220POPC   D2A56164  13.777  13.687   6.600
 4220POPC   C3A56165  13.708  13.508   7.010
 4220POPC   C4A56166  14.065  13.351   7.215
 4220POPC   C1B56167  13.282  13.177   6.214
 4220POPC   C2B56168  13.435  13.279   6.614
 4220POPC   C3B56169  13.290  13.202   7.059
 4220POPC   C4B56170  13.349  13.323   7.543
 4221POPC   NC356171  40.327  36.008   5.466
 4221POPC   PO456172  39.831  36.406   5.691
 4221POPC   GL156173  39.751  35.970   5.896
 4221POPC   GL256174  40.070  35.775   5.861
 4221POPC   C1A56175  39.811  35.842   6.344
 4221POPC   D2A56176  40.018  36.201   6.596
 4221POPC   C3A56177  39.801  36.408   6.929
 4221POPC   C4A56178  39.751  36.043   7.157
 4221POPC   C1B56179  40.313  35.812   6.241
 4221POPC   C2B56180  40.312  35.787   6.699
 4221POPC   C3B56181  40.244  36.041   7.078
 4221POPC   C4B56182  40.221  35.935   7.528
 4222POPC   NC356183  33.372   4.262   5.446
 4222POPC   PO456184  34.057   4.455   5.387
 4222POPC   GL156185  33.841   4.396   5.787
 4222POPC   GL256186  33.618   4.095   5.853
 4222POPC   C1A56187  33.972   4.230   6.197
 4222POPC   D2A56188  33.754   4.116   6.540
 4222POPC   C3A56189  33.988   4.146   6.881
 4222POPC   C4A56190  33.956   4.034   7.269
 4222POPC   C1B56191  33.453   4.396   6.167
 4222POPC   C2B56192  33.324   4.428   6.582
 4222POPC   C3B56193  33.499   4.311   6.944
 4222POPC   C4B56194  33.786   4.519   7.194
 4223POPC   NC356195  27.861  17.066   5.458
 4223POPC   PO456196  27.329  16.727   5.201
 4223POPC   GL156197  27.542  16.733   5.652
 4223POPC   GL256198  27.496  17.048   5.831
 4223POPC   C1A56199  27.807  16.726   6.073
 4223POPC   D2A56200  27.577  16.694   6.492
 4223POPC   C3A56201  27.727  16.660   6.915
 4223POPC   C4A56202  27.575  16.677   7.338
 4223POPC   C1B56203  27.669  17.165   6.291
 4223POPC   C2B56204  27.918  17.065   6.686
 4223POPC   C3B56205  27.830  17.107   7.165
 4223POPC   C4B56206  27.808  16.994   7.654
 4224POPC   NC356207  19.832  22.503   5.493
 4224POPC   PO456208  19.787  23.157   5.270
 4224POPC   GL156209  19.691  22.964   5.692
 4224POPC   GL256210  19.453  23.181   5.891
 4224POPC   C1A56211  19.714  22.804   6.142
 4224POPC   D2A56212  19.900  22.946   6.578
 4224POPC   C3A56213  19.736  22.839   6.998
 4224POPC   C4A56214  19.950  22.712   7.365
 4224POPC   C1B56215  19.447  23.162   6.399
 4224POPC   C2B56216  19.608  23.310   6.830
 4224POPC   C3B56217  19.807  23.450   7.241
 4224POPC   C4B56218  19.780  23.481   7.739
 4225POPC   NC356219  25.643  18.074   5.081
 4225POPC   PO456220  25.084  17.981   5.457
 4225POPC   GL156221  25.098  18.217   5.815
 4225POPC   GL256222  25.432  18.313   5.763
 4225POPC   C1A56223  25.139  18.127   6.260
 4225POPC   D2A56224  25.326  18.402   6.582
 4225POPC   C3A56225  25.142  18.315   6.966
 4225POPC   C4A56226  25.203  18.499   7.329
 4225POPC   C1B56227  25.622  18.294   6.162
 4225POPC   C2B56228  25.873  18.302   6.533
 4225POPC   C3B56229  25.702  18.293   6.964
 4225POPC   C4B56230  25.569  18.128   7.372
 4226POPC   NC356231  37.491  16.861   5.524
 4226POPC   PO456232  38.067  16.618   5.222
 4226POPC   GL156233  38.139  16.700   5.704
 4226POPC   GL256234  37.871  16.855   5.914
 4226POPC   C1A56235  38.153  16.458   6.109
 4226POPC   D2A56236  37.928  16.401   6.537
 4226POPC   C3A56237  38.061  16.699   6.852
 4226POPC   C4A56238  37.947  16.819   7.262
 4226POPC   C1B56239  37.490  16.927   6.174
 4226POPC   C2B56240  37.454  16.720   6.559
 4226POPC   C3B56241  37.578  16.943   6.915
 4226POPC   C4B56242  37.399  17.004   7.295
 4227POPC   NC356243  43.677   8.361   5.173
 4227POPC   PO456244  44.165   7.938   5.119
 4227POPC   GL156245  44.121   7.936   5.598
 4227POPC   GL256246  44.306   8.180   5.782
 4227POPC   C1A56247  43.866   7.931   5.995
 4227POPC   D2A56248  43.707   8.132   6.396
 4227POPC   C3A56249  43.598   7.929   6.785
 4227POPC   C4A56250  43.849   7.917   7.155
 4227POPC   C1B56251  44.191   8.287   6.234
 4227POPC   C2B56252  44.123   8.194   6.696
 4227POPC   C3B56253  43.968   8.395   7.088
 4227POPC   C4B56254  43.987   8.666   7.452
 4228POPC   NC356255  38.414  16.376   5.394
 4228POPC   PO456256  38.824  16.797   5.311
 4228POPC   GL156257  38.653  16.705   5.728
 4228POPC   GL256258  38.594  17.000   5.829
 4228POPC   C1A56259  38.737  16.638   6.191
 4228POPC   D2A56260  38.436  16.540   6.527
 4228POPC   C3A56261  38.546  16.482   6.945
 4228POPC   C4A56262  38.397  16.553   7.360
 4228POPC   C1B56263  38.324  16.939   6.188
 4228POPC   C2B56264  38.411  17.041   6.627
 4228POPC   C3B56265  38.444  16.962   7.074
 4228POPC   C4B56266  38.261  17.183   7.420
 4229POPC   NC356267  36.438  21.212   5.668
 4229POPC   PO456268  36.994  21.190   5.246
 4229POPC   GL156269  36.945  21.350   5.684
 4229POPC   GL256270  36.884  21.704   5.796
 4229POPC   C1A56271  36.956  21.321   6.150
 4229POPC   D2A56272  36.867  21.373   6.599
 4229POPC   C3A56273  36.695  21.125   6.933
 4229POPC   C4A56274  37.069  21.204   7.174
 4229POPC   C1B56275  36.688  21.765   6.247
 4229POPC   C2B56276  36.749  21.857   6.698
 4229POPC   C3B56277  36.761  21.613   7.079
 4229POPC   C4B56278  36.767  21.733   7.512
 4230POPC   NC356279   6.366  18.321   5.459
 4230POPC   PO456280   7.019  18.402   5.378
 4230POPC   GL156281   6.822  18.231   5.794
 4230POPC   GL256282   6.479  18.109   5.892
 4230POPC   C1A56283   6.882  17.975   6.180
 4230POPC   D2A56284   6.810  18.111   6.598
 4230POPC   C3A56285   6.841  17.917   6.991
 4230POPC   C4A56286   6.934  18.126   7.370
 4230POPC   C1B56287   6.513  18.362   6.266
 4230POPC   C2B56288   6.293  18.448   6.650
 4230POPC   C3B56289   6.269  18.341   7.101
 4230POPC   C4B56290   6.488  18.315   7.499
 4231POPC   NC356291  43.921  10.704   5.086
 4231POPC   PO456292  43.893  11.328   5.434
 4231POPC   GL156293  43.717  11.383   5.855
 4231POPC   GL256294  44.000  11.562   5.922
 4231POPC   C1A56295  43.530  11.440   6.312
 4231POPC   D2A56296  43.450  11.270   6.759
 4231POPC   C3A56297  43.661  11.390   7.163
 4231POPC   C4A56298  43.804  11.348   7.604
 4231POPC   C1B56299  43.994  11.617   6.364
 4231POPC   C2B56300  43.946  11.346   6.728
 4231POPC   C3B56301  44.161  11.240   7.110
 4231POPC   C4B56302  44.323  11.297   7.519
 4232POPC   NC356303  13.837  26.314   5.521
 4232POPC   PO456304  13.264  26.201   5.187
 4232POPC   GL156305  13.409  26.204   5.737
 4232POPC   GL256306  13.506  25.896   5.870
 4232POPC   C1A56307  13.622  26.419   6.130
 4232POPC   D2A56308  13.600  26.451   6.618
 4232POPC   C3A56309  13.756  26.060   6.863
 4232POPC   C4A56310  13.983  26.107   7.275
 4232POPC   C1B56311  13.521  25.977   6.330
 4232POPC   C2B56312  13.255  26.083   6.668
 4232POPC   C3B56313  13.183  26.303   7.004
 4232POPC   C4B56314  13.446  26.019   7.269
 4233POPC   NC356315  40.837  34.277   5.405
 4233POPC   PO456316  40.871  34.897   5.323
 4233POPC   GL156317  40.608  34.674   5.692
 4233POPC   GL256318  40.361  34.374   5.644
 4233POPC   C1A56319  40.780  34.536   6.151
 4233POPC   D2A56320  40.980  34.308   6.545
 4233POPC   C3A56321  40.984  34.439   6.996
 4233POPC   C4A56322  40.686  34.584   7.329
 4233POPC   C1B56323  40.300  34.400   6.103
 4233POPC   C2B56324  40.463  34.286   6.494
 4233POPC   C3B56325  40.496  34.264   6.916
 4233POPC   C4B56326  40.356  34.206   7.300
 4234POPC   NC356327  22.478  34.541   5.366
 4234POPC   PO456328  23.154  34.757   5.318
 4234POPC   GL156329  22.884  34.743   5.645
 4234POPC   GL256330  22.848  34.410   5.739
 4234POPC   C1A56331  22.849  34.780   6.094
 4234POPC   D2A56332  23.070  34.842   6.485
 4234POPC   C3A56333  23.036  34.611   6.859
 4234POPC   C4A56334  23.172  34.559   7.280
 4234POPC   C1B56335  22.852  34.282   6.203
 4234POPC   C2B56336  22.793  34.218   6.632
 4234POPC   C3B56337  22.966  34.103   7.035
 4234POPC   C4B56338  22.775  33.982   7.432
 4235POPC   NC356339  26.375   3.483   5.444
 4235POPC   PO456340  25.749   3.410   5.294
 4235POPC   GL156341  25.960   3.586   5.698
 4235POPC   GL256342  26.216   3.379   5.912
 4235POPC   C1A56343  25.822   3.603   6.137
 4235POPC   D2A56344  25.999   3.547   6.529
 4235POPC   C3A56345  25.848   3.559   6.909
 4235POPC   C4A56346  25.827   3.805   7.248
 4235POPC   C1B56347  26.400   3.319   6.345
 4235POPC   C2B56348  26.382   3.364   6.829
 4235POPC   C3B56349  26.246   3.474   7.249
 4235POPC   C4B56350  26.246   3.293   7.649
 4236POPC   NC356351  41.636  31.174   5.436
 4236POPC   PO456352  41.282  30.609   5.520
 4236POPC   GL156353  41.485  30.795   5.865
 4236POPC   GL256354  41.741  30.721   5.762
 4236POPC   C1A56355  41.443  30.612   6.288
 4236POPC   D2A56356  41.336  30.845   6.624
 4236POPC   C3A56357  41.223  30.625   6.976
 4236POPC   C4A56358  41.379  30.718   7.352
 4236POPC   C1B56359  41.923  30.575   6.113
 4236POPC   C2B56360  42.014  30.648   6.536
 4236POPC   C3B56361  41.766  30.621   6.902
 4236POPC   C4B56362  41.859  30.488   7.298
 4237POPC   NC356363   0.786  26.493   5.566
 4237POPC   PO456364   1.119  27.084   5.357
 4237POPC   GL156365   1.025  26.925   5.791
 4237POPC   GL256366   1.211  26.597   5.828
 4237POPC   C1A56367   0.994  27.105   6.231
 4237POPC   D2A56368   0.939  26.895   6.647
 4237POPC   C3A56369   1.112  27.043   7.030
 4237POPC   C4A56370   1.248  26.885   7.411
 4237POPC   C1B56371   0.943  26.569   6.229
 4237POPC   C2B56372   0.864  26.381   6.660
 4237POPC   C3B56373   1.099  26.519   7.045
 4237POPC   C4B56374   1.496  26.383   7.167
 4238POPC   NC356375  43.378   3.953   4.969
 4238POPC   PO456376  42.991   4.225   5.429
 4238POPC   GL156377  43.001   4.332   5.847
 4238POPC   GL256378  43.347   4.310   5.901
 4238POPC   C1A56379  42.859   4.510   6.272
 4238POPC   D2A56380  42.822   4.559   6.734
 4238POPC   C3A56381  42.796   4.366   7.141
 4238POPC   C4A56382  42.712   4.605   7.525
 4238POPC   C1B56383  43.360   4.486   6.311
 4238POPC   C2B56384  43.377   4.586   6.741
 4238POPC   C3B56385  43.332   4.329   7.126
 4238POPC   C4B56386  43.487   4.324   7.560
 4239POPC   NC356387  33.946   4.899   5.412
 4239POPC   PO456388  33.430   5.191   5.132
 4239POPC   GL156389  33.483   5.055   5.623
 4239POPC   GL256390  33.686   5.330   5.812
 4239POPC   C1A56391  33.552   4.941   6.129
 4239POPC   D2A56392  33.571   4.901   6.642
 4239POPC   C3A56393  33.845   5.012   7.050
 4239POPC   C4A56394  34.205   4.874   7.378
 4239POPC   C1B56395  33.568   5.464   6.261
 4239POPC   C2B56396  33.752   5.424   6.698
 4239POPC   C3B56397  33.540   5.446   7.106
 4239POPC   C4B56398  33.622   5.342   7.546
 4240POPC   NC356399  20.931  36.385   5.437
 4240POPC   PO456400  20.266  36.039   5.538
 4240POPC   GL156401  20.578  36.191   5.748
 4240POPC   GL256402  20.817  35.949   5.759
 4240POPC   C1A56403  20.769  36.387   6.071
 4240POPC   D2A56404  20.630  36.439   6.455
 4240POPC   C3A56405  20.624  36.232   6.841
 4240POPC   C4A56406  20.676  36.392   7.232
 4240POPC   C1B56407  20.576  35.870   6.144
 4240POPC   C2B56408  20.623  35.793   6.569
 4240POPC   C3B56409  20.414  35.779   6.972
 4240POPC   C4B56410  20.728  35.858   7.260
 4241POPC   NC356411   3.645   9.823   5.373
 4241POPC   PO456412   3.047  10.036   5.617
 4241POPC   GL156413   3.484   9.867   5.863
 4241POPC   GL256414   3.861   9.981   5.822
 4241POPC   C1A56415   3.580   9.584   6.249
 4241POPC   D2A56416   3.257   9.444   6.614
 4241POPC   C3A56417   3.369   9.525   7.073
 4241POPC   C4A56418   3.422   9.542   7.534
 4241POPC   C1B56419   4.053   9.903   6.254
 4241POPC   C2B56420   4.154  10.116   6.667
 4241POPC   C3B56421   4.121  10.105   7.132
 4241POPC   C4B56422   3.779   9.941   7.425
 4242POPC   NC356423  42.652  22.013   5.643
 4242POPC   PO456424  42.079  22.355   5.409
 4242POPC   GL156425  42.264  22.287   5.873
 4242POPC   GL256426  42.651  22.343   6.026
 4242POPC   C1A56427  42.255  22.373   6.326
 4242POPC   D2A56428  42.561  22.355   6.641
 4242POPC   C3A56429  42.412  22.139   6.937
 4242POPC   C4A56430  42.089  22.102   7.191
 4242POPC   C1B56431  42.537  21.962   6.282
 4242POPC   C2B56432  42.729  21.841   6.635
 4242POPC   C3B56433  42.662  21.696   7.033
 4242POPC   C4B56434  42.643  22.009   7.361
 4243POPC   NC356435   7.188  17.984   5.507
 4243POPC   PO456436   7.552  17.380   5.432
 4243POPC   GL156437   7.593  17.669   5.802
 4243POPC   GL256438   7.644  17.404   6.009
 4243POPC   C1A56439   7.768  17.837   6.214
 4243POPC   D2A56440   7.762  17.591   6.606
 4243POPC   C3A56441   7.753  17.806   7.008
 4243POPC   C4A56442   7.672  17.764   7.471
 4243POPC   C1B56443   7.280  17.635   6.213
 4243POPC   C2B56444   6.971  17.607   6.566
 4243POPC   C3B56445   7.117  17.485   6.997
 4243POPC   C4B56446   7.495  17.335   7.232
 4244POPC   NC356447  20.691  30.872   4.991
 4244POPC   PO456448  20.307  30.589   5.468
 4244POPC   GL156449  20.435  30.351   5.744
 4244POPC   GL256450  20.761  30.482   5.762
 4244POPC   C1A56451  20.366  30.471   6.152
 4244POPC   D2A56452  20.509  30.482   6.555
 4244POPC   C3A56453  20.411  30.867   6.796
 4244POPC   C4A56454  20.491  30.979   7.243
 4244POPC   C1B56455  20.897  30.572   6.170
 4244POPC   C2B56456  21.021  30.643   6.579
 4244POPC   C3B56457  20.887  30.778   6.973
 4244POPC   C4B56458  20.862  30.634   7.382
 4245POPC   NC356459  13.631   7.073   5.553
 4245POPC   PO456460  13.753   7.714   5.446
 4245POPC   GL156461  13.705   7.509   5.842
 4245POPC   GL256462  14.006   7.287   5.904
 4245POPC   C1A56463  13.415   7.538   6.212
 4245POPC   D2A56464  13.280   7.671   6.611
 4245POPC   C3A56465  13.569   7.520   6.931
 4245POPC   C4A56466  13.444   7.471   7.333
 4245POPC   C1B56467  13.686   7.100   6.197
 4245POPC   C2B56468  13.448   7.175   6.559
 4245POPC   C3B56469  13.315   7.062   6.947
 4245POPC   C4B56470  13.608   6.987   7.219
 4246POPC   NC356471  20.804  33.139   5.259
 4246POPC   PO456472  20.214  32.931   5.423
 4246POPC   GL156473  20.631  32.997   5.715
 4246POPC   GL256474  20.641  33.327   5.742
 4246POPC   C1A56475  20.908  33.103   6.109
 4246POPC   D2A56476  20.998  33.117   6.562
 4246POPC   C3A56477  20.647  33.103   6.872
 4246POPC   C4A56478  20.719  32.883   7.271
 4246POPC   C1B56479  20.402  33.170   6.122
 4246POPC   C2B56480  20.225  33.037   6.518
 4246POPC   C3B56481  20.162  32.831   6.907
 4246POPC   C4B56482  20.234  33.067   7.227
 4247POPC   NC356483   0.891  19.815   5.484
 4247POPC   PO456484   1.545  19.787   5.494
 4247POPC   GL156485   1.293  19.800   5.841
 4247POPC   GL256486   1.172  20.116   5.762
 4247POPC   C1A56487   1.191  19.930   6.245
 4247POPC   D2A56488   1.357  20.013   6.628
 4247POPC   C3A56489   1.170  19.702   6.866
 4247POPC   C4A56490   1.127  19.624   7.291
 4247POPC   C1B56491   0.872  20.323   6.040
 4247POPC   C2B56492   0.745  20.149   6.412
 4247POPC   C3B56493   0.904  20.220   6.801
 4247POPC   C4B56494   1.021  20.097   7.178
 4248POPC   NC356495  15.138  16.573   5.355
 4248POPC   PO456496  15.046  17.140   5.404
 4248POPC   GL156497  14.972  16.905   5.785
 4248POPC   GL256498  15.061  16.566   5.866
 4248POPC   C1A56499  15.206  16.922   6.211
 4248POPC   D2A56500  15.331  17.169   6.597
 4248POPC   C3A56501  15.316  16.920   6.974
 4248POPC   C4A56502  15.526  16.966   7.372
 4248POPC   C1B56503  14.861  16.490   6.274
 4248POPC   C2B56504  14.864  16.487   6.733
 4248POPC   C3B56505  15.104  16.466   7.123
 4248POPC   C4B56506  15.060  16.378   7.568
 4249POPC   NC356507  23.803   0.653   5.586
 4249POPC   PO456508  23.461   0.222   5.205
 4249POPC   GL156509  23.495   0.240   5.719
 4249POPC   GL256510  23.848   0.250   5.894
 4249POPC   C1A56511  23.407   0.271   6.208
 4249POPC   D2A56512  23.313   0.295   6.678
 4249POPC   C3A56513  23.643   0.376   6.971
 4249POPC   C4A56514  24.059   0.248   7.096
 4249POPC   C1B56515  23.815   0.588   6.235
 4249POPC   C2B56516  23.981   0.635   6.639
 4249POPC   C3B56517  23.853   0.830   6.996
 4249POPC   C4B56518  24.152   0.801   7.326
 4250POPC   NC356519  29.797  29.884   5.453
 4250POPC   PO456520  29.896  30.529   5.376
 4250POPC   GL156521  29.912  30.322   5.857
 4250POPC   GL256522  29.727  30.001   5.942
 4250POPC   C1A56523  30.110  30.175   6.300
 4250POPC   D2A56524  30.265  29.833   6.599
 4250POPC   C3A56525  30.234  29.979   7.039
 4250POPC   C4A56526  30.072  29.892   7.449
 4250POPC   C1B56527  29.700  29.895   6.342
 4250POPC   C2B56528  29.783  30.013   6.746
 4250POPC   C3B56529  29.754  29.738   7.059
 4250POPC   C4B56530  29.524  29.747   7.391
 4251POPC   NC356531   9.795   4.059   5.401
 4251POPC   PO456532   9.515   3.397   5.327
 4251POPC   GL156533   9.674   3.516   5.744
 4251POPC   GL256534   9.511   3.833   5.830
 4251POPC   C1A56535   9.541   3.468   6.205
 4251POPC   D2A56536   9.560   3.683   6.625
 4251POPC   C3A56537   9.683   3.441   6.961
 4251POPC   C4A56538   9.726   3.344   7.400
 4251POPC   C1B56539   9.718   3.955   6.223
 4251POPC   C2B56540  10.071   3.931   6.518
 4251POPC   C3B56541   9.990   4.043   6.928
 4251POPC   C4B56542   9.822   3.820   7.266
 4252POPC   NC356543  22.975  32.285   5.214
 4252POPC   PO456544  23.151  31.598   5.217
 4252POPC   GL156545  23.120  31.927   5.602
 4252POPC   GL256546  23.155  32.317   5.704
 4252POPC   C1A56547  22.956  32.010   6.056
 4252POPC   D2A56548  22.878  31.888   6.505
 4252POPC   C3A56549  22.925  32.118   6.904
 4252POPC   C4A56550  23.085  31.987   7.296
 4252POPC   C1B56551  23.139  32.650   6.066
 4252POPC   C2B56552  23.191  32.668   6.542
 4252POPC   C3B56553  23.090  32.668   6.990
 4252POPC   C4B56554  22.950  32.486   7.370
 4253POPC   NC356555  42.119   6.021   5.506
 4253POPC   PO456556  42.656   5.770   5.421
 4253POPC   GL156557  42.659   5.931   5.858
 4253POPC   GL256558  42.354   5.770   5.883
 4253POPC   C1A56559  42.478   5.952   6.314
 4253POPC   D2A56560  42.352   5.991   6.729
 4253POPC   C3A56561  42.533   5.719   6.986
 4253POPC   C4A56562  42.650   5.916   7.328
 4253POPC   C1B56563  42.110   5.554   6.244
 4253POPC   C2B56564  41.942   5.658   6.625
 4253POPC   C3B56565  42.026   5.714   7.061
 4253POPC   C4B56566  42.180   5.767   7.475
 4254POPC   NC356567  42.639  15.575   4.955
 4254POPC   PO456568  42.387  16.117   5.313
 4254POPC   GL156569  42.256  16.110   5.740
 4254POPC   GL256570  42.138  15.794   5.873
 4254POPC   C1A56571  42.289  16.272   6.146
 4254POPC   D2A56572  42.544  16.207   6.510
 4254POPC   C3A56573  42.379  16.010   6.853
 4254POPC   C4A56574  42.545  16.139   7.204
 4254POPC   C1B56575  41.995  15.520   6.226
 4254POPC   C2B56576  42.147  15.627   6.596
 4254POPC   C3B56577  42.196  15.552   7.004
 4254POPC   C4B56578  42.238  15.747   7.352
 4255POPC   NC356579  10.428  28.993   5.352
 4255POPC   PO456580  10.306  29.675   5.487
 4255POPC   GL156581  10.544  29.379   5.788
 4255POPC   GL256582  10.448  29.013   5.852
 4255POPC   C1A56583  10.673  29.363   6.244
 4255POPC   D2A56584  10.802  29.112   6.652
 4255POPC   C3A56585  10.608  29.218   7.056
 4255POPC   C4A56586  10.567  29.514   7.442
 4255POPC   C1B56587  10.623  28.858   6.224
 4255POPC   C2B56588  10.508  28.667   6.586
 4255POPC   C3B56589  10.661  28.668   6.979
 4255POPC   C4B56590  10.458  28.783   7.301
 4256POPC   NC356591  35.244  26.156   5.130
 4256POPC   PO456592  35.334  26.731   5.408
 4256POPC   GL156593  35.341  26.877   5.805
 4256POPC   GL256594  35.620  27.151   5.774
 4256POPC   C1A56595  35.232  26.712   6.226
 4256POPC   D2A56596  35.525  26.656   6.585
 4256POPC   C3A56597  35.300  26.754   6.960
 4256POPC   C4A56598  34.935  26.864   7.220
 4256POPC   C1B56599  35.539  27.093   6.216
 4256POPC   C2B56600  35.310  27.157   6.564
 4256POPC   C3B56601  35.558  27.204   6.920
 4256POPC   C4B56602  35.375  27.115   7.303
 4257POPC   NC356603  26.471  25.876   5.462
 4257POPC   PO456604  26.719  25.214   5.419
 4257POPC   GL156605  26.828  25.320   5.840
 4257POPC   GL256606  26.800  25.691   5.851
 4257POPC   C1A56607  27.014  25.284   6.250
 4257POPC   D2A56608  27.121  25.381   6.679
 4257POPC   C3A56609  27.040  25.069   7.009
 4257POPC   C4A56610  26.733  25.039   7.360
 4257POPC   C1B56611  26.594  25.600   6.212
 4257POPC   C2B56612  26.636  25.336   6.598
 4257POPC   C3B56613  26.734  25.472   7.018
 4257POPC   C4B56614  26.508  25.615   7.335
 4258POPC   NC356615  32.571  27.497   5.454
 4258POPC   PO456616  33.246  27.729   5.440
 4258POPC   GL156617  33.249  27.661   5.853
 4258POPC   GL256618  32.924  27.494   5.818
 4258POPC   C1A56619  33.056  27.732   6.241
 4258POPC   D2A56620  32.987  27.548   6.624
 4258POPC   C3A56621  32.963  27.776   6.986
 4258POPC   C4A56622  32.990  27.947   7.371
 4258POPC   C1B56623  32.825  27.234   6.152
 4258POPC   C2B56624  32.842  27.079   6.564
 4258POPC   C3B56625  32.668  27.231   6.947
 4258POPC   C4B56626  32.753  27.444   7.324
 4259POPC   NC356627  10.572  42.439   5.527
 4259POPC   PO456628  10.324  41.809   5.477
 4259POPC   GL156629  10.335  42.123   5.854
 4259POPC   GL256630  10.175  42.458   5.861
 4259POPC   C1A56631  10.594  42.402   6.189
 4259POPC   D2A56632  10.784  42.220   6.589
 4259POPC   C3A56633  10.821  42.416   6.998
 4259POPC   C4A56634  10.595  42.373   7.415
 4259POPC   C1B56635  10.168  42.683   6.249
 4259POPC   C2B56636  10.413  42.620   6.631
 4259POPC   C3B56637  10.312  42.316   6.932
 4259POPC   C4B56638  10.108  42.436   7.294
 4260POPC   NC356639  39.570  24.658   5.306
 4260POPC   PO456640  39.534  24.139   5.743
 4260POPC   GL156641  39.233  24.338   5.981
 4260POPC   GL256642  39.234  24.599   5.754
 4260POPC   C1A56643  39.175  24.361   6.402
 4260POPC   D2A56644  39.520  24.308   6.685
 4260POPC   C3A56645  39.337  24.517   7.008
 4260POPC   C4A56646  39.114  24.283   7.311
 4260POPC   C1B56647  39.047  24.814   6.098
 4260POPC   C2B56648  38.911  24.815   6.522
 4260POPC   C3B56649  38.902  25.027   6.902
 4260POPC   C4B56650  39.086  24.876   7.270
 4261POPC   NC356651   3.115  17.311   5.464
 4261POPC   PO456652   3.819  17.616   5.468
 4261POPC   GL156653   3.635  17.401   5.797
 4261POPC   GL256654   3.322  17.609   5.837
 4261POPC   C1A56655   3.649  17.510   6.245
 4261POPC   D2A56656   3.503  17.785   6.607
 4261POPC   C3A56657   3.660  17.601   7.013
 4261POPC   C4A56658   3.952  17.254   7.063
 4261POPC   C1B56659   3.107  17.682   6.242
 4261POPC   C2B56660   2.980  17.890   6.654
 4261POPC   C3B56661   3.213  17.866   7.034
 4261POPC   C4B56662   3.198  17.518   7.318
 4262POPC   NC356663  14.117  26.854   5.164
 4262POPC   PO456664  14.785  26.748   5.345
 4262POPC   GL156665  14.418  26.900   5.608
 4262POPC   GL256666  14.210  26.622   5.729
 4262POPC   C1A56667  14.399  27.143   6.003
 4262POPC   D2A56668  14.527  27.025   6.441
 4262POPC   C3A56669  14.345  27.119   6.836
 4262POPC   C4A56670  14.322  26.988   7.259
 4262POPC   C1B56671  14.375  26.495   6.137
 4262POPC   C2B56672  14.487  26.525   6.571
 4262POPC   C3B56673  14.347  26.521   6.999
 4262POPC   C4B56674  14.594  26.536   7.342
 4263POPC   NC356675   4.896   9.246   5.396
 4263POPC   PO456676   4.880   8.630   5.660
 4263POPC   GL156677   4.998   8.965   5.848
 4263POPC   GL256678   5.315   8.981   5.687
 4263POPC   C1A56679   4.965   8.934   6.295
 4263POPC   D2A56680   5.009   9.022   6.709
 4263POPC   C3A56681   4.921   8.779   7.014
 4263POPC   C4A56682   4.994   8.966   7.402
 4263POPC   C1B56683   5.447   8.886   6.135
 4263POPC   C2B56684   5.498   9.021   6.591
 4263POPC   C3B56685   5.400   9.048   7.081
 4263POPC   C4B56686   5.438   9.118   7.562
 4264POPC   NC356687  24.092  15.548   5.451
 4264POPC   PO456688  23.856  14.906   5.427
 4264POPC   GL156689  23.839  15.192   5.774
 4264POPC   GL256690  23.920  15.517   5.910
 4264POPC   C1A56691  23.738  15.123   6.201
 4264POPC   D2A56692  23.531  15.152   6.611
 4264POPC   C3A56693  23.588  15.236   7.040
 4264POPC   C4A56694  23.711  15.034   7.419
 4264POPC   C1B56695  24.176  15.445   6.231
 4264POPC   C2B56696  23.967  15.438   6.609
 4264POPC   C3B56697  23.960  15.575   7.026
 4264POPC   C4B56698  24.066  15.459   7.433
 4265POPC   NC356699  27.089   1.117   5.452
 4265POPC   PO456700  26.521   1.471   5.192
 4265POPC   GL156701  26.532   1.367   5.692
 4265POPC   GL256702  26.863   1.206   5.904
 4265POPC   C1A56703  26.410   1.207   6.126
 4265POPC   D2A56704  26.691   1.131   6.453
 4265POPC   C3A56705  26.521   1.128   6.861
 4265POPC   C4A56706  26.729   1.056   7.252
 4265POPC   C1B56707  27.138   1.320   6.282
 4265POPC   C2B56708  27.274   1.384   6.765
 4265POPC   C3B56709  27.220   1.402   7.240
 4265POPC   C4B56710  27.267   1.465   7.729
 4266POPC   NC356711  39.657  41.330   5.296
 4266POPC   PO456712  39.029  41.616   5.354
 4266POPC   GL156713  39.257  41.604   5.735
 4266POPC   GL256714  39.544  41.372   5.808
 4266POPC   C1A56715  39.151  41.636   6.168
 4266POPC   D2A56716  39.042  41.456   6.568
 4266POPC   C3A56717  39.145  41.565   6.983
 4266POPC   C4A56718  39.027  41.751   7.382
 4266POPC   C1B56719  39.725  41.283   6.226
 4266POPC   C2B56720  39.519  41.296   6.645
 4266POPC   C3B56721  39.444  41.121   7.043
 4266POPC   C4B56722  39.657  41.035   7.455
 4267POPC   NC356723  42.731  12.092   5.466
 4267POPC   PO456724  42.092  11.882   5.354
 4267POPC   GL156725  42.292  12.046   5.753
 4267POPC   GL256726  42.609  12.203   5.936
 4267POPC   C1A56727  42.134  12.158   6.178
 4267POPC   D2A56728  42.375  12.115   6.574
 4267POPC   C3A56729  42.347  12.189   6.958
 4267POPC   C4A56730  42.126  11.956   7.248
 4267POPC   C1B56731  42.596  11.866   6.214
 4267POPC   C2B56732  42.657  11.629   6.536
 4267POPC   C3B56733  42.763  11.890   6.868
 4267POPC   C4B56734  42.642  11.870   7.238
 4268POPC   NC356735  28.960  44.427   5.363
 4268POPC   PO456736  29.329  43.862   5.474
 4268POPC   GL156737  29.331  43.683   5.874
 4268POPC   GL256738  29.249  43.975   6.008
 4268POPC   C1A56739  29.089  43.574   6.246
 4268POPC   D2A56740  28.893  43.691   6.606
 4268POPC   C3A56741  29.179  43.638   6.919
 4268POPC   C4A56742  29.401  43.980   7.067
 4268POPC   C1B56743  28.938  44.105   6.296
 4268POPC   C2B56744  28.741  44.184   6.668
 4268POPC   C3B56745  28.888  44.138   7.065
 4268POPC   C4B56746  28.641  44.152   7.419
 4269POPC   NC356747  31.825  36.395   5.537
 4269POPC   PO456748  32.441  36.111   5.303
 4269POPC   GL156749  32.182  36.063   5.707
 4269POPC   GL256750  31.955  35.780   5.655
 4269POPC   C1A56751  32.157  36.171   6.207
 4269POPC   D2A56752  32.439  36.025   6.554
 4269POPC   C3A56753  32.446  36.086   7.008
 4269POPC   C4A56754  32.082  36.235   7.204
 4269POPC   C1B56755  32.153  35.698   6.062
 4269POPC   C2B56756  32.064  35.659   6.530
 4269POPC   C3B56757  32.172  35.559   6.931
 4269POPC   C4B56758  32.242  35.728   7.307
 4270POPC   NC356759  10.773  44.428   5.507
 4270POPC   PO456760  10.545  43.712   5.498
 4270POPC   GL156761  10.582  43.792   5.874
 4270POPC   GL256762  10.773  44.061   5.855
 4270POPC   C1A56763  10.662  43.665   6.243
 4270POPC   D2A56764  10.670  43.908   6.578
 4270POPC   C3A56765  10.683  43.682   6.925
 4270POPC   C4A56766  10.434  43.707   7.266
 4270POPC   C1B56767  10.672  44.288   6.225
 4270POPC   C2B56768  10.933  44.356   6.622
 4270POPC   C3B56769  10.739  44.191   7.006
 4270POPC   C4B56770  10.882  43.921   7.357
 4271POPC   NC356771   6.613  17.216   5.479
 4271POPC   PO456772   6.676  17.859   5.459
 4271POPC   GL156773   6.663  17.618   5.851
 4271POPC   GL256774   6.317  17.616   5.900
 4271POPC   C1A56775   6.587  17.353   6.251
 4271POPC   D2A56776   6.483  17.470   6.679
 4271POPC   C3A56777   6.468  17.294   7.084
 4271POPC   C4A56778   6.729  17.517   7.341
 4271POPC   C1B56779   6.397  17.841   6.320
 4271POPC   C2B56780   6.353  17.949   6.777
 4271POPC   C3B56781   6.381  17.857   7.228
 4271POPC   C4B56782   6.156  17.961   7.611
 4272POPC   NC356783  20.944   5.210   5.157
 4272POPC   PO456784  20.641   5.652   5.564
 4272POPC   GL156785  20.548   6.037   5.808
 4272POPC   GL256786  20.329   5.823   6.004
 4272POPC   C1A56787  20.446   6.258   6.221
 4272POPC   D2A56788  20.367   5.945   6.569
 4272POPC   C3A56789  20.501   6.012   7.017
 4272POPC   C4A56790  20.734   6.259   7.349
 4272POPC   C1B56791  20.228   5.517   6.310
 4272POPC   C2B56792  20.385   5.442   6.737
 4272POPC   C3B56793  20.415   5.519   7.182
 4272POPC   C4B56794  20.632   5.492   7.579
 4273POPC   NC356795  38.085  39.464   5.571
 4273POPC   PO456796  37.735  39.034   5.152
 4273POPC   GL156797  37.740  39.096   5.685
 4273POPC   GL256798  37.517  38.901   5.889
 4273POPC   C1A56799  37.838  39.234   6.154
 4273POPC   D2A56800  37.758  39.282   6.615
 4273POPC   C3A56801  37.729  39.361   7.069
 4273POPC   C4A56802  37.819  39.153   7.487
 4273POPC   C1B56803  37.430  38.970   6.357
 4273POPC   C2B56804  37.311  39.103   6.804
 4273POPC   C3B56805  37.352  39.059   7.270
 4273POPC   C4B56806  37.447  38.732   7.601
 4274POPC   NC356807  40.289   4.231   5.337
 4274POPC   PO456808  39.685   4.002   5.533
 4274POPC   GL156809  39.958   4.248   5.786
 4274POPC   GL256810  40.342   4.264   5.835
 4274POPC   C1A56811  39.993   4.145   6.217
 4274POPC   D2A56812  39.854   3.885   6.539
 4274POPC   C3A56813  39.840   4.063   6.949
 4274POPC   C4A56814  40.219   4.041   7.180
 4274POPC   C1B56815  40.331   4.530   6.191
 4274POPC   C2B56816  40.400   4.649   6.632
 4274POPC   C3B56817  40.328   4.668   7.105
 4274POPC   C4B56818  40.509   4.741   7.522
 4275POPC   NC356819  26.880  35.511   5.418
 4275POPC   PO456820  26.542  34.908   5.446
 4275POPC   GL156821  26.810  35.075   5.738
 4275POPC   GL256822  26.637  35.374   5.859
 4275POPC   C1A56823  26.962  34.992   6.158
 4275POPC   D2A56824  27.198  35.012   6.562
 4275POPC   C3A56825  26.970  35.013   6.948
 4275POPC   C4A56826  26.846  35.388   7.159
 4275POPC   C1B56827  26.469  35.117   6.215
 4275POPC   C2B56828  26.525  34.942   6.662
 4275POPC   C3B56829  26.398  35.132   7.091
 4275POPC   C4B56830  26.491  35.290   7.530
 4276POPC   NC356831   2.401  31.028   5.574
 4276POPC   PO456832   2.459  31.638   5.213
 4276POPC   GL156833   2.702  31.690   5.622
 4276POPC   GL256834   2.711  31.359   5.784
 4276POPC   C1A56835   2.836  31.762   6.055
 4276POPC   D2A56836   2.573  31.934   6.390
 4276POPC   C3A56837   2.625  31.711   6.757
 4276POPC   C4A56838   2.822  31.795   7.128
 4276POPC   C1B56839   2.646  31.292   6.241
 4276POPC   C2B56840   2.704  31.158   6.659
 4276POPC   C3B56841   2.682  31.301   7.060
 4276POPC   C4B56842   2.985  31.385   7.428
 4277POPC   NC356843  14.120  23.071   5.354
 4277POPC   PO456844  14.768  22.745   5.282
 4277POPC   GL156845  14.536  22.793   5.693
 4277POPC   GL256846  14.437  23.115   5.762
 4277POPC   C1A56847  14.664  22.973   6.164
 4277POPC   D2A56848  14.727  23.130   6.573
 4277POPC   C3A56849  14.555  22.803   6.832
 4277POPC   C4A56850  14.481  22.645   7.238
 4277POPC   C1B56851  14.153  22.837   6.048
 4277POPC   C2B56852  14.043  22.898   6.492
 4277POPC   C3B56853  14.220  23.201   6.785
 4277POPC   C4B56854  14.079  23.234   7.208
 4278POPC   NC356855  38.842  36.325   5.377
 4278POPC   PO456856  38.290  36.627   5.372
 4278POPC   GL156857  38.352  36.252   5.698
 4278POPC   GL256858  38.626  36.037   5.728
 4278POPC   C1A56859  38.306  36.075   6.121
 4278POPC   D2A56860  38.519  36.167   6.500
 4278POPC   C3A56861  38.296  36.098   6.875
 4278POPC   C4A56862  38.394  36.151   7.277
 4278POPC   C1B56863  38.757  35.797   6.100
 4278POPC   C2B56864  38.787  35.700   6.533
 4278POPC   C3B56865  38.773  35.898   6.913
 4278POPC   C4B56866  38.896  35.734   7.292
 4279POPC   NC356867  26.559   0.238   5.518
 4279POPC   PO456868  26.681   0.897   5.522
 4279POPC   GL156869  26.998   0.705   5.802
 4279POPC   GL256870  26.939   0.327   5.872
 4279POPC   C1A56871  26.930   0.689   6.245
 4279POPC   D2A56872  26.737   0.676   6.679
 4279POPC   C3A56873  26.910   0.431   7.005
 4279POPC   C4A56874  27.167   0.517   7.341
 4279POPC   C1B56875  26.561   0.342   6.180
 4279POPC   C2B56876  26.392   0.327   6.597
 4279POPC   C3B56877  26.418   0.213   7.070
 4279POPC   C4B56878  26.731   0.211   7.432
 4280POPC   NC356879  43.758  25.108   5.255
 4280POPC   PO456880  43.851  25.736   5.285
 4280POPC   GL156881  43.911  25.405   5.683
 4280POPC   GL256882  43.579  25.435   5.805
 4280POPC   C1A56883  43.845  25.129   6.157
 4280POPC   D2A56884  43.951  25.010   6.628
 4280POPC   C3A56885  43.658  25.064   6.989
 4280POPC   C4A56886  43.606  25.155   7.436
 4280POPC   C1B56887  43.760  25.622   6.209
 4280POPC   C2B56888  43.805  25.502   6.646
 4280POPC   C3B56889  44.061  25.401   7.011
 4280POPC   C4B56890  44.338  25.476   7.359
 4281POPC   NC356891  28.013   6.451   5.427
 4281POPC   PO456892  27.372   6.751   5.395
 4281POPC   GL156893  27.450   6.411   5.693
 4281POPC   GL256894  27.368   6.671   5.928
 4281POPC   C1A56895  27.692   6.332   6.099
 4281POPC   D2A56896  27.832   6.487   6.511
 4281POPC   C3A56897  27.596   6.477   6.896
 4281POPC   C4A56898  27.697   6.591   7.308
 4281POPC   C1B56899  27.683   6.882   6.157
 4281POPC   C2B56900  27.649   6.950   6.603
 4281POPC   C3B56901  27.667   7.048   6.997
 4281POPC   C4B56902  27.403   7.003   7.306
 4282POPC   NC356903  34.168   1.115   5.535
 4282POPC   PO456904  33.710   1.501   5.550
 4282POPC   GL156905  33.831   1.241   5.904
 4282POPC   GL256906  33.705   0.917   6.006
 4282POPC   C1A56907  33.987   1.250   6.319
 4282POPC   D2A56908  33.756   1.395   6.696
 4282POPC   C3A56909  34.048   1.355   7.029
 4282POPC   C4A56910  34.001   1.372   7.508
 4282POPC   C1B56911  33.619   0.929   6.485
 4282POPC   C2B56912  33.550   0.859   6.923
 4282POPC   C3B56913  33.833   0.964   7.227
 4282POPC   C4B56914  34.286   0.967   7.317
 4283POPC   NC356915  37.241  10.099   5.476
 4283POPC   PO456916  37.644  10.689   5.379
 4283POPC   GL156917  37.535  10.553   5.790
 4283POPC   GL256918  37.782  10.324   5.766
 4283POPC   C1A56919  37.819  10.653   6.158
 4283POPC   D2A56920  38.017  10.704   6.542
 4283POPC   C3A56921  37.802  10.659   6.890
 4283POPC   C4A56922  37.709  10.413   7.200
 4283POPC   C1B56923  37.570  10.199   6.189
 4283POPC   C2B56924  37.593  10.201   6.664
 4283POPC   C3B56925  37.337  10.113   7.055
 4283POPC   C4B56926  37.398  10.161   7.535
 4284POPC   NC356927  13.255  18.213   5.566
 4284POPC   PO456928  12.691  18.437   5.633
 4284POPC   GL156929  12.931  18.535   5.944
 4284POPC   GL256930  13.069  18.210   6.039
 4284POPC   C1A56931  12.705  18.565   6.329
 4284POPC   D2A56932  12.633  18.425   6.725
 4284POPC   C3A56933  12.930  18.619   7.031
 4284POPC   C4A56934  12.822  18.670   7.448
 4284POPC   C1B56935  12.786  18.029   6.335
 4284POPC   C2B56936  12.834  17.935   6.753
 4284POPC   C3B56937  12.781  18.132   7.127
 4284POPC   C4B56938  13.070  18.067   7.423
 4285POPC   NC356939  29.619   1.988   5.142
 4285POPC   PO456940  30.133   1.648   5.435
 4285POPC   GL156941  29.964   1.872   5.833
 4285POPC   GL256942  29.763   2.134   5.782
 4285POPC   C1A56943  29.750   1.882   6.301
 4285POPC   D2A56944  29.719   1.884   6.807
 4285POPC   C3A56945  30.064   1.819   7.152
 4285POPC   C4A56946  30.322   1.663   7.592
 4285POPC   C1B56947  29.830   2.365   6.147
 4285POPC   C2B56948  29.668   2.343   6.542
 4285POPC   C3B56949  29.836   2.390   6.931
 4285POPC   C4B56950  29.758   2.215   7.317
 4286POPC   NC356951  28.843  27.335   5.355
 4286POPC   PO456952  29.037  27.985   5.427
 4286POPC   GL156953  28.838  27.853   5.830
 4286POPC   GL256954  28.737  27.491   5.841
 4286POPC   C1A56955  28.849  27.830   6.305
 4286POPC   D2A56956  28.738  27.940   6.758
 4286POPC   C3A56957  29.054  27.777   7.076
 4286POPC   C4A56958  29.379  27.441   7.047
 4286POPC   C1B56959  28.792  27.323   6.259
 4286POPC   C2B56960  28.974  27.446   6.669
 4286POPC   C3B56961  28.864  27.287   7.061
 4286POPC   C4B56962  28.773  26.863   7.184
 4287POPC   NC356963  41.446  42.855   5.343
 4287POPC   PO456964  41.743  43.493   5.299
 4287POPC   GL156965  41.578  43.212   5.712
 4287POPC   GL256966  41.306  42.941   5.803
 4287POPC   C1A56967  41.649  43.040   6.160
 4287POPC   D2A56968  41.833  43.196   6.570
 4287POPC   C3A56969  41.617  43.398   6.926
 4287POPC   C4A56970  41.764  43.222   7.311
 4287POPC   C1B56971  41.268  42.658   6.141
 4287POPC   C2B56972  41.437  42.672   6.539
 4287POPC   C3B56973  41.554  42.892   6.904
 4287POPC   C4B56974  41.428  42.782   7.288
 4288POPC   NC356975   9.160  35.530   5.618
 4288POPC   PO456976   8.898  36.074   5.336
 4288POPC   GL156977   8.917  36.102   5.784
 4288POPC   GL256978   9.243  36.024   5.802
 4288POPC   C1A56979   8.702  36.197   6.209
 4288POPC   D2A56980   8.558  36.011   6.620
 4288POPC   C3A56981   8.662  36.149   7.078
 4288POPC   C4A56982   8.741  36.118   7.574
 4288POPC   C1B56983   9.432  35.870   6.169
 4288POPC   C2B56984   9.360  35.706   6.565
 4288POPC   C3B56985   9.423  35.799   6.987
 4288POPC   C4B56986   9.148  36.081   7.238
 4289POPC   NC356987  33.715  29.341   5.475
 4289POPC   PO456988  34.266  29.008   5.418
 4289POPC   GL156989  34.001  29.079   5.791
 4289POPC   GL256990  34.160  29.388   5.803
 4289POPC   C1A56991  33.692  29.102   6.161
 4289POPC   D2A56992  33.505  29.015   6.597
 4289POPC   C3A56993  33.687  29.031   6.996
 4289POPC   C4A56994  33.555  29.095   7.412
 4289POPC   C1B56995  34.091  29.366   6.232
 4289POPC   C2B56996  33.895  29.363   6.608
 4289POPC   C3B56997  34.065  29.367   7.008
 4289POPC   C4B56998  33.986  29.613   7.332
 4290POPC   NC356999  28.410  29.270   5.444
 4290POPC   PO457000  28.268  28.612   5.351
 4290POPC   GL157001  28.182  28.853   5.719
 4290POPC   GL257002  27.956  29.129   5.619
 4290POPC   C1A57003  28.396  28.923   6.139
 4290POPC   D2A57004  28.518  29.175   6.488
 4290POPC   C3A57005  28.416  28.903   6.850
 4290POPC   C4A57006  28.501  29.059   7.248
 4290POPC   C1B57007  28.065  29.292   6.041
 4290POPC   C2B57008  28.002  29.230   6.506
 4290POPC   C3B57009  28.161  29.347   6.915
 4290POPC   C4B57010  28.181  29.448   7.326
 4291POPC   NC357011   6.445  20.146   5.629
 4291POPC   PO457012   6.647  19.681   5.192
 4291POPC   GL157013   6.659  19.687   5.725
 4291POPC   GL257014   6.902  19.925   5.884
 4291POPC   C1A57015   6.513  19.756   6.166
 4291POPC   D2A57016   6.408  19.827   6.585
 4291POPC   C3A57017   6.460  19.563   6.969
 4291POPC   C4A57018   6.598  19.788   7.356
 4291POPC   C1B57019   6.978  19.919   6.341
 4291POPC   C2B57020   6.908  19.694   6.732
 4291POPC   C3B57021   7.003  19.504   7.153
 4291POPC   C4B57022   7.015  19.564   7.635
 4292POPC   NC357023  10.998  43.631   5.570
 4292POPC   PO457024  11.244  44.260   5.506
 4292POPC   GL157025  11.289  43.979   5.833
 4292POPC   GL257026  11.490  43.678   5.685
 4292POPC   C1A57027  11.099  43.955   6.235
 4292POPC   D2A57028  11.366  44.003   6.578
 4292POPC   C3A57029  11.220  43.919   6.984
 4292POPC   C4A57030  11.364  44.057   7.432
 4292POPC   C1B57031  11.434  43.576   6.123
 4292POPC   C2B57032  11.566  43.526   6.539
 4292POPC   C3B57033  11.590  43.525   6.979
 4292POPC   C4B57034  11.337  43.571   7.344
 4293POPC   NC357035   5.410  38.868   5.683
 4293POPC   PO457036   5.934  38.556   5.368
 4293POPC   GL157037   5.804  38.528   5.761
 4293POPC   GL257038   5.596  38.233   5.732
 4293POPC   C1A57039   5.950  38.611   6.167
 4293POPC   D2A57040   5.929  38.397   6.545
 4293POPC   C3A57041   5.972  38.563   6.916
 4293POPC   C4A57042   5.862  38.513   7.321
 4293POPC   C1B57043   5.774  38.127   6.120
 4293POPC   C2B57044   5.635  37.979   6.530
 4293POPC   C3B57045   5.773  38.085   6.960
 4293POPC   C4B57046   5.475  38.108   7.266
 4294POPC   NC357047  40.859   3.613   5.434
 4294POPC   PO457048  40.480   3.209   5.735
 4294POPC   GL157049  40.766   3.550   5.916
 4294POPC   GL257050  41.136   3.499   5.874
 4294POPC   C1A57051  40.941   3.732   6.274
 4294POPC   D2A57052  40.774   3.520   6.583
 4294POPC   C3A57053  40.929   3.626   6.927
 4294POPC   C4A57054  40.803   3.813   7.301
 4294POPC   C1B57055  41.027   3.184   6.171
 4294POPC   C2B57056  40.971   3.047   6.565
 4294POPC   C3B57057  40.942   3.109   6.948
 4294POPC   C4B57058  40.958   3.306   7.311
 4295POPC   NC357059  28.878  42.563   5.276
 4295POPC   PO457060  29.449  42.082   5.385
 4295POPC   GL157061  29.437  42.367   5.759
 4295POPC   GL257062  29.077  42.471   5.811
 4295POPC   C1A57063  29.342  42.333   6.211
 4295POPC   D2A57064  29.059  42.248   6.563
 4295POPC   C3A57065  29.314  42.192   6.912
 4295POPC   C4A57066  29.188  42.187   7.317
 4295POPC   C1B57067  29.022  42.710   6.201
 4295POPC   C2B57068  29.188  42.722   6.601
 4295POPC   C3B57069  29.032  42.609   7.010
 4295POPC   C4B57070  28.876  42.823   7.386
 4296POPC   NC357071   8.348  40.966   5.524
 4296POPC   PO457072   7.966  40.397   5.295
 4296POPC   GL157073   7.999  40.564   5.756
 4296POPC   GL257074   8.152  40.825   5.942
 4296POPC   C1A57075   8.068  40.419   6.207
 4296POPC   D2A57076   8.358  40.610   6.512
 4296POPC   C3A57077   8.304  40.470   6.931
 4296POPC   C4A57078   8.298  40.583   7.363
 4296POPC   C1B57079   8.085  41.096   6.241
 4296POPC   C2B57080   8.248  41.123   6.624
 4296POPC   C3B57081   8.344  40.983   7.015
 4296POPC   C4B57082   8.029  41.018   7.310
 4297POPC   NC357083  13.338   1.524   5.566
 4297POPC   PO457084  13.246   0.885   5.477
 4297POPC   GL157085  13.490   0.984   5.846
 4297POPC   GL257086  13.795   0.787   5.899
 4297POPC   C1A57087  13.459   1.244   6.226
 4297POPC   D2A57088  13.717   1.280   6.613
 4297POPC   C3A57089  13.561   1.349   7.046
 4297POPC   C4A57090  13.464   1.123   7.434
 4297POPC   C1B57091  13.623   0.746   6.299
 4297POPC   C2B57092  13.600   0.767   6.726
 4297POPC   C3B57093  13.768   0.837   7.137
 4297POPC   C4B57094  13.777   0.752   7.605
 4298POPC   NC357095  36.034  15.987   5.267
 4298POPC   PO457096  36.752  15.967   5.486
 4298POPC   GL157097  36.363  16.008   5.711
 4298POPC   GL257098  36.039  15.824   5.762
 4298POPC   C1A57099  36.345  15.953   6.157
 4298POPC   D2A57100  36.127  15.928   6.529
 4298POPC   C3A57101  36.353  15.992   6.901
 4298POPC   C4A57102  36.158  15.968   7.293
 4298POPC   C1B57103  35.927  16.209   6.041
 4298POPC   C2B57104  36.008  16.417   6.438
 4298POPC   C3B57105  35.931  16.301   6.864
 4298POPC   C4B57106  35.683  16.198   7.212
 4299POPC   NC357107  32.669  12.085   5.493
 4299POPC   PO457108  33.381  11.851   5.562
 4299POPC   GL157109  33.032  11.953   5.845
 4299POPC   GL257110  32.882  11.656   5.996
 4299POPC   C1A57111  33.000  12.099   6.292
 4299POPC   D2A57112  33.224  12.227   6.699
 4299POPC   C3A57113  32.959  12.303   7.069
 4299POPC   C4A57114  32.958  12.243   7.525
 4299POPC   C1B57115  32.626  11.735   6.388
 4299POPC   C2B57116  32.810  11.908   6.782
 4299POPC   C3B57117  33.140  11.826   7.137
 4299POPC   C4B57118  33.313  11.863   7.596
 4300POPC   NC357119  32.813  15.513   5.427
 4300POPC   PO457120  33.148  14.960   5.432
 4300POPC   GL157121  33.093  15.270   5.788
 4300POPC   GL257122  33.374  15.195   5.968
 4300POPC   C1A57123  32.846  15.259   6.201
 4300POPC   D2A57124  32.777  15.475   6.634
 4300POPC   C3A57125  32.867  15.204   7.017
 4300POPC   C4A57126  32.775  14.984   7.444
 4300POPC   C1B57127  33.255  14.871   6.288
 4300POPC   C2B57128  33.414  14.759   6.737
 4300POPC   C3B57129  33.246  14.865   7.177
 4300POPC   C4B57130  33.251  14.975   7.637
 4301POPC   NC357131   1.700   5.173   5.515
 4301POPC   PO457132   2.374   5.184   5.394
 4301POPC   GL157133   2.161   5.092   5.801
 4301POPC   GL257134   2.430   5.062   6.005
 4301POPC   C1A57135   2.015   5.217   6.252
 4301POPC   D2A57136   2.048   5.222   6.720
 4301POPC   C3A57137   1.693   5.168   7.011
 4301POPC   C4A57138   1.445   5.318   7.372
 4301POPC   C1B57139   2.376   4.851   6.409
 4301POPC   C2B57140   2.471   4.929   6.828
 4301POPC   C3B57141   2.237   5.047   7.161
 4301POPC   C4B57142   2.033   5.403   7.320
 4302POPC   NC357143  33.731  17.008   5.582
 4302POPC   PO457144  33.896  16.373   5.573
 4302POPC   GL157145  33.682  16.528   5.920
 4302POPC   GL257146  33.404  16.731   5.844
 4302POPC   C1A57147  33.541  16.533   6.337
 4302POPC   D2A57148  33.728  16.799   6.650
 4302POPC   C3A57149  33.779  16.671   7.065
 4302POPC   C4A57150  33.517  16.670   7.415
 4302POPC   C1B57151  33.525  17.029   6.196
 4302POPC   C2B57152  33.517  17.278   6.577
 4302POPC   C3B57153  33.598  17.159   6.997
 4302POPC   C4B57154  33.271  17.117   7.271
 4303POPC   NC357155  41.735  22.052   5.429
 4303POPC   PO457156  41.290  22.529   5.480
 4303POPC   GL157157  41.423  22.218   5.782
 4303POPC   GL257158  41.387  21.830   5.730
 4303POPC   C1A57159  41.641  22.209   6.186
 4303POPC   D2A57160  41.850  22.185   6.592
 4303POPC   C3A57161  41.639  22.415   6.885
 4303POPC   C4A57162  41.598  22.204   7.245
 4303POPC   C1B57163  41.391  21.734   6.162
 4303POPC   C2B57164  41.426  21.845   6.581
 4303POPC   C3B57165  41.647  21.794   6.960
 4303POPC   C4B57166  41.330  21.793   7.312
 4304POPC   NC357167  19.541  32.698   5.344
 4304POPC   PO457168  19.623  33.419   5.313
 4304POPC   GL157169  19.679  33.094   5.678
 4304POPC   GL257170  19.564  32.715   5.843
 4304POPC   C1A57171  19.805  33.054   6.111
 4304POPC   D2A57172  19.582  33.143   6.480
 4304POPC   C3A57173  19.835  33.215   6.822
 4304POPC   C4A57174  19.749  33.232   7.248
 4304POPC   C1B57175  19.329  32.742   6.245
 4304POPC   C2B57176  19.292  32.674   6.708
 4304POPC   C3B57177  19.566  32.814   7.020
 4304POPC   C4B57178  19.866  32.711   7.315
 4305POPC   NC357179  21.816   5.564   5.350
 4305POPC   PO457180  22.224   6.102   5.349
 4305POPC   GL157181  22.235   5.915   5.749
 4305POPC   GL257182  22.559   5.878   5.876
 4305POPC   C1A57183  21.977   5.736   6.084
 4305POPC   D2A57184  21.859   5.803   6.525
 4305POPC   C3A57185  22.081   5.762   6.902
 4305POPC   C4A57186  21.909   5.667   7.276
 4305POPC   C1B57187  22.451   5.650   6.255
 4305POPC   C2B57188  22.552   5.752   6.665
 4305POPC   C3B57189  22.573   5.709   7.087
 4305POPC   C4B57190  22.367   5.993   7.343
 4306POPC   NC357191  11.640  30.633   5.433
 4306POPC   PO457192  11.107  30.850   5.221
 4306POPC   GL157193  11.137  30.854   5.720
 4306POPC   GL257194  11.432  30.732   5.882
 4306POPC   C1A57195  11.136  30.996   6.187
 4306POPC   D2A57196  11.328  30.828   6.579
 4306POPC   C3A57197  11.190  30.902   7.015
 4306POPC   C4A57198  11.403  30.881   7.476
 4306POPC   C1B57199  11.498  30.457   6.251
 4306POPC   C2B57200  11.528  30.368   6.704
 4306POPC   C3B57201  11.532  30.539   7.111
 4306POPC   C4B57202  11.843  30.629   7.447
 4307POPC   NC357203   0.957   0.041   5.412
 4307POPC   PO457204   1.436  44.565   5.319
 4307POPC   GL157205   1.295  44.671   5.739
 4307POPC   GL257206   0.944  44.775   5.876
 4307POPC   C1A57207   1.414  44.708   6.146
 4307POPC   D2A57208   1.181  44.883   6.498
 4307POPC   C3A57209   1.222  44.703   6.906
 4307POPC   C4A57210   1.362  44.883   7.305
 4307POPC   C1B57211   0.932  44.517   6.264
 4307POPC   C2B57212   0.917  44.331   6.706
 4307POPC   C3B57213   0.820  44.507   7.146
 4307POPC   C4B57214   0.965  44.266   7.525
 4308POPC   NC357215  17.100  25.963   5.509
 4308POPC   PO457216  16.502  25.834   5.389
 4308POPC   GL157217  16.698  25.984   5.828
 4308POPC   GL257218  16.957  25.748   5.951
 4308POPC   C1A57219  16.852  26.185   6.276
 4308POPC   D2A57220  16.751  26.123   6.760
 4308POPC   C3A57221  16.465  26.225   7.154
 4308POPC   C4A57222  16.318  26.314   7.599
 4308POPC   C1B57223  16.609  25.725   6.253
 4308POPC   C2B57224  16.600  25.632   6.681
 4308POPC   C3B57225  16.684  25.745   7.102
 4308POPC   C4B57226  17.051  25.604   7.378
 4309POPC   NC357227  21.068   1.538   5.526
 4309POPC   PO457228  21.724   1.929   5.432
 4309POPC   GL157229  21.485   1.912   5.806
 4309POPC   GL257230  21.744   1.777   5.982
 4309POPC   C1A57231  21.261   2.126   6.169
 4309POPC   D2A57232  21.412   2.280   6.584
 4309POPC   C3A57233  21.374   2.132   7.050
 4309POPC   C4A57234  21.405   2.183   7.522
 4309POPC   C1B57235  21.475   1.713   6.350
 4309POPC   C2B57236  21.325   1.698   6.771
 4309POPC   C3B57237  21.494   1.605   7.176
 4309POPC   C4B57238  21.294   1.441   7.537
 4310POPC   NC357239  41.129  25.244   5.440
 4310POPC   PO457240  40.488  25.483   5.384
 4310POPC   GL157241  40.661  25.286   5.740
 4310POPC   GL257242  40.493  25.579   5.915
 4310POPC   C1A57243  40.926  25.136   6.126
 4310POPC   D2A57244  40.845  25.250   6.593
 4310POPC   C3A57245  41.016  25.095   7.046
 4310POPC   C4A57246  41.029  25.039   7.550
 4310POPC   C1B57247  40.436  25.284   6.216
 4310POPC   C2B57248  40.274  25.165   6.599
 4310POPC   C3B57249  40.511  25.117   6.936
 4310POPC   C4B57250  40.590  25.185   7.336
 4311POPC   NC357251  29.367   5.716   5.648
 4311POPC   PO457252  29.102   6.294   5.438
 4311POPC   GL157253  29.288   6.213   5.869
 4311POPC   GL257254  29.061   5.964   5.984
 4311POPC   C1A57255  29.346   6.173   6.345
 4311POPC   D2A57256  29.018   6.004   6.632
 4311POPC   C3A57257  29.084   6.097   7.030
 4311POPC   C4A57258  29.336   6.107   7.335
 4311POPC   C1B57259  29.230   5.673   6.308
 4311POPC   C2B57260  29.367   5.476   6.661
 4311POPC   C3B57261  29.259   5.603   7.037
 4311POPC   C4B57262  29.190   5.595   7.443
 4312POPC   NC357263  11.062  33.492   5.321
 4312POPC   PO457264  11.329  34.113   4.990
 4312POPC   GL157265  11.472  33.883   5.473
 4312POPC   GL257266  11.238  33.754   5.710
 4312POPC   C1A57267  11.661  33.812   5.956
 4312POPC   D2A57268  11.540  33.628   6.384
 4312POPC   C3A57269  11.593  33.580   6.850
 4312POPC   C4A57270  11.530  33.863   7.176
 4312POPC   C1B57271  11.181  33.971   6.107
 4312POPC   C2B57272  11.077  33.974   6.532
 4312POPC   C3B57273  11.061  33.811   6.937
 4312POPC   C4B57274  10.792  33.683   7.219
 4313POPC   NC357275  40.953  29.499   5.304
 4313POPC   PO457276  41.022  28.868   5.387
 4313POPC   GL157277  40.767  29.106   5.699
 4313POPC   GL257278  40.660  29.475   5.755
 4313POPC   C1A57279  40.701  29.083   6.148
 4313POPC   D2A57280  40.785  29.164   6.585
 4313POPC   C3A57281  40.755  28.938   6.962
 4313POPC   C4A57282  40.492  29.046   7.287
 4313POPC   C1B57283  40.864  29.599   6.191
 4313POPC   C2B57284  40.896  29.663   6.666
 4313POPC   C3B57285  40.844  29.448   7.074
 4313POPC   C4B57286  40.874  29.456   7.539
 4314POPC   NC357287  29.358  36.074   5.387
 4314POPC   PO457288  28.806  35.770   5.362
 4314POPC   GL157289  29.038  35.897   5.732
 4314POPC   GL257290  28.899  36.227   5.648
 4314POPC   C1A57291  29.281  35.828   6.157
 4314POPC   D2A57292  29.436  36.022   6.572
 4314POPC   C3A57293  29.266  35.893   6.951
 4314POPC   C4A57294  29.080  35.944   7.345
 4314POPC   C1B57295  28.956  36.231   6.111
 4314POPC   C2B57296  28.940  36.050   6.543
 4314POPC   C3B57297  28.935  36.276   6.968
 4314POPC   C4B57298  28.719  36.382   7.366
 4315POPC   NC357299   3.873  43.627   5.504
 4315POPC   PO457300   3.438  44.075   5.433
 4315POPC   GL157301   3.451  43.857   5.793
 4315POPC   GL257302   3.779  44.006   5.818
 4315POPC   C1A57303   3.486  43.963   6.238
 4315POPC   D2A57304   3.483  43.720   6.627
 4315POPC   C3A57305   3.445  43.862   7.044
 4315POPC   C4A57306   3.456  43.591   7.373
 4315POPC   C1B57307   3.980  44.137   6.129
 4315POPC   C2B57308   3.889  44.106   6.544
 4315POPC   C3B57309   3.952  44.054   6.980
 4315POPC   C4B57310   3.848  43.940   7.422
 4316POPC   NC357311   2.778   7.876   5.310
 4316POPC   PO457312   2.870   7.226   5.339
 4316POPC   GL157313   2.912   7.260   5.799
 4316POPC   GL257314   3.204   7.457   5.938
 4316POPC   C1A57315   2.614   7.299   6.168
 4316POPC   D2A57316   2.542   7.472   6.597
 4316POPC   C3A57317   2.858   7.383   6.884
 4316POPC   C4A57318   2.699   7.071   7.176
 4316POPC   C1B57319   2.982   7.619   6.305
 4316POPC   C2B57320   2.861   7.869   6.688
 4316POPC   C3B57321   2.906   7.904   7.108
 4316POPC   C4B57322   2.739   7.586   7.325
 4317POPC   NC357323  15.827   1.405   5.275
 4317POPC   PO457324  16.213   0.894   5.429
 4317POPC   GL157325  16.016   0.985   5.807
 4317POPC   GL257326  16.050   1.309   5.723
 4317POPC   C1A57327  15.812   1.184   6.170
 4317POPC   D2A57328  15.681   1.445   6.531
 4317POPC   C3A57329  15.821   1.242   6.918
 4317POPC   C4A57330  15.913   1.061   7.312
 4317POPC   C1B57331  16.260   1.495   6.042
 4317POPC   C2B57332  16.318   1.552   6.441
 4317POPC   C3B57333  16.138   1.598   6.789
 4317POPC   C4B57334  16.202   1.540   7.205
 4318POPC   NC357335  33.318   9.737   5.351
 4318POPC   PO457336  32.661   9.891   5.304
 4318POPC   GL157337  32.760   9.563   5.674
 4318POPC   GL257338  33.104   9.534   5.788
 4318POPC   C1A57339  32.752   9.512   6.142
 4318POPC   D2A57340  32.773   9.864   6.436
 4318POPC   C3A57341  33.004   9.808   6.808
 4318POPC   C4A57342  32.917   9.501   7.119
 4318POPC   C1B57343  33.116   9.932   6.059
 4318POPC   C2B57344  33.354  10.008   6.463
 4318POPC   C3B57345  33.516   9.873   6.884
 4318POPC   C4B57346  33.267   9.884   7.265
 4319POPC   NC357347   6.860  37.681   5.529
 4319POPC   PO457348   6.346  37.979   5.327
 4319POPC   GL157349   6.525  38.041   5.761
 4319POPC   GL257350   6.873  38.163   5.829
 4319POPC   C1A57351   6.514  37.875   6.209
 4319POPC   D2A57352   6.415  37.504   6.514
 4319POPC   C3A57353   6.495  37.403   6.971
 4319POPC   C4A57354   6.561  37.514   7.444
 4319POPC   C1B57355   7.035  37.915   6.195
 4319POPC   C2B57356   6.864  37.817   6.626
 4319POPC   C3B57357   6.876  37.724   7.077
 4319POPC   C4B57358   7.029  37.655   7.495
 4320POPC   NC357359  34.675  10.209   5.627
 4320POPC   PO457360  34.806  10.891   5.571
 4320POPC   GL157361  34.686  10.812   5.966
 4320POPC   GL257362  34.415  10.614   5.929
 4320POPC   C1A57363  34.717  10.548   6.350
 4320POPC   D2A57364  34.487  10.293   6.675
 4320POPC   C3A57365  34.707  10.399   7.047
 4320POPC   C4A57366  34.860  10.337   7.489
 4320POPC   C1B57367  34.148  10.500   6.285
 4320POPC   C2B57368  34.124  10.654   6.710
 4320POPC   C3B57369  34.177  10.455   7.104
 4320POPC   C4B57370  34.389  10.524   7.481
 4321POPC   NC357371   2.207   9.152   5.588
 4321POPC   PO457372   1.526   9.059   5.426
 4321POPC   GL157373   1.788   8.927   5.806
 4321POPC   GL257374   1.968   9.184   6.044
 4321POPC   C1A57375   1.746   8.750   6.222
 4321POPC   D2A57376   1.581   8.665   6.646
 4321POPC   C3A57377   1.788   8.843   7.000
 4321POPC   C4A57378   2.112   8.663   7.216
 4321POPC   C1B57379   2.273   9.311   6.414
 4321POPC   C2B57380   2.357   9.238   6.889
 4321POPC   C3B57381   2.078   9.227   7.259
 4321POPC   C4B57382   2.097   9.387   7.694
 4322POPC   NC357383  34.257  26.979   5.405
 4322POPC   PO457384  33.575  26.789   5.355
 4322POPC   GL157385  33.776  26.777   5.787
 4322POPC   GL257386  34.023  27.031   5.862
 4322POPC   C1A57387  33.696  26.943   6.241
 4322POPC   D2A57388  33.879  27.041   6.653
 4322POPC   C3A57389  33.625  26.840   6.959
 4322POPC   C4A57390  33.456  26.912   7.351
 4322POPC   C1B57391  34.266  27.001   6.269
 4322POPC   C2B57392  34.349  26.753   6.588
 4322POPC   C3B57393  34.144  26.675   6.951
 4322POPC   C4B57394  33.927  26.704   7.338
 4323POPC   NC357395  19.633  43.741   5.242
 4323POPC   PO457396  20.100  43.443   5.606
 4323POPC   GL157397  20.273  43.256   5.950
 4323POPC   GL257398  20.336  42.921   5.807
 4323POPC   C1A57399  20.290  43.325   6.428
 4323POPC   D2A57400  19.997  43.406   6.777
 4323POPC   C3A57401  20.067  43.525   7.181
 4323POPC   C4A57402  19.864  43.361   7.612
 4323POPC   C1B57403  20.220  42.839   6.279
 4323POPC   C2B57404  20.146  42.912   6.748
 4323POPC   C3B57405  19.979  43.028   7.181
 4323POPC   C4B57406  20.065  42.887   7.624
 4324POPC   NC357407  30.487  42.357   5.481
 4324POPC   PO457408  31.095  42.585   5.431
 4324POPC   GL157409  30.820  42.523   5.833
 4324POPC   GL257410  30.778  42.145   5.882
 4324POPC   C1A57411  30.553  42.435   6.236
 4324POPC   D2A57412  30.660  42.350   6.710
 4324POPC   C3A57413  30.395  42.306   7.109
 4324POPC   C4A57414  30.369  42.406   7.592
 4324POPC   C1B57415  30.683  41.927   6.294
 4324POPC   C2B57416  30.510  41.854   6.710
 4324POPC   C3B57417  30.773  41.944   7.057
 4324POPC   C4B57418  30.855  42.287   7.366
 4325POPC   NC357419  42.005   2.457   5.405
 4325POPC   PO457420  42.470   2.972   5.372
 4325POPC   GL157421  42.540   3.056   5.797
 4325POPC   GL257422  42.166   3.106   5.803
 4325POPC   C1A57423  42.526   2.730   6.136
 4325POPC   D2A57424  42.279   2.561   6.501
 4325POPC   C3A57425  42.450   2.625   6.922
 4325POPC   C4A57426  42.699   2.944   7.157
 4325POPC   C1B57427  42.202   3.115   6.243
 4325POPC   C2B57428  42.507   3.046   6.551
 4325POPC   C3B57429  42.319   3.116   6.873
 4325POPC   C4B57430  42.194   3.063   7.252
 4326POPC   NC357431  32.374  28.467   5.312
 4326POPC   PO457432  31.916  27.979   5.493
 4326POPC   GL157433  32.073  28.187   5.863
 4326POPC   GL257434  32.368  28.377   5.803
 4326POPC   C1A57435  32.229  28.072   6.340
 4326POPC   D2A57436  32.214  28.341   6.751
 4326POPC   C3A57437  32.122  28.140   7.156
 4326POPC   C4A57438  31.981  27.970   7.567
 4326POPC   C1B57439  32.279  28.535   6.192
 4326POPC   C2B57440  32.577  28.613   6.517
 4326POPC   C3B57441  32.562  28.757   6.938
 4326POPC   C4B57442  32.252  28.662   7.198
 4327POPC   NC357443  33.332   7.242   5.453
 4327POPC   PO457444  32.735   7.434   5.349
 4327POPC   GL157445  33.022   7.587   5.722
 4327POPC   GL257446  33.120   7.963   5.789
 4327POPC   C1A57447  33.159   7.560   6.140
 4327POPC   D2A57448  33.177   7.580   6.577
 4327POPC   C3A57449  33.107   7.228   6.845
 4327POPC   C4A57450  32.950   7.179   7.256
 4327POPC   C1B57451  32.801   7.932   6.117
 4327POPC   C2B57452  32.710   7.814   6.557
 4327POPC   C3B57453  32.861   7.667   6.970
 4327POPC   C4B57454  33.247   7.702   7.188
 4328POPC   NC357455  37.105  22.631   5.542
 4328POPC   PO457456  36.614  23.059   5.516
 4328POPC   GL157457  36.919  23.026   5.864
 4328POPC   GL257458  37.016  22.704   6.040
 4328POPC   C1A57459  37.128  23.226   6.205
 4328POPC   D2A57460  37.312  23.153   6.598
 4328POPC   C3A57461  37.033  23.115   6.919
 4328POPC   C4A57462  36.747  23.368   7.131
 4328POPC   C1B57463  36.926  22.818   6.463
 4328POPC   C2B57464  36.600  22.886   6.738
 4328POPC   C3B57465  36.635  22.862   7.148
 4328POPC   C4B57466  37.012  22.608   7.013
 4329POPC   NC357467  32.718   4.427   5.614
 4329POPC   PO457468  32.829   3.974   5.197
 4329POPC   GL157469  32.848   3.934   5.720
 4329POPC   GL257470  33.089   4.179   5.867
 4329POPC   C1A57471  32.963   3.858   6.216
 4329POPC   D2A57472  33.285   3.903   6.599
 4329POPC   C3A57473  33.137   3.930   7.037
 4329POPC   C4A57474  32.757   4.063   7.224
 4329POPC   C1B57475  32.901   4.348   6.263
 4329POPC   C2B57476  32.867   4.217   6.687
 4329POPC   C3B57477  33.014   4.443   7.013
 4329POPC   C4B57478  33.008   4.464   7.415
 4330POPC   NC357479  17.517  38.584   5.058
 4330POPC   PO457480  17.783  38.681   5.462
 4330POPC   GL157481  17.746  38.520   5.915
 4330POPC   GL257482  17.860  38.181   5.969
 4330POPC   C1A57483  17.545  38.403   6.327
 4330POPC   D2A57484  17.468  38.266   6.776
 4330POPC   C3A57485  17.527  38.569   7.133
 4330POPC   C4A57486  17.903  38.823   7.201
 4330POPC   C1B57487  17.777  37.912   6.333
 4330POPC   C2B57488  17.862  37.931   6.767
 4330POPC   C3B57489  17.943  38.270   7.049
 4330POPC   C4B57490  18.027  38.392   7.476
 4331POPC   NC357491  34.107  21.409   5.422
 4331POPC   PO457492  33.541  21.714   5.348
 4331POPC   GL157493  33.747  21.544   5.778
 4331POPC   GL257494  34.123  21.526   5.912
 4331POPC   C1A57495  33.775  21.238   6.165
 4331POPC   D2A57496  33.869  21.109   6.612
 4331POPC   C3A57497  33.629  21.184   6.983
 4331POPC   C4A57498  33.737  21.422   7.355
 4331POPC   C1B57499  34.081  21.579   6.389
 4331POPC   C2B57500  33.780  21.623   6.764
 4331POPC   C3B57501  33.512  21.812   7.129
 4331POPC   C4B57502  33.639  21.939   7.571
 4332POPC   NC357503  32.105  16.332   5.418
 4332POPC   PO457504  32.410  15.726   5.429
 4332POPC   GL157505  32.294  15.898   5.834
 4332POPC   GL257506  32.237  16.255   5.905
 4332POPC   C1A57507  32.530  16.031   6.226
 4332POPC   D2A57508  32.353  16.234   6.574
 4332POPC   C3A57509  32.469  15.962   6.865
 4332POPC   C4A57510  32.573  16.008   7.259
 4332POPC   C1B57511  32.002  16.023   6.264
 4332POPC   C2B57512  31.963  15.899   6.728
 4332POPC   C3B57513  32.059  15.947   7.182
 4332POPC   C4B57514  31.878  16.003   7.611
 4333POPC   NC357515   6.743  13.809   5.479
 4333POPC   PO457516   6.427  13.267   5.547
 4333POPC   GL157517   6.478  13.599   5.864
 4333POPC   GL257518   6.835  13.681   5.950
 4333POPC   C1A57519   6.496  13.540   6.304
 4333POPC   D2A57520   6.301  13.594   6.662
 4333POPC   C3A57521   6.554  13.490   6.906
 4333POPC   C4A57522   6.489  13.434   7.291
 4333POPC   C1B57523   6.920  13.906   6.316
 4333POPC   C2B57524   6.920  13.918   6.763
 4333POPC   C3B57525   6.904  14.162   7.123
 4333POPC   C4B57526   6.648  14.041   7.449
 4334POPC   NC357527  43.585  22.402   5.611
 4334POPC   PO457528  44.010  21.908   5.273
 4334POPC   GL157529  43.986  22.030   5.735
 4334POPC   GL257530  44.147  21.743   5.807
 4334POPC   C1A57531  43.911  22.174   6.214
 4334POPC   D2A57532  43.752  22.243   6.658
 4334POPC   C3A57533  44.111  22.348   6.899
 4334POPC   C4A57534  44.244  22.258   7.294
 4334POPC   C1B57535  43.910  21.671   6.152
 4334POPC   C2B57536  43.633  21.778   6.477
 4334POPC   C3B57537  43.700  21.758   6.893
 4334POPC   C4B57538  43.768  22.082   7.178
 4335POPC   NC357539  23.514   7.201   5.368
 4335POPC   PO457540  23.995   7.552   5.596
 4335POPC   GL157541  23.753   7.644   5.911
 4335POPC   GL257542  23.497   7.416   5.833
 4335POPC   C1A57543  23.848   7.458   6.290
 4335POPC   D2A57544  23.820   7.203   6.628
 4335POPC   C3A57545  23.926   7.420   6.969
 4335POPC   C4A57546  23.671   7.629   7.256
 4335POPC   C1B57547  23.353   7.418   6.236
 4335POPC   C2B57548  23.260   7.190   6.574
 4335POPC   C3B57549  23.404   7.317   6.945
 4335POPC   C4B57550  23.291   7.289   7.366
 4336POPC   NC357551  15.251   6.286   5.452
 4336POPC   PO457552  15.063   5.576   5.438
 4336POPC   GL157553  15.268   5.741   5.805
 4336POPC   GL257554  15.089   6.037   5.909
 4336POPC   C1A57555  15.391   5.675   6.217
 4336POPC   D2A57556  15.101   5.865   6.512
 4336POPC   C3A57557  15.216   5.935   6.928
 4336POPC   C4A57558  15.236   5.724   7.307
 4336POPC   C1B57559  15.360   6.189   6.196
 4336POPC   C2B57560  15.538   6.200   6.595
 4336POPC   C3B57561  15.422   6.382   6.991
 4336POPC   C4B57562  15.205   6.246   7.370
 4337POPC   NC357563  28.063   2.426   5.683
 4337POPC   PO457564  28.329   1.936   5.392
 4337POPC   GL157565  28.271   1.945   5.849
 4337POPC   GL257566  28.596   1.884   6.003
 4337POPC   C1A57567  28.205   1.811   6.316
 4337POPC   D2A57568  28.458   1.975   6.650
 4337POPC   C3A57569  28.244   1.962   7.024
 4337POPC   C4A57570  28.174   1.883   7.498
 4337POPC   C1B57571  28.808   2.236   6.246
 4337POPC   C2B57572  28.647   2.457   6.626
 4337POPC   C3B57573  28.812   2.320   7.025
 4337POPC   C4B57574  28.682   1.935   7.273
 4338POPC   NC357575  16.343  18.882   5.439
 4338POPC   PO457576  16.331  19.494   5.589
 4338POPC   GL157577  16.619  19.326   5.878
 4338POPC   GL257578  16.458  19.027   5.933
 4338POPC   C1A57579  16.751  19.181   6.315
 4338POPC   D2A57580  16.544  19.028   6.701
 4338POPC   C3A57581  16.823  19.084   7.092
 4338POPC   C4A57582  17.075  19.317   7.412
 4338POPC   C1B57583  16.274  19.353   6.269
 4338POPC   C2B57584  16.261  19.478   6.726
 4338POPC   C3B57585  16.335  19.237   7.122
 4338POPC   C4B57586  16.559  19.446   7.475
 4339POPC   NC357587   4.191  43.103   5.271
 4339POPC   PO457588   3.549  43.324   5.395
 4339POPC   GL157589   3.681  43.254   5.830
 4339POPC   GL257590   3.461  42.986   5.894
 4339POPC   C1A57591   3.733  43.161   6.291
 4339POPC   D2A57592   3.466  43.197   6.619
 4339POPC   C3A57593   3.614  43.325   6.976
 4339POPC   C4A57594   3.715  42.961   7.164
 4339POPC   C1B57595   3.187  43.002   6.217
 4339POPC   C2B57596   3.103  42.820   6.607
 4339POPC   C3B57597   3.214  42.943   7.014
 4339POPC   C4B57598   3.165  42.745   7.411
 4340POPC   NC357599  22.988  29.177   5.202
 4340POPC   PO457600  22.901  28.528   5.202
 4340POPC   GL157601  22.842  28.981   5.615
 4340POPC   GL257602  23.042  29.345   5.681
 4340POPC   C1A57603  22.936  29.089   6.100
 4340POPC   D2A57604  22.927  29.275   6.531
 4340POPC   C3A57605  23.050  29.041   6.899
 4340POPC   C4A57606  22.838  29.148   7.279
 4340POPC   C1B57607  23.021  29.598   6.108
 4340POPC   C2B57608  23.019  29.775   6.542
 4340POPC   C3B57609  23.001  29.569   6.952
 4340POPC   C4B57610  23.205  29.526   7.311
 4341POPC   NC357611  17.431   9.314   5.458
 4341POPC   PO457612  17.498   8.673   5.279
 4341POPC   GL157613  17.441   8.829   5.724
 4341POPC   GL257614  17.709   9.048   5.817
 4341POPC   C1A57615  17.445   8.902   6.205
 4341POPC   D2A57616  17.735   8.897   6.556
 4341POPC   C3A57617  17.523   8.870   6.932
 4341POPC   C4A57618  17.350   8.956   7.338
 4341POPC   C1B57619  17.854   9.264   6.224
 4341POPC   C2B57620  17.862   9.393   6.691
 4341POPC   C3B57621  17.782   9.278   7.139
 4341POPC   C4B57622  17.719   9.164   7.593
 4342POPC   NC357623  20.995  26.448   5.540
 4342POPC   PO457624  20.337  26.579   5.302
 4342POPC   GL157625  20.454  26.800   5.727
 4342POPC   GL257626  20.806  26.900   5.757
 4342POPC   C1A57627  20.591  26.780   6.200
 4342POPC   D2A57628  20.879  26.612   6.536
 4342POPC   C3A57629  20.698  26.732   6.935
 4342POPC   C4A57630  20.244  26.732   7.012
 4342POPC   C1B57631  20.878  27.203   6.115
 4342POPC   C2B57632  20.817  27.109   6.555
 4342POPC   C3B57633  20.870  27.262   6.968
 4342POPC   C4B57634  20.826  27.014   7.353
 4343POPC   NC357635  44.567   7.920   5.347
 4343POPC   PO457636  44.767   8.551   5.543
 4343POPC   GL157637  44.828   8.160   5.814
 4343POPC   GL257638  44.656   7.822   5.827
 4343POPC   C1A57639  44.692   8.152   6.259
 4343POPC   D2A57640  44.660   8.180   6.722
 4343POPC   C3A57641  44.874   8.375   7.086
 4343POPC   C4A57642  44.920   8.213   7.513
 4343POPC   C1B57643  44.343   7.783   6.136
 4343POPC   C2B57644  44.454   7.726   6.556
 4343POPC   C3B57645  44.318   7.793   6.957
 4343POPC   C4B57646  44.395   8.153   7.159
 4344POPC   NC357647  13.477  23.738   5.130
 4344POPC   PO457648  13.649  22.968   5.262
 4344POPC   GL157649  13.707  23.002   5.710
 4344POPC   GL257650  13.947  23.241   5.803
 4344POPC   C1A57651  13.637  23.008   6.157
 4344POPC   D2A57652  13.449  22.835   6.546
 4344POPC   C3A57653  13.537  22.904   6.978
 4344POPC   C4A57654  13.233  23.017   7.299
 4344POPC   C1B57655  14.105  23.342   6.175
 4344POPC   C2B57656  13.810  23.385   6.457
 4344POPC   C3B57657  13.735  23.370   6.837
 4344POPC   C4B57658  13.592  23.364   7.218
 4345POPC   NC357659   9.557  30.516   5.335
 4345POPC   PO457660  10.181  30.697   5.456
 4345POPC   GL157661   9.859  30.769   5.763
 4345POPC   GL257662   9.545  30.592   5.858
 4345POPC   C1A57663   9.910  30.705   6.206
 4345POPC   D2A57664   9.757  30.489   6.553
 4345POPC   C3A57665   9.923  30.642   6.943
 4345POPC   C4A57666   9.863  31.051   7.135
 4345POPC   C1B57667   9.397  30.220   6.132
 4345POPC   C2B57668   9.269  30.207   6.570
 4345POPC   C3B57669   9.436  30.389   6.931
 4345POPC   C4B57670   9.511  30.677   7.228
 4346POPC   NC357671  41.621  33.658   5.373
 4346POPC   PO457672  41.088  33.917   5.538
 4346POPC   GL157673  41.339  33.593   5.810
 4346POPC   GL257674  41.664  33.735   5.867
 4346POPC   C1A57675  41.428  33.583   6.286
 4346POPC   D2A57676  41.160  33.837   6.556
 4346POPC   C3A57677  41.293  33.972   6.964
 4346POPC   C4A57678  41.516  33.662   7.162
 4346POPC   C1B57679  41.436  34.054   6.137
 4346POPC   C2B57680  41.535  34.211   6.559
 4346POPC   C3B57681  41.547  34.408   6.983
 4346POPC   C4B57682  41.839  34.447   7.332
 4347POPC   NC357683  27.984  20.033   5.498
 4347POPC   PO457684  28.325  19.488   5.538
 4347POPC   GL157685  28.348  19.845   5.822
 4347POPC   GL257686  28.050  19.718   5.933
 4347POPC   C1A57687  28.249  20.047   6.243
 4347POPC   D2A57688  28.156  19.913   6.644
 4347POPC   C3A57689  28.359  20.054   7.004
 4347POPC   C4A57690  28.471  19.759   7.329
 4347POPC   C1B57691  27.912  19.426   6.265
 4347POPC   C2B57692  27.999  19.435   6.712
 4347POPC   C3B57693  27.994  19.703   7.091
 4347POPC   C4B57694  27.975  19.848   7.504
 4348POPC   NC357695  29.478  11.516   5.512
 4348POPC   PO457696  29.727  10.889   5.543
 4348POPC   GL157697  29.755  11.214   5.824
 4348POPC   GL257698  29.410  11.140   5.873
 4348POPC   C1A57699  29.976  11.296   6.194
 4348POPC   D2A57700  30.278  11.184   6.440
 4348POPC   C3A57701  30.210  11.192   6.869
 4348POPC   C4A57702  30.026  11.503   7.129
 4348POPC   C1B57703  29.596  10.927   6.220
 4348POPC   C2B57704  29.841  10.936   6.598
 4348POPC   C3B57705  29.737  11.060   7.026
 4348POPC   C4B57706  29.591  11.086   7.460
 4349POPC   NC357707  31.846  20.667   5.572
 4349POPC   PO457708  31.282  20.611   5.391
 4349POPC   GL157709  31.400  20.560   5.828
 4349POPC   GL257710  31.645  20.322   5.908
 4349POPC   C1A57711  31.276  20.654   6.259
 4349POPC   D2A57712  31.168  20.460   6.668
 4349POPC   C3A57713  31.315  20.606   7.079
 4349POPC   C4A57714  31.611  20.847   7.363
 4349POPC   C1B57715  31.613  20.298   6.372
 4349POPC   C2B57716  31.647  20.312   6.796
 4349POPC   C3B57717  31.741  20.349   7.214
 4349POPC   C4B57718  31.860  20.237   7.613
 4350POPC   NC357719  16.424  13.337   5.498
 4350POPC   PO457720  17.077  13.239   5.428
 4350POPC   GL157721  16.853  13.417   5.826
 4350POPC   GL257722  16.616  13.714   5.816
 4350POPC   C1A57723  16.701  13.514   6.273
 4350POPC   D2A57724  16.387  13.528   6.616
 4350POPC   C3A57725  16.601  13.651   7.009
 4350POPC   C4A57726  17.054  13.627   7.093
 4350POPC   C1B57727  16.669  14.013   6.185
 4350POPC   C2B57728  16.619  14.005   6.636
 4350POPC   C3B57729  16.822  14.094   7.060
 4350POPC   C4B57730  16.800  13.876   7.463
 4351POPC   NC357731  33.948  28.665   5.448
 4351POPC   PO457732  34.078  28.026   5.439
 4351POPC   GL157733  33.799  28.262   5.782
 4351POPC   GL257734  33.824  28.607   5.917
 4351POPC   C1A57735  33.835  28.255   6.276
 4351POPC   D2A57736  33.722  28.096   6.694
 4351POPC   C3A57737  33.829  28.105   7.133
 4351POPC   C4A57738  33.743  28.153   7.565
 4351POPC   C1B57739  33.505  28.650   6.190
 4351POPC   C2B57740  33.419  28.498   6.544
 4351POPC   C3B57741  33.562  28.551   6.907
 4351POPC   C4B57742  33.705  28.605   7.288
 4352POPC   NC357743   4.766  29.585   5.305
 4352POPC   PO457744   5.245  29.171   5.296
 4352POPC   GL157745   5.004  29.121   5.755
 4352POPC   GL257746   4.797  29.404   5.901
 4352POPC   C1A57747   4.842  28.952   6.167
 4352POPC   D2A57748   5.001  29.066   6.566
 4352POPC   C3A57749   4.945  29.084   7.023
 4352POPC   C4A57750   5.148  29.014   7.418
 4352POPC   C1B57751   4.708  29.445   6.360
 4352POPC   C2B57752   4.727  29.485   6.814
 4352POPC   C3B57753   5.007  29.569   7.163
 4352POPC   C4B57754   5.054  29.491   7.627
 4353POPC   NC357755  20.112   7.518   5.061
 4353POPC   PO457756  19.807   7.776   5.620
 4353POPC   GL157757  19.861   7.402   5.800
 4353POPC   GL257758  19.575   7.459   5.965
 4353POPC   C1A57759  19.887   7.155   6.196
 4353POPC   D2A57760  19.837   7.331   6.603
 4353POPC   C3A57761  19.973   7.245   6.997
 4353POPC   C4A57762  20.197   7.625   7.012
 4353POPC   C1B57763  19.700   7.702   6.269
 4353POPC   C2B57764  19.556   7.777   6.655
 4353POPC   C3B57765  19.548   7.575   7.013
 4353POPC   C4B57766  19.295   7.361   7.272
 4354POPC   NC357767  33.389   1.820   5.497
 4354POPC   PO457768  32.864   2.163   5.397
 4354POPC   GL157769  33.083   2.107   5.789
 4354POPC   GL257770  33.354   2.321   5.850
 4354POPC   C1A57771  33.297   1.906   6.165
 4354POPC   D2A57772  33.236   1.690   6.558
 4354POPC   C3A57773  33.297   1.848   6.960
 4354POPC   C4A57774  33.129   1.673   7.369
 4354POPC   C1B57775  33.107   2.388   6.205
 4354POPC   C2B57776  33.304   2.277   6.547
 4354POPC   C3B57777  33.173   2.420   6.894
 4354POPC   C4B57778  33.263   2.289   7.240
 4355POPC   NC357779  28.523  33.616   5.232
 4355POPC   PO457780  29.182  33.673   5.427
 4355POPC   GL157781  28.827  33.710   5.727
 4355POPC   GL257782  28.591  33.445   5.786
 4355POPC   C1A57783  28.872  33.948   6.116
 4355POPC   D2A57784  29.144  33.856   6.489
 4355POPC   C3A57785  28.941  33.972   6.884
 4355POPC   C4A57786  29.045  33.945   7.294
 4355POPC   C1B57787  28.842  33.438   6.171
 4355POPC   C2B57788  28.942  33.385   6.612
 4355POPC   C3B57789  29.007  33.476   7.032
 4355POPC   C4B57790  29.170  33.347   7.427
 4356POPC   NC357791  42.368  13.005   5.522
 4356POPC   PO457792  42.605  12.497   5.269
 4356POPC   GL157793  42.289  12.566   5.783
 4356POPC   GL257794  42.368  12.898   5.998
 4356POPC   C1A57795  42.449  12.538   6.307
 4356POPC   D2A57796  42.210  12.627   6.718
 4356POPC   C3A57797  42.391  12.780   7.124
 4356POPC   C4A57798  42.651  12.736   7.515
 4356POPC   C1B57799  42.052  13.217   6.188
 4356POPC   C2B57800  41.892  13.160   6.613
 4356POPC   C3B57801  42.043  13.202   7.042
 4356POPC   C4B57802  41.995  13.069   7.458
 4357POPC   NC357803  37.725  30.964   5.270
 4357POPC   PO457804  37.155  30.590   5.297
 4357POPC   GL157805  37.463  30.653   5.704
 4357POPC   GL257806  37.828  30.720   5.716
 4357POPC   C1A57807  37.627  30.821   6.163
 4357POPC   D2A57808  37.568  30.603   6.570
 4357POPC   C3A57809  37.747  30.606   6.999
 4357POPC   C4A57810  37.724  30.604   7.475
 4357POPC   C1B57811  38.016  30.521   6.069
 4357POPC   C2B57812  38.120  30.744   6.443
 4357POPC   C3B57813  38.060  30.958   6.844
 4357POPC   C4B57814  38.159  30.763   7.246
 4358POPC   NC357815  10.109  43.695   5.656
 4358POPC   PO457816   9.665  44.182   5.565
 4358POPC   GL157817   9.844  44.033   5.913
 4358POPC   GL257818  10.211  44.171   5.859
 4358POPC   C1A57819   9.701  43.763   6.229
 4358POPC   D2A57820   9.750  43.845   6.649
 4358POPC   C3A57821   9.525  43.633   6.930
 4358POPC   C4A57822   9.385  43.787   7.309
 4358POPC   C1B57823  10.223  43.912   6.254
 4358POPC   C2B57824  10.231  43.581   6.540
 4358POPC   C3B57825  10.053  43.471   6.924
 4358POPC   C4B57826   9.906  43.713   7.248
 4359POPC   NC357827  31.154  12.081   5.647
 4359POPC   PO457828  30.597  11.961   5.206
 4359POPC   GL157829  30.615  12.109   5.639
 4359POPC   GL257830  30.691  11.798   5.776
 4359POPC   C1A57831  30.606  12.168   6.118
 4359POPC   D2A57832  30.549  12.071   6.557
 4359POPC   C3A57833  30.820  12.169   6.903
 4359POPC   C4A57834  30.576  12.209   7.265
 4359POPC   C1B57835  30.915  11.738   6.162
 4359POPC   C2B57836  31.013  11.827   6.559
 4359POPC   C3B57837  30.971  11.652   6.949
 4359POPC   C4B57838  30.914  11.849   7.322
 4360POPC   NC357839   2.772  29.538   5.364
 4360POPC   PO457840   2.451  28.993   5.604
 4360POPC   GL157841   2.737  29.148   5.891
 4360POPC   GL257842   2.725  29.496   5.889
 4360POPC   C1A57843   2.731  29.120   6.339
 4360POPC   D2A57844   2.585  29.419   6.667
 4360POPC   C3A57845   2.472  29.333   7.105
 4360POPC   C4A57846   2.705  29.127   7.466
 4360POPC   C1B57847   3.093  29.448   6.188
 4360POPC   C2B57848   3.148  29.250   6.602
 4360POPC   C3B57849   2.998  29.236   7.028
 4360POPC   C4B57850   3.107  29.442   7.419
 4361POPC   NC357851  35.249  22.960   5.230
 4361POPC   PO457852  35.760  22.542   5.567
 4361POPC   GL157853  35.487  22.879   5.709
 4361POPC   GL257854  35.695  23.142   5.718
 4361POPC   C1A57855  35.304  23.056   6.116
 4361POPC   D2A57856  35.264  23.182   6.615
 4361POPC   C3A57857  35.312  23.014   7.090
 4361POPC   C4A57858  35.086  23.006   7.511
 4361POPC   C1B57859  35.799  23.184   6.163
 4361POPC   C2B57860  35.748  23.358   6.558
 4361POPC   C3B57861  35.789  23.139   6.939
 4361POPC   C4B57862  35.733  23.270   7.367
 4362POPC   NC357863  22.908  27.447   5.410
 4362POPC   PO457864  22.562  28.072   5.529
 4362POPC   GL157865  22.873  27.829   5.817
 4362POPC   GL257866  22.972  27.478   5.920
 4362POPC   C1A57867  22.997  27.861   6.277
 4362POPC   D2A57868  22.905  27.790   6.733
 4362POPC   C3A57869  23.093  27.497   7.021
 4362POPC   C4A57870  23.205  27.487   7.465
 4362POPC   C1B57871  22.862  27.369   6.358
 4362POPC   C2B57872  22.519  27.432   6.636
 4362POPC   C3B57873  22.594  27.295   7.055
 4362POPC   C4B57874  22.714  27.621   7.355
 4363POPC   NC357875  10.695  16.215   5.548
 4363POPC   PO457876  10.495  15.570   5.328
 4363POPC   GL157877  10.518  15.760   5.755
 4363POPC   GL257878  10.307  16.058   5.856
 4363POPC   C1A57879  10.677  15.864   6.197
 4363POPC   D2A57880  10.524  15.882   6.641
 4363POPC   C3A57881  10.623  15.583   6.953
 4363POPC   C4A57882  10.692  15.743   7.360
 4363POPC   C1B57883  10.288  16.180   6.293
 4363POPC   C2B57884  10.606  16.394   6.567
 4363POPC   C3B57885  10.738  16.307   6.989
 4363POPC   C4B57886  10.499  16.199   7.336
 4364POPC   NC357887  24.693  43.606   5.437
 4364POPC   PO457888  24.037  43.849   5.287
 4364POPC   GL157889  24.261  43.916   5.673
 4364POPC   GL257890  24.609  44.054   5.749
 4364POPC   C1A57891  24.249  43.755   6.081
 4364POPC   D2A57892  24.513  43.747   6.459
 4364POPC   C3A57893  24.391  43.773   6.903
 4364POPC   C4A57894  24.513  43.666   7.343
 4364POPC   C1B57895  24.487  44.198   6.188
 4364POPC   C2B57896  24.325  44.226   6.619
 4364POPC   C3B57897  24.476  44.259   7.056
 4364POPC   C4B57898  24.480  44.204   7.521
 4365POPC   NC357899  26.919  16.945   5.274
 4365POPC   PO457900  26.386  16.726   5.532
 4365POPC   GL157901  26.660  16.958   5.773
 4365POPC   GL257902  27.009  16.789   5.764
 4365POPC   C1A57903  26.637  16.837   6.207
 4365POPC   D2A57904  26.741  16.922   6.620
 4365POPC   C3A57905  26.622  16.728   7.016
 4365POPC   C4A57906  26.651  16.291   7.208
 4365POPC   C1B57907  27.181  16.878   6.181
 4365POPC   C2B57908  27.221  17.105   6.562
 4365POPC   C3B57909  27.271  16.899   6.976
 4365POPC   C4B57910  27.074  16.606   7.267
 4366POPC   NC357911  22.330   4.034   5.357
 4366POPC   PO457912  21.753   4.422   5.310
 4366POPC   GL157913  22.079   4.378   5.697
 4366POPC   GL257914  22.358   4.135   5.845
 4366POPC   C1A57915  22.069   4.372   6.179
 4366POPC   D2A57916  22.020   4.119   6.560
 4366POPC   C3A57917  22.080   4.374   6.886
 4366POPC   C4A57918  22.204   4.463   7.248
 4366POPC   C1B57919  22.628   4.041   6.215
 4366POPC   C2B57920  22.646   3.912   6.656
 4366POPC   C3B57921  22.472   4.082   7.042
 4366POPC   C4B57922  22.496   4.106   7.500
 4367POPC   NC357923  39.918  42.067   5.283
 4367POPC   PO457924  40.307  42.578   5.267
 4367POPC   GL157925  40.043  42.454   5.660
 4367POPC   GL257926  40.113  42.147   5.863
 4367POPC   C1A57927  39.763  42.471   6.033
 4367POPC   D2A57928  39.780  42.207   6.403
 4367POPC   C3A57929  39.749  42.394   6.805
 4367POPC   C4A57930  39.871  42.710   7.146
 4367POPC   C1B57931  40.245  42.406   6.258
 4367POPC   C2B57932  40.268  42.441   6.742
 4367POPC   C3B57933  40.102  42.246   7.145
 4367POPC   C4B57934  40.280  42.097   7.561
 4368POPC   NC357935  14.013  37.968   5.379
 4368POPC   PO457936  14.608  37.763   5.525
 4368POPC   GL157937  14.494  37.569   5.938
 4368POPC   GL257938  14.549  37.222   5.951
 4368POPC   C1A57939  14.375  37.721   6.380
 4368POPC   D2A57940  14.263  37.628   6.790
 4368POPC   C3A57941  14.363  37.914   7.140
 4368POPC   C4A57942  14.198  37.989   7.575
 4368POPC   C1B57943  14.407  37.217   6.381
 4368POPC   C2B57944  14.696  37.400   6.647
 4368POPC   C3B57945  14.779  37.475   7.054
 4368POPC   C4B57946  14.430  37.398   7.213
 4369POPC   NC357947   7.919  17.684   5.408
 4369POPC   PO457948   8.420  17.222   5.563
 4369POPC   GL157949   8.108  17.204   5.840
 4369POPC   GL257950   8.112  17.555   5.848
 4369POPC   C1A57951   8.071  17.312   6.288
 4369POPC   D2A57952   8.273  17.421   6.648
 4369POPC   C3A57953   8.035  17.380   7.032
 4369POPC   C4A57954   8.264  17.239   7.357
 4369POPC   C1B57955   8.291  17.776   6.162
 4369POPC   C2B57956   8.176  17.924   6.555
 4369POPC   C3B57957   8.290  17.822   6.968
 4369POPC   C4B57958   8.156  17.757   7.370
 4370POPC   NC357959  30.629  41.367   5.439
 4370POPC   PO457960  30.354  41.946   5.636
 4370POPC   GL157961  30.479  41.634   5.906
 4370POPC   GL257962  30.815  41.627   5.865
 4370POPC   C1A57963  30.405  41.489   6.334
 4370POPC   D2A57964  30.514  41.294   6.720
 4370POPC   C3A57965  30.500  41.512   7.123
 4370POPC   C4A57966  30.647  41.347   7.511
 4370POPC   C1B57967  30.893  41.428   6.274
 4370POPC   C2B57968  30.948  41.571   6.710
 4370POPC   C3B57969  30.993  41.417   7.134
 4370POPC   C4B57970  31.147  41.254   7.549
 4371POPC   NC357971  11.051  17.758   5.437
 4371POPC   PO457972  11.518  17.321   5.456
 4371POPC   GL157973  11.250  17.481   5.800
 4371POPC   GL257974  10.916  17.309   5.768
 4371POPC   C1A57975  11.202  17.660   6.205
 4371POPC   D2A57976  11.529  17.540   6.460
 4371POPC   C3A57977  11.498  17.464   6.905
 4371POPC   C4A57978  11.377  17.522   7.373
 4371POPC   C1B57979  10.767  17.397   6.212
 4371POPC   C2B57980  10.832  17.640   6.597
 4371POPC   C3B57981  11.002  17.549   7.011
 4371POPC   C4B57982  10.869  17.508   7.457
 4372POPC   NC357983  44.468  25.764   4.997
 4372POPC   PO457984  44.619  26.243   5.494
 4372POPC   GL157985  44.746  26.194   5.898
 4372POPC   GL257986  44.736  25.831   5.847
 4372POPC   C1A57987  44.849  26.064   6.312
 4372POPC   D2A57988  44.894  25.836   6.690
 4372POPC   C3A57989  44.859  26.130   7.029
 4372POPC   C4A57990  44.528  26.402   7.142
 4372POPC   C1B57991  44.366  25.932   6.139
 4372POPC   C2B57992  44.386  25.784   6.573
 4372POPC   C3B57993  44.346  25.887   6.999
 4372POPC   C4B57994  44.502  25.949   7.379
 4373POPC   NC357995  22.604  36.244   5.331
 4373POPC   PO457996  21.933  36.065   5.438
 4373POPC   GL157997  22.041  36.037   5.865
 4373POPC   GL257998  22.406  36.008   5.845
 4373POPC   C1A57999  22.071  36.179   6.301
 4373POPC   D2A58000  22.049  36.051   6.729
 4373POPC   C3A58001  22.031  36.283   7.141
 4373POPC   C4A58002  21.934  36.218   7.604
 4373POPC   C1B58003  22.596  35.756   6.189
 4373POPC   C2B58004  22.437  35.582   6.590
 4373POPC   C3B58005  22.365  35.787   7.006
 4373POPC   C4B58006  22.290  35.883   7.428
 4374POPC   NC358007  25.034   7.719   5.214
 4374POPC   PO458008  25.436   7.284   5.408
 4374POPC   GL158009  25.434   7.278   5.847
 4374POPC   GL258010  25.067   7.294   5.910
 4374POPC   C1A58011  25.499   7.233   6.308
 4374POPC   D2A58012  25.312   7.305   6.722
 4374POPC   C3A58013  25.545   7.390   7.107
 4374POPC   C4A58014  25.544   7.584   7.517
 4374POPC   C1B58015  25.048   7.488   6.322
 4374POPC   C2B58016  24.896   7.652   6.730
 4374POPC   C3B58017  25.085   7.691   7.156
 4374POPC   C4B58018  25.169   7.916   7.574
 4375POPC   NC358019  15.586  26.570   5.573
 4375POPC   PO458020  16.068  26.974   5.431
 4375POPC   GL158021  15.897  26.917   5.798
 4375POPC   GL258022  15.590  27.056   5.714
 4375POPC   C1A58023  15.835  26.770   6.217
 4375POPC   D2A58024  15.990  26.791   6.623
 4375POPC   C3A58025  15.776  26.785   6.989
 4375POPC   C4A58026  16.021  26.728   7.322
 4375POPC   C1B58027  15.645  27.248   6.096
 4375POPC   C2B58028  15.841  27.260   6.467
 4375POPC   C3B58029  15.708  27.303   6.920
 4375POPC   C4B58030  15.787  27.196   7.364
 4376POPC   NC358031  21.307   8.326   5.447
 4376POPC   PO458032  21.593   7.776   5.615
 4376POPC   GL158033  21.297   8.041   5.875
 4376POPC   GL258034  21.098   8.378   5.891
 4376POPC   C1A58035  21.391   8.111   6.268
 4376POPC   D2A58036  21.675   7.975   6.549
 4376POPC   C3A58037  21.474   8.028   6.930
 4376POPC   C4A58038  21.552   8.258   7.275
 4376POPC   C1B58039  20.964   8.400   6.270
 4376POPC   C2B58040  21.277   8.440   6.634
 4376POPC   C3B58041  21.138   8.448   7.031
 4376POPC   C4B58042  21.104   8.386   7.487
 4377POPC   NC358043  12.616  33.754   5.416
 4377POPC   PO458044  13.199  33.368   5.402
 4377POPC   GL158045  12.953  33.474   5.718
 4377POPC   GL258046  12.987  33.836   5.805
 4377POPC   C1A58047  12.755  33.498   6.121
 4377POPC   D2A58048  12.798  33.798   6.438
 4377POPC   C3A58049  12.774  33.655   6.852
 4377POPC   C4A58050  12.805  33.519   7.256
 4377POPC   C1B58051  13.213  34.035   6.178
 4377POPC   C2B58052  13.185  34.180   6.623
 4377POPC   C3B58053  13.155  33.982   7.025
 4377POPC   C4B58054  12.950  33.981   7.400
 4378POPC   NC358055  33.699  32.508   5.646
 4378POPC   PO458056  33.958  33.095   5.424
 4378POPC   GL158057  33.858  32.975   5.857
 4378POPC   GL258058  33.532  32.951   5.899
 4378POPC   C1A58059  33.823  32.720   6.272
 4378POPC   D2A58060  33.756  32.579   6.721
 4378POPC   C3A58061  33.898  32.820   7.093
 4378POPC   C4A58062  33.954  33.083   7.423
 4378POPC   C1B58063  33.323  32.967   6.261
 4378POPC   C2B58064  33.153  32.852   6.646
 4378POPC   C3B58065  33.446  32.961   6.939
 4378POPC   C4B58066  33.443  33.090   7.349
 4379POPC   NC358067   2.875  42.242   5.095
 4379POPC   PO458068   2.903  42.599   5.633
 4379POPC   GL158069   2.648  42.471   5.930
 4379POPC   GL258070   2.596  42.148   5.785
 4379POPC   C1A58071   2.739  42.518   6.381
 4379POPC   D2A58072   2.635  42.606   6.801
 4379POPC   C3A58073   2.965  42.459   7.034
 4379POPC   C4A58074   3.226  42.071   7.103
 4379POPC   C1B58075   2.589  42.050   6.235
 4379POPC   C2B58076   2.771  42.076   6.661
 4379POPC   C3B58077   2.541  42.155   7.028
 4379POPC   C4B58078   2.175  41.953   7.111
 4380POPC   NC358079  30.515  32.688   5.074
 4380POPC   PO458080  30.716  33.318   5.320
 4380POPC   GL158081  30.792  32.979   5.624
 4380POPC   GL258082  30.966  33.206   5.804
 4380POPC   C1A58083  30.819  32.708   6.029
 4380POPC   D2A58084  30.558  32.572   6.394
 4380POPC   C3A58085  30.628  32.622   6.856
 4380POPC   C4A58086  30.808  32.827   7.248
 4380POPC   C1B58087  30.662  33.184   6.127
 4380POPC   C2B58088  30.650  33.078   6.553
 4380POPC   C3B58089  30.426  33.091   6.921
 4380POPC   C4B58090  30.538  33.291   7.253
 4381POPC   NC358091  21.064   9.046   5.311
 4381POPC   PO458092  20.410   8.933   5.269
 4381POPC   GL158093  20.589   8.957   5.689
 4381POPC   GL258094  20.361   8.735   5.780
 4381POPC   C1A58095  20.894   8.863   6.031
 4381POPC   D2A58096  20.945   8.819   6.535
 4381POPC   C3A58097  20.834   8.962   6.946
 4381POPC   C4A58098  20.889   9.078   7.389
 4381POPC   C1B58099  20.458   8.671   6.192
 4381POPC   C2B58100  20.441   8.923   6.533
 4381POPC   C3B58101  20.308   8.936   6.930
 4381POPC   C4B58102  20.478   8.804   7.296
 4382POPC   NC358103   5.903  38.030   5.367
 4382POPC   PO458104   6.383  37.450   5.517
 4382POPC   GL158105   6.141  37.694   5.809
 4382POPC   GL258106   5.799  37.743   5.789
 4382POPC   C1A58107   6.017  37.708   6.244
 4382POPC   D2A58108   6.133  37.926   6.582
 4382POPC   C3A58109   6.048  37.661   6.892
 4382POPC   C4A58110   6.225  37.826   7.248
 4382POPC   C1B58111   5.505  37.676   6.104
 4382POPC   C2B58112   5.438  37.484   6.507
 4382POPC   C3B58113   5.465  37.657   6.921
 4382POPC   C4B58114   5.704  37.654   7.283
 4383POPC   NC358115  17.811   4.423   5.517
 4383POPC   PO458116  17.165   4.147   5.495
 4383POPC   GL158117  17.461   4.198   5.837
 4383POPC   GL258118  17.820   4.046   5.839
 4383POPC   C1A58119  17.497   4.463   6.192
 4383POPC   D2A58120  17.298   4.704   6.502
 4383POPC   C3A58121  17.266   4.473   6.884
 4383POPC   C4A58122  17.285   4.646   7.275
 4383POPC   C1B58123  17.711   4.010   6.257
 4383POPC   C2B58124  17.575   4.152   6.627
 4383POPC   C3B58125  17.631   4.087   7.056
 4383POPC   C4B58126  17.789   4.300   7.435
 4384POPC   NC358127  16.078  34.662   5.213
 4384POPC   PO458128  15.445  34.679   5.389
 4384POPC   GL158129  15.836  34.504   5.686
 4384POPC   GL258130  16.106  34.754   5.788
 4384POPC   C1A58131  15.932  34.387   6.166
 4384POPC   D2A58132  15.825  34.647   6.596
 4384POPC   C3A58133  15.641  34.630   7.066
 4384POPC   C4A58134  15.884  34.438   7.445
 4384POPC   C1B58135  16.224  34.786   6.230
 4384POPC   C2B58136  16.344  34.628   6.641
 4384POPC   C3B58137  16.146  34.580   7.009
 4384POPC   C4B58138  16.108  34.867   7.334
 4385POPC   NC358139   8.128   1.119   5.368
 4385POPC   PO458140   7.939   0.459   5.343
 4385POPC   GL158141   8.025   0.745   5.749
 4385POPC   GL258142   8.024   1.090   5.877
 4385POPC   C1A58143   8.139   0.731   6.214
 4385POPC   D2A58144   8.308   0.980   6.542
 4385POPC   C3A58145   8.136   0.961   6.934
 4385POPC   C4A58146   8.286   1.204   7.242
 4385POPC   C1B58147   7.947   1.444   6.159
 4385POPC   C2B58148   8.041   1.438   6.591
 4385POPC   C3B58149   7.918   1.454   7.009
 4385POPC   C4B58150   8.033   1.658   7.353
 4386POPC   NC358151  29.187   9.016   5.406
 4386POPC   PO458152  29.737   8.611   5.414
 4386POPC   GL158153  29.417   8.705   5.723
 4386POPC   GL258154  29.585   8.981   5.808
 4386POPC   C1A58155  29.183   8.977   6.095
 4386POPC   D2A58156  29.202   8.863   6.568
 4386POPC   C3A58157  28.957   9.092   6.913
 4386POPC   C4A58158  28.874   9.063   7.377
 4386POPC   C1B58159  29.541   8.663   6.207
 4386POPC   C2B58160  29.734   8.821   6.591
 4386POPC   C3B58161  29.724   8.752   7.019
 4386POPC   C4B58162  29.312   8.838   7.187
 4387POPC   NC358163  16.529   7.416   5.348
 4387POPC   PO458164  16.985   6.987   5.357
 4387POPC   GL158165  16.770   7.134   5.735
 4387POPC   GL258166  16.780   7.494   5.800
 4387POPC   C1A58167  16.862   7.125   6.180
 4387POPC   D2A58168  17.063   7.212   6.588
 4387POPC   C3A58169  16.787   7.018   6.906
 4387POPC   C4A58170  16.716   7.093   7.340
 4387POPC   C1B58171  16.584   7.559   6.196
 4387POPC   C2B58172  16.730   7.656   6.610
 4387POPC   C3B58173  16.703   7.506   7.011
 4387POPC   C4B58174  16.412   7.609   7.333
 4388POPC   NC358175   1.820  29.851   5.207
 4388POPC   PO458176   2.417  29.787   5.526
 4388POPC   GL158177   2.094  30.046   5.691
 4388POPC   GL258178   1.859  29.799   5.723
 4388POPC   C1A58179   2.061  30.177   6.143
 4388POPC   D2A58180   2.034  30.096   6.625
 4388POPC   C3A58181   2.242  29.775   6.950
 4388POPC   C4A58182   2.094  29.607   7.376
 4388POPC   C1B58183   1.726  29.769   6.170
 4388POPC   C2B58184   1.654  29.679   6.633
 4388POPC   C3B58185   1.749  29.893   7.027
 4388POPC   C4B58186   2.055  30.230   7.140
 4389POPC   NC358187  14.468  17.080   5.414
 4389POPC   PO458188  14.510  16.374   5.347
 4389POPC   GL158189  14.551  16.491   5.792
 4389POPC   GL258190  14.421  16.835   5.858
 4389POPC   C1A58191  14.349  16.473   6.214
 4389POPC   D2A58192  14.413  16.721   6.585
 4389POPC   C3A58193  14.382  16.498   6.968
 4389POPC   C4A58194  14.626  16.368   7.291
 4389POPC   C1B58195  14.698  16.958   6.194
 4389POPC   C2B58196  14.862  16.989   6.614
 4389POPC   C3B58197  14.708  16.886   7.028
 4389POPC   C4B58198  14.298  17.006   7.172
 4390POPC   NC358199  33.434   1.003   5.540
 4390POPC   PO458200  32.813   1.344   5.492
 4390POPC   GL158201  32.836   1.003   5.838
 4390POPC   GL258202  33.179   0.930   5.959
 4390POPC   C1A58203  32.855   1.060   6.326
 4390POPC   D2A58204  32.602   1.241   6.678
 4390POPC   C3A58205  32.830   1.383   7.058
 4390POPC   C4A58206  33.030   1.148   7.392
 4390POPC   C1B58207  33.321   1.260   6.241
 4390POPC   C2B58208  33.208   1.194   6.694
 4390POPC   C3B58209  33.390   1.330   7.068
 4390POPC   C4B58210  33.669   1.635   7.228
 4391POPC   NC358211   0.545  23.171   5.169
 4391POPC   PO458212   0.373  23.799   5.398
 4391POPC   GL158213   0.402  23.710   5.810
 4391POPC   GL258214   0.320  23.370   5.736
 4391POPC   C1A58215   0.504  23.895   6.210
 4391POPC   D2A58216   0.678  23.939   6.598
 4391POPC   C3A58217   0.507  23.888   6.990
 4391POPC   C4A58218   0.191  24.111   7.119
 4391POPC   C1B58219   0.330  23.343   6.184
 4391POPC   C2B58220   0.395  23.492   6.601
 4391POPC   C3B58221   0.568  23.383   7.011
 4391POPC   C4B58222   0.635  23.480   7.458
 4392POPC   NC358223  17.197  20.445   5.395
 4392POPC   PO458224  17.866  20.332   5.138
 4392POPC   GL158225  17.641  20.444   5.609
 4392POPC   GL258226  17.675  20.750   5.797
 4392POPC   C1A58227  17.419  20.372   6.047
 4392POPC   D2A58228  17.489  20.468   6.534
 4392POPC   C3A58229  17.206  20.364   6.896
 4392POPC   C4A58230  17.144  20.283   7.347
 4392POPC   C1B58231  17.305  20.864   6.077
 4392POPC   C2B58232  17.344  20.991   6.517
 4392POPC   C3B58233  17.507  20.837   6.898
 4392POPC   C4B58234  17.292  20.759   7.249
 4393POPC   NC358235  23.552  42.512   5.239
 4393POPC   PO458236  24.073  42.272   5.439
 4393POPC   GL158237  23.819  42.550   5.701
 4393POPC   GL258238  23.443  42.594   5.746
 4393POPC   C1A58239  23.851  42.512   6.137
 4393POPC   D2A58240  23.704  42.627   6.551
 4393POPC   C3A58241  23.922  42.535   6.932
 4393POPC   C4A58242  23.813  42.613   7.344
 4393POPC   C1B58243  23.320  42.536   6.205
 4393POPC   C2B58244  23.299  42.316   6.633
 4393POPC   C3B58245  23.429  42.377   7.078
 4393POPC   C4B58246  23.736  42.120   7.334
 4394POPC   NC358247   0.341   1.936   5.385
 4394POPC   PO458248   0.564   2.534   5.390
 4394POPC   GL158249   0.550   2.234   5.755
 4394POPC   GL258250   0.726   1.899   5.742
 4394POPC   C1A58251   0.511   2.188   6.211
 4394POPC   D2A58252   0.694   2.246   6.630
 4394POPC   C3A58253   0.505   2.065   6.992
 4394POPC   C4A58254   0.589   2.319   7.353
 4394POPC   C1B58255   0.872   1.810   6.150
 4394POPC   C2B58256   0.806   1.748   6.577
 4394POPC   C3B58257   0.701   1.563   6.949
 4394POPC   C4B58258   0.622   1.665   7.354
 4395POPC   NC358259  38.880  33.003   5.494
 4395POPC   PO458260  38.211  33.109   5.330
 4395POPC   GL158261  38.181  33.130   5.803
 4395POPC   GL258262  38.563  33.077   5.910
 4395POPC   C1A58263  38.207  32.934   6.247
 4395POPC   D2A58264  38.501  33.057   6.564
 4395POPC   C3A58265  38.357  33.092   6.949
 4395POPC   C4A58266  38.279  33.410   7.243
 4395POPC   C1B58267  38.872  32.928   6.249
 4395POPC   C2B58268  38.912  32.763   6.667
 4395POPC   C3B58269  38.904  33.074   6.986
 4395POPC   C4B58270  38.654  33.046   7.344
 4396POPC   NC358271  43.066  26.895   5.130
 4396POPC   PO458272  43.148  26.282   5.389
 4396POPC   GL158273  42.963  26.594   5.749
 4396POPC   GL258274  43.168  26.875   5.899
 4396POPC   C1A58275  42.742  26.801   6.138
 4396POPC   D2A58276  43.024  26.885   6.474
 4396POPC   C3A58277  42.916  26.742   6.892
 4396POPC   C4A58278  42.864  26.872   7.313
 4396POPC   C1B58279  43.516  27.105   6.063
 4396POPC   C2B58280  43.591  27.130   6.507
 4396POPC   C3B58281  43.285  27.174   6.844
 4396POPC   C4B58282  43.368  26.945   7.244
 4397POPC   NC358283  28.169  31.770   5.570
 4397POPC   PO458284  28.807  31.554   5.397
 4397POPC   GL158285  28.615  31.607   5.807
 4397POPC   GL258286  28.678  31.946   5.792
 4397POPC   C1A58287  28.319  31.618   6.198
 4397POPC   D2A58288  28.043  31.414   6.504
 4397POPC   C3A58289  28.150  31.489   6.943
 4397POPC   C4A58290  28.505  31.438   7.237
 4397POPC   C1B58291  28.607  32.028   6.225
 4397POPC   C2B58292  28.647  31.801   6.610
 4397POPC   C3B58293  28.546  31.907   7.033
 4397POPC   C4B58294  28.184  31.861   7.313
 4398POPC   NC358295  20.325   8.401   5.284
 4398POPC   PO458296  20.909   8.099   5.504
 4398POPC   GL158297  20.738   7.957   5.853
 4398POPC   GL258298  20.565   8.261   5.887
 4398POPC   C1A58299  20.925   7.894   6.239
 4398POPC   D2A58300  20.928   8.100   6.671
 4398POPC   C3A58301  20.961   7.976   7.077
 4398POPC   C4A58302  20.566   7.905   7.195
 4398POPC   C1B58303  20.498   8.170   6.321
 4398POPC   C2B58304  20.540   8.442   6.652
 4398POPC   C3B58305  20.644   8.396   7.041
 4398POPC   C4B58306  20.599   8.330   7.471
 4399POPC   NC358307   9.414  19.949   5.437
 4399POPC   PO458308  10.072  20.116   5.727
 4399POPC   GL158309   9.722  19.856   5.841
 4399POPC   GL258310   9.574  19.526   5.667
 4399POPC   C1A58311   9.662  19.978   6.271
 4399POPC   D2A58312   9.607  20.317   6.581
 4399POPC   C3A58313   9.846  20.141   6.841
 4399POPC   C4A58314   9.822  19.962   7.179
 4399POPC   C1B58315   9.398  19.537   6.086
 4399POPC   C2B58316   9.500  19.477   6.510
 4399POPC   C3B58317   9.586  19.547   6.961
 4399POPC   C4B58318   9.226  19.616   7.220
 4400POPC   NC358319  16.950  36.877   5.416
 4400POPC   PO458320  16.894  37.390   5.816
 4400POPC   GL158321  16.803  36.920   5.910
 4400POPC   GL258322  16.458  36.918   5.876
 4400POPC   C1A58323  16.640  36.624   6.242
 4400POPC   D2A58324  16.552  36.677   6.662
 4400POPC   C3A58325  16.934  36.662   6.915
 4400POPC   C4A58326  16.951  36.671   7.373
 4400POPC   C1B58327  16.525  37.155   6.310
 4400POPC   C2B58328  16.366  37.146   6.747
 4400POPC   C3B58329  16.646  37.112   7.141
 4400POPC   C4B58330  16.636  37.312   7.605
 4401POPC   NC358331  44.588  29.543   5.168
 4401POPC   PO458332  44.277  29.009   5.494
 4401POPC   GL158333  44.451  28.988   5.900
 4401POPC   GL258334  44.795  29.013   5.920
 4401POPC   C1A58335  44.526  29.225   6.295
 4401POPC   D2A58336  44.534  29.081   6.690
 4401POPC   C3A58337  44.616  29.320   7.039
 4401POPC   C4A58338  44.674  29.303   7.502
 4401POPC   C1B58339   0.045  29.133   6.294
 4401POPC   C2B58340   0.001  29.333   6.695
 4401POPC   C3B58341   0.130  29.354   7.107
 4401POPC   C4B58342  44.948  28.967   7.260
 4402POPC   NC358343  13.604  17.581   5.364
 4402POPC   PO458344  14.086  17.222   5.670
 4402POPC   GL158345  13.833  17.618   5.845
 4402POPC   GL258346  13.456  17.715   5.843
 4402POPC   C1A58347  13.739  17.667   6.295
 4402POPC   D2A58348  13.988  17.517   6.624
 4402POPC   C3A58349  13.869  17.456   7.025
 4402POPC   C4A58350  13.929  17.273   7.428
 4402POPC   C1B58351  13.226  17.757   6.241
 4402POPC   C2B58352  13.204  17.587   6.667
 4402POPC   C3B58353  13.357  17.739   7.062
 4402POPC   C4B58354  13.623  17.730   7.424
 4403POPC   NC358355   3.842   2.870   5.383
 4403POPC   PO458356   3.356   2.408   5.455
 4403POPC   GL158357   3.386   2.597   5.824
 4403POPC   GL258358   3.500   2.925   5.764
 4403POPC   C1A58359   3.113   2.612   6.172
 4403POPC   D2A58360   3.053   2.853   6.525
 4403POPC   C3A58361   3.269   2.815   6.897
 4403POPC   C4A58362   3.371   2.858   7.309
 4403POPC   C1B58363   3.466   2.991   6.199
 4403POPC   C2B58364   3.637   2.988   6.597
 4403POPC   C3B58365   3.715   3.095   7.012
 4403POPC   C4B58366   3.846   2.992   7.429
 4404POPC   NC358367  35.917  25.525   5.041
 4404POPC   PO458368  35.440  25.241   5.520
 4404POPC   GL158369  35.581  25.221   5.908
 4404POPC   GL258370  35.679  24.898   5.959
 4404POPC   C1A58371  35.557  25.497   6.269
 4404POPC   D2A58372  35.224  25.693   6.529
 4404POPC   C3A58373  35.320  25.441   6.889
 4404POPC   C4A58374  35.731  25.374   7.057
 4404POPC   C1B58375  35.496  24.988   6.373
 4404POPC   C2B58376  35.603  24.930   6.814
 4404POPC   C3B58377  35.328  24.985   7.157
 4404POPC   C4B58378  34.899  25.059   7.050
 4405POPC   NC358379  31.444  35.562   5.463
 4405POPC   PO458380  31.254  34.883   5.426
 4405POPC   GL158381  31.353  35.169   5.822
 4405POPC   GL258382  31.638  35.438   5.904
 4405POPC   C1A58383  31.491  35.164   6.285
 4405POPC   D2A58384  31.547  35.433   6.644
 4405POPC   C3A58385  31.320  35.228   6.972
 4405POPC   C4A58386  31.435  35.072   7.358
 4405POPC   C1B58387  31.234  35.584   6.132
 4405POPC   C2B58388  31.077  35.696   6.540
 4405POPC   C3B58389  31.221  35.745   6.974
 4405POPC   C4B58390  31.197  35.531   7.375
 4406POPC   NC358391  35.860  25.493   5.556
 4406POPC   PO458392  35.962  24.926   5.296
 4406POPC   GL158393  36.117  25.067   5.738
 4406POPC   GL258394  36.292  25.408   5.794
 4406POPC   C1A58395  36.011  25.231   6.177
 4406POPC   D2A58396  36.017  25.372   6.598
 4406POPC   C3A58397  36.142  25.077   6.924
 4406POPC   C4A58398  35.896  24.944   7.296
 4406POPC   C1B58399  36.423  25.581   6.200
 4406POPC   C2B58400  36.512  25.547   6.650
 4406POPC   C3B58401  36.290  25.549   7.049
 4406POPC   C4B58402  36.359  25.239   7.380
 4407POPC   NC358403  12.828  27.317   5.461
 4407POPC   PO458404  13.093  27.874   5.620
 4407POPC   GL158405  12.714  27.729   5.935
 4407POPC   GL258406  12.543  27.379   5.877
 4407POPC   C1A58407  12.642  27.619   6.416
 4407POPC   D2A58408  12.914  27.777   6.791
 4407POPC   C3A58409  12.819  27.711   7.226
 4407POPC   C4A58410  12.612  27.705   7.642
 4407POPC   C1B58411  12.894  27.270   6.124
 4407POPC   C2B58412  12.845  27.134   6.523
 4407POPC   C3B58413  12.683  27.299   6.907
 4407POPC   C4B58414  12.779  27.233   7.350
 4408POPC   NC358415  13.828  27.310   5.473
 4408POPC   PO458416  13.915  28.005   5.427
 4408POPC   GL158417  13.683  27.752   5.742
 4408POPC   GL258418  13.419  27.473   5.729
 4408POPC   C1A58419  13.682  27.758   6.191
 4408POPC   D2A58420  13.766  27.483   6.554
 4408POPC   C3A58421  13.648  27.671   6.955
 4408POPC   C4A58422  13.755  27.642   7.398
 4408POPC   C1B58423  13.396  27.329   6.165
 4408POPC   C2B58424  13.249  27.460   6.580
 4408POPC   C3B58425  13.197  27.345   7.031
 4408POPC   C4B58426  13.436  27.218   7.404
 4409POPC   NC358427  23.886   3.707   5.297
 4409POPC   PO458428  23.527   3.153   5.419
 4409POPC   GL158429  23.783   3.404   5.759
 4409POPC   GL258430  23.492   3.518   5.956
 4409POPC   C1A58431  23.898   3.555   6.247
 4409POPC   D2A58432  23.614   3.449   6.632
 4409POPC   C3A58433  23.703   3.644   7.036
 4409POPC   C4A58434  24.062   3.871   7.221
 4409POPC   C1B58435  23.246   3.282   6.265
 4409POPC   C2B58436  23.247   3.088   6.678
 4409POPC   C3B58437  23.305   3.289   7.055
 4409POPC   C4B58438  23.591   3.282   7.371
 4410POPC   NC358439  35.621   2.985   5.477
 4410POPC   PO458440  35.318   2.351   5.458
 4410POPC   GL158441  35.299   2.562   5.827
 4410POPC   GL258442  35.171   2.915   5.775
 4410POPC   C1A58443  35.267   2.454   6.268
 4410POPC   D2A58444  35.425   2.501   6.675
 4410POPC   C3A58445  35.148   2.647   6.964
 4410POPC   C4A58446  35.338   2.406   7.271
 4410POPC   C1B58447  35.439   2.923   6.158
 4410POPC   C2B58448  35.399   2.992   6.601
 4410POPC   C3B58449  35.570   2.905   7.024
 4410POPC   C4B58450  35.233   3.073   7.254
 4411POPC   NC358451  27.687  16.445   5.194
 4411POPC   PO458452  27.905  15.925   5.359
 4411POPC   GL158453  27.699  15.971   5.752
 4411POPC   GL258454  27.817  16.309   5.769
 4411POPC   C1A58455  27.819  15.750   6.166
 4411POPC   D2A58456  27.943  15.563   6.542
 4411POPC   C3A58457  27.889  15.783   6.898
 4411POPC   C4A58458  27.545  15.823   7.169
 4411POPC   C1B58459  27.737  16.248   6.223
 4411POPC   C2B58460  27.656  16.189   6.659
 4411POPC   C3B58461  27.404  16.290   7.030
 4411POPC   C4B58462  27.244  16.155   7.439
 4412POPC   NC358463  44.795  22.646   5.570
 4412POPC   PO458464  44.467  23.225   5.429
 4412POPC   GL158465  44.703  23.099   5.797
 4412POPC   GL258466  44.834  23.354   5.972
 4412POPC   C1A58467  44.736  22.904   6.262
 4412POPC   D2A58468  44.510  22.616   6.606
 4412POPC   C3A58469  44.500  22.692   7.083
 4412POPC   C4A58470  44.794  22.866   7.446
 4412POPC   C1B58471  44.364  23.245   6.133
 4412POPC   C2B58472  44.301  23.109   6.544
 4412POPC   C3B58473  44.589  23.134   6.876
 4412POPC   C4B58474  44.483  23.243   7.293
 4413POPC   NC358475  18.039  31.814   5.359
 4413POPC   PO458476  18.093  31.154   5.371
 4413POPC   GL158477  18.160  31.430   5.733
 4413POPC   GL258478  18.509  31.508   5.847
 4413POPC   C1A58479  18.125  31.308   6.170
 4413POPC   D2A58480  18.021  31.158   6.585
 4413POPC   C3A58481  18.052  31.432   6.954
 4413POPC   C4A58482  18.228  31.473   7.379
 4413POPC   C1B58483  18.634  31.377   6.259
 4413POPC   C2B58484  18.479  31.489   6.658
 4413POPC   C3B58485  18.659  31.386   7.054
 4413POPC   C4B58486  18.683  31.265   7.503
 4414POPC   NC358487  43.611   2.222   5.352
 4414POPC   PO458488  43.954   1.726   5.366
 4414POPC   GL158489  43.952   1.718   5.833
 4414POPC   GL258490  44.172   2.010   5.887
 4414POPC   C1A58491  43.753   1.660   6.301
 4414POPC   D2A58492  43.606   1.988   6.657
 4414POPC   C3A58493  43.523   1.958   7.128
 4414POPC   C4A58494  43.629   1.931   7.585
 4414POPC   C1B58495  44.291   2.389   6.154
 4414POPC   C2B58496  44.217   2.504   6.572
 4414POPC   C3B58497  44.110   2.208   6.917
 4414POPC   C4B58498  44.370   2.180   7.250
 4415POPC   NC358499  38.823   4.434   5.510
 4415POPC   PO458500  38.154   4.452   5.310
 4415POPC   GL158501  38.373   4.257   5.730
 4415POPC   GL258502  38.690   4.041   5.830
 4415POPC   C1A58503  38.506   4.405   6.163
 4415POPC   D2A58504  38.328   4.289   6.582
 4415POPC   C3A58505  38.273   4.600   6.919
 4415POPC   C4A58506  38.369   4.479   7.319
 4415POPC   C1B58507  38.392   3.913   6.207
 4415POPC   C2B58508  38.443   3.768   6.656
 4415POPC   C3B58509  38.435   4.025   7.044
 4415POPC   C4B58510  38.577   4.037   7.480
 4416POPC   NC358511   5.508  40.553   4.970
 4416POPC   PO458512   5.983  40.992   5.270
 4416POPC   GL158513   6.022  40.903   5.705
 4416POPC   GL258514   5.696  41.071   5.750
 4416POPC   C1A58515   5.926  40.791   6.158
 4416POPC   D2A58516   5.912  40.999   6.583
 4416POPC   C3A58517   5.901  40.759   6.981
 4416POPC   C4A58518   5.763  40.809   7.426
 4416POPC   C1B58519   5.590  41.150   6.181
 4416POPC   C2B58520   5.414  41.172   6.595
 4416POPC   C3B58521   5.497  41.078   7.045
 4416POPC   C4B58522   5.269  40.937   7.421
 4417POPC   NC358523  31.634   7.325   5.520
 4417POPC   PO458524  31.245   7.797   5.258
 4417POPC   GL158525  31.149   7.453   5.623
 4417POPC   GL258526  31.291   7.651   5.789
 4417POPC   C1A58527  31.353   7.275   6.102
 4417POPC   D2A58528  31.623   7.343   6.493
 4417POPC   C3A58529  31.491   7.259   6.920
 4417POPC   C4A58530  31.487   7.518   7.251
 4417POPC   C1B58531  31.218   7.821   6.174
 4417POPC   C2B58532  31.348   7.796   6.596
 4417POPC   C3B58533  31.140   7.741   6.971
 4417POPC   C4B58534  31.189   7.903   7.393
 4418POPC   NC358535  37.722   1.755   5.331
 4418POPC   PO458536  37.521   2.300   5.470
 4418POPC   GL158537  37.545   2.043   5.834
 4418POPC   GL258538  37.871   1.913   5.867
 4418POPC   C1A58539  37.496   2.048   6.301
 4418POPC   D2A58540  37.591   2.357   6.638
 4418POPC   C3A58541  37.760   2.227   7.043
 4418POPC   C4A58542  37.485   1.928   7.133
 4418POPC   C1B58543  38.014   2.010   6.297
 4418POPC   C2B58544  37.836   1.843   6.689
 4418POPC   C3B58545  37.992   1.759   7.105
 4418POPC   C4B58546  38.087   2.025   7.437
 4419POPC   NC358547  40.666  31.233   5.202
 4419POPC   PO458548  41.206  31.547   5.190
 4419POPC   GL158549  40.816  31.501   5.648
 4419POPC   GL258550  40.956  31.341   6.010
 4419POPC   C1A58551  40.547  31.536   6.136
 4419POPC   D2A58552  40.569  31.488   6.626
 4419POPC   C3A58553  40.568  31.166   6.940
 4419POPC   C4A58554  40.633  31.260   7.361
 4419POPC   C1B58555  41.018  31.658   6.323
 4419POPC   C2B58556  40.979  31.803   6.738
 4419POPC   C3B58557  40.897  31.641   7.130
 4419POPC   C4B58558  41.125  31.520   7.493
 4420POPC   NC358559  29.835  39.413   5.342
 4420POPC   PO458560  29.728  38.786   5.418
 4420POPC   GL158561  29.830  39.037   5.754
 4420POPC   GL258562  30.137  39.202   5.702
 4420POPC   C1A58563  29.765  39.037   6.214
 4420POPC   D2A58564  29.621  39.184   6.647
 4420POPC   C3A58565  29.818  39.142   7.048
 4420POPC   C4A58566  29.750  38.871   7.459
 4420POPC   C1B58567  30.216  39.269   6.150
 4420POPC   C2B58568  30.143  39.161   6.607
 4420POPC   C3B58569  30.300  39.350   7.005
 4420POPC   C4B58570  30.500  39.543   7.382
 4421POPC   NC358571   3.040   0.287   5.378
 4421POPC   PO458572   3.639   0.567   5.493
 4421POPC   GL158573   3.344   0.434   5.772
 4421POPC   GL258574   3.639   0.250   5.900
 4421POPC   C1A58575   3.221   0.320   6.184
 4421POPC   D2A58576   3.491   0.339   6.534
 4421POPC   C3A58577   3.270   0.357   6.909
 4421POPC   C4A58578   3.347   0.501   7.319
 4421POPC   C1B58579   3.864   0.558   6.178
 4421POPC   C2B58580   3.951   0.614   6.625
 4421POPC   C3B58581   3.780   0.450   7.021
 4421POPC   C4B58582   3.786   0.347   7.493
 4422POPC   NC358583  20.086  33.389   5.341
 4422POPC   PO458584  19.987  34.041   5.433
 4422POPC   GL158585  19.979  33.804   5.805
 4422POPC   GL258586  20.072  33.448   5.843
 4422POPC   C1A58587  19.986  33.944   6.230
 4422POPC   D2A58588  19.942  34.163   6.619
 4422POPC   C3A58589  19.945  34.026   7.032
 4422POPC   C4A58590  19.570  34.113   7.271
 4422POPC   C1B58591  20.034  33.456   6.305
 4422POPC   C2B58592  20.074  33.655   6.674
 4422POPC   C3B58593  20.134  33.555   7.100
 4422POPC   C4B58594  20.117  33.478   7.529
 4423POPC   NC358595  19.823  21.748   5.032
 4423POPC   PO458596  19.632  21.265   5.281
 4423POPC   GL158597  19.741  21.389   5.749
 4423POPC   GL258598  19.524  21.622   5.936
 4423POPC   C1A58599  19.946  21.397   6.207
 4423POPC   D2A58600  20.096  21.518   6.669
 4423POPC   C3A58601  19.912  21.551   7.124
 4423POPC   C4A58602  19.697  21.580   7.548
 4423POPC   C1B58603  19.453  21.363   6.324
 4423POPC   C2B58604  19.626  21.301   6.755
 4423POPC   C3B58605  19.523  21.215   7.192
 4423POPC   C4B58606  19.236  21.365   7.523
 4424POPC   NC358607   6.878   9.880   5.397
 4424POPC   PO458608   6.283   9.551   5.397
 4424POPC   GL158609   6.566   9.585   5.753
 4424POPC   GL258610   6.676   9.930   5.845
 4424POPC   C1A58611   6.528   9.628   6.210
 4424POPC   D2A58612   6.591   9.799   6.618
 4424POPC   C3A58613   6.589   9.543   6.963
 4424POPC   C4A58614   7.027   9.546   7.108
 4424POPC   C1B58615   6.899   9.999   6.237
 4424POPC   C2B58616   6.788  10.264   6.597
 4424POPC   C3B58617   6.623  10.154   7.012
 4424POPC   C4B58618   6.835  10.069   7.399
 4425POPC   NC358619   4.630   3.043   5.377
 4425POPC   PO458620   4.164   2.557   5.289
 4425POPC   GL158621   4.209   2.520   5.749
 4425POPC   GL258622   3.910   2.636   5.879
 4425POPC   C1A58623   4.363   2.568   6.203
 4425POPC   D2A58624   4.723   2.463   6.499
 4425POPC   C3A58625   4.587   2.379   6.946
 4425POPC   C4A58626   4.600   2.586   7.350
 4425POPC   C1B58627   3.872   2.637   6.318
 4425POPC   C2B58628   4.113   2.777   6.695
 4425POPC   C3B58629   4.170   2.732   7.146
 4425POPC   C4B58630   4.176   2.689   7.655
 4426POPC   NC358631   2.603   5.985   5.321
 4426POPC   PO458632   3.136   5.723   5.416
 4426POPC   GL158633   2.960   6.044   5.722
 4426POPC   GL258634   2.648   5.888   5.821
 4426POPC   C1A58635   2.854   6.205   6.158
 4426POPC   D2A58636   2.750   5.950   6.529
 4426POPC   C3A58637   2.533   6.049   6.909
 4426POPC   C4A58638   2.736   6.162   7.287
 4426POPC   C1B58639   3.006   5.707   6.116
 4426POPC   C2B58640   3.082   5.572   6.558
 4426POPC   C3B58641   2.918   5.673   6.994
 4426POPC   C4B58642   3.077   5.516   7.410
 4427POPC   NC358643  16.080   7.891   5.445
 4427POPC   PO458644  15.682   8.376   5.501
 4427POPC   GL158645  15.869   8.204   5.852
 4427POPC   GL258646  16.193   8.302   5.798
 4427POPC   C1A58647  15.978   8.310   6.298
 4427POPC   D2A58648  15.820   8.442   6.697
 4427POPC   C3A58649  16.012   8.257   7.055
 4427POPC   C4A58650  16.096   8.464   7.435
 4427POPC   C1B58651  16.228   7.926   6.087
 4427POPC   C2B58652  16.231   7.883   6.550
 4427POPC   C3B58653  16.440   7.958   6.967
 4427POPC   C4B58654  16.465   8.122   7.431
 4428POPC   NC358655   8.241  32.909   5.251
 4428POPC   PO458656   7.622  33.018   5.333
 4428POPC   GL158657   7.956  33.150   5.670
 4428POPC   GL258658   8.336  33.074   5.730
 4428POPC   C1A58659   8.014  33.305   6.096
 4428POPC   D2A58660   8.023  33.499   6.520
 4428POPC   C3A58661   7.889  33.275   6.910
 4428POPC   C4A58662   8.235  33.336   7.166
 4428POPC   C1B58663   8.213  32.807   6.106
 4428POPC   C2B58664   8.332  32.662   6.527
 4428POPC   C3B58665   8.238  32.875   6.916
 4428POPC   C4B58666   7.974  32.816   7.260
 4429POPC   NC358667  15.365  32.494   5.616
 4429POPC   PO458668  15.283  33.044   5.319
 4429POPC   GL158669  15.327  33.046   5.780
 4429POPC   GL258670  15.005  33.200   5.822
 4429POPC   C1A58671  15.181  32.827   6.185
 4429POPC   D2A58672  15.182  32.688   6.634
 4429POPC   C3A58673  15.187  32.991   6.941
 4429POPC   C4A58674  15.309  32.996   7.391
 4429POPC   C1B58675  15.153  33.349   6.217
 4429POPC   C2B58676  15.144  33.442   6.648
 4429POPC   C3B58677  14.802  33.364   6.916
 4429POPC   C4B58678  14.809  33.106   7.279
 4430POPC   NC358679   8.236  40.019   5.333
 4430POPC   PO458680   8.529  40.549   5.664
 4430POPC   GL158681   8.408  40.145   5.808
 4430POPC   GL258682   8.069  40.071   5.824
 4430POPC   C1A58683   8.370  39.892   6.191
 4430POPC   D2A58684   8.282  40.084   6.571
 4430POPC   C3A58685   8.399  39.877   6.938
 4430POPC   C4A58686   8.306  40.058   7.313
 4430POPC   C1B58687   7.857  39.952   6.197
 4430POPC   C2B58688   7.864  39.789   6.586
 4430POPC   C3B58689   7.960  39.486   6.863
 4430POPC   C4B58690   8.068  39.568   7.284
 4431POPC   NC358691  38.192   1.284   5.545
 4431POPC   PO458692  37.527   1.352   5.279
 4431POPC   GL158693  37.719   1.386   5.732
 4431POPC   GL258694  37.805   1.043   5.914
 4431POPC   C1A58695  37.791   1.510   6.193
 4431POPC   D2A58696  37.793   1.286   6.625
 4431POPC   C3A58697  37.587   1.453   7.007
 4431POPC   C4A58698  37.640   1.603   7.494
 4431POPC   C1B58699  37.683   0.696   6.270
 4431POPC   C2B58700  37.445   0.745   6.625
 4431POPC   C3B58701  37.536   0.929   7.045
 4431POPC   C4B58702  37.849   1.148   7.297
 4432POPC   NC358703  35.357   3.666   5.315
 4432POPC   PO458704  35.675   4.016   5.780
 4432POPC   GL158705  35.413   3.638   5.840
 4432POPC   GL258706  35.480   3.326   5.818
 4432POPC   C1A58707  35.117   3.466   6.153
 4432POPC   D2A58708  35.018   3.355   6.595
 4432POPC   C3A58709  35.178   3.616   6.939
 4432POPC   C4A58710  35.217   3.563   7.395
 4432POPC   C1B58711  35.609   3.378   6.273
 4432POPC   C2B58712  35.769   3.315   6.697
 4432POPC   C3B58713  35.609   3.396   7.100
 4432POPC   C4B58714  35.650   3.220   7.508
 4433POPC   NC358715  38.222  13.977   5.203
 4433POPC   PO458716  38.732  14.483   5.191
 4433POPC   GL158717  38.471  14.282   5.582
 4433POPC   GL258718  38.609  13.985   5.748
 4433POPC   C1A58719  38.430  14.413   6.057
 4433POPC   D2A58720  38.656  14.335   6.466
 4433POPC   C3A58721  38.509  14.361   6.901
 4433POPC   C4A58722  38.462  14.711   7.184
 4433POPC   C1B58723  38.474  13.916   6.191
 4433POPC   C2B58724  38.282  13.970   6.612
 4433POPC   C3B58725  38.380  13.856   7.054
 4433POPC   C4B58726  38.203  13.915   7.476
 4434POPC   NC358727  44.603   3.218   5.319
 4434POPC   PO458728  44.519   3.926   5.430
 4434POPC   GL158729  44.444   3.573   5.663
 4434POPC   GL258730  44.801   3.509   5.749
 4434POPC   C1A58731  44.396   3.471   6.088
 4434POPC   D2A58732  44.700   3.385   6.386
 4434POPC   C3A58733  44.668   3.491   6.833
 4434POPC   C4A58734  44.944   3.381   7.157
 4434POPC   C1B58735  44.772   3.826   6.075
 4434POPC   C2B58736  44.613   3.902   6.499
 4434POPC   C3B58737  44.779   4.023   6.889
 4434POPC   C4B58738  44.671   3.835   7.266
 4435POPC   NC358739   0.556  18.901   5.648
 4435POPC   PO458740   0.079  19.301   5.395
 4435POPC   GL158741   0.311  19.314   5.798
 4435POPC   GL258742   0.664  19.343   5.904
 4435POPC   C1A58743   0.243  19.086   6.196
 4435POPC   D2A58744   0.217  18.796   6.511
 4435POPC   C3A58745   0.352  19.064   6.831
 4435POPC   C4A58746   0.330  19.060   7.255
 4435POPC   C1B58747   0.753  19.079   6.274
 4435POPC   C2B58748   0.756  18.814   6.655
 4435POPC   C3B58749   0.804  18.915   7.074
 4435POPC   C4B58750   0.889  19.190   7.379
 4436POPC   NC358751  15.928  12.550   5.131
 4436POPC   PO458752  16.159  11.964   5.436
 4436POPC   GL158753  15.914  12.012   5.820
 4436POPC   GL258754  16.093  12.274   6.039
 4436POPC   C1A58755  15.668  12.063   6.200
 4436POPC   D2A58756  15.572  11.979   6.625
 4436POPC   C3A58757  15.886  12.011   6.927
 4436POPC   C4A58758  15.869  12.108   7.360
 4436POPC   C1B58759  16.183  11.961   6.307
 4436POPC   C2B58760  16.356  11.858   6.702
 4436POPC   C3B58761  16.336  11.931   7.155
 4436POPC   C4B58762  16.370  12.081   7.584
 4437POPC   NC358763  27.794  36.760   5.317
 4437POPC   PO458764  27.266  36.838   5.372
 4437POPC   GL158765  27.546  36.832   5.777
 4437POPC   GL258766  27.858  36.598   5.804
 4437POPC   C1A58767  27.507  36.978   6.239
 4437POPC   D2A58768  27.367  37.043   6.693
 4437POPC   C3A58769  27.634  36.986   7.084
 4437POPC   C4A58770  28.048  36.838   7.215
 4437POPC   C1B58771  27.693  36.503   6.235
 4437POPC   C2B58772  27.697  36.609   6.704
 4437POPC   C3B58773  27.676  36.477   7.154
 4437POPC   C4B58774  27.689  36.687   7.564
 4438POPC   NC358775  37.193   2.608   5.351
 4438POPC   PO458776  36.587   2.885   5.237
 4438POPC   GL158777  36.764   2.745   5.669
 4438POPC   GL258778  37.070   2.870   5.819
 4438POPC   C1A58779  36.738   2.623   6.138
 4438POPC   D2A58780  36.674   2.861   6.561
 4438POPC   C3A58781  36.748   2.758   6.987
 4438POPC   C4A58782  36.792   2.354   7.056
 4438POPC   C1B58783  37.062   3.011   6.255
 4438POPC   C2B58784  37.146   3.228   6.624
 4438POPC   C3B58785  37.322   3.194   7.012
 4438POPC   C4B58786  37.190   2.839   7.273
 4439POPC   NC358787   5.097  12.729   5.277
 4439POPC   PO458788   4.775  13.340   5.381
 4439POPC   GL158789   5.108  13.117   5.701
 4439POPC   GL258790   5.190  12.730   5.781
 4439POPC   C1A58791   5.279  13.061   6.151
 4439POPC   D2A58792   5.087  12.995   6.556
 4439POPC   C3A58793   5.198  12.993   6.985
 4439POPC   C4A58794   5.191  13.203   7.380
 4439POPC   C1B58795   5.169  12.574   6.254
 4439POPC   C2B58796   4.975  12.513   6.693
 4439POPC   C3B58797   5.038  12.512   7.133
 4439POPC   C4B58798   4.948  12.793   7.499
 4440POPC   NC358799  41.804  30.281   5.505
 4440POPC   PO458800  41.285  29.833   5.385
 4440POPC   GL158801  41.447  29.916   5.801
 4440POPC   GL258802  41.443  30.268   5.881
 4440POPC   C1A58803  41.518  29.636   6.149
 4440POPC   D2A58804  41.650  29.640   6.569
 4440POPC   C3A58805  41.362  29.671   6.893
 4440POPC   C4A58806  41.674  29.671   7.167
 4440POPC   C1B58807  41.653  30.128   6.276
 4440POPC   C2B58808  41.705  30.134   6.748
 4440POPC   C3B58809  41.481  30.191   7.157
 4440POPC   C4B58810  41.494  30.318   7.640
 4441POPC   NC358811  42.956  20.955   5.483
 4441POPC   PO458812  43.478  20.575   5.667
 4441POPC   GL158813  43.202  20.449   5.964
 4441POPC   GL258814  42.878  20.299   5.899
 4441POPC   C1A58815  43.208  20.283   6.375
 4441POPC   D2A58816  43.143  20.439   6.794
 4441POPC   C3A58817  43.283  20.846   6.869
 4441POPC   C4A58818  43.325  20.907   7.288
 4441POPC   C1B58819  42.804  20.632   6.234
 4441POPC   C2B58820  42.799  20.847   6.660
 4441POPC   C3B58821  42.821  20.734   7.111
 4441POPC   C4B58822  42.638  20.294   7.102
 4442POPC   NC358823  23.698  28.879   5.201
 4442POPC   PO458824  23.853  28.396   5.623
 4442POPC   GL158825  23.659  28.250   5.931
 4442POPC   GL258826  23.479  28.554   5.980
 4442POPC   C1A58827  23.732  28.354   6.350
 4442POPC   D2A58828  23.576  28.389   6.714
 4442POPC   C3A58829  23.942  28.314   6.946
 4442POPC   C4A58830  23.833  28.197   7.313
 4442POPC   C1B58831  23.315  28.775   6.350
 4442POPC   C2B58832  23.578  28.919   6.707
 4442POPC   C3B58833  23.659  28.696   7.121
 4442POPC   C4B58834  23.294  28.395   7.148
 4443POPC   NC358835  34.608  28.701   5.408
 4443POPC   PO458836  34.965  29.300   5.393
 4443POPC   GL158837  34.655  29.173   5.766
 4443POPC   GL258838  34.461  28.883   5.862
 4443POPC   C1A58839  34.552  29.195   6.236
 4443POPC   D2A58840  34.340  29.085   6.651
 4443POPC   C3A58841  34.545  29.187   7.041
 4443POPC   C4A58842  34.928  29.012   7.158
 4443POPC   C1B58843  34.159  28.828   6.229
 4443POPC   C2B58844  33.971  28.737   6.658
 4443POPC   C3B58845  34.152  28.836   7.100
 4443POPC   C4B58846  34.492  28.833   7.442
 4444POPC   NC358847  39.001  10.763   5.062
 4444POPC   PO458848  39.539  10.544   5.433
 4444POPC   GL158849  39.134  10.500   5.652
 4444POPC   GL258850  39.353  10.329   5.857
 4444POPC   C1A58851  38.907  10.587   6.050
 4444POPC   D2A58852  38.819  10.445   6.473
 4444POPC   C3A58853  38.868  10.556   6.893
 4444POPC   C4A58854  39.144  10.679   7.219
 4444POPC   C1B58855  39.391  10.597   6.207
 4444POPC   C2B58856  39.307  10.597   6.622
 4444POPC   C3B58857  39.564  10.618   6.939
 4444POPC   C4B58858  39.608  10.894   7.329
 4445POPC   NC358859  39.698   6.841   5.363
 4445POPC   PO458860  39.968   7.446   5.251
 4445POPC   GL158861  40.024   7.513   5.709
 4445POPC   GL258862  39.823   7.806   5.766
 4445POPC   C1A58863  39.964   7.260   6.115
 4445POPC   D2A58864  40.176   7.298   6.526
 4445POPC   C3A58865  40.178   7.062   6.910
 4445POPC   C4A58866  40.212   7.360   7.240
 4445POPC   C1B58867  39.951   7.759   6.192
 4445POPC   C2B58868  39.738   7.542   6.519
 4445POPC   C3B58869  39.886   7.581   6.925
 4445POPC   C4B58870  39.682   7.447   7.296
 4446POPC   NC358871   8.236  38.231   5.338
 4446POPC   PO458872   8.085  37.564   5.410
 4446POPC   GL158873   8.165  37.628   5.844
 4446POPC   GL258874   8.273  37.959   5.807
 4446POPC   C1A58875   7.986  37.731   6.268
 4446POPC   D2A58876   8.183  37.970   6.642
 4446POPC   C3A58877   8.308  37.680   7.002
 4446POPC   C4A58878   8.268  37.520   7.475
 4446POPC   C1B58879   8.491  37.886   6.218
 4446POPC   C2B58880   8.705  38.022   6.597
 4446POPC   C3B58881   8.603  38.114   7.042
 4446POPC   C4B58882   8.673  37.798   7.408
 4447POPC   NC358883  35.982   3.917   5.436
 4447POPC   PO458884  36.290   4.551   5.247
 4447POPC   GL158885  36.319   4.277   5.607
 4447POPC   GL258886  36.031   4.370   5.712
 4447POPC   C1A58887  36.290   4.074   6.061
 4447POPC   D2A58888  36.005   4.083   6.461
 4447POPC   C3A58889  36.130   4.204   6.881
 4447POPC   C4A58890  36.265   4.046   7.295
 4447POPC   C1B58891  36.008   4.489   6.137
 4447POPC   C2B58892  35.878   4.577   6.566
 4447POPC   C3B58893  35.687   4.419   6.977
 4447POPC   C4B58894  35.960   4.474   7.319
 4448POPC   NC358895  12.400  13.456   5.574
 4448POPC   PO458896  11.723  13.466   5.396
 4448POPC   GL158897  11.945  13.366   5.800
 4448POPC   GL258898  12.042  13.705   5.876
 4448POPC   C1A58899  11.980  13.420   6.275
 4448POPC   D2A58900  12.024  13.770   6.568
 4448POPC   C3A58901  12.113  13.582   6.921
 4448POPC   C4A58902  12.054  13.800   7.253
 4448POPC   C1B58903  12.390  13.723   6.218
 4448POPC   C2B58904  12.541  13.759   6.668
 4448POPC   C3B58905  12.565  13.726   7.138
 4448POPC   C4B58906  12.440  13.756   7.596
 4449POPC   NC358907   4.345   1.419   5.432
 4449POPC   PO458908   4.226   0.751   5.464
 4449POPC   GL158909   4.215   1.051   5.812
 4449POPC   GL258910   4.575   1.072   5.804
 4449POPC   C1A58911   4.253   1.374   6.185
 4449POPC   D2A58912   4.209   1.719   6.545
 4449POPC   C3A58913   3.946   1.639   6.934
 4449POPC   C4A58914   3.975   1.384   7.356
 4449POPC   C1B58915   4.519   0.920   6.241
 4449POPC   C2B58916   4.261   1.047   6.604
 4449POPC   C3B58917   4.320   1.285   6.991
 4449POPC   C4B58918   4.370   1.067   7.403
 4450POPC   NC358919  20.081  25.304   5.389
 4450POPC   PO458920  19.625  24.832   5.173
 4450POPC   GL158921  19.750  24.989   5.638
 4450POPC   GL258922  19.795  25.369   5.784
 4450POPC   C1A58923  19.763  24.985   6.114
 4450POPC   D2A58924  19.699  24.830   6.549
 4450POPC   C3A58925  19.894  25.058   6.866
 4450POPC   C4A58926  19.957  24.966   7.293
 4450POPC   C1B58927  19.828  25.558   6.211
 4450POPC   C2B58928  19.972  25.525   6.649
 4450POPC   C3B58929  20.000  25.499   7.116
 4450POPC   C4B58930  20.059  25.591   7.547
 4451POPC   NC358931   8.663  43.310   5.426
 4451POPC   PO458932   9.181  42.876   5.369
 4451POPC   GL158933   9.056  43.152   5.728
 4451POPC   GL258934   8.722  43.044   5.853
 4451POPC   C1A58935   9.163  43.348   6.133
 4451POPC   D2A58936   9.250  43.223   6.554
 4451POPC   C3A58937   9.158  43.269   6.966
 4451POPC   C4A58938   9.225  42.882   7.186
 4451POPC   C1B58939   8.646  43.376   6.153
 4451POPC   C2B58940   8.795  43.424   6.586
 4451POPC   C3B58941   8.640  43.346   7.043
 4451POPC   C4B58942   8.691  43.272   7.523
 4452POPC   NC358943  11.187   8.563   5.485
 4452POPC   PO458944  11.417   9.231   5.313
 4452POPC   GL158945  11.339   9.094   5.718
 4452POPC   GL258946  11.509   8.809   5.822
 4452POPC   C1A58947  11.516   9.258   6.103
 4452POPC   D2A58948  11.350   9.451   6.488
 4452POPC   C3A58949  11.475   9.314   6.888
 4452POPC   C4A58950  11.260   9.076   7.194
 4452POPC   C1B58951  11.319   8.802   6.214
 4452POPC   C2B58952  11.433   8.867   6.616
 4452POPC   C3B58953  11.280   8.635   6.946
 4452POPC   C4B58954  11.441   8.641   7.344
 4453POPC   NC358955  16.695   1.926   5.158
 4453POPC   PO458956  16.905   1.629   5.645
 4453POPC   GL158957  16.504   1.843   5.716
 4453POPC   GL258958  16.554   2.157   5.607
 4453POPC   C1A58959  16.329   2.023   6.094
 4453POPC   D2A58960  16.597   1.996   6.470
 4453POPC   C3A58961  16.505   1.940   6.890
 4453POPC   C4A58962  16.628   1.821   7.284
 4453POPC   C1B58963  16.789   2.213   6.045
 4453POPC   C2B58964  17.104   2.237   6.398
 4453POPC   C3B58965  16.954   2.265   6.839
 4453POPC   C4B58966  16.687   2.314   7.200
 4454POPC   NC358967  13.550  28.261   5.614
 4454POPC   PO458968  14.198  28.621   5.513
 4454POPC   GL158969  13.970  28.475   5.843
 4454POPC   GL258970  13.998  28.137   5.892
 4454POPC   C1A58971  13.719  28.534   6.231
 4454POPC   D2A58972  13.884  28.502   6.655
 4454POPC   C3A58973  13.602  28.614   6.975
 4454POPC   C4A58974  13.802  28.659   7.324
 4454POPC   C1B58975  14.123  28.221   6.272
 4454POPC   C2B58976  14.003  27.963   6.562
 4454POPC   C3B58977  14.025  28.071   6.949
 4454POPC   C4B58978  13.713  28.154   7.212
 4455POPC   NC358979   0.852  23.726   5.497
 4455POPC   PO458980   1.577  23.737   5.434
 4455POPC   GL158981   1.282  23.673   5.776
 4455POPC   GL258982   1.048  23.926   5.936
 4455POPC   C1A58983   1.340  23.533   6.187
 4455POPC   D2A58984   1.396  23.696   6.580
 4455POPC   C3A58985   1.433  23.411   6.899
 4455POPC   C4A58986   1.327  23.621   7.265
 4455POPC   C1B58987   0.839  23.526   6.130
 4455POPC   C2B58988   0.913  23.459   6.570
 4455POPC   C3B58989   1.009  23.747   6.910
 4455POPC   C4B58990   0.991  24.023   7.259
 4456POPC   NC358991  25.206  14.397   5.472
 4456POPC   PO458992  25.393  14.979   5.545
 4456POPC   GL158993  25.091  14.780   5.867
 4456POPC   GL258994  25.237  14.485   5.983
 4456POPC   C1A58995  24.857  14.692   6.262
 4456POPC   D2A58996  24.889  14.447   6.685
 4456POPC   C3A58997  25.094  14.635   7.006
 4456POPC   C4A58998  25.144  14.966   7.323
 4456POPC   C1B58999  25.063  14.188   6.267
 4456POPC   C2B59000  25.035  13.955   6.664
 4456POPC   C3B59001  25.167  14.092   7.098
 4456POPC   C4B59002  25.356  13.970   7.516
 4457POPC   NC359003  13.340  37.969   5.189
 4457POPC   PO459004  13.789  37.564   5.387
 4457POPC   GL159005  13.521  37.661   5.695
 4457POPC   GL259006  13.647  37.986   5.772
 4457POPC   C1A59007  13.510  37.642   6.148
 4457POPC   D2A59008  13.821  37.581   6.469
 4457POPC   C3A59009  13.569  37.451   6.800
 4457POPC   C4A59010  13.570  37.285   7.218
 4457POPC   C1B59011  13.749  38.083   6.231
 4457POPC   C2B59012  13.976  38.048   6.644
 4457POPC   C3B59013  13.846  37.817   7.031
 4457POPC   C4B59014  13.418  37.764   7.195
 4458POPC   NC359015  34.346  23.283   5.514
 4458POPC   PO459016  34.830  22.782   5.405
 4458POPC   GL159017  34.868  22.892   5.826
 4458POPC   GL259018  34.512  22.856   5.894
 4458POPC   C1A59019  34.866  22.876   6.293
 4458POPC   D2A59020  34.754  23.085   6.685
 4458POPC   C3A59021  34.821  22.876   7.085
 4458POPC   C4A59022  34.702  22.620   7.437
 4458POPC   C1B59023  34.373  23.035   6.303
 4458POPC   C2B59024  34.242  22.977   6.759
 4458POPC   C3B59025  34.331  22.920   7.211
 4458POPC   C4B59026  34.214  22.663   7.612
 4459POPC   NC359027   5.102   1.595   5.296
 4459POPC   PO459028   5.490   2.192   5.208
 4459POPC   GL159029   5.269   2.078   5.649
 4459POPC   GL259030   5.357   1.732   5.747
 4459POPC   C1A59031   5.082   2.068   6.120
 4459POPC   D2A59032   5.189   2.169   6.601
 4459POPC   C3A59033   5.003   2.037   7.039
 4459POPC   C4A59034   5.110   1.926   7.542
 4459POPC   C1B59035   5.337   1.532   6.148
 4459POPC   C2B59036   5.075   1.673   6.452
 4459POPC   C3B59037   5.037   1.557   6.838
 4459POPC   C4B59038   5.206   1.581   7.208
 4460POPC   NC359039  43.150   9.847   5.163
 4460POPC   PO459040  43.165   9.121   5.296
 4460POPC   GL159041  43.106   9.445   5.724
 4460POPC   GL259042  42.811   9.587   5.847
 4460POPC   C1A59043  43.195   9.699   6.141
 4460POPC   D2A59044  43.055   9.869   6.537
 4460POPC   C3A59045  43.291   9.818   6.916
 4460POPC   C4A59046  43.385   9.613   7.272
 4460POPC   C1B59047  42.716   9.943   6.152
 4460POPC   C2B59048  42.612  10.159   6.561
 4460POPC   C3B59049  42.838  10.061   6.956
 4460POPC   C4B59050  42.875   9.742   7.226
 4461POPC   NC359051   9.454   9.657   5.440
 4461POPC   PO459052  10.188   9.494   5.535
 4461POPC   GL159053   9.990   9.781   5.847
 4461POPC   GL259054   9.610   9.840   5.881
 4461POPC   C1A59055   9.915   9.724   6.274
 4461POPC   D2A59056  10.051   9.894   6.610
 4461POPC   C3A59057   9.955   9.667   6.936
 4461POPC   C4A59058   9.786   9.969   7.189
 4461POPC   C1B59059   9.449   9.968   6.274
 4461POPC   C2B59060   9.536   9.826   6.678
 4461POPC   C3B59061   9.431   9.498   6.948
 4461POPC   C4B59062   9.311   9.760   7.254
 4462POPC   NC359063   2.014  33.391   5.101
 4462POPC   PO459064   2.176  32.854   5.477
 4462POPC   GL159065   2.001  32.888   5.856
 4462POPC   GL259066   1.916  33.195   5.867
 4462POPC   C1A59067   2.022  32.675   6.237
 4462POPC   D2A59068   1.877  32.789   6.646
 4462POPC   C3A59069   2.092  32.915   7.002
 4462POPC   C4A59070   2.067  33.289   7.181
 4462POPC   C1B59071   1.965  33.186   6.314
 4462POPC   C2B59072   1.819  33.310   6.724
 4462POPC   C3B59073   1.556  33.332   7.095
 4462POPC   C4B59074   1.583  33.413   7.530
 4463POPC   NC359075  40.302  14.763   5.281
 4463POPC   PO459076  39.735  14.373   5.394
 4463POPC   GL159077  40.080  14.509   5.697
 4463POPC   GL259078  40.232  14.224   5.867
 4463POPC   C1A59079  40.039  14.613   6.149
 4463POPC   D2A59080  39.752  14.466   6.494
 4463POPC   C3A59081  39.882  14.331   6.925
 4463POPC   C4A59082  39.991  14.628   7.233
 4463POPC   C1B59083  40.124  14.118   6.259
 4463POPC   C2B59084  40.283  14.262   6.630
 4463POPC   C3B59085  40.409  14.323   7.068
 4463POPC   C4B59086  40.229  14.056   7.398
 4464POPC   NC359087  38.887   0.802   5.582
 4464POPC   PO459088  38.554   0.307   5.255
 4464POPC   GL159089  38.520   0.338   5.737
 4464POPC   GL259090  38.268   0.122   5.882
 4464POPC   C1A59091  38.570   0.518   6.185
 4464POPC   D2A59092  38.465   0.472   6.663
 4464POPC   C3A59093  38.673   0.406   7.107
 4464POPC   C4A59094  38.369   0.444   7.487
 4464POPC   C1B59095  38.099   0.322   6.300
 4464POPC   C2B59096  37.963   0.311   6.702
 4464POPC   C3B59097  38.186   0.210   7.059
 4464POPC   C4B59098  38.387  44.961   7.346
 4465POPC   NC359099  11.978  40.138   5.234
 4465POPC   PO459100  12.040  39.497   5.269
 4465POPC   GL159101  11.821  39.770   5.630
 4465POPC   GL259102  11.795  40.165   5.721
 4465POPC   C1A59103  11.812  39.791   6.106
 4465POPC   D2A59104  11.964  39.809   6.547
 4465POPC   C3A59105  11.844  39.993   6.960
 4465POPC   C4A59106  11.933  40.060   7.441
 4465POPC   C1B59107  11.965  40.291   6.161
 4465POPC   C2B59108  12.086  40.318   6.632
 4465POPC   C3B59109  12.304  40.176   7.051
 4465POPC   C4B59110  12.440  40.165   7.495
 4466POPC   NC359111  37.634  11.051   5.673
 4466POPC   PO459112  37.368  11.516   5.303
 4466POPC   GL159113  37.502  11.532   5.805
 4466POPC   GL259114  37.816  11.351   6.023
 4466POPC   C1A59115  37.364  11.324   6.225
 4466POPC   D2A59116  37.663  11.120   6.521
 4466POPC   C3A59117  37.479  11.081   6.917
 4466POPC   C4A59118  37.619  10.943   7.282
 4466POPC   C1B59119  37.788  11.601   6.363
 4466POPC   C2B59120  37.921  11.898   6.644
 4466POPC   C3B59121  38.108  11.716   6.999
 4466POPC   C4B59122  37.849  11.423   7.206
 4467POPC   NC359123  37.311  30.138   5.352
 4467POPC   PO459124  37.859  29.669   5.449
 4467POPC   GL159125  37.641  29.873   5.783
 4467POPC   GL259126  37.757  30.209   5.714
 4467POPC   C1A59127  37.694  29.714   6.222
 4467POPC   D2A59128  37.938  29.759   6.619
 4467POPC   C3A59129  37.648  29.771   6.949
 4467POPC   C4A59130  37.384  29.658   7.258
 4467POPC   C1B59131  37.590  30.251   6.153
 4467POPC   C2B59132  37.501  30.070   6.553
 4467POPC   C3B59133  37.406  30.251   6.922
 4467POPC   C4B59134  37.566  30.181   7.273
 4468POPC   NC359135  24.778  18.496   5.482
 4468POPC   PO459136  24.346  17.978   5.363
 4468POPC   GL159137  24.493  18.142   5.767
 4468POPC   GL259138  24.725  17.884   5.908
 4468POPC   C1A59139  24.666  18.336   6.160
 4468POPC   D2A59140  24.823  18.457   6.585
 4468POPC   C3A59141  24.599  18.377   6.976
 4468POPC   C4A59142  24.729  18.345   7.387
 4468POPC   C1B59143  24.461  17.869   6.326
 4468POPC   C2B59144  24.469  17.903   6.792
 4468POPC   C3B59145  24.433  17.931   7.238
 4468POPC   C4B59146  24.267  18.180   7.581
 4469POPC   NC359147  37.705   5.656   5.369
 4469POPC   PO459148  37.605   6.265   5.142
 4469POPC   GL159149  37.666   6.079   5.655
 4469POPC   GL259150  37.393   5.843   5.779
 4469POPC   C1A59151  37.676   6.107   6.151
 4469POPC   D2A59152  37.847   6.148   6.575
 4469POPC   C3A59153  37.616   6.057   6.973
 4469POPC   C4A59154  37.812   5.870   7.342
 4469POPC   C1B59155  37.724   5.629   6.017
 4469POPC   C2B59156  37.827   5.643   6.457
 4469POPC   C3B59157  37.856   5.563   6.914
 4469POPC   C4B59158  37.480   5.530   7.162
 4470POPC   NC359159   3.798   0.974   5.414
 4470POPC   PO459160   3.648   1.528   5.219
 4470POPC   GL159161   3.513   1.353   5.648
 4470POPC   GL259162   3.386   0.975   5.726
 4470POPC   C1A59163   3.723   1.231   6.062
 4470POPC   D2A59164   3.729   1.072   6.519
 4470POPC   C3A59165   3.548   1.348   6.854
 4470POPC   C4A59166   3.508   1.560   7.256
 4470POPC   C1B59167   3.403   0.812   6.168
 4470POPC   C2B59168   3.266   0.806   6.609
 4470POPC   C3B59169   3.407   0.900   7.024
 4470POPC   C4B59170   3.152   1.173   7.283
 4471POPC   NC359171  33.840  34.917   5.439
 4471POPC   PO459172  33.858  35.533   5.251
 4471POPC   GL159173  33.864  35.355   5.697
 4471POPC   GL259174  33.560  35.172   5.799
 4471POPC   C1A59175  34.039  35.261   6.114
 4471POPC   D2A59176  34.254  35.282   6.525
 4471POPC   C3A59177  34.020  35.306   6.913
 4471POPC   C4A59178  34.006  35.594   7.273
 4471POPC   C1B59179  33.518  35.349   6.222
 4471POPC   C2B59180  33.566  35.372   6.675
 4471POPC   C3B59181  33.551  35.373   7.143
 4471POPC   C4B59182  33.440  35.236   7.568
 4472POPC   NC359183   7.742  13.775   5.481
 4472POPC   PO459184   7.111  13.532   5.536
 4472POPC   GL159185   7.381  13.649   5.876
 4472POPC   GL259186   7.726  13.488   5.933
 4472POPC   C1A59187   7.377  13.662   6.306
 4472POPC   D2A59188   7.533  13.504   6.675
 4472POPC   C3A59189   7.280  13.628   6.986
 4472POPC   C4A59190   6.929  13.670   7.216
 4472POPC   C1B59191   7.964  13.407   6.365
 4472POPC   C2B59192   7.976  13.339   6.861
 4472POPC   C3B59193   7.745  13.597   7.199
 4472POPC   C4B59194   7.763  13.802   7.617
 4473POPC   NC359195  12.206   1.438   5.607
 4473POPC   PO459196  12.030   2.086   5.439
 4473POPC   GL159197  12.116   1.961   5.829
 4473POPC   GL259198  11.774   1.811   5.824
 4473POPC   C1A59199  12.317   2.177   6.192
 4473POPC   D2A59200  12.609   2.180   6.534
 4473POPC   C3A59201  12.412   2.168   6.926
 4473POPC   C4A59202  12.404   2.363   7.309
 4473POPC   C1B59203  11.991   1.672   6.222
 4473POPC   C2B59204  12.106   1.889   6.603
 4473POPC   C3B59205  11.902   2.114   6.954
 4473POPC   C4B59206  12.029   2.022   7.336
 4474POPC   NC359207  12.366   0.490   5.347
 4474POPC   PO459208  11.910  45.000   5.415
 4474POPC   GL159209  12.017   0.337   5.735
 4474POPC   GL259210  12.361   0.264   5.827
 4474POPC   C1A59211  12.040   0.561   6.167
 4474POPC   D2A59212  12.135   0.388   6.601
 4474POPC   C3A59213  11.874   0.452   6.932
 4474POPC   C4A59214  11.984   0.793   7.233
 4474POPC   C1B59215  12.466  44.932   6.118
 4474POPC   C2B59216  12.461   0.008   6.543
 4474POPC   C3B59217  12.233  44.991   6.958
 4474POPC   C4B59218  12.265   0.350   7.227
 4475POPC   NC359219  38.639  37.000   5.394
 4475POPC   PO459220  38.653  37.441   5.825
 4475POPC   GL159221  38.546  37.032   5.976
 4475POPC   GL259222  38.578  36.690   5.809
 4475POPC   C1A59223  38.513  36.981   6.437
 4475POPC   D2A59224  38.650  37.198   6.844
 4475POPC   C3A59225  38.365  37.108   7.206
 4475POPC   C4A59226  38.080  37.313   7.494
 4475POPC   C1B59227  38.308  36.582   6.148
 4475POPC   C2B59228  38.184  36.558   6.593
 4475POPC   C3B59229  38.278  36.595   7.039
 4475POPC   C4B59230  38.565  36.635   7.374
 4476POPC   NC359231   6.143  44.670   5.679
 4476POPC   PO459232   5.573  44.845   5.470
 4476POPC   GL159233   5.656  44.618   5.847
 4476POPC   GL259234   5.827  44.276   5.805
 4476POPC   C1A59235   5.718  44.848   6.226
 4476POPC   D2A59236   5.593   0.018   6.628
 4476POPC   C3A59237   5.960  44.918   6.922
 4476POPC   C4A59238   5.860  44.727   7.298
 4476POPC   C1B59239   6.038  44.358   6.239
 4476POPC   C2B59240   6.257  44.457   6.657
 4476POPC   C3B59241   6.205  44.334   7.110
 4476POPC   C4B59242   6.125  44.380   7.561
 4477POPC   NC359243  32.936  30.835   5.540
 4477POPC   PO459244  32.320  30.770   5.322
 4477POPC   GL159245  32.213  30.765   5.751
 4477POPC   GL259246  32.010  31.028   5.872
 4477POPC   C1A59247  32.235  30.524   6.117
 4477POPC   D2A59248  32.246  30.709   6.487
 4477POPC   C3A59249  32.168  30.502   6.845
 4477POPC   C4A59250  32.117  30.702   7.218
 4477POPC   C1B59251  32.419  31.056   6.128
 4477POPC   C2B59252  32.554  31.131   6.559
 4477POPC   C3B59253  32.358  31.081   6.971
 4477POPC   C4B59254  32.548  30.945   7.370
 4478POPC   NC359255  24.203   7.945   5.495
 4478POPC   PO459256  23.960   8.543   5.472
 4478POPC   GL159257  24.225   8.464   5.863
 4478POPC   GL259258  24.369   8.130   5.929
 4478POPC   C1A59259  24.291   8.359   6.372
 4478POPC   D2A59260  24.423   8.017   6.673
 4478POPC   C3A59261  24.702   8.049   7.044
 4478POPC   C4A59262  24.833   8.280   7.445
 4478POPC   C1B59263  24.133   7.875   6.219
 4478POPC   C2B59264  23.963   7.842   6.635
 4478POPC   C3B59265  24.076   7.886   7.077
 4478POPC   C4B59266  24.215   7.581   7.399
 4479POPC   NC359267   3.964  42.171   5.478
 4479POPC   PO459268   3.301  42.411   5.290
 4479POPC   GL159269   3.415  42.500   5.753
 4479POPC   GL259270   3.669  42.332   5.855
 4479POPC   C1A59271   3.238  42.497   6.189
 4479POPC   D2A59272   3.235  42.313   6.614
 4479POPC   C3A59273   3.470  42.513   6.965
 4479POPC   C4A59274   3.634  42.529   7.379
 4479POPC   C1B59275   3.607  42.149   6.252
 4479POPC   C2B59276   3.753  42.216   6.661
 4479POPC   C3B59277   3.877  42.201   7.064
 4479POPC   C4B59278   3.833  42.073   7.463
 4480POPC   NC359279  14.366   6.787   5.269
 4480POPC   PO459280  14.842   6.400   5.645
 4480POPC   GL159281  14.576   6.603   5.992
 4480POPC   GL259282  14.252   6.718   5.854
 4480POPC   C1A59283  14.572   6.710   6.424
 4480POPC   D2A59284  14.737   6.860   6.792
 4480POPC   C3A59285  14.468   6.677   7.100
 4480POPC   C4A59286  14.380   6.268   7.156
 4480POPC   C1B59287  14.163   6.940   6.277
 4480POPC   C2B59288  14.217   6.973   6.776
 4480POPC   C3B59289  14.108   6.978   7.293
 4480POPC   C4B59290  14.142   6.990   7.827
 4481POPC   NC359291  29.326  20.560   5.098
 4481POPC   PO459292  28.758  20.242   5.304
 4481POPC   GL159293  29.011  20.418   5.704
 4481POPC   GL259294  29.381  20.436   5.775
 4481POPC   C1A59295  29.104  20.261   6.176
 4481POPC   D2A59296  29.153  20.454   6.598
 4481POPC   C3A59297  29.208  20.318   7.028
 4481POPC   C4A59298  29.240  20.555   7.408
 4481POPC   C1B59299  29.489  20.627   6.232
 4481POPC   C2B59300  29.431  20.890   6.642
 4481POPC   C3B59301  29.445  20.934   7.125
 4481POPC   C4B59302  29.497  20.964   7.611
 4482POPC   NC359303  36.892  18.072   5.171
 4482POPC   PO459304  37.033  18.710   5.389
 4482POPC   GL159305  36.920  18.558   5.776
 4482POPC   GL259306  36.764  18.266   5.651
 4482POPC   C1A59307  36.807  18.722   6.175
 4482POPC   D2A59308  36.883  18.583   6.592
 4482POPC   C3A59309  36.748  18.557   7.018
 4482POPC   C4A59310  37.038  18.478   7.343
 4482POPC   C1B59311  36.843  18.124   6.082
 4482POPC   C2B59312  36.874  18.069   6.536
 4482POPC   C3B59313  37.071  18.155   6.919
 4482POPC   C4B59314  37.098  17.963   7.317
 4483POPC   NC359315  31.533  28.899   5.046
 4483POPC   PO459316  31.308  29.384   5.481
 4483POPC   GL159317  31.491  29.259   5.887
 4483POPC   GL259318  31.787  29.079   5.799
 4483POPC   C1A59319  31.519  29.342   6.345
 4483POPC   D2A59320  31.295  29.659   6.631
 4483POPC   C3A59321  31.144  29.399   6.964
 4483POPC   C4A59322  31.377  29.028   7.026
 4483POPC   C1B59323  31.718  28.872   6.195
 4483POPC   C2B59324  31.625  28.901   6.617
 4483POPC   C3B59325  31.787  28.689   6.986
 4483POPC   C4B59326  31.827  28.954   7.369
 4484POPC   NC359327  24.400  34.738   5.325
 4484POPC   PO459328  24.563  34.156   5.521
 4484POPC   GL159329  24.506  34.320   5.873
 4484POPC   GL259330  24.318  34.591   5.834
 4484POPC   C1A59331  24.362  34.213   6.275
 4484POPC   D2A59332  24.409  34.438   6.650
 4484POPC   C3A59333  24.516  34.281   7.050
 4484POPC   C4A59334  24.294  34.468   7.402
 4484POPC   C1B59335  24.596  34.674   6.206
 4484POPC   C2B59336  24.620  34.901   6.586
 4484POPC   C3B59337  24.616  34.782   7.010
 4484POPC   C4B59338  24.964  34.552   7.181
 4485POPC   NC359339   0.187  25.209   5.415
 4485POPC   PO459340   0.837  25.147   5.410
 4485POPC   GL159341   0.546  25.171   5.786
 4485POPC   GL259342   0.528  25.507   5.949
 4485POPC   C1A59343   0.219  25.089   6.162
 4485POPC   D2A59344   0.090  24.934   6.608
 4485POPC   C3A59345   0.119  25.227   6.991
 4485POPC   C4A59346   0.203  25.450   7.401
 4485POPC   C1B59347   0.687  25.237   6.263
 4485POPC   C2B59348   0.605  25.021   6.604
 4485POPC   C3B59349   0.634  25.284   6.947
 4485POPC   C4B59350   0.639  25.190   7.354
 4486POPC   NC359351   7.718   6.615   5.529
 4486POPC   PO459352   7.121   6.424   5.708
 4486POPC   GL159353   7.373   6.721   5.932
 4486POPC   GL259354   7.708   6.873   5.954
 4486POPC   C1A59355   7.465   6.650   6.358
 4486POPC   D2A59356   7.350   6.424   6.702
 4486POPC   C3A59357   7.452   6.617   7.075
 4486POPC   C4A59358   7.424   6.452   7.470
 4486POPC   C1B59359   7.670   7.121   6.330
 4486POPC   C2B59360   7.644   6.985   6.740
 4486POPC   C3B59361   7.826   7.101   7.115
 4486POPC   C4B59362   7.713   6.895   7.456
 4487POPC   NC359363  18.374  23.423   5.399
 4487POPC   PO459364  18.297  22.754   5.343
 4487POPC   GL159365  18.250  22.895   5.789
 4487POPC   GL259366  18.431  23.206   5.851
 4487POPC   C1A59367  18.122  23.012   6.219
 4487POPC   D2A59368  17.879  23.072   6.586
 4487POPC   C3A59369  18.149  22.934   6.938
 4487POPC   C4A59370  18.284  22.889   7.380
 4487POPC   C1B59371  18.496  23.376   6.281
 4487POPC   C2B59372  18.560  23.165   6.668
 4487POPC   C3B59373  18.515  23.277   7.085
 4487POPC   C4B59374  18.356  23.696   7.188
 4488POPC   NC359375  25.578  25.720   5.358
 4488POPC   PO459376  25.418  26.384   5.271
 4488POPC   GL159377  25.500  26.251   5.701
 4488POPC   GL259378  25.190  26.073   5.714
 4488POPC   C1A59379  25.400  26.189   6.169
 4488POPC   D2A59380  25.503  26.130   6.602
 4488POPC   C3A59381  25.481  26.385   6.923
 4488POPC   C4A59382  25.382  26.245   7.328
 4488POPC   C1B59383  24.918  26.322   6.020
 4488POPC   C2B59384  24.955  26.402   6.498
 4488POPC   C3B59385  25.001  26.268   6.964
 4488POPC   C4B59386  24.889  26.260   7.435
 4489POPC   NC359387   2.447   7.210   5.516
 4489POPC   PO459388   2.354   7.895   5.530
 4489POPC   GL159389   2.256   7.561   5.862
 4489POPC   GL259390   1.983   7.289   5.817
 4489POPC   C1A59391   2.113   7.465   6.300
 4489POPC   D2A59392   2.005   7.509   6.738
 4489POPC   C3A59393   2.290   7.355   7.049
 4489POPC   C4A59394   2.312   7.430   7.480
 4489POPC   C1B59395   1.775   7.068   6.183
 4489POPC   C2B59396   1.864   7.016   6.653
 4489POPC   C3B59397   1.801   7.145   7.084
 4489POPC   C4B59398   1.842   7.327   7.522
 4490POPC   NC359399  20.508  43.305   5.453
 4490POPC   PO459400  20.751  42.731   5.344
 4490POPC   GL159401  20.852  42.992   5.735
 4490POPC   GL259402  20.984  43.329   5.646
 4490POPC   C1A59403  20.670  43.061   6.178
 4490POPC   D2A59404  20.657  43.007   6.629
 4490POPC   C3A59405  20.461  43.240   6.982
 4490POPC   C4A59406  20.453  42.883   7.259
 4490POPC   C1B59407  21.058  43.342   6.091
 4490POPC   C2B59408  20.904  43.441   6.498
 4490POPC   C3B59409  20.968  43.283   6.945
 4490POPC   C4B59410  20.831  43.217   7.396
 4491POPC   NC359411  26.663  22.030   5.469
 4491POPC   PO459412  27.076  21.577   5.484
 4491POPC   GL159413  26.857  21.776   5.870
 4491POPC   GL259414  26.483  21.816   5.904
 4491POPC   C1A59415  26.877  21.931   6.319
 4491POPC   D2A59416  26.813  21.917   6.793
 4491POPC   C3A59417  26.948  22.262   7.071
 4491POPC   C4A59418  26.825  22.323   7.503
 4491POPC   C1B59419  26.398  22.089   6.296
 4491POPC   C2B59420  26.529  22.332   6.669
 4491POPC   C3B59421  26.437  22.243   7.102
 4491POPC   C4B59422  26.337  22.010   7.493
 4492POPC   NC359423  25.780   7.047   5.217
 4492POPC   PO459424  26.111   7.504   5.100
 4492POPC   GL159425  25.886   7.423   5.574
 4492POPC   GL259426  26.044   7.665   5.827
 4492POPC   C1A59427  25.917   7.218   6.012
 4492POPC   D2A59428  25.992   7.179   6.487
 4492POPC   C3A59429  26.007   7.196   6.949
 4492POPC   C4A59430  26.007   7.505   7.311
 4492POPC   C1B59431  25.838   7.646   6.273
 4492POPC   C2B59432  25.826   7.645   6.740
 4492POPC   C3B59433  25.932   7.942   7.090
 4492POPC   C4B59434  25.860   7.996   7.543
 4493POPC   NC359435  26.194  32.859   5.280
 4493POPC   PO459436  25.757  33.244   5.589
 4493POPC   GL159437  25.788  32.922   5.865
 4493POPC   GL259438  25.890  32.663   5.665
 4493POPC   C1A59439  25.869  32.882   6.309
 4493POPC   D2A59440  25.955  32.815   6.755
 4493POPC   C3A59441  25.856  33.037   7.150
 4493POPC   C4A59442  25.791  33.100   7.605
 4493POPC   C1B59443  26.245  32.733   5.979
 4493POPC   C2B59444  26.364  32.698   6.414
 4493POPC   C3B59445  26.422  32.603   6.841
 4493POPC   C4B59446  26.144  32.599   7.193
 4494POPC   NC359447   5.827  22.062   4.895
 4494POPC   PO459448   6.210  22.070   5.435
 4494POPC   GL159449   5.867  22.027   5.735
 4494POPC   GL259450   6.028  21.779   5.886
 4494POPC   C1A59451   5.636  22.038   6.152
 4494POPC   D2A59452   5.780  22.218   6.568
 4494POPC   C3A59453   5.590  22.170   6.979
 4494POPC   C4A59454   5.781  22.228   7.396
 4494POPC   C1B59455   6.127  21.955   6.267
 4494POPC   C2B59456   6.011  21.770   6.647
 4494POPC   C3B59457   6.018  21.895   7.044
 4494POPC   C4B59458   5.707  21.733   7.283
 4495POPC   NC359459  19.333  23.144   5.371
 4495POPC   PO459460  18.826  23.573   5.476
 4495POPC   GL159461  18.950  23.140   5.719
 4495POPC   GL259462  18.917  23.284   6.034
 4495POPC   C1A59463  19.140  22.856   6.112
 4495POPC   D2A59464  19.002  22.912   6.530
 4495POPC   C3A59465  19.235  22.938   6.884
 4495POPC   C4A59466  19.202  22.836   7.299
 4495POPC   C1B59467  18.636  22.897   6.185
 4495POPC   C2B59468  18.549  22.668   6.603
 4495POPC   C3B59469  18.697  22.762   7.052
 4495POPC   C4B59470  18.757  22.894   7.517
 4496POPC   NC359471  41.086  36.608   5.213
 4496POPC   PO459472  40.503  36.720   5.245
 4496POPC   GL159473  40.549  36.780   5.725
 4496POPC   GL259474  40.573  37.145   5.809
 4496POPC   C1A59475  40.443  36.840   6.192
 4496POPC   D2A59476  40.655  36.920   6.551
 4496POPC   C3A59477  40.623  36.982   6.974
 4496POPC   C4A59478  40.834  36.684   7.168
 4496POPC   C1B59479  40.679  37.333   6.249
 4496POPC   C2B59480  40.876  37.350   6.694
 4496POPC   C3B59481  40.840  37.431   7.160
 4496POPC   C4B59482  40.792  37.545   7.614
 4497POPC   NC359483  13.692  11.997   5.385
 4497POPC   PO459484  13.571  12.607   5.416
 4497POPC   GL159485  13.440  12.334   5.764
 4497POPC   GL259486  13.756  12.239   5.825
 4497POPC   C1A59487  13.385  12.120   6.202
 4497POPC   D2A59488  13.246  11.986   6.633
 4497POPC   C3A59489  13.446  12.165   6.969
 4497POPC   C4A59490  13.850  12.054   7.134
 4497POPC   C1B59491  13.755  12.482   6.166
 4497POPC   C2B59492  13.717  12.339   6.569
 4497POPC   C3B59493  13.806  12.510   6.936
 4497POPC   C4B59494  14.023  12.644   7.252
 4498POPC   NC359495  18.171  13.092   5.255
 4498POPC   PO459496  18.626  12.591   5.342
 4498POPC   GL159497  18.460  12.726   5.781
 4498POPC   GL259498  18.097  12.795   5.788
 4498POPC   C1A59499  18.310  12.563   6.227
 4498POPC   D2A59500  18.480  12.590   6.676
 4498POPC   C3A59501  18.355  12.943   7.003
 4498POPC   C4A59502  17.919  13.085   7.118
 4498POPC   C1B59503  17.945  12.938   6.213
 4498POPC   C2B59504  17.997  12.797   6.644
 4498POPC   C3B59505  18.053  12.545   7.003
 4498POPC   C4B59506  17.994  12.590   7.452
 4499POPC   NC359507  10.997  31.866   5.358
 4499POPC   PO459508  11.419  32.388   5.235
 4499POPC   GL159509  11.340  32.272   5.724
 4499POPC   GL259510  11.002  32.141   5.799
 4499POPC   C1A59511  11.368  32.437   6.203
 4499POPC   D2A59512  11.279  32.562   6.677
 4499POPC   C3A59513  11.618  32.581   7.025
 4499POPC   C4A59514  11.740  32.254   7.306
 4499POPC   C1B59515  11.128  31.982   6.198
 4499POPC   C2B59516  11.054  31.853   6.633
 4499POPC   C3B59517  11.324  32.074   6.935
 4499POPC   C4B59518  11.237  32.354   7.270
 4500POPC   NC359519   1.945  22.574   5.511
 4500POPC   PO459520   2.127  21.937   5.321
 4500POPC   GL159521   1.914  22.070   5.736
 4500POPC   GL259522   2.091  22.352   5.934
 4500POPC   C1A59523   1.641  22.208   6.109
 4500POPC   D2A59524   1.851  22.442   6.472
 4500POPC   C3A59525   1.744  22.415   6.919
 4500POPC   C4A59526   1.839  22.283   7.334
 4500POPC   C1B59527   2.091  22.034   6.252
 4500POPC   C2B59528   2.241  22.127   6.677
 4500POPC   C3B59529   2.267  22.305   7.074
 4500POPC   C4B59530   2.275  22.089   7.493
 4501POPC   NC359531   5.695  40.606   5.471
 4501POPC   PO459532   5.034  40.943   5.332
 4501POPC   GL159533   5.210  40.890   5.781
 4501POPC   GL259534   5.007  40.623   5.951
 4501POPC   C1A59535   5.087  41.098   6.156
 4501POPC   D2A59536   4.925  40.861   6.451
 4501POPC   C3A59537   5.074  40.870   6.841
 4501POPC   C4A59538   4.894  40.675   7.145
 4501POPC   C1B59539   5.377  40.674   6.238
 4501POPC   C2B59540   5.508  40.657   6.674
 4501POPC   C3B59541   5.426  40.559   7.127
 4501POPC   C4B59542   5.132  40.366   7.440
 4502POPC   NC359543  35.037  41.613   5.493
 4502POPC   PO459544  35.161  41.155   5.783
 4502POPC   GL159545  35.264  41.593   5.977
 4502POPC   GL259546  34.999  41.844   5.952
 4502POPC   C1A59547  35.381  41.726   6.403
 4502POPC   D2A59548  35.534  41.431   6.729
 4502POPC   C3A59549  35.236  41.227   7.014
 4502POPC   C4A59550  34.914  41.456   7.272
 4502POPC   C1B59551  34.866  41.702   6.366
 4502POPC   C2B59552  35.028  41.618   6.779
 4502POPC   C3B59553  35.335  41.747   7.095
 4502POPC   C4B59554  35.679  41.814   7.388
 4503POPC   NC359555  39.147  14.320   5.329
 4503POPC   PO459556  39.101  13.673   5.541
 4503POPC   GL159557  39.204  14.067   5.791
 4503POPC   GL259558  38.945  14.347   5.848
 4503POPC   C1A59559  39.372  14.362   6.133
 4503POPC   D2A59560  39.160  14.378   6.536
 4503POPC   C3A59561  39.379  14.357   6.895
 4503POPC   C4A59562  39.487  14.106   7.249
 4503POPC   C1B59563  38.926  14.702   6.170
 4503POPC   C2B59564  38.869  14.831   6.587
 4503POPC   C3B59565  38.952  14.640   6.966
 4503POPC   C4B59566  39.300  14.710   7.263
 4504POPC   NC359567  31.444   9.328   5.495
 4504POPC   PO459568  31.336   8.676   5.511
 4504POPC   GL159569  31.609   8.864   5.831
 4504POPC   GL259570  31.840   9.170   5.791
 4504POPC   C1A59571  31.571   8.727   6.275
 4504POPC   D2A59572  31.515   8.539   6.709
 4504POPC   C3A59573  31.502   8.755   7.141
 4504POPC   C4A59574  31.533   8.691   7.639
 4504POPC   C1B59575  31.579   9.260   6.194
 4504POPC   C2B59576  31.554   9.086   6.638
 4504POPC   C3B59577  31.775   9.170   7.018
 4504POPC   C4B59578  31.724   9.163   7.462
 4505POPC   NC359579  23.806  28.864   5.684
 4505POPC   PO459580  23.472  29.318   5.222
 4505POPC   GL159581  23.575  29.342   5.716
 4505POPC   GL259582  23.423  29.095   5.948
 4505POPC   C1A59583  23.835  29.380   6.166
 4505POPC   D2A59584  23.896  29.416   6.610
 4505POPC   C3A59585  24.012  29.115   6.942
 4505POPC   C4A59586  24.039  29.237   7.375
 4505POPC   C1B59587  23.381  29.324   6.342
 4505POPC   C2B59588  23.428  29.412   6.770
 4505POPC   C3B59589  23.520  29.180   7.139
 4505POPC   C4B59590  23.271  28.894   7.386
 4506POPC   NC359591   5.603  43.176   5.583
 4506POPC   PO459592   6.106  42.949   5.196
 4506POPC   GL159593   6.010  42.900   5.736
 4506POPC   GL259594   5.646  42.892   5.986
 4506POPC   C1A59595   6.053  43.090   6.186
 4506POPC   D2A59596   5.870  43.068   6.611
 4506POPC   C3A59597   5.961  43.232   7.013
 4506POPC   C4A59598   5.880  42.951   7.401
 4506POPC   C1B59599   5.522  43.253   6.306
 4506POPC   C2B59600   5.403  43.351   6.740
 4506POPC   C3B59601   5.476  43.173   7.165
 4506POPC   C4B59602   5.458  43.209   7.636
 4507POPC   NC359603  23.871  27.953   5.538
 4507POPC   PO459604  23.363  27.529   5.540
 4507POPC   GL159605  23.768  27.368   5.730
 4507POPC   GL259606  23.703  27.649   5.908
 4507POPC   C1A59607  23.861  27.271   6.185
 4507POPC   D2A59608  23.685  27.444   6.567
 4507POPC   C3A59609  23.972  27.471   6.912
 4507POPC   C4A59610  24.037  27.258   7.311
 4507POPC   C1B59611  23.698  27.852   6.251
 4507POPC   C2B59612  23.807  27.924   6.648
 4507POPC   C3B59613  23.620  27.834   7.021
 4507POPC   C4B59614  23.789  27.686   7.413
 4508POPC   NC359615  10.102  27.046   5.483
 4508POPC   PO459616  10.540  26.532   5.446
 4508POPC   GL159617  10.540  26.899   5.749
 4508POPC   GL259618  10.251  26.968   5.971
 4508POPC   C1A59619  10.721  27.099   6.141
 4508POPC   D2A59620  10.987  27.110   6.511
 4508POPC   C3A59621  10.808  27.113   6.950
 4508POPC   C4A59622  10.959  26.811   7.252
 4508POPC   C1B59623  10.226  26.822   6.413
 4508POPC   C2B59624  10.288  26.898   6.872
 4508POPC   C3B59625  10.401  26.746   7.269
 4508POPC   C4B59626  10.151  26.577   7.663
 4509POPC   NC359627  16.941  29.496   5.359
 4509POPC   PO459628  16.688  30.221   5.396
 4509POPC   GL159629  16.868  29.907   5.681
 4509POPC   GL259630  16.575  29.690   5.682
 4509POPC   C1A59631  16.912  29.814   6.136
 4509POPC   D2A59632  16.668  29.958   6.523
 4509POPC   C3A59633  16.801  29.811   6.939
 4509POPC   C4A59634  16.987  29.833   7.389
 4509POPC   C1B59635  16.439  29.606   6.114
 4509POPC   C2B59636  16.519  29.459   6.536
 4509POPC   C3B59637  16.309  29.507   6.931
 4509POPC   C4B59638  16.521  29.585   7.312
 4510POPC   NC359639  20.637  35.987   5.276
 4510POPC   PO459640  20.512  35.378   5.281
 4510POPC   GL159641  20.536  35.510   5.715
 4510POPC   GL259642  20.867  35.432   5.691
 4510POPC   C1A59643  20.440  35.330   6.133
 4510POPC   D2A59644  20.448  35.000   6.457
 4510POPC   C3A59645  20.455  35.170   6.879
 4510POPC   C4A59646  20.518  35.372   7.289
 4510POPC   C1B59647  20.929  35.493   6.115
 4510POPC   C2B59648  20.806  35.334   6.509
 4510POPC   C3B59649  20.883  35.465   6.931
 4510POPC   C4B59650  21.046  35.438   7.337
 4511POPC   NC359651  40.269  40.592   5.466
 4511POPC   PO459652  40.023  41.249   5.570
 4511POPC   GL159653  40.136  40.926   5.836
 4511POPC   GL259654  39.825  40.703   5.809
 4511POPC   C1A59655  40.051  40.856   6.265
 4511POPC   D2A59656  39.956  41.044   6.644
 4511POPC   C3A59657  40.068  40.780   6.963
 4511POPC   C4A59658  40.172  40.913   7.363
 4511POPC   C1B59659  39.786  40.402   6.171
 4511POPC   C2B59660  39.913  40.345   6.600
 4511POPC   C3B59661  39.869  40.268   7.032
 4511POPC   C4B59662  39.787  40.557   7.338
 4512POPC   NC359663  37.290  36.789   5.245
 4512POPC   PO459664  36.762  37.013   5.440
 4512POPC   GL159665  36.977  36.830   5.792
 4512POPC   GL259666  37.284  36.994   5.755
 4512POPC   C1A59667  36.878  36.750   6.252
 4512POPC   D2A59668  37.057  36.776   6.662
 4512POPC   C3A59669  36.819  36.735   7.030
 4512POPC   C4A59670  37.027  36.795   7.410
 4512POPC   C1B59671  37.186  37.140   6.197
 4512POPC   C2B59672  37.099  37.292   6.629
 4512POPC   C3B59673  37.092  37.192   7.072
 4512POPC   C4B59674  36.768  37.252   7.366
 4513POPC   NC359675  30.292  33.162   5.454
 4513POPC   PO459676  30.048  32.676   5.101
 4513POPC   GL159677  30.034  32.733   5.628
 4513POPC   GL259678  30.319  32.866   5.885
 4513POPC   C1A59679  29.887  32.778   6.127
 4513POPC   D2A59680  30.137  32.847   6.557
 4513POPC   C3A59681  29.918  32.989   6.949
 4513POPC   C4A59682  29.561  33.258   7.112
 4513POPC   C1B59683  30.163  33.228   6.219
 4513POPC   C2B59684  30.128  33.435   6.684
 4513POPC   C3B59685  30.048  33.435   7.171
 4513POPC   C4B59686  30.212  33.425   7.629
 4514POPC   NC359687  39.658  43.532   5.565
 4514POPC   PO459688  39.691  44.196   5.341
 4514POPC   GL159689  39.903  43.975   5.720
 4514POPC   GL259690  40.252  43.851   5.799
 4514POPC   C1A59691  39.804  43.838   6.153
 4514POPC   D2A59692  39.965  43.782   6.574
 4514POPC   C3A59693  39.718  43.585   6.877
 4514POPC   C4A59694  39.850  43.726   7.256
 4514POPC   C1B59695  40.216  43.555   6.168
 4514POPC   C2B59696  40.318  43.399   6.508
 4514POPC   C3B59697  40.431  43.628   6.828
 4514POPC   C4B59698  40.345  43.649   7.265
 4515POPC   NC359699   3.741  23.169   5.391
 4515POPC   PO459700   3.200  22.792   5.395
 4515POPC   GL159701   3.423  22.871   5.794
 4515POPC   GL259702   3.271  22.603   5.973
 4515POPC   C1A59703   3.711  22.768   6.162
 4515POPC   D2A59704   3.746  22.597   6.606
 4515POPC   C3A59705   3.551  22.869   6.932
 4515POPC   C4A59706   3.560  23.228   7.232
 4515POPC   C1B59707   3.267  22.715   6.418
 4515POPC   C2B59708   3.081  22.954   6.754
 4515POPC   C3B59709   3.081  23.014   7.203
 4515POPC   C4B59710   2.951  22.823   7.586
 4516POPC   NC359711  38.137  35.094   5.438
 4516POPC   PO459712  38.270  35.713   5.501
 4516POPC   GL159713  38.471  35.378   5.797
 4516POPC   GL259714  38.441  34.984   5.846
 4516POPC   C1A59715  38.619  35.310   6.235
 4516POPC   D2A59716  38.461  35.275   6.648
 4516POPC   C3A59717  38.593  35.428   7.016
 4516POPC   C4A59718  38.396  35.650   7.299
 4516POPC   C1B59719  38.303  34.893   6.289
 4516POPC   C2B59720  38.225  34.858   6.760
 4516POPC   C3B59721  38.192  35.137   7.163
 4516POPC   C4B59722  37.910  35.072   7.515
 4517POPC   NC359723  15.524  37.237   5.433
 4517POPC   PO459724  15.669  36.613   5.599
 4517POPC   GL159725  15.564  36.940   5.859
 4517POPC   GL259726  15.929  36.967   5.913
 4517POPC   C1A59727  15.359  36.978   6.252
 4517POPC   D2A59728  15.532  36.869   6.729
 4517POPC   C3A59729  15.742  37.021   7.121
 4517POPC   C4A59730  15.723  37.255   7.547
 4517POPC   C1B59731  16.177  36.809   6.283
 4517POPC   C2B59732  16.026  36.754   6.699
 4517POPC   C3B59733  16.211  36.779   7.080
 4517POPC   C4B59734  16.516  36.505   7.143
 4518POPC   NC359735  19.442  37.556   5.277
 4518POPC   PO459736  19.731  36.895   5.464
 4518POPC   GL159737  20.068  36.976   5.745
 4518POPC   GL259738  20.029  36.660   5.859
 4518POPC   C1A59739  19.994  37.072   6.185
 4518POPC   D2A59740  19.786  36.943   6.547
 4518POPC   C3A59741  20.023  37.042   6.904
 4518POPC   C4A59742  19.839  37.041   7.295
 4518POPC   C1B59743  19.790  36.530   6.202
 4518POPC   C2B59744  19.716  36.424   6.611
 4518POPC   C3B59745  19.786  36.600   6.999
 4518POPC   C4B59746  19.728  36.556   7.423
 4519POPC   NC359747  37.097  20.781   5.052
 4519POPC   PO459748  36.826  20.202   5.370
 4519POPC   GL159749  37.031  20.512   5.654
 4519POPC   GL259750  36.709  20.509   5.844
 4519POPC   C1A59751  37.094  20.832   6.022
 4519POPC   D2A59752  36.874  20.871   6.452
 4519POPC   C3A59753  37.050  20.762   6.883
 4519POPC   C4A59754  36.888  20.752   7.309
 4519POPC   C1B59755  37.002  20.332   6.152
 4519POPC   C2B59756  37.035  20.150   6.568
 4519POPC   C3B59757  36.941  20.243   6.999
 4519POPC   C4B59758  36.594  20.307   7.297
 4520POPC   NC359759  38.481  33.497   5.355
 4520POPC   PO459760  38.774  34.189   5.481
 4520POPC   GL159761  38.461  33.937   5.794
 4520POPC   GL259762  38.440  33.581   5.846
 4520POPC   C1A59763  38.275  33.928   6.186
 4520POPC   D2A59764  38.468  34.077   6.544
 4520POPC   C3A59765  38.406  33.998   6.968
 4520POPC   C4A59766  38.545  33.978   7.384
 4520POPC   C1B59767  38.490  33.463   6.263
 4520POPC   C2B59768  38.429  33.556   6.711
 4520POPC   C3B59769  38.723  33.570   7.081
 4520POPC   C4B59770  38.723  33.532   7.545
 4521POPC   NC359771  36.461   2.416   5.401
 4521POPC   PO459772  35.847   2.616   5.641
 4521POPC   GL159773  36.188   2.845   5.835
 4521POPC   GL259774  35.908   3.057   5.938
 4521POPC   C1A59775  36.246   2.720   6.271
 4521POPC   D2A59776  35.880   2.785   6.555
 4521POPC   C3A59777  36.016   2.680   6.966
 4521POPC   C4A59778  35.844   2.387   7.277
 4521POPC   C1B59779  36.105   3.192   6.296
 4521POPC   C2B59780  36.238   3.108   6.717
 4521POPC   C3B59781  36.090   3.172   7.141
 4521POPC   C4B59782  35.991   2.840   7.460
 4522POPC   NC359783  37.189  27.708   5.263
 4522POPC   PO459784  37.711  27.344   5.483
 4522POPC   GL159785  37.766  27.708   5.753
 4522POPC   GL259786  37.429  27.789   5.745
 4522POPC   C1A59787  37.951  27.757   6.197
 4522POPC   D2A59788  38.025  27.489   6.572
 4522POPC   C3A59789  37.888  27.641   6.943
 4522POPC   C4A59790  37.713  27.712   7.327
 4522POPC   C1B59791  37.530  27.495   6.133
 4522POPC   C2B59792  37.561  27.707   6.549
 4522POPC   C3B59793  37.366  27.700   6.947
 4522POPC   C4B59794  37.295  27.425   7.314
 4523POPC   NC359795  44.301  44.714   5.595
 4523POPC   PO459796  43.760  44.940   5.244
 4523POPC   GL159797  43.755  44.763   5.740
 4523POPC   GL259798  44.068  44.564   5.994
 4523POPC   C1A59799  43.650  44.692   6.198
 4523POPC   D2A59800  43.962  44.688   6.500
 4523POPC   C3A59801  43.764  44.816   6.850
 4523POPC   C4A59802  43.904  44.752   7.252
 4523POPC   C1B59803  44.022  44.207   6.288
 4523POPC   C2B59804  44.041  44.197   6.704
 4523POPC   C3B59805  44.198  44.514   6.941
 4523POPC   C4B59806  44.142  44.304   7.324
 4524POPC   NC359807  41.775   9.318   5.291
 4524POPC   PO459808  41.815   9.917   5.614
 4524POPC   GL159809  41.455   9.711   5.804
 4524POPC   GL259810  41.123   9.906   5.812
 4524POPC   C1A59811  41.521   9.575   6.223
 4524POPC   D2A59812  41.390   9.597   6.623
 4524POPC   C3A59813  41.705   9.669   6.922
 4524POPC   C4A59814  41.612   9.810   7.360
 4524POPC   C1B59815  41.331  10.049   6.181
 4524POPC   C2B59816  41.600  10.040   6.531
 4524POPC   C3B59817  41.354  10.017   6.936
 4524POPC   C4B59818  41.160  10.039   7.313
 4525POPC   NC359819  27.445  26.102   5.467
 4525POPC   PO459820  28.031  26.346   5.552
 4525POPC   GL159821  27.823  26.185   5.905
 4525POPC   GL259822  27.524  26.306   5.910
 4525POPC   C1A59823  27.626  26.018   6.314
 4525POPC   D2A59824  27.857  25.823   6.665
 4525POPC   C3A59825  27.720  25.926   7.063
 4525POPC   C4A59826  27.391  26.047   7.322
 4525POPC   C1B59827  27.721  26.498   6.306
 4525POPC   C2B59828  27.553  26.411   6.698
 4525POPC   C3B59829  27.702  26.434   7.135
 4525POPC   C4B59830  27.865  26.182   7.501
 4526POPC   NC359831  12.012  24.162   5.449
 4526POPC   PO459832  11.827  24.836   5.340
 4526POPC   GL159833  11.994  24.761   5.741
 4526POPC   GL259834  11.665  24.800   5.864
 4526POPC   C1A59835  12.206  24.593   6.115
 4526POPC   D2A59836  12.116  24.291   6.458
 4526POPC   C3A59837  12.206  24.450   6.873
 4526POPC   C4A59838  12.099  24.313   7.298
 4526POPC   C1B59839  11.729  24.667   6.291
 4526POPC   C2B59840  11.880  24.790   6.687
 4526POPC   C3B59841  11.790  24.693   7.124
 4526POPC   C4B59842  11.800  24.609   7.589
 4527POPC   NC359843  13.920  16.907   5.388
 4527POPC   PO459844  13.439  16.546   5.538
 4527POPC   GL159845  13.610  16.818   5.886
 4527POPC   GL259846  13.551  17.185   5.840
 4527POPC   C1A59847  13.793  16.888   6.325
 4527POPC   D2A59848  14.009  16.999   6.738
 4527POPC   C3A59849  13.795  16.869   7.108
 4527POPC   C4A59850  13.603  16.491   7.269
 4527POPC   C1B59851  13.412  17.263   6.283
 4527POPC   C2B59852  13.530  17.194   6.744
 4527POPC   C3B59853  13.447  17.250   7.211
 4527POPC   C4B59854  13.253  17.031   7.538
 4528POPC   NC359855  39.448  36.484   5.448
 4528POPC   PO459856  39.060  35.938   5.259
 4528POPC   GL159857  39.134  35.949   5.724
 4528POPC   GL259858  39.121  36.304   5.794
 4528POPC   C1A59859  39.274  35.994   6.183
 4528POPC   D2A59860  39.483  36.148   6.587
 4528POPC   C3A59861  39.267  36.053   6.986
 4528POPC   C4A59862  39.379  35.805   7.378
 4528POPC   C1B59863  38.852  36.315   6.120
 4528POPC   C2B59864  38.995  36.334   6.548
 4528POPC   C3B59865  38.765  36.416   6.924
 4528POPC   C4B59866  38.899  36.246   7.296
 4529POPC   NC359867   0.683  30.926   5.488
 4529POPC   PO459868   0.293  30.427   5.157
 4529POPC   GL159869   0.296  30.608   5.634
 4529POPC   GL259870   0.594  30.496   5.813
 4529POPC   C1A59871   0.372  30.911   6.063
 4529POPC   D2A59872   0.480  30.779   6.528
 4529POPC   C3A59873   0.406  30.997   6.964
 4529POPC   C4A59874   0.456  30.962   7.455
 4529POPC   C1B59875   0.301  30.426   6.171
 4529POPC   C2B59876   0.296  30.298   6.600
 4529POPC   C3B59877   0.414  30.472   6.941
 4529POPC   C4B59878   0.546  30.344   7.290
 4530POPC   NC359879   1.087   6.088   5.351
 4530POPC   PO459880   1.485   5.536   5.280
 4530POPC   GL159881   1.510   5.845   5.686
 4530POPC   GL259882   1.269   6.115   5.832
 4530POPC   C1A59883   1.435   5.731   6.151
 4530POPC   D2A59884   1.218   5.546   6.532
 4530POPC   C3A59885   1.331   5.661   6.971
 4530POPC   C4A59886   1.161   5.733   7.400
 4530POPC   C1B59887   1.047   6.044   6.222
 4530POPC   C2B59888   1.185   6.062   6.640
 4530POPC   C3B59889   0.962   5.989   7.012
 4530POPC   C4B59890   0.914   6.194   7.414
 4531POPC   NC359891   2.434   3.063   5.552
 4531POPC   PO459892   2.092   3.392   5.075
 4531POPC   GL159893   2.035   3.453   5.605
 4531POPC   GL259894   2.147   3.794   5.740
 4531POPC   C1A59895   1.828   3.548   6.093
 4531POPC   D2A59896   1.767   3.728   6.566
 4531POPC   C3A59897   1.969   3.628   6.992
 4531POPC   C4A59898   1.885   3.346   7.388
 4531POPC   C1B59899   2.286   3.750   6.195
 4531POPC   C2B59900   2.274   3.538   6.590
 4531POPC   C3B59901   2.395   3.354   6.995
 4531POPC   C4B59902   2.644   3.190   7.332
 4532POPC   NC359903   3.537  21.690   5.502
 4532POPC   PO459904   3.352  21.045   5.502
 4532POPC   GL159905   3.385  21.202   5.926
 4532POPC   GL259906   3.550  21.504   5.976
 4532POPC   C1A59907   3.353  21.259   6.387
 4532POPC   D2A59908   3.618  21.115   6.720
 4532POPC   C3A59909   3.682  21.369   7.036
 4532POPC   C4A59910   3.328  21.526   7.188
 4532POPC   C1B59911   3.740  21.763   6.287
 4532POPC   C2B59912   3.720  21.939   6.700
 4532POPC   C3B59913   3.732  21.879   7.145
 4532POPC   C4B59914   3.783  21.743   7.550
 4533POPC   NC359915  35.103   0.136   5.208
 4533POPC   PO459916  35.241   0.848   5.238
 4533POPC   GL159917  35.156   0.590   5.649
 4533POPC   GL259918  35.379   0.271   5.713
 4533POPC   C1A59919  35.160   0.509   6.124
 4533POPC   D2A59920  35.404   0.488   6.513
 4533POPC   C3A59921  35.254   0.597   6.927
 4533POPC   C4A59922  35.258   0.861   7.312
 4533POPC   C1B59923  35.532   0.114   6.145
 4533POPC   C2B59924  35.474  44.989   6.575
 4533POPC   C3B59925  35.223   0.062   6.913
 4533POPC   C4B59926  35.286   0.243   7.301
 4534POPC   NC359927  23.215  44.865   5.403
 4534POPC   PO459928  22.631  44.736   5.584
 4534POPC   GL159929  22.833  44.473   5.862
 4534POPC   GL259930  23.179  44.465   5.773
 4534POPC   C1A59931  22.932  44.500   6.311
 4534POPC   D2A59932  22.819  44.818   6.618
 4534POPC   C3A59933  22.742  44.607   6.976
 4534POPC   C4A59934  22.486  44.313   7.171
 4534POPC   C1B59935  23.239  44.811   6.063
 4534POPC   C2B59936  23.341  44.812   6.525
 4534POPC   C3B59937  23.218  44.821   6.988
 4534POPC   C4B59938  23.116  44.510   7.311
 4535POPC   NC359939  43.067  12.473   5.454
 4535POPC   PO459940  43.088  11.844   5.274
 4535POPC   GL159941  43.201  11.991   5.670
 4535POPC   GL259942  43.245  11.696   5.841
 4535POPC   C1A59943  43.103  12.160   6.077
 4535POPC   D2A59944  42.891  12.215   6.485
 4535POPC   C3A59945  43.195  12.174   6.828
 4535POPC   C4A59946  43.161  12.137   7.282
 4535POPC   C1B59947  43.084  11.680   6.235
 4535POPC   C2B59948  43.156  11.663   6.640
 4535POPC   C3B59949  43.251  11.712   7.042
 4535POPC   C4B59950  43.603  11.883   7.288
 4536POPC   NC359951   7.277  16.920   5.475
 4536POPC   PO459952   7.807  16.446   5.419
 4536POPC   GL159953   7.568  16.568   5.777
 4536POPC   GL259954   7.590  16.908   5.901
 4536POPC   C1A59955   7.637  16.502   6.220
 4536POPC   D2A59956   7.926  16.513   6.582
 4536POPC   C3A59957   7.721  16.491   6.995
 4536POPC   C4A59958   7.369  16.626   7.293
 4536POPC   C1B59959   7.640  17.031   6.364
 4536POPC   C2B59960   7.850  16.983   6.776
 4536POPC   C3B59961   7.838  16.922   7.258
 4536POPC   C4B59962   7.596  16.886   7.689
 4537POPC   NC359963   9.158  25.903   5.338
 4537POPC   PO459964   8.968  26.551   5.508
 4537POPC   GL159965   9.199  26.263   5.800
 4537POPC   GL259966   9.084  25.930   5.844
 4537POPC   C1A59967   9.378  26.153   6.247
 4537POPC   D2A59968   9.267  25.972   6.690
 4537POPC   C3A59969   9.022  26.185   7.047
 4537POPC   C4A59970   8.999  26.470   7.425
 4537POPC   C1B59971   9.120  25.670   6.208
 4537POPC   C2B59972   9.070  25.498   6.625
 4537POPC   C3B59973   9.064  25.645   7.059
 4537POPC   C4B59974   9.067  25.402   7.447
 4538POPC   NC359975  14.942   9.469   5.644
 4538POPC   PO459976  15.397   8.975   5.345
 4538POPC   GL159977  15.518   8.957   5.783
 4538POPC   GL259978  15.331   9.244   5.895
 4538POPC   C1A59979  15.306   8.777   6.176
 4538POPC   D2A59980  14.911   8.754   6.444
 4538POPC   C3A59981  15.067   8.808   6.844
 4538POPC   C4A59982  15.404   8.645   7.109
 4538POPC   C1B59983  15.028   9.227   6.248
 4538POPC   C2B59984  15.085   9.355   6.680
 4538POPC   C3B59985  15.232   9.236   7.066
 4538POPC   C4B59986  15.069   8.927   7.345
 4539POPC   NC359987   5.833  31.274   5.365
 4539POPC   PO459988   6.036  31.938   5.463
 4539POPC   GL159989   6.091  31.751   5.848
 4539POPC   GL259990   6.104  31.429   5.777
 4539POPC   C1A59991   6.097  31.870   6.290
 4539POPC   D2A59992   5.848  31.658   6.617
 4539POPC   C3A59993   5.882  31.507   7.051
 4539POPC   C4A59994   5.494  31.309   7.192
 4539POPC   C1B59995   6.103  31.355   6.242
 4539POPC   C2B59996   6.251  31.348   6.692
 4539POPC   C3B59997   6.276  31.142   7.102
 4539POPC   C4B59998   6.129  31.096   7.548
 4540POPC   NC359999  41.536  20.357   5.461
 4540POPC   PO460000  41.993  20.743   5.479
 4540POPC   GL160001  41.920  20.404   5.800
 4540POPC   GL260002  41.661  20.627   5.930
 4540POPC   C1A60003  41.663  20.147   6.104
 4540POPC   D2A60004  41.461  20.358   6.452
 4540POPC   C3A60005  41.571  20.298   6.896
 4540POPC   C4A60006  41.778  20.352   7.315
 4540POPC   C1B60007  41.434  20.845   6.259
 4540POPC   C2B60008  41.442  20.840   6.699
 4540POPC   C3B60009  41.388  20.959   7.114
 4540POPC   C4B60010  41.546  20.827   7.519
 4541POPC   NC360011  26.765  32.430   5.401
 4541POPC   PO460012  26.817  31.809   5.671
 4541POPC   GL160013  26.931  32.204   5.861
 4541POPC   GL260014  26.620  32.422   5.864
 4541POPC   C1A60015  27.213  32.316   6.230
 4541POPC   D2A60016  27.131  32.167   6.662
 4541POPC   C3A60017  26.691  32.132   6.744
 4541POPC   C4A60018  26.541  32.213   7.139
 4541POPC   C1B60019  26.820  32.622   6.153
 4541POPC   C2B60020  26.866  32.613   6.583
 4541POPC   C3B60021  26.921  32.534   7.017
 4541POPC   C4B60022  26.636  32.683   7.318
 4542POPC   NC360023  44.398  21.645   5.375
 4542POPC   PO460024  44.976  21.306   5.509
 4542POPC   GL160025  44.843  21.332   5.912
 4542POPC   GL260026  44.519  21.386   5.786
 4542POPC   C1A60027  44.795  21.606   6.270
 4542POPC   D2A60028  44.573  21.670   6.650
 4542POPC   C3A60029  44.835  21.600   6.955
 4542POPC   C4A60030  44.920  21.277   7.203
 4542POPC   C1B60031  44.343  21.373   6.160
 4542POPC   C2B60032  44.536  21.179   6.482
 4542POPC   C3B60033  44.449  21.210   6.881
 4542POPC   C4B60034  44.447  21.414   7.249
 4543POPC   NC360035  35.020  21.000   5.417
 4543POPC   PO460036  34.484  20.674   5.114
 4543POPC   GL160037  34.407  20.714   5.616
 4543POPC   GL260038  34.742  20.736   5.765
 4543POPC   C1A60039  34.418  20.502   6.071
 4543POPC   D2A60040  34.477  20.659   6.532
 4543POPC   C3A60041  34.410  20.443   6.936
 4543POPC   C4A60042  34.281  20.562   7.380
 4543POPC   C1B60043  34.872  20.750   6.210
 4543POPC   C2B60044  35.093  20.928   6.589
 4543POPC   C3B60045  35.075  20.920   7.035
 4543POPC   C4B60046  34.771  20.674   7.242
 4544POPC   NC360047   9.075  38.084   5.415
 4544POPC   PO460048   9.067  37.471   5.243
 4544POPC   GL160049   9.004  37.650   5.714
 4544POPC   GL260050   8.795  37.949   5.817
 4544POPC   C1A60051   8.903  37.501   6.177
 4544POPC   D2A60052   8.707  37.493   6.621
 4544POPC   C3A60053   8.926  37.727   6.967
 4544POPC   C4A60054   9.294  37.710   7.231
 4544POPC   C1B60055   9.075  37.972   6.195
 4544POPC   C2B60056   9.253  37.959   6.614
 4544POPC   C3B60057   9.248  38.165   6.997
 4544POPC   C4B60058   9.036  38.136   7.354
 4545POPC   NC360059  12.466  39.265   5.264
 4545POPC   PO460060  13.094  39.100   5.296
 4545POPC   GL160061  12.905  39.007   5.743
 4545POPC   GL260062  12.593  38.788   5.734
 4545POPC   C1A60063  12.981  39.097   6.226
 4545POPC   D2A60064  12.913  38.884   6.647
 4545POPC   C3A60065  12.851  39.060   7.090
 4545POPC   C4A60066  12.637  39.391   7.385
 4545POPC   C1B60067  12.497  39.038   6.105
 4545POPC   C2B60068  12.525  39.204   6.520
 4545POPC   C3B60069  12.383  39.195   6.940
 4545POPC   C4B60070  12.340  38.970   7.302
 4546POPC   NC360071  39.275   1.596   5.629
 4546POPC   PO460072  39.065   2.220   5.503
 4546POPC   GL160073  39.165   2.085   5.869
 4546POPC   GL260074  38.891   1.852   5.897
 4546POPC   C1A60075  39.377   2.230   6.250
 4546POPC   D2A60076  39.309   2.107   6.667
 4546POPC   C3A60077  39.342   2.318   7.037
 4546POPC   C4A60078  39.017   2.109   7.302
 4546POPC   C1B60079  39.121   1.791   6.280
 4546POPC   C2B60080  39.274   1.558   6.596
 4546POPC   C3B60081  39.199   1.717   6.978
 4546POPC   C4B60082  39.442   1.851   7.319
 4547POPC   NC360083   4.850  10.969   5.680
 4547POPC   PO460084   4.298  10.898   5.228
 4547POPC   GL160085   4.337  11.004   5.693
 4547POPC   GL260086   4.165  10.810   5.911
 4547POPC   C1A60087   4.398  11.194   6.160
 4547POPC   D2A60088   4.356  11.054   6.635
 4547POPC   C3A60089   4.423  11.360   6.984
 4547POPC   C4A60090   4.692  11.687   7.209
 4547POPC   C1B60091   4.507  10.711   6.227
 4547POPC   C2B60092   4.751  10.728   6.627
 4547POPC   C3B60093   4.723  10.832   7.048
 4547POPC   C4B60094   4.353  10.936   7.263
 4548POPC   NC360095   1.143  25.718   5.003
 4548POPC   PO460096   1.159  26.283   5.386
 4548POPC   GL160097   1.072  26.074   5.815
 4548POPC   GL260098   1.253  25.725   5.849
 4548POPC   C1A60099   1.179  26.106   6.286
 4548POPC   D2A60100   1.222  25.800   6.642
 4548POPC   C3A60101   1.318  25.883   7.100
 4548POPC   C4A60102   1.549  26.012   7.508
 4548POPC   C1B60103   0.970  25.655   6.182
 4548POPC   C2B60104   0.733  25.687   6.529
 4548POPC   C3B60105   0.781  25.892   6.888
 4548POPC   C4B60106   0.869  25.668   7.229
 4549POPC   NC360107   0.136  44.471   5.466
 4549POPC   PO460108   0.541  44.934   5.570
 4549POPC   GL160109   0.399  44.644   5.913
 4549POPC   GL260110   0.418  44.262   5.893
 4549POPC   C1A60111   0.440  44.545   6.363
 4549POPC   D2A60112   0.706  44.780   6.653
 4549POPC   C3A60113   0.447  44.910   6.908
 4549POPC   C4A60114   0.290  44.585   7.118
 4549POPC   C1B60115   0.058  44.226   6.210
 4549POPC   C2B60116  44.986  44.339   6.669
 4549POPC   C3B60117   0.006  44.174   7.097
 4549POPC   C4B60118   0.341  44.104   7.395
 4550POPC   NC360119  10.391  18.807   5.323
 4550POPC   PO460120  11.060  19.026   5.329
 4550POPC   GL160121  10.736  19.043   5.707
 4550POPC   GL260122  10.442  18.791   5.824
 4550POPC   C1A60123  10.590  19.180   6.134
 4550POPC   D2A60124  10.304  19.000   6.430
 4550POPC   C3A60125  10.257  19.135   6.867
 4550POPC   C4A60126  10.263  18.841   7.205
 4550POPC   C1B60127  10.690  18.661   6.193
 4550POPC   C2B60128  10.824  18.918   6.540
 4550POPC   C3B60129  10.732  18.942   6.965
 4550POPC   C4B60130  10.803  18.608   7.253
 4551POPC   NC360131   0.067   1.353   5.416
 4551POPC   PO460132  44.415   1.125   5.345
 4551POPC   GL160133  44.627   1.215   5.697
 4551POPC   GL260134  44.504   1.567   5.689
 4551POPC   C1A60135  44.571   1.040   6.131
 4551POPC   D2A60136  44.456   1.181   6.551
 4551POPC   C3A60137  44.373   1.019   6.960
 4551POPC   C4A60138  44.208   1.355   7.219
 4551POPC   C1B60139  44.797   1.534   6.060
 4551POPC   C2B60140  44.777   1.588   6.490
 4551POPC   C3B60141  44.817   1.401   6.839
 4551POPC   C4B60142  44.729   1.325   7.232
 4552POPC   NC360143  22.400  43.570   5.241
 4552POPC   PO460144  22.770  44.107   5.435
 4552POPC   GL160145  22.923  43.978   5.821
 4552POPC   GL260146  23.050  43.659   5.731
 4552POPC   C1A60147  22.691  44.064   6.210
 4552POPC   D2A60148  22.665  44.193   6.661
 4552POPC   C3A60149  22.961  44.129   7.002
 4552POPC   C4A60150  22.817  44.017   7.413
 4552POPC   C1B60151  22.913  43.619   6.178
 4552POPC   C2B60152  23.023  43.751   6.660
 4552POPC   C3B60153  23.066  43.650   7.161
 4552POPC   C4B60154  23.185  43.641   7.654
 4553POPC   NC360155   3.984  17.186   5.438
 4553POPC   PO460156   4.684  17.433   5.470
 4553POPC   GL160157   4.303  17.547   5.703
 4553POPC   GL260158   4.200  17.273   5.907
 4553POPC   C1A60159   4.202  17.754   6.099
 4553POPC   D2A60160   4.155  17.457   6.442
 4553POPC   C3A60161   4.212  17.633   6.841
 4553POPC   C4A60162   4.088  17.745   7.266
 4553POPC   C1B60163   4.595  17.422   6.114
 4553POPC   C2B60164   4.681  17.486   6.518
 4553POPC   C3B60165   4.622  17.254   6.850
 4553POPC   C4B60166   4.422  17.342   7.233
 4554POPC   NC360167  42.451  14.758   5.501
 4554POPC   PO460168  42.272  14.115   5.445
 4554POPC   GL160169  42.396  14.333   5.807
 4554POPC   GL260170  42.063  14.507   5.755
 4554POPC   C1A60171  42.460  14.213   6.264
 4554POPC   D2A60172  42.288  14.078   6.700
 4554POPC   C3A60173  42.430  14.339   7.070
 4554POPC   C4A60174  42.602  14.797   7.177
 4554POPC   C1B60175  41.982  14.227   6.101
 4554POPC   C2B60176  42.025  14.460   6.480
 4554POPC   C3B60177  42.190  14.716   6.804
 4554POPC   C4B60178  42.114  14.696   7.238
 4555POPC   NC360179  35.200  29.638   5.642
 4555POPC   PO460180  35.648  30.110   5.308
 4555POPC   GL160181  35.547  30.025   5.775
 4555POPC   GL260182  35.260  30.237   5.884
 4555POPC   C1A60183  35.598  30.045   6.250
 4555POPC   D2A60184  35.426  30.142   6.681
 4555POPC   C3A60185  35.738  30.124   7.021
 4555POPC   C4A60186  35.706  30.013   7.453
 4555POPC   C1B60187  35.093  30.047   6.276
 4555POPC   C2B60188  35.246  29.662   6.512
 4555POPC   C3B60189  35.420  29.645   6.923
 4555POPC   C4B60190  35.262  29.957   7.196
 4556POPC   NC360191   3.121   2.855   5.434
 4556POPC   PO460192   2.471   2.719   5.256
 4556POPC   GL160193   2.705   2.695   5.722
 4556POPC   GL260194   2.897   2.438   5.732
 4556POPC   C1A60195   2.647   2.898   6.172
 4556POPC   D2A60196   2.449   3.029   6.576
 4556POPC   C3A60197   2.725   2.962   6.893
 4556POPC   C4A60198   2.869   2.715   7.208
 4556POPC   C1B60199   2.630   2.392   6.142
 4556POPC   C2B60200   2.661   2.510   6.564
 4556POPC   C3B60201   3.004   2.377   6.812
 4556POPC   C4B60202   3.265   2.374   7.179
 4557POPC   NC360203  38.842   8.338   5.442
 4557POPC   PO460204  38.276   7.989   5.282
 4557POPC   GL160205  38.470   8.043   5.756
 4557POPC   GL260206  38.496   8.391   5.805
 4557POPC   C1A60207  38.339   8.158   6.241
 4557POPC   D2A60208  38.191   8.368   6.645
 4557POPC   C3A60209  38.430   8.278   7.045
 4557POPC   C4A60210  38.311   8.008   7.377
 4557POPC   C1B60211  38.767   8.432   6.163
 4557POPC   C2B60212  38.714   8.370   6.598
 4557POPC   C3B60213  38.895   8.524   6.971
 4557POPC   C4B60214  38.683   8.671   7.328
 4558POPC   NC360215  16.127  28.153   5.483
 4558POPC   PO460216  15.518  28.338   5.195
 4558POPC   GL160217  15.857  28.546   5.649
 4558POPC   GL260218  16.246  28.497   5.866
 4558POPC   C1A60219  15.841  28.465   6.140
 4558POPC   D2A60220  15.808  28.655   6.567
 4558POPC   C3A60221  15.863  28.529   7.000
 4558POPC   C4A60222  15.854  28.114   7.234
 4558POPC   C1B60223  16.275  28.622   6.351
 4558POPC   C2B60224  16.188  28.299   6.667
 4558POPC   C3B60225  16.321  28.231   7.073
 4558POPC   C4B60226  16.281  28.627   7.279
 4559POPC   NC360227  36.748   5.369   5.401
 4559POPC   PO460228  37.027   4.718   5.432
 4559POPC   GL160229  36.796   4.873   5.781
 4559POPC   GL260230  36.924   5.218   5.852
 4559POPC   C1A60231  36.703   4.969   6.228
 4559POPC   D2A60232  37.048   5.141   6.492
 4559POPC   C3A60233  37.095   5.071   6.930
 4559POPC   C4A60234  36.784   4.938   7.230
 4559POPC   C1B60235  36.893   5.526   6.170
 4559POPC   C2B60236  36.703   5.625   6.573
 4559POPC   C3B60237  36.719   5.408   6.945
 4559POPC   C4B60238  37.009   5.431   7.311
 4560POPC   NC360239  44.753   9.635   5.233
 4560POPC   PO460240  44.165   9.346   5.476
 4560POPC   GL160241  44.502   9.589   5.709
 4560POPC   GL260242  44.898   9.622   5.741
 4560POPC   C1A60243  44.603   9.592   6.178
 4560POPC   D2A60244  44.427   9.668   6.624
 4560POPC   C3A60245  44.644   9.550   7.023
 4560POPC   C4A60246  44.626   9.733   7.451
 4560POPC   C1B60247   0.101   9.620   6.199
 4560POPC   C2B60248  44.975   9.751   6.658
 4560POPC   C3B60249   0.031   9.882   7.128
 4560POPC   C4B60250   0.032  10.033   7.587
 4561POPC   NC360251  39.204  19.974   5.453
 4561POPC   PO460252  39.133  19.384   5.445
 4561POPC   GL160253  39.107  19.590   5.822
 4561POPC   GL260254  39.383  19.844   5.909
 4561POPC   C1A60255  39.106  19.631   6.254
 4561POPC   D2A60256  39.243  19.918   6.555
 4561POPC   C3A60257  39.060  19.738   6.900
 4561POPC   C4A60258  39.167  19.838   7.257
 4561POPC   C1B60259  38.992  20.086   6.062
 4561POPC   C2B60260  38.920  20.336   6.414
 4561POPC   C3B60261  38.914  20.216   6.815
 4561POPC   C4B60262  38.834  20.269   7.234
 4562POPC   NC360263  44.111  15.988   5.514
 4562POPC   PO460264  43.467  15.811   5.572
 4562POPC   GL160265  43.801  15.858   5.938
 4562POPC   GL260266  44.044  16.165   5.995
 4562POPC   C1A60267  43.712  15.806   6.390
 4562POPC   D2A60268  43.464  15.991   6.744
 4562POPC   C3A60269  43.589  15.945   7.186
 4562POPC   C4A60270  43.832  16.035   7.582
 4562POPC   C1B60271  43.990  16.266   6.433
 4562POPC   C2B60272  43.972  16.093   6.850
 4562POPC   C3B60273  44.181  16.207   7.231
 4562POPC   C4B60274  44.088  16.500   7.586
 4563POPC   NC360275  43.353  32.013   5.385
 4563POPC   PO460276  42.684  32.098   5.456
 4563POPC   GL160277  42.976  32.105   5.776
 4563POPC   GL260278  43.250  32.333   5.775
 4563POPC   C1A60279  42.991  31.953   6.196
 4563POPC   D2A60280  42.916  32.255   6.508
 4563POPC   C3A60281  42.977  32.132   6.896
 4563POPC   C4A60282  43.242  32.086   7.252
 4563POPC   C1B60283  43.449  32.199   6.153
 4563POPC   C2B60284  43.417  32.119   6.592
 4563POPC   C3B60285  43.402  32.437   6.907
 4563POPC   C4B60286  43.449  32.544   7.329
 4564POPC   NC360287  15.251  14.151   5.381
 4564POPC   PO460288  15.282  13.432   5.434
 4564POPC   GL160289  15.115  13.600   5.820
 4564POPC   GL260290  14.829  13.846   5.815
 4564POPC   C1A60291  15.111  13.411   6.200
 4564POPC   D2A60292  14.997  13.272   6.599
 4564POPC   C3A60293  15.325  13.296   6.888
 4564POPC   C4A60294  15.345  13.298   7.321
 4564POPC   C1B60295  14.958  13.967   6.246
 4564POPC   C2B60296  15.121  13.749   6.625
 4564POPC   C3B60297  15.459  13.793   6.941
 4564POPC   C4B60298  15.425  13.822   7.418
 4565POPC   NC360299  20.111  35.609   5.438
 4565POPC   PO460300  19.556  35.181   5.615
 4565POPC   GL160301  19.905  35.387   5.842
 4565POPC   GL260302  20.163  35.146   5.726
 4565POPC   C1A60303  20.074  35.694   6.163
 4565POPC   D2A60304  20.184  35.529   6.582
 4565POPC   C3A60305  19.854  35.475   6.918
 4565POPC   C4A60306  19.783  35.657   7.306
 4565POPC   C1B60307  20.030  34.976   6.156
 4565POPC   C2B60308  19.951  35.064   6.622
 4565POPC   C3B60309  20.010  35.031   7.081
 4565POPC   C4B60310  19.867  34.820   7.443
 4566POPC   NC360311   6.746  16.234   5.611
 4566POPC   PO460312   7.194  15.661   5.510
 4566POPC   GL160313   6.886  15.786   5.841
 4566POPC   GL260314   6.505  15.770   5.757
 4566POPC   C1A60315   6.854  16.009   6.242
 4566POPC   D2A60316   6.949  16.167   6.648
 4566POPC   C3A60317   6.866  15.929   7.033
 4566POPC   C4A60318   6.715  15.884   7.466
 4566POPC   C1B60319   6.527  15.615   6.210
 4566POPC   C2B60320   6.542  15.814   6.643
 4566POPC   C3B60321   6.372  15.734   7.088
 4566POPC   C4B60322   6.219  15.950   7.469
 4567POPC   NC360323   7.592  10.961   5.209
 4567POPC   PO460324   7.561  10.319   5.352
 4567POPC   GL160325   7.463  10.698   5.643
 4567POPC   GL260326   7.702  10.625   5.885
 4567POPC   C1A60327   7.297  10.819   6.091
 4567POPC   D2A60328   7.464  10.646   6.488
 4567POPC   C3A60329   7.171  10.570   6.851
 4567POPC   C4A60330   7.285  10.668   7.253
 4567POPC   C1B60331   7.864  10.333   6.192
 4567POPC   C2B60332   7.824  10.237   6.629
 4567POPC   C3B60333   7.611  10.334   7.000
 4567POPC   C4B60334   7.720  10.431   7.435
 4568POPC   NC360335  15.244  22.716   5.447
 4568POPC   PO460336  15.070  22.036   5.462
 4568POPC   GL160337  15.246  22.097   5.849
 4568POPC   GL260338  15.345  22.385   5.831
 4568POPC   C1A60339  15.407  21.928   6.235
 4568POPC   D2A60340  15.209  21.773   6.595
 4568POPC   C3A60341  15.358  21.875   7.008
 4568POPC   C4A60342  15.327  22.258   7.247
 4568POPC   C1B60343  15.116  22.338   6.257
 4568POPC   C2B60344  15.216  22.292   6.715
 4568POPC   C3B60345  14.908  22.455   7.030
 4568POPC   C4B60346  14.970  22.587   7.455
 4569POPC   NC360347  16.871   6.521   5.394
 4569POPC   PO460348  16.360   6.352   5.806
 4569POPC   GL160349  16.733   6.623   5.949
 4569POPC   GL260350  17.068   6.721   5.817
 4569POPC   C1A60351  17.010   6.546   6.321
 4569POPC   D2A60352  16.967   6.456   6.762
 4569POPC   C3A60353  16.529   6.561   6.921
 4569POPC   C4A60354  16.437   6.668   7.346
 4569POPC   C1B60355  17.310   6.900   6.124
 4569POPC   C2B60356  17.418   6.819   6.567
 4569POPC   C3B60357  17.255   6.842   6.990
 4569POPC   C4B60358  16.944   6.625   7.237
 4570POPC   NC360359   4.570  32.248   5.426
 4570POPC   PO460360   3.898  32.237   5.627
 4570POPC   GL160361   4.226  32.480   5.809
 4570POPC   GL260362   4.367  32.163   5.871
 4570POPC   C1A60363   4.379  32.491   6.264
 4570POPC   D2A60364   4.167  32.420   6.666
 4570POPC   C3A60365   4.293  32.461   7.114
 4570POPC   C4A60366   4.224  32.313   7.563
 4570POPC   C1B60367   4.687  32.080   6.148
 4570POPC   C2B60368   4.541  32.089   6.558
 4570POPC   C3B60369   4.671  32.120   6.976
 4570POPC   C4B60370   4.440  31.812   7.162
 4571POPC   NC360371  29.588   8.213   5.579
 4571POPC   PO460372  28.982   8.556   5.446
 4571POPC   GL160373  28.947   8.559   5.904
 4571POPC   GL260374  29.164   8.276   5.906
 4571POPC   C1A60375  28.990   8.435   6.355
 4571POPC   D2A60376  29.142   8.069   6.602
 4571POPC   C3A60377  28.905   7.983   6.967
 4571POPC   C4A60378  28.976   7.937   7.389
 4571POPC   C1B60379  29.483   8.157   6.219
 4571POPC   C2B60380  29.610   8.321   6.607
 4571POPC   C3B60381  29.418   8.304   6.997
 4571POPC   C4B60382  29.486   8.397   7.410
 4572POPC   NC360383  14.878   1.041   5.405
 4572POPC   PO460384  15.393   1.465   5.396
 4572POPC   GL160385  15.254   1.208   5.751
 4572POPC   GL260386  14.918   1.274   5.871
 4572POPC   C1A60387  15.282   1.177   6.207
 4572POPC   D2A60388  15.032   1.203   6.578
 4572POPC   C3A60389  15.324   1.278   6.897
 4572POPC   C4A60390  15.524   1.414   7.271
 4572POPC   C1B60391  15.010   1.602   6.207
 4572POPC   C2B60392  15.107   1.701   6.654
 4572POPC   C3B60393  14.892   1.487   7.007
 4572POPC   C4B60394  15.035   1.188   7.313
 4573POPC   NC360395  15.277   8.575   5.532
 4573POPC   PO460396  14.797   8.150   5.368
 4573POPC   GL160397  15.022   8.171   5.789
 4573POPC   GL260398  15.380   8.039   5.792
 4573POPC   C1A60399  14.967   8.276   6.237
 4573POPC   D2A60400  14.891   8.085   6.634
 4573POPC   C3A60401  14.964   8.328   7.019
 4573POPC   C4A60402  15.137   8.181   7.415
 4573POPC   C1B60403  15.467   8.277   6.189
 4573POPC   C2B60404  15.320   8.391   6.621
 4573POPC   C3B60405  15.481   8.164   7.013
 4573POPC   C4B60406  15.626   8.288   7.428
 4574POPC   NC360407  34.482  13.915   5.424
 4574POPC   PO460408  34.818  13.393   5.402
 4574POPC   GL160409  34.745  13.461   5.831
 4574POPC   GL260410  34.441  13.597   5.865
 4574POPC   C1A60411  34.674  13.262   6.240
 4574POPC   D2A60412  34.835  13.402   6.620
 4574POPC   C3A60413  34.526  13.445   6.904
 4574POPC   C4A60414  34.618  13.767   7.164
 4574POPC   C1B60415  34.648  13.779   6.245
 4574POPC   C2B60416  34.500  13.921   6.657
 4574POPC   C3B60417  34.222  14.058   7.000
 4574POPC   C4B60418  34.268  14.014   7.459
 4575POPC   NC360419  34.845  13.012   5.130
 4575POPC   PO460420  35.165  12.624   5.636
 4575POPC   GL160421  35.356  12.927   5.910
 4575POPC   GL260422  35.087  12.880   6.147
 4575POPC   C1A60423  35.481  13.185   6.272
 4575POPC   D2A60424  35.258  13.084   6.665
 4575POPC   C3A60425  35.460  13.259   7.033
 4575POPC   C4A60426  35.316  13.187   7.474
 4575POPC   C1B60427  35.492  12.683   6.335
 4575POPC   C2B60428  35.664  12.738   6.709
 4575POPC   C3B60429  35.426  12.755   7.079
 4575POPC   C4B60430  35.233  12.415   7.243
 4576POPC   NC360431   0.064  42.366   5.536
 4576POPC   PO460432  44.769  41.918   5.128
 4576POPC   GL160433  44.704  42.037   5.680
 4576POPC   GL260434  44.710  42.406   5.893
 4576POPC   C1A60435  44.771  41.977   6.128
 4576POPC   D2A60436  44.799  42.313   6.438
 4576POPC   C3A60437  44.775  42.169   6.849
 4576POPC   C4A60438  44.740  42.109   7.269
 4576POPC   C1B60439  44.528  42.709   6.216
 4576POPC   C2B60440  44.473  42.760   6.660
 4576POPC   C3B60441  44.765  42.670   6.997
 4576POPC   C4B60442  44.780  42.579   7.436
 4577POPC   NC360443  44.752  15.268   5.402
 4577POPC   PO460444  44.473  14.815   5.559
 4577POPC   GL160445  44.718  15.060   5.865
 4577POPC   GL260446  44.467  15.273   5.872
 4577POPC   C1A60447  44.739  15.266   6.285
 4577POPC   D2A60448  44.694  15.057   6.657
 4577POPC   C3A60449  44.670  15.321   7.001
 4577POPC   C4A60450  44.378  15.347   7.293
 4577POPC   C1B60451  44.332  14.952   6.188
 4577POPC   C2B60452  44.223  14.810   6.599
 4577POPC   C3B60453  44.329  14.924   7.001
 4577POPC   C4B60454  44.211  14.705   7.363
 4578POPC   NC360455   5.222  21.538   5.396
 4578POPC   PO460456   4.589  21.556   5.423
 4578POPC   GL160457   4.884  21.305   5.723
 4578POPC   GL260458   5.205  21.453   5.902
 4578POPC   C1A60459   4.881  21.195   6.179
 4578POPC   D2A60460   5.100  21.362   6.536
 4578POPC   C3A60461   4.964  21.466   6.948
 4578POPC   C4A60462   4.941  21.305   7.364
 4578POPC   C1B60463   5.375  21.097   6.177
 4578POPC   C2B60464   5.478  21.052   6.605
 4578POPC   C3B60465   5.341  21.129   7.009
 4578POPC   C4B60466   5.580  21.223   7.347
 4579POPC   NC360467  11.011  21.138   5.379
 4579POPC   PO460468  11.673  21.493   5.357
 4579POPC   GL160469  11.447  21.307   5.705
 4579POPC   GL260470  11.123  21.467   5.743
 4579POPC   C1A60471  11.251  21.132   6.107
 4579POPC   D2A60472  11.018  21.050   6.492
 4579POPC   C3A60473  11.228  21.152   6.858
 4579POPC   C4A60474  11.223  21.412   7.216
 4579POPC   C1B60475  11.289  21.653   6.130
 4579POPC   C2B60476  11.430  21.615   6.560
 4579POPC   C3B60477  11.210  21.818   6.896
 4579POPC   C4B60478  11.196  21.922   7.306
 4580POPC   NC360479  32.516  36.558   5.259
 4580POPC   PO460480  32.035  36.797   5.510
 4580POPC   GL160481  32.146  36.580   5.901
 4580POPC   GL260482  32.486  36.450   5.847
 4580POPC   C1A60483  32.077  36.722   6.352
 4580POPC   D2A60484  32.282  36.987   6.730
 4580POPC   C3A60485  32.223  37.017   7.219
 4580POPC   C4A60486  32.407  37.055   7.677
 4580POPC   C1B60487  32.534  36.490   6.323
 4580POPC   C2B60488  32.302  36.481   6.733
 4580POPC   C3B60489  32.473  36.594   7.119
 4580POPC   C4B60490  32.754  36.892   7.338
 4581POPC   NC360491  16.056  33.014   5.278
 4581POPC   PO460492  15.769  32.403   5.337
 4581POPC   GL160493  15.792  32.792   5.657
 4581POPC   GL260494  16.150  32.891   5.764
 4581POPC   C1A60495  15.708  32.900   6.115
 4581POPC   D2A60496  15.508  33.068   6.516
 4581POPC   C3A60497  15.686  32.872   6.873
 4581POPC   C4A60498  15.800  32.856   7.317
 4581POPC   C1B60499  16.173  33.144   6.152
 4581POPC   C2B60500  16.029  33.151   6.567
 4581POPC   C3B60501  16.082  33.187   7.000
 4581POPC   C4B60502  16.325  32.998   7.313
 4582POPC   NC360503  12.610  29.694   5.387
 4582POPC   PO460504  13.178  30.015   5.529
 4582POPC   GL160505  13.146  29.700   5.833
 4582POPC   GL260506  12.999  29.987   6.038
 4582POPC   C1A60507  13.016  29.499   6.217
 4582POPC   D2A60508  12.893  29.783   6.520
 4582POPC   C3A60509  13.011  29.666   6.900
 4582POPC   C4A60510  13.153  29.971   7.166
 4582POPC   C1B60511  12.609  30.166   6.245
 4582POPC   C2B60512  12.426  30.028   6.601
 4582POPC   C3B60513  12.686  30.048   6.939
 4582POPC   C4B60514  12.727  30.204   7.336
 4583POPC   NC360515  20.349  38.814   5.444
 4583POPC   PO460516  20.674  38.239   5.535
 4583POPC   GL160517  20.635  38.370   5.946
 4583POPC   GL260518  20.676  38.687   5.840
 4583POPC   C1A60519  20.754  38.477   6.388
 4583POPC   D2A60520  20.865  38.344   6.819
 4583POPC   C3A60521  20.587  38.186   7.158
 4583POPC   C4A60522  20.442  38.387   7.532
 4583POPC   C1B60523  21.015  38.797   6.099
 4583POPC   C2B60524  21.071  38.870   6.567
 4583POPC   C3B60525  21.001  38.812   7.035
 4583POPC   C4B60526  20.833  38.716   7.454
 4584POPC   NC360527   7.444   3.206   5.395
 4584POPC   PO460528   7.244   3.793   5.324
 4584POPC   GL160529   7.267   3.787   5.773
 4584POPC   GL260530   7.024   3.585   5.928
 4584POPC   C1A60531   7.454   3.852   6.185
 4584POPC   D2A60532   7.351   3.628   6.576
 4584POPC   C3A60533   7.495   3.664   7.028
 4584POPC   C4A60534   7.708   3.292   7.206
 4584POPC   C1B60535   6.918   3.180   6.128
 4584POPC   C2B60536   7.000   3.056   6.566
 4584POPC   C3B60537   7.210   3.209   6.945
 4584POPC   C4B60538   7.055   3.378   7.326
 4585POPC   NC360539  29.455   1.763   5.620
 4585POPC   PO460540  29.252   2.286   5.230
 4585POPC   GL160541  29.278   2.298   5.683
 4585POPC   GL260542  29.025   2.058   5.782
 4585POPC   C1A60543  29.335   2.224   6.160
 4585POPC   D2A60544  29.165   2.408   6.569
 4585POPC   C3A60545  29.343   2.240   6.969
 4585POPC   C4A60546  29.163   2.128   7.395
 4585POPC   C1B60547  29.070   1.786   6.188
 4585POPC   C2B60548  29.244   1.865   6.587
 4585POPC   C3B60549  29.085   1.808   7.005
 4585POPC   C4B60550  29.045   1.607   7.425
 4586POPC   NC360551   9.019   0.997   5.303
 4586POPC   PO460552   8.567   1.489   5.312
 4586POPC   GL160553   8.773   1.335   5.669
 4586POPC   GL260554   8.557   1.037   5.689
 4586POPC   C1A60555   8.954   1.307   6.107
 4586POPC   D2A60556   9.126   1.481   6.512
 4586POPC   C3A60557   9.096   1.290   6.924
 4586POPC   C4A60558   8.775   1.394   7.230
 4586POPC   C1B60559   8.615   0.924   6.130
 4586POPC   C2B60560   8.832   1.004   6.539
 4586POPC   C3B60561   8.694   0.962   6.977
 4586POPC   C4B60562   9.003   0.921   7.336
 4587POPC   NC360563  21.755  26.438   5.366
 4587POPC   PO460564  21.283  26.828   5.511
 4587POPC   GL160565  21.276  26.823   5.925
 4587POPC   GL260566  21.514  27.071   5.911
 4587POPC   C1A60567  21.267  26.952   6.347
 4587POPC   D2A60568  21.570  27.137   6.609
 4587POPC   C3A60569  21.342  27.033   6.962
 4587POPC   C4A60570  21.184  26.675   7.193
 4587POPC   C1B60571  21.716  26.771   6.204
 4587POPC   C2B60572  21.832  26.715   6.668
 4587POPC   C3B60573  21.733  26.746   7.142
 4587POPC   C4B60574  21.573  26.507   7.513
 4588POPC   NC360575  36.474  30.336   5.622
 4588POPC   PO460576  36.219  30.923   5.415
 4588POPC   GL160577  36.106  30.735   5.814
 4588POPC   GL260578  35.889  30.989   5.961
 4588POPC   C1A60579  36.189  30.746   6.280
 4588POPC   D2A60580  36.194  30.866   6.695
 4588POPC   C3A60581  36.288  30.494   6.903
 4588POPC   C4A60582  36.319  30.672   7.273
 4588POPC   C1B60583  35.722  30.586   6.178
 4588POPC   C2B60584  35.818  30.481   6.613
 4588POPC   C3B60585  35.820  30.669   7.041
 4588POPC   C4B60586  36.007  31.058   7.236
 4589POPC   NC360587  15.663   7.033   5.146
 4589POPC   PO460588  16.115   7.437   5.559
 4589POPC   GL160589  15.770   7.660   5.806
 4589POPC   GL260590  15.610   7.405   6.033
 4589POPC   C1A60591  15.740   7.843   6.245
 4589POPC   D2A60592  15.793   7.576   6.632
 4589POPC   C3A60593  15.980   7.657   7.041
 4589POPC   C4A60594  15.893   7.453   7.472
 4589POPC   C1B60595  16.067   7.449   6.224
 4589POPC   C2B60596  16.287   7.375   6.647
 4589POPC   C3B60597  16.278   7.198   7.081
 4589POPC   C4B60598  16.271   7.128   7.571
 4590POPC   NC360599   5.138  42.936   4.996
 4590POPC   PO460600   5.134  43.024   5.654
 4590POPC   GL160601   5.154  43.164   5.990
 4590POPC   GL260602   5.262  43.477   5.891
 4590POPC   C1A60603   5.045  43.054   6.413
 4590POPC   D2A60604   5.305  42.847   6.719
 4590POPC   C3A60605   5.103  42.810   7.096
 4590POPC   C4A60606   5.182  42.814   7.526
 4590POPC   C1B60607   5.081  43.550   6.294
 4590POPC   C2B60608   4.918  43.515   6.698
 4590POPC   C3B60609   4.997  43.337   7.093
 4590POPC   C4B60610   5.210  43.579   7.335
 4591POPC   NC360611  17.951   9.801   5.377
 4591POPC   PO460612  17.255   9.720   5.281
 4591POPC   GL160613  17.525   9.816   5.676
 4591POPC   GL260614  17.702   9.560   5.825
 4591POPC   C1A60615  17.501   9.994   6.104
 4591POPC   D2A60616  17.435   9.845   6.517
 4591POPC   C3A60617  17.457  10.073   6.902
 4591POPC   C4A60618  17.547  10.210   7.315
 4591POPC   C1B60619  17.403   9.473   6.160
 4591POPC   C2B60620  17.384   9.305   6.554
 4591POPC   C3B60621  17.399   9.551   6.925
 4591POPC   C4B60622  17.408   9.529   7.343
 4592POPC   NC360623  43.903  10.901   5.609
 4592POPC   PO460624  43.670  10.214   5.517
 4592POPC   GL160625  43.733  10.512   5.894
 4592POPC   GL260626  43.662  10.878   6.036
 4592POPC   C1A60627  43.872  10.499   6.343
 4592POPC   D2A60628  43.956  10.239   6.711
 4592POPC   C3A60629  43.935  10.409   7.115
 4592POPC   C4A60630  44.033  10.271   7.516
 4592POPC   C1B60631  43.731  10.989   6.418
 4592POPC   C2B60632  43.913  10.824   6.758
 4592POPC   C3B60633  43.787  10.896   7.136
 4592POPC   C4B60634  44.014  10.859   7.524
 4593POPC   NC360635  29.277  40.914   5.338
 4593POPC   PO460636  29.402  40.394   5.464
 4593POPC   GL160637  29.266  40.690   5.810
 4593POPC   GL260638  29.037  40.474   5.970
 4593POPC   C1A60639  29.185  40.935   6.233
 4593POPC   D2A60640  29.349  41.119   6.663
 4593POPC   C3A60641  29.138  41.018   7.083
 4593POPC   C4A60642  29.152  40.870   7.533
 4593POPC   C1B60643  29.389  40.448   6.280
 4593POPC   C2B60644  29.525  40.464   6.729
 4593POPC   C3B60645  29.420  40.379   7.180
 4593POPC   C4B60646  29.399  40.279   7.642
 4594POPC   NC360647   6.343  16.586   5.347
 4594POPC   PO460648   6.857  16.893   5.276
 4594POPC   GL160649   6.581  16.762   5.749
 4594POPC   GL260650   6.370  16.424   5.874
 4594POPC   C1A60651   6.565  16.747   6.238
 4594POPC   D2A60652   6.400  16.937   6.653
 4594POPC   C3A60653   6.579  16.777   7.065
 4594POPC   C4A60654   6.930  16.476   7.050
 4594POPC   C1B60655   6.374  16.234   6.302
 4594POPC   C2B60656   6.499  16.397   6.714
 4594POPC   C3B60657   6.476  16.272   7.160
 4594POPC   C4B60658   6.314  16.523   7.504
 4595POPC   NC360659   8.212   6.815   5.360
 4595POPC   PO460660   7.973   6.248   5.622
 4595POPC   GL160661   8.313   6.507   5.790
 4595POPC   GL260662   8.220   6.823   5.879
 4595POPC   C1A60663   8.508   6.558   6.226
 4595POPC   D2A60664   8.410   6.536   6.676
 4595POPC   C3A60665   7.954   6.537   6.843
 4595POPC   C4A60666   7.908   6.463   7.284
 4595POPC   C1B60667   8.056   6.779   6.320
 4595POPC   C2B60668   8.150   6.993   6.707
 4595POPC   C3B60669   8.289   6.853   7.125
 4595POPC   C4B60670   8.211   6.810   7.573
 4596POPC   NC360671   6.806  36.124   5.295
 4596POPC   PO460672   6.153  35.831   5.467
 4596POPC   GL160673   6.472  35.987   5.761
 4596POPC   GL260674   6.793  36.160   5.799
 4596POPC   C1A60675   6.593  35.873   6.190
 4596POPC   D2A60676   6.498  35.625   6.577
 4596POPC   C3A60677   6.593  35.840   6.968
 4596POPC   C4A60678   6.484  36.071   7.356
 4596POPC   C1B60679   6.823  36.400   6.186
 4596POPC   C2B60680   6.645  36.542   6.572
 4596POPC   C3B60681   6.669  36.363   6.958
 4596POPC   C4B60682   6.990  36.394   7.263
 4597POPC   NC360683  31.634  10.127   5.534
 4597POPC   PO460684  31.465  10.825   5.384
 4597POPC   GL160685  31.421  10.516   5.782
 4597POPC   GL260686  31.318  10.723   6.002
 4597POPC   C1A60687  31.450  10.324   6.280
 4597POPC   D2A60688  31.390  10.428   6.731
 4597POPC   C3A60689  31.498  10.229   7.112
 4597POPC   C4A60690  31.536  10.360   7.548
 4597POPC   C1B60691  31.557  10.835   6.373
 4597POPC   C2B60692  31.584  10.908   6.813
 4597POPC   C3B60693  31.470  10.791   7.244
 4597POPC   C4B60694  31.668  10.860   7.675
 4598POPC   NC360695   2.353   0.566   5.411
 4598POPC   PO460696   3.007   0.782   5.396
 4598POPC   GL160697   2.777   0.557   5.730
 4598POPC   GL260698   2.942   0.695   5.984
 4598POPC   C1A60699   2.714   0.221   6.073
 4598POPC   D2A60700   2.449   0.135   6.479
 4598POPC   C3A60701   2.611   0.269   6.910
 4598POPC   C4A60702   2.922   0.222   7.268
 4598POPC   C1B60703   2.823   0.592   6.413
 4598POPC   C2B60704   2.685   0.764   6.782
 4598POPC   C3B60705   2.936   0.716   7.130
 4598POPC   C4B60706   3.023   0.781   7.598
 4599POPC   NC360707  43.346  39.960   5.396
 4599POPC   PO460708  42.975  40.370   5.417
 4599POPC   GL160709  43.172  40.228   5.802
 4599POPC   GL260710  43.026  39.892   5.859
 4599POPC   C1A60711  43.205  40.157   6.260
 4599POPC   D2A60712  42.970  40.159   6.649
 4599POPC   C3A60713  43.223  40.150   7.035
 4599POPC   C4A60714  43.300  40.059   7.488
 4599POPC   C1B60715  43.163  39.648   6.258
 4599POPC   C2B60716  43.227  39.706   6.729
 4599POPC   C3B60717  43.235  39.635   7.195
 4599POPC   C4B60718  43.141  39.591   7.658
 4600POPC   NC360719  13.706  37.035   5.191
 4600POPC   PO460720  13.244  36.740   5.541
 4600POPC   GL160721  13.600  36.958   5.727
 4600POPC   GL260722  13.875  36.698   5.713
 4600POPC   C1A60723  13.491  37.136   6.147
 4600POPC   D2A60724  13.279  37.084   6.545
 4600POPC   C3A60725  13.539  36.929   6.855
 4600POPC   C4A60726  13.641  36.795   7.277
 4600POPC   C1B60727  13.716  36.684   6.147
 4600POPC   C2B60728  13.760  36.565   6.558
 4600POPC   C3B60729  13.985  36.675   6.899
 4600POPC   C4B60730  14.274  36.497   7.141
 4601POPC   NC360731  11.851  10.973   5.541
 4601POPC   PO460732  12.213  10.349   5.406
 4601POPC   GL160733  12.045  10.358   5.803
 4601POPC   GL260734  12.124  10.695   5.861
 4601POPC   C1A60735  12.130  10.359   6.243
 4601POPC   D2A60736  11.933  10.393   6.598
 4601POPC   C3A60737  12.222  10.364   6.905
 4601POPC   C4A60738  12.285  10.631   7.235
 4601POPC   C1B60739  11.995  10.880   6.255
 4601POPC   C2B60740  11.995  10.901   6.698
 4601POPC   C3B60741  11.655  10.855   6.988
 4601POPC   C4B60742  11.633  10.871   7.444
 4602POPC   NC360743  39.860  22.987   5.630
 4602POPC   PO460744  40.179  22.489   5.265
 4602POPC   GL160745  40.276  22.650   5.736
 4602POPC   GL260746  40.407  22.990   5.721
 4602POPC   C1A60747  40.143  22.863   6.183
 4602POPC   D2A60748  39.882  22.850   6.564
 4602POPC   C3A60749  39.768  22.968   6.978
 4602POPC   C4A60750  39.692  23.028   7.403
 4602POPC   C1B60751  40.452  23.265   6.094
 4602POPC   C2B60752  40.300  23.266   6.506
 4602POPC   C3B60753  40.248  23.111   6.913
 4602POPC   C4B60754  40.254  23.212   7.346
 4603POPC   NC360755  38.880   5.328   5.543
 4603POPC   PO460756  39.492   4.969   5.370
 4603POPC   GL160757  39.344   5.164   5.708
 4603POPC   GL260758  39.352   5.527   5.615
 4603POPC   C1A60759  39.204   5.028   6.129
 4603POPC   D2A60760  39.018   5.124   6.521
 4603POPC   C3A60761  39.240   4.924   6.871
 4603POPC   C4A60762  39.169   4.804   7.288
 4603POPC   C1B60763  39.325   5.529   6.077
 4603POPC   C2B60764  39.240   5.608   6.523
 4603POPC   C3B60765  39.058   5.460   6.891
 4603POPC   C4B60766  39.182   5.303   7.256
 4604POPC   NC360767  27.384   2.971   5.461
 4604POPC   PO460768  27.625   2.296   5.590
 4604POPC   GL160769  27.654   2.679   5.820
 4604POPC   GL260770  27.352   2.707   5.897
 4604POPC   C1A60771  27.787   2.672   6.248
 4604POPC   D2A60772  27.673   2.721   6.669
 4604POPC   C3A60773  27.864   2.919   7.007
 4604POPC   C4A60774  27.692   2.958   7.410
 4604POPC   C1B60775  27.365   2.975   6.230
 4604POPC   C2B60776  27.202   2.936   6.631
 4604POPC   C3B60777  27.335   2.968   7.049
 4604POPC   C4B60778  27.210   3.199   7.442
 4605POPC   NC360779  25.133   5.323   5.552
 4605POPC   PO460780  25.712   5.036   5.586
 4605POPC   GL160781  25.400   4.988   5.900
 4605POPC   GL260782  25.028   5.101   5.988
 4605POPC   C1A60783  25.437   4.943   6.336
 4605POPC   D2A60784  25.188   5.136   6.634
 4605POPC   C3A60785  25.373   5.182   7.015
 4605POPC   C4A60786  25.182   5.208   7.404
 4605POPC   C1B60787  25.052   4.685   6.125
 4605POPC   C2B60788  25.153   4.529   6.505
 4605POPC   C3B60789  25.159   4.693   6.892
 4605POPC   C4B60790  25.351   4.745   7.268
 4606POPC   NC360791  36.640  21.665   5.152
 4606POPC   PO460792  37.041  22.190   5.369
 4606POPC   GL160793  36.922  22.230   5.820
 4606POPC   GL260794  36.600  22.128   5.910
 4606POPC   C1A60795  37.023  22.187   6.277
 4606POPC   D2A60796  37.173  22.162   6.732
 4606POPC   C3A60797  36.966  22.086   7.130
 4606POPC   C4A60798  37.042  22.136   7.620
 4606POPC   C1B60799  36.587  22.425   6.232
 4606POPC   C2B60800  36.715  22.378   6.629
 4606POPC   C3B60801  36.550  22.373   6.971
 4606POPC   C4B60802  36.696  22.419   7.381
 4607POPC   NC360803  37.049  37.384   5.422
 4607POPC   PO460804  36.900  38.002   5.480
 4607POPC   GL160805  36.897  37.694   5.847
 4607POPC   GL260806  36.830  37.324   5.895
 4607POPC   C1A60807  36.890  37.657   6.306
 4607POPC   D2A60808  36.766  37.706   6.734
 4607POPC   C3A60809  36.987  37.715   7.131
 4607POPC   C4A60810  37.086  38.124   7.363
 4607POPC   C1B60811  36.675  37.202   6.357
 4607POPC   C2B60812  36.622  37.234   6.846
 4607POPC   C3B60813  36.476  37.601   7.141
 4607POPC   C4B60814  36.583  38.018   7.349
 4608POPC   NC360815  43.589  16.813   5.297
 4608POPC   PO460816  44.137  16.386   5.279
 4608POPC   GL160817  43.950  16.553   5.659
 4608POPC   GL260818  44.050  16.892   5.755
 4608POPC   C1A60819  43.707  16.575   6.057
 4608POPC   D2A60820  43.774  16.751   6.470
 4608POPC   C3A60821  43.634  16.768   6.895
 4608POPC   C4A60822  43.725  16.437   7.204
 4608POPC   C1B60823  44.201  16.660   6.156
 4608POPC   C2B60824  44.300  16.695   6.596
 4608POPC   C3B60825  44.300  16.675   7.037
 4608POPC   C4B60826  43.982  16.879   7.249
 4609POPC   NC360827  12.752  19.767   5.409
 4609POPC   PO460828  13.189  20.157   5.734
 4609POPC   GL160829  12.994  19.812   5.894
 4609POPC   GL260830  12.645  19.812   5.904
 4609POPC   C1A60831  13.003  19.830   6.321
 4609POPC   D2A60832  13.252  19.843   6.681
 4609POPC   C3A60833  13.032  19.892   7.019
 4609POPC   C4A60834  12.722  19.896   7.292
 4609POPC   C1B60835  12.585  19.549   6.255
 4609POPC   C2B60836  12.777  19.553   6.678
 4609POPC   C3B60837  12.597  19.452   7.050
 4609POPC   C4B60838  12.242  19.516   7.315
 4610POPC   NC360839  30.737   8.728   4.961
 4610POPC   PO460840  31.033   9.335   5.246
 4610POPC   GL160841  30.972   9.252   5.735
 4610POPC   GL260842  31.089   8.974   5.825
 4610POPC   C1A60843  30.650   9.171   6.106
 4610POPC   D2A60844  30.550   8.993   6.549
 4610POPC   C3A60845  30.529   9.224   6.921
 4610POPC   C4A60846  30.614   9.021   7.269
 4610POPC   C1B60847  31.137   9.006   6.240
 4610POPC   C2B60848  31.077   8.837   6.619
 4610POPC   C3B60849  31.073   9.091   6.963
 4610POPC   C4B60850  31.106   8.979   7.361
 4611POPC   NC360851  23.455  29.765   5.338
 4611POPC   PO460852  24.001  30.182   5.400
 4611POPC   GL160853  23.703  30.328   5.703
 4611POPC   GL260854  23.390  30.119   5.736
 4611POPC   C1A60855  23.747  30.230   6.142
 4611POPC   D2A60856  23.970  29.873   6.328
 4611POPC   C3A60857  23.983  29.874   6.802
 4611POPC   C4A60858  23.818  29.596   7.115
 4611POPC   C1B60859  23.489  29.797   6.083
 4611POPC   C2B60860  23.516  29.882   6.542
 4611POPC   C3B60861  23.435  29.890   6.976
 4611POPC   C4B60862  23.512  30.106   7.356
 4612POPC   NC360863   1.528  23.022   5.278
 4612POPC   PO460864   0.906  23.179   5.451
 4612POPC   GL160865   1.116  23.177   5.845
 4612POPC   GL260866   1.424  23.013   5.811
 4612POPC   C1A60867   1.124  22.947   6.236
 4612POPC   D2A60868   0.909  22.815   6.605
 4612POPC   C3A60869   1.037  23.099   6.917
 4612POPC   C4A60870   1.290  23.102   7.314
 4612POPC   C1B60871   1.608  22.766   6.157
 4612POPC   C2B60872   1.485  22.806   6.615
 4612POPC   C3B60873   1.270  22.641   6.986
 4612POPC   C4B60874   1.446  22.571   7.383
 4613POPC   NC360875  18.138   0.827   5.354
 4613POPC   PO460876  18.006   0.158   5.453
 4613POPC   GL160877  18.177   0.364   5.863
 4613POPC   GL260878  18.248   0.710   5.836
 4613POPC   C1A60879  18.313   0.400   6.337
 4613POPC   D2A60880  18.570   0.282   6.748
 4613POPC   C3A60881  18.383   0.098   7.145
 4613POPC   C4A60882  18.299   0.319   7.554
 4613POPC   C1B60883  18.548   0.831   6.160
 4613POPC   C2B60884  18.550   0.785   6.609
 4613POPC   C3B60885  18.392   0.692   7.010
 4613POPC   C4B60886  18.201   0.801   7.388
 4614POPC   NC360887  28.305  30.260   5.352
 4614POPC   PO460888  28.582  29.648   5.209
 4614POPC   GL160889  28.371  29.751   5.640
 4614POPC   GL260890  28.237  30.068   5.803
 4614POPC   C1A60891  28.373  29.700   6.111
 4614POPC   D2A60892  28.283  29.666   6.545
 4614POPC   C3A60893  28.387  29.953   6.875
 4614POPC   C4A60894  28.370  29.905   7.326
 4614POPC   C1B60895  28.046  30.180   6.167
 4614POPC   C2B60896  27.996  30.122   6.580
 4614POPC   C3B60897  27.947  30.326   6.957
 4614POPC   C4B60898  27.826  30.301   7.364
 4615POPC   NC360899   4.377   9.910   5.442
 4615POPC   PO460900   3.880   9.486   5.561
 4615POPC   GL160901   4.079   9.526   5.899
 4615POPC   GL260902   4.376   9.727   5.898
 4615POPC   C1A60903   4.167   9.406   6.265
 4615POPC   D2A60904   4.258   9.606   6.624
 4615POPC   C3A60905   4.193   9.426   7.017
 4615POPC   C4A60906   4.193   9.661   7.405
 4615POPC   C1B60907   4.614   9.741   6.245
 4615POPC   C2B60908   4.758   9.793   6.630
 4615POPC   C3B60909   4.535   9.821   6.983
 4615POPC   C4B60910   4.597   9.954   7.326
 4616POPC   NC360911  40.557  28.746   5.369
 4616POPC   PO460912  41.024  28.305   5.196
 4616POPC   GL160913  40.893  28.428   5.653
 4616POPC   GL260914  40.575  28.290   5.784
 4616POPC   C1A60915  40.967  28.365   6.134
 4616POPC   D2A60916  41.149  28.136   6.499
 4616POPC   C3A60917  40.914  28.170   6.875
 4616POPC   C4A60918  40.885  28.481   7.164
 4616POPC   C1B60919  40.500  28.601   6.146
 4616POPC   C2B60920  40.566  28.602   6.626
 4616POPC   C3B60921  40.407  28.574   7.084
 4616POPC   C4B60922  40.578  28.601   7.549
 4617POPC   NC360923  29.546  30.568   5.056
 4617POPC   PO460924  29.224  30.955   5.497
 4617POPC   GL160925  29.168  30.814   5.878
 4617POPC   GL260926  28.840  30.838   5.932
 4617POPC   C1A60927  29.267  30.514   6.203
 4617POPC   D2A60928  29.489  30.628   6.580
 4617POPC   C3A60929  29.385  30.466   6.965
 4617POPC   C4A60930  29.275  30.733   7.264
 4617POPC   C1B60931  29.040  30.937   6.360
 4617POPC   C2B60932  28.993  30.744   6.760
 4617POPC   C3B60933  28.805  30.626   7.139
 4617POPC   C4B60934  28.859  30.662   7.581
 4618POPC   NC360935   3.738   5.164   5.017
 4618POPC   PO460936   3.342   5.005   5.565
 4618POPC   GL160937   3.437   5.153   5.930
 4618POPC   GL260938   3.789   5.186   5.839
 4618POPC   C1A60939   3.246   5.114   6.324
 4618POPC   D2A60940   3.091   4.774   6.591
 4618POPC   C3A60941   3.313   4.752   6.953
 4618POPC   C4A60942   3.331   5.052   7.268
 4618POPC   C1B60943   3.786   5.138   6.290
 4618POPC   C2B60944   3.626   5.068   6.659
 4618POPC   C3B60945   3.868   5.196   6.954
 4618POPC   C4B60946   3.845   5.006   7.308
 4619POPC   NC360947  33.534  19.091   5.398
 4619POPC   PO460948  32.796  18.886   5.350
 4619POPC   GL160949  32.896  19.121   5.754
 4619POPC   GL260950  33.231  19.316   5.767
 4619POPC   C1A60951  32.835  19.005   6.216
 4619POPC   D2A60952  32.891  18.731   6.600
 4619POPC   C3A60953  32.841  18.945   7.021
 4619POPC   C4A60954  33.137  18.952   7.390
 4619POPC   C1B60955  33.293  19.242   6.213
 4619POPC   C2B60956  33.141  19.170   6.624
 4619POPC   C3B60957  33.350  19.183   6.979
 4619POPC   C4B60958  33.509  19.392   7.336
 4620POPC   NC360959  16.591  23.817   5.442
 4620POPC   PO460960  17.101  23.448   5.378
 4620POPC   GL160961  16.862  23.602   5.800
 4620POPC   GL260962  16.904  23.965   5.830
 4620POPC   C1A60963  16.877  23.746   6.282
 4620POPC   D2A60964  17.089  23.875   6.693
 4620POPC   C3A60965  16.909  23.676   7.048
 4620POPC   C4A60966  16.576  23.397   7.027
 4620POPC   C1B60967  16.465  23.981   6.052
 4620POPC   C2B60968  16.236  24.019   6.445
 4620POPC   C3B60969  16.294  23.825   6.838
 4620POPC   C4B60970  16.378  23.916   7.267
 4621POPC   NC360971  35.319   8.328   5.609
 4621POPC   PO460972  35.644   7.714   5.528
 4621POPC   GL160973  35.615   8.011   5.878
 4621POPC   GL260974  35.755   8.384   5.872
 4621POPC   C1A60975  35.324   8.019   6.218
 4621POPC   D2A60976  35.393   7.807   6.579
 4621POPC   C3A60977  35.164   8.012   6.901
 4621POPC   C4A60978  35.241   8.191   7.317
 4621POPC   C1B60979  35.698   8.345   6.300
 4621POPC   C2B60980  35.482   8.320   6.657
 4621POPC   C3B60981  35.646   8.333   7.060
 4621POPC   C4B60982  35.672   8.419   7.502
 4622POPC   NC360983  22.047   7.726   5.687
 4622POPC   PO460984  22.309   8.027   5.081
 4622POPC   GL160985  22.180   8.207   5.589
 4622POPC   GL260986  21.817   8.261   5.641
 4622POPC   C1A60987  22.103   8.152   6.129
 4622POPC   D2A60988  22.209   7.821   6.480
 4622POPC   C3A60989  22.160   7.841   6.961
 4622POPC   C4A60990  22.260   7.943   7.417
 4622POPC   C1B60991  21.706   8.442   6.023
 4622POPC   C2B60992  21.778   8.494   6.484
 4622POPC   C3B60993  21.929   8.297   6.885
 4622POPC   C4B60994  22.027   8.456   7.304
 4623POPC   NC360995  24.732  33.728   5.427
 4623POPC   PO460996  25.312  34.052   5.203
 4623POPC   GL160997  25.339  33.856   5.664
 4623POPC   GL260998  25.024  33.761   5.861
 4623POPC   C1A60999  25.531  33.747   6.107
 4623POPC   D2A61000  25.456  33.620   6.547
 4623POPC   C3A61001  25.357  33.774   6.964
 4623POPC   C4A61002  25.081  33.554   7.249
 4623POPC   C1B61003  24.841  34.074   6.157
 4623POPC   C2B61004  24.910  34.335   6.509
 4623POPC   C3B61005  24.980  34.124   6.893
 4623POPC   C4B61006  24.962  34.056   7.340
 4624POPC   NC361007  10.777  22.110   5.363
 4624POPC   PO461008  10.388  21.679   5.612
 4624POPC   GL161009  10.577  21.950   5.894
 4624POPC   GL261010  10.790  22.257   5.865
 4624POPC   C1A61011  10.421  22.015   6.330
 4624POPC   D2A61012  10.416  21.794   6.738
 4624POPC   C3A61013  10.213  22.045   7.057
 4624POPC   C4A61014  10.354  22.057   7.501
 4624POPC   C1B61015  10.922  22.001   6.250
 4624POPC   C2B61016  10.834  22.089   6.669
 4624POPC   C3B61017  10.741  22.068   7.113
 4624POPC   C4B61018  10.878  22.340   7.459
 4625POPC   NC361019  11.782  17.726   5.397
 4625POPC   PO461020  12.213  17.230   5.336
 4625POPC   GL161021  12.274  17.414   5.766
 4625POPC   GL261022  12.010  17.620   5.847
 4625POPC   C1A61023  12.086  17.281   6.210
 4625POPC   D2A61024  12.001  17.413   6.647
 4625POPC   C3A61025  12.251  17.294   7.002
 4625POPC   C4A61026  12.339  17.386   7.463
 4625POPC   C1B61027  11.952  17.800   6.280
 4625POPC   C2B61028  11.807  17.878   6.732
 4625POPC   C3B61029  11.921  17.675   7.102
 4625POPC   C4B61030  11.845  17.355   7.416
 4626POPC   NC361031   3.903  41.363   5.424
 4626POPC   PO461032   3.587  41.908   5.567
 4626POPC   GL161033   3.585  41.580   5.798
 4626POPC   GL261034   3.241  41.514   5.675
 4626POPC   C1A61035   3.605  41.634   6.270
 4626POPC   D2A61036   3.372  41.800   6.655
 4626POPC   C3A61037   3.629  41.772   7.038
 4626POPC   C4A61038   3.818  41.451   7.264
 4626POPC   C1B61039   3.241  41.340   6.068
 4626POPC   C2B61040   3.272  41.296   6.505
 4626POPC   C3B61041   3.446  41.294   6.906
 4626POPC   C4B61042   3.244  41.501   7.224
 4627POPC   NC361043   1.563  43.203   5.349
 4627POPC   PO461044   0.917  43.281   5.135
 4627POPC   GL161045   1.015  43.157   5.633
 4627POPC   GL261046   1.335  43.273   5.787
 4627POPC   C1A61047   1.053  43.083   6.146
 4627POPC   D2A61048   1.141  43.289   6.577
 4627POPC   C3A61049   1.201  43.000   6.950
 4627POPC   C4A61050   1.149  42.780   7.363
 4627POPC   C1B61051   1.561  43.307   6.162
 4627POPC   C2B61052   1.583  43.550   6.517
 4627POPC   C3B61053   1.670  43.361   6.892
 4627POPC   C4B61054   1.520  43.204   7.284
 4628POPC   NC361055   9.307  38.686   5.467
 4628POPC   PO461056   8.677  38.370   5.416
 4628POPC   GL161057   8.870  38.468   5.796
 4628POPC   GL261058   9.186  38.318   5.844
 4628POPC   C1A61059   8.825  38.422   6.248
 4628POPC   D2A61060   9.000  38.437   6.662
 4628POPC   C3A61061   8.872  38.542   7.101
 4628POPC   C4A61062   8.934  38.644   7.555
 4628POPC   C1B61063   9.270  38.667   6.128
 4628POPC   C2B61064   9.244  38.859   6.532
 4628POPC   C3B61065   9.328  38.746   6.954
 4628POPC   C4B61066   9.402  38.587   7.358
 4629POPC   NC361067  29.263  43.399   5.460
 4629POPC   PO461068  29.267  42.744   5.424
 4629POPC   GL161069  29.156  42.996   5.786
 4629POPC   GL261070  28.808  42.929   5.800
 4629POPC   C1A61071  29.302  43.114   6.214
 4629POPC   D2A61072  29.544  43.071   6.580
 4629POPC   C3A61073  29.304  43.062   6.967
 4629POPC   C4A61074  29.099  43.273   7.269
 4629POPC   C1B61075  28.788  43.172   6.209
 4629POPC   C2B61076  28.930  43.179   6.622
 4629POPC   C3B61077  28.716  43.372   6.954
 4629POPC   C4B61078  28.603  43.261   7.366
 4630POPC   NC361079  43.983  32.703   5.466
 4630POPC   PO461080  43.907  33.304   5.496
 4630POPC   GL161081  43.821  32.997   5.868
 4630POPC   GL261082  43.644  32.659   5.886
 4630POPC   C1A61083  43.959  32.912   6.303
 4630POPC   D2A61084  44.185  32.764   6.680
 4630POPC   C3A61085  44.101  33.039   7.036
 4630POPC   C4A61086  44.012  33.230   7.458
 4630POPC   C1B61087  43.515  32.668   6.359
 4630POPC   C2B61088  43.678  32.858   6.755
 4630POPC   C3B61089  43.592  33.001   7.178
 4630POPC   C4B61090  43.177  32.967   7.443
 4631POPC   NC361091  22.683  14.520   5.438
 4631POPC   PO461092  23.224  14.132   5.471
 4631POPC   GL161093  23.047  14.400   5.806
 4631POPC   GL261094  22.755  14.205   5.874
 4631POPC   C1A61095  22.838  14.579   6.224
 4631POPC   D2A61096  22.736  14.360   6.653
 4631POPC   C3A61097  22.821  14.577   7.089
 4631POPC   C4A61098  22.760  14.591   7.549
 4631POPC   C1B61099  23.037  14.126   6.238
 4631POPC   C2B61100  23.192  14.143   6.664
 4631POPC   C3B61101  22.969  14.083   7.058
 4631POPC   C4B61102  23.133  14.259   7.445
 4632POPC   NC361103  18.475   5.493   5.482
 4632POPC   PO461104  18.182   6.128   5.320
 4632POPC   GL161105  18.201   5.985   5.759
 4632POPC   GL261106  18.089   5.666   5.818
 4632POPC   C1A61107  18.405   5.882   6.163
 4632POPC   D2A61108  18.563   5.986   6.569
 4632POPC   C3A61109  18.507   5.765   6.958
 4632POPC   C4A61110  18.389   6.074   7.266
 4632POPC   C1B61111  17.883   5.910   6.170
 4632POPC   C2B61112  17.976   5.935   6.623
 4632POPC   C3B61113  18.000   5.781   7.074
 4632POPC   C4B61114  17.927   5.778   7.544
 4633POPC   NC361115  34.140   1.711   5.509
 4633POPC   PO461116  33.633   2.222   5.431
 4633POPC   GL161117  33.780   2.015   5.786
 4633POPC   GL261118  34.127   2.086   5.864
 4633POPC   C1A61119  33.733   2.166   6.200
 4633POPC   D2A61120  33.702   1.935   6.575
 4633POPC   C3A61121  33.672   2.199   6.921
 4633POPC   C4A61122  33.765   2.125   7.312
 4633POPC   C1B61123  34.022   1.746   6.169
 4633POPC   C2B61124  34.174   1.676   6.577
 4633POPC   C3B61125  34.061   1.856   6.957
 4633POPC   C4B61126  34.285   1.707   7.291
 4634POPC   NC361127  42.520  31.044   5.321
 4634POPC   PO461128  42.214  30.401   5.308
 4634POPC   GL161129  42.264  30.634   5.705
 4634POPC   GL261130  42.143  30.960   5.632
 4634POPC   C1A61131  42.428  30.595   6.166
 4634POPC   D2A61132  42.558  30.617   6.628
 4634POPC   C3A61133  42.284  30.469   7.001
 4634POPC   C4A61134  42.285  30.267   7.463
 4634POPC   C1B61135  42.212  31.032   6.059
 4634POPC   C2B61136  42.275  31.106   6.490
 4634POPC   C3B61137  42.270  30.971   6.924
 4634POPC   C4B61138  42.374  31.192   7.322
 4635POPC   NC361139  26.494   4.316   5.375
 4635POPC   PO461140  27.113   4.470   5.453
 4635POPC   GL161141  26.841   4.499   5.840
 4635POPC   GL261142  26.486   4.453   5.857
 4635POPC   C1A61143  26.978   4.550   6.264
 4635POPC   D2A61144  27.201   4.298   6.570
 4635POPC   C3A61145  27.100   4.469   6.947
 4635POPC   C4A61146  26.964   4.687   7.302
 4635POPC   C1B61147  26.587   4.223   6.232
 4635POPC   C2B61148  26.703   4.234   6.671
 4635POPC   C3B61149  26.606   4.341   7.070
 4635POPC   C4B61150  26.468   4.598   7.386
 4636POPC   NC361151   1.449  41.367   5.176
 4636POPC   PO461152   0.847  41.657   5.365
 4636POPC   GL161153   1.156  41.738   5.704
 4636POPC   GL261154   1.440  41.472   5.704
 4636POPC   C1A61155   1.045  41.773   6.141
 4636POPC   D2A61156   1.019  41.550   6.498
 4636POPC   C3A61157   0.964  41.788   6.866
 4636POPC   C4A61158   1.123  41.692   7.242
 4636POPC   C1B61159   1.507  41.593   6.092
 4636POPC   C2B61160   1.528  41.482   6.499
 4636POPC   C3B61161   1.364  41.420   6.875
 4636POPC   C4B61162   1.510  41.363   7.280
 4637POPC   NC361163  13.383  14.487   5.451
 4637POPC   PO461164  14.021  14.801   5.558
 4637POPC   GL161165  13.792  14.427   5.791
 4637POPC   GL261166  13.915  14.059   5.824
 4637POPC   C1A61167  13.527  14.470   6.192
 4637POPC   D2A61168  13.432  14.656   6.621
 4637POPC   C3A61169  13.590  14.516   7.038
 4637POPC   C4A61170  13.625  14.658   7.472
 4637POPC   C1B61171  13.659  13.984   6.192
 4637POPC   C2B61172  13.471  14.119   6.575
 4637POPC   C3B61173  13.661  14.018   6.961
 4637POPC   C4B61174  13.681  14.134   7.349
 4638POPC   NC361175  14.437  23.984   5.339
 4638POPC   PO461176  14.572  23.346   5.329
 4638POPC   GL161177  14.350  23.614   5.697
 4638POPC   GL261178  14.640  23.802   5.802
 4638POPC   C1A61179  14.218  23.843   6.122
 4638POPC   D2A61180  14.041  23.831   6.598
 4638POPC   C3A61181  14.219  23.688   6.993
 4638POPC   C4A61182  14.554  23.828   7.284
 4638POPC   C1B61183  14.609  23.506   6.158
 4638POPC   C2B61184  14.518  23.610   6.574
 4638POPC   C3B61185  14.682  23.461   6.968
 4638POPC   C4B61186  14.582  23.144   7.234
 4639POPC   NC361187  36.543  29.528   5.547
 4639POPC   PO461188  35.957  29.171   5.398
 4639POPC   GL161189  36.071  29.245   5.804
 4639POPC   GL261190  36.415  29.110   5.826
 4639POPC   C1A61191  35.940  29.077   6.216
 4639POPC   D2A61192  36.154  29.104   6.592
 4639POPC   C3A61193  35.964  28.963   6.952
 4639POPC   C4A61194  35.994  29.158   7.332
 4639POPC   C1B61195  36.368  29.399   6.195
 4639POPC   C2B61196  36.391  29.582   6.608
 4639POPC   C3B61197  36.347  29.393   7.014
 4639POPC   C4B61198  36.366  29.515   7.419
 4640POPC   NC361199  40.770  38.826   5.116
 4640POPC   PO461200  40.492  38.338   5.384
 4640POPC   GL161201  40.598  38.489   5.793
 4640POPC   GL261202  40.536  38.184   5.937
 4640POPC   C1A61203  40.575  38.676   6.201
 4640POPC   D2A61204  40.848  38.676   6.572
 4640POPC   C3A61205  40.822  38.726   7.028
 4640POPC   C4A61206  41.041  38.879   7.412
 4640POPC   C1B61207  40.566  38.216   6.390
 4640POPC   C2B61208  40.639  38.263   6.801
 4640POPC   C3B61209  40.604  38.050   7.223
 4640POPC   C4B61210  40.708  38.054   7.679
 4641POPC   NC361211  37.148  42.253   5.496
 4641POPC   PO461212  36.787  42.759   5.414
 4641POPC   GL161213  36.932  42.549   5.822
 4641POPC   GL261214  37.306  42.625   5.856
 4641POPC   C1A61215  37.047  42.399   6.238
 4641POPC   D2A61216  36.888  42.523   6.621
 4641POPC   C3A61217  36.886  42.331   7.046
 4641POPC   C4A61218  36.513  42.229   7.290
 4641POPC   C1B61219  37.406  42.794   6.293
 4641POPC   C2B61220  37.312  42.769   6.749
 4641POPC   C3B61221  37.249  42.656   7.198
 4641POPC   C4B61222  37.189  42.769   7.646
 4642POPC   NC361223  10.730   5.364   5.441
 4642POPC   PO461224  10.344   4.890   5.468
 4642POPC   GL161225  10.517   4.968   5.854
 4642POPC   GL261226  10.677   5.270   5.922
 4642POPC   C1A61227  10.346   5.033   6.262
 4642POPC   D2A61228  10.475   4.904   6.678
 4642POPC   C3A61229  10.221   5.057   6.991
 4642POPC   C4A61230  10.329   5.117   7.390
 4642POPC   C1B61231  10.847   5.062   6.259
 4642POPC   C2B61232  10.816   5.260   6.627
 4642POPC   C3B61233  10.632   5.373   6.991
 4642POPC   C4B61234  10.783   5.326   7.369
 4643POPC   NC361235  18.516  37.032   5.390
 4643POPC   PO461236  18.171  36.402   5.525
 4643POPC   GL161237  18.350  36.640   5.876
 4643POPC   GL261238  18.269  36.976   5.828
 4643POPC   C1A61239  18.375  36.838   6.300
 4643POPC   D2A61240  18.453  37.046   6.699
 4643POPC   C3A61241  18.440  36.809   7.060
 4643POPC   C4A61242  18.533  37.155   7.300
 4643POPC   C1B61243  17.977  37.152   6.144
 4643POPC   C2B61244  17.975  36.987   6.586
 4643POPC   C3B61245  18.051  37.148   7.022
 4643POPC   C4B61246  18.085  37.322   7.462
 4644POPC   NC361247  14.629  35.743   5.474
 4644POPC   PO461248  14.253  35.141   5.471
 4644POPC   GL161249  14.413  35.260   5.875
 4644POPC   GL261250  14.756  35.370   5.801
 4644POPC   C1A61251  14.288  35.345   6.326
 4644POPC   D2A61252  14.264  35.573   6.738
 4644POPC   C3A61253  14.257  35.327   7.137
 4644POPC   C4A61254  14.136  35.491   7.583
 4644POPC   C1B61255  14.779  35.499   6.220
 4644POPC   C2B61256  14.717  35.282   6.629
 4644POPC   C3B61257  14.846  35.350   7.039
 4644POPC   C4B61258  14.656  35.542   7.407
 4645POPC   NC361259  24.719   3.824   5.493
 4645POPC   PO461260  24.184   3.325   5.342
 4645POPC   GL161261  24.295   3.281   5.742
 4645POPC   GL261262  24.290   3.644   5.803
 4645POPC   C1A61263  24.343   3.253   6.177
 4645POPC   D2A61264  24.496   3.422   6.557
 4645POPC   C3A61265  24.165   3.583   6.784
 4645POPC   C4A61266  24.082   3.315   7.115
 4645POPC   C1B61267  24.619   3.707   6.123
 4645POPC   C2B61268  24.660   3.900   6.523
 4645POPC   C3B61269  24.507   3.949   6.932
 4645POPC   C4B61270  24.519   3.614   7.216
 4646POPC   NC361271  33.178  31.848   5.403
 4646POPC   PO461272  32.903  31.225   5.293
 4646POPC   GL161273  33.043  31.274   5.760
 4646POPC   GL261274  33.177  31.592   5.846
 4646POPC   C1A61275  32.996  31.109   6.212
 4646POPC   D2A61276  33.056  30.887   6.622
 4646POPC   C3A61277  32.882  31.104   6.968
 4646POPC   C4A61278  33.035  31.228   7.365
 4646POPC   C1B61279  33.311  31.631   6.276
 4646POPC   C2B61280  33.147  31.442   6.640
 4646POPC   C3B61281  33.017  31.599   7.022
 4646POPC   C4B61282  32.606  31.481   7.235
 4647POPC   NC361283  10.255   7.494   5.659
 4647POPC   PO461284  10.744   7.207   5.311
 4647POPC   GL161285  10.754   7.303   5.757
 4647POPC   GL261286  10.760   7.674   5.788
 4647POPC   C1A61287  10.551   7.236   6.165
 4647POPC   D2A61288  10.563   7.394   6.567
 4647POPC   C3A61289  10.741   7.161   6.912
 4647POPC   C4A61290  10.622   7.315   7.323
 4647POPC   C1B61291  10.570   7.813   6.192
 4647POPC   C2B61292  10.423   7.893   6.609
 4647POPC   C3B61293  10.542   7.702   6.989
 4647POPC   C4B61294  10.614   7.804   7.433
 4648POPC   NC361295  40.977  31.923   5.371
 4648POPC   PO461296  40.476  32.397   5.357
 4648POPC   GL161297  40.621  32.181   5.712
 4648POPC   GL261298  40.890  31.960   5.886
 4648POPC   C1A61299  40.473  32.130   6.112
 4648POPC   D2A61300  40.588  31.951   6.462
 4648POPC   C3A61301  40.532  32.033   6.920
 4648POPC   C4A61302  40.554  32.290   7.312
 4648POPC   C1B61303  41.030  32.173   6.289
 4648POPC   C2B61304  41.155  32.296   6.725
 4648POPC   C3B61305  41.010  32.150   7.123
 4648POPC   C4B61306  40.869  31.986   7.548
 4649POPC   NC361307  29.966  41.960   5.353
 4649POPC   PO461308  30.227  41.357   5.209
 4649POPC   GL161309  30.050  41.512   5.618
 4649POPC   GL261310  29.677  41.646   5.646
 4649POPC   C1A61311  29.972  41.593   6.068
 4649POPC   D2A61312  30.034  41.795   6.463
 4649POPC   C3A61313  30.088  41.570   6.828
 4649POPC   C4A61314  30.117  41.851   7.166
 4649POPC   C1B61315  29.557  41.895   6.049
 4649POPC   C2B61316  29.603  42.034   6.507
 4649POPC   C3B61317  29.663  41.821   6.898
 4649POPC   C4B61318  29.611  41.900   7.321
 4650POPC   NC361319  10.417  27.846   5.057
 4650POPC   PO461320  10.648  27.337   5.431
 4650POPC   GL161321  10.407  27.506   5.807
 4650POPC   GL261322  10.487  27.892   5.927
 4650POPC   C1A61323  10.441  27.510   6.259
 4650POPC   D2A61324  10.466  27.280   6.586
 4650POPC   C3A61325  10.429  27.555   6.903
 4650POPC   C4A61326  10.318  27.458   7.293
 4650POPC   C1B61327  10.852  27.802   6.258
 4650POPC   C2B61328  10.898  27.581   6.699
 4650POPC   C3B61329  10.836  27.703   7.154
 4650POPC   C4B61330  10.724  27.603   7.575
 4651POPC   NC361331  14.879   0.259   5.460
 4651POPC   PO461332  15.286   0.793   5.425
 4651POPC   GL161333  14.991   0.735   5.788
 4651POPC   GL261334  15.054   0.425   5.917
 4651POPC   C1A61335  14.903   0.816   6.235
 4651POPC   D2A61336  15.130   0.708   6.628
 4651POPC   C3A61337  14.991   0.727   7.064
 4651POPC   C4A61338  15.219   0.741   7.472
 4651POPC   C1B61339  14.975   0.302   6.338
 4651POPC   C2B61340  15.104   0.234   6.779
 4651POPC   C3B61341  15.332   0.331   7.141
 4651POPC   C4B61342  15.674   0.126   7.305
 4652POPC   NC361343  14.806   6.863   5.632
 4652POPC   PO461344  15.455   6.750   5.468
 4652POPC   GL161345  15.499   6.773   5.904
 4652POPC   GL261346  15.215   6.614   5.910
 4652POPC   C1A61347  15.501   6.667   6.369
 4652POPC   D2A61348  15.248   6.817   6.692
 4652POPC   C3A61349  15.336   6.858   7.124
 4652POPC   C4A61350  14.935   6.914   7.267
 4652POPC   C1B61351  15.021   6.567   6.272
 4652POPC   C2B61352  15.014   6.354   6.640
 4652POPC   C3B61353  14.895   6.433   7.038
 4652POPC   C4B61354  14.750   6.445   7.492
 4653POPC   NC361355  12.187  16.761   5.470
 4653POPC   PO461356  11.677  16.499   5.143
 4653POPC   GL161357  11.732  16.774   5.692
 4653POPC   GL261358  11.868  17.093   5.739
 4653POPC   C1A61359  11.984  16.631   6.151
 4653POPC   D2A61360  11.965  16.536   6.622
 4653POPC   C3A61361  12.205  16.761   6.931
 4653POPC   C4A61362  12.150  16.928   7.339
 4653POPC   C1B61363  11.654  17.002   6.137
 4653POPC   C2B61364  11.642  17.061   6.570
 4653POPC   C3B61365  11.796  17.059   6.983
 4653POPC   C4B61366  11.668  16.745   7.247
 4654POPC   NC361367  20.495  10.268   5.411
 4654POPC   PO461368  20.900  10.724   5.539
 4654POPC   GL161369  20.587  10.570   5.802
 4654POPC   GL261370  20.381  10.854   5.845
 4654POPC   C1A61371  20.405  10.278   6.111
 4654POPC   D2A61372  20.595  10.242   6.530
 4654POPC   C3A61373  20.543  10.580   6.833
 4654POPC   C4A61374  20.479  10.613   7.263
 4654POPC   C1B61375  20.588  10.728   6.277
 4654POPC   C2B61376  20.824  10.937   6.606
 4654POPC   C3B61377  20.943  10.887   7.034
 4654POPC   C4B61378  20.742  11.040   7.378
 4655POPC   NC361379   0.440  41.228   5.538
 4655POPC   PO461380   0.178  41.905   5.563
 4655POPC   GL161381   0.334  41.623   5.844
 4655POPC   GL261382   0.702  41.517   5.848
 4655POPC   C1A61383   0.419  41.587   6.257
 4655POPC   D2A61384   0.541  41.727   6.584
 4655POPC   C3A61385   0.309  41.517   6.878
 4655POPC   C4A61386   0.181  41.366   7.285
 4655POPC   C1B61387   0.758  41.222   6.184
 4655POPC   C2B61388   0.651  41.220   6.608
 4655POPC   C3B61389   0.858  41.312   6.966
 4655POPC   C4B61390   0.641  41.583   7.249
 4656POPC   NC361391  42.630  16.528   5.265
 4656POPC   PO461392  43.228  16.680   5.574
 4656POPC   GL161393  42.922  16.879   5.812
 4656POPC   GL261394  42.627  16.683   5.756
 4656POPC   C1A61395  43.076  16.970   6.203
 4656POPC   D2A61396  43.239  16.755   6.547
 4656POPC   C3A61397  43.134  16.931   6.939
 4656POPC   C4A61398  43.255  16.656   7.250
 4656POPC   C1B61399  42.710  16.591   6.192
 4656POPC   C2B61400  42.726  16.698   6.625
 4656POPC   C3B61401  42.777  16.579   7.058
 4656POPC   C4B61402  42.832  16.868   7.395
 4657POPC   NC361403  21.939  41.797   5.386
 4657POPC   PO461404  22.360  42.415   5.404
 4657POPC   GL161405  22.307  42.248   5.781
 4657POPC   GL261406  21.961  42.191   5.724
 4657POPC   C1A61407  22.422  42.318   6.216
 4657POPC   D2A61408  22.350  42.607   6.566
 4657POPC   C3A61409  22.405  42.408   6.988
 4657POPC   C4A61410  22.301  42.150   7.394
 4657POPC   C1B61411  21.927  42.145   6.157
 4657POPC   C2B61412  22.074  42.185   6.577
 4657POPC   C3B61413  22.051  42.042   6.975
 4657POPC   C4B61414  21.756  42.067   7.295
 4658POPC   NC361415  21.489   1.685   5.125
 4658POPC   PO461416  21.318   1.132   5.457
 4658POPC   GL161417  21.448   1.355   5.809
 4658POPC   GL261418  21.777   1.281   5.788
 4658POPC   C1A61419  21.305   1.265   6.200
 4658POPC   D2A61420  21.348   0.958   6.488
 4658POPC   C3A61421  21.479   1.193   6.832
 4658POPC   C4A61422  21.521   1.087   7.260
 4658POPC   C1B61423  21.730   0.975   6.108
 4658POPC   C2B61424  21.892   0.921   6.507
 4658POPC   C3B61425  21.874   0.891   6.931
 4658POPC   C4B61426  21.876   0.586   7.214
 4659POPC   NC361427   6.910  33.949   5.528
 4659POPC   PO461428   7.038  34.715   5.485
 4659POPC   GL161429   6.681  34.719   5.802
 4659POPC   GL261430   6.694  34.383   5.835
 4659POPC   C1A61431   6.554  34.591   6.276
 4659POPC   D2A61432   6.616  34.700   6.724
 4659POPC   C3A61433   6.365  34.558   7.072
 4659POPC   C4A61434   6.617  34.409   7.412
 4659POPC   C1B61435   6.882  34.201   6.189
 4659POPC   C2B61436   6.798  34.207   6.621
 4659POPC   C3B61437   6.939  34.372   7.004
 4659POPC   C4B61438   7.157  34.481   7.379
 4660POPC   NC361439  41.404  28.592   5.301
 4660POPC   PO461440  42.061  28.455   5.583
 4660POPC   GL161441  41.713  28.406   5.855
 4660POPC   GL261442  41.389  28.304   5.747
 4660POPC   C1A61443  41.536  28.394   6.266
 4660POPC   D2A61444  41.612  28.334   6.684
 4660POPC   C3A61445  41.826  28.641   6.914
 4660POPC   C4A61446  41.760  28.341   7.241
 4660POPC   C1B61447  41.295  28.714   5.948
 4660POPC   C2B61448  41.123  28.835   6.333
 4660POPC   C3B61449  41.096  28.637   6.701
 4660POPC   C4B61450  41.346  28.614   7.044
 4661POPC   NC361451  25.779  31.287   4.746
 4661POPC   PO461452  26.006  31.526   5.358
 4661POPC   GL161453  26.157  31.499   5.808
 4661POPC   GL261454  26.491  31.493   5.917
 4661POPC   C1A61455  26.081  31.466   6.271
 4661POPC   D2A61456  25.709  31.408   6.570
 4661POPC   C3A61457  25.874  31.410   6.998
 4661POPC   C4A61458  25.904  31.656   7.362
 4661POPC   C1B61459  26.594  31.741   6.298
 4661POPC   C2B61460  26.336  31.750   6.668
 4661POPC   C3B61461  26.359  31.733   7.116
 4661POPC   C4B61462  26.480  31.848   7.546
 4662POPC   NC361463  14.236  28.577   5.058
 4662POPC   PO461464  14.372  29.229   5.276
 4662POPC   GL161465  14.301  29.079   5.804
 4662POPC   GL261466  14.463  28.847   5.886
 4662POPC   C1A61467  14.161  28.769   6.242
 4662POPC   D2A61468  14.227  28.969   6.621
 4662POPC   C3A61469  14.037  28.952   6.997
 4662POPC   C4A61470  14.150  29.097   7.434
 4662POPC   C1B61471  14.576  29.088   6.239
 4662POPC   C2B61472  14.710  29.140   6.655
 4662POPC   C3B61473  14.517  29.136   7.033
 4662POPC   C4B61474  14.554  28.823   7.319
 4663POPC   NC361475   2.559   4.680   5.375
 4663POPC   PO461476   3.000   4.074   5.512
 4663POPC   GL161477   2.778   4.329   5.789
 4663POPC   GL261478   2.548   4.096   5.919
 4663POPC   C1A61479   2.906   4.294   6.229
 4663POPC   D2A61480   3.140   4.272   6.589
 4663POPC   C3A61481   2.959   4.121   6.940
 4663POPC   C4A61482   2.854   4.280   7.303
 4663POPC   C1B61483   2.411   4.331   6.283
 4663POPC   C2B61484   2.619   4.455   6.661
 4663POPC   C3B61485   2.449   4.470   7.070
 4663POPC   C4B61486   2.386   4.182   7.433
 4664POPC   NC361487  26.459   2.596   5.522
 4664POPC   PO461488  27.156   2.571   5.412
 4664POPC   GL161489  26.892   2.524   5.810
 4664POPC   GL261490  26.565   2.450   6.016
 4664POPC   C1A61491  26.977   2.622   6.246
 4664POPC   D2A61492  26.731   2.618   6.593
 4664POPC   C3A61493  26.743   2.979   6.832
 4664POPC   C4A61494  26.876   2.850   7.225
 4664POPC   C1B61495  26.419   2.824   6.209
 4664POPC   C2B61496  26.268   2.898   6.634
 4664POPC   C3B61497  26.352   2.768   7.080
 4664POPC   C4B61498  26.297   2.796   7.545
 4665POPC   NC361499  27.272  17.790   5.550
 4665POPC   PO461500  26.669  17.383   5.333
 4665POPC   GL161501  26.798  17.571   5.736
 4665POPC   GL261502  27.043  17.299   5.702
 4665POPC   C1A61503  26.576  17.714   6.168
 4665POPC   D2A61504  26.253  17.619   6.492
 4665POPC   C3A61505  26.413  17.726   6.879
 4665POPC   C4A61506  26.608  17.584   7.237
 4665POPC   C1B61507  26.886  17.294   6.160
 4665POPC   C2B61508  26.774  17.434   6.607
 4665POPC   C3B61509  26.852  17.207   7.013
 4665POPC   C4B61510  27.012  17.086   7.403
 4666POPC   NC361511   5.836   1.943   5.395
 4666POPC   PO461512   5.881   2.618   5.480
 4666POPC   GL161513   6.026   2.276   5.791
 4666POPC   GL261514   5.744   2.056   5.870
 4666POPC   C1A61515   6.078   2.070   6.235
 4666POPC   D2A61516   5.870   2.074   6.635
 4666POPC   C3A61517   6.002   1.888   7.020
 4666POPC   C4A61518   6.233   2.173   7.199
 4666POPC   C1B61519   5.562   1.961   6.254
 4666POPC   C2B61520   5.552   1.683   6.622
 4666POPC   C3B61521   5.494   1.945   6.969
 4666POPC   C4B61522   5.590   1.931   7.370
 4667POPC   NC361523  15.054   4.479   5.400
 4667POPC   PO461524  14.840   3.944   5.669
 4667POPC   GL161525  15.186   4.098   5.922
 4667POPC   GL261526  15.257   4.417   5.875
 4667POPC   C1A61527  15.224   4.189   6.377
 4667POPC   D2A61528  15.067   4.386   6.736
 4667POPC   C3A61529  15.029   4.063   7.042
 4667POPC   C4A61530  15.079   3.992   7.477
 4667POPC   C1B61531  15.231   4.670   6.244
 4667POPC   C2B61532  15.394   4.784   6.649
 4667POPC   C3B61533  15.270   4.751   7.066
 4667POPC   C4B61534  14.928   4.549   7.219
 4668POPC   NC361535   7.534  31.407   5.234
 4668POPC   PO461536   6.968  31.608   5.617
 4668POPC   GL161537   7.320  31.522   5.905
 4668POPC   GL261538   7.645  31.481   5.727
 4668POPC   C1A61539   7.423  31.691   6.323
 4668POPC   D2A61540   7.270  31.835   6.730
 4668POPC   C3A61541   7.154  31.549   7.059
 4668POPC   C4A61542   7.266  31.681   7.463
 4668POPC   C1B61543   7.789  31.363   6.125
 4668POPC   C2B61544   7.801  31.447   6.560
 4668POPC   C3B61545   7.654  31.550   6.950
 4668POPC   C4B61546   7.576  31.318   7.304
 4669POPC   NC361547  23.676   2.384   5.280
 4669POPC   PO461548  23.613   1.694   5.334
 4669POPC   GL161549  23.636   1.903   5.709
 4669POPC   GL261550  23.614   2.213   5.762
 4669POPC   C1A61551  23.548   1.777   6.136
 4669POPC   D2A61552  23.784   1.658   6.487
 4669POPC   C3A61553  23.938   1.899   6.847
 4669POPC   C4A61554  24.107   2.081   7.208
 4669POPC   C1B61555  23.902   2.137   6.115
 4669POPC   C2B61556  23.690   2.189   6.494
 4669POPC   C3B61557  23.502   2.218   6.911
 4669POPC   C4B61558  23.600   2.181   7.332
 4670POPC   NC361559   8.074  29.868   5.436
 4670POPC   PO461560   8.305  30.358   5.057
 4670POPC   GL161561   8.213  30.365   5.592
 4670POPC   GL261562   8.417  30.107   5.767
 4670POPC   C1A61563   8.119  30.357   6.105
 4670POPC   D2A61564   8.077  30.088   6.550
 4670POPC   C3A61565   8.284  30.122   6.950
 4670POPC   C4A61566   8.074  29.833   7.235
 4670POPC   C1B61567   8.425  29.924   6.205
 4670POPC   C2B61568   8.453  29.723   6.641
 4670POPC   C3B61569   8.525  29.612   7.088
 4670POPC   C4B61570   8.357  29.470   7.504
 4671POPC   NC361571   9.890   3.063   5.401
 4671POPC   PO461572  10.164   2.417   5.421
 4671POPC   GL161573  10.012   2.640   5.807
 4671POPC   GL261574   9.859   2.989   5.890
 4671POPC   C1A61575  10.039   2.631   6.242
 4671POPC   D2A61576   9.810   2.485   6.553
 4671POPC   C3A61577   9.869   2.612   6.967
 4671POPC   C4A61578   9.501   2.478   7.189
 4671POPC   C1B61579   9.632   2.945   6.249
 4671POPC   C2B61580   9.710   3.008   6.670
 4671POPC   C3B61581   9.538   2.979   7.084
 4671POPC   C4B61582   9.756   2.828   7.431
 4672POPC   NC361583   9.502  11.611   5.421
 4672POPC   PO461584   9.717  10.964   5.550
 4672POPC   GL161585   9.805  11.137   5.924
 4672POPC   GL261586   9.792  11.474   5.856
 4672POPC   C1A61587  10.090  11.140   6.261
 4672POPC   D2A61588  10.035  10.929   6.644
 4672POPC   C3A61589   9.659  11.141   6.753
 4672POPC   C4A61590   9.416  11.180   7.112
 4672POPC   C1B61591   9.985  11.685   6.176
 4672POPC   C2B61592   9.925  11.566   6.598
 4672POPC   C3B61593   9.927  11.476   7.025
 4672POPC   C4B61594  10.040  11.752   7.364
 4673POPC   NC361595  18.436  26.544   5.438
 4673POPC   PO461596  18.429  27.268   5.608
 4673POPC   GL161597  18.465  26.900   5.790
 4673POPC   GL261598  18.129  26.885   5.776
 4673POPC   C1A61599  18.560  26.782   6.184
 4673POPC   D2A61600  18.510  26.940   6.577
 4673POPC   C3A61601  18.380  26.655   6.860
 4673POPC   C4A61602  18.509  26.807   7.236
 4673POPC   C1B61603  18.110  27.060   6.178
 4673POPC   C2B61604  18.005  26.974   6.584
 4673POPC   C3B61605  18.138  27.106   6.965
 4673POPC   C4B61606  18.032  26.848   7.281
 4674POPC   NC361607  16.165   6.211   5.415
 4674POPC   PO461608  15.543   5.923   5.421
 4674POPC   GL161609  15.760   5.938   5.788
 4674POPC   GL261610  15.814   5.591   5.849
 4674POPC   C1A61611  15.841   5.934   6.241
 4674POPC   D2A61612  16.053   6.033   6.619
 4674POPC   C3A61613  15.813   5.925   6.955
 4674POPC   C4A61614  15.647   6.029   7.306
 4674POPC   C1B61615  15.853   5.400   6.246
 4674POPC   C2B61616  15.954   5.511   6.675
 4674POPC   C3B61617  16.148   5.365   7.075
 4674POPC   C4B61618  16.101   5.249   7.537
 4675POPC   NC361619  25.829  22.337   5.515
 4675POPC   PO461620  25.263  22.278   5.498
 4675POPC   GL161621  25.463  22.036   5.831
 4675POPC   GL261622  25.613  22.297   5.973
 4675POPC   C1A61623  25.382  21.959   6.307
 4675POPC   D2A61624  25.553  22.076   6.746
 4675POPC   C3A61625  25.446  21.905   7.168
 4675POPC   C4A61626  25.475  21.741   7.585
 4675POPC   C1B61627  25.539  22.450   6.366
 4675POPC   C2B61628  25.627  22.579   6.768
 4675POPC   C3B61629  25.463  22.452   7.156
 4675POPC   C4B61630  25.336  22.737   7.505
 4676POPC   NC361631  22.452   3.316   5.425
 4676POPC   PO461632  21.918   3.688   5.356
 4676POPC   GL161633  22.100   3.649   5.770
 4676POPC   GL261634  22.285   3.348   5.898
 4676POPC   C1A61635  22.169   3.769   6.204
 4676POPC   D2A61636  22.247   3.561   6.603
 4676POPC   C3A61637  22.064   3.758   6.977
 4676POPC   C4A61638  22.225   3.723   7.398
 4676POPC   C1B61639  22.308   3.069   6.256
 4676POPC   C2B61640  22.357   3.035   6.700
 4676POPC   C3B61641  22.299   3.288   7.068
 4676POPC   C4B61642  22.448   3.269   7.498
 4677POPC   NC361643  34.887  33.850   5.385
 4677POPC   PO461644  35.540  33.813   5.346
 4677POPC   GL161645  35.423  33.663   5.749
 4677POPC   GL261646  35.105  33.494   5.734
 4677POPC   C1A61647  35.592  33.640   6.175
 4677POPC   D2A61648  35.735  33.815   6.574
 4677POPC   C3A61649  35.494  33.661   6.948
 4677POPC   C4A61650  35.246  33.649   7.330
 4677POPC   C1B61651  35.091  33.652   6.159
 4677POPC   C2B61652  35.173  33.762   6.571
 4677POPC   C3B61653  34.950  33.641   6.943
 4677POPC   C4B61654  34.748  33.729   7.358
 4678POPC   NC361655  10.193  13.676   5.701
 4678POPC   PO461656   9.728  13.705   5.279
 4678POPC   GL161657   9.575  13.738   5.730
 4678POPC   GL261658   9.763  13.464   5.895
 4678POPC   C1A61659   9.615  13.835   6.222
 4678POPC   D2A61660   9.624  13.664   6.664
 4678POPC   C3A61661   9.651  13.869   7.073
 4678POPC   C4A61662   9.963  13.885   7.404
 4678POPC   C1B61663   9.955  13.440   6.319
 4678POPC   C2B61664   9.906  13.224   6.721
 4678POPC   C3B61665   9.923  13.396   7.162
 4678POPC   C4B61666  10.144  13.443   7.589
 4679POPC   NC361667   6.382  22.506   5.515
 4679POPC   PO461668   6.455  23.063   5.469
 4679POPC   GL161669   6.644  22.821   5.822
 4679POPC   GL261670   6.993  22.732   5.800
 4679POPC   C1A61671   6.510  22.736   6.273
 4679POPC   D2A61672   6.476  22.874   6.751
 4679POPC   C3A61673   6.521  22.773   7.233
 4679POPC   C4A61674   6.597  22.617   7.693
 4679POPC   C1B61675   7.010  22.911   6.169
 4679POPC   C2B61676   6.944  22.694   6.514
 4679POPC   C3B61677   6.870  22.589   6.902
 4679POPC   C4B61678   7.035  22.787   7.242
 4680POPC   NC361679  12.950  35.737   5.620
 4680POPC   PO461680  12.713  35.104   5.379
 4680POPC   GL161681  12.795  35.272   5.812
 4680POPC   GL261682  12.573  35.552   5.883
 4680POPC   C1A61683  12.889  35.408   6.253
 4680POPC   D2A61684  13.065  35.555   6.642
 4680POPC   C3A61685  12.814  35.372   6.951
 4680POPC   C4A61686  12.723  35.497   7.327
 4680POPC   C1B61687  12.407  35.631   6.280
 4680POPC   C2B61688  12.563  35.717   6.663
 4680POPC   C3B61689  12.360  35.729   7.058
 4680POPC   C4B61690  12.407  35.796   7.575
 4681POPC   NC361691  17.734  36.410   5.357
 4681POPC   PO461692  17.406  36.967   5.107
 4681POPC   GL161693  17.462  36.801   5.560
 4681POPC   GL261694  17.821  36.763   5.702
 4681POPC   C1A61695  17.456  36.943   6.002
 4681POPC   D2A61696  17.519  37.108   6.411
 4681POPC   C3A61697  17.376  36.873   6.758
 4681POPC   C4A61698  17.388  36.829   7.192
 4681POPC   C1B61699  17.903  36.662   6.129
 4681POPC   C2B61700  17.725  36.577   6.499
 4681POPC   C3B61701  17.801  36.667   6.945
 4681POPC   C4B61702  17.981  36.789   7.350
 4682POPC   NC361703  42.149   7.183   5.438
 4682POPC   PO461704  42.282   6.439   5.365
 4682POPC   GL161705  42.362   6.396   5.788
 4682POPC   GL261706  42.271   6.759   5.787
 4682POPC   C1A61707  42.207   6.478   6.210
 4682POPC   D2A61708  42.382   6.540   6.598
 4682POPC   C3A61709  42.156   6.506   6.969
 4682POPC   C4A61710  42.262   6.233   7.277
 4682POPC   C1B61711  42.580   6.874   6.100
 4682POPC   C2B61712  42.514   7.032   6.507
 4682POPC   C3B61713  42.660   6.892   6.877
 4682POPC   C4B61714  42.470   6.811   7.241
 4683POPC   NC361715   2.976  39.262   5.474
 4683POPC   PO461716   2.288  39.302   5.492
 4683POPC   GL161717   2.637  39.366   5.868
 4683POPC   GL261718   2.974  39.168   5.955
 4683POPC   C1A61719   2.785  39.554   6.290
 4683POPC   D2A61720   2.885  39.493   6.750
 4683POPC   C3A61721   2.643  39.226   7.053
 4683POPC   C4A61722   2.548  39.385   7.471
 4683POPC   C1B61723   3.206  38.941   6.257
 4683POPC   C2B61724   3.055  39.000   6.677
 4683POPC   C3B61725   3.038  38.912   7.094
 4683POPC   C4B61726   2.824  38.964   7.505
 4684POPC   NC361727   4.176   4.302   5.321
 4684POPC   PO461728   4.591   3.824   5.724
 4684POPC   GL161729   4.379   4.168   5.927
 4684POPC   GL261730   4.134   4.368   5.806
 4684POPC   C1A61731   4.352   4.482   6.254
 4684POPC   D2A61732   4.516   4.611   6.627
 4684POPC   C3A61733   4.457   4.292   6.914
 4684POPC   C4A61734   4.379   4.350   7.363
 4684POPC   C1B61735   3.920   4.230   6.181
 4684POPC   C2B61736   4.024   4.278   6.623
 4684POPC   C3B61737   4.012   4.117   7.046
 4684POPC   C4B61738   3.732   3.991   7.342
 4685POPC   NC361739  40.430   7.523   5.372
 4685POPC   PO461740  41.061   7.669   5.142
 4685POPC   GL161741  40.888   7.620   5.622
 4685POPC   GL261742  40.560   7.799   5.770
 4685POPC   C1A61743  40.929   7.606   6.099
 4685POPC   D2A61744  40.925   7.749   6.559
 4685POPC   C3A61745  41.092   7.442   6.845
 4685POPC   C4A61746  41.204   7.503   7.261
 4685POPC   C1B61747  40.431   7.492   6.086
 4685POPC   C2B61748  40.668   7.324   6.456
 4685POPC   C3B61749  40.593   7.376   6.894
 4685POPC   C4B61750  40.725   7.296   7.320
 4686POPC   NC361751   4.305  19.408   5.464
 4686POPC   PO461752   4.711  19.903   5.203
 4686POPC   GL161753   4.448  19.916   5.677
 4686POPC   GL261754   4.166  19.753   5.821
 4686POPC   C1A61755   4.489  19.897   6.171
 4686POPC   D2A61756   4.482  19.720   6.581
 4686POPC   C3A61757   4.730  19.884   6.906
 4686POPC   C4A61758   4.478  20.059   7.214
 4686POPC   C1B61759   3.991  19.813   6.252
 4686POPC   C2B61760   3.861  19.933   6.660
 4686POPC   C3B61761   4.052  19.814   7.039
 4686POPC   C4B61762   4.386  19.516   7.102
 4687POPC   NC361763  21.720  14.252   5.482
 4687POPC   PO461764  22.275  14.309   5.399
 4687POPC   GL161765  22.244  14.133   5.814
 4687POPC   GL261766  21.913  14.197   5.958
 4687POPC   C1A61767  22.378  14.293   6.237
 4687POPC   D2A61768  22.244  14.458   6.679
 4687POPC   C3A61769  22.405  14.250   7.071
 4687POPC   C4A61770  22.328  14.319   7.542
 4687POPC   C1B61771  21.876  14.186   6.421
 4687POPC   C2B61772  21.917  14.116   6.882
 4687POPC   C3B61773  21.918  14.369   7.249
 4687POPC   C4B61774  21.825  14.409   7.699
 4688POPC   NC361775  37.142  24.364   5.261
 4688POPC   PO461776  36.735  24.854   5.275
 4688POPC   GL161777  37.009  24.702   5.672
 4688POPC   GL261778  37.084  24.328   5.757
 4688POPC   C1A61779  36.998  24.865   6.122
 4688POPC   D2A61780  37.075  24.713   6.556
 4688POPC   C3A61781  36.776  24.494   6.821
 4688POPC   C4A61782  36.889  24.513   7.256
 4688POPC   C1B61783  37.188  24.377   6.179
 4688POPC   C2B61784  37.155  24.085   6.531
 4688POPC   C3B61785  37.358  24.020   6.922
 4688POPC   C4B61786  37.311  24.222   7.332
 4689POPC   NC361787  22.361   0.842   5.303
 4689POPC   PO461788  21.865   0.374   5.497
 4689POPC   GL161789  22.190   0.512   5.762
 4689POPC   GL261790  22.076   0.839   5.752
 4689POPC   C1A61791  22.344   0.320   6.165
 4689POPC   D2A61792  22.340   0.073   6.575
 4689POPC   C3A61793  22.236   0.339   6.927
 4689POPC   C4A61794  22.389   0.502   7.311
 4689POPC   C1B61795  22.309   0.851   6.154
 4689POPC   C2B61796  22.410   0.755   6.608
 4689POPC   C3B61797  22.361   0.924   7.054
 4689POPC   C4B61798  22.119   0.978   7.466
 4690POPC   NC361799   3.546   8.400   5.290
 4690POPC   PO461800   3.479   9.052   5.247
 4690POPC   GL161801   3.464   8.860   5.669
 4690POPC   GL261802   3.772   8.946   5.903
 4690POPC   C1A61803   3.323   8.884   6.112
 4690POPC   D2A61804   3.574   9.061   6.445
 4690POPC   C3A61805   3.451   9.032   6.882
 4690POPC   C4A61806   3.709   9.165   7.256
 4690POPC   C1B61807   3.796   8.637   6.224
 4690POPC   C2B61808   3.666   8.587   6.651
 4690POPC   C3B61809   3.889   8.719   7.034
 4690POPC   C4B61810   3.909   8.728   7.504
 4691POPC   NC361811  37.048   6.355   5.087
 4691POPC   PO461812  37.005   5.760   5.425
 4691POPC   GL161813  36.837   5.903   5.781
 4691POPC   GL261814  36.558   5.670   5.787
 4691POPC   C1A61815  37.030   6.021   6.184
 4691POPC   D2A61816  37.326   5.989   6.524
 4691POPC   C3A61817  37.125   5.782   6.873
 4691POPC   C4A61818  37.144   5.954   7.269
 4691POPC   C1B61819  36.515   5.894   6.173
 4691POPC   C2B61820  36.565   6.132   6.535
 4691POPC   C3B61821  36.737   6.152   6.963
 4691POPC   C4B61822  36.645   5.811   7.244
 4692POPC   NC361823  35.753  33.496   5.089
 4692POPC   PO461824  36.269  33.760   5.304
 4692POPC   GL161825  36.091  33.816   5.748
 4692POPC   GL261826  36.358  33.984   5.886
 4692POPC   C1A61827  36.106  33.669   6.224
 4692POPC   D2A61828  36.255  33.694   6.676
 4692POPC   C3A61829  35.987  33.753   7.045
 4692POPC   C4A61830  35.730  33.578   7.401
 4692POPC   C1B61831  36.192  34.194   6.258
 4692POPC   C2B61832  36.003  34.270   6.671
 4692POPC   C3B61833  35.973  34.257   7.118
 4692POPC   C4B61834  36.060  34.011   7.482
 4693POPC   NC361835   8.763  11.832   5.382
 4693POPC   PO461836   9.337  12.139   5.379
 4693POPC   GL161837   9.037  12.148   5.726
 4693POPC   GL261838   8.941  11.807   5.862
 4693POPC   C1A61839   9.083  12.204   6.174
 4693POPC   D2A61840   8.974  11.916   6.504
 4693POPC   C3A61841   8.958  12.148   6.881
 4693POPC   C4A61842   9.227  12.070   7.209
 4693POPC   C1B61843   8.717  11.554   6.171
 4693POPC   C2B61844   8.725  11.457   6.611
 4693POPC   C3B61845   8.622  11.756   6.932
 4693POPC   C4B61846   8.764  11.883   7.321
 4694POPC   NC361847  41.043  12.392   5.446
 4694POPC   PO461848  40.488  11.979   5.256
 4694POPC   GL161849  40.545  11.940   5.713
 4694POPC   GL261850  40.791  12.187   5.845
 4694POPC   C1A61851  40.536  11.924   6.191
 4694POPC   D2A61852  40.802  11.998   6.590
 4694POPC   C3A61853  40.622  11.982   7.007
 4694POPC   C4A61854  40.562  11.782   7.431
 4694POPC   C1B61855  41.054  12.332   6.201
 4694POPC   C2B61856  41.026  12.480   6.641
 4694POPC   C3B61857  41.083  12.242   7.016
 4694POPC   C4B61858  41.222  12.304   7.467
 4695POPC   NC361859  27.772   1.878   5.453
 4695POPC   PO461860  28.114   1.452   5.808
 4695POPC   GL161861  27.801   1.779   5.962
 4695POPC   GL261862  27.442   1.926   5.904
 4695POPC   C1A61863  27.680   1.909   6.362
 4695POPC   D2A61864  27.293   1.880   6.593
 4695POPC   C3A61865  27.447   1.838   7.020
 4695POPC   C4A61866  27.790   2.087   7.191
 4695POPC   C1B61867  27.378   2.298   6.222
 4695POPC   C2B61868  27.263   2.411   6.684
 4695POPC   C3B61869  27.498   2.491   7.122
 4695POPC   C4B61870  27.476   2.261   7.565
 4696POPC   NC361871  11.792  32.305   5.483
 4696POPC   PO461872  12.277  31.931   5.421
 4696POPC   GL161873  12.125  32.041   5.815
 4696POPC   GL261874  11.815  31.880   5.823
 4696POPC   C1A61875  11.953  32.147   6.237
 4696POPC   D2A61876  11.788  32.301   6.626
 4696POPC   C3A61877  12.106  32.390   6.962
 4696POPC   C4A61878  12.102  32.682   7.281
 4696POPC   C1B61879  11.730  31.650   6.183
 4696POPC   C2B61880  11.903  31.691   6.590
 4696POPC   C3B61881  11.863  31.921   6.954
 4696POPC   C4B61882  12.165  31.990   7.292
 4697POPC   NC361883  29.861  36.511   5.161
 4697POPC   PO461884  29.613  37.160   5.386
 4697POPC   GL161885  29.843  36.915   5.735
 4697POPC   GL261886  29.638  36.826   6.022
 4697POPC   C1A61887  30.126  36.889   6.153
 4697POPC   D2A61888  30.007  36.824   6.616
 4697POPC   C3A61889  30.064  37.080   6.996
 4697POPC   C4A61890  30.291  36.944   7.378
 4697POPC   C1B61891  29.787  37.273   6.105
 4697POPC   C2B61892  29.821  37.415   6.522
 4697POPC   C3B61893  29.576  37.127   6.771
 4697POPC   C4B61894  29.620  36.855   7.097
 4698POPC   NC361895   4.986  19.392   5.256
 4698POPC   PO461896   5.376  18.772   5.432
 4698POPC   GL161897   5.377  18.976   5.815
 4698POPC   GL261898   5.066  19.126   5.763
 4698POPC   C1A61899   5.182  18.859   6.228
 4698POPC   D2A61900   5.208  19.064   6.638
 4698POPC   C3A61901   4.978  18.847   6.954
 4698POPC   C4A61902   5.189  18.756   7.345
 4698POPC   C1B61903   5.065  19.341   6.168
 4698POPC   C2B61904   4.791  19.328   6.524
 4698POPC   C3B61905   4.892  19.397   6.947
 4698POPC   C4B61906   4.865  19.188   7.311
 4699POPC   NC361907   5.497   2.644   5.078
 4699POPC   PO461908   5.043   2.950   5.544
 4699POPC   GL161909   5.105   2.579   5.810
 4699POPC   GL261910   4.788   2.445   5.932
 4699POPC   C1A61911   5.191   2.573   6.263
 4699POPC   D2A61912   5.097   2.823   6.650
 4699POPC   C3A61913   5.260   2.600   7.027
 4699POPC   C4A61914   5.064   2.406   7.389
 4699POPC   C1B61915   4.768   2.861   6.135
 4699POPC   C2B61916   4.565   2.948   6.517
 4699POPC   C3B61917   4.614   2.948   6.963
 4699POPC   C4B61918   4.950   2.961   7.274
 4700POPC   NC361919  16.854  28.717   5.601
 4700POPC   PO461920  16.506  29.260   5.269
 4700POPC   GL161921  16.663  29.177   5.697
 4700POPC   GL261922  16.944  29.349   5.846
 4700POPC   C1A61923  16.493  29.092   6.127
 4700POPC   D2A61924  16.644  28.960   6.532
 4700POPC   C3A61925  16.676  29.159   6.956
 4700POPC   C4A61926  16.587  29.046   7.375
 4700POPC   C1B61927  17.007  28.999   6.147
 4700POPC   C2B61928  17.071  28.691   6.453
 4700POPC   C3B61929  17.078  28.866   6.849
 4700POPC   C4B61930  17.131  28.976   7.250
 4701POPC   NC361931   7.147  35.176   5.475
 4701POPC   PO461932   7.801  35.368   5.388
 4701POPC   GL161933   7.665  35.348   5.786
 4701POPC   GL261934   7.359  35.489   5.817
 4701POPC   C1A61935   7.601  35.074   6.125
 4701POPC   D2A61936   7.320  35.101   6.466
 4701POPC   C3A61937   7.528  35.161   6.849
 4701POPC   C4A61938   7.465  35.076   7.285
 4701POPC   C1B61939   7.407  35.557   6.231
 4701POPC   C2B61940   7.256  35.628   6.635
 4701POPC   C3B61941   7.454  35.657   7.008
 4701POPC   C4B61942   7.315  35.545   7.367
 4702POPC   NC361943  34.903  26.657   5.600
 4702POPC   PO461944  34.228  26.507   5.456
 4702POPC   GL161945  34.385  26.652   5.868
 4702POPC   GL261946  34.531  26.935   5.865
 4702POPC   C1A61947  34.713  26.647   6.234
 4702POPC   D2A61948  34.886  26.742   6.639
 4702POPC   C3A61949  34.652  26.513   6.950
 4702POPC   C4A61950  34.457  26.640   7.341
 4702POPC   C1B61951  34.779  27.149   6.191
 4702POPC   C2B61952  34.681  27.206   6.609
 4702POPC   C3B61953  34.510  27.044   6.990
 4702POPC   C4B61954  34.145  27.138   7.254
 4703POPC   NC361955  39.314  16.339   5.366
 4703POPC   PO461956  39.232  15.627   5.355
 4703POPC   GL161957  39.143  15.657   5.808
 4703POPC   GL261958  39.163  16.018   5.828
 4703POPC   C1A61959  39.258  15.709   6.256
 4703POPC   D2A61960  39.319  15.806   6.702
 4703POPC   C3A61961  39.112  15.580   7.056
 4703POPC   C4A61962  39.135  15.641   7.536
 4703POPC   C1B61963  39.093  16.247   6.203
 4703POPC   C2B61964  38.893  16.330   6.588
 4703POPC   C3B61965  39.041  16.381   6.994
 4703POPC   C4B61966  39.186  16.041   7.228
 4704POPC   NC361967  31.262  33.407   5.442
 4704POPC   PO461968  31.605  32.862   5.279
 4704POPC   GL161969  31.668  32.734   5.759
 4704POPC   GL261970  31.336  32.847   5.942
 4704POPC   C1A61971  31.786  32.794   6.214
 4704POPC   D2A61972  31.605  32.995   6.590
 4704POPC   C3A61973  31.707  32.838   6.998
 4704POPC   C4A61974  31.335  32.761   7.211
 4704POPC   C1B61975  31.163  33.147   6.270
 4704POPC   C2B61976  31.171  33.300   6.693
 4704POPC   C3B61977  31.460  33.332   7.041
 4704POPC   C4B61978  31.338  33.556   7.409
 4705POPC   NC361979  16.408   0.459   5.383
 4705POPC   PO461980  17.039   0.340   5.322
 4705POPC   GL161981  16.853   0.539   5.722
 4705POPC   GL261982  16.497   0.572   5.881
 4705POPC   C1A61983  16.882   0.330   6.144
 4705POPC   D2A61984  17.106   0.334   6.551
 4705POPC   C3A61985  16.861   0.433   6.915
 4705POPC   C4A61986  16.962   0.548   7.315
 4705POPC   C1B61987  16.801   0.824   6.166
 4705POPC   C2B61988  16.975   0.828   6.588
 4705POPC   C3B61989  16.810   0.939   7.014
 4705POPC   C4B61990  16.481   0.685   7.211
 4706POPC   NC361991  42.429  15.680   5.457
 4706POPC   PO461992  42.764  15.150   5.308
 4706POPC   GL161993  42.408  15.241   5.661
 4706POPC   GL261994  42.176  15.031   5.851
 4706POPC   C1A61995  42.464  15.441   6.065
 4706POPC   D2A61996  42.598  15.444   6.473
 4706POPC   C3A61997  42.473  15.163   6.800
 4706POPC   C4A61998  42.633  15.344   7.171
 4706POPC   C1B61999  42.247  15.038   6.312
 4706POPC   C2B62000  41.970  15.163   6.637
 4706POPC   C3B62001  41.956  15.131   7.062
 4706POPC   C4B62002  42.235  15.169   7.412
 4707POPC   NC362003   7.143  39.413   5.689
 4707POPC   PO462004   7.747  39.838   5.535
 4707POPC   GL162005   7.747  39.547   5.913
 4707POPC   GL262006   7.603  39.224   5.908
 4707POPC   C1A62007   7.767  39.357   6.349
 4707POPC   D2A62008   7.472  39.445   6.629
 4707POPC   C3A62009   7.499  39.298   7.038
 4707POPC   C4A62010   7.077  39.408   7.173
 4707POPC   C1B62011   7.345  39.056   6.276
 4707POPC   C2B62012   7.167  39.044   6.738
 4707POPC   C3B62013   7.154  38.757   7.119
 4707POPC   C4B62014   7.173  38.665   7.590
 4708POPC   NC362015  15.301  33.482   5.475
 4708POPC   PO462016  15.628  34.080   5.446
 4708POPC   GL162017  15.401  34.035   5.876
 4708POPC   GL262018  15.409  33.682   5.922
 4708POPC   C1A62019  15.170  33.970   6.283
 4708POPC   D2A62020  15.338  33.910   6.706
 4708POPC   C3A62021  14.995  33.845   6.991
 4708POPC   C4A62022  15.022  33.843   7.429
 4708POPC   C1B62023  15.661  33.444   6.209
 4708POPC   C2B62024  15.706  33.539   6.658
 4708POPC   C3B62025  15.581  33.351   7.027
 4708POPC   C4B62026  15.203  33.434   7.187
 4709POPC   NC362027  35.229   4.091   5.731
 4709POPC   PO462028  35.666   4.200   5.240
 4709POPC   GL162029  35.537   4.498   5.701
 4709POPC   GL262030  35.176   4.613   5.826
 4709POPC   C1A62031  35.498   4.473   6.197
 4709POPC   D2A62032  35.354   4.557   6.604
 4709POPC   C3A62033  35.270   4.147   6.856
 4709POPC   C4A62034  35.522   3.924   7.194
 4709POPC   C1B62035  34.939   4.597   6.259
 4709POPC   C2B62036  34.855   4.476   6.708
 4709POPC   C3B62037  35.115   4.596   7.055
 4709POPC   C4B62038  35.296   4.367   7.337
 4710POPC   NC362039  44.619  19.145   5.386
 4710POPC   PO462040  44.645  18.382   5.282
 4710POPC   GL162041  44.664  18.702   5.668
 4710POPC   GL262042  44.443  19.003   5.866
 4710POPC   C1A62043  44.845  18.791   6.084
 4710POPC   D2A62044  44.640  18.882   6.478
 4710POPC   C3A62045  44.864  18.906   6.864
 4710POPC   C4A62046  44.656  18.971   7.241
 4710POPC   C1B62047  44.750  19.281   6.106
 4710POPC   C2B62048  44.875  19.333   6.538
 4710POPC   C3B62049  44.665  19.361   6.921
 4710POPC   C4B62050  44.574  19.501   7.331
 4711POPC   NC362051  13.261   7.807   5.596
 4711POPC   PO462052  12.821   8.160   5.218
 4711POPC   GL162053  12.834   8.112   5.681
 4711POPC   GL262054  12.514   7.928   5.787
 4711POPC   C1A62055  12.981   8.253   6.113
 4711POPC   D2A62056  12.868   8.353   6.554
 4711POPC   C3A62057  12.952   8.146   6.954
 4711POPC   C4A62058  12.690   8.258   7.318
 4711POPC   C1B62059  12.576   7.892   6.245
 4711POPC   C2B62060  12.719   7.767   6.692
 4711POPC   C3B62061  12.599   7.793   7.146
 4711POPC   C4B62062  12.311   7.970   7.506
 4712POPC   NC362063  37.977   6.577   5.091
 4712POPC   PO462064  37.555   6.561   5.625
 4712POPC   GL162065  37.689   6.569   5.965
 4712POPC   GL262066  38.022   6.417   5.924
 4712POPC   C1A62067  37.511   6.559   6.387
 4712POPC   D2A62068  37.570   6.872   6.728
 4712POPC   C3A62069  37.571   6.646   7.101
 4712POPC   C4A62070  37.506   6.815   7.497
 4712POPC   C1B62071  38.015   6.593   6.335
 4712POPC   C2B62072  37.998   6.591   6.766
 4712POPC   C3B62073  38.032   6.837   7.103
 4712POPC   C4B62074  37.961   6.623   7.525
 4713POPC   NC362075   5.789  39.016   5.248
 4713POPC   PO462076   6.309  39.428   5.054
 4713POPC   GL162077   5.964  39.394   5.518
 4713POPC   GL262078   5.919  39.073   5.748
 4713POPC   C1A62079   5.898  39.544   6.007
 4713POPC   D2A62080   6.039  39.488   6.490
 4713POPC   C3A62081   5.945  39.453   6.968
 4713POPC   C4A62082   6.072  39.246   7.371
 4713POPC   C1B62083   5.805  39.091   6.227
 4713POPC   C2B62084   5.943  39.015   6.671
 4713POPC   C3B62085   5.712  38.981   7.072
 4713POPC   C4B62086   5.663  38.954   7.517
 4714POPC   NC362087  39.279  16.874   5.334
 4714POPC   PO462088  38.875  16.293   5.507
 4714POPC   GL162089  39.138  16.572   5.770
 4714POPC   GL262090  39.482  16.453   5.819
 4714POPC   C1A62091  39.084  16.959   5.971
 4714POPC   D2A62092  39.107  17.065   6.394
 4714POPC   C3A62093  38.883  16.865   6.753
 4714POPC   C4A62094  38.948  16.994   7.185
 4714POPC   C1B62095  39.449  16.662   6.189
 4714POPC   C2B62096  39.307  16.629   6.593
 4714POPC   C3B62097  39.374  16.767   6.994
 4714POPC   C4B62098  39.444  16.475   7.308
 4715POPC   NC362099  41.167   5.764   5.337
 4715POPC   PO462100  41.709   6.079   5.335
 4715POPC   GL162101  41.620   5.931   5.772
 4715POPC   GL262102  41.859   5.711   5.834
 4715POPC   C1A62103  41.546   5.742   6.222
 4715POPC   D2A62104  41.485   5.897   6.634
 4715POPC   C3A62105  41.515   5.668   7.018
 4715POPC   C4A62106  41.671   5.789   7.455
 4715POPC   C1B62107  41.983   6.027   6.185
 4715POPC   C2B62108  41.899   6.184   6.644
 4715POPC   C3B62109  41.782   6.171   7.136
 4715POPC   C4B62110  41.929   6.186   7.653
 4716POPC   NC362111  32.261  10.082   5.202
 4716POPC   PO462112  32.438  10.631   5.509
 4716POPC   GL162113  32.277  10.449   5.842
 4716POPC   GL262114  31.951  10.499   5.664
 4716POPC   C1A62115  32.330  10.344   6.296
 4716POPC   D2A62116  32.471  10.198   6.730
 4716POPC   C3A62117  32.325  10.422   7.098
 4716POPC   C4A62118  31.926  10.622   7.079
 4716POPC   C1B62119  31.852  10.543   6.086
 4716POPC   C2B62120  31.890  10.481   6.547
 4716POPC   C3B62121  31.943  10.132   6.824
 4716POPC   C4B62122  31.973  10.077   7.259
 4717POPC   NC362123  35.191  17.203   5.564
 4717POPC   PO462124  35.432  16.620   5.466
 4717POPC   GL162125  35.203  16.751   5.820
 4717POPC   GL262126  35.500  16.971   5.903
 4717POPC   C1A62127  35.174  16.742   6.281
 4717POPC   D2A62128  35.540  16.603   6.546
 4717POPC   C3A62129  35.568  16.652   6.991
 4717POPC   C4A62130  35.440  16.598   7.432
 4717POPC   C1B62131  35.513  17.138   6.321
 4717POPC   C2B62132  35.731  17.123   6.719
 4717POPC   C3B62133  35.521  17.147   7.107
 4717POPC   C4B62134  35.477  17.086   7.525
 4718POPC   NC362135  13.242   0.047   5.537
 4718POPC   PO462136  12.814   0.491   5.259
 4718POPC   GL162137  12.852   0.360   5.687
 4718POPC   GL262138  12.961   0.638   5.825
 4718POPC   C1A62139  12.793   0.307   6.170
 4718POPC   D2A62140  12.842   0.460   6.600
 4718POPC   C3A62141  12.689   0.219   6.967
 4718POPC   C4A62142  12.645   0.006   7.360
 4718POPC   C1B62143  12.626   0.831   6.078
 4718POPC   C2B62144  12.443   0.748   6.453
 4718POPC   C3B62145  12.446   0.720   6.899
 4718POPC   C4B62146  12.814   0.680   7.109
 4719POPC   NC362147  39.352  33.877   5.462
 4719POPC   PO462148  38.922  33.400   5.253
 4719POPC   GL162149  38.912  33.739   5.690
 4719POPC   GL262150  39.107  34.061   5.867
 4719POPC   C1A62151  38.962  33.732   6.212
 4719POPC   D2A62152  39.302  33.475   6.464
 4719POPC   C3A62153  39.388  33.586   6.899
 4719POPC   C4A62154  39.191  33.605   7.310
 4719POPC   C1B62155  39.442  33.997   6.235
 4719POPC   C2B62156  39.614  34.019   6.671
 4719POPC   C3B62157  39.420  34.067   7.102
 4719POPC   C4B62158  39.492  33.947   7.529
 4720POPC   NC362159  33.403   9.086   5.337
 4720POPC   PO462160  32.731   9.134   5.368
 4720POPC   GL162161  32.874   9.031   5.807
 4720POPC   GL262162  33.239   9.024   5.825
 4720POPC   C1A62163  32.708   8.999   6.249
 4720POPC   D2A62164  32.731   9.262   6.661
 4720POPC   C3A62165  32.722   9.013   7.078
 4720POPC   C4A62166  32.857   8.603   7.232
 4720POPC   C1B62167  33.184   9.238   6.258
 4720POPC   C2B62168  33.257   9.337   6.729
 4720POPC   C3B62169  33.245   9.086   7.135
 4720POPC   C4B62170  33.359   8.676   7.339
 4721POPC   NC362171  31.263  32.631   5.481
 4721POPC   PO462172  31.726  32.127   5.552
 4721POPC   GL162173  31.417  32.262   5.821
 4721POPC   GL262174  31.268  31.965   5.833
 4721POPC   C1A62175  31.449  32.384   6.245
 4721POPC   D2A62176  31.682  32.458   6.632
 4721POPC   C3A62177  31.462  32.294   6.990
 4721POPC   C4A62178  31.555  32.331   7.412
 4721POPC   C1B62179  31.217  31.743   6.224
 4721POPC   C2B62180  31.022  31.793   6.638
 4721POPC   C3B62181  31.192  31.816   7.069
 4721POPC   C4B62182  31.204  31.981   7.480
 4722POPC   NC362183  10.649   9.398   5.595
 4722POPC   PO462184  10.536   8.805   5.520
 4722POPC   GL162185  10.617   8.951   5.888
 4722POPC   GL262186  10.937   8.782   5.891
 4722POPC   C1A62187  10.477   8.987   6.310
 4722POPC   D2A62188  10.459   8.951   6.754
 4722POPC   C3A62189  10.744   8.680   6.943
 4722POPC   C4A62190  10.571   8.567   7.319
 4722POPC   C1B62191  10.994   9.201   6.126
 4722POPC   C2B62192  10.800   9.373   6.492
 4722POPC   C3B62193  10.904   9.191   6.865
 4722POPC   C4B62194  10.741   9.071   7.259
 4723POPC   NC362195  29.421   0.357   5.543
 4723POPC   PO462196  29.332  44.756   5.162
 4723POPC   GL162197  29.420  44.609   5.632
 4723POPC   GL262198  29.454  44.911   5.853
 4723POPC   C1A62199  29.282  44.463   6.081
 4723POPC   D2A62200  28.960  44.622   6.440
 4723POPC   C3A62201  28.972  44.626   6.916
 4723POPC   C4A62202  29.261  44.461   7.254
 4723POPC   C1B62203  29.403  44.880   6.315
 4723POPC   C2B62204  29.440  44.715   6.720
 4723POPC   C3B62205  29.367  44.931   7.127
 4723POPC   C4B62206  29.242  44.883   7.566
 4724POPC   NC362207   0.129  28.039   5.444
 4724POPC   PO462208   0.484  28.573   5.376
 4724POPC   GL162209   0.570  28.531   5.789
 4724POPC   GL262210   0.263  28.366   5.821
 4724POPC   C1A62211   0.604  28.399   6.216
 4724POPC   D2A62212   0.791  28.506   6.604
 4724POPC   C3A62213   0.617  28.303   6.950
 4724POPC   C4A62214   0.704  28.392   7.373
 4724POPC   C1B62215   0.117  28.199   6.173
 4724POPC   C2B62216   0.039  28.300   6.589
 4724POPC   C3B62217   0.120  28.069   6.926
 4724POPC   C4B62218   0.242  28.174   7.306
 4725POPC   NC362219  31.787  25.942   5.311
 4725POPC   PO462220  32.108  26.384   5.413
 4725POPC   GL162221  32.237  26.217   5.856
 4725POPC   GL262222  32.169  25.862   5.786
 4725POPC   C1A62223  32.459  26.282   6.328
 4725POPC   D2A62224  32.621  26.284   6.775
 4725POPC   C3A62225  32.342  26.270   7.120
 4725POPC   C4A62226  31.881  26.268   7.164
 4725POPC   C1B62227  32.102  25.919   6.240
 4725POPC   C2B62228  32.250  25.922   6.663
 4725POPC   C3B62229  32.253  25.778   7.089
 4725POPC   C4B62230  32.596  25.827   7.378
 4726POPC   NC362231  37.681   9.416   5.477
 4726POPC   PO462232  37.634   9.993   5.262
 4726POPC   GL162233  37.601   9.849   5.756
 4726POPC   GL262234  37.920   9.883   5.967
 4726POPC   C1A62235  37.486   9.665   6.204
 4726POPC   D2A62236  37.378   9.732   6.668
 4726POPC   C3A62237  37.433   9.589   7.105
 4726POPC   C4A62238  37.306   9.680   7.521
 4726POPC   C1B62239  38.070  10.209   6.313
 4726POPC   C2B62240  38.086  10.217   6.780
 4726POPC   C3B62241  37.826   9.940   7.064
 4726POPC   C4B62242  37.803   9.746   7.461
 4727POPC   NC362243  10.836  35.108   5.524
 4727POPC   PO462244  10.209  35.319   5.343
 4727POPC   GL162245  10.402  35.329   5.769
 4727POPC   GL262246  10.608  35.100   5.973
 4727POPC   C1A62247  10.461  35.538   6.164
 4727POPC   D2A62248  10.587  35.303   6.512
 4727POPC   C3A62249  10.427  35.518   6.839
 4727POPC   C4A62250  10.396  35.491   7.257
 4727POPC   C1B62251  10.236  35.038   6.219
 4727POPC   C2B62252  10.128  35.108   6.626
 4727POPC   C3B62253  10.286  35.054   7.012
 4727POPC   C4B62254  10.041  35.156   7.355
 4728POPC   NC362255   1.054  30.127   5.467
 4728POPC   PO462256   1.165  30.749   5.527
 4728POPC   GL162257   1.306  30.610   5.902
 4728POPC   GL262258   1.061  30.341   5.976
 4728POPC   C1A62259   1.263  30.665   6.355
 4728POPC   D2A62260   1.475  30.571   6.740
 4728POPC   C3A62261   1.302  30.822   7.054
 4728POPC   C4A62262   1.079  31.229   7.206
 4728POPC   C1B62263   0.796  30.363   6.365
 4728POPC   C2B62264   0.917  30.555   6.771
 4728POPC   C3B62265   0.814  30.777   7.166
 4728POPC   C4B62266   0.840  30.634   7.618
 4729POPC   NC362267  13.573   3.658   5.336
 4729POPC   PO462268  14.129   3.429   5.148
 4729POPC   GL162269  13.906   3.528   5.664
 4729POPC   GL262270  13.541   3.507   5.813
 4729POPC   C1A62271  13.897   3.666   6.159
 4729POPC   D2A62272  13.912   3.488   6.623
 4729POPC   C3A62273  13.743   3.689   7.025
 4729POPC   C4A62274  13.660   3.556   7.455
 4729POPC   C1B62275  13.336   3.627   6.192
 4729POPC   C2B62276  13.440   3.701   6.600
 4729POPC   C3B62277  13.222   3.714   6.978
 4729POPC   C4B62278  13.259   3.914   7.352
 4730POPC   NC362279  11.934  19.285   5.494
 4730POPC   PO462280  12.410  18.914   5.375
 4730POPC   GL162281  12.275  18.972   5.756
 4730POPC   GL262282  11.967  18.805   5.775
 4730POPC   C1A62283  12.180  19.215   6.126
 4730POPC   D2A62284  11.969  19.203   6.504
 4730POPC   C3A62285  12.103  19.180   6.911
 4730POPC   C4A62286  11.796  19.284   7.191
 4730POPC   C1B62287  12.162  18.670   6.156
 4730POPC   C2B62288  12.215  18.730   6.569
 4730POPC   C3B62289  12.002  18.650   6.919
 4730POPC   C4B62290  11.974  18.831   7.309
 4731POPC   NC362291  20.876  30.044   5.521
 4731POPC   PO462292  20.322  29.826   5.327
 4731POPC   GL162293  20.487  29.828   5.776
 4731POPC   GL262294  20.724  29.560   5.849
 4731POPC   C1A62295  20.686  30.090   6.125
 4731POPC   D2A62296  21.020  30.154   6.469
 4731POPC   C3A62297  20.840  30.262   6.866
 4731POPC   C4A62298  20.737  30.151   7.264
 4731POPC   C1B62299  20.562  29.592   6.254
 4731POPC   C2B62300  20.583  29.903   6.569
 4731POPC   C3B62301  20.401  29.967   6.917
 4731POPC   C4B62302  20.460  29.634   7.207
 4732POPC   NC362303  44.581  16.928   5.330
 4732POPC   PO462304  44.862  16.332   5.195
 4732POPC   GL162305  44.839  16.585   5.608
 4732POPC   GL262306  44.484  16.635   5.727
 4732POPC   C1A62307  44.860  16.619   6.077
 4732POPC   D2A62308  44.781  16.556   6.520
 4732POPC   C3A62309  44.790  16.826   6.873
 4732POPC   C4A62310  44.817  16.766   7.313
 4732POPC   C1B62311  44.525  17.020   6.016
 4732POPC   C2B62312  44.605  17.123   6.478
 4732POPC   C3B62313  44.437  17.174   6.911
 4732POPC   C4B62314  44.426  17.079   7.343
 4733POPC   NC362315  14.204   0.194   5.327
 4733POPC   PO462316  14.547   0.700   5.462
 4733POPC   GL162317  14.534   0.449   5.798
 4733POPC   GL262318  14.180   0.461   5.802
 4733POPC   C1A62319  14.489   0.491   6.262
 4733POPC   D2A62320  14.664   0.486   6.703
 4733POPC   C3A62321  14.512   0.502   7.131
 4733POPC   C4A62322  14.081   0.452   7.248
 4733POPC   C1B62323  14.264   0.091   6.009
 4733POPC   C2B62324  14.285   0.051   6.417
 4733POPC   C3B62325  14.259   0.147   6.846
 4733POPC   C4B62326  14.320   0.016   7.252
 4734POPC   NC362327  25.876  26.492   5.269
 4734POPC   PO462328  26.011  25.874   5.393
 4734POPC   GL162329  25.942  25.975   5.821
 4734POPC   GL262330  26.271  25.932   5.925
 4734POPC   C1A62331  25.875  26.006   6.286
 4734POPC   D2A62332  26.023  26.102   6.722
 4734POPC   C3A62333  25.864  26.131   7.123
 4734POPC   C4A62334  25.656  25.830   7.353
 4734POPC   C1B62335  26.297  26.267   6.206
 4734POPC   C2B62336  26.495  26.176   6.591
 4734POPC   C3B62337  26.476  25.958   6.951
 4734POPC   C4B62338  26.349  26.091   7.291
 4735POPC   NC362339  23.822  44.896   4.933
 4735POPC   PO462340  23.527  44.495   5.375
 4735POPC   GL162341  23.640  44.731   5.734
 4735POPC   GL262342  23.726  44.436   5.856
 4735POPC   C1A62343  23.735  44.857   6.182
 4735POPC   D2A62344  23.803   0.133   6.531
 4735POPC   C3A62345  23.712  44.887   6.894
 4735POPC   C4A62346  23.670  44.788   7.334
 4735POPC   C1B62347  23.487  44.393   6.223
 4735POPC   C2B62348  23.691  44.433   6.608
 4735POPC   C3B62349  23.543  44.384   7.022
 4735POPC   C4B62350  23.765  44.297   7.396
 4736POPC   NC362351  12.893   8.602   5.177
 4736POPC   PO462352  13.014   9.145   5.505
 4736POPC   GL162353  12.876   8.838   5.837
 4736POPC   GL262354  13.220   8.743   6.064
 4736POPC   C1A62355  12.770   8.781   6.271
 4736POPC   D2A62356  13.074   8.833   6.609
 4736POPC   C3A62357  12.922   8.653   6.994
 4736POPC   C4A62358  12.812   8.729   7.431
 4736POPC   C1B62359  13.106   9.179   6.166
 4736POPC   C2B62360  12.786   9.278   6.460
 4736POPC   C3B62361  12.696   9.108   6.875
 4736POPC   C4B62362  12.925   9.185   7.255
 4737POPC   NC362363  23.211   1.653   5.076
 4737POPC   PO462364  22.722   1.914   5.497
 4737POPC   GL162365  22.802   2.064   5.868
 4737POPC   GL262366  23.139   1.958   5.842
 4737POPC   C1A62367  22.690   2.020   6.285
 4737POPC   D2A62368  22.832   2.197   6.645
 4737POPC   C3A62369  22.716   1.986   7.012
 4737POPC   C4A62370  22.517   1.783   7.344
 4737POPC   C1B62371  23.201   2.128   6.254
 4737POPC   C2B62372  23.304   1.866   6.592
 4737POPC   C3B62373  23.423   1.724   6.990
 4737POPC   C4B62374  23.148   1.960   7.276
 4738POPC   NC362375  41.292  41.235   5.126
 4738POPC   PO462376  41.477  40.647   5.436
 4738POPC   GL162377  41.565  40.772   5.848
 4738POPC   GL262378  41.630  41.142   5.822
 4738POPC   C1A62379  41.572  40.577   6.227
 4738POPC   D2A62380  41.389  40.636   6.608
 4738POPC   C3A62381  41.602  40.603   7.004
 4738POPC   C4A62382  41.590  40.664   7.444
 4738POPC   C1B62383  41.514  41.092   6.287
 4738POPC   C2B62384  41.504  41.117   6.741
 4738POPC   C3B62385  41.544  41.101   7.168
 4738POPC   C4B62386  41.298  41.105   7.494
 4739POPC   NC362387  37.602  14.268   5.580
 4739POPC   PO462388  38.116  13.823   5.621
 4739POPC   GL162389  37.972  14.131   5.965
 4739POPC   GL262390  37.917  14.492   5.915
 4739POPC   C1A62391  37.929  14.375   6.404
 4739POPC   D2A62392  37.681  14.246   6.782
 4739POPC   C3A62393  37.617  14.430   7.211
 4739POPC   C4A62394  37.455  14.195   7.580
 4739POPC   C1B62395  37.632  14.791   6.162
 4739POPC   C2B62396  37.564  14.859   6.612
 4739POPC   C3B62397  37.892  14.735   6.906
 4739POPC   C4B62398  37.984  14.803   7.355
 4740POPC   NC362399  19.468  30.939   5.535
 4740POPC   PO462400  19.990  31.355   5.395
 4740POPC   GL162401  19.801  31.396   5.803
 4740POPC   GL262402  19.489  31.256   5.912
 4740POPC   C1A62403  19.822  31.438   6.248
 4740POPC   D2A62404  19.916  31.657   6.577
 4740POPC   C3A62405  19.943  31.496   6.963
 4740POPC   C4A62406  19.987  31.861   7.199
 4740POPC   C1B62407  19.487  31.074   6.320
 4740POPC   C2B62408  19.478  31.346   6.640
 4740POPC   C3B62409  19.505  31.181   6.973
 4740POPC   C4B62410  19.558  31.382   7.304
 4741POPC   NC362411  15.794  31.036   5.382
 4741POPC   PO462412  15.843  30.328   5.316
 4741POPC   GL162413  15.734  30.352   5.752
 4741POPC   GL262414  15.671  30.684   5.747
 4741POPC   C1A62415  15.886  30.468   6.182
 4741POPC   D2A62416  15.834  30.686   6.579
 4741POPC   C3A62417  15.954  30.505   6.970
 4741POPC   C4A62418  16.230  30.784   7.218
 4741POPC   C1B62419  15.452  30.768   6.111
 4741POPC   C2B62420  15.329  30.802   6.523
 4741POPC   C3B62421  15.437  30.710   6.921
 4741POPC   C4B62422  15.711  30.912   7.193
 4742POPC   NC362423   8.052   7.557   5.486
 4742POPC   PO462424   8.558   7.087   5.517
 4742POPC   GL162425   8.306   7.322   5.855
 4742POPC   GL262426   8.249   7.702   5.931
 4742POPC   C1A62427   8.344   7.222   6.274
 4742POPC   D2A62428   8.518   7.354   6.655
 4742POPC   C3A62429   8.239   7.398   7.015
 4742POPC   C4A62430   8.402   7.267   7.433
 4742POPC   C1B62431   7.947   7.546   6.239
 4742POPC   C2B62432   7.826   7.480   6.683
 4742POPC   C3B62433   7.732   7.631   7.109
 4742POPC   C4B62434   8.055   7.639   7.429
 4743POPC   NC362435  12.028  11.572   5.094
 4743POPC   PO462436  12.298  11.063   5.472
 4743POPC   GL162437  12.208  11.222   5.901
 4743POPC   GL262438  12.310  11.576   5.843
 4743POPC   C1A62439  12.306  11.247   6.383
 4743POPC   D2A62440  12.227  11.381   6.805
 4743POPC   C3A62441  12.090  11.096   7.176
 4743POPC   C4A62442  12.338  10.958   7.622
 4743POPC   C1B62443  11.999  11.606   6.191
 4743POPC   C2B62444  11.775  11.515   6.566
 4743POPC   C3B62445  11.858  11.684   6.961
 4743POPC   C4B62446  12.158  11.622   7.257
 4744POPC   NC362447  30.645   5.900   4.989
 4744POPC   PO462448  31.102   5.819   5.439
 4744POPC   GL162449  30.821   6.034   5.722
 4744POPC   GL262450  30.722   5.733   5.818
 4744POPC   C1A62451  30.577   6.068   6.150
 4744POPC   D2A62452  30.715   5.940   6.557
 4744POPC   C3A62453  30.624   6.159   6.890
 4744POPC   C4A62454  30.499   6.130   7.283
 4744POPC   C1B62455  30.752   5.551   6.221
 4744POPC   C2B62456  30.984   5.535   6.621
 4744POPC   C3B62457  30.871   5.678   7.064
 4744POPC   C4B62458  30.994   5.427   7.447
 4745POPC   NC362459  37.160   6.265   5.576
 4745POPC   PO462460  36.897   6.850   5.241
 4745POPC   GL162461  37.053   6.760   5.638
 4745POPC   GL262462  36.789   6.539   5.807
 4745POPC   C1A62463  37.173   6.861   6.074
 4745POPC   D2A62464  37.107   6.885   6.520
 4745POPC   C3A62465  37.169   6.503   6.777
 4745POPC   C4A62466  37.099   6.508   7.217
 4745POPC   C1B62467  36.855   6.490   6.263
 4745POPC   C2B62468  36.678   6.601   6.651
 4745POPC   C3B62469  36.808   6.851   6.957
 4745POPC   C4B62470  36.715   6.849   7.393
 4746POPC   NC362471   5.546  20.722   5.463
 4746POPC   PO462472   6.207  20.514   5.484
 4746POPC   GL162473   5.910  20.522   5.818
 4746POPC   GL262474   5.729  20.840   5.901
 4746POPC   C1A62475   5.688  20.416   6.188
 4746POPC   D2A62476   5.638  20.579   6.590
 4746POPC   C3A62477   5.710  20.321   6.946
 4746POPC   C4A62478   5.707  20.389   7.368
 4746POPC   C1B62479   5.881  20.980   6.256
 4746POPC   C2B62480   5.973  21.003   6.665
 4746POPC   C3B62481   5.780  20.852   7.053
 4746POPC   C4B62482   5.874  20.850   7.526
 4747POPC   NC362483  11.797   6.260   5.549
 4747POPC   PO462484  12.281   6.822   5.420
 4747POPC   GL162485  12.019   6.664   5.749
 4747POPC   GL262486  11.680   6.813   5.694
 4747POPC   C1A62487  11.962   6.483   6.189
 4747POPC   D2A62488  11.873   6.672   6.606
 4747POPC   C3A62489  11.974   6.563   7.057
 4747POPC   C4A62490  11.922   6.677   7.509
 4747POPC   C1B62491  11.594   6.826   6.125
 4747POPC   C2B62492  11.414   6.935   6.512
 4747POPC   C3B62493  11.599   6.966   6.904
 4747POPC   C4B62494  11.550   6.999   7.297
 4748POPC   NC362495   6.423  30.425   5.421
 4748POPC   PO462496   6.251  31.050   5.423
 4748POPC   GL162497   6.080  30.928   5.841
 4748POPC   GL262498   6.176  30.596   5.859
 4748POPC   C1A62499   5.857  30.910   6.280
 4748POPC   D2A62500   5.775  31.137   6.701
 4748POPC   C3A62501   5.822  30.929   7.130
 4748POPC   C4A62502   5.880  30.654   7.504
 4748POPC   C1B62503   6.343  30.765   6.263
 4748POPC   C2B62504   6.205  30.824   6.695
 4748POPC   C3B62505   6.242  30.627   7.114
 4748POPC   C4B62506   6.429  30.684   7.519
 4749POPC   NC362507   3.496   5.427   5.503
 4749POPC   PO462508   3.790   5.960   5.242
 4749POPC   GL162509   3.691   5.871   5.646
 4749POPC   GL262510   3.979   5.653   5.686
 4749POPC   C1A62511   3.462   5.960   6.035
 4749POPC   D2A62512   3.279   6.038   6.432
 4749POPC   C3A62513   3.503   6.001   6.803
 4749POPC   C4A62514   3.340   5.880   7.186
 4749POPC   C1B62515   3.847   5.622   6.118
 4749POPC   C2B62516   3.613   5.587   6.516
 4749POPC   C3B62517   3.422   5.458   6.922
 4749POPC   C4B62518   3.613   5.471   7.325
 4750POPC   NC362519   6.357  34.598   5.396
 4750POPC   PO462520   5.782  34.298   5.056
 4750POPC   GL162521   5.881  34.537   5.492
 4750POPC   GL262522   6.082  34.253   5.679
 4750POPC   C1A62523   5.907  34.671   5.981
 4750POPC   D2A62524   6.077  34.666   6.448
 4750POPC   C3A62525   5.981  34.891   6.861
 4750POPC   C4A62526   5.742  34.780   7.232
 4750POPC   C1B62527   6.007  34.186   6.137
 4750POPC   C2B62528   5.724  34.213   6.477
 4750POPC   C3B62529   5.850  34.396   6.851
 4750POPC   C4B62530   5.856  34.264   7.247
 4751POPC   NC362531  28.357   4.903   5.366
 4751POPC   PO462532  28.809   5.358   5.238
 4751POPC   GL162533  28.623   5.146   5.705
 4751POPC   GL262534  28.478   4.819   5.832
 4751POPC   C1A62535  28.528   5.201   6.172
 4751POPC   D2A62536  28.168   5.170   6.430
 4751POPC   C3A62537  28.214   5.202   6.863
 4751POPC   C4A62538  28.419   5.371   7.195
 4751POPC   C1B62539  28.308   4.709   6.207
 4751POPC   C2B62540  28.445   4.777   6.615
 4751POPC   C3B62541  28.316   4.730   7.032
 4751POPC   C4B62542  28.136   4.980   7.341
 4752POPC   NC362543  26.237  20.498   5.410
 4752POPC   PO462544  25.772  20.160   5.490
 4752POPC   GL162545  26.125  20.292   5.882
 4752POPC   GL262546  26.500  20.253   5.859
 4752POPC   C1A62547  26.335  20.582   6.287
 4752POPC   D2A62548  26.351  20.767   6.771
 4752POPC   C3A62549  26.102  20.724   7.198
 4752POPC   C4A62550  25.908  21.003   7.513
 4752POPC   C1B62551  26.397  20.088   6.282
 4752POPC   C2B62552  26.250  20.238   6.695
 4752POPC   C3B62553  26.389  20.314   7.100
 4752POPC   C4B62554  26.488  20.369   7.526
 4753POPC   NC362555   1.516   3.453   5.484
 4753POPC   PO462556   1.117   3.826   5.235
 4753POPC   GL162557   1.075   3.546   5.730
 4753POPC   GL262558   1.326   3.463   5.944
 4753POPC   C1A62559   0.869   3.454   6.184
 4753POPC   D2A62560   0.895   3.562   6.662
 4753POPC   C3A62561   0.995   3.313   7.056
 4753POPC   C4A62562   0.870   3.125   7.428
 4753POPC   C1B62563   1.350   3.506   6.352
 4753POPC   C2B62564   1.395   3.366   6.725
 4753POPC   C3B62565   1.484   3.493   7.103
 4753POPC   C4B62566   1.586   3.921   7.138
 4754POPC   NC362567  14.138   0.925   5.541
 4754POPC   PO462568  14.585   1.457   5.487
 4754POPC   GL162569  14.410   1.274   5.864
 4754POPC   GL262570  14.507   0.935   5.916
 4754POPC   C1A62571  14.594   1.261   6.293
 4754POPC   D2A62572  14.513   1.320   6.729
 4754POPC   C3A62573  14.552   1.056   7.106
 4754POPC   C4A62574  14.253   0.877   7.419
 4754POPC   C1B62575  14.172   0.892   6.245
 4754POPC   C2B62576  14.126   0.931   6.701
 4754POPC   C3B62577  14.079   1.252   6.994
 4754POPC   C4B62578  13.957   1.268   7.382
 4755POPC   NC362579  32.417  16.845   5.303
 4755POPC   PO462580  31.818  16.671   5.572
 4755POPC   GL162581  32.198  16.751   5.800
 4755POPC   GL262582  32.434  17.035   5.759
 4755POPC   C1A62583  32.154  16.641   6.252
 4755POPC   D2A62584  31.884  16.576   6.602
 4755POPC   C3A62585  32.052  16.407   6.969
 4755POPC   C4A62586  32.111  16.731   7.235
 4755POPC   C1B62587  32.575  16.922   6.145
 4755POPC   C2B62588  32.632  16.645   6.464
 4755POPC   C3B62589  32.444  16.713   6.830
 4755POPC   C4B62590  32.571  16.517   7.184
 4756POPC   NC362591   5.408  44.118   5.308
 4756POPC   PO462592   5.033  43.549   5.197
 4756POPC   GL162593   5.060  43.848   5.594
 4756POPC   GL262594   4.720  43.953   5.628
 4756POPC   C1A62595   5.259  43.974   6.062
 4756POPC   D2A62596   5.358  43.868   6.559
 4756POPC   C3A62597   5.138  43.934   6.964
 4756POPC   C4A62598   5.293  44.079   7.408
 4756POPC   C1B62599   4.763  43.872   6.037
 4756POPC   C2B62600   4.849  43.981   6.453
 4756POPC   C3B62601   4.823  44.317   6.720
 4756POPC   C4B62602   4.895  44.346   7.141
 4757POPC   NC362603  26.508  19.349   5.477
 4757POPC   PO462604  26.704  18.668   5.341
 4757POPC   GL162605  26.728  18.928   5.750
 4757POPC   GL262606  26.539  19.170   5.958
 4757POPC   C1A62607  26.956  18.981   6.163
 4757POPC   D2A62608  26.994  19.256   6.509
 4757POPC   C3A62609  27.067  19.099   6.904
 4757POPC   C4A62610  26.901  18.773   7.124
 4757POPC   C1B62611  26.520  19.094   6.409
 4757POPC   C2B62612  26.513  19.331   6.804
 4757POPC   C3B62613  26.806  19.487   7.091
 4757POPC   C4B62614  26.826  19.187   7.425
 4758POPC   NC362615   7.992  44.428   5.326
 4758POPC   PO462616   8.642  44.751   5.415
 4758POPC   GL162617   8.316  44.784   5.705
 4758POPC   GL262618   8.334  44.464   5.747
 4758POPC   C1A62619   8.345  44.877   6.145
 4758POPC   D2A62620   8.170  44.875   6.553
 4758POPC   C3A62621   8.369  44.856   6.965
 4758POPC   C4A62622   8.378  44.674   7.402
 4758POPC   C1B62623   8.264  44.350   6.176
 4758POPC   C2B62624   8.187  44.193   6.593
 4758POPC   C3B62625   8.207  44.367   6.997
 4758POPC   C4B62626   8.054  44.262   7.395
 4759POPC   NC362627   9.877  14.264   5.381
 4759POPC   PO462628   9.437  14.648   5.444
 4759POPC   GL162629   9.557  14.364   5.824
 4759POPC   GL262630   9.868  14.142   5.874
 4759POPC   C1A62631   9.658  14.359   6.296
 4759POPC   D2A62632   9.797  14.557   6.692
 4759POPC   C3A62633   9.535  14.413   7.044
 4759POPC   C4A62634   9.632  14.251   7.452
 4759POPC   C1B62635  10.101  14.054   6.258
 4759POPC   C2B62636   9.966  14.056   6.675
 4759POPC   C3B62637  10.010  14.259   7.052
 4759POPC   C4B62638   9.961  14.606   7.279
 4760POPC   NC362639  36.678  33.930   5.474
 4760POPC   PO462640  37.318  33.558   5.380
 4760POPC   GL162641  37.051  33.626   5.795
 4760POPC   GL262642  36.895  33.915   5.936
 4760POPC   C1A62643  36.913  33.526   6.273
 4760POPC   D2A62644  36.764  33.634   6.666
 4760POPC   C3A62645  37.063  33.669   6.940
 4760POPC   C4A62646  37.106  33.480   7.298
 4760POPC   C1B62647  36.646  33.966   6.298
 4760POPC   C2B62648  36.516  34.137   6.672
 4760POPC   C3B62649  36.441  34.012   7.067
 4760POPC   C4B62650  36.585  33.601   7.151
 4761POPC   NC362651  31.124   3.288   5.243
 4761POPC   PO462652  30.522   3.543   5.262
 4761POPC   GL162653  30.454   3.609   5.740
 4761POPC   GL262654  30.586   3.288   5.872
 4761POPC   C1A62655  30.509   3.693   6.218
 4761POPC   D2A62656  30.721   3.580   6.643
 4761POPC   C3A62657  30.457   3.580   7.029
 4761POPC   C4A62658  30.191   3.305   7.291
 4761POPC   C1B62659  30.950   3.614   5.976
 4761POPC   C2B62660  31.047   3.902   6.360
 4761POPC   C3B62661  30.976   3.989   6.842
 4761POPC   C4B62662  30.894   3.758   7.224
 4762POPC   NC362663  32.372  34.201   5.399
 4762POPC   PO462664  32.158  33.573   5.411
 4762POPC   GL162665  32.097  33.666   5.836
 4762POPC   GL262666  32.191  34.003   5.832
 4762POPC   C1A62667  32.007  33.737   6.271
 4762POPC   D2A62668  32.291  33.641   6.615
 4762POPC   C3A62669  32.136  33.733   7.038
 4762POPC   C4A62670  32.027  34.024   7.373
 4762POPC   C1B62671  32.483  33.906   6.175
 4762POPC   C2B62672  32.532  34.094   6.562
 4762POPC   C3B62673  32.581  33.897   6.940
 4762POPC   C4B62674  32.528  33.910   7.356
 4763POPC   NC362675   1.562  27.320   5.390
 4763POPC   PO462676   1.206  27.882   5.372
 4763POPC   GL162677   1.074  27.758   5.818
 4763POPC   GL262678   1.211  27.416   5.829
 4763POPC   C1A62679   1.026  27.641   6.265
 4763POPC   D2A62680   1.307  27.675   6.609
 4763POPC   C3A62681   1.280  27.525   7.007
 4763POPC   C4A62682   0.972  27.506   7.246
 4763POPC   C1B62683   1.462  27.351   6.213
 4763POPC   C2B62684   1.479  27.202   6.642
 4763POPC   C3B62685   1.745  27.347   7.011
 4763POPC   C4B62686   1.609  27.246   7.392
 4764POPC   NC362687   2.578   8.239   5.754
 4764POPC   PO462688   3.148   8.164   5.403
 4764POPC   GL162689   3.070   7.979   5.829
 4764POPC   GL262690   2.765   7.759   5.845
 4764POPC   C1A62691   2.932   8.119   6.261
 4764POPC   D2A62692   2.646   8.330   6.568
 4764POPC   C3A62693   2.624   8.317   7.034
 4764POPC   C4A62694   2.956   8.394   7.375
 4764POPC   C1B62695   2.506   7.822   6.233
 4764POPC   C2B62696   2.266   7.932   6.580
 4764POPC   C3B62697   2.414   7.835   6.969
 4764POPC   C4B62698   2.381   7.956   7.381
 4765POPC   NC362699  27.113  31.493   5.432
 4765POPC   PO462700  27.732  31.810   5.456
 4765POPC   GL162701  27.706  31.534   5.805
 4765POPC   GL262702  27.504  31.243   5.719
 4765POPC   C1A62703  27.527  31.503   6.212
 4765POPC   D2A62704  27.607  31.639   6.633
 4765POPC   C3A62705  27.303  31.764   6.938
 4765POPC   C4A62706  27.166  31.415   7.173
 4765POPC   C1B62707  27.661  31.032   6.078
 4765POPC   C2B62708  27.603  31.110   6.526
 4765POPC   C3B62709  27.717  31.181   6.957
 4765POPC   C4B62710  27.965  31.201   7.374
 4766POPC   NC362711  28.714   2.323   5.270
 4766POPC   PO462712  28.313   2.800   5.610
 4766POPC   GL162713  28.449   2.653   5.954
 4766POPC   GL262714  28.578   2.363   5.815
 4766POPC   C1A62715  28.284   2.771   6.353
 4766POPC   D2A62716  28.417   2.983   6.679
 4766POPC   C3A62717  28.491   2.777   7.018
 4766POPC   C4A62718  28.262   2.871   7.342
 4766POPC   C1B62719  28.315   2.280   6.241
 4766POPC   C2B62720  28.025   2.311   6.572
 4766POPC   C3B62721  28.083   2.461   6.981
 4766POPC   C4B62722  28.383   2.364   7.310
 4767POPC   NC362723  21.519  29.712   5.447
 4767POPC   PO462724  21.219  30.358   5.483
 4767POPC   GL162725  21.453  30.160   5.806
 4767POPC   GL262726  21.146  30.141   5.960
 4767POPC   C1A62727  21.527  29.967   6.235
 4767POPC   D2A62728  21.371  29.797   6.647
 4767POPC   C3A62729  21.656  29.851   7.006
 4767POPC   C4A62730  21.626  30.211   7.293
 4767POPC   C1B62731  21.052  29.742   6.185
 4767POPC   C2B62732  20.955  29.506   6.575
 4767POPC   C3B62733  20.890  29.745   6.937
 4767POPC   C4B62734  21.188  29.989   7.113
 4768POPC   NC362735   8.555  26.352   5.497
 4768POPC   PO462736   8.733  25.754   5.437
 4768POPC   GL162737   8.573  25.981   5.873
 4768POPC   GL262738   8.721  26.311   5.977
 4768POPC   C1A62739   8.380  26.092   6.331
 4768POPC   D2A62740   8.431  26.271   6.799
 4768POPC   C3A62741   8.121  26.152   7.136
 4768POPC   C4A62742   7.791  25.817   7.277
 4768POPC   C1B62743   8.881  26.101   6.352
 4768POPC   C2B62744   8.734  25.865   6.718
 4768POPC   C3B62745   8.589  25.854   7.147
 4768POPC   C4B62746   8.566  26.193   7.426
 4769POPC   NC362747  12.279  22.587   5.378
 4769POPC   PO462748  11.914  22.073   5.148
 4769POPC   GL162749  12.031  22.146   5.609
 4769POPC   GL262750  11.911  22.478   5.719
 4769POPC   C1A62751  12.231  22.100   6.050
 4769POPC   D2A62752  12.420  22.113   6.490
 4769POPC   C3A62753  12.187  22.160   6.901
 4769POPC   C4A62754  12.143  21.826   7.212
 4769POPC   C1B62755  12.095  22.595   6.133
 4769POPC   C2B62756  11.953  22.439   6.521
 4769POPC   C3B62757  11.700  22.452   6.890
 4769POPC   C4B62758  11.882  22.399   7.294
 4770POPC   NC362759  31.807   1.099   5.430
 4770POPC   PO462760  31.185   1.140   5.323
 4770POPC   GL162761  31.232   1.193   5.766
 4770POPC   GL262762  31.252   1.546   5.806
 4770POPC   C1A62763  31.433   1.072   6.163
 4770POPC   D2A62764  31.592   0.950   6.563
 4770POPC   C3A62765  31.727   1.200   6.915
 4770POPC   C4A62766  31.678   1.260   7.347
 4770POPC   C1B62767  31.454   1.578   6.203
 4770POPC   C2B62768  31.378   1.414   6.624
 4770POPC   C3B62769  31.259   1.418   7.056
 4770POPC   C4B62770  31.286   1.655   7.439
 4771POPC   NC362771  42.064  26.671   5.385
 4771POPC   PO462772  42.699  26.812   5.390
 4771POPC   GL162773  42.428  26.727   5.751
 4771POPC   GL262774  42.293  27.074   5.849
 4771POPC   C1A62775  42.237  26.701   6.187
 4771POPC   D2A62776  42.365  26.899   6.562
 4771POPC   C3A62777  42.202  26.769   6.947
 4771POPC   C4A62778  42.373  26.766   7.358
 4771POPC   C1B62779  42.090  27.215   6.259
 4771POPC   C2B62780  42.102  27.308   6.759
 4771POPC   C3B62781  41.966  27.142   7.206
 4771POPC   C4B62782  42.159  27.095   7.655
 4772POPC   NC362783  34.225   9.059   5.520
 4772POPC   PO462784  33.745   9.325   5.113
 4772POPC   GL162785  33.764   9.006   5.641
 4772POPC   GL262786  33.654   8.687   5.689
 4772POPC   C1A62787  33.663   9.048   6.118
 4772POPC   D2A62788  33.511   8.861   6.518
 4772POPC   C3A62789  33.684   9.065   6.878
 4772POPC   C4A62790  34.046   9.017   7.094
 4772POPC   C1B62791  33.967   8.654   6.061
 4772POPC   C2B62792  34.035   8.778   6.519
 4772POPC   C3B62793  33.853   8.582   6.898
 4772POPC   C4B62794  33.864   8.566   7.344
 4773POPC   NC362795  38.056  13.391   5.425
 4773POPC   PO462796  37.715  13.944   5.245
 4773POPC   GL162797  37.615  13.756   5.713
 4773POPC   GL262798  37.378  13.451   5.752
 4773POPC   C1A62799  37.786  13.556   6.122
 4773POPC   D2A62800  37.916  13.371   6.536
 4773POPC   C3A62801  37.934  13.638   6.911
 4773POPC   C4A62802  37.770  13.959   7.208
 4773POPC   C1B62803  37.284  13.555   6.212
 4773POPC   C2B62804  37.479  13.701   6.625
 4773POPC   C3B62805  37.426  13.566   7.068
 4773POPC   C4B62806  37.409  13.711   7.498
 4774POPC   NC362807   7.051  19.702   5.436
 4774POPC   PO462808   7.695  19.690   5.302
 4774POPC   GL162809   7.472  19.685   5.724
 4774POPC   GL262810   7.354  20.044   5.670
 4774POPC   C1A62811   7.293  19.572   6.166
 4774POPC   D2A62812   7.457  19.698   6.576
 4774POPC   C3A62813   7.334  19.859   6.977
 4774POPC   C4A62814   7.452  19.709   7.350
 4774POPC   C1B62815   7.443  20.052   6.107
 4774POPC   C2B62816   7.687  20.135   6.459
 4774POPC   C3B62817   7.714  20.207   6.920
 4774POPC   C4B62818   7.625  20.175   7.369
 4775POPC   NC362819  38.827  20.869   5.635
 4775POPC   PO462820  39.127  20.369   5.246
 4775POPC   GL162821  39.206  20.425   5.743
 4775POPC   GL262822  39.555  20.328   5.841
 4775POPC   C1A62823  39.182  20.713   6.152
 4775POPC   D2A62824  38.854  20.854   6.470
 4775POPC   C3A62825  38.931  20.709   6.897
 4775POPC   C4A62826  39.168  20.856   7.234
 4775POPC   C1B62827  39.440  20.278   6.242
 4775POPC   C2B62828  39.361  20.475   6.625
 4775POPC   C3B62829  39.370  20.232   6.995
 4775POPC   C4B62830  39.318  20.389   7.372
 4776POPC   NC362831  38.984   0.391   5.142
 4776POPC   PO462832  39.406   0.789   5.459
 4776POPC   GL162833  39.329   0.564   5.825
 4776POPC   GL262834  39.009   0.397   5.856
 4776POPC   C1A62835  39.362   0.407   6.233
 4776POPC   D2A62836  39.521   0.365   6.673
 4776POPC   C3A62837  39.211   0.591   6.983
 4776POPC   C4A62838  39.223   0.730   7.402
 4776POPC   C1B62839  38.933   0.165   6.235
 4776POPC   C2B62840  38.987   0.231   6.656
 4776POPC   C3B62841  39.244   0.087   6.987
 4776POPC   C4B62842  39.212   0.193   7.388
 4777POPC   NC362843  38.374  10.993   5.414
 4777POPC   PO462844  38.956  11.189   5.231
 4777POPC   GL162845  38.776  10.977   5.725
 4777POPC   GL262846  38.444  11.183   5.869
 4777POPC   C1A62847  38.746  11.070   6.237
 4777POPC   D2A62848  38.692  11.452   6.544
 4777POPC   C3A62849  38.547  11.406   6.973
 4777POPC   C4A62850  38.710  11.398   7.428
 4777POPC   C1B62851  38.294  11.473   6.212
 4777POPC   C2B62852  38.161  11.367   6.613
 4777POPC   C3B62853  38.095  11.079   6.918
 4777POPC   C4B62854  38.258  11.122   7.308
 4778POPC   NC362855   7.511  12.383   5.729
 4778POPC   PO462856   7.561  11.783   5.432
 4778POPC   GL162857   7.450  11.841   5.861
 4778POPC   GL262858   7.114  12.021   5.920
 4778POPC   C1A62859   7.552  12.009   6.267
 4778POPC   D2A62860   7.310  12.100   6.591
 4778POPC   C3A62861   7.567  12.084   6.915
 4778POPC   C4A62862   7.670  12.115   7.291
 4778POPC   C1B62863   7.026  12.385   6.229
 4778POPC   C2B62864   7.072  12.546   6.673
 4778POPC   C3B62865   7.083  12.278   7.028
 4778POPC   C4B62866   7.215  12.333   7.428
 4779POPC   NC362867   9.894  25.443   5.447
 4779POPC   PO462868   9.388  25.006   5.538
 4779POPC   GL162869   9.721  25.082   5.803
 4779POPC   GL262870  10.030  24.948   5.885
 4779POPC   C1A62871   9.780  25.326   6.182
 4779POPC   D2A62872   9.567  25.624   6.451
 4779POPC   C3A62873   9.531  25.543   6.861
 4779POPC   C4A62874   9.542  25.379   7.247
 4779POPC   C1B62875  10.074  24.909   6.325
 4779POPC   C2B62876  10.120  25.289   6.571
 4779POPC   C3B62877  10.021  25.433   6.966
 4779POPC   C4B62878   9.983  25.121   7.238
 4780POPC   NC362879  38.635  41.847   5.224
 4780POPC   PO462880  38.097  41.491   5.334
 4780POPC   GL162881  38.328  41.435   5.753
 4780POPC   GL262882  38.697  41.454   5.719
 4780POPC   C1A62883  38.365  41.663   6.165
 4780POPC   D2A62884  38.342  41.949   6.530
 4780POPC   C3A62885  38.256  41.764   6.931
 4780POPC   C4A62886  38.189  41.928   7.326
 4780POPC   C1B62887  38.760  41.305   6.135
 4780POPC   C2B62888  38.659  41.140   6.560
 4780POPC   C3B62889  38.650  41.384   6.931
 4780POPC   C4B62890  38.549  41.536   7.319
 4781POPC   NC362891   1.707  25.067   5.511
 4781POPC   PO462892   2.284  24.928   5.644
 4781POPC   GL162893   1.966  25.025   6.004
 4781POPC   GL262894   1.684  25.281   5.975
 4781POPC   C1A62895   1.967  25.090   6.490
 4781POPC   D2A62896   2.006  24.936   6.962
 4781POPC   C3A62897   2.219  25.231   7.291
 4781POPC   C4A62898   2.254  25.449   7.711
 4781POPC   C1B62899   1.566  25.491   6.360
 4781POPC   C2B62900   1.608  25.505   6.795
 4781POPC   C3B62901   1.727  25.331   7.169
 4781POPC   C4B62902   1.780  25.562   7.539
 4782POPC   NC362903  39.499  40.363   5.492
 4782POPC   PO462904  39.149  39.746   5.382
 4782POPC   GL162905  39.226  39.977   5.745
 4782POPC   GL262906  39.013  40.269   5.765
 4782POPC   C1A62907  39.221  39.874   6.181
 4782POPC   D2A62908  38.971  39.844   6.558
 4782POPC   C3A62909  39.111  39.925   6.984
 4782POPC   C4A62910  39.386  40.219   7.232
 4782POPC   C1B62911  38.953  40.295   6.244
 4782POPC   C2B62912  39.122  40.345   6.677
 4782POPC   C3B62913  38.934  40.434   7.102
 4782POPC   C4B62914  39.011  40.347   7.579
 4783POPC   NC362915  36.769   8.150   5.339
 4783POPC   PO462916  37.344   7.723   5.439
 4783POPC   GL162917  37.104   8.056   5.747
 4783POPC   GL262918  36.720   8.057   5.833
 4783POPC   C1A62919  37.066   8.127   6.213
 4783POPC   D2A62920  37.038   7.856   6.622
 4783POPC   C3A62921  36.937   8.133   6.994
 4783POPC   C4A62922  37.012   8.494   7.276
 4783POPC   C1B62923  36.485   7.969   6.233
 4783POPC   C2B62924  36.524   7.898   6.688
 4783POPC   C3B62925  36.295   7.964   7.052
 4783POPC   C4B62926  36.538   8.194   7.378
 4784POPC   NC362927   5.583  10.821   5.311
 4784POPC   PO462928   4.844  10.709   5.296
 4784POPC   GL162929   4.984  10.490   5.721
 4784POPC   GL262930   5.297  10.431   5.644
 4784POPC   C1A62931   4.974  10.525   6.215
 4784POPC   D2A62932   5.036  10.310   6.655
 4784POPC   C3A62933   5.037  10.433   7.139
 4784POPC   C4A62934   4.941  10.712   7.530
 4784POPC   C1B62935   5.416  10.369   6.057
 4784POPC   C2B62936   5.523  10.360   6.494
 4784POPC   C3B62937   5.480  10.246   6.905
 4784POPC   C4B62938   5.585  10.515   7.212
 4785POPC   NC362939  38.885  28.547   5.455
 4785POPC   PO462940  39.384  28.151   5.545
 4785POPC   GL162941  39.185  28.382   5.854
 4785POPC   GL262942  39.310  28.711   5.905
 4785POPC   C1A62943  39.126  28.399   6.287
 4785POPC   D2A62944  38.978  28.183   6.593
 4785POPC   C3A62945  39.091  28.209   7.005
 4785POPC   C4A62946  38.836  27.959   7.212
 4785POPC   C1B62947  39.388  28.813   6.354
 4785POPC   C2B62948  39.278  28.664   6.797
 4785POPC   C3B62949  39.458  28.527   7.220
 4785POPC   C4B62950  39.600  28.587   7.667
 4786POPC   NC362951  29.251  16.489   5.418
 4786POPC   PO462952  29.044  17.102   5.316
 4786POPC   GL162953  29.052  16.877   5.707
 4786POPC   GL262954  29.433  16.866   5.736
 4786POPC   C1A62955  28.821  16.938   6.113
 4786POPC   D2A62956  29.045  16.934   6.503
 4786POPC   C3A62957  28.917  16.754   6.900
 4786POPC   C4A62958  29.086  16.901   7.276
 4786POPC   C1B62959  29.267  16.646   6.123
 4786POPC   C2B62960  29.213  16.465   6.572
 4786POPC   C3B62961  29.377  16.405   7.019
 4786POPC   C4B62962  29.469  16.595   7.436
 4787POPC   NC362963   0.895   6.946   5.505
 4787POPC   PO462964   1.339   6.471   5.474
 4787POPC   GL162965   1.163   6.640   5.839
 4787POPC   GL262966   1.351   6.955   5.739
 4787POPC   C1A62967   1.081   6.554   6.302
 4787POPC   D2A62968   0.920   6.701   6.711
 4787POPC   C3A62969   1.171   6.453   6.994
 4787POPC   C4A62970   1.466   6.127   7.107
 4787POPC   C1B62971   1.219   7.024   6.161
 4787POPC   C2B62972   1.374   6.929   6.563
 4787POPC   C3B62973   1.304   6.967   6.994
 4787POPC   C4B62974   0.960   6.830   7.250
 4788POPC   NC362975  18.721  11.167   5.452
 4788POPC   PO462976  19.397  11.152   5.420
 4788POPC   GL162977  19.195  11.352   5.795
 4788POPC   GL262978  18.831  11.317   5.913
 4788POPC   C1A62979  19.181  11.152   6.222
 4788POPC   D2A62980  19.007  11.093   6.649
 4788POPC   C3A62981  19.288  11.005   7.022
 4788POPC   C4A62982  19.379  11.107   7.488
 4788POPC   C1B62983  18.663  11.411   6.301
 4788POPC   C2B62984  18.851  11.571   6.665
 4788POPC   C3B62985  18.841  11.375   7.070
 4788POPC   C4B62986  18.647  11.594   7.434
 4789POPC   NC362987  28.120  17.813   5.197
 4789POPC   PO462988  27.641  17.495   5.539
 4789POPC   GL162989  27.680  17.514   5.934
 4789POPC   GL262990  27.356  17.501   6.023
 4789POPC   C1A62991  27.715  17.690   6.355
 4789POPC   D2A62992  27.835  17.566   6.764
 4789POPC   C3A62993  27.658  17.677   7.163
 4789POPC   C4A62994  27.483  17.326   7.470
 4789POPC   C1B62995  27.206  17.633   6.372
 4789POPC   C2B62996  27.342  17.759   6.738
 4789POPC   C3B62997  27.313  17.409   6.956
 4789POPC   C4B62998  27.108  17.571   7.259
 4790POPC   NC362999  24.241   7.183   5.503
 4790POPC   PO463000  24.595   7.767   5.339
 4790POPC   GL163001  24.504   7.621   5.792
 4790POPC   GL263002  24.264   7.385   5.985
 4790POPC   C1A63003  24.593   7.693   6.240
 4790POPC   D2A63004  24.313   7.493   6.519
 4790POPC   C3A63005  24.425   7.568   6.918
 4790POPC   C4A63006  24.648   7.380   7.184
 4790POPC   C1B63007  24.624   7.186   6.192
 4790POPC   C2B63008  24.692   7.174   6.641
 4790POPC   C3B63009  24.292   7.080   6.827
 4790POPC   C4B63010  24.217   7.087   7.253
 4791POPC   NC363011  37.434   8.174   5.374
 4791POPC   PO463012  38.016   8.234   5.672
 4791POPC   GL163013  37.861   8.053   6.038
 4791POPC   GL263014  37.570   7.871   5.895
 4791POPC   C1A63015  37.726   8.270   6.410
 4791POPC   D2A63016  37.345   8.293   6.652
 4791POPC   C3A63017  37.492   8.381   7.053
 4791POPC   C4A63018  37.929   8.362   7.182
 4791POPC   C1B63019  37.468   7.833   6.332
 4791POPC   C2B63020  37.553   7.818   6.785
 4791POPC   C3B63021  37.609   7.878   7.248
 4791POPC   C4B63022  37.454   7.821   7.711
 4792POPC   NC363023  13.468  40.514   5.398
 4792POPC   PO463024  13.774  40.047   5.322
 4792POPC   GL163025  13.660  40.133   5.808
 4792POPC   GL263026  13.554  40.487   5.908
 4792POPC   C1A63027  13.676  40.032   6.310
 4792POPC   D2A63028  13.786  39.872   6.776
 4792POPC   C3A63029  13.538  40.014   7.131
 4792POPC   C4A63030  13.304  40.283   7.421
 4792POPC   C1B63031  13.672  40.549   6.359
 4792POPC   C2B63032  13.752  40.399   6.801
 4792POPC   C3B63033  13.713  40.530   7.239
 4792POPC   C4B63034  13.627  40.590   7.695
 4793POPC   NC363035   9.967  34.783   5.228
 4793POPC   PO463036  10.627  34.675   5.426
 4793POPC   GL163037  10.605  34.602   5.870
 4793POPC   GL263038  10.279  34.721   5.831
 4793POPC   C1A63039  10.674  34.749   6.326
 4793POPC   D2A63040  10.707  34.876   6.766
 4793POPC   C3A63041  10.889  34.636   7.088
 4793POPC   C4A63042  10.864  34.517   7.516
 4793POPC   C1B63043  10.218  34.507   6.226
 4793POPC   C2B63044  10.274  34.616   6.629
 4793POPC   C3B63045  10.358  34.542   7.033
 4793POPC   C4B63046  10.071  34.659   7.278
 4794POPC   NC363047  40.421  18.010   5.419
 4794POPC   PO463048  41.051  17.747   5.418
 4794POPC   GL163049  40.977  17.482   5.826
 4794POPC   GL263050  40.604  17.380   5.831
 4794POPC   C1A63051  40.829  17.567   6.246
 4794POPC   D2A63052  40.872  17.814   6.599
 4794POPC   C3A63053  40.958  17.674   7.019
 4794POPC   C4A63054  40.968  17.299   7.258
 4794POPC   C1B63055  40.386  17.316   6.217
 4794POPC   C2B63056  40.519  17.446   6.653
 4794POPC   C3B63057  40.495  17.382   7.083
 4794POPC   C4B63058  40.436  17.431   7.512
 4795POPC   NC363059  28.698  20.691   5.307
 4795POPC   PO463060  28.104  20.454   5.403
 4795POPC   GL163061  28.160  20.383   5.824
 4795POPC   GL263062  28.496  20.455   5.723
 4795POPC   C1A63063  28.157  20.552   6.236
 4795POPC   D2A63064  28.256  20.424   6.630
 4795POPC   C3A63065  27.973  20.545   6.896
 4795POPC   C4A63066  27.912  20.248   7.148
 4795POPC   C1B63067  28.619  20.350   6.076
 4795POPC   C2B63068  28.699  20.552   6.429
 4795POPC   C3B63069  28.716  20.460   6.877
 4795POPC   C4B63070  28.403  20.548   7.163
 4796POPC   NC363071  36.546  34.788   5.223
 4796POPC   PO463072  35.902  34.687   5.380
 4796POPC   GL163073  36.055  34.513   5.780
 4796POPC   GL263074  36.397  34.445   5.675
 4796POPC   C1A63075  35.891  34.598   6.202
 4796POPC   D2A63076  36.095  34.783   6.546
 4796POPC   C3A63077  35.863  34.734   6.903
 4796POPC   C4A63078  36.053  34.773   7.288
 4796POPC   C1B63079  36.530  34.579   6.102
 4796POPC   C2B63080  36.586  34.621   6.556
 4796POPC   C3B63081  36.376  34.542   6.960
 4796POPC   C4B63082  36.368  34.404   7.413
 4797POPC   NC363083   5.909  37.385   5.443
 4797POPC   PO463084   5.699  36.721   5.496
 4797POPC   GL163085   5.590  36.906   5.895
 4797POPC   GL263086   5.574  37.246   5.824
 4797POPC   C1A63087   5.709  36.792   6.325
 4797POPC   D2A63088   6.054  36.557   6.542
 4797POPC   C3A63089   6.055  36.578   6.988
 4797POPC   C4A63090   6.072  36.839   7.388
 4797POPC   C1B63091   5.932  37.227   6.104
 4797POPC   C2B63092   5.926  37.282   6.542
 4797POPC   C3B63093   6.004  37.123   6.946
 4797POPC   C4B63094   6.108  37.338   7.298
 4798POPC   NC363095  17.278  35.583   5.255
 4798POPC   PO463096  17.943  35.336   5.305
 4798POPC   GL163097  17.659  35.226   5.670
 4798POPC   GL263098  17.300  35.321   5.702
 4798POPC   C1A63099  17.706  35.308   6.120
 4798POPC   D2A63100  17.635  35.577   6.478
 4798POPC   C3A63101  17.795  35.489   6.873
 4798POPC   C4A63102  17.675  35.156   7.136
 4798POPC   C1B63103  17.237  35.536   6.091
 4798POPC   C2B63104  17.165  35.395   6.501
 4798POPC   C3B63105  17.280  35.441   6.919
 4798POPC   C4B63106  17.024  35.254   7.185
 4799POPC   NC363107  35.145  44.784   5.715
 4799POPC   PO463108  35.778  44.697   5.614
 4799POPC   GL163109  35.559  44.563   5.931
 4799POPC   GL263110  35.525  44.237   5.761
 4799POPC   C1A63111  35.266  44.603   6.310
 4799POPC   D2A63112  34.958  44.754   6.588
 4799POPC   C3A63113  35.038  44.500   6.935
 4799POPC   C4A63114  35.290  44.505   7.292
 4799POPC   C1B63115  35.488  44.154   6.206
 4799POPC   C2B63116  35.249  44.154   6.584
 4799POPC   C3B63117  35.250  43.988   6.988
 4799POPC   C4B63118  35.565  44.068   7.259
 4800POPC   NC363119  16.829  12.834   5.261
 4800POPC   PO463120  16.152  12.963   5.481
 4800POPC   GL163121  16.512  12.873   5.783
 4800POPC   GL263122  16.897  12.882   5.771
 4800POPC   C1A63123  16.496  12.787   6.250
 4800POPC   D2A63124  16.802  12.605   6.598
 4800POPC   C3A63125  16.698  12.659   7.065
 4800POPC   C4A63126  16.426  12.918   7.336
 4800POPC   C1B63127  16.920  13.054   6.191
 4800POPC   C2B63128  16.702  13.117   6.600
 4800POPC   C3B63129  16.778  13.173   7.023
 4800POPC   C4B63130  16.974  12.999   7.374
 4801POPC   NC363131  36.847  25.316   5.343
 4801POPC   PO463132  37.304  25.519   5.760
 4801POPC   GL163133  36.866  25.379   5.876
 4801POPC   GL263134  36.666  25.072   5.759
 4801POPC   C1A63135  36.884  25.377   6.307
 4801POPC   D2A63136  37.224  25.200   6.483
 4801POPC   C3A63137  37.065  25.121   6.882
 4801POPC   C4A63138  36.806  25.443   7.118
 4801POPC   C1B63139  36.501  25.068   6.185
 4801POPC   C2B63140  36.605  25.025   6.636
 4801POPC   C3B63141  36.639  24.934   7.092
 4801POPC   C4B63142  36.683  24.886   7.561
 4802POPC   NC363143  10.131  38.561   5.603
 4802POPC   PO463144   9.523  38.279   5.400
 4802POPC   GL163145   9.669  38.458   5.786
 4802POPC   GL263146   9.884  38.205   5.934
 4802POPC   C1A63147   9.786  38.663   6.181
 4802POPC   D2A63148  10.055  38.594   6.535
 4802POPC   C3A63149   9.920  38.822   6.893
 4802POPC   C4A63150   9.973  38.680   7.312
 4802POPC   C1B63151   9.532  38.214   6.216
 4802POPC   C2B63152   9.529  38.416   6.605
 4802POPC   C3B63153   9.711  38.364   7.011
 4802POPC   C4B63154   9.574  38.101   7.392
 4803POPC   NC363155  18.809  34.774   5.264
 4803POPC   PO463156  19.357  34.377   5.422
 4803POPC   GL163157  19.083  34.639   5.681
 4803POPC   GL263158  18.706  34.534   5.700
 4803POPC   C1A63159  18.998  34.588   6.119
 4803POPC   D2A63160  19.111  34.791   6.482
 4803POPC   C3A63161  19.125  34.573   6.852
 4803POPC   C4A63162  19.000  34.841   7.150
 4803POPC   C1B63163  18.547  34.353   6.096
 4803POPC   C2B63164  18.711  34.409   6.515
 4803POPC   C3B63165  18.674  34.349   6.942
 4803POPC   C4B63166  18.855  34.401   7.319
 4804POPC   NC363167  23.817  33.325   5.450
 4804POPC   PO463168  23.370  33.854   5.505
 4804POPC   GL163169  23.552  33.626   5.810
 4804POPC   GL263170  23.902  33.726   5.800
 4804POPC   C1A63171  23.726  33.451   6.193
 4804POPC   D2A63172  23.795  33.674   6.566
 4804POPC   C3A63173  23.718  33.777   6.996
 4804POPC   C4A63174  23.647  33.668   7.428
 4804POPC   C1B63175  23.902  34.005   6.204
 4804POPC   C2B63176  24.008  34.117   6.677
 4804POPC   C3B63177  24.036  34.130   7.144
 4804POPC   C4B63178  23.970  34.030   7.607
 4805POPC   NC363179  28.723  28.320   5.479
 4805POPC   PO463180  29.488  28.571   5.451
 4805POPC   GL163181  29.164  28.446   5.718
 4805POPC   GL263182  28.957  28.740   5.705
 4805POPC   C1A63183  29.043  28.341   6.148
 4805POPC   D2A63184  29.166  28.161   6.555
 4805POPC   C3A63185  29.126  28.288   6.987
 4805POPC   C4A63186  29.436  28.072   7.252
 4805POPC   C1B63187  29.217  28.819   6.084
 4805POPC   C2B63188  29.284  28.686   6.535
 4805POPC   C3B63189  29.271  28.783   6.986
 4805POPC   C4B63190  28.900  28.711   7.241
 4806POPC   NC363191  21.183  10.894   5.204
 4806POPC   PO463192  21.566  11.306   5.633
 4806POPC   GL163193  21.384  11.383   6.005
 4806POPC   GL263194  21.139  11.583   5.937
 4806POPC   C1A63195  21.208  11.168   6.364
 4806POPC   D2A63196  21.336  10.869   6.696
 4806POPC   C3A63197  21.469  11.040   7.092
 4806POPC   C4A63198  21.452  11.436   7.335
 4806POPC   C1B63199  21.231  11.684   6.375
 4806POPC   C2B63200  21.393  11.471   6.745
 4806POPC   C3B63201  21.069  11.376   7.004
 4806POPC   C4B63202  21.060  11.796   7.101
 4807POPC   NC363203  17.817   7.859   5.468
 4807POPC   PO463204  17.127   7.819   5.580
 4807POPC   GL163205  17.455   8.021   5.814
 4807POPC   GL263206  17.560   8.307   5.650
 4807POPC   C1A63207  17.531   7.947   6.244
 4807POPC   D2A63208  17.418   8.275   6.526
 4807POPC   C3A63209  17.518   8.227   6.930
 4807POPC   C4A63210  17.368   8.151   7.344
 4807POPC   C1B63211  17.699   8.434   6.090
 4807POPC   C2B63212  17.947   8.434   6.480
 4807POPC   C3B63213  17.990   8.457   6.932
 4807POPC   C4B63214  17.704   8.547   7.280
 4808POPC   NC363215   3.125  21.399   5.248
 4808POPC   PO463216   2.598  21.059   5.403
 4808POPC   GL163217   2.910  21.237   5.724
 4808POPC   GL263218   3.047  21.586   5.799
 4808POPC   C1A63219   2.874  21.295   6.185
 4808POPC   D2A63220   2.837  21.459   6.606
 4808POPC   C3A63221   2.660  21.192   6.954
 4808POPC   C4A63222   2.847  21.040   7.331
 4808POPC   C1B63223   2.736  21.777   6.129
 4808POPC   C2B63224   2.405  21.679   6.435
 4808POPC   C3B63225   2.440  21.683   6.888
 4808POPC   C4B63226   2.850  21.660   7.089
 4809POPC   NC363227  22.138  33.969   5.348
 4809POPC   PO463228  22.515  33.347   5.395
 4809POPC   GL163229  22.309  33.686   5.744
 4809POPC   GL263230  21.943  33.845   5.806
 4809POPC   C1A63231  22.344  33.910   6.178
 4809POPC   D2A63232  22.403  33.732   6.602
 4809POPC   C3A63233  22.456  34.013   6.965
 4809POPC   C4A63234  22.264  33.909   7.341
 4809POPC   C1B63235  21.899  34.126   6.174
 4809POPC   C2B63236  22.066  34.143   6.596
 4809POPC   C3B63237  21.974  33.852   6.915
 4809POPC   C4B63238  21.764  33.707   7.259
 4810POPC   NC363239   9.794  44.616   5.427
 4810POPC   PO463240   9.500   0.154   5.734
 4810POPC   GL163241   9.819  44.884   5.919
 4810POPC   GL263242   9.828  44.534   5.935
 4810POPC   C1A63243   9.803  44.796   6.363
 4810POPC   D2A63244   9.714  44.440   6.625
 4810POPC   C3A63245   9.819  44.658   6.966
 4810POPC   C4A63246   9.637  44.915   7.257
 4810POPC   C1B63247  10.117  44.394   6.305
 4810POPC   C2B63248  10.152  44.139   6.723
 4810POPC   C3B63249   9.830  44.165   7.062
 4810POPC   C4B63250   9.505  44.412   7.276
 4811POPC   NC363251   2.416  24.489   5.552
 4811POPC   PO463252   3.041  24.286   5.527
 4811POPC   GL163253   2.808  24.417   5.904
 4811POPC   GL263254   2.614  24.724   5.963
 4811POPC   C1A63255   2.585  24.304   6.280
 4811POPC   D2A63256   2.669  24.045   6.640
 4811POPC   C3A63257   2.668  24.206   7.071
 4811POPC   C4A63258   2.572  24.413   7.478
 4811POPC   C1B63259   2.886  24.739   6.303
 4811POPC   C2B63260   2.778  24.555   6.694
 4811POPC   C3B63261   2.516  24.705   7.026
 4811POPC   C4B63262   2.639  24.937   7.388
 4812POPC   NC363263  17.187   7.370   5.508
 4812POPC   PO463264  17.856   7.318   5.488
 4812POPC   GL163265  17.643   7.206   5.847
 4812POPC   GL263266  17.489   7.525   5.879
 4812POPC   C1A63267  17.565   7.288   6.303
 4812POPC   D2A63268  17.684   7.526   6.604
 4812POPC   C3A63269  17.513   7.268   6.886
 4812POPC   C4A63270  17.590   7.158   7.290
 4812POPC   C1B63271  17.146   7.579   6.209
 4812POPC   C2B63272  17.232   7.760   6.618
 4812POPC   C3B63273  17.393   7.736   7.035
 4812POPC   C4B63274  17.171   7.452   7.282
 4813POPC   NC363275   9.449  28.827   5.357
 4813POPC   PO463276   9.714  28.161   5.276
 4813POPC   GL163277   9.742  28.205   5.730
 4813POPC   GL263278   9.707  28.578   5.774
 4813POPC   C1A63279   9.795  28.238   6.179
 4813POPC   D2A63280   9.756  28.464   6.568
 4813POPC   C3A63281   9.765  28.161   6.828
 4813POPC   C4A63282   9.751  28.284   7.231
 4813POPC   C1B63283   9.496  28.668   6.177
 4813POPC   C2B63284   9.322  28.704   6.631
 4813POPC   C3B63285   9.456  28.660   7.084
 4813POPC   C4B63286   9.525  28.646   7.573
 4814POPC   NC363287  43.267   3.891   5.608
 4814POPC   PO463288  43.091   3.237   5.391
 4814POPC   GL163289  42.945   3.421   5.804
 4814POPC   GL263290  42.852   3.790   5.875
 4814POPC   C1A63291  43.096   3.513   6.223
 4814POPC   D2A63292  42.877   3.694   6.550
 4814POPC   C3A63293  42.809   3.429   6.838
 4814POPC   C4A63294  43.000   3.459   7.195
 4814POPC   C1B63295  43.091   4.025   6.232
 4814POPC   C2B63296  43.107   4.149   6.648
 4814POPC   C3B63297  43.094   3.912   6.996
 4814POPC   C4B63298  43.299   3.872   7.383
 4815POPC   NC363299  18.104   3.698   5.353
 4815POPC   PO463300  18.703   3.458   5.460
 4815POPC   GL163301  18.352   3.440   5.759
 4815POPC   GL263302  18.261   3.780   5.841
 4815POPC   C1A63303  18.349   3.351   6.215
 4815POPC   D2A63304  18.617   3.327   6.612
 4815POPC   C3A63305  18.415   3.317   7.040
 4815POPC   C4A63306  18.040   3.178   7.268
 4815POPC   C1B63307  18.214   3.878   6.272
 4815POPC   C2B63308  17.966   3.777   6.667
 4815POPC   C3B63309  17.990   3.685   7.111
 4815POPC   C4B63310  18.098   3.873   7.485
 4816POPC   NC363311   3.923   9.019   5.437
 4816POPC   PO463312   4.621   8.901   5.237
 4816POPC   GL163313   4.443   8.946   5.681
 4816POPC   GL263314   4.433   9.285   5.632
 4816POPC   C1A63315   4.244   8.918   6.138
 4816POPC   D2A63316   4.088   9.043   6.610
 4816POPC   C3A63317   4.391   8.929   6.960
 4816POPC   C4A63318   4.545   8.691   7.342
 4816POPC   C1B63319   4.632   9.271   6.053
 4816POPC   C2B63320   4.587   9.237   6.517
 4816POPC   C3B63321   4.718   9.353   6.944
 4816POPC   C4B63322   4.640   9.427   7.372
 4817POPC   NC363323  33.133  13.872   5.595
 4817POPC   PO463324  32.767  13.325   5.460
 4817POPC   GL163325  32.860  13.230   5.875
 4817POPC   GL263326  32.886  13.596   5.939
 4817POPC   C1A63327  32.824  13.271   6.339
 4817POPC   D2A63328  32.889  13.651   6.601
 4817POPC   C3A63329  32.983  13.521   7.028
 4817POPC   C4A63330  32.700  13.198   7.226
 4817POPC   C1B63331  33.233  13.570   6.215
 4817POPC   C2B63332  33.303  13.336   6.597
 4817POPC   C3B63333  33.526  13.419   6.973
 4817POPC   C4B63334  33.363  13.613   7.357
 4818POPC   NC363335  43.049   0.925   5.534
 4818POPC   PO463336  43.175   0.160   5.553
 4818POPC   GL163337  43.218   0.536   5.846
 4818POPC   GL263338  42.903   0.729   5.979
 4818POPC   C1A63339  43.340   0.679   6.272
 4818POPC   D2A63340  43.187   0.609   6.710
 4818POPC   C3A63341  43.435   0.739   7.088
 4818POPC   C4A63342  43.264   0.762   7.508
 4818POPC   C1B63343  42.924   0.340   6.208
 4818POPC   C2B63344  42.898   0.134   6.582
 4818POPC   C3B63345  43.084   0.144   6.964
 4818POPC   C4B63346  42.958   0.509   7.188
 4819POPC   NC363347  21.746  40.817   5.359
 4819POPC   PO463348  21.174  41.021   5.498
 4819POPC   GL163349  21.247  40.850   5.852
 4819POPC   GL263350  21.528  40.632   5.807
 4819POPC   C1A63351  21.294  40.918   6.289
 4819POPC   D2A63352  21.457  40.804   6.698
 4819POPC   C3A63353  21.232  40.945   7.040
 4819POPC   C4A63354  21.250  40.774   7.438
 4819POPC   C1B63355  21.759  40.732   6.215
 4819POPC   C2B63356  21.913  40.967   6.585
 4819POPC   C3B63357  21.759  41.152   6.983
 4819POPC   C4B63358  21.706  40.787   7.185
 4820POPC   NC363359   1.740  32.684   5.445
 4820POPC   PO463360   1.880  32.019   5.414
 4820POPC   GL163361   1.827  32.269   5.761
 4820POPC   GL263362   2.154  32.413   5.774
 4820POPC   C1A63363   1.664  32.313   6.175
 4820POPC   D2A63364   1.526  32.446   6.579
 4820POPC   C3A63365   1.725  32.337   6.974
 4820POPC   C4A63366   1.827  32.060   7.361
 4820POPC   C1B63367   2.158  32.175   6.167
 4820POPC   C2B63368   2.101  32.321   6.601
 4820POPC   C3B63369   2.222  32.327   7.034
 4820POPC   C4B63370   2.312  31.895   7.202
 4821POPC   NC363371   0.220   2.898   5.359
 4821POPC   PO463372   0.838   3.131   5.508
 4821POPC   GL163373   0.665   2.990   5.885
 4821POPC   GL263374   0.365   2.765   5.850
 4821POPC   C1A63375   0.548   3.058   6.316
 4821POPC   D2A63376   0.537   2.753   6.676
 4821POPC   C3A63377   0.513   2.842   7.118
 4821POPC   C4A63378   0.519   2.789   7.560
 4821POPC   C1B63379   0.205   2.669   6.281
 4821POPC   C2B63380   0.032   2.722   6.719
 4821POPC   C3B63381   0.147   2.470   7.074
 4821POPC   C4B63382   0.119   2.444   7.525
 4822POPC   NC363383  39.836  42.812   5.348
 4822POPC   PO463384  40.104  43.371   5.592
 4822POPC   GL163385  40.051  42.987   5.774
 4822POPC   GL263386  40.388  42.847   5.727
 4822POPC   C1A63387  39.816  42.976   6.146
 4822POPC   D2A63388  39.793  43.283   6.460
 4822POPC   C3A63389  39.693  43.054   6.828
 4822POPC   C4A63390  39.701  43.222   7.260
 4822POPC   C1B63391  40.340  42.952   6.197
 4822POPC   C2B63392  40.145  42.931   6.608
 4822POPC   C3B63393  40.138  43.229   6.972
 4822POPC   C4B63394  40.212  43.102   7.377
 4823POPC   NC363395  41.056  13.951   5.373
 4823POPC   PO463396  40.597  14.477   5.475
 4823POPC   GL163397  40.691  14.438   5.888
 4823POPC   GL263398  40.734  14.085   5.830
 4823POPC   C1A63399  40.547  14.604   6.290
 4823POPC   D2A63400  40.466  14.759   6.702
 4823POPC   C3A63401  40.829  14.703   6.956
 4823POPC   C4A63402  40.853  14.575   7.359
 4823POPC   C1B63403  40.631  14.099   6.264
 4823POPC   C2B63404  40.785  14.255   6.683
 4823POPC   C3B63405  40.882  14.085   7.088
 4823POPC   C4B63406  40.710  14.116   7.497
 4824POPC   NC363407  37.477  32.508   5.266
 4824POPC   PO463408  37.972  32.141   5.406
 4824POPC   GL163409  37.864  32.351   5.794
 4824POPC   GL263410  37.496  32.459   5.802
 4824POPC   C1A63411  37.726  32.197   6.211
 4824POPC   D2A63412  37.898  31.999   6.562
 4824POPC   C3A63413  37.970  32.295   6.883
 4824POPC   C4A63414  37.701  32.111   7.151
 4824POPC   C1B63415  37.716  32.705   6.129
 4824POPC   C2B63416  37.793  32.643   6.532
 4824POPC   C3B63417  37.500  32.474   6.817
 4824POPC   C4B63418  37.591  32.624   7.196
 4825POPC   NC363419  24.059  13.291   5.030
 4825POPC   PO463420  23.609  13.443   5.320
 4825POPC   GL163421  23.601  13.678   5.772
 4825POPC   GL263422  23.430  13.985   5.908
 4825POPC   C1A63423  23.756  13.688   6.222
 4825POPC   D2A63424  23.695  13.471   6.638
 4825POPC   C3A63425  23.799  13.658   7.053
 4825POPC   C4A63426  23.982  14.091   7.188
 4825POPC   C1B63427  23.567  14.151   6.304
 4825POPC   C2B63428  23.682  14.013   6.708
 4825POPC   C3B63429  23.478  14.048   7.118
 4825POPC   C4B63430  23.238  13.738   7.332
 4826POPC   NC363431  18.700  32.485   5.527
 4826POPC   PO463432  18.035  32.587   5.633
 4826POPC   GL163433  18.335  32.357   5.889
 4826POPC   GL263434  18.293  31.987   5.833
 4826POPC   C1A63435  18.260  32.289   6.329
 4826POPC   D2A63436  17.906  32.198   6.620
 4826POPC   C3A63437  17.957  32.397   7.031
 4826POPC   C4A63438  18.283  32.376   7.346
 4826POPC   C1B63439  18.540  31.883   6.199
 4826POPC   C2B63440  18.635  32.059   6.607
 4826POPC   C3B63441  18.612  32.086   7.039
 4826POPC   C4B63442  18.644  31.788   7.352
 4827POPC   NC363443  18.099  11.472   5.327
 4827POPC   PO463444  18.361  10.868   5.402
 4827POPC   GL163445  18.374  11.053   5.804
 4827POPC   GL263446  18.354  11.427   5.784
 4827POPC   C1A63447  18.191  10.934   6.169
 4827POPC   D2A63448  18.279  10.814   6.549
 4827POPC   C3A63449  18.468  11.166   6.730
 4827POPC   C4A63450  18.389  11.130   7.134
 4827POPC   C1B63451  18.168  11.500   6.185
 4827POPC   C2B63452  18.326  11.728   6.545
 4827POPC   C3B63453  18.442  11.713   6.967
 4827POPC   C4B63454  18.149  11.559   7.237
 4828POPC   NC363455  21.090   7.669   5.587
 4828POPC   PO463456  21.534   7.255   5.351
 4828POPC   GL163457  21.472   7.329   5.817
 4828POPC   GL263458  21.138   7.208   5.837
 4828POPC   C1A63459  21.412   7.566   6.225
 4828POPC   D2A63460  21.214   7.688   6.600
 4828POPC   C3A63461  21.351   7.533   6.971
 4828POPC   C4A63462  21.301   7.704   7.329
 4828POPC   C1B63463  21.201   7.097   6.246
 4828POPC   C2B63464  21.130   7.185   6.686
 4828POPC   C3B63465  21.036   7.098   7.140
 4828POPC   C4B63466  21.214   7.085   7.576
 4829POPC   NC363467  16.116  14.215   5.491
 4829POPC   PO463468  16.207  14.788   5.610
 4829POPC   GL163469  15.913  14.525   5.879
 4829POPC   GL263470  15.880  14.133   5.932
 4829POPC   C1A63471  15.722  14.454   6.295
 4829POPC   D2A63472  15.741  14.276   6.734
 4829POPC   C3A63473  15.922  14.516   7.082
 4829POPC   C4A63474  15.726  14.686   7.471
 4829POPC   C1B63475  16.216  14.280   6.234
 4829POPC   C2B63476  16.250  14.345   6.698
 4829POPC   C3B63477  16.327  14.182   7.133
 4829POPC   C4B63478  16.420  14.201   7.589
 4830POPC   NC363479  36.601   0.463   5.455
 4830POPC   PO463480  37.246   0.392   5.268
 4830POPC   GL163481  37.022   0.433   5.758
 4830POPC   GL263482  36.759   0.681   5.893
 4830POPC   C1A63483  37.079   0.511   6.255
 4830POPC   D2A63484  36.895   0.685   6.638
 4830POPC   C3A63485  37.106   0.636   7.021
 4830POPC   C4A63486  37.158   0.226   7.252
 4830POPC   C1B63487  36.537   0.402   6.202
 4830POPC   C2B63488  36.414   0.412   6.657
 4830POPC   C3B63489  36.694   0.321   7.004
 4830POPC   C4B63490  36.776   0.517   7.380
 4831POPC   NC363491  41.034  18.552   5.540
 4831POPC   PO463492  40.401  18.486   5.426
 4831POPC   GL163493  40.602  18.350   5.801
 4831POPC   GL263494  40.652  18.681   5.848
 4831POPC   C1A63495  40.637  18.061   6.175
 4831POPC   D2A63496  40.375  17.933   6.559
 4831POPC   C3A63497  40.588  18.072   6.956
 4831POPC   C4A63498  40.863  18.117   7.315
 4831POPC   C1B63499  40.653  18.649   6.251
 4831POPC   C2B63500  40.770  18.776   6.647
 4831POPC   C3B63501  40.805  18.559   7.050
 4831POPC   C4B63502  40.841  18.598   7.515
 4832POPC   NC363503  29.602  32.544   5.079
 4832POPC   PO463504  30.043  32.016   5.346
 4832POPC   GL163505  29.996  31.997   5.776
 4832POPC   GL263506  29.989  32.317   5.916
 4832POPC   C1A63507  29.913  31.903   6.194
 4832POPC   D2A63508  30.122  31.843   6.562
 4832POPC   C3A63509  29.914  31.960   6.914
 4832POPC   C4A63510  30.036  32.097   7.278
 4832POPC   C1B63511  30.094  32.358   6.330
 4832POPC   C2B63512  29.934  32.395   6.671
 4832POPC   C3B63513  30.116  32.519   6.993
 4832POPC   C4B63514  29.869  32.588   7.318
 4833POPC   NC363515   9.164  41.374   5.469
 4833POPC   PO463516   9.807  41.439   5.331
 4833POPC   GL163517   9.816  41.576   5.763
 4833POPC   GL263518   9.502  41.714   5.731
 4833POPC   C1A63519   9.880  41.547   6.243
 4833POPC   D2A63520   9.885  41.591   6.721
 4833POPC   C3A63521   9.989  41.413   7.170
 4833POPC   C4A63522  10.074  41.367   7.651
 4833POPC   C1B63523   9.378  41.594   6.156
 4833POPC   C2B63524   9.422  41.349   6.529
 4833POPC   C3B63525   9.475  41.400   6.960
 4833POPC   C4B63526   9.540  41.771   7.178
 4834POPC   NC363527  40.890  16.173   5.329
 4834POPC   PO463528  40.276  15.863   5.497
 4834POPC   GL163529  40.543  15.843   5.870
 4834POPC   GL263530  40.905  15.954   5.821
 4834POPC   C1A63531  40.463  15.651   6.276
 4834POPC   D2A63532  40.660  15.685   6.690
 4834POPC   C3A63533  40.508  15.658   7.135
 4834POPC   C4A63534  40.554  15.817   7.567
 4834POPC   C1B63535  40.832  16.084   6.261
 4834POPC   C2B63536  40.858  16.157   6.713
 4834POPC   C3B63537  40.837  16.033   7.144
 4834POPC   C4B63538  40.653  16.309   7.437
 4835POPC   NC363539  30.107  42.820   5.017
 4835POPC   PO463540  29.703  43.229   5.335
 4835POPC   GL163541  29.983  43.184   5.669
 4835POPC   GL263542  29.657  43.137   5.842
 4835POPC   C1A63543  30.082  43.128   6.110
 4835POPC   D2A63544  30.006  43.253   6.527
 4835POPC   C3A63545  29.969  42.959   6.869
 4835POPC   C4A63546  29.909  42.912   7.300
 4835POPC   C1B63547  29.672  43.449   6.165
 4835POPC   C2B63548  29.552  43.637   6.526
 4835POPC   C3B63549  29.668  43.460   6.890
 4835POPC   C4B63550  29.624  43.303   7.271
 4836POPC   NC363551  24.340  30.294   5.099
 4836POPC   PO463552  24.620  30.844   5.425
 4836POPC   GL163553  24.619  30.609   5.817
 4836POPC   GL263554  24.335  30.715   5.989
 4836POPC   C1A63555  24.736  30.499   6.245
 4836POPC   D2A63556  24.512  30.575   6.637
 4836POPC   C3A63557  24.698  30.485   7.027
 4836POPC   C4A63558  24.620  30.408   7.465
 4836POPC   C1B63559  24.534  31.017   6.178
 4836POPC   C2B63560  24.460  31.088   6.567
 4836POPC   C3B63561  24.687  31.013   6.905
 4836POPC   C4B63562  24.558  30.913   7.280
 4837POPC   NC363563  15.014  25.283   5.470
 4837POPC   PO463564  15.705  25.440   5.365
 4837POPC   GL163565  15.437  25.453   5.744
 4837POPC   GL263566  15.408  25.136   5.760
 4837POPC   C1A63567  15.150  25.379   6.143
 4837POPC   D2A63568  15.048  25.580   6.562
 4837POPC   C3A63569  14.960  25.323   6.937
 4837POPC   C4A63570  14.905  25.188   7.372
 4837POPC   C1B63571  15.503  25.012   6.180
 4837POPC   C2B63572  15.464  25.254   6.565
 4837POPC   C3B63573  15.428  25.091   6.980
 4837POPC   C4B63574  15.518  25.301   7.373
 4838POPC   NC363575  14.472   3.985   5.400
 4838POPC   PO463576  14.620   4.684   5.344
 4838POPC   GL163577  14.570   4.460   5.754
 4838POPC   GL263578  14.192   4.336   5.788
 4838POPC   C1A63579  14.753   4.356   6.191
 4838POPC   D2A63580  14.763   4.022   6.532
 4838POPC   C3A63581  14.564   4.198   6.909
 4838POPC   C4A63582  14.574   4.218   7.351
 4838POPC   C1B63583  14.070   4.244   6.252
 4838POPC   C2B63584  13.977   4.207   6.732
 4838POPC   C3B63585  14.143   4.000   7.136
 4838POPC   C4B63586  14.127   3.783   7.555
 4839POPC   NC363587  19.965  28.777   5.104
 4839POPC   PO463588  20.005  28.156   5.462
 4839POPC   GL163589  19.907  28.472   5.841
 4839POPC   GL263590  20.201  28.710   5.972
 4839POPC   C1A63591  19.703  28.451   6.276
 4839POPC   D2A63592  19.497  28.432   6.716
 4839POPC   C3A63593  19.726  28.459   7.124
 4839POPC   C4A63594  19.985  28.218   7.443
 4839POPC   C1B63595  20.262  28.292   6.167
 4839POPC   C2B63596  20.083  28.276   6.584
 4839POPC   C3B63597  20.104  28.657   6.849
 4839POPC   C4B63598  20.153  28.690   7.318
 4840POPC   NC363599  24.684  16.023   5.508
 4840POPC   PO463600  24.051  15.952   5.658
 4840POPC   GL163601  24.293  16.018   5.965
 4840POPC   GL263602  24.487  15.747   5.936
 4840POPC   C1A63603  24.402  16.005   6.408
 4840POPC   D2A63604  24.421  15.661   6.719
 4840POPC   C3A63605  24.389  15.825   7.124
 4840POPC   C4A63606  24.490  16.201   7.347
 4840POPC   C1B63607  24.825  16.005   6.139
 4840POPC   C2B63608  24.961  16.041   6.568
 4840POPC   C3B63609  24.833  16.054   6.993
 4840POPC   C4B63610  24.952  15.953   7.433
 4841POPC   NC363611   8.972   5.342   5.431
 4841POPC   PO463612   8.701   4.727   5.490
 4841POPC   GL163613   8.821   5.025   5.849
 4841POPC   GL263614   8.708   5.407   5.860
 4841POPC   C1A63615   8.935   5.201   6.276
 4841POPC   D2A63616   9.024   5.110   6.712
 4841POPC   C3A63617   9.320   5.279   7.013
 4841POPC   C4A63618   9.179   5.150   7.415
 4841POPC   C1B63619   8.453   5.396   6.253
 4841POPC   C2B63620   8.563   5.388   6.703
 4841POPC   C3B63621   8.828   5.417   7.090
 4841POPC   C4B63622   8.803   5.496   7.545
 4842POPC   NC363623  35.647  20.929   5.545
 4842POPC   PO463624  35.129  20.514   5.510
 4842POPC   GL163625  35.101  20.380   5.916
 4842POPC   GL263626  35.477  20.373   5.902
 4842POPC   C1A63627  35.215  20.180   6.289
 4842POPC   D2A63628  35.408  20.380   6.618
 4842POPC   C3A63629  35.138  20.411   6.957
 4842POPC   C4A63630  35.279  20.477   7.354
 4842POPC   C1B63631  35.378  20.735   6.178
 4842POPC   C2B63632  35.600  20.896   6.533
 4842POPC   C3B63633  35.569  20.751   6.955
 4842POPC   C4B63634  35.504  21.011   7.301
 4843POPC   NC363635   3.625  36.543   5.596
 4843POPC   PO463636   3.833  37.200   5.515
 4843POPC   GL163637   3.655  36.990   5.851
 4843POPC   GL263638   3.325  36.936   5.759
 4843POPC   C1A63639   3.722  36.755   6.235
 4843POPC   D2A63640   3.843  36.680   6.663
 4843POPC   C3A63641   3.793  36.860   7.097
 4843POPC   C4A63642   3.655  37.278   7.163
 4843POPC   C1B63643   3.287  37.036   6.194
 4843POPC   C2B63644   3.349  36.885   6.586
 4843POPC   C3B63645   3.308  36.922   6.992
 4843POPC   C4B63646   3.143  36.567   7.145
 4844POPC   NC363647  25.846   4.635   5.410
 4844POPC   PO463648  26.147   4.013   5.338
 4844POPC   GL163649  26.115   4.092   5.744
 4844POPC   GL263650  26.429   3.913   5.772
 4844POPC   C1A63651  26.070   4.329   6.132
 4844POPC   D2A63652  26.196   4.277   6.574
 4844POPC   C3A63653  26.164   4.603   6.887
 4844POPC   C4A63654  25.846   4.660   7.209
 4844POPC   C1B63655  26.279   3.824   6.170
 4844POPC   C2B63656  26.465   3.797   6.564
 4844POPC   C3B63657  26.252   3.901   6.941
 4844POPC   C4B63658  26.128   4.218   7.245
 4845POPC   NC363659  43.315  11.407   5.432
 4845POPC   PO463660  42.763  11.678   5.663
 4845POPC   GL163661  42.949  11.273   5.811
 4845POPC   GL263662  43.252  11.197   5.961
 4845POPC   C1A63663  42.837  11.239   6.246
 4845POPC   D2A63664  42.948  11.172   6.698
 4845POPC   C3A63665  42.740  11.400   7.007
 4845POPC   C4A63666  42.723  11.418   7.434
 4845POPC   C1B63667  43.223  10.915   6.332
 4845POPC   C2B63668  43.403  10.749   6.715
 4845POPC   C3B63669  43.260  10.917   7.068
 4845POPC   C4B63670  43.175  11.273   7.242
 4846POPC   NC363671  40.564   1.200   5.412
 4846POPC   PO463672  41.103   0.978   5.581
 4846POPC   GL163673  40.879   1.263   5.839
 4846POPC   GL263674  40.612   1.086   5.950
 4846POPC   C1A63675  40.981   1.308   6.257
 4846POPC   D2A63676  41.088   1.020   6.620
 4846POPC   C3A63677  40.809   1.058   6.964
 4846POPC   C4A63678  40.873   1.367   7.258
 4846POPC   C1B63679  40.560   1.094   6.425
 4846POPC   C2B63680  40.492   1.378   6.750
 4846POPC   C3B63681  40.361   1.387   7.170
 4846POPC   C4B63682  40.486   1.002   7.389
 4847POPC   NC363683  26.498  29.958   5.347
 4847POPC   PO463684  27.094  29.760   5.145
 4847POPC   GL163685  26.952  29.754   5.623
 4847POPC   GL263686  26.602  29.679   5.769
 4847POPC   C1A63687  27.060  29.757   6.103
 4847POPC   D2A63688  27.224  29.722   6.555
 4847POPC   C3A63689  26.939  29.932   6.868
 4847POPC   C4A63690  26.625  30.141   7.214
 4847POPC   C1B63691  26.621  30.060   6.052
 4847POPC   C2B63692  26.563  30.125   6.511
 4847POPC   C3B63693  26.441  29.850   6.858
 4847POPC   C4B63694  26.704  29.643   7.252
 4848POPC   NC363695  29.536   6.467   5.490
 4848POPC   PO463696  29.972   6.974   5.377
 4848POPC   GL163697  30.059   6.631   5.688
 4848POPC   GL263698  30.096   6.893   5.917
 4848POPC   C1A63699  30.109   6.319   6.075
 4848POPC   D2A63700  29.880   6.213   6.492
 4848POPC   C3A63701  30.093   6.189   6.920
 4848POPC   C4A63702  30.011   6.267   7.386
 4848POPC   C1B63703  30.065   6.756   6.331
 4848POPC   C2B63704  30.184   6.650   6.708
 4848POPC   C3B63705  30.054   6.700   7.096
 4848POPC   C4B63706  30.317   6.725   7.407
 4849POPC   NC363707  41.164  38.682   5.510
 4849POPC   PO463708  41.494  38.254   5.712
 4849POPC   GL163709  41.374  38.638   5.969
 4849POPC   GL263710  41.019  38.749   5.987
 4849POPC   C1A63711  41.364  38.697   6.413
 4849POPC   D2A63712  41.591  38.857   6.768
 4849POPC   C3A63713  41.371  38.657   7.088
 4849POPC   C4A63714  41.548  38.302   7.299
 4849POPC   C1B63715  41.014  38.360   6.202
 4849POPC   C2B63716  41.146  38.270   6.643
 4849POPC   C3B63717  41.066  38.249   7.079
 4849POPC   C4B63718  41.067  37.885   7.339
 4850POPC   NC363719  26.188  27.126   5.581
 4850POPC   PO463720  26.402  26.548   5.345
 4850POPC   GL163721  26.292  26.645   5.771
 4850POPC   GL263722  25.983  26.486   5.787
 4850POPC   C1A63723  26.212  26.809   6.200
 4850POPC   D2A63724  25.990  27.045   6.542
 4850POPC   C3A63725  26.207  26.924   6.908
 4850POPC   C4A63726  26.180  26.545   7.144
 4850POPC   C1B63727  25.798  26.516   6.198
 4850POPC   C2B63728  25.885  26.573   6.656
 4850POPC   C3B63729  25.732  26.801   7.037
 4850POPC   C4B63730  25.658  26.640   7.461
 4851POPC   NC363731  21.356  28.158   5.450
 4851POPC   PO463732  21.486  28.860   5.335
 4851POPC   GL163733  21.294  28.669   5.734
 4851POPC   GL263734  21.110  28.357   5.832
 4851POPC   C1A63735  21.377  28.574   6.187
 4851POPC   D2A63736  21.066  28.491   6.515
 4851POPC   C3A63737  21.248  28.402   6.916
 4851POPC   C4A63738  21.060  28.281   7.293
 4851POPC   C1B63739  21.306  28.078   6.131
 4851POPC   C2B63740  21.548  27.879   6.451
 4851POPC   C3B63741  21.600  27.997   6.866
 4851POPC   C4B63742  21.435  27.955   7.269
 4852POPC   NC363743  24.112  34.144   5.593
 4852POPC   PO463744  24.300  33.494   5.495
 4852POPC   GL163745  24.579  33.486   5.846
 4852POPC   GL263746  24.471  33.816   5.898
 4852POPC   C1A63747  24.705  33.591   6.299
 4852POPC   D2A63748  24.574  33.896   6.631
 4852POPC   C3A63749  24.629  33.773   7.075
 4852POPC   C4A63750  24.477  33.971   7.471
 4852POPC   C1B63751  24.211  33.582   6.175
 4852POPC   C2B63752  24.220  33.380   6.542
 4852POPC   C3B63753  24.186  33.630   6.882
 4852POPC   C4B63754  24.126  33.652   7.285
 4853POPC   NC363755  32.223  30.343   5.476
 4853POPC   PO463756  32.347  29.709   5.375
 4853POPC   GL163757  32.211  29.861   5.755
 4853POPC   GL263758  32.509  29.735   5.911
 4853POPC   C1A63759  32.046  30.018   6.165
 4853POPC   D2A63760  31.836  30.259   6.494
 4853POPC   C3A63761  31.861  30.088   6.919
 4853POPC   C4A63762  32.164  30.186   7.245
 4853POPC   C1B63763  32.429  29.748   6.371
 4853POPC   C2B63764  32.398  30.024   6.771
 4853POPC   C3B63765  32.571  29.879   7.178
 4853POPC   C4B63766  32.646  29.507   7.481
 4854POPC   NC363767  27.732  20.502   5.132
 4854POPC   PO463768  27.415  21.093   5.190
 4854POPC   GL163769  27.580  20.825   5.567
 4854POPC   GL263770  27.470  20.474   5.692
 4854POPC   C1A63771  27.739  20.787   6.007
 4854POPC   D2A63772  27.698  20.703   6.480
 4854POPC   C3A63773  27.553  20.830   6.941
 4854POPC   C4A63774  27.808  20.762   7.337
 4854POPC   C1B63775  27.321  20.562   6.149
 4854POPC   C2B63776  27.217  20.586   6.573
 4854POPC   C3B63777  27.406  20.359   6.894
 4854POPC   C4B63778  27.425  20.442   7.273
 4855POPC   NC363779  37.769  16.260   5.231
 4855POPC   PO463780  37.600  15.668   5.601
 4855POPC   GL163781  37.894  15.914   5.818
 4855POPC   GL263782  37.868  16.262   5.741
 4855POPC   C1A63783  37.945  15.987   6.226
 4855POPC   D2A63784  37.656  15.922   6.562
 4855POPC   C3A63785  37.845  15.733   6.896
 4855POPC   C4A63786  37.724  15.944   7.224
 4855POPC   C1B63787  37.633  16.416   6.110
 4855POPC   C2B63788  37.292  16.259   6.371
 4855POPC   C3B63789  37.326  16.280   6.806
 4855POPC   C4B63790  37.670  16.429   7.037
 4856POPC   NC363791  17.654  37.345   5.011
 4856POPC   PO463792  18.217  37.394   5.356
 4856POPC   GL163793  18.351  37.471   5.826
 4856POPC   GL263794  18.137  37.716   6.014
 4856POPC   C1A63795  18.400  37.375   6.302
 4856POPC   D2A63796  18.075  37.465   6.632
 4856POPC   C3A63797  18.195  37.646   7.046
 4856POPC   C4A63798  18.006  37.865   7.414
 4856POPC   C1B63799  18.291  37.855   6.443
 4856POPC   C2B63800  18.356  38.078   6.799
 4856POPC   C3B63801  18.420  38.104   7.227
 4856POPC   C4B63802  18.819  38.089   7.404
 4857POPC   NC363803  40.150  38.033   5.448
 4857POPC   PO463804  39.925  37.381   5.488
 4857POPC   GL163805  40.008  37.618   5.858
 4857POPC   GL263806  39.856  37.960   5.871
 4857POPC   C1A63807  39.857  37.543   6.285
 4857POPC   D2A63808  39.623  37.471   6.672
 4857POPC   C3A63809  39.895  37.588   7.002
 4857POPC   C4A63810  40.358  37.608   7.068
 4857POPC   C1B63811  40.128  37.997   6.238
 4857POPC   C2B63812  40.146  38.152   6.688
 4857POPC   C3B63813  40.096  38.047   7.114
 4857POPC   C4B63814  39.864  37.880   7.421
 4858POPC   NC363815   4.755  43.916   5.126
 4858POPC   PO463816   4.321  43.524   5.450
 4858POPC   GL163817   4.274  43.778   5.825
 4858POPC   GL263818   4.091  43.544   5.947
 4858POPC   C1A63819   4.336  43.826   6.287
 4858POPC   D2A63820   4.376  44.026   6.652
 4858POPC   C3A63821   4.595  43.863   6.963
 4858POPC   C4A63822   4.347  43.959   7.313
 4858POPC   C1B63823   3.863  43.641   6.276
 4858POPC   C2B63824   3.971  43.623   6.704
 4858POPC   C3B63825   4.069  43.564   7.133
 4858POPC   C4B63826   3.889  43.341   7.451
 4859POPC   NC363827  13.030  28.790   5.469
 4859POPC   PO463828  12.536  29.250   5.470
 4859POPC   GL163829  12.837  29.148   5.806
 4859POPC   GL263830  12.643  28.843   5.830
 4859POPC   C1A63831  12.995  28.981   6.230
 4859POPC   D2A63832  13.181  29.130   6.631
 4859POPC   C3A63833  13.013  29.180   7.038
 4859POPC   C4A63834  13.260  29.455   7.296
 4859POPC   C1B63835  12.508  29.092   6.204
 4859POPC   C2B63836  12.665  29.137   6.634
 4859POPC   C3B63837  12.455  29.109   7.028
 4859POPC   C4B63838  12.508  29.018   7.437
 4860POPC   NC363839  11.653   7.971   5.511
 4860POPC   PO463840  11.003   8.161   5.274
 4860POPC   GL163841  11.184   8.029   5.731
 4860POPC   GL263842  11.389   8.303   5.909
 4860POPC   C1A63843  11.290   7.919   6.218
 4860POPC   D2A63844  11.400   8.243   6.557
 4860POPC   C3A63845  11.415   8.149   7.016
 4860POPC   C4A63846  11.370   7.957   7.432
 4860POPC   C1B63847  11.703   8.484   6.211
 4860POPC   C2B63848  11.906   8.613   6.614
 4860POPC   C3B63849  11.851   8.523   7.079
 4860POPC   C4B63850  11.741   8.290   7.517
 4861POPC   NC363851  34.164  34.424   5.483
 4861POPC   PO463852  33.491  34.618   5.419
 4861POPC   GL163853  33.768  34.504   5.788
 4861POPC   GL263854  33.902  34.798   5.930
 4861POPC   C1A63855  33.991  34.354   6.181
 4861POPC   D2A63856  34.015  34.196   6.619
 4861POPC   C3A63857  33.875  34.458   6.976
 4861POPC   C4A63858  33.827  34.644   7.365
 4861POPC   C1B63859  33.751  34.911   6.361
 4861POPC   C2B63860  33.630  34.881   6.800
 4861POPC   C3B63861  33.437  34.889   7.186
 4861POPC   C4B63862  33.405  34.753   7.628
 4862POPC   NC363863  35.156  28.136   5.217
 4862POPC   PO463864  35.646  28.570   5.326
 4862POPC   GL163865  35.353  28.516   5.673
 4862POPC   GL263866  35.238  28.148   5.731
 4862POPC   C1A63867  35.094  28.544   6.031
 4862POPC   D2A63868  35.083  28.419   6.441
 4862POPC   C3A63869  35.146  28.672   6.803
 4862POPC   C4A63870  35.143  28.555   7.231
 4862POPC   C1B63871  35.343  28.037   6.165
 4862POPC   C2B63872  35.450  28.127   6.604
 4862POPC   C3B63873  35.341  28.110   7.055
 4862POPC   C4B63874  35.507  28.000   7.477
 4863POPC   NC363875  25.411   3.188   5.487
 4863POPC   PO463876  25.000   2.748   5.308
 4863POPC   GL163877  25.202   2.786   5.749
 4863POPC   GL263878  25.555   2.629   5.755
 4863POPC   C1A63879  25.015   2.936   6.162
 4863POPC   D2A63880  24.944   3.029   6.612
 4863POPC   C3A63881  25.249   3.112   6.914
 4863POPC   C4A63882  25.110   3.000   7.341
 4863POPC   C1B63883  25.516   2.804   6.175
 4863POPC   C2B63884  25.300   2.666   6.534
 4863POPC   C3B63885  25.264   2.567   6.944
 4863POPC   C4B63886  25.535   2.764   7.211
 4864POPC   NC363887  10.072   6.000   5.355
 4864POPC   PO463888  10.717   5.771   5.176
 4864POPC   GL163889  10.468   5.745   5.626
 4864POPC   GL263890  10.713   5.810   5.859
 4864POPC   C1A63891  10.308   5.565   6.097
 4864POPC   D2A63892  10.331   5.450   6.563
 4864POPC   C3A63893  10.222   5.691   6.950
 4864POPC   C4A63894  10.123   5.583   7.370
 4864POPC   C1B63895  10.768   5.650   6.268
 4864POPC   C2B63896  10.740   5.777   6.662
 4864POPC   C3B63897  10.904   5.815   7.058
 4864POPC   C4B63898  10.587   5.801   7.336
 4865POPC   NC363899  13.035  37.091   5.319
 4865POPC   PO463900  12.345  37.085   5.271
 4865POPC   GL163901  12.627  36.943   5.585
 4865POPC   GL263902  12.571  37.237   5.726
 4865POPC   C1A63903  12.771  36.928   6.050
 4865POPC   D2A63904  12.698  36.697   6.444
 4865POPC   C3A63905  12.869  36.907   6.821
 4865POPC   C4A63906  13.145  36.839   7.175
 4865POPC   C1B63907  12.472  37.327   6.144
 4865POPC   C2B63908  12.639  37.274   6.548
 4865POPC   C3B63909  12.537  37.298   6.991
 4865POPC   C4B63910  12.739  37.114   7.287
 4866POPC   NC363911  36.037  19.411   5.231
 4866POPC   PO463912  36.117  18.862   5.667
 4866POPC   GL163913  36.355  19.024   5.951
 4866POPC   GL263914  36.104  19.197   6.093
 4866POPC   C1A63915  36.373  18.884   6.386
 4866POPC   D2A63916  36.529  18.951   6.784
 4866POPC   C3A63917  36.300  18.824   7.128
 4866POPC   C4A63918  36.086  18.858   7.494
 4866POPC   C1B63919  35.846  18.957   6.325
 4866POPC   C2B63920  35.952  18.897   6.741
 4866POPC   C3B63921  35.798  19.061   7.132
 4866POPC   C4B63922  35.940  19.391   7.383
 4867POPC   NC363923  30.297   0.121   5.122
 4867POPC   PO463924  30.874   0.001   5.460
 4867POPC   GL163925  30.817  44.691   5.776
 4867POPC   GL263926  30.461  44.720   5.808
 4867POPC   C1A63927  30.869  44.615   6.233
 4867POPC   D2A63928  31.145  44.466   6.595
 4867POPC   C3A63929  30.927  44.299   6.997
 4867POPC   C4A63930  30.540  44.331   7.253
 4867POPC   C1B63931  30.359  44.663   6.252
 4867POPC   C2B63932  30.514  44.777   6.666
 4867POPC   C3B63933  30.712  44.785   7.083
 4867POPC   C4B63934  30.625  44.867   7.548
 4868POPC   NC363935  25.737  31.991   5.456
 4868POPC   PO463936  26.282  32.417   5.390
 4868POPC   GL163937  26.135  32.234   5.782
 4868POPC   GL263938  26.367  31.981   5.855
 4868POPC   C1A63939  25.903  32.382   6.167
 4868POPC   D2A63940  25.596  32.491   6.520
 4868POPC   C3A63941  25.746  32.392   6.957
 4868POPC   C4A63942  25.618  32.111   7.318
 4868POPC   C1B63943  26.399  32.211   6.266
 4868POPC   C2B63944  26.120  32.235   6.623
 4868POPC   C3B63945  25.931  31.937   6.919
 4868POPC   C4B63946  26.093  32.111   7.301
 4869POPC   NC363947   1.147   8.672   5.478
 4869POPC   PO463948   0.868   9.261   5.469
 4869POPC   GL163949   1.153   9.076   5.814
 4869POPC   GL263950   1.439   9.299   5.899
 4869POPC   C1A63951   1.233   8.848   6.249
 4869POPC   D2A63952   1.074   8.667   6.673
 4869POPC   C3A63953   1.281   8.802   7.108
 4869POPC   C4A63954   1.140   9.153   7.362
 4869POPC   C1B63955   1.540   9.230   6.332
 4869POPC   C2B63956   1.360   9.134   6.731
 4869POPC   C3B63957   1.558   9.296   7.120
 4869POPC   C4B63958   1.636   9.163   7.575
 4870POPC   NC363959  33.412  35.508   5.175
 4870POPC   PO463960  32.780  35.301   5.249
 4870POPC   GL163961  32.788  35.236   5.701
 4870POPC   GL263962  32.588  35.531   5.785
 4870POPC   C1A63963  33.010  35.339   6.103
 4870POPC   D2A63964  33.061  35.477   6.538
 4870POPC   C3A63965  33.121  35.203   6.881
 4870POPC   C4A63966  33.021  35.145   7.297
 4870POPC   C1B63967  32.647  35.693   6.208
 4870POPC   C2B63968  32.555  35.539   6.600
 4870POPC   C3B63969  32.705  35.655   6.990
 4870POPC   C4B63970  33.112  35.647   7.168
 4871POPC   NC363971  31.493   1.769   5.395
 4871POPC   PO463972  31.542   2.379   5.618
 4871POPC   GL163973  31.380   2.044   5.828
 4871POPC   GL263974  31.727   1.840   5.837
 4871POPC   C1A63975  31.174   2.015   6.238
 4871POPC   D2A63976  31.134   2.241   6.646
 4871POPC   C3A63977  31.199   1.999   7.034
 4871POPC   C4A63978  31.158   2.147   7.473
 4871POPC   C1B63979  31.690   2.053   6.226
 4871POPC   C2B63980  31.537   1.892   6.620
 4871POPC   C3B63981  31.664   1.729   7.012
 4871POPC   C4B63982  31.641   2.008   7.328
 4872POPC   NC363983  28.023  27.745   5.275
 4872POPC   PO463984  28.352  27.179   5.376
 4872POPC   GL163985  28.223  27.399   5.759
 4872POPC   GL263986  28.308  27.738   5.711
 4872POPC   C1A63987  28.269  27.377   6.230
 4872POPC   D2A63988  28.042  27.305   6.665
 4872POPC   C3A63989  28.277  27.364   7.075
 4872POPC   C4A63990  28.566  27.717   7.190
 4872POPC   C1B63991  28.086  27.849   6.081
 4872POPC   C2B63992  28.160  27.796   6.509
 4872POPC   C3B63993  28.036  27.796   6.935
 4872POPC   C4B63994  28.178  28.051   7.270
 4873POPC   NC363995  13.460  19.228   5.003
 4873POPC   PO463996  13.367  18.624   5.368
 4873POPC   GL163997  13.426  18.981   5.674
 4873POPC   GL263998  13.795  19.079   5.696
 4873POPC   C1A63999  13.497  19.082   6.133
 4873POPC   D2A64000  13.682  18.881   6.504
 4873POPC   C3A64001  13.404  18.757   6.822
 4873POPC   C4A64002  13.380  18.955   7.199
 4873POPC   C1B64003  14.006  19.101   6.109
 4873POPC   C2B64004  13.919  19.338   6.492
 4873POPC   C3B64005  13.770  19.206   6.915
 4873POPC   C4B64006  13.814  19.467   7.259
 4874POPC   NC364007  19.078   8.599   5.389
 4874POPC   PO464008  19.159   7.980   5.448
 4874POPC   GL164009  19.005   8.252   5.783
 4874POPC   GL264010  19.279   8.468   5.896
 4874POPC   C1A64011  18.906   8.378   6.230
 4874POPC   D2A64012  19.121   8.422   6.619
 4874POPC   C3A64013  18.942   8.220   6.999
 4874POPC   C4A64014  18.715   8.387   7.319
 4874POPC   C1B64015  19.424   8.169   6.229
 4874POPC   C2B64016  19.648   8.270   6.612
 4874POPC   C3B64017  19.449   8.320   7.010
 4874POPC   C4B64018  19.315   7.998   7.312
 4875POPC   NC364019  33.128  13.022   5.357
 4875POPC   PO464020  33.016  12.396   5.516
 4875POPC   GL164021  33.040  12.729   5.792
 4875POPC   GL264022  33.390  12.831   5.757
 4875POPC   C1A64023  32.789  12.751   6.177
 4875POPC   D2A64024  32.776  12.494   6.583
 4875POPC   C3A64025  32.665  12.732   6.952
 4875POPC   C4A64026  32.859  12.729   7.328
 4875POPC   C1B64027  33.269  13.052   6.135
 4875POPC   C2B64028  33.174  12.834   6.511
 4875POPC   C3B64029  33.208  12.747   6.933
 4875POPC   C4B64030  33.218  13.086   7.208
 4876POPC   NC364031   9.586   7.990   5.646
 4876POPC   PO464032   9.930   8.542   5.372
 4876POPC   GL164033   9.712   8.489   5.777
 4876POPC   GL264034   9.939   8.278   5.880
 4876POPC   C1A64035   9.491   8.372   6.176
 4876POPC   D2A64036   9.437   8.223   6.602
 4876POPC   C3A64037   9.670   8.404   6.956
 4876POPC   C4A64038   9.438   8.196   7.246
 4876POPC   C1B64039  10.106   8.106   6.245
 4876POPC   C2B64040   9.948   8.123   6.612
 4876POPC   C3B64041  10.044   7.946   6.960
 4876POPC   C4B64042  10.268   8.114   7.280
 4877POPC   NC364043   6.353  32.312   5.570
 4877POPC   PO464044   5.718  32.499   5.381
 4877POPC   GL164045   5.765  32.491   5.843
 4877POPC   GL264046   5.835  32.180   5.868
 4877POPC   C1A64047   5.715  32.392   6.313
 4877POPC   D2A64048   5.988  32.219   6.675
 4877POPC   C3A64049   5.912  32.321   7.143
 4877POPC   C4A64050   5.981  31.955   7.392
 4877POPC   C1B64051   5.591  31.916   6.161
 4877POPC   C2B64052   5.519  32.030   6.596
 4877POPC   C3B64053   5.604  31.952   7.020
 4877POPC   C4B64054   5.461  31.771   7.396
 4878POPC   NC364055  43.136  23.353   5.330
 4878POPC   PO464056  43.551  22.794   5.338
 4878POPC   GL164057  43.306  23.020   5.678
 4878POPC   GL264058  43.000  23.012   5.728
 4878POPC   C1A64059  43.241  23.155   6.155
 4878POPC   D2A64060  43.035  23.080   6.577
 4878POPC   C3A64061  43.316  23.008   6.972
 4878POPC   C4A64062  43.591  23.019   7.346
 4878POPC   C1B64063  43.091  22.662   5.995
 4878POPC   C2B64064  42.964  22.542   6.409
 4878POPC   C3B64065  42.949  22.654   6.857
 4878POPC   C4B64066  42.722  22.553   7.229
 4879POPC   NC364067  39.808   2.952   5.348
 4879POPC   PO464068  40.112   2.360   5.523
 4879POPC   GL164069  39.888   2.690   5.818
 4879POPC   GL264070  39.982   3.065   5.806
 4879POPC   C1A64071  39.685   2.647   6.272
 4879POPC   D2A64072  39.753   2.404   6.689
 4879POPC   C3A64073  40.120   2.498   6.999
 4879POPC   C4A64074  40.196   2.718   7.414
 4879POPC   C1B64075  40.043   3.000   6.205
 4879POPC   C2B64076  40.099   2.804   6.585
 4879POPC   C3B64077  40.005   3.002   6.960
 4879POPC   C4B64078  40.162   3.232   7.296
 4880POPC   NC364079  19.030  12.797   5.227
 4880POPC   PO464080  19.324  12.251   5.393
 4880POPC   GL164081  19.011  12.505   5.694
 4880POPC   GL264082  19.132  12.811   5.790
 4880POPC   C1A64083  18.812  12.588   6.136
 4880POPC   D2A64084  18.913  12.850   6.530
 4880POPC   C3A64085  18.849  12.796   6.988
 4880POPC   C4A64086  18.895  12.941   7.449
 4880POPC   C1B64087  19.311  12.722   6.226
 4880POPC   C2B64088  19.392  12.696   6.700
 4880POPC   C3B64089  19.347  12.837   7.143
 4880POPC   C4B64090  19.435  13.011   7.576
 4881POPC   NC364091   7.566   8.427   5.410
 4881POPC   PO464092   7.292   7.925   5.517
 4881POPC   GL164093   7.467   8.190   5.859
 4881POPC   GL264094   7.200   8.450   5.916
 4881POPC   C1A64095   7.468   8.265   6.305
 4881POPC   D2A64096   7.109   8.277   6.468
 4881POPC   C3A64097   7.194   8.383   6.860
 4881POPC   C4A64098   7.431   8.242   7.221
 4881POPC   C1B64099   7.590   8.672   6.051
 4881POPC   C2B64100   7.646   8.769   6.488
 4881POPC   C3B64101   7.699   8.524   6.875
 4881POPC   C4B64102   7.757   8.629   7.309
 4882POPC   NC364103   6.347   3.086   5.363
 4882POPC   PO464104   6.873   2.747   5.477
 4882POPC   GL164105   6.652   2.826   5.856
 4882POPC   GL264106   6.335   2.727   5.743
 4882POPC   C1A64107   6.733   2.679   6.299
 4882POPC   D2A64108   6.943   2.553   6.697
 4882POPC   C3A64109   6.860   2.842   7.057
 4882POPC   C4A64110   6.611   2.800   7.426
 4882POPC   C1B64111   6.251   2.569   6.155
 4882POPC   C2B64112   6.204   2.500   6.593
 4882POPC   C3B64113   6.310   2.650   7.009
 4882POPC   C4B64114   6.134   2.621   7.402
 4883POPC   NC364115  14.518  32.003   5.416
 4883POPC   PO464116  14.037  32.356   5.324
 4883POPC   GL164117  14.267  32.298   5.748
 4883POPC   GL264118  14.375  31.966   5.908
 4883POPC   C1A64119  14.485  32.437   6.108
 4883POPC   D2A64120  14.405  32.639   6.495
 4883POPC   C3A64121  14.457  32.338   6.852
 4883POPC   C4A64122  14.156  32.213   7.163
 4883POPC   C1B64123  14.397  31.842   6.349
 4883POPC   C2B64124  14.665  31.892   6.718
 4883POPC   C3B64125  14.507  31.836   7.125
 4883POPC   C4B64126  14.527  32.048   7.496
 4884POPC   NC364127  30.874  15.886   5.470
 4884POPC   PO464128  30.371  16.325   5.405
 4884POPC   GL164129  30.539  16.092   5.815
 4884POPC   GL264130  30.943  16.130   5.913
 4884POPC   C1A64131  30.629  15.938   6.250
 4884POPC   D2A64132  30.842  15.768   6.635
 4884POPC   C3A64133  30.739  15.963   7.029
 4884POPC   C4A64134  30.698  16.099   7.455
 4884POPC   C1B64135  31.101  16.208   6.341
 4884POPC   C2B64136  31.079  16.254   6.789
 4884POPC   C3B64137  31.097  16.308   7.234
 4884POPC   C4B64138  30.988  16.484   7.674
 4885POPC   NC364139  36.426   6.774   5.305
 4885POPC   PO464140  35.924   7.038   5.151
 4885POPC   GL164141  35.906   6.793   5.640
 4885POPC   GL264142  36.247   6.681   5.776
 4885POPC   C1A64143  35.918   6.728   6.159
 4885POPC   D2A64144  36.141   6.594   6.588
 4885POPC   C3A64145  35.901   6.667   6.978
 4885POPC   C4A64146  35.906   6.474   7.377
 4885POPC   C1B64147  36.441   6.790   6.180
 4885POPC   C2B64148  36.480   7.046   6.558
 4885POPC   C3B64149  36.326   6.950   6.928
 4885POPC   C4B64150  36.401   6.534   7.098
 4886POPC   NC364151  40.446   0.129   5.527
 4886POPC   PO464152  41.127   0.162   5.580
 4886POPC   GL164153  40.912   0.527   5.821
 4886POPC   GL264154  40.541   0.553   5.860
 4886POPC   C1A64155  40.927   0.759   6.205
 4886POPC   D2A64156  40.731   0.660   6.605
 4886POPC   C3A64157  40.873   0.548   6.965
 4886POPC   C4A64158  40.856   0.645   7.397
 4886POPC   C1B64159  40.632   0.299   6.258
 4886POPC   C2B64160  40.524   0.186   6.727
 4886POPC   C3B64161  40.322  44.948   7.103
 4886POPC   C4B64162  40.421   0.000   7.575
 4887POPC   NC364163  21.429  32.519   5.394
 4887POPC   PO464164  21.623  31.896   5.344
 4887POPC   GL164165  21.748  32.204   5.655
 4887POPC   GL264166  21.902  31.977   5.830
 4887POPC   C1A64167  21.593  32.452   6.036
 4887POPC   D2A64168  21.422  32.401   6.471
 4887POPC   C3A64169  21.645  32.404   6.888
 4887POPC   C4A64170  21.362  32.439   7.260
 4887POPC   C1B64171  21.705  31.993   6.248
 4887POPC   C2B64172  21.577  31.923   6.693
 4887POPC   C3B64173  21.558  31.985   7.179
 4887POPC   C4B64174  21.241  32.005   7.528
 4888POPC   NC364175  25.891  44.504   5.187
 4888POPC   PO464176  26.305  44.851   5.586
 4888POPC   GL164177  26.092  44.668   5.917
 4888POPC   GL264178  25.815  44.932   5.895
 4888POPC   C1A64179  26.273  44.589   6.336
 4888POPC   D2A64180  26.372  44.830   6.708
 4888POPC   C3A64181  26.339  44.560   7.038
 4888POPC   C4A64182  25.955  44.423   7.048
 4888POPC   C1B64183  26.021   0.075   6.300
 4888POPC   C2B64184  25.956   0.157   6.758
 4888POPC   C3B64185  25.965  44.931   7.103
 4888POPC   C4B64186  26.098   0.006   7.496
 4889POPC   NC364187  35.945  32.623   5.365
 4889POPC   PO464188  36.155  31.983   5.304
 4889POPC   GL164189  36.116  32.260   5.700
 4889POPC   GL264190  36.434  32.353   5.879
 4889POPC   C1A64191  35.981  32.360   6.121
 4889POPC   D2A64192  35.745  32.224   6.451
 4889POPC   C3A64193  35.738  32.370   6.881
 4889POPC   C4A64194  35.758  32.122   7.230
 4889POPC   C1B64195  36.453  32.381   6.342
 4889POPC   C2B64196  36.264  32.294   6.758
 4889POPC   C3B64197  36.245  32.345   7.231
 4889POPC   C4B64198  36.432  32.424   7.660
 4890POPC   NC364199  11.832  21.017   5.452
 4890POPC   PO464200  12.294  20.440   5.388
 4890POPC   GL164201  12.156  20.697   5.747
 4890POPC   GL264202  12.450  20.850   5.831
 4890POPC   C1A64203  11.947  20.728   6.184
 4890POPC   D2A64204  11.810  20.859   6.637
 4890POPC   C3A64205  11.821  20.611   7.028
 4890POPC   C4A64206  12.040  20.358   7.344
 4890POPC   C1B64207  12.423  20.949   6.271
 4890POPC   C2B64208  12.288  20.653   6.594
 4890POPC   C3B64209  12.322  20.609   7.013
 4890POPC   C4B64210  12.476  20.871   7.327
 4891POPC   NC364211  24.282  26.497   5.479
 4891POPC   PO464212  24.205  25.872   5.520
 4891POPC   GL164213  24.408  26.115   5.859
 4891POPC   GL264214  24.182  26.371   5.978
 4891POPC   C1A64215  24.532  26.146   6.303
 4891POPC   D2A64216  24.662  26.015   6.683
 4891POPC   C3A64217  24.522  26.134   7.086
 4891POPC   C4A64218  24.707  25.808   7.262
 4891POPC   C1B64219  24.046  26.054   6.305
 4891POPC   C2B64220  24.147  26.045   6.763
 4891POPC   C3B64221  24.029  26.069   7.231
 4891POPC   C4B64222  23.940  25.974   7.687
 4892POPC   NC364223  10.095  19.754   5.446
 4892POPC   PO464224  10.794  19.990   5.356
 4892POPC   GL164225  10.595  19.838   5.700
 4892POPC   GL264226  10.808  19.569   5.855
 4892POPC   C1A64227  10.605  19.998   6.118
 4892POPC   D2A64228  10.671  20.160   6.519
 4892POPC   C3A64229  10.568  19.901   6.850
 4892POPC   C4A64230  10.495  20.026   7.252
 4892POPC   C1B64231  10.892  19.627   6.326
 4892POPC   C2B64232  10.733  19.413   6.708
 4892POPC   C3B64233  10.599  19.444   7.142
 4892POPC   C4B64234  10.174  19.599   7.213
 4893POPC   NC364235  13.723   8.046   5.140
 4893POPC   PO464236  13.282   8.377   5.427
 4893POPC   GL164237  13.415   8.272   5.813
 4893POPC   GL264238  13.733   8.138   5.735
 4893POPC   C1A64239  13.513   8.373   6.238
 4893POPC   D2A64240  13.373   8.186   6.608
 4893POPC   C3A64241  13.431   8.419   6.957
 4893POPC   C4A64242  13.668   8.411   7.316
 4893POPC   C1B64243  13.724   7.921   6.136
 4893POPC   C2B64244  13.766   7.851   6.565
 4893POPC   C3B64245  13.785   7.984   6.993
 4893POPC   C4B64246  13.951   7.715   7.357
 4894POPC   NC364247  22.524   8.599   5.583
 4894POPC   PO464248  22.214   9.101   5.425
 4894POPC   GL164249  21.988   8.825   5.763
 4894POPC   GL264250  22.206   8.625   5.987
 4894POPC   C1A64251  21.833   8.931   6.189
 4894POPC   D2A64252  21.955   9.082   6.591
 4894POPC   C3A64253  22.092   8.795   6.868
 4894POPC   C4A64254  22.163   8.955   7.251
 4894POPC   C1B64255  22.347   8.992   6.272
 4894POPC   C2B64256  22.461   9.158   6.725
 4894POPC   C3B64257  22.624   9.193   7.191
 4894POPC   C4B64258  22.837   9.323   7.602
 4895POPC   NC364259  31.998   5.103   5.380
 4895POPC   PO464260  32.561   4.727   5.300
 4895POPC   GL164261  32.506   5.024   5.684
 4895POPC   GL264262  32.209   5.206   5.818
 4895POPC   C1A64263  32.549   5.135   6.164
 4895POPC   D2A64264  32.306   5.122   6.522
 4895POPC   C3A64265  32.514   5.088   6.887
 4895POPC   C4A64266  32.304   5.180   7.254
 4895POPC   C1B64267  32.030   4.913   6.123
 4895POPC   C2B64268  32.079   4.671   6.524
 4895POPC   C3B64269  32.073   4.829   6.949
 4895POPC   C4B64270  31.908   4.805   7.376
 4896POPC   NC364271  18.062  30.682   5.383
 4896POPC   PO464272  18.640  30.329   5.515
 4896POPC   GL164273  18.345  30.529   5.840
 4896POPC   GL264274  18.154  30.875   5.847
 4896POPC   C1A64275  18.072  30.457   6.215
 4896POPC   D2A64276  18.070  30.653   6.618
 4896POPC   C3A64277  18.313  30.509   6.963
 4896POPC   C4A64278  18.225  30.480   7.409
 4896POPC   C1B64279  18.436  30.876   6.211
 4896POPC   C2B64280  18.511  30.975   6.631
 4896POPC   C3B64281  18.336  31.005   7.028
 4896POPC   C4B64282  18.597  30.804   7.324
 4897POPC   NC364283  14.846  23.125   5.031
 4897POPC   PO464284  15.341  23.206   5.454
 4897POPC   GL164285  15.094  23.043   5.826
 4897POPC   GL264286  14.988  22.714   5.888
 4897POPC   C1A64287  15.098  23.269   6.214
 4897POPC   D2A64288  15.363  23.219   6.563
 4897POPC   C3A64289  15.127  23.202   6.936
 4897POPC   C4A64290  15.070  23.064   7.343
 4897POPC   C1B64291  15.287  22.804   6.222
 4897POPC   C2B64292  15.111  22.778   6.636
 4897POPC   C3B64293  15.314  22.729   7.040
 4897POPC   C4B64294  15.472  22.795   7.455
 4898POPC   NC364295   5.511  16.625   5.443
 4898POPC   PO464296   6.166  17.000   5.512
 4898POPC   GL164297   5.967  16.701   5.773
 4898POPC   GL264298   5.641  16.720   5.932
 4898POPC   C1A64299   6.057  16.720   6.223
 4898POPC   D2A64300   5.819  16.797   6.585
 4898POPC   C3A64301   6.049  16.759   6.985
 4898POPC   C4A64302   5.858  16.725   7.388
 4898POPC   C1B64303   5.694  17.109   6.168
 4898POPC   C2B64304   5.506  17.274   6.554
 4898POPC   C3B64305   5.686  17.153   6.953
 4898POPC   C4B64306   5.963  17.215   7.301
 4899POPC   NC364307  17.699  29.214   5.406
 4899POPC   PO464308  17.070  29.043   5.359
 4899POPC   GL164309  17.347  29.009   5.729
 4899POPC   GL264310  17.489  29.326   5.862
 4899POPC   C1A64311  17.507  28.867   6.142
 4899POPC   D2A64312  17.450  29.041   6.536
 4899POPC   C3A64313  17.608  28.918   6.932
 4899POPC   C4A64314  17.618  29.245   7.250
 4899POPC   C1B64315  17.266  29.434   6.238
 4899POPC   C2B64316  17.030  29.359   6.624
 4899POPC   C3B64317  17.144  29.448   7.066
 4899POPC   C4B64318  17.207  29.393   7.527
 4900POPC   NC364319  28.807   6.544   5.687
 4900POPC   PO464320  28.280   6.857   5.351
 4900POPC   GL164321  28.442   6.910   5.780
 4900POPC   GL264322  28.310   6.573   5.863
 4900POPC   C1A64323  28.579   6.810   6.242
 4900POPC   D2A64324  28.453   6.547   6.625
 4900POPC   C3A64325  28.551   6.671   7.065
 4900POPC   C4A64326  28.245   6.726   7.410
 4900POPC   C1B64327  28.209   6.301   6.205
 4900POPC   C2B64328  28.154   6.117   6.617
 4900POPC   C3B64329  28.101   6.374   6.992
 4900POPC   C4B64330  28.052   6.239   7.403
 4901POPC   NC364331  27.598   5.546   5.467
 4901POPC   PO464332  27.911   4.991   5.445
 4901POPC   GL164333  27.700   5.125   5.796
 4901POPC   GL264334  28.059   5.177   5.922
 4901POPC   C1A64335  27.352   5.079   6.134
 4901POPC   D2A64336  27.356   4.794   6.514
 4901POPC   C3A64337  27.266   4.961   6.920
 4901POPC   C4A64338  27.424   4.890   7.322
 4901POPC   C1B64339  27.769   5.388   6.223
 4901POPC   C2B64340  27.579   5.244   6.603
 4901POPC   C3B64341  27.735   5.174   7.026
 4901POPC   C4B64342  27.882   5.502   7.257
 4902POPC   NC364343  23.457   6.262   5.472
 4902POPC   PO464344  23.901   6.843   5.421
 4902POPC   GL164345  23.889   7.020   5.858
 4902POPC   GL264346  23.781   6.679   5.960
 4902POPC   C1A64347  24.123   6.965   6.281
 4902POPC   D2A64348  24.205   6.622   6.608
 4902POPC   C3A64349  23.980   6.668   7.040
 4902POPC   C4A64350  23.725   7.028   7.223
 4902POPC   C1B64351  23.571   6.857   6.318
 4902POPC   C2B64352  23.526   6.800   6.773
 4902POPC   C3B64353  23.412   6.648   7.170
 4902POPC   C4B64354  23.685   6.450   7.474
 4903POPC   NC364355  10.233  12.960   5.194
 4903POPC   PO464356   9.753  12.658   5.440
 4903POPC   GL164357   9.732  12.953   5.793
 4903POPC   GL264358   9.480  12.824   5.997
 4903POPC   C1A64359   9.901  12.933   6.251
 4903POPC   D2A64360   9.672  12.769   6.629
 4903POPC   C3A64361   9.821  12.862   7.066
 4903POPC   C4A64362   9.780  12.643   7.448
 4903POPC   C1B64363   9.458  13.208   6.264
 4903POPC   C2B64364   9.386  13.222   6.678
 4903POPC   C3B64365   9.291  12.939   6.945
 4903POPC   C4B64366   9.364  12.884   7.339
 4904POPC   NC364367  14.558   3.449   5.302
 4904POPC   PO464368  14.222   3.171   5.814
 4904POPC   GL164369  14.382   3.592   5.781
 4904POPC   GL264370  14.650   3.482   5.786
 4904POPC   C1A64371  14.428   3.853   6.144
 4904POPC   D2A64372  14.277   3.863   6.543
 4904POPC   C3A64373  14.480   3.700   6.872
 4904POPC   C4A64374  14.210   3.475   7.141
 4904POPC   C1B64375  14.865   3.297   6.090
 4904POPC   C2B64376  14.774   3.432   6.511
 4904POPC   C3B64377  14.596   3.213   6.865
 4904POPC   C4B64378  14.733   3.204   7.286
 4905POPC   NC364379  24.056  18.365   5.379
 4905POPC   PO464380  23.639  17.954   5.458
 4905POPC   GL164381  23.943  18.077   5.788
 4905POPC   GL264382  23.785  18.376   5.838
 4905POPC   C1A64383  24.153  18.245   6.184
 4905POPC   D2A64384  24.026  18.142   6.654
 4905POPC   C3A64385  24.075  18.313   7.112
 4905POPC   C4A64386  23.836  18.451   7.516
 4905POPC   C1B64387  23.654  18.232   6.260
 4905POPC   C2B64388  23.531  18.352   6.678
 4905POPC   C3B64389  23.544  18.260   7.122
 4905POPC   C4B64390  23.292  18.418   7.459
 4906POPC   NC364391   8.764  28.242   5.121
 4906POPC   PO464392   8.968  28.821   5.360
 4906POPC   GL164393   9.153  28.636   5.753
 4906POPC   GL264394   9.284  28.358   5.565
 4906POPC   C1A64395   9.006  28.558   6.211
 4906POPC   D2A64396   8.890  28.407   6.636
 4906POPC   C3A64397   8.954  28.639   7.022
 4906POPC   C4A64398   9.073  28.456   7.425
 4906POPC   C1B64399   9.312  28.196   6.008
 4906POPC   C2B64400   9.338  28.196   6.490
 4906POPC   C3B64401   9.276  28.190   6.971
 4906POPC   C4B64402   9.353  28.016   7.417
 4907POPC   NC364403  20.084   5.007   5.414
 4907POPC   PO464404  19.720   5.571   5.474
 4907POPC   GL164405  19.899   5.332   5.816
 4907POPC   GL264406  19.539   5.223   5.833
 4907POPC   C1A64407  19.861   4.942   6.108
 4907POPC   D2A64408  19.695   4.645   6.430
 4907POPC   C3A64409  19.803   4.770   6.863
 4907POPC   C4A64410  19.919   4.785   7.288
 4907POPC   C1B64411  19.370   5.097   6.213
 4907POPC   C2B64412  19.531   5.116   6.611
 4907POPC   C3B64413  19.365   4.962   7.004
 4907POPC   C4B64414  19.464   4.990   7.424
 4908POPC   NC364415  38.110  30.064   5.334
 4908POPC   PO464416  38.651  29.712   5.435
 4908POPC   GL164417  38.616  29.877   5.838
 4908POPC   GL264418  38.270  29.968   5.802
 4908POPC   C1A64419  38.599  29.890   6.284
 4908POPC   D2A64420  38.401  30.035   6.644
 4908POPC   C3A64421  38.606  30.019   7.043
 4908POPC   C4A64422  38.680  29.629   7.257
 4908POPC   C1B64423  38.093  30.033   6.193
 4908POPC   C2B64424  37.964  30.278   6.540
 4908POPC   C3B64425  37.983  30.161   6.944
 4908POPC   C4B64426  38.141  29.785   7.132
 4909POPC   NC364427  39.053   3.604   5.419
 4909POPC   PO464428  39.492   3.081   5.656
 4909POPC   GL164429  39.280   3.401   5.914
 4909POPC   GL264430  39.166   3.775   5.882
 4909POPC   C1A64431  39.193   3.360   6.339
 4909POPC   D2A64432  39.127   3.120   6.691
 4909POPC   C3A64433  39.266   3.294   7.053
 4909POPC   C4A64434  39.642   3.216   7.249
 4909POPC   C1B64435  39.463   3.773   6.228
 4909POPC   C2B64436  39.450   3.618   6.688
 4909POPC   C3B64437  39.435   3.784   7.095
 4909POPC   C4B64438  39.291   4.027   7.440
 4910POPC   NC364439  28.304  16.170   5.428
 4910POPC   PO464440  28.341  15.467   5.478
 4910POPC   GL164441  28.469  15.823   5.763
 4910POPC   GL264442  28.185  15.968   5.881
 4910POPC   C1A64443  28.542  15.969   6.225
 4910POPC   D2A64444  28.226  16.021   6.535
 4910POPC   C3A64445  28.441  15.947   6.927
 4910POPC   C4A64446  28.203  15.820   7.287
 4910POPC   C1B64447  28.223  16.367   6.130
 4910POPC   C2B64448  28.076  16.519   6.555
 4910POPC   C3B64449  28.047  16.271   6.964
 4910POPC   C4B64450  27.829  16.221   7.349
 4911POPC   NC364451   6.911  23.012   5.379
 4911POPC   PO464452   7.596  22.716   5.463
 4911POPC   GL164453   7.499  22.776   5.865
 4911POPC   GL264454   7.349  23.098   5.712
 4911POPC   C1A64455   7.438  22.697   6.346
 4911POPC   D2A64456   7.346  22.728   6.814
 4911POPC   C3A64457   7.573  23.054   7.044
 4911POPC   C4A64458   7.927  23.355   7.072
 4911POPC   C1B64459   7.449  23.197   6.138
 4911POPC   C2B64460   7.332  23.160   6.553
 4911POPC   C3B64461   6.989  23.105   6.825
 4911POPC   C4B64462   6.934  23.340   7.188
 4912POPC   NC364463   8.749   1.838   5.056
 4912POPC   PO464464   8.195   2.044   5.465
 4912POPC   GL164465   8.183   1.825   5.853
 4912POPC   GL264466   8.223   1.516   5.692
 4912POPC   C1A64467   8.188   1.903   6.278
 4912POPC   D2A64468   7.865   2.010   6.546
 4912POPC   C3A64469   8.052   1.936   6.906
 4912POPC   C4A64470   7.987   2.157   7.249
 4912POPC   C1B64471   8.443   1.405   6.069
 4912POPC   C2B64472   8.575   1.453   6.493
 4912POPC   C3B64473   8.431   1.579   6.902
 4912POPC   C4B64474   8.493   1.918   7.194
 4913POPC   NC364475  44.226  24.969   5.555
 4913POPC   PO464476  44.418  25.543   5.398
 4913POPC   GL164477  44.496  25.365   5.795
 4913POPC   GL264478  44.869  25.285   5.832
 4913POPC   C1A64479  44.593  25.480   6.215
 4913POPC   D2A64480  44.803  25.350   6.550
 4913POPC   C3A64481  44.595  25.444   6.902
 4913POPC   C4A64482  44.822  25.644   7.165
 4913POPC   C1B64483  44.689  24.980   6.166
 4913POPC   C2B64484  44.467  24.985   6.587
 4913POPC   C3B64485  44.693  24.965   6.974
 4913POPC   C4B64486  44.753  25.176   7.362
 4914POPC   NC364487  43.168   8.690   5.467
 4914POPC   PO464488  43.289   8.105   5.285
 4914POPC   GL164489  43.095   8.082   5.743
 4914POPC   GL264490  42.987   8.414   5.864
 4914POPC   C1A64491  42.884   7.891   6.144
 4914POPC   D2A64492  43.059   7.875   6.585
 4914POPC   C3A64493  43.037   8.004   7.038
 4914POPC   C4A64494  43.365   7.909   7.338
 4914POPC   C1B64495  43.218   8.274   6.240
 4914POPC   C2B64496  43.312   8.361   6.671
 4914POPC   C3B64497  43.466   8.334   7.091
 4914POPC   C4B64498  43.640   8.287   7.507
 4915POPC   NC364499  44.105  12.784   5.561
 4915POPC   PO464500  43.479  12.681   5.472
 4915POPC   GL164501  43.543  12.355   5.850
 4915POPC   GL264502  43.638  11.967   5.961
 4915POPC   C1A64503  43.866  12.335   6.194
 4915POPC   D2A64504  44.006  12.096   6.543
 4915POPC   C3A64505  43.874  12.214   6.963
 4915POPC   C4A64506  44.153  12.205   7.312
 4915POPC   C1B64507  43.507  11.967   6.390
 4915POPC   C2B64508  43.667  11.769   6.762
 4915POPC   C3B64509  44.023  11.738   7.053
 4915POPC   C4B64510  44.085  11.740   7.482
 4916POPC   NC364511  22.293  41.115   5.437
 4916POPC   PO464512  22.414  41.697   5.402
 4916POPC   GL164513  22.227  41.740   5.837
 4916POPC   GL264514  21.872  41.700   5.911
 4916POPC   C1A64515  22.283  41.796   6.304
 4916POPC   D2A64516  22.489  41.923   6.725
 4916POPC   C3A64517  22.425  41.687   7.134
 4916POPC   C4A64518  22.309  41.658   7.599
 4916POPC   C1B64519  21.774  41.711   6.382
 4916POPC   C2B64520  21.730  41.687   6.847
 4916POPC   C3B64521  21.943  41.593   7.244
 4916POPC   C4B64522  21.816  41.532   7.724
 4917POPC   NC364523  37.502  22.135   5.338
 4917POPC   PO464524  38.059  22.433   5.183
 4917POPC   GL164525  37.888  22.097   5.640
 4917POPC   GL264526  37.794  21.825   5.886
 4917POPC   C1A64527  37.810  22.245   6.144
 4917POPC   D2A64528  37.633  22.051   6.536
 4917POPC   C3A64529  37.613  22.304   6.961
 4917POPC   C4A64530  37.354  22.427   7.334
 4917POPC   C1B64531  37.376  21.912   6.033
 4917POPC   C2B64532  37.189  21.729   6.426
 4917POPC   C3B64533  37.247  21.640   6.878
 4917POPC   C4B64534  37.265  21.738   7.333
 4918POPC   NC364535  41.908  32.258   5.627
 4918POPC   PO464536  41.239  32.337   5.417
 4918POPC   GL164537  41.454  32.388   5.818
 4918POPC   GL264538  41.610  32.721   5.812
 4918POPC   C1A64539  41.542  32.184   6.228
 4918POPC   D2A64540  41.440  31.907   6.547
 4918POPC   C3A64541  41.551  32.005   6.950
 4918POPC   C4A64542  41.487  32.346   7.164
 4918POPC   C1B64543  41.759  32.631   6.216
 4918POPC   C2B64544  41.623  32.497   6.644
 4918POPC   C3B64545  41.729  32.741   7.005
 4918POPC   C4B64546  41.832  32.603   7.439
 4919POPC   NC364547  42.939  28.454   5.430
 4919POPC   PO464548  42.845  27.781   5.591
 4919POPC   GL164549  42.971  28.117   5.822
 4919POPC   GL264550  43.308  28.213   5.874
 4919POPC   C1A64551  42.943  28.419   6.156
 4919POPC   D2A64552  43.155  28.380   6.568
 4919POPC   C3A64553  42.935  28.565   6.944
 4919POPC   C4A64554  42.965  28.522   7.406
 4919POPC   C1B64555  43.557  28.077   6.240
 4919POPC   C2B64556  43.540  28.073   6.693
 4919POPC   C3B64557  43.339  28.213   7.063
 4919POPC   C4B64558  43.500  28.502   7.330
 4920POPC   NC364559  36.507  22.178   5.418
 4920POPC   PO464560  36.177  21.753   5.116
 4920POPC   GL164561  36.138  22.019   5.724
 4920POPC   GL264562  35.816  22.111   5.840
 4920POPC   C1A64563  36.170  22.112   6.198
 4920POPC   D2A64564  36.265  21.991   6.634
 4920POPC   C3A64565  36.031  22.185   6.964
 4920POPC   C4A64566  36.203  22.402   7.324
 4920POPC   C1B64567  35.684  22.324   6.200
 4920POPC   C2B64568  35.738  22.431   6.608
 4920POPC   C3B64569  35.654  22.622   6.980
 4920POPC   C4B64570  35.699  22.378   7.311
 4921POPC   NC364571  19.659  34.721   5.521
 4921POPC   PO464572  20.328  34.697   5.443
 4921POPC   GL164573  20.090  34.445   5.760
 4921POPC   GL264574  19.730  34.287   5.799
 4921POPC   C1A64575  20.028  34.456   6.204
 4921POPC   D2A64576  20.174  34.614   6.592
 4921POPC   C3A64577  19.950  34.540   6.987
 4921POPC   C4A64578  20.070  34.374   7.383
 4921POPC   C1B64579  19.523  34.532   6.151
 4921POPC   C2B64580  19.630  34.656   6.584
 4921POPC   C3B64581  19.528  34.868   6.990
 4921POPC   C4B64582  19.410  34.622   7.350
 4922POPC   NC364583  20.571   1.953   5.418
 4922POPC   PO464584  21.204   1.940   5.372
 4922POPC   GL164585  20.958   1.934   5.805
 4922POPC   GL264586  20.624   2.060   5.911
 4922POPC   C1A64587  20.889   1.667   6.206
 4922POPC   D2A64588  20.614   1.678   6.603
 4922POPC   C3A64589  20.856   1.919   6.913
 4922POPC   C4A64590  21.035   1.805   7.278
 4922POPC   C1B64591  20.251   1.998   6.178
 4922POPC   C2B64592  20.123   1.994   6.599
 4922POPC   C3B64593  20.342   1.973   6.964
 4922POPC   C4B64594  20.451   2.310   7.252
 4923POPC   NC364595  31.125   2.407   5.438
 4923POPC   PO464596  30.504   2.576   5.390
 4923POPC   GL164597  30.699   2.740   5.724
 4923POPC   GL264598  30.780   2.411   5.810
 4923POPC   C1A64599  30.740   2.840   6.177
 4923POPC   D2A64600  30.482   2.994   6.551
 4923POPC   C3A64601  30.615   3.096   7.009
 4923POPC   C4A64602  30.831   2.889   7.372
 4923POPC   C1B64603  30.742   2.317   6.211
 4923POPC   C2B64604  30.515   2.487   6.549
 4923POPC   C3B64605  30.686   2.600   6.937
 4923POPC   C4B64606  31.081   2.513   7.138
 4924POPC   NC364607  27.615  34.917   5.184
 4924POPC   PO464608  27.196  34.398   5.175
 4924POPC   GL164609  27.356  34.528   5.638
 4924POPC   GL264610  27.509  34.263   5.845
 4924POPC   C1A64611  27.378  34.702   6.152
 4924POPC   D2A64612  27.652  34.779   6.494
 4924POPC   C3A64613  27.547  34.890   6.911
 4924POPC   C4A64614  27.313  34.724   7.215
 4924POPC   C1B64615  27.818  34.425   6.160
 4924POPC   C2B64616  27.927  34.359   6.608
 4924POPC   C3B64617  27.772  34.448   7.027
 4924POPC   C4B64618  28.010  34.437   7.379
 4925POPC   NC364619  28.224  44.633   5.343
 4925POPC   PO464620  28.697  44.331   5.730
 4925POPC   GL164621  28.281  44.455   5.843
 4925POPC   GL264622  28.067  44.780   5.819
 4925POPC   C1A64623  28.204  44.499   6.253
 4925POPC   D2A64624  28.441  44.631   6.607
 4925POPC   C3A64625  28.476  44.457   7.022
 4925POPC   C4A64626  28.624  44.787   7.298
 4925POPC   C1B64627  28.301  44.995   6.146
 4925POPC   C2B64628  28.187   0.123   6.573
 4925POPC   C3B64629  28.227  44.925   6.985
 4925POPC   C4B64630  28.077  44.638   7.280
 4926POPC   NC364631  16.626   9.283   5.557
 4926POPC   PO464632  16.526   8.615   5.509
 4926POPC   GL164633  16.722   8.868   5.863
 4926POPC   GL264634  16.453   9.063   5.981
 4926POPC   C1A64635  16.953   9.128   6.206
 4926POPC   D2A64636  16.883   9.377   6.587
 4926POPC   C3A64637  17.059   9.167   6.948
 4926POPC   C4A64638  16.967   9.279   7.364
 4926POPC   C1B64639  16.486   9.072   6.413
 4926POPC   C2B64640  16.693   8.836   6.744
 4926POPC   C3B64641  16.712   8.883   7.203
 4926POPC   C4B64642  16.547   8.661   7.538
 4927POPC   NC364643  39.076  24.130   5.552
 4927POPC   PO464644  38.531  24.567   5.357
 4927POPC   GL164645  38.697  24.636   5.755
 4927POPC   GL264646  38.366  24.744   5.843
 4927POPC   C1A64647  38.670  24.474   6.179
 4927POPC   D2A64648  38.467  24.544   6.568
 4927POPC   C3A64649  38.762  24.440   6.877
 4927POPC   C4A64650  38.689  24.557   7.274
 4927POPC   C1B64651  38.150  24.425   6.166
 4927POPC   C2B64652  38.036  24.257   6.626
 4927POPC   C3B64653  38.229  24.248   7.045
 4927POPC   C4B64654  38.297  24.313   7.501
 4928POPC   NC364655  19.961  31.806   5.463
 4928POPC   PO464656  19.517  32.228   5.281
 4928POPC   GL164657  19.673  32.159   5.742
 4928POPC   GL264658  19.342  32.200   5.842
 4928POPC   C1A64659  19.944  32.020   6.184
 4928POPC   D2A64660  20.170  32.102   6.637
 4928POPC   C3A64661  20.032  32.333   7.029
 4928POPC   C4A64662  19.943  32.258   7.526
 4928POPC   C1B64663  19.515  32.276   6.239
 4928POPC   C2B64664  19.639  32.277   6.684
 4928POPC   C3B64665  19.535  32.314   7.134
 4928POPC   C4B64666  19.426  32.353   7.584
 4929POPC   NC364667   0.363   4.728   5.307
 4929POPC   PO464668   0.510   4.053   5.391
 4929POPC   GL164669   0.417   4.291   5.723
 4929POPC   GL264670   0.276   3.958   5.875
 4929POPC   C1A64671   0.384   4.543   6.098
 4929POPC   D2A64672   0.659   4.517   6.470
 4929POPC   C3A64673   0.490   4.607   6.850
 4929POPC   C4A64674   0.584   4.573   7.272
 4929POPC   C1B64675   0.536   4.068   6.222
 4929POPC   C2B64676   0.720   4.027   6.613
 4929POPC   C3B64677   0.678   4.158   7.005
 4929POPC   C4B64678   0.396   4.104   7.369
 4930POPC   NC364679  16.611  11.872   5.401
 4930POPC   PO464680  16.499  12.515   5.314
 4930POPC   GL164681  16.524  12.284   5.747
 4930POPC   GL264682  16.501  11.913   5.892
 4930POPC   C1A64683  16.586  12.291   6.212
 4930POPC   D2A64684  16.783  12.067   6.525
 4930POPC   C3A64685  16.740  12.170   6.927
 4930POPC   C4A64686  16.816  12.122   7.343
 4930POPC   C1B64687  16.963  11.929   6.074
 4930POPC   C2B64688  17.249  11.820   6.438
 4930POPC   C3B64689  17.075  11.778   6.859
 4930POPC   C4B64690  17.061  11.670   7.277
 4931POPC   NC364691   4.789  31.414   5.356
 4931POPC   PO464692   5.451  31.537   5.339
 4931POPC   GL164693   5.113  31.631   5.685
 4931POPC   GL264694   4.901  31.339   5.842
 4931POPC   C1A64695   5.082  31.734   6.132
 4931POPC   D2A64696   5.327  31.564   6.485
 4931POPC   C3A64697   5.213  31.662   6.899
 4931POPC   C4A64698   4.945  31.723   7.223
 4931POPC   C1B64699   4.654  31.436   6.211
 4931POPC   C2B64700   4.716  31.599   6.617
 4931POPC   C3B64701   4.796  31.328   6.940
 4931POPC   C4B64702   4.770  31.139   7.315
 4932POPC   NC364703  14.868   2.586   5.165
 4932POPC   PO464704  15.258   3.056   5.480
 4932POPC   GL164705  15.388   2.839   5.856
 4932POPC   GL264706  15.447   3.170   5.961
 4932POPC   C1A64707  15.205   2.751   6.269
 4932POPC   D2A64708  15.254   2.536   6.654
 4932POPC   C3A64709  15.003   2.475   7.006
 4932POPC   C4A64710  14.944   2.614   7.431
 4932POPC   C1B64711  15.296   3.248   6.379
 4932POPC   C2B64712  15.044   3.019   6.690
 4932POPC   C3B64713  15.160   2.977   7.101
 4932POPC   C4B64714  15.438   3.310   7.058
 4933POPC   NC364715   3.958  29.002   5.412
 4933POPC   PO464716   4.575  29.192   5.486
 4933POPC   GL164717   4.365  29.088   5.900
 4933POPC   GL264718   4.014  29.277   5.968
 4933POPC   C1A64719   4.351  29.079   6.342
 4933POPC   D2A64720   4.536  28.954   6.727
 4933POPC   C3A64721   4.446  29.162   7.115
 4933POPC   C4A64722   4.570  29.444   7.417
 4933POPC   C1B64723   3.859  29.218   6.394
 4933POPC   C2B64724   4.013  28.971   6.748
 4933POPC   C3B64725   4.003  28.911   7.194
 4933POPC   C4B64726   4.291  28.943   7.560
 4934POPC   NC364727  22.389  29.895   5.488
 4934POPC   PO464728  23.021  30.007   5.359
 4934POPC   GL164729  22.820  29.916   5.771
 4934POPC   GL264730  22.596  29.585   5.844
 4934POPC   C1A64731  22.777  30.108   6.200
 4934POPC   D2A64732  22.765  30.402   6.565
 4934POPC   C3A64733  23.059  30.226   6.867
 4934POPC   C4A64734  23.011  29.991   7.248
 4934POPC   C1B64735  22.534  29.644   6.318
 4934POPC   C2B64736  22.561  29.712   6.782
 4934POPC   C3B64737  22.610  29.637   7.265
 4934POPC   C4B64738  22.547  29.347   7.657
 4935POPC   NC364739  11.475  22.923   5.139
 4935POPC   PO464740  11.074  22.460   5.326
 4935POPC   GL164741  11.112  22.863   5.603
 4935POPC   GL264742  11.459  23.033   5.678
 4935POPC   C1A64743  11.009  22.959   6.059
 4935POPC   D2A64744  11.140  22.745   6.458
 4935POPC   C3A64745  11.078  22.967   6.864
 4935POPC   C4A64746  11.110  22.803   7.271
 4935POPC   C1B64747  11.551  22.898   6.126
 4935POPC   C2B64748  11.658  22.914   6.590
 4935POPC   C3B64749  11.578  22.955   7.047
 4935POPC   C4B64750  11.575  22.816   7.487
 4936POPC   NC364751  24.228  27.209   5.353
 4936POPC   PO464752  24.677  26.753   5.501
 4936POPC   GL164753  24.431  26.825   5.872
 4936POPC   GL264754  24.246  27.152   5.864
 4936POPC   C1A64755  24.533  26.658   6.289
 4936POPC   D2A64756  24.456  26.500   6.727
 4936POPC   C3A64757  24.707  26.646   7.102
 4936POPC   C4A64758  24.850  26.743   7.541
 4936POPC   C1B64759  24.401  27.177   6.275
 4936POPC   C2B64760  24.561  27.020   6.656
 4936POPC   C3B64761  24.331  26.957   6.983
 4936POPC   C4B64762  24.470  27.012   7.381
 4937POPC   NC364763   3.569  38.916   5.033
 4937POPC   PO464764   3.370  39.440   5.263
 4937POPC   GL164765   3.447  39.454   5.708
 4937POPC   GL264766   3.822  39.369   5.750
 4937POPC   C1A64767   3.290  39.509   6.133
 4937POPC   D2A64768   3.375  39.349   6.540
 4937POPC   C3A64769   3.350  39.478   6.959
 4937POPC   C4A64770   3.055  39.417   7.302
 4937POPC   C1B64771   3.732  39.250   6.193
 4937POPC   C2B64772   3.858  39.266   6.650
 4937POPC   C3B64773   3.797  39.262   7.094
 4937POPC   C4B64774   3.454  39.103   7.348
 4938POPC   NC364775   1.423  31.944   5.534
 4938POPC   PO464776   1.205  32.618   5.454
 4938POPC   GL164777   1.289  32.377   5.806
 4938POPC   GL264778   1.070  32.064   5.877
 4938POPC   C1A64779   1.156  32.441   6.217
 4938POPC   D2A64780   1.044  32.243   6.602
 4938POPC   C3A64781   1.135  32.585   6.867
 4938POPC   C4A64782   1.144  32.645   7.281
 4938POPC   C1B64783   1.328  31.935   6.264
 4938POPC   C2B64784   1.458  31.954   6.735
 4938POPC   C3B64785   1.318  32.122   7.165
 4938POPC   C4B64786   1.271  31.971   7.600
 4939POPC   NC364787  37.950   2.490   5.467
 4939POPC   PO464788  37.522   2.964   5.202
 4939POPC   GL164789  37.551   2.971   5.661
 4939POPC   GL264790  37.539   2.665   5.789
 4939POPC   C1A64791  37.574   2.969   6.170
 4939POPC   D2A64792  37.749   2.995   6.592
 4939POPC   C3A64793  37.610   2.788   6.954
 4939POPC   C4A64794  37.721   2.928   7.338
 4939POPC   C1B64795  37.758   2.447   6.102
 4939POPC   C2B64796  37.987   2.553   6.418
 4939POPC   C3B64797  38.036   2.584   6.827
 4939POPC   C4B64798  38.102   2.573   7.281
 4940POPC   NC364799  36.166  33.359   5.524
 4940POPC   PO464800  36.411  32.692   5.464
 4940POPC   GL164801  36.132  32.808   5.807
 4940POPC   GL264802  36.001  33.151   5.935
 4940POPC   C1A64803  36.206  32.811   6.226
 4940POPC   D2A64804  36.260  33.036   6.584
 4940POPC   C3A64805  36.203  32.777   6.924
 4940POPC   C4A64806  36.352  32.850   7.308
 4940POPC   C1B64807  35.809  33.209   6.329
 4940POPC   C2B64808  35.869  33.350   6.724
 4940POPC   C3B64809  36.148  33.272   7.046
 4940POPC   C4B64810  35.922  33.111   7.374
 4941POPC   NC364811  44.011  39.288   5.071
 4941POPC   PO464812  43.634  39.624   5.323
 4941POPC   GL164813  43.881  39.414   5.684
 4941POPC   GL264814  43.695  39.109   5.772
 4941POPC   C1A64815  43.995  39.282   6.155
 4941POPC   D2A64816  43.803  39.154   6.598
 4941POPC   C3A64817  43.913  39.437   6.974
 4941POPC   C4A64818  44.049  39.440   7.411
 4941POPC   C1B64819  43.482  39.240   6.167
 4941POPC   C2B64820  43.292  39.226   6.573
 4941POPC   C3B64821  43.464  39.203   7.003
 4941POPC   C4B64822  43.844  38.983   7.194
 4942POPC   NC364823   3.083  32.670   5.409
 4942POPC   PO464824   2.717  33.196   5.345
 4942POPC   GL164825   2.831  32.998   5.719
 4942POPC   GL264826   2.558  32.779   5.794
 4942POPC   C1A64827   2.939  32.854   6.134
 4942POPC   D2A64828   2.775  33.063   6.506
 4942POPC   C3A64829   2.955  33.029   6.871
 4942POPC   C4A64830   3.013  33.113   7.268
 4942POPC   C1B64831   2.417  32.979   6.172
 4942POPC   C2B64832   2.384  32.761   6.609
 4942POPC   C3B64833   2.574  32.733   7.024
 4942POPC   C4B64834   2.435  32.749   7.450
 4943POPC   NC364835  27.242  33.075   5.525
 4943POPC   PO464836  26.652  32.875   5.341
 4943POPC   GL164837  26.691  32.981   5.823
 4943POPC   GL264838  26.986  33.160   5.936
 4943POPC   C1A64839  26.725  33.079   6.337
 4943POPC   D2A64840  27.059  33.105   6.666
 4943POPC   C3A64841  26.853  33.048   7.035
 4943POPC   C4A64842  26.388  33.060   7.080
 4943POPC   C1B64843  27.309  33.301   6.218
 4943POPC   C2B64844  27.355  33.533   6.603
 4943POPC   C3B64845  27.387  33.334   6.999
 4943POPC   C4B64846  27.173  33.229   7.383
 4944POPC   NC364847  38.868  13.254   5.443
 4944POPC   PO464848  38.365  13.556   5.099
 4944POPC   GL164849  38.490  13.502   5.641
 4944POPC   GL264850  38.771  13.491   5.870
 4944POPC   C1A64851  38.336  13.410   6.125
 4944POPC   D2A64852  38.433  13.469   6.595
 4944POPC   C3A64853  38.331  13.284   7.011
 4944POPC   C4A64854  38.330  13.403   7.455
 4944POPC   C1B64855  38.846  13.565   6.266
 4944POPC   C2B64856  38.788  13.829   6.611
 4944POPC   C3B64857  38.822  13.595   6.981
 4944POPC   C4B64858  38.742  13.698   7.402
 4945POPC   NC364859   9.430  27.797   5.211
 4945POPC   PO464860   9.661  27.181   5.396
 4945POPC   GL164861   9.825  27.437   5.731
 4945POPC   GL264862   9.565  27.702   5.779
 4945POPC   C1A64863   9.981  27.646   6.121
 4945POPC   D2A64864  10.031  27.738   6.597
 4945POPC   C3A64865   9.962  27.370   6.896
 4945POPC   C4A64866   9.706  27.154   7.204
 4945POPC   C1B64867   9.514  27.772   6.256
 4945POPC   C2B64868   9.501  27.689   6.724
 4945POPC   C3B64869   9.694  27.747   7.128
 4945POPC   C4B64870  10.112  27.913   7.128
 4946POPC   NC364871  40.896   9.064   5.229
 4946POPC   PO464872  40.325   8.738   5.510
 4946POPC   GL164873  40.596   9.045   5.726
 4946POPC   GL264874  40.969   9.000   5.740
 4946POPC   C1A64875  40.711   9.067   6.188
 4946POPC   D2A64876  40.733   8.827   6.607
 4946POPC   C3A64877  40.450   8.943   6.972
 4946POPC   C4A64878  40.465   8.934   7.429
 4946POPC   C1B64879  41.063   8.691   6.099
 4946POPC   C2B64880  41.278   8.660   6.484
 4946POPC   C3B64881  41.159   8.793   6.904
 4946POPC   C4B64882  40.939   9.065   7.187
 4947POPC   NC364883  17.569  30.205   5.428
 4947POPC   PO464884  17.415  29.594   5.390
 4947POPC   GL164885  17.470  29.841   5.787
 4947POPC   GL264886  17.294  30.168   5.854
 4947POPC   C1A64887  17.543  29.870   6.234
 4947POPC   D2A64888  17.217  29.864   6.575
 4947POPC   C3A64889  17.359  29.990   6.999
 4947POPC   C4A64890  17.511  29.751   7.352
 4947POPC   C1B64891  17.501  30.386   6.200
 4947POPC   C2B64892  17.665  30.267   6.594
 4947POPC   C3B64893  17.819  30.380   6.986
 4947POPC   C4B64894  17.819  30.169   7.350
 4948POPC   NC364895  28.577   3.144   5.430
 4948POPC   PO464896  28.313   3.654   5.090
 4948POPC   GL164897  28.119   3.433   5.516
 4948POPC   GL264898  27.914   3.141   5.660
 4948POPC   C1A64899  28.185   3.525   5.999
 4948POPC   D2A64900  28.315   3.442   6.447
 4948POPC   C3A64901  28.479   3.724   6.806
 4948POPC   C4A64902  28.447   3.844   7.260
 4948POPC   C1B64903  27.824   3.182   6.129
 4948POPC   C2B64904  27.843   3.268   6.592
 4948POPC   C3B64905  28.143   3.340   6.930
 4948POPC   C4B64906  28.512   3.334   7.176
 4949POPC   NC364907  44.707  43.987   5.489
 4949POPC   PO464908  44.341  43.445   5.530
 4949POPC   GL164909  44.459  43.756   5.862
 4949POPC   GL264910  44.347  44.147   5.813
 4949POPC   C1A64911  44.784  43.770   6.183
 4949POPC   D2A64912  44.961  43.840   6.589
 4949POPC   C3A64913  44.737  43.698   6.932
 4949POPC   C4A64914  44.460  43.507   7.254
 4949POPC   C1B64915  44.529  44.334   6.171
 4949POPC   C2B64916  44.526  44.112   6.525
 4949POPC   C3B64917  44.532  44.159   6.931
 4949POPC   C4B64918  44.579  44.000   7.310
 4950POPC   NC364919  27.184  18.784   5.588
 4950POPC   PO464920  27.570  18.191   5.490
 4950POPC   GL164921  27.634  18.271   5.929
 4950POPC   GL264922  27.507  17.979   5.984
 4950POPC   C1A64923  27.865  18.207   6.294
 4950POPC   D2A64924  27.773  18.073   6.714
 4950POPC   C3A64925  27.758  18.370   7.016
 4950POPC   C4A64926  27.575  18.496   7.364
 4950POPC   C1B64927  27.369  18.128   6.363
 4950POPC   C2B64928  27.392  18.466   6.604
 4950POPC   C3B64929  27.216  18.378   6.992
 4950POPC   C4B64930  27.335  18.048   7.278
 4951POPC   NC364931  40.455  41.526   5.126
 4951POPC   PO464932  41.007  41.388   5.461
 4951POPC   GL164933  40.905  41.322   5.883
 4951POPC   GL264934  40.815  41.689   5.924
 4951POPC   C1A64935  40.738  41.324   6.288
 4951POPC   D2A64936  40.706  41.629   6.608
 4951POPC   C3A64937  40.599  41.383   6.943
 4951POPC   C4A64938  40.444  41.495   7.334
 4951POPC   C1B64939  40.518  41.931   6.205
 4951POPC   C2B64940  40.269  41.953   6.594
 4951POPC   C3B64941  40.453  41.892   7.018
 4951POPC   C4B64942  40.908  41.790   7.076
 4952POPC   NC364943   4.001  35.633   5.421
 4952POPC   PO464944   4.629  35.281   5.533
 4952POPC   GL164945   4.352  35.432   5.807
 4952POPC   GL264946   4.147  35.144   5.902
 4952POPC   C1A64947   4.510  35.480   6.215
 4952POPC   D2A64948   4.367  35.510   6.628
 4952POPC   C3A64949   4.476  35.196   6.897
 4952POPC   C4A64950   4.851  35.253   7.093
 4952POPC   C1B64951   4.006  35.386   6.232
 4952POPC   C2B64952   3.869  35.431   6.646
 4952POPC   C3B64953   4.025  35.450   7.062
 4952POPC   C4B64954   4.046  35.521   7.523
 4953POPC   NC364955  13.698  24.165   5.432
 4953POPC   PO464956  13.722  23.477   5.422
 4953POPC   GL164957  13.807  23.735   5.767
 4953POPC   GL264958  13.474  23.862   5.779
 4953POPC   C1A64959  13.717  23.836   6.216
 4953POPC   D2A64960  13.466  23.765   6.577
 4953POPC   C3A64961  13.649  23.852   6.971
 4953POPC   C4A64962  13.445  23.941   7.338
 4953POPC   C1B64963  13.426  23.465   6.036
 4953POPC   C2B64964  13.283  23.302   6.421
 4953POPC   C3B64965  13.213  23.294   6.842
 4953POPC   C4B64966  13.114  23.553   7.191
 4954POPC   NC364967  17.146   3.677   5.484
 4954POPC   PO464968  17.749   3.389   5.321
 4954POPC   GL164969  17.774   3.550   5.757
 4954POPC   GL264970  17.435   3.691   5.926
 4954POPC   C1A64971  17.835   3.531   6.209
 4954POPC   D2A64972  17.492   3.627   6.533
 4954POPC   C3A64973  17.503   3.526   6.977
 4954POPC   C4A64974  17.206   3.375   7.288
 4954POPC   C1B64975  17.183   3.955   6.259
 4954POPC   C2B64976  17.104   3.977   6.740
 4954POPC   C3B64977  17.161   3.877   7.179
 4954POPC   C4B64978  17.079   3.762   7.616
 4955POPC   NC364979  35.679   7.254   5.521
 4955POPC   PO464980  35.084   7.175   5.214
 4955POPC   GL164981  35.190   7.436   5.639
 4955POPC   GL264982  35.106   7.200   5.868
 4955POPC   C1A64983  35.432   7.499   6.122
 4955POPC   D2A64984  35.488   7.280   6.566
 4955POPC   C3A64985  35.423   7.468   6.975
 4955POPC   C4A64986  35.140   7.671   7.261
 4955POPC   C1B64987  35.030   7.225   6.320
 4955POPC   C2B64988  35.019   7.115   6.755
 4955POPC   C3B64989  35.079   7.166   7.212
 4955POPC   C4B64990  35.222   6.973   7.576
 4956POPC   NC364991   1.966  11.055   5.053
 4956POPC   PO464992   1.769  11.267   5.426
 4956POPC   GL164993   1.951  11.296   5.860
 4956POPC   GL264994   2.268  11.140   5.912
 4956POPC   C1A64995   1.921  11.452   6.310
 4956POPC   D2A64996   1.698  11.517   6.719
 4956POPC   C3A64997   1.907  11.440   7.105
 4956POPC   C4A64998   1.853  11.591   7.534
 4956POPC   C1B64999   2.036  10.965   6.280
 4956POPC   C2B65000   2.012  11.098   6.722
 4956POPC   C3B65001   2.073  10.934   7.157
 4956POPC   C4B65002   2.179  10.946   7.613
 4957POPC   NC365003  38.392  23.424   5.317
 4957POPC   PO465004  38.824  23.742   5.620
 4957POPC   GL165005  38.405  23.684   5.833
 4957POPC   GL265006  38.255  23.350   5.803
 4957POPC   C1A65007  38.285  23.910   6.228
 4957POPC   D2A65008  38.486  24.030   6.612
 4957POPC   C3A65009  38.782  23.836   6.868
 4957POPC   C4A65010  38.667  24.057   7.230
 4957POPC   C1B65011  38.163  23.412   6.245
 4957POPC   C2B65012  38.404  23.497   6.631
 4957POPC   C3B65013  38.313  23.710   7.026
 4957POPC   C4B65014  38.068  23.688   7.430
 4958POPC   NC365015  21.013  39.309   5.315
 4958POPC   PO465016  21.511  39.547   5.428
 4958POPC   GL165017  21.314  39.305   5.759
 4958POPC   GL265018  21.068  39.563   5.784
 4958POPC   C1A65019  21.428  39.093   6.177
 4958POPC   D2A65020  21.595  38.866   6.554
 4958POPC   C3A65021  21.493  38.962   6.987
 4958POPC   C4A65022  21.646  39.295   7.222
 4958POPC   C1B65023  21.223  39.555   6.221
 4958POPC   C2B65024  21.292  39.329   6.628
 4958POPC   C3B65025  21.141  39.338   7.060
 4958POPC   C4B65026  21.151  39.140   7.435
 4959POPC   NC365027  17.285  26.884   5.485
 4959POPC   PO465028  17.928  26.561   5.426
 4959POPC   GL165029  17.670  26.682   5.811
 4959POPC   GL265030  17.626  27.049   5.849
 4959POPC   C1A65031  17.643  26.760   6.270
 4959POPC   D2A65032  17.441  26.741   6.663
 4959POPC   C3A65033  17.656  26.878   6.973
 4959POPC   C4A65034  17.545  26.843   7.404
 4959POPC   C1B65035  17.298  27.143   6.188
 4959POPC   C2B65036  17.091  27.085   6.621
 4959POPC   C3B65037  17.177  27.008   7.069
 4959POPC   C4B65038  17.286  27.286   7.440
 4960POPC   NC365039  41.038  14.609   5.562
 4960POPC   PO465040  41.470  14.154   5.435
 4960POPC   GL165041  41.548  14.291   5.822
 4960POPC   GL265042  41.210  14.255   5.890
 4960POPC   C1A65043  41.549  14.437   6.257
 4960POPC   D2A65044  41.571  14.197   6.636
 4960POPC   C3A65045  41.821  14.357   6.963
 4960POPC   C4A65046  41.687  14.465   7.363
 4960POPC   C1B65047  41.047  14.385   6.262
 4960POPC   C2B65048  41.195  14.564   6.636
 4960POPC   C3B65049  41.276  14.441   7.058
 4960POPC   C4B65050  41.211  14.239   7.475
 4961POPC   NC365051   6.869  13.133   5.574
 4961POPC   PO465052   6.332  12.724   5.451
 4961POPC   GL165053   6.629  12.812   5.877
 4961POPC   GL265054   6.606  13.133   6.002
 4961POPC   C1A65055   6.787  12.843   6.359
 4961POPC   D2A65056   6.550  12.922   6.762
 4961POPC   C3A65057   6.665  12.632   7.111
 4961POPC   C4A65058   6.817  12.660   7.564
 4961POPC   C1B65059   6.987  13.289   6.203
 4961POPC   C2B65060   6.998  13.431   6.598
 4961POPC   C3B65061   6.957  13.202   6.970
 4961POPC   C4B65062   6.899  13.166   7.397
 4962POPC   NC365063  30.399  39.787   5.214
 4962POPC   PO465064  30.973  39.917   5.180
 4962POPC   GL165065  30.891  39.931   5.698
 4962POPC   GL265066  30.574  39.724   5.805
 4962POPC   C1A65067  30.750  40.018   6.192
 4962POPC   D2A65068  30.669  39.888   6.647
 4962POPC   C3A65069  30.800  40.102   7.051
 4962POPC   C4A65070  30.928  40.315   7.456
 4962POPC   C1B65071  30.268  39.796   6.196
 4962POPC   C2B65072  30.164  40.005   6.596
 4962POPC   C3B65073  30.307  39.913   7.033
 4962POPC   C4B65074  30.442  40.059   7.439
 4963POPC   NC365075  40.216  32.781   5.441
 4963POPC   PO465076  39.898  33.298   5.446
 4963POPC   GL165077  40.132  33.192   5.851
 4963POPC   GL265078  40.094  32.897   5.916
 4963POPC   C1A65079  39.910  33.069   6.349
 4963POPC   D2A65080  39.823  32.680   6.657
 4963POPC   C3A65081  39.815  32.762   7.113
 4963POPC   C4A65082  39.902  33.088   7.389
 4963POPC   C1B65083  40.386  32.962   6.247
 4963POPC   C2B65084  40.320  32.793   6.657
 4963POPC   C3B65085  40.336  32.889   7.070
 4963POPC   C4B65086  40.235  32.693   7.441
 4964POPC   NC365087  25.499  32.901   5.382
 4964POPC   PO465088  24.926  33.303   5.461
 4964POPC   GL165089  24.949  33.111   5.859
 4964POPC   GL265090  25.279  33.007   5.836
 4964POPC   C1A65091  25.009  33.177   6.298
 4964POPC   D2A65092  24.991  33.396   6.716
 4964POPC   C3A65093  24.971  33.065   7.030
 4964POPC   C4A65094  24.916  32.620   7.042
 4964POPC   C1B65095  25.488  33.221   6.170
 4964POPC   C2B65096  25.497  33.111   6.577
 4964POPC   C3B65097  25.437  33.275   6.945
 4964POPC   C4B65098  25.374  33.125   7.315
 4965POPC   NC365099  16.374  24.703   5.542
 4965POPC   PO465100  15.841  24.395   5.214
 4965POPC   GL165101  16.010  24.314   5.621
 4965POPC   GL265102  15.671  24.311   5.745
 4965POPC   C1A65103  16.155  24.396   6.063
 4965POPC   D2A65104  16.064  24.520   6.502
 4965POPC   C3A65105  16.362  24.483   6.821
 4965POPC   C4A65106  16.246  24.442   7.256
 4965POPC   C1B65107  15.669  24.503   6.150
 4965POPC   C2B65108  15.486  24.631   6.521
 4965POPC   C3B65109  15.684  24.619   6.885
 4965POPC   C4B65110  15.666  24.456   7.282
 4966POPC   NC365111  29.465   3.580   5.573
 4966POPC   PO465112  28.735   3.700   5.572
 4966POPC   GL165113  29.046   3.456   5.843
 4966POPC   GL265114  29.278   3.137   5.753
 4966POPC   C1A65115  29.016   3.323   6.269
 4966POPC   D2A65116  28.780   3.328   6.644
 4966POPC   C3A65117  28.985   3.473   6.971
 4966POPC   C4A65118  29.335   3.265   7.180
 4966POPC   C1B65119  29.514   3.314   6.128
 4966POPC   C2B65120  29.409   3.660   6.383
 4966POPC   C3B65121  29.427   3.682   6.823
 4966POPC   C4B65122  29.297   3.850   7.223
 4967POPC   NC365123  36.735  30.823   5.248
 4967POPC   PO465124  36.862  30.171   5.439
 4967POPC   GL165125  36.881  30.612   5.723
 4967POPC   GL265126  37.040  30.940   5.739
 4967POPC   C1A65127  36.656  30.822   6.089
 4967POPC   D2A65128  36.647  30.645   6.535
 4967POPC   C3A65129  36.725  30.803   6.978
 4967POPC   C4A65130  36.920  30.976   7.366
 4967POPC   C1B65131  37.138  30.826   6.207
 4967POPC   C2B65132  37.129  30.834   6.664
 4967POPC   C3B65133  37.257  30.718   7.089
 4967POPC   C4B65134  37.148  30.519   7.497
 4968POPC   NC365135  11.750  34.219   5.229
 4968POPC   PO465136  12.150  33.728   5.410
 4968POPC   GL165137  12.110  33.983   5.746
 4968POPC   GL265138  11.826  34.227   5.720
 4968POPC   C1A65139  12.144  33.825   6.177
 4968POPC   D2A65140  12.040  33.656   6.577
 4968POPC   C3A65141  12.257  33.923   6.838
 4968POPC   C4A65142  12.476  33.910   7.224
 4968POPC   C1B65143  11.985  34.316   6.107
 4968POPC   C2B65144  12.001  34.271   6.514
 4968POPC   C3B65145  11.802  34.203   6.878
 4968POPC   C4B65146  12.028  34.160   7.239
 4969POPC   NC365147  19.271  30.233   5.385
 4969POPC   PO465148  18.921  29.665   5.581
 4969POPC   GL165149  19.234  29.747   5.869
 4969POPC   GL265150  19.170  30.096   5.869
 4969POPC   C1A65151  19.188  29.855   6.324
 4969POPC   D2A65152  18.891  30.139   6.587
 4969POPC   C3A65153  18.776  29.892   6.951
 4969POPC   C4A65154  19.125  29.673   7.120
 4969POPC   C1B65155  19.381  30.323   6.200
 4969POPC   C2B65156  19.411  30.199   6.637
 4969POPC   C3B65157  19.222  30.296   7.036
 4969POPC   C4B65158  19.463  30.331   7.425
 4970POPC   NC365159  16.751   9.909   5.240
 4970POPC   PO465160  17.027   9.468   5.661
 4970POPC   GL165161  16.790   9.706   5.881
 4970POPC   GL265162  16.709  10.053   5.764
 4970POPC   C1A65163  16.962   9.819   6.285
 4970POPC   D2A65164  16.951   9.914   6.714
 4970POPC   C3A65165  16.907   9.664   7.040
 4970POPC   C4A65166  17.117   9.927   7.286
 4970POPC   C1B65167  16.477   9.954   6.172
 4970POPC   C2B65168  16.486   9.713   6.577
 4970POPC   C3B65169  16.478   9.928   6.989
 4970POPC   C4B65170  16.661  10.141   7.357
 4971POPC   NC365171  41.483  26.380   5.370
 4971POPC   PO465172  41.341  25.674   5.413
 4971POPC   GL165173  41.540  25.967   5.684
 4971POPC   GL265174  41.270  26.173   5.788
 4971POPC   C1A65175  41.711  25.994   6.090
 4971POPC   D2A65176  41.584  25.821   6.493
 4971POPC   C3A65177  41.841  25.963   6.837
 4971POPC   C4A65178  41.735  26.276   7.164
 4971POPC   C1B65179  41.241  26.120   6.221
 4971POPC   C2B65180  41.260  26.188   6.635
 4971POPC   C3B65181  41.345  25.936   6.976
 4971POPC   C4B65182  41.276  26.022   7.378
 4972POPC   NC365183  34.829   9.793   5.192
 4972POPC   PO465184  35.417   9.414   5.310
 4972POPC   GL165185  35.329   9.564   5.792
 4972POPC   GL265186  35.025   9.765   5.857
 4972POPC   C1A65187  35.483   9.783   6.153
 4972POPC   D2A65188  35.456   9.991   6.548
 4972POPC   C3A65189  35.324   9.677   6.813
 4972POPC   C4A65190  35.404   9.619   7.222
 4972POPC   C1B65191  35.035  10.073   6.219
 4972POPC   C2B65192  34.953  10.063   6.679
 4972POPC   C3B65193  35.088  10.039   7.115
 4972POPC   C4B65194  34.966   9.860   7.513
 4973POPC   NC365195  43.360  13.969   5.094
 4973POPC   PO465196  42.974  13.426   5.285
 4973POPC   GL165197  43.087  13.676   5.658
 4973POPC   GL265198  43.308  13.971   5.602
 4973POPC   C1A65199  43.009  13.548   6.109
 4973POPC   D2A65200  42.777  13.520   6.540
 4973POPC   C3A65201  43.059  13.412   6.888
 4973POPC   C4A65202  43.363  13.638   7.183
 4973POPC   C1B65203  43.195  14.046   6.027
 4973POPC   C2B65204  43.018  13.961   6.427
 4973POPC   C3B65205  43.128  13.969   6.860
 4973POPC   C4B65206  43.501  14.152   7.062
 4974POPC   NC365207  15.904  31.666   5.463
 4974POPC   PO465208  16.304  31.136   5.518
 4974POPC   GL165209  16.004  31.329   5.838
 4974POPC   GL265210  15.663  31.196   5.854
 4974POPC   C1A65211  15.910  31.589   6.234
 4974POPC   D2A65212  15.981  31.714   6.680
 4974POPC   C3A65213  16.138  31.775   7.123
 4974POPC   C4A65214  15.852  31.735   7.516
 4974POPC   C1B65215  15.813  31.084   6.259
 4974POPC   C2B65216  15.683  31.189   6.680
 4974POPC   C3B65217  15.733  31.433   7.052
 4974POPC   C4B65218  16.062  31.298   7.318
 4975POPC   NC365219  39.351   9.279   5.545
 4975POPC   PO465220  39.128   8.682   5.511
 4975POPC   GL165221  38.951   8.817   5.877
 4975POPC   GL265222  38.887   9.150   5.711
 4975POPC   C1A65223  39.074   8.810   6.349
 4975POPC   D2A65224  39.385   9.052   6.576
 4975POPC   C3A65225  39.403   9.183   6.997
 4975POPC   C4A65226  39.470   8.979   7.386
 4975POPC   C1B65227  38.782   9.226   6.136
 4975POPC   C2B65228  38.945   9.293   6.533
 4975POPC   C3B65229  38.933   9.014   6.874
 4975POPC   C4B65230  38.980   9.080   7.317
 4976POPC   NC365231   7.188   0.932   5.488
 4976POPC   PO465232   7.724   1.304   5.507
 4976POPC   GL165233   7.501   1.099   5.884
 4976POPC   GL265234   7.112   1.171   5.927
 4976POPC   C1A65235   7.594   1.117   6.354
 4976POPC   D2A65236   7.619   1.085   6.819
 4976POPC   C3A65237   7.434   1.386   7.144
 4976POPC   C4A65238   7.608   1.478   7.592
 4976POPC   C1B65239   7.173   0.823   6.225
 4976POPC   C2B65240   7.224   0.742   6.663
 4976POPC   C3B65241   7.180   0.936   7.062
 4976POPC   C4B65242   6.803   1.131   7.228
 4977POPC   NC365243  11.177   7.091   5.517
 4977POPC   PO465244  11.359   6.450   5.531
 4977POPC   GL165245  11.169   6.638   5.852
 4977POPC   GL265246  10.824   6.761   5.757
 4977POPC   C1A65247  11.236   6.490   6.260
 4977POPC   D2A65248  11.545   6.283   6.473
 4977POPC   C3A65249  11.502   6.407   6.861
 4977POPC   C4A65250  11.518   6.505   7.250
 4977POPC   C1B65251  10.849   6.817   6.212
 4977POPC   C2B65252  10.961   6.713   6.641
 4977POPC   C3B65253  11.130   6.788   7.030
 4977POPC   C4B65254  11.096   6.634   7.475
 4978POPC   NC365255  23.712   4.690   5.245
 4978POPC   PO465256  23.548   4.084   5.253
 4978POPC   GL165257  23.420   4.302   5.666
 4978POPC   GL265258  23.334   3.976   5.776
 4978POPC   C1A65259  23.569   4.547   6.077
 4978POPC   D2A65260  23.518   4.465   6.545
 4978POPC   C3A65261  23.553   4.628   6.991
 4978POPC   C4A65262  23.878   4.521   7.259
 4978POPC   C1B65263  23.557   4.021   6.165
 4978POPC   C2B65264  23.552   3.951   6.594
 4978POPC   C3B65265  23.676   4.139   6.958
 4978POPC   C4B65266  23.519   4.150   7.358
 4979POPC   NC365267   5.689   6.760   5.522
 4979POPC   PO465268   6.209   6.487   5.225
 4979POPC   GL165269   6.152   6.684   5.728
 4979POPC   GL265270   5.821   6.532   5.944
 4979POPC   C1A65271   6.172   6.755   6.211
 4979POPC   D2A65272   5.931   6.528   6.576
 4979POPC   C3A65273   6.078   6.634   6.998
 4979POPC   C4A65274   6.455   6.916   7.026
 4979POPC   C1B65275   5.489   6.414   6.270
 4979POPC   C2B65276   5.282   6.471   6.692
 4979POPC   C3B65277   5.508   6.417   7.102
 4979POPC   C4B65278   5.475   6.482   7.577
 4980POPC   NC365279  21.687   4.747   5.639
 4980POPC   PO465280  22.069   5.162   5.288
 4980POPC   GL165281  22.025   5.135   5.770
 4980POPC   GL265282  21.685   5.236   5.911
 4980POPC   C1A65283  22.193   4.914   6.170
 4980POPC   D2A65284  22.039   4.809   6.595
 4980POPC   C3A65285  22.332   4.843   6.933
 4980POPC   C4A65286  22.366   4.910   7.381
 4980POPC   C1B65287  21.869   5.297   6.350
 4980POPC   C2B65288  22.235   5.314   6.646
 4980POPC   C3B65289  22.241   5.315   7.103
 4980POPC   C4B65290  21.951   5.200   7.453
 4981POPC   NC365291  33.898   6.439   5.532
 4981POPC   PO465292  33.661   6.999   5.186
 4981POPC   GL165293  33.672   6.930   5.705
 4981POPC   GL265294  33.992   6.847   5.852
 4981POPC   C1A65295  33.607   6.802   6.187
 4981POPC   D2A65296  33.794   6.673   6.620
 4981POPC   C3A65297  33.549   6.399   6.922
 4981POPC   C4A65298  33.628   6.343   7.383
 4981POPC   C1B65299  34.065   6.474   6.185
 4981POPC   C2B65300  34.235   6.330   6.600
 4981POPC   C3B65301  34.070   6.425   7.034
 4981POPC   C4B65302  33.814   6.798   7.184
 4982POPC   NC365303  23.287   5.365   5.019
 4982POPC   PO465304  23.571   5.815   5.421
 4982POPC   GL165305  23.814   5.884   5.792
 4982POPC   GL265306  23.485   5.810   5.928
 4982POPC   C1A65307  23.861   5.958   6.266
 4982POPC   D2A65308  23.825   6.265   6.625
 4982POPC   C3A65309  23.896   6.116   7.055
 4982POPC   C4A65310  23.757   5.936   7.477
 4982POPC   C1B65311  23.459   5.605   6.283
 4982POPC   C2B65312  23.497   5.843   6.654
 4982POPC   C3B65313  23.590   5.697   7.054
 4982POPC   C4B65314  23.604   5.443   7.412
 4983POPC   NC365315   6.267   1.302   5.440
 4983POPC   PO465316   5.607   1.476   5.372
 4983POPC   GL165317   5.845   1.522   5.760
 4983POPC   GL265318   6.009   1.194   5.861
 4983POPC   C1A65319   5.892   1.536   6.215
 4983POPC   D2A65320   6.140   1.239   6.465
 4983POPC   C3A65321   6.043   1.404   6.843
 4983POPC   C4A65322   5.678   1.462   7.099
 4983POPC   C1B65323   6.117   0.836   6.124
 4983POPC   C2B65324   5.935   0.671   6.491
 4983POPC   C3B65325   5.976   0.778   6.926
 4983POPC   C4B65326   6.039   1.110   7.249
 4984POPC   NC365327   6.536  20.840   5.380
 4984POPC   PO465328   6.870  20.229   5.414
 4984POPC   GL165329   6.790  20.434   5.850
 4984POPC   GL265330   6.465  20.613   5.905
 4984POPC   C1A65331   6.610  20.270   6.260
 4984POPC   D2A65332   6.723  20.213   6.679
 4984POPC   C3A65333   6.597  20.503   6.942
 4984POPC   C4A65334   6.593  20.326   7.332
 4984POPC   C1B65335   6.176  20.560   6.271
 4984POPC   C2B65336   6.129  20.521   6.725
 4984POPC   C3B65337   6.153  20.547   7.184
 4984POPC   C4B65338   6.392  20.781   7.472
 4985POPC   NC365339  13.365   6.386   5.231
 4985POPC   PO465340  13.930   6.708   5.419
 4985POPC   GL165341  13.754   6.559   5.779
 4985POPC   GL265342  13.424   6.450   5.734
 4985POPC   C1A65343  13.811   6.595   6.210
 4985POPC   D2A65344  13.790   6.768   6.600
 4985POPC   C3A65345  14.015   6.496   6.851
 4985POPC   C4A65346  13.836   6.514   7.223
 4985POPC   C1B65347  13.338   6.708   6.087
 4985POPC   C2B65348  13.295   6.694   6.524
 4985POPC   C3B65349  13.338   6.560   6.960
 4985POPC   C4B65350  13.267   6.652   7.398
 4986POPC   NC365351  32.532   4.318   5.067
 4986POPC   PO465352  32.027   4.022   5.402
 4986POPC   GL165353  32.271   4.216   5.715
 4986POPC   GL265354  32.232   4.587   5.728
 4986POPC   C1A65355  32.488   4.075   6.112
 4986POPC   D2A65356  32.396   4.227   6.519
 4986POPC   C3A65357  32.383   3.990   6.892
 4986POPC   C4A65358  32.268   4.179   7.294
 4986POPC   C1B65359  32.410   4.586   6.152
 4986POPC   C2B65360  32.619   4.699   6.533
 4986POPC   C3B65361  32.510   4.531   6.935
 4986POPC   C4B65362  32.431   4.655   7.340
 4987POPC   NC365363  11.543  42.432   5.405
 4987POPC   PO465364  10.979  42.209   5.554
 4987POPC   GL165365  11.267  42.347   5.848
 4987POPC   GL265366  11.469  42.052   5.735
 4987POPC   C1A65367  11.372  42.562   6.268
 4987POPC   D2A65368  11.270  42.426   6.690
 4987POPC   C3A65369  11.312  42.560   7.107
 4987POPC   C4A65370  11.103  42.374   7.440
 4987POPC   C1B65371  11.258  41.914   6.119
 4987POPC   C2B65372  11.229  41.901   6.543
 4987POPC   C3B65373  11.109  41.989   6.926
 4987POPC   C4B65374  11.243  41.929   7.275
 4988POPC   NC365375   3.872  16.546   5.396
 4988POPC   PO465376   3.498  17.039   5.418
 4988POPC   GL165377   3.527  16.893   5.818
 4988POPC   GL265378   3.869  16.884   5.830
 4988POPC   C1A65379   3.418  17.050   6.248
 4988POPC   D2A65380   3.471  17.246   6.683
 4988POPC   C3A65381   3.380  16.924   7.025
 4988POPC   C4A65382   3.446  16.490   7.220
 4988POPC   C1B65383   3.926  17.013   6.265
 4988POPC   C2B65384   3.760  16.829   6.673
 4988POPC   C3B65385   3.863  16.765   7.124
 4988POPC   C4B65386   3.753  16.727   7.584
 4989POPC   NC365387  36.548  10.817   5.534
 4989POPC   PO465388  36.783  10.198   5.513
 4989POPC   GL165389  36.997  10.423   5.808
 4989POPC   GL265390  36.738  10.598   5.930
 4989POPC   C1A65391  37.185  10.540   6.190
 4989POPC   D2A65392  37.447  10.659   6.500
 4989POPC   C3A65393  37.288  10.585   6.879
 4989POPC   C4A65394  37.234  10.589   7.309
 4989POPC   C1B65395  36.685  10.391   6.284
 4989POPC   C2B65396  36.788  10.553   6.662
 4989POPC   C3B65397  36.809  10.467   7.079
 4989POPC   C4B65398  36.745  10.716   7.453
 4990POPC   NC365399   1.890   8.206   5.527
 4990POPC   PO465400   2.389   8.637   5.659
 4990POPC   GL165401   2.096   8.430   5.944
 4990POPC   GL265402   2.143   8.063   5.962
 4990POPC   C1A65403   1.967   8.309   6.372
 4990POPC   D2A65404   2.184   8.453   6.737
 4990POPC   C3A65405   2.067   8.202   7.035
 4990POPC   C4A65406   1.648   8.347   7.126
 4990POPC   C1B65407   1.796   7.828   6.117
 4990POPC   C2B65408   1.668   7.865   6.535
 4990POPC   C3B65409   1.699   7.868   6.953
 4990POPC   C4B65410   1.964   7.713   7.224
 4991POPC   NC365411  42.483  32.505   5.345
 4991POPC   PO465412  42.068  31.906   5.374
 4991POPC   GL165413  42.260  31.939   5.793
 4991POPC   GL265414  42.567  31.814   5.869
 4991POPC   C1A65415  42.093  32.029   6.225
 4991POPC   D2A65416  41.926  32.079   6.614
 4991POPC   C3A65417  42.019  32.302   6.987
 4991POPC   C4A65418  41.893  32.089   7.363
 4991POPC   C1B65419  42.553  32.208   6.128
 4991POPC   C2B65420  42.396  32.309   6.563
 4991POPC   C3B65421  42.543  32.403   6.979
 4991POPC   C4B65422  42.730  32.177   7.339
 4992POPC   NC365423  15.479  35.135   5.479
 4992POPC   PO465424  15.075  35.696   5.340
 4992POPC   GL165425  15.255  35.532   5.744
 4992POPC   GL265426  15.396  35.243   5.963
 4992POPC   C1A65427  15.294  35.701   6.154
 4992POPC   D2A65428  15.176  35.515   6.547
 4992POPC   C3A65429  15.226  35.677   6.948
 4992POPC   C4A65430  15.185  35.520   7.387
 4992POPC   C1B65431  15.654  34.924   6.167
 4992POPC   C2B65432  15.402  34.921   6.540
 4992POPC   C3B65433  15.369  35.186   6.889
 4992POPC   C4B65434  15.415  35.061   7.289
 4993POPC   NC365435   5.506  15.037   5.022
 4993POPC   PO465436   5.227  15.388   5.545
 4993POPC   GL165437   5.224  15.364   5.967
 4993POPC   GL265438   5.536  15.314   6.028
 4993POPC   C1A65439   5.175  15.468   6.414
 4993POPC   D2A65440   5.190  15.482   6.883
 4993POPC   C3A65441   5.058  15.151   7.216
 4993POPC   C4A65442   5.107  14.698   7.379
 4993POPC   C1B65443   5.527  15.081   6.411
 4993POPC   C2B65444   5.536  15.096   6.874
 4993POPC   C3B65445   5.544  15.248   7.296
 4993POPC   C4B65446   5.379  15.009   7.677
 4994POPC   NC365447  34.487  29.504   5.384
 4994POPC   PO465448  34.875  29.989   5.631
 4994POPC   GL165449  34.695  29.675   5.841
 4994POPC   GL265450  34.378  29.849   5.746
 4994POPC   C1A65451  34.775  29.651   6.282
 4994POPC   D2A65452  34.632  30.013   6.538
 4994POPC   C3A65453  34.884  30.082   6.865
 4994POPC   C4A65454  34.742  30.068   7.283
 4994POPC   C1B65455  34.317  29.801   6.173
 4994POPC   C2B65456  34.376  29.581   6.610
 4994POPC   C3B65457  34.409  29.773   7.006
 4994POPC   C4B65458  34.302  30.214   6.966
 4995POPC   NC365459  16.062  12.449   5.580
 4995POPC   PO465460  15.694  12.935   5.147
 4995POPC   GL165461  15.709  12.875   5.707
 4995POPC   GL265462  16.030  12.794   5.939
 4995POPC   C1A65463  15.760  13.148   6.121
 4995POPC   D2A65464  16.106  13.108   6.446
 4995POPC   C3A65465  16.034  12.879   6.848
 4995POPC   C4A65466  15.801  13.000   7.218
 4995POPC   C1B65467  15.737  12.602   6.212
 4995POPC   C2B65468  15.916  12.366   6.542
 4995POPC   C3B65469  16.273  12.367   6.813
 4995POPC   C4B65470  16.248  12.444   7.246
 4996POPC   NC365471  29.210  26.413   5.238
 4996POPC   PO465472  29.226  27.044   5.289
 4996POPC   GL165473  29.250  26.944   5.709
 4996POPC   GL265474  29.130  26.621   5.797
 4996POPC   C1A65475  29.170  26.990   6.148
 4996POPC   D2A65476  29.318  26.770   6.506
 4996POPC   C3A65477  29.214  26.961   6.876
 4996POPC   C4A65478  29.276  26.984   7.300
 4996POPC   C1B65479  28.929  26.535   6.236
 4996POPC   C2B65480  28.934  26.540   6.731
 4996POPC   C3B65481  29.174  26.508   7.146
 4996POPC   C4B65482  29.328  26.570   7.597
 4997POPC   NC365483   8.024  43.556   5.412
 4997POPC   PO465484   8.310  44.110   5.233
 4997POPC   GL165485   8.141  44.001   5.690
 4997POPC   GL265486   8.496  43.981   5.832
 4997POPC   C1A65487   7.932  43.957   6.160
 4997POPC   D2A65488   7.910  43.761   6.625
 4997POPC   C3A65489   8.082  43.848   7.063
 4997POPC   C4A65490   8.356  43.664   7.399
 4997POPC   C1B65491   8.425  43.849   6.258
 4997POPC   C2B65492   8.415  43.725   6.686
 4997POPC   C3B65493   8.577  44.001   6.983
 4997POPC   C4B65494   8.539  44.175   7.358
 4998POPC   NC365495  12.371   6.369   5.334
 4998POPC   PO465496  13.005   6.625   5.392
 4998POPC   GL165497  12.906   6.640   5.829
 4998POPC   GL265498  12.602   6.469   5.776
 4998POPC   C1A65499  12.873   6.866   6.255
 4998POPC   D2A65500  12.823   6.712   6.693
 4998POPC   C3A65501  12.863   6.877   7.129
 4998POPC   C4A65502  12.839   6.863   7.604
 4998POPC   C1B65503  12.407   6.720   6.079
 4998POPC   C2B65504  12.345   6.867   6.486
 4998POPC   C3B65505  12.387   6.816   6.920
 4998POPC   C4B65506  12.406   6.697   7.347
 4999POPC   NC365507  38.095  22.523   5.630
 4999POPC   PO465508  38.466  22.966   5.266
 4999POPC   GL165509  38.482  22.870   5.724
 4999POPC   GL265510  38.583  22.566   5.937
 4999POPC   C1A65511  38.395  22.979   6.158
 4999POPC   D2A65512  38.240  22.973   6.581
 4999POPC   C3A65513  38.463  23.095   6.940
 4999POPC   C4A65514  38.286  23.227   7.310
 4999POPC   C1B65515  38.334  22.487   6.324
 4999POPC   C2B65516  38.375  22.522   6.803
 4999POPC   C3B65517  38.329  22.703   7.228
 4999POPC   C4B65518  38.753  22.792   7.416
 5000POPC   NC365519  12.284  25.003   5.384
 5000POPC   PO465520  12.131  25.760   5.574
 5000POPC   GL165521  11.973  25.349   5.778
 5000POPC   GL265522  11.802  25.554   6.011
 5000POPC   C1A65523  12.041  25.096   6.197
 5000POPC   D2A65524  12.209  25.209   6.636
 5000POPC   C3A65525  12.050  25.133   7.046
 5000POPC   C4A65526  12.151  24.955   7.450
 5000POPC   C1B65527  12.054  25.599   6.347
 5000POPC   C2B65528  11.928  25.726   6.726
 5000POPC   C3B65529  11.776  25.562   7.072
 5000POPC   C4B65530  11.986  25.437   7.465
 5001POPC   NC365531  18.801   0.525   5.534
 5001POPC   PO465532  19.246   0.728   5.125
 5001POPC   GL165533  19.253   0.661   5.675
 5001POPC   GL265534  19.289   0.307   5.745
 5001POPC   C1A65535  19.039   0.643   6.121
 5001POPC   D2A65536  19.049   0.840   6.530
 5001POPC   C3A65537  18.912   0.707   6.967
 5001POPC   C4A65538  18.743   0.422   7.303
 5001POPC   C1B65539  19.311   0.222   6.178
 5001POPC   C2B65540  19.046   0.310   6.550
 5001POPC   C3B65541  19.130   0.243   6.988
 5001POPC   C4B65542  19.047  44.956   7.326
 5002POPC   NC365543  12.601  12.676   5.499
 5002POPC   PO465544  12.859  13.306   5.474
 5002POPC   GL165545  12.864  12.971   5.855
 5002POPC   GL265546  12.748  12.586   5.967
 5002POPC   C1A65547  12.813  12.956   6.305
 5002POPC   D2A65548  13.060  12.935   6.635
 5002POPC   C3A65549  12.870  12.862   7.004
 5002POPC   C4A65550  13.095  12.878   7.416
 5002POPC   C1B65551  12.364  12.738   6.192
 5002POPC   C2B65552  12.293  12.859   6.612
 5002POPC   C3B65553  12.351  12.624   6.983
 5002POPC   C4B65554  12.630  12.542   7.302
 5003POPC   NC365555   1.182  29.555   5.579
 5003POPC   PO465556   1.502  30.158   5.365
 5003POPC   GL165557   1.519  30.158   5.795
 5003POPC   GL265558   1.300  29.892   5.938
 5003POPC   C1A65559   1.535  30.247   6.239
 5003POPC   D2A65560   1.217  30.117   6.538
 5003POPC   C3A65561   1.279  30.153   6.968
 5003POPC   C4A65562   1.048  30.354   7.245
 5003POPC   C1B65563   1.218  29.628   6.346
 5003POPC   C2B65564   1.146  29.661   6.834
 5003POPC   C3B65565   1.324  29.741   7.271
 5003POPC   C4B65566   1.536  29.614   7.657
 5004POPC   NC365567  40.993  21.564   4.969
 5004POPC   PO465568  40.675  21.252   5.427
 5004POPC   GL165569  40.769  21.297   5.854
 5004POPC   GL265570  40.798  20.969   5.893
 5004POPC   C1A65571  40.853  21.659   6.183
 5004POPC   D2A65572  40.909  21.526   6.607
 5004POPC   C3A65573  40.889  21.764   6.987
 5004POPC   C4A65574  40.705  21.771   7.382
 5004POPC   C1B65575  40.710  21.083   6.309
 5004POPC   C2B65576  40.966  21.012   6.614
 5004POPC   C3B65577  40.896  21.125   7.003
 5004POPC   C4B65578  40.951  20.870   7.364
 5005POPC   NC365579   2.868  44.520   5.301
 5005POPC   PO465580   2.586   0.106   5.408
 5005POPC   GL165581   2.836  44.849   5.728
 5005POPC   GL265582   2.737  44.500   5.791
 5005POPC   C1A65583   3.010  44.823   6.177
 5005POPC   D2A65584   2.978   0.068   6.572
 5005POPC   C3A65585   2.872  44.829   6.966
 5005POPC   C4A65586   2.503  44.877   7.273
 5005POPC   C1B65587   2.859  44.338   6.203
 5005POPC   C2B65588   2.937  44.434   6.650
 5005POPC   C3B65589   2.607  44.397   6.998
 5005POPC   C4B65590   2.615  44.380   7.459
 5006POPC   NC365591   5.956  21.643   5.402
 5006POPC   PO465592   5.481  21.184   5.537
 5006POPC   GL165593   5.708  21.374   5.882
 5006POPC   GL265594   6.028  21.261   5.805
 5006POPC   C1A65595   5.585  21.546   6.323
 5006POPC   D2A65596   5.548  21.562   6.796
 5006POPC   C3A65597   5.930  21.374   7.001
 5006POPC   C4A65598   6.148  21.316   7.409
 5006POPC   C1B65599   6.090  21.439   6.253
 5006POPC   C2B65600   6.355  21.395   6.621
 5006POPC   C3B65601   6.417  21.556   7.033
 5006POPC   C4B65602   6.487  21.929   7.235
 5007POPC   NC365603  32.487   1.018   5.427
 5007POPC   PO465604  32.023   1.527   5.414
 5007POPC   GL165605  32.008   1.352   5.843
 5007POPC   GL265606  32.356   1.239   5.880
 5007POPC   C1A65607  31.933   1.262   6.302
 5007POPC   D2A65608  32.117   0.985   6.641
 5007POPC   C3A65609  32.223   1.104   7.063
 5007POPC   C4A65610  32.195   1.375   7.434
 5007POPC   C1B65611  32.384   0.923   6.207
 5007POPC   C2B65612  32.567   0.728   6.595
 5007POPC   C3B65613  32.703   0.876   7.038
 5007POPC   C4B65614  32.546   0.985   7.455
 5008POPC   NC365615  43.633  19.244   5.371
 5008POPC   PO465616  44.201  18.902   5.437
 5008POPC   GL165617  43.910  18.886   5.768
 5008POPC   GL265618  43.913  19.206   5.817
 5008POPC   C1A65619  43.951  18.854   6.234
 5008POPC   D2A65620  44.186  18.647   6.599
 5008POPC   C3A65621  44.246  18.980   6.910
 5008POPC   C4A65622  43.875  19.201   7.087
 5008POPC   C1B65623  43.783  19.438   6.176
 5008POPC   C2B65624  43.803  19.419   6.607
 5008POPC   C3B65625  43.727  19.680   6.932
 5008POPC   C4B65626  43.588  19.597   7.316
 5009POPC   NC365627   3.007   1.237   5.502
 5009POPC   PO465628   2.332   1.021   5.577
 5009POPC   GL165629   2.648   1.092   5.854
 5009POPC   GL265630   2.675   1.463   5.865
 5009POPC   C1A65631   2.829   1.121   6.260
 5009POPC   D2A65632   2.655   1.405   6.568
 5009POPC   C3A65633   2.781   1.248   6.942
 5009POPC   C4A65634   2.575   1.018   7.267
 5009POPC   C1B65635   2.975   1.604   6.191
 5009POPC   C2B65636   3.157   1.491   6.564
 5009POPC   C3B65637   3.110   1.666   6.966
 5009POPC   C4B65638   2.864   1.597   7.315
 5010POPC   NC365639  14.570  18.609   5.501
 5010POPC   PO465640  14.022  18.233   5.343
 5010POPC   GL165641  14.202  18.335   5.734
 5010POPC   GL265642  14.115  18.665   5.811
 5010POPC   C1A65643  14.423  18.415   6.156
 5010POPC   D2A65644  14.611  18.593   6.562
 5010POPC   C3A65645  14.537  18.299   6.908
 5010POPC   C4A65646  14.374  18.174   7.299
 5010POPC   C1B65647  13.929  18.549   6.187
 5010POPC   C2B65648  14.108  18.583   6.564
 5010POPC   C3B65649  14.068  18.488   6.985
 5010POPC   C4B65650  13.833  18.708   7.255
 5011POPC   NC365651  42.052  27.994   5.477
 5011POPC   PO465652  42.555  28.390   5.196
 5011POPC   GL165653  42.544  28.418   5.713
 5011POPC   GL265654  42.459  28.081   5.780
 5011POPC   C1A65655  42.435  28.614   6.124
 5011POPC   D2A65656  42.064  28.519   6.413
 5011POPC   C3A65657  42.164  28.300   6.814
 5011POPC   C4A65658  42.252  28.531   7.210
 5011POPC   C1B65659  42.437  28.113   6.214
 5011POPC   C2B65660  42.655  28.269   6.553
 5011POPC   C3B65661  42.854  28.083   6.893
 5011POPC   C4B65662  42.572  28.139   7.230
 5012POPC   NC365663  27.046  23.794   5.561
 5012POPC   PO465664  27.632  23.897   5.240
 5012POPC   GL165665  27.570  23.766   5.685
 5012POPC   GL265666  27.877  23.600   5.831
 5012POPC   C1A65667  27.493  23.715   6.164
 5012POPC   D2A65668  27.631  23.836   6.618
 5012POPC   C3A65669  27.618  23.694   7.082
 5012POPC   C4A65670  27.666  23.917   7.495
 5012POPC   C1B65671  27.972  23.573   6.318
 5012POPC   C2B65672  28.061  23.597   6.806
 5012POPC   C3B65673  28.108  23.764   7.251
 5012POPC   C4B65674  28.030  23.606   7.684
 5013POPC   NC365675  13.423   2.340   5.321
 5013POPC   PO465676  13.743   1.753   5.481
 5013POPC   GL165677  13.774   2.110   5.750
 5013POPC   GL265678  13.429   2.137   5.810
 5013POPC   C1A65679  13.745   2.273   6.190
 5013POPC   D2A65680  13.511   2.139   6.565
 5013POPC   C3A65681  13.678   2.197   6.981
 5013POPC   C4A65682  13.734   2.064   7.408
 5013POPC   C1B65683  13.491   1.804   6.144
 5013POPC   C2B65684  13.272   1.645   6.508
 5013POPC   C3B65685  13.142   1.858   6.870
 5013POPC   C4B65686  13.283   1.813   7.278
 5014POPC   NC365687  43.723  20.914   5.476
 5014POPC   PO465688  43.823  20.279   5.279
 5014POPC   GL165689  43.940  20.372   5.745
 5014POPC   GL265690  43.698  20.310   6.028
 5014POPC   C1A65691  44.092  20.659   6.081
 5014POPC   D2A65692  44.124  20.876   6.490
 5014POPC   C3A65693  44.272  20.691   6.851
 5014POPC   C4A65694  44.095  20.487   7.225
 5014POPC   C1B65695  43.632  20.642   6.345
 5014POPC   C2B65696  43.747  20.639   6.781
 5014POPC   C3B65697  43.563  20.473   7.141
 5014POPC   C4B65698  43.664  20.436   7.558
 5015POPC   NC365699  35.646  22.464   5.124
 5015POPC   PO465700  35.469  21.785   5.178
 5015POPC   GL165701  35.379  22.110   5.534
 5015POPC   GL265702  35.240  22.460   5.534
 5015POPC   C1A65703  35.313  22.034   6.003
 5015POPC   D2A65704  35.287  22.150   6.483
 5015POPC   C3A65705  35.453  22.130   6.932
 5015POPC   C4A65706  35.460  21.909   7.369
 5015POPC   C1B65707  35.227  22.546   6.008
 5015POPC   C2B65708  35.320  22.670   6.447
 5015POPC   C3B65709  35.164  22.568   6.847
 5015POPC   C4B65710  35.202  22.503   7.293
 5016POPC   NC365711  38.868  43.063   5.342
 5016POPC   PO465712  39.543  43.210   5.261
 5016POPC   GL165713  39.517  43.067   5.699
 5016POPC   GL265714  39.185  43.019   5.742
 5016POPC   C1A65715  39.390  43.299   6.116
 5016POPC   D2A65716  39.297  43.133   6.512
 5016POPC   C3A65717  39.272  43.288   6.928
 5016POPC   C4A65718  39.043  43.312   7.287
 5016POPC   C1B65719  39.328  42.780   6.093
 5016POPC   C2B65720  39.478  42.646   6.451
 5016POPC   C3B65721  39.311  42.700   6.836
 5016POPC   C4B65722  39.330  42.877   7.223
 5017POPC   NC365723  30.162   1.179   5.367
 5017POPC   PO465724  29.603   1.520   5.252
 5017POPC   GL165725  29.780   1.392   5.689
 5017POPC   GL265726  29.760   1.085   5.661
 5017POPC   C1A65727  29.982   1.456   6.128
 5017POPC   D2A65728  30.112   1.610   6.572
 5017POPC   C3A65729  29.915   1.385   6.927
 5017POPC   C4A65730  29.944   1.038   7.195
 5017POPC   C1B65731  29.733   1.017   6.090
 5017POPC   C2B65732  29.664   1.117   6.545
 5017POPC   C3B65733  29.434   0.930   6.896
 5017POPC   C4B65734  29.594   0.688   7.265
 5018POPC   NC365735  44.449   8.902   5.507
 5018POPC   PO465736  44.983   9.262   5.341
 5018POPC   GL165737  44.798   9.129   5.791
 5018POPC   GL265738  44.421   9.145   5.939
 5018POPC   C1A65739  44.837   9.126   6.254
 5018POPC   D2A65740  44.814   8.819   6.613
 5018POPC   C3A65741  44.779   9.038   7.016
 5018POPC   C4A65742  44.776   9.248   7.446
 5018POPC   C1B65743  44.469   8.762   6.185
 5018POPC   C2B65744  44.302   8.665   6.584
 5018POPC   C3B65745  44.414   8.652   7.002
 5018POPC   C4B65746  44.381   8.948   7.315
 5019POPC   NC365747  12.264  18.497   5.473
 5019POPC   PO465748  12.220  17.905   5.256
 5019POPC   GL165749  12.313  18.004   5.682
 5019POPC   GL265750  11.972  18.130   5.712
 5019POPC   C1A65751  12.317  18.159   6.135
 5019POPC   D2A65752  12.094  18.238   6.530
 5019POPC   C3A65753  12.223  18.176   6.970
 5019POPC   C4A65754  12.415  18.517   7.186
 5019POPC   C1B65755  11.730  18.390   5.999
 5019POPC   C2B65756  11.696  18.530   6.432
 5019POPC   C3B65757  11.593  18.347   6.818
 5019POPC   C4B65758  11.585  18.507   7.222
 5020POPC   NC365759  11.979   4.300   5.329
 5020POPC   PO465760  12.610   4.331   5.392
 5020POPC   GL165761  12.243   4.263   5.784
 5020POPC   GL265762  11.836   4.227   5.820
 5020POPC   C1A65763  12.108   4.219   6.267
 5020POPC   D2A65764  12.120   4.024   6.724
 5020POPC   C3A65765  12.017   4.288   7.059
 5020POPC   C4A65766  12.208   4.140   7.437
 5020POPC   C1B65767  11.642   4.425   6.173
 5020POPC   C2B65768  11.634   4.642   6.569
 5020POPC   C3B65769  11.446   4.600   6.962
 5020POPC   C4B65770  11.582   4.408   7.320
 5021POPC   NC365771   4.489   8.491   5.440
 5021POPC   PO465772   3.940   8.137   5.230
 5021POPC   GL165773   4.152   8.145   5.658
 5021POPC   GL265774   4.408   7.994   5.776
 5021POPC   C1A65775   4.247   8.378   6.091
 5021POPC   D2A65776   4.211   8.559   6.534
 5021POPC   C3A65777   4.426   8.391   6.910
 5021POPC   C4A65778   4.178   8.358   7.264
 5021POPC   C1B65779   4.139   7.888   6.159
 5021POPC   C2B65780   4.194   8.051   6.592
 5021POPC   C3B65781   4.144   7.859   7.018
 5021POPC   C4B65782   4.195   7.906   7.470
 5022POPC   NC365783  34.116  14.486   5.414
 5022POPC   PO465784  33.548  14.053   5.565
 5022POPC   GL165785  33.759  14.380   5.866
 5022POPC   GL265786  34.135  14.358   5.913
 5022POPC   C1A65787  33.706  14.501   6.343
 5022POPC   D2A65788  33.780  14.286   6.772
 5022POPC   C3A65789  33.519  14.398   7.168
 5022POPC   C4A65790  33.416  14.103   7.539
 5022POPC   C1B65791  34.159  14.691   6.231
 5022POPC   C2B65792  34.082  14.872   6.637
 5022POPC   C3B65793  33.967  14.685   7.018
 5022POPC   C4B65794  33.962  14.444   7.396
 5023POPC   NC365795  12.965  21.710   5.473
 5023POPC   PO465796  13.050  21.077   5.366
 5023POPC   GL165797  13.034  21.238   5.744
 5023POPC   GL265798  12.684  21.315   5.831
 5023POPC   C1A65799  13.130  21.276   6.153
 5023POPC   D2A65800  12.860  21.206   6.476
 5023POPC   C3A65801  13.002  21.301   6.880
 5023POPC   C4A65802  12.679  21.300   7.179
 5023POPC   C1B65803  12.778  21.671   6.126
 5023POPC   C2B65804  12.847  21.795   6.551
 5023POPC   C3B65805  12.738  21.756   6.974
 5023POPC   C4B65806  13.000  21.664   7.322
 5024POPC   NC365807   8.602  17.538   5.263
 5024POPC   PO465808   9.271  17.659   5.272
 5024POPC   GL165809   9.031  17.644   5.678
 5024POPC   GL265810   8.870  17.320   5.765
 5024POPC   C1A65811   9.083  17.579   6.146
 5024POPC   D2A65812   9.210  17.462   6.557
 5024POPC   C3A65813   9.283  17.701   6.923
 5024POPC   C4A65814   9.149  17.459   7.299
 5024POPC   C1B65815   8.614  17.305   6.192
 5024POPC   C2B65816   8.748  17.206   6.632
 5024POPC   C3B65817   8.691  17.320   7.084
 5024POPC   C4B65818   8.642  17.602   7.449
 5025POPC   NC365819  18.588   8.142   5.371
 5025POPC   PO465820  17.947   8.284   5.246
 5025POPC   GL165821  18.067   8.259   5.753
 5025POPC   GL265822  18.443   8.228   5.850
 5025POPC   C1A65823  18.021   8.003   6.151
 5025POPC   D2A65824  18.126   7.969   6.601
 5025POPC   C3A65825  17.930   7.809   6.953
 5025POPC   C4A65826  17.870   8.062   7.269
 5025POPC   C1B65827  18.397   8.320   6.251
 5025POPC   C2B65828  18.578   8.219   6.640
 5025POPC   C3B65829  18.379   8.106   7.049
 5025POPC   C4B65830  18.474   7.966   7.479
 5026POPC   NC365831  26.715   5.688   5.559
 5026POPC   PO465832  26.844   6.327   5.319
 5026POPC   GL165833  26.823   6.173   5.743
 5026POPC   GL265834  27.125   5.985   5.743
 5026POPC   C1A65835  26.695   5.996   6.162
 5026POPC   D2A65836  26.686   5.700   6.526
 5026POPC   C3A65837  26.775   5.824   6.954
 5026POPC   C4A65838  27.009   5.736   7.319
 5026POPC   C1B65839  27.159   6.239   6.132
 5026POPC   C2B65840  27.018   6.144   6.565
 5026POPC   C3B65841  27.215   6.098   6.980
 5026POPC   C4B65842  27.168   6.232   7.417
 5027POPC   NC365843  14.769  15.102   5.298
 5027POPC   PO465844  15.348  14.967   5.279
 5027POPC   GL165845  15.143  15.061   5.661
 5027POPC   GL265846  15.040  14.779   5.820
 5027POPC   C1A65847  15.111  15.197   6.111
 5027POPC   D2A65848  15.189  14.999   6.518
 5027POPC   C3A65849  15.302  15.200   6.915
 5027POPC   C4A65850  15.409  15.081   7.327
 5027POPC   C1B65851  14.784  14.807   6.195
 5027POPC   C2B65852  14.665  15.041   6.588
 5027POPC   C3B65853  14.814  15.031   7.006
 5027POPC   C4B65854  14.935  14.981   7.419
 5028POPC   NC365855  42.435  11.563   5.359
 5028POPC   PO465856  42.105  10.961   5.430
 5028POPC   GL165857  42.150  11.318   5.703
 5028POPC   GL265858  42.449  11.275   5.836
 5028POPC   C1A65859  42.168  11.650   6.041
 5028POPC   D2A65860  42.024  11.725   6.468
 5028POPC   C3A65861  42.264  11.674   6.846
 5028POPC   C4A65862  42.258  11.479   7.232
 5028POPC   C1B65863  42.326  11.220   6.277
 5028POPC   C2B65864  42.386  11.190   6.711
 5028POPC   C3B65865  42.378  11.011   7.119
 5028POPC   C4B65866  42.251  10.827   7.485
 5029POPC   NC365867   9.993  17.474   5.675
 5029POPC   PO465868  10.609  17.561   5.411
 5029POPC   GL165869  10.464  17.512   5.838
 5029POPC   GL265870  10.381  17.179   5.824
 5029POPC   C1A65871  10.326  17.669   6.277
 5029POPC   D2A65872  10.164  17.538   6.701
 5029POPC   C3A65873  10.491  17.595   7.046
 5029POPC   C4A65874  10.746  17.973   7.199
 5029POPC   C1B65875  10.320  17.166   6.262
 5029POPC   C2B65876  10.552  17.213   6.651
 5029POPC   C3B65877  10.395  17.094   7.027
 5029POPC   C4B65878  10.457  17.224   7.452
 5030POPC   NC365879  23.752  19.860   5.367
 5030POPC   PO465880  24.238  19.608   5.417
 5030POPC   GL165881  24.020  19.800   5.823
 5030POPC   GL265882  23.760  20.058   5.861
 5030POPC   C1A65883  23.943  19.817   6.304
 5030POPC   D2A65884  23.727  19.636   6.689
 5030POPC   C3A65885  23.937  19.574   7.110
 5030POPC   C4A65886  23.741  19.546   7.530
 5030POPC   C1B65887  23.544  20.155   6.259
 5030POPC   C2B65888  23.558  20.126   6.729
 5030POPC   C3B65889  23.496  19.879   7.140
 5030POPC   C4B65890  23.352  19.877   7.605
 5031POPC   NC365891  23.404  27.069   5.510
 5031POPC   PO465892  23.983  26.805   5.237
 5031POPC   GL165893  23.924  26.786   5.734
 5031POPC   GL265894  23.630  26.899   5.928
 5031POPC   C1A65895  24.035  26.796   6.226
 5031POPC   D2A65896  23.920  27.005   6.658
 5031POPC   C3A65897  23.870  26.791   7.087
 5031POPC   C4A65898  24.224  26.542   7.276
 5031POPC   C1B65899  23.345  27.182   6.187
 5031POPC   C2B65900  23.261  27.179   6.642
 5031POPC   C3B65901  23.526  27.210   7.045
 5031POPC   C4B65902  23.576  27.154   7.501
 5032POPC   NC365903  15.361   3.529   5.351
 5032POPC   PO465904  14.847   3.790   5.176
 5032POPC   GL165905  15.126   3.575   5.754
 5032POPC   GL265906  15.474   3.669   5.849
 5032POPC   C1A65907  15.113   3.706   6.224
 5032POPC   D2A65908  15.213   3.723   6.654
 5032POPC   C3A65909  14.985   3.548   6.987
 5032POPC   C4A65910  15.120   3.501   7.414
 5032POPC   C1B65911  15.604   3.875   6.272
 5032POPC   C2B65912  15.610   4.029   6.732
 5032POPC   C3B65913  15.475   3.815   7.132
 5032POPC   C4B65914  15.541   3.781   7.608
 5033POPC   NC365915  40.474  41.304   5.615
 5033POPC   PO465916  40.008  41.630   5.157
 5033POPC   GL165917  39.877  41.726   5.641
 5033POPC   GL265918  39.607  41.993   5.691
 5033POPC   C1A65919  40.092  41.669   6.073
 5033POPC   D2A65920  40.250  41.436   6.423
 5033POPC   C3A65921  40.126  41.520   6.839
 5033POPC   C4A65922  39.926  41.281   7.100
 5033POPC   C1B65923  39.617  41.810   6.097
 5033POPC   C2B65924  39.794  41.711   6.505
 5033POPC   C3B65925  39.641  41.724   6.929
 5033POPC   C4B65926  39.537  41.530   7.326
 5034POPC   NC365927  18.498  25.659   5.267
 5034POPC   PO465928  18.079  25.098   5.265
 5034POPC   GL165929  18.232  25.160   5.730
 5034POPC   GL265930  18.517  25.393   5.718
 5034POPC   C1A65931  18.348  25.184   6.207
 5034POPC   D2A65932  18.492  24.954   6.589
 5034POPC   C3A65933  18.435  25.088   7.016
 5034POPC   C4A65934  18.306  25.061   7.453
 5034POPC   C1B65935  18.557  25.651   6.095
 5034POPC   C2B65936  18.408  25.662   6.516
 5034POPC   C3B65937  18.654  25.674   6.876
 5034POPC   C4B65938  18.696  25.455   7.270
 5035POPC   NC365939  44.209  30.405   5.502
 5035POPC   PO465940  43.652  30.840   5.414
 5035POPC   GL165941  43.939  30.755   5.734
 5035POPC   GL265942  43.706  30.519   5.814
 5035POPC   C1A65943  44.028  30.665   6.170
 5035POPC   D2A65944  44.018  30.383   6.518
 5035POPC   C3A65945  43.982  30.615   6.858
 5035POPC   C4A65946  44.171  30.871   7.173
 5035POPC   C1B65947  43.449  30.615   6.152
 5035POPC   C2B65948  43.524  30.693   6.538
 5035POPC   C3B65949  43.446  30.732   6.923
 5035POPC   C4B65950  43.682  30.651   7.248
 5036POPC   NC365951  31.089   4.729   5.689
 5036POPC   PO465952  31.504   5.173   5.391
 5036POPC   GL165953  31.363   5.217   5.809
 5036POPC   GL265954  31.221   5.556   5.886
 5036POPC   C1A65955  31.514   4.965   6.183
 5036POPC   D2A65956  31.750   5.062   6.557
 5036POPC   C3A65957  31.573   4.954   6.952
 5036POPC   C4A65958  31.612   5.251   7.231
 5036POPC   C1B65959  31.395   5.456   6.301
 5036POPC   C2B65960  31.486   5.488   6.768
 5036POPC   C3B65961  31.365   5.678   7.191
 5036POPC   C4B65962  31.433   5.478   7.674
 5037POPC   NC365963  10.264   9.972   5.445
 5037POPC   PO465964  10.866   9.763   5.434
 5037POPC   GL165965  10.599   9.866   5.811
 5037POPC   GL265966  10.754   9.657   6.044
 5037POPC   C1A65967  10.380   9.995   6.203
 5037POPC   D2A65968  10.542   9.829   6.608
 5037POPC   C3A65969  10.396   9.933   7.025
 5037POPC   C4A65970  10.660  10.041   7.370
 5037POPC   C1B65971  10.375   9.485   6.192
 5037POPC   C2B65972  10.251   9.399   6.594
 5037POPC   C3B65973  10.446   9.418   6.987
 5037POPC   C4B65974  10.697   9.558   7.336
 5038POPC   NC365975  10.133  11.186   5.519
 5038POPC   PO465976  10.688  11.385   5.430
 5038POPC   GL165977  10.703  11.445   5.864
 5038POPC   GL265978  10.458  11.186   5.912
 5038POPC   C1A65979  10.496  11.561   6.261
 5038POPC   D2A65980  10.383  11.337   6.634
 5038POPC   C3A65981  10.423  11.562   6.977
 5038POPC   C4A65982  10.311  11.335   7.331
 5038POPC   C1B65983  10.655  11.061   6.284
 5038POPC   C2B65984  10.555  10.843   6.653
 5038POPC   C3B65985  10.440  10.940   7.053
 5038POPC   C4B65986  10.656  10.990   7.484
 5039POPC   NC365987   1.435  44.182   5.575
 5039POPC   PO465988   1.092  43.659   5.566
 5039POPC   GL165989   1.187  43.898   5.935
 5039POPC   GL265990   0.979  44.207   5.875
 5039POPC   C1A65991   1.325  44.194   6.280
 5039POPC   D2A65992   1.453  44.259   6.723
 5039POPC   C3A65993   1.692  43.918   6.900
 5039POPC   C4A65994   1.642  43.682   7.296
 5039POPC   C1B65995   0.851  44.000   6.304
 5039POPC   C2B65996   1.111  43.844   6.677
 5039POPC   C3B65997   1.232  43.942   7.125
 5039POPC   C4B65998   1.037  43.757   7.503
 5040POPC   NC365999  20.365  39.891   5.476
 5040POPC   PO466000  20.565  39.232   5.355
 5040POPC   GL166001  20.723  39.186   5.776
 5040POPC   GL266002  20.403  39.120   5.914
 5040POPC   C1A66003  20.819  39.231   6.249
 5040POPC   D2A66004  20.772  39.291   6.712
 5040POPC   C3A66005  20.642  39.162   7.153
 5040POPC   C4A66006  20.300  39.351   7.418
 5040POPC   C1B66007  20.433  38.900   6.315
 5040POPC   C2B66008  20.585  38.814   6.723
 5040POPC   C3B66009  20.467  38.683   7.102
 5040POPC   C4B66010  20.344  38.860   7.506
 5041POPC   NC366011  23.249  34.278   5.377
 5041POPC   PO466012  23.942  34.574   5.446
 5041POPC   GL166013  23.816  34.463   5.881
 5041POPC   GL266014  23.592  34.182   5.826
 5041POPC   C1A66015  23.923  34.515   6.342
 5041POPC   D2A66016  23.984  34.752   6.748
 5041POPC   C3A66017  23.696  34.750   7.103
 5041POPC   C4A66018  23.735  34.455   7.436
 5041POPC   C1B66019  23.368  34.437   6.155
 5041POPC   C2B66020  23.468  34.478   6.603
 5041POPC   C3B66021  23.559  34.279   6.989
 5041POPC   C4B66022  23.383  34.092   7.347
 5042POPC   NC366023  13.312  23.242   5.435
 5042POPC   PO466024  12.680  22.844   5.369
 5042POPC   GL166025  12.929  22.826   5.723
 5042POPC   GL266026  12.844  23.167   5.783
 5042POPC   C1A66027  13.092  22.875   6.150
 5042POPC   D2A66028  12.937  22.842   6.571
 5042POPC   C3A66029  13.110  22.607   6.925
 5042POPC   C4A66030  12.892  22.579   7.313
 5042POPC   C1B66031  12.833  23.352   6.194
 5042POPC   C2B66032  12.706  23.279   6.641
 5042POPC   C3B66033  12.768  23.192   7.100
 5042POPC   C4B66034  12.899  23.281   7.564
 5043POPC   NC366035  43.485   9.141   5.618
 5043POPC   PO466036  42.775   8.906   5.592
 5043POPC   GL166037  43.080   8.949   5.912
 5043POPC   GL266038  43.011   9.201   6.148
 5043POPC   C1A66039  43.263   8.777   6.305
 5043POPC   D2A66040  43.365   8.889   6.731
 5043POPC   C3A66041  43.089   8.668   7.043
 5043POPC   C4A66042  43.077   8.787   7.443
 5043POPC   C1B66043  43.447   9.256   6.241
 5043POPC   C2B66044  43.398   9.441   6.605
 5043POPC   C3B66045  43.117   9.317   6.925
 5043POPC   C4B66046  42.978   9.259   7.327
 5044POPC   NC366047   9.520   6.262   5.249
 5044POPC   PO466048   9.805   5.572   5.328
 5044POPC   GL166049   9.974   5.691   5.773
 5044POPC   GL266050  10.135   6.053   5.849
 5044POPC   C1A66051   9.839   5.827   6.219
 5044POPC   D2A66052   9.499   6.079   6.467
 5044POPC   C3A66053   9.611   6.040   6.899
 5044POPC   C4A66054   9.677   5.687   7.159
 5044POPC   C1B66055  10.344   6.067   6.194
 5044POPC   C2B66056  10.185   6.043   6.584
 5044POPC   C3B66057  10.065   6.274   6.947
 5044POPC   C4B66058  10.009   6.072   7.270
 5045POPC   NC366059  43.912  27.120   5.362
 5045POPC   PO466060  43.748  27.741   5.434
 5045POPC   GL166061  43.802  27.469   5.767
 5045POPC   GL266062  44.162  27.560   5.837
 5045POPC   C1A66063  43.822  27.496   6.216
 5045POPC   D2A66064  43.893  27.721   6.579
 5045POPC   C3A66065  43.975  27.466   6.943
 5045POPC   C4A66066  43.613  27.383   7.188
 5045POPC   C1B66067  44.127  27.943   6.138
 5045POPC   C2B66068  44.171  28.153   6.540
 5045POPC   C3B66069  44.246  27.895   6.911
 5045POPC   C4B66070  44.237  28.012   7.324
 5046POPC   NC366071  30.590  33.780   5.301
 5046POPC   PO466072  31.279  33.884   5.394
 5046POPC   GL166073  30.950  33.739   5.649
 5046POPC   GL266074  30.871  34.069   5.697
 5046POPC   C1A66075  30.842  33.661   6.062
 5046POPC   D2A66076  30.917  33.736   6.484
 5046POPC   C3A66077  30.696  33.554   6.833
 5046POPC   C4A66078  30.422  33.759   7.135
 5046POPC   C1B66079  30.744  34.186   6.115
 5046POPC   C2B66080  30.857  34.276   6.539
 5046POPC   C3B66081  30.781  34.069   6.892
 5046POPC   C4B66082  30.643  34.197   7.249
 5047POPC   NC366083  18.683  36.266   5.076
 5047POPC   PO466084  18.908  35.925   5.566
 5047POPC   GL166085  19.181  36.071   5.859
 5047POPC   GL266086  18.881  36.098   6.061
 5047POPC   C1A66087  19.286  36.350   6.213
 5047POPC   D2A66088  19.086  36.297   6.575
 5047POPC   C3A66089  19.299  36.427   6.913
 5047POPC   C4A66090  19.224  36.215   7.279
 5047POPC   C1B66091  18.643  36.400   6.255
 5047POPC   C2B66092  18.690  36.597   6.619
 5047POPC   C3B66093  18.803  36.448   7.019
 5047POPC   C4B66094  18.857  36.504   7.469
 5048POPC   NC366095   7.391  38.484   5.321
 5048POPC   PO466096   7.379  39.087   5.492
 5048POPC   GL166097   7.554  38.719   5.759
 5048POPC   GL266098   7.434  38.357   5.802
 5048POPC   C1A66099   7.666  38.591   6.186
 5048POPC   D2A66100   7.465  38.656   6.574
 5048POPC   C3A66101   7.558  38.427   6.916
 5048POPC   C4A66102   7.596  38.592   7.289
 5048POPC   C1B66103   7.189  38.417   6.174
 5048POPC   C2B66104   7.198  38.216   6.582
 5048POPC   C3B66105   7.262  38.023   6.969
 5048POPC   C4B66106   7.151  38.220   7.328
 5049POPC   NC366107  39.488  12.470   5.494
 5049POPC   PO466108  39.935  12.008   5.266
 5049POPC   GL166109  40.050  12.187   5.690
 5049POPC   GL266110  40.033  11.879   5.844
 5049POPC   C1A66111  40.049  12.282   6.174
 5049POPC   D2A66112  39.773  12.138   6.543
 5049POPC   C3A66113  39.870  12.284   6.977
 5049POPC   C4A66114  40.242  12.246   7.228
 5049POPC   C1B66115  40.059  11.746   6.258
 5049POPC   C2B66116  40.251  11.928   6.621
 5049POPC   C3B66117  40.138  11.805   7.006
 5049POPC   C4B66118  39.788  11.863   7.276
 5050POPC   NC366119  17.812   6.861   5.406
 5050POPC   PO466120  17.357   6.451   5.479
 5050POPC   GL166121  17.590   6.615   5.807
 5050POPC   GL266122  17.649   6.262   5.887
 5050POPC   C1A66123  17.807   6.831   6.172
 5050POPC   D2A66124  17.893   7.012   6.602
 5050POPC   C3A66125  17.764   6.752   6.985
 5050POPC   C4A66126  17.752   6.701   7.458
 5050POPC   C1B66127  17.519   6.400   6.253
 5050POPC   C2B66128  17.352   6.188   6.531
 5050POPC   C3B66129  17.595   6.258   6.855
 5050POPC   C4B66130  17.415   6.408   7.210
 5051POPC   NC366131   4.793  43.371   5.559
 5051POPC   PO466132   4.513  42.777   5.266
 5051POPC   GL166133   4.411  42.998   5.703
 5051POPC   GL266134   4.675  43.017   5.922
 5051POPC   C1A66135   4.202  43.091   6.102
 5051POPC   D2A66136   4.267  42.961   6.501
 5051POPC   C3A66137   4.076  43.134   6.844
 5051POPC   C4A66138   4.222  43.013   7.265
 5051POPC   C1B66139   4.609  43.379   6.200
 5051POPC   C2B66140   4.430  43.448   6.598
 5051POPC   C3B66141   4.510  43.338   6.997
 5051POPC   C4B66142   4.555  43.494   7.391
 5052POPC   NC366143  20.210  44.029   5.134
 5052POPC   PO466144  19.629  44.239   5.359
 5052POPC   GL166145  19.846  44.028   5.662
 5052POPC   GL266146  20.165  44.168   5.646
 5052POPC   C1A66147  19.758  43.837   6.074
 5052POPC   D2A66148  19.950  43.821   6.495
 5052POPC   C3A66149  19.753  43.887   6.933
 5052POPC   C4A66150  19.709  43.784   7.389
 5052POPC   C1B66151  20.229  44.031   6.072
 5052POPC   C2B66152  20.246  44.222   6.463
 5052POPC   C3B66153  20.244  44.014   6.874
 5052POPC   C4B66154  20.115  44.075   7.268
 5053POPC   NC366155  34.488   4.599   5.329
 5053POPC   PO466156  34.792   4.029   5.584
 5053POPC   GL166157  34.768   4.255   5.920
 5053POPC   GL266158  34.651   4.569   5.822
 5053POPC   C1A66159  34.664   4.139   6.319
 5053POPC   D2A66160  34.390   4.259   6.606
 5053POPC   C3A66161  34.519   4.158   7.015
 5053POPC   C4A66162  34.918   4.033   7.223
 5053POPC   C1B66163  34.351   4.568   6.172
 5053POPC   C2B66164  34.037   4.619   6.543
 5053POPC   C3B66165  34.225   4.611   6.951
 5053POPC   C4B66166  34.628   4.645   7.165
 5054POPC   NC366167  20.312  11.279   5.504
 5054POPC   PO466168  21.032  11.312   5.432
 5054POPC   GL166169  20.753  11.267   5.795
 5054POPC   GL266170  20.620  11.618   5.740
 5054POPC   C1A66171  20.473  11.224   6.192
 5054POPC   D2A66172  20.296  11.004   6.584
 5054POPC   C3A66173  20.439  11.092   6.987
 5054POPC   C4A66174  20.242  11.072   7.419
 5054POPC   C1B66175  20.726  11.669   6.177
 5054POPC   C2B66176  20.783  11.467   6.576
 5054POPC   C3B66177  20.592  11.621   6.953
 5054POPC   C4B66178  20.448  11.516   7.347
 5055POPC   NC366179  17.419  23.193   5.588
 5055POPC   PO466180  17.546  22.555   5.439
 5055POPC   GL166181  17.724  22.771   5.860
 5055POPC   GL266182  17.666  23.105   6.022
 5055POPC   C1A66183  17.622  22.653   6.306
 5055POPC   D2A66184  17.243  22.520   6.544
 5055POPC   C3A66185  17.166  22.668   6.985
 5055POPC   C4A66186  17.471  22.593   7.284
 5055POPC   C1B66187  17.279  23.009   6.258
 5055POPC   C2B66188  17.387  22.999   6.670
 5055POPC   C3B66189  17.583  23.060   7.073
 5055POPC   C4B66190  17.305  23.038   7.424
 5056POPC   NC366191  39.598   0.207   5.536
 5056POPC   PO466192  40.170   0.636   5.467
 5056POPC   GL166193  39.866   0.560   5.840
 5056POPC   GL266194  39.771   0.209   5.996
 5056POPC   C1A66195  39.778   0.658   6.298
 5056POPC   D2A66196  39.781   0.821   6.711
 5056POPC   C3A66197  39.928   0.544   6.991
 5056POPC   C4A66198  39.617   0.467   7.260
 5056POPC   C1B66199  40.107   0.237   6.254
 5056POPC   C2B66200  40.011   0.119   6.674
 5056POPC   C3B66201  39.806   0.042   7.058
 5056POPC   C4B66202  40.014   0.231   7.430
 5057POPC   NC366203  32.573  43.131   5.466
 5057POPC   PO466204  31.930  43.102   5.243
 5057POPC   GL166205  32.116  43.343   5.599
 5057POPC   GL266206  31.810  43.488   5.649
 5057POPC   C1A66207  32.339  43.452   6.050
 5057POPC   D2A66208  32.583  43.372   6.483
 5057POPC   C3A66209  32.412  43.228   6.909
 5057POPC   C4A66210  32.450  43.101   7.379
 5057POPC   C1B66211  31.884  43.223   6.058
 5057POPC   C2B66212  32.066  43.300   6.491
 5057POPC   C3B66213  31.914  43.143   6.897
 5057POPC   C4B66214  31.951  43.218   7.327
 5058POPC   NC366215  11.031  19.575   5.313
 5058POPC   PO466216  11.533  19.903   5.421
 5058POPC   GL166217  11.273  19.784   5.757
 5058POPC   GL266218  11.059  20.025   5.868
 5058POPC   C1A66219  11.399  19.656   6.181
 5058POPC   D2A66220  11.651  19.859   6.529
 5058POPC   C3A66221  11.426  19.674   6.847
 5058POPC   C4A66222  11.434  19.675   7.269
 5058POPC   C1B66223  11.381  20.168   6.139
 5058POPC   C2B66224  11.182  20.053   6.506
 5058POPC   C3B66225  11.168  20.097   6.924
 5058POPC   C4B66226  10.961  19.839   7.173
 5059POPC   NC366227  37.986  34.502   5.282
 5059POPC   PO466228  37.345  34.406   5.368
 5059POPC   GL166229  37.592  34.566   5.736
 5059POPC   GL266230  37.939  34.725   5.792
 5059POPC   C1A66231  37.460  34.530   6.177
 5059POPC   D2A66232  37.597  34.273   6.508
 5059POPC   C3A66233  37.502  34.398   6.938
 5059POPC   C4A66234  37.757  34.289   7.282
 5059POPC   C1B66235  37.799  34.890   6.201
 5059POPC   C2B66236  37.737  34.761   6.630
 5059POPC   C3B66237  37.840  34.765   7.088
 5059POPC   C4B66238  37.532  34.742   7.362
 5060POPC   NC366239  38.639   9.446   5.370
 5060POPC   PO466240  38.623   8.784   5.280
 5060POPC   GL166241  38.452   8.885   5.687
 5060POPC   GL266242  38.373   9.215   5.796
 5060POPC   C1A66243  38.398   8.777   6.117
 5060POPC   D2A66244  38.599   8.888   6.494
 5060POPC   C3A66245  38.445   8.766   6.867
 5060POPC   C4A66246  38.176   8.816   7.202
 5060POPC   C1B66247  38.286   9.244   6.265
 5060POPC   C2B66248  38.464   9.372   6.689
 5060POPC   C3B66249  38.505   9.206   7.127
 5060POPC   C4B66250  38.553   9.088   7.595
 5061POPC   NC366251  41.064  26.953   5.134
 5061POPC   PO466252  41.650  26.817   5.282
 5061POPC   GL166253  41.486  26.816   5.710
 5061POPC   GL266254  41.165  26.664   5.703
 5061POPC   C1A66255  41.566  26.967   6.167
 5061POPC   D2A66256  41.832  26.906   6.570
 5061POPC   C3A66257  41.670  26.791   6.976
 5061POPC   C4A66258  41.397  26.981   7.277
 5061POPC   C1B66259  41.088  26.688   6.176
 5061POPC   C2B66260  41.160  26.720   6.656
 5061POPC   C3B66261  41.278  26.474   7.052
 5061POPC   C4B66262  41.388  26.497   7.499
 5062POPC   NC366263  31.175   0.333   5.550
 5062POPC   PO466264  30.619   0.441   5.157
 5062POPC   GL166265  30.711   0.469   5.679
 5062POPC   GL266266  30.799   0.169   5.927
 5062POPC   C1A66267  30.633   0.574   6.140
 5062POPC   D2A66268  30.702   0.240   6.471
 5062POPC   C3A66269  30.903   0.363   6.851
 5062POPC   C4A66270  30.869   0.679   7.125
 5062POPC   C1B66271  30.332   0.166   6.092
 5062POPC   C2B66272  30.179   0.303   6.527
 5062POPC   C3B66273  30.226   0.120   6.912
 5062POPC   C4B66274  30.532   0.250   7.184
 5063POPC   NC366275  14.613   8.583   5.420
 5063POPC   PO466276  14.186   8.111   5.067
 5063POPC   GL166277  14.311   8.209   5.567
 5063POPC   GL266278  14.149   8.448   5.701
 5063POPC   C1A66279  14.525   8.225   5.998
 5063POPC   D2A66280  14.453   8.329   6.458
 5063POPC   C3A66281  14.463   8.142   6.902
 5063POPC   C4A66282  14.638   8.090   7.340
 5063POPC   C1B66283  14.037   8.311   6.124
 5063POPC   C2B66284  13.924   8.343   6.558
 5063POPC   C3B66285  14.057   8.456   6.946
 5063POPC   C4B66286  14.132   8.197   7.298
 5064POPC   NC366287  44.335   6.965   5.532
 5064POPC   PO466288   0.013   6.890   5.515
 5064POPC   GL166289  44.715   6.739   5.800
 5064POPC   GL266290  44.536   6.427   5.663
 5064POPC   C1A66291  44.689   6.850   6.230
 5064POPC   D2A66292  44.925   6.773   6.608
 5064POPC   C3A66293  44.625   6.878   6.869
 5064POPC   C4A66294  44.511   6.854   7.278
 5064POPC   C1B66295  44.625   6.329   6.105
 5064POPC   C2B66296  44.518   6.463   6.536
 5064POPC   C3B66297  44.622   6.373   6.961
 5064POPC   C4B66298  44.605   6.301   7.377
 5065POPC   NC366299  18.363  44.034   5.236
 5065POPC   PO466300  18.075  43.539   5.258
 5065POPC   GL166301  18.233  43.559   5.687
 5065POPC   GL266302  18.449  43.879   5.733
 5065POPC   C1A66303  18.076  43.747   6.073
 5065POPC   D2A66304  18.230  43.830   6.476
 5065POPC   C3A66305  18.286  43.748   6.907
 5065POPC   C4A66306  18.095  43.914   7.261
 5065POPC   C1B66307  18.569  44.054   6.146
 5065POPC   C2B66308  18.586  44.167   6.590
 5065POPC   C3B66309  18.453  44.228   7.033
 5065POPC   C4B66310  18.449  44.246   7.498
 5066POPC   NC366311  41.838   6.496   5.217
 5066POPC   PO466312  41.674   7.077   5.377
 5066POPC   GL166313  41.754   6.804   5.755
 5066POPC   GL266314  41.838   6.414   5.808
 5066POPC   C1A66315  41.644   6.795   6.197
 5066POPC   D2A66316  41.854   6.679   6.564
 5066POPC   C3A66317  41.773   6.860   6.959
 5066POPC   C4A66318  42.031   7.101   7.253
 5066POPC   C1B66319  41.568   6.293   6.226
 5066POPC   C2B66320  41.405   6.410   6.670
 5066POPC   C3B66321  41.411   6.533   7.127
 5066POPC   C4B66322  41.787   6.627   7.415
 5067POPC   NC366323  42.407  23.410   5.155
 5067POPC   PO466324  42.231  24.070   5.355
 5067POPC   GL166325  42.321  23.839   5.757
 5067POPC   GL266326  42.285  23.507   5.653
 5067POPC   C1A66327  42.483  23.771   6.208
 5067POPC   D2A66328  42.374  23.824   6.652
 5067POPC   C3A66329  42.553  23.828   7.101
 5067POPC   C4A66330  42.285  23.788   7.494
 5067POPC   C1B66331  42.241  23.316   6.053
 5067POPC   C2B66332  42.041  23.304   6.444
 5067POPC   C3B66333  42.046  23.139   6.848
 5067POPC   C4B66334  42.272  23.390   7.136
 5068POPC   NC366335  42.331  28.785   5.371
 5068POPC   PO466336  42.619  29.488   5.267
 5068POPC   GL166337  42.454  29.314   5.736
 5068POPC   GL266338  42.126  29.437   5.864
 5068POPC   C1A66339  42.523  29.384   6.220
 5068POPC   D2A66340  42.613  29.618   6.650
 5068POPC   C3A66341  42.657  29.382   7.044
 5068POPC   C4A66342  42.728  28.961   7.204
 5068POPC   C1B66343  41.972  29.307   6.299
 5068POPC   C2B66344  42.098  28.986   6.634
 5068POPC   C3B66345  42.177  29.042   7.084
 5068POPC   C4B66346  42.157  29.490   7.064
 5069POPC   NC366347  39.233   5.256   5.116
 5069POPC   PO466348  39.209   5.939   5.320
 5069POPC   GL166349  39.079   5.966   5.759
 5069POPC   GL266350  38.805   5.792   5.764
 5069POPC   C1A66351  39.221   6.010   6.203
 5069POPC   D2A66352  39.286   6.155   6.632
 5069POPC   C3A66353  39.511   5.870   6.884
 5069POPC   C4A66354  39.295   5.782   7.225
 5069POPC   C1B66355  38.818   5.678   6.187
 5069POPC   C2B66356  38.808   5.929   6.555
 5069POPC   C3B66357  38.840   5.896   6.988
 5069POPC   C4B66358  38.814   5.694   7.395
 5070POPC   NC366359  19.647  11.542   5.493
 5070POPC   PO466360  19.973  10.973   5.488
 5070POPC   GL166361  19.839  11.179   5.835
 5070POPC   GL266362  19.977  11.515   5.890
 5070POPC   C1A66363  19.942  11.188   6.270
 5070POPC   D2A66364  19.800  11.166   6.682
 5070POPC   C3A66365  20.018  11.389   7.007
 5070POPC   C4A66366  19.788  11.065   7.204
 5070POPC   C1B66367  19.558  11.508   6.151
 5070POPC   C2B66368  19.365  11.448   6.585
 5070POPC   C3B66369  19.488  11.463   7.009
 5070POPC   C4B66370  19.692  11.525   7.392
 5071POPC   NC366371   5.983  13.159   5.450
 5071POPC   PO466372   5.583  13.785   5.457
 5071POPC   GL166373   5.820  13.677   5.867
 5071POPC   GL266374   6.016  13.348   5.940
 5071POPC   C1A66375   5.986  13.715   6.295
 5071POPC   D2A66376   5.790  13.588   6.722
 5071POPC   C3A66377   6.033  13.671   7.097
 5071POPC   C4A66378   5.872  13.819   7.471
 5071POPC   C1B66379   5.687  13.313   6.283
 5071POPC   C2B66380   5.611  13.108   6.705
 5071POPC   C3B66381   5.654  13.248   7.169
 5071POPC   C4B66382   5.571  13.407   7.620
 5072POPC   NC366383  40.882  32.629   5.426
 5072POPC   PO466384  40.566  33.184   5.444
 5072POPC   GL166385  40.657  33.010   5.796
 5072POPC   GL266386  40.559  32.697   5.811
 5072POPC   C1A66387  40.872  33.057   6.172
 5072POPC   D2A66388  40.796  32.923   6.564
 5072POPC   C3A66389  40.692  33.202   6.865
 5072POPC   C4A66390  40.908  33.089   7.147
 5072POPC   C1B66391  40.716  32.565   6.184
 5072POPC   C2B66392  40.680  32.431   6.606
 5072POPC   C3B66393  40.793  32.613   7.004
 5072POPC   C4B66394  40.743  32.751   7.452
 5073POPC   NC366395  16.502  21.580   5.645
 5073POPC   PO466396  17.018  21.384   5.311
 5073POPC   GL166397  16.974  21.419   5.780
 5073POPC   GL266398  16.766  21.184   5.941
 5073POPC   C1A66399  16.839  21.625   6.203
 5073POPC   D2A66400  16.795  21.894   6.586
 5073POPC   C3A66401  16.965  21.765   6.963
 5073POPC   C4A66402  16.706  21.520   7.214
 5073POPC   C1B66403  16.868  21.114   6.355
 5073POPC   C2B66404  16.698  21.283   6.718
 5073POPC   C3B66405  16.603  21.060   7.066
 5073POPC   C4B66406  16.903  21.069   7.398
 5074POPC   NC366407   5.172  19.911   5.271
 5074POPC   PO466408   4.751  19.526   5.631
 5074POPC   GL166409   4.903  19.793   5.914
 5074POPC   GL266410   4.960  20.065   5.713
 5074POPC   C1A66411   4.980  19.815   6.368
 5074POPC   D2A66412   5.366  19.610   6.505
 5074POPC   C3A66413   5.399  19.544   6.921
 5074POPC   C4A66414   5.216  19.688   7.277
 5074POPC   C1B66415   5.304  20.087   6.045
 5074POPC   C2B66416   5.379  20.139   6.494
 5074POPC   C3B66417   5.234  20.061   6.900
 5074POPC   C4B66418   5.227  20.210   7.316
 5075POPC   NC366419  10.844  39.102   5.334
 5075POPC   PO466420  10.219  39.278   5.132
 5075POPC   GL166421  10.329  39.374   5.596
 5075POPC   GL266422  10.385  39.053   5.739
 5075POPC   C1A66423  10.545  39.494   6.015
 5075POPC   D2A66424  10.642  39.404   6.491
 5075POPC   C3A66425  10.664  39.612   6.934
 5075POPC   C4A66426  10.599  39.293   7.220
 5075POPC   C1B66427  10.560  38.976   6.170
 5075POPC   C2B66428  10.607  38.782   6.597
 5075POPC   C3B66429  10.427  38.855   7.013
 5075POPC   C4B66430  10.394  38.882   7.486
 5076POPC   NC366431  30.270   0.518   5.458
 5076POPC   PO466432  29.643   0.695   5.306
 5076POPC   GL166433  29.851   0.597   5.713
 5076POPC   GL266434  29.791   0.309   5.862
 5076POPC   C1A66435  30.052   0.626   6.131
 5076POPC   D2A66436  29.703   0.619   6.425
 5076POPC   C3A66437  29.868   0.676   6.813
 5076POPC   C4A66438  30.148   0.578   7.119
 5076POPC   C1B66439  29.813   0.142   6.232
 5076POPC   C2B66440  29.665   0.178   6.671
 5076POPC   C3B66441  29.750   0.250   7.083
 5076POPC   C4B66442  29.617   0.228   7.520
 5077POPC   NC366443  35.060   5.254   5.514
 5077POPC   PO466444  34.383   5.042   5.401
 5077POPC   GL166445  34.630   5.077   5.744
 5077POPC   GL266446  34.652   5.428   5.786
 5077POPC   C1A66447  34.624   5.010   6.188
 5077POPC   D2A66448  34.525   4.848   6.599
 5077POPC   C3A66449  34.806   5.035   6.903
 5077POPC   C4A66450  35.092   5.062   7.250
 5077POPC   C1B66451  34.603   5.525   6.217
 5077POPC   C2B66452  34.365   5.345   6.571
 5077POPC   C3B66453  34.320   5.177   6.983
 5077POPC   C4B66454  34.504   5.307   7.381
 5078POPC   NC366455   6.458  14.834   5.253
 5078POPC   PO466456   6.600  14.245   5.434
 5078POPC   GL166457   6.696  14.490   5.786
 5078POPC   GL266458   6.708  14.191   5.937
 5078POPC   C1A66459   6.716  14.617   6.248
 5078POPC   D2A66460   6.791  14.435   6.660
 5078POPC   C3A66461   6.522  14.484   7.021
 5078POPC   C4A66462   6.631  14.539   7.472
 5078POPC   C1B66463   6.379  14.032   6.143
 5078POPC   C2B66464   6.480  14.036   6.541
 5078POPC   C3B66465   6.438  13.984   6.966
 5078POPC   C4B66466   6.186  14.154   7.251
 5079POPC   NC366467   7.292  43.386   5.465
 5079POPC   PO466468   7.672  42.784   5.297
 5079POPC   GL166469   7.530  42.952   5.692
 5079POPC   GL266470   7.736  43.251   5.717
 5079POPC   C1A66471   7.365  43.111   6.094
 5079POPC   D2A66472   7.277  42.984   6.522
 5079POPC   C3A66473   7.463  43.138   6.897
 5079POPC   C4A66474   7.291  43.058   7.279
 5079POPC   C1B66475   7.700  43.501   6.097
 5079POPC   C2B66476   7.479  43.507   6.489
 5079POPC   C3B66477   7.469  43.660   6.917
 5079POPC   C4B66478   7.578  43.504   7.342
 5080POPC   NC366479  10.373  32.779   5.453
 5080POPC   PO466480  10.649  32.179   5.411
 5080POPC   GL166481  10.490  32.220   5.816
 5080POPC   GL266482  10.200  32.074   5.930
 5080POPC   C1A66483  10.636  32.177   6.227
 5080POPC   D2A66484  10.547  32.412   6.608
 5080POPC   C3A66485  10.850  32.327   6.921
 5080POPC   C4A66486  10.819  32.013   7.245
 5080POPC   C1B66487  10.164  32.014   6.377
 5080POPC   C2B66488  10.415  31.910   6.751
 5080POPC   C3B66489  10.357  32.197   7.088
 5080POPC   C4B66490  10.024  32.248   7.371
 5081POPC   NC366491  34.447  12.115   5.321
 5081POPC   PO466492  35.046  11.782   5.493
 5081POPC   GL166493  34.775  12.092   5.724
 5081POPC   GL266494  34.539  11.852   5.810
 5081POPC   C1A66495  34.638  12.269   6.144
 5081POPC   D2A66496  34.648  12.139   6.592
 5081POPC   C3A66497  34.677  12.393   6.984
 5081POPC   C4A66498  34.556  12.244   7.364
 5081POPC   C1B66499  34.574  11.740   6.258
 5081POPC   C2B66500  34.482  11.663   6.697
 5081POPC   C3B66501  34.608  11.740   7.148
 5081POPC   C4B66502  34.391  11.788   7.548
 5082POPC   NC366503  21.339  11.704   5.501
 5082POPC   PO466504  21.606  12.303   5.699
 5082POPC   GL166505  21.458  12.007   5.948
 5082POPC   GL266506  21.702  11.769   5.888
 5082POPC   C1A66507  21.499  12.134   6.364
 5082POPC   D2A66508  21.249  12.072   6.706
 5082POPC   C3A66509  21.284  12.334   7.015
 5082POPC   C4A66510  21.079  12.271   7.357
 5082POPC   C1B66511  21.744  11.685   6.343
 5082POPC   C2B66512  21.738  11.903   6.757
 5082POPC   C3B66513  21.564  11.909   7.163
 5082POPC   C4B66514  21.731  11.779   7.572
 5083POPC   NC366515  17.365  21.650   5.451
 5083POPC   PO466516  17.277  20.924   5.335
 5083POPC   GL166517  17.445  21.210   5.699
 5083POPC   GL266518  17.719  21.496   5.758
 5083POPC   C1A66519  17.316  21.365   6.148
 5083POPC   D2A66520  17.153  21.487   6.571
 5083POPC   C3A66521  17.192  21.270   6.986
 5083POPC   C4A66522  17.587  21.277   7.231
 5083POPC   C1B66523  17.587  21.784   6.084
 5083POPC   C2B66524  17.667  21.679   6.506
 5083POPC   C3B66525  17.485  21.697   6.885
 5083POPC   C4B66526  17.385  21.788   7.263
 5084POPC   NC366527  41.210  40.269   5.370
 5084POPC   PO466528  40.755  39.923   5.519
 5084POPC   GL166529  40.808  40.103   5.869
 5084POPC   GL266530  40.811  39.776   6.008
 5084POPC   C1A66531  40.629  40.219   6.257
 5084POPC   D2A66532  40.676  40.003   6.653
 5084POPC   C3A66533  40.635  40.243   7.056
 5084POPC   C4A66534  40.865  40.209   7.462
 5084POPC   C1B66535  41.031  39.584   6.310
 5084POPC   C2B66536  40.979  39.552   6.722
 5084POPC   C3B66537  40.915  39.814   7.063
 5084POPC   C4B66538  40.633  39.771   7.393
 5085POPC   NC366539  30.565  43.325   5.365
 5085POPC   PO466540  30.203  42.754   5.468
 5085POPC   GL166541  30.518  42.950   5.724
 5085POPC   GL266542  30.884  43.011   5.624
 5085POPC   C1A66543  30.561  42.967   6.161
 5085POPC   D2A66544  30.281  42.798   6.484
 5085POPC   C3A66545  30.487  42.851   6.875
 5085POPC   C4A66546  30.403  42.811   7.285
 5085POPC   C1B66547  31.027  43.127   6.023
 5085POPC   C2B66548  31.060  43.342   6.394
 5085POPC   C3B66549  31.107  43.313   6.819
 5085POPC   C4B66550  30.923  43.085   7.169
 5086POPC   NC366551  19.393   3.018   5.118
 5086POPC   PO466552  19.292   2.435   5.505
 5086POPC   GL166553  19.014   2.493   5.828
 5086POPC   GL266554  18.885   2.835   5.839
 5086POPC   C1A66555  19.077   2.590   6.256
 5086POPC   D2A66556  19.419   2.591   6.565
 5086POPC   C3A66557  19.165   2.610   6.916
 5086POPC   C4A66558  19.170   2.463   7.301
 5086POPC   C1B66559  18.899   3.112   6.189
 5086POPC   C2B66560  18.991   2.980   6.592
 5086POPC   C3B66561  18.850   3.027   6.988
 5086POPC   C4B66562  19.064   2.958   7.349
 5087POPC   NC366563   8.744  44.248   5.361
 5087POPC   PO466564   9.375  44.530   5.238
 5087POPC   GL166565   9.283  44.482   5.707
 5087POPC   GL266566   8.916  44.528   5.795
 5087POPC   C1A66567   9.319  44.634   6.133
 5087POPC   D2A66568   9.069  44.716   6.500
 5087POPC   C3A66569   9.263  44.640   6.878
 5087POPC   C4A66570   9.161  44.805   7.257
 5087POPC   C1B66571   8.790  44.349   6.207
 5087POPC   C2B66572   8.604  44.498   6.626
 5087POPC   C3B66573   8.755  44.547   7.064
 5087POPC   C4B66574   8.858  44.544   7.536
 5088POPC   NC366575  35.708   1.767   5.217
 5088POPC   PO466576  36.248   1.994   5.540
 5088POPC   GL166577  36.000   1.783   5.836
 5088POPC   GL266578  35.906   2.033   6.112
 5088POPC   C1A66579  36.193   1.634   6.215
 5088POPC   D2A66580  36.334   1.842   6.595
 5088POPC   C3A66581  36.092   1.810   6.970
 5088POPC   C4A66582  36.168   2.011   7.372
 5088POPC   C1B66583  36.344   2.206   6.176
 5088POPC   C2B66584  36.548   2.343   6.562
 5088POPC   C3B66585  36.318   2.270   6.941
 5088POPC   C4B66586  36.358   2.489   7.326
 5089POPC   NC366587   8.691  30.590   5.122
 5089POPC   PO466588   9.259  30.867   5.278
 5089POPC   GL166589   9.068  30.618   5.638
 5089POPC   GL266590   8.698  30.568   5.692
 5089POPC   C1A66591   9.095  30.643   6.116
 5089POPC   D2A66592   9.297  30.721   6.530
 5089POPC   C3A66593   9.081  30.764   6.937
 5089POPC   C4A66594   9.218  31.074   7.140
 5089POPC   C1B66595   8.647  30.414   6.142
 5089POPC   C2B66596   8.771  30.658   6.552
 5089POPC   C3B66597   8.569  30.604   6.999
 5089POPC   C4B66598   8.733  30.458   7.414
 5090POPC   NC366599  36.651  27.906   5.373
 5090POPC   PO466600  36.968  27.290   5.366
 5090POPC   GL166601  36.939  27.609   5.700
 5090POPC   GL266602  36.651  27.436   5.780
 5090POPC   C1A66603  37.098  27.746   6.132
 5090POPC   D2A66604  37.154  27.409   6.476
 5090POPC   C3A66605  36.975  27.375   6.894
 5090POPC   C4A66606  36.919  27.731   7.192
 5090POPC   C1B66607  36.653  27.547   6.213
 5090POPC   C2B66608  36.749  27.726   6.591
 5090POPC   C3B66609  36.509  27.625   6.943
 5090POPC   C4B66610  36.443  27.665   7.379
 5091POPC   NC366611  41.341  22.970   5.386
 5091POPC   PO466612  41.959  23.257   5.325
 5091POPC   GL166613  41.747  23.025   5.719
 5091POPC   GL266614  41.388  23.161   5.851
 5091POPC   C1A66615  41.699  23.013   6.199
 5091POPC   D2A66616  41.482  22.823   6.576
 5091POPC   C3A66617  41.564  22.924   6.990
 5091POPC   C4A66618  41.433  23.261   7.280
 5091POPC   C1B66619  41.224  22.783   6.133
 5091POPC   C2B66620  40.980  22.799   6.551
 5091POPC   C3B66621  41.076  22.655   6.965
 5091POPC   C4B66622  41.335  22.607   7.327
 5092POPC   NC366623  43.300  27.858   5.456
 5092POPC   PO466624  43.367  27.134   5.385
 5092POPC   GL166625  43.181  27.394   5.763
 5092POPC   GL266626  43.336  27.702   5.936
 5092POPC   C1A66627  43.120  27.369   6.244
 5092POPC   D2A66628  43.385  27.603   6.537
 5092POPC   C3A66629  43.228  27.683   6.958
 5092POPC   C4A66630  43.083  27.368   7.279
 5092POPC   C1B66631  43.062  27.906   6.279
 5092POPC   C2B66632  42.830  27.670   6.589
 5092POPC   C3B66633  42.702  27.636   7.055
 5092POPC   C4B66634  42.951  27.843   7.367
 5093POPC   NC366635  30.595  44.313   5.512
 5093POPC   PO466636  30.352  43.696   5.575
 5093POPC   GL166637  30.680  43.856   5.782
 5093POPC   GL266638  30.837  43.534   5.779
 5093POPC   C1A66639  30.672  44.117   6.161
 5093POPC   D2A66640  30.643  44.291   6.567
 5093POPC   C3A66641  30.507  44.016   6.873
 5093POPC   C4A66642  30.342  43.829   7.225
 5093POPC   C1B66643  30.626  43.544   6.181
 5093POPC   C2B66644  30.769  43.732   6.551
 5093POPC   C3B66645  30.673  43.540   6.940
 5093POPC   C4B66646  30.850  43.628   7.309
 5094POPC   NC366647  31.023  19.346   5.262
 5094POPC   PO466648  30.717  18.856   5.393
 5094POPC   GL166649  30.779  18.875   5.833
 5094POPC   GL266650  31.046  18.700   5.930
 5094POPC   C1A66651  30.612  18.817   6.261
 5094POPC   D2A66652  30.421  19.058   6.594
 5094POPC   C3A66653  30.557  19.016   7.016
 5094POPC   C4A66654  30.524  18.826   7.404
 5094POPC   C1B66655  31.110  18.939   6.280
 5094POPC   C2B66656  30.977  19.080   6.674
 5094POPC   C3B66657  31.058  18.961   7.083
 5094POPC   C4B66658  31.336  18.917   7.409
 5095POPC   NC366659  19.463  27.651   5.114
 5095POPC   PO466660  19.137  27.759   5.720
 5095POPC   GL166661  19.085  27.415   5.978
 5095POPC   GL266662  18.818  27.208   5.981
 5095POPC   C1A66663  19.033  27.451   6.384
 5095POPC   D2A66664  19.139  27.803   6.596
 5095POPC   C3A66665  19.350  27.684   6.926
 5095POPC   C4A66666  19.086  27.565   7.258
 5095POPC   C1B66667  18.531  27.363   6.269
 5095POPC   C2B66668  18.621  27.439   6.679
 5095POPC   C3B66669  18.669  27.270   7.064
 5095POPC   C4B66670  18.682  27.244   7.495
 5096POPC   NC366671  17.425   5.178   5.168
 5096POPC   PO466672  17.896   4.785   5.250
 5096POPC   GL166673  17.582   4.903   5.619
 5096POPC   GL266674  17.288   5.171   5.667
 5096POPC   C1A66675  17.521   4.970   6.092
 5096POPC   D2A66676  17.757   5.070   6.491
 5096POPC   C3A66677  17.555   4.929   6.903
 5096POPC   C4A66678  17.759   4.807   7.301
 5096POPC   C1B66679  17.167   5.366   6.082
 5096POPC   C2B66680  17.265   5.214   6.525
 5096POPC   C3B66681  17.201   5.332   6.976
 5096POPC   C4B66682  17.087   5.614   7.302
 5097POPC   NC366683   0.184  22.365   5.140
 5097POPC   PO466684   0.694  21.997   5.428
 5097POPC   GL166685   0.463  22.146   5.798
 5097POPC   GL266686   0.075  22.224   5.787
 5097POPC   C1A66687   0.591  22.294   6.216
 5097POPC   D2A66688   0.698  22.115   6.615
 5097POPC   C3A66689   0.777  22.421   6.927
 5097POPC   C4A66690   0.706  22.531   7.373
 5097POPC   C1B66691   0.168  21.965   6.181
 5097POPC   C2B66692   0.224  21.839   6.631
 5097POPC   C3B66693   0.076  22.039   7.033
 5097POPC   C4B66694   0.097  22.049   7.507
 5098POPC   NC366695  30.206  10.790   5.511
 5098POPC   PO466696  30.185  10.062   5.464
 5098POPC   GL166697  30.048  10.395   5.788
 5098POPC   GL266698  29.708  10.491   5.869
 5098POPC   C1A66699  30.072  10.721   6.174
 5098POPC   D2A66700  30.327  10.703   6.581
 5098POPC   C3A66701  30.072  10.632   6.959
 5098POPC   C4A66702  29.791  10.636   7.316
 5098POPC   C1B66703  29.674  10.420   6.340
 5098POPC   C2B66704  29.594  10.513   6.789
 5098POPC   C3B66705  29.320  10.648   7.133
 5098POPC   C4B66706  29.357  10.559   7.584
 5099POPC   NC366707  19.370   2.886   5.622
 5099POPC   PO466708  19.911   2.533   5.348
 5099POPC   GL166709  19.834   2.743   5.796
 5099POPC   GL266710  19.523   2.589   5.991
 5099POPC   C1A66711  19.886   2.858   6.266
 5099POPC   D2A66712  19.951   3.155   6.632
 5099POPC   C3A66713  19.898   2.960   6.991
 5099POPC   C4A66714  19.623   2.659   7.119
 5099POPC   C1B66715  19.399   2.982   6.236
 5099POPC   C2B66716  19.434   3.219   6.587
 5099POPC   C3B66717  19.392   3.080   6.979
 5099POPC   C4B66718  19.566   3.074   7.415
 5100POPC   NC366719  38.032   7.784   5.636
 5100POPC   PO466720  37.821   7.230   5.285
 5100POPC   GL166721  37.591   7.081   5.712
 5100POPC   GL266722  37.704   7.385   5.791
 5100POPC   C1A66723  37.649   7.014   6.192
 5100POPC   D2A66724  37.991   7.080   6.495
 5100POPC   C3A66725  37.853   7.330   6.806
 5100POPC   C4A66726  37.707   7.222   7.216
 5100POPC   C1B66727  37.845   7.496   6.210
 5100POPC   C2B66728  37.988   7.832   6.489
 5100POPC   C3B66729  38.053   7.928   6.909
 5100POPC   C4B66730  38.122   7.572   7.150
 5101POPC   NC366731  13.640  31.920   5.318
 5101POPC   PO466732  13.822  31.266   5.095
 5101POPC   GL166733  13.655  31.433   5.519
 5101POPC   GL266734  13.790  31.132   5.650
 5101POPC   C1A66735  13.664  31.554   5.989
 5101POPC   D2A66736  13.303  31.631   6.300
 5101POPC   C3A66737  13.380  31.657   6.754
 5101POPC   C4A66738  13.413  31.729   7.193
 5101POPC   C1B66739  13.884  31.084   6.069
 5101POPC   C2B66740  13.856  30.957   6.502
 5101POPC   C3B66741  13.621  31.201   6.767
 5101POPC   C4B66742  13.560  31.221   7.189
 5102POPC   NC366743   0.938   4.247   5.283
 5102POPC   PO466744   1.459   3.893   5.665
 5102POPC   GL166745   1.099   4.119   5.742
 5102POPC   GL266746   0.802   3.955   5.808
 5102POPC   C1A66747   0.936   4.414   6.041
 5102POPC   D2A66748   1.182   4.644   6.369
 5102POPC   C3A66749   1.411   4.522   6.773
 5102POPC   C4A66750   1.186   4.328   7.112
 5102POPC   C1B66751   1.057   3.930   6.222
 5102POPC   C2B66752   1.255   3.935   6.664
 5102POPC   C3B66753   1.098   3.837   7.079
 5102POPC   C4B66754   0.896   4.067   7.456
 5103POPC   NC366755  26.294  25.028   5.448
 5103POPC   PO466756  25.724  25.293   5.419
 5103POPC   GL166757  26.011  25.474   5.726
 5103POPC   GL266758  26.348  25.441   5.757
 5103POPC   C1A66759  26.063  25.548   6.189
 5103POPC   D2A66760  26.264  25.682   6.588
 5103POPC   C3A66761  26.072  25.653   7.036
 5103POPC   C4A66762  25.861  25.366   7.356
 5103POPC   C1B66763  26.370  25.151   6.173
 5103POPC   C2B66764  26.172  25.168   6.643
 5103POPC   C3B66765  26.294  25.190   7.121
 5103POPC   C4B66766  26.293  25.257   7.611
 5104POPC   NC366767  19.946  38.319   5.194
 5104POPC   PO466768  19.896  38.868   5.553
 5104POPC   GL166769  19.987  38.477   5.719
 5104POPC   GL266770  20.183  38.639   5.934
 5104POPC   C1A66771  19.804  38.299   6.114
 5104POPC   D2A66772  19.841  38.341   6.570
 5104POPC   C3A66773  19.643  38.539   6.934
 5104POPC   C4A66774  19.430  38.343   7.288
 5104POPC   C1B66775  20.265  38.402   6.292
 5104POPC   C2B66776  20.354  38.324   6.708
 5104POPC   C3B66777  20.093  38.335   7.066
 5104POPC   C4B66778  19.907  38.483   7.469
 5105POPC   NC366779  30.934  13.939   5.489
 5105POPC   PO466780  30.714  13.338   5.184
 5105POPC   GL166781  30.859  13.448   5.623
 5105POPC   GL266782  30.573  13.697   5.779
 5105POPC   C1A66783  30.917  13.473   6.085
 5105POPC   D2A66784  30.765  13.585   6.498
 5105POPC   C3A66785  30.927  13.692   6.896
 5105POPC   C4A66786  31.039  13.503   7.269
 5105POPC   C1B66787  30.364  13.699   6.187
 5105POPC   C2B66788  30.264  13.493   6.582
 5105POPC   C3B66789  30.362  13.510   6.982
 5105POPC   C4B66790  30.556  13.784   7.240
 5106POPC   NC366791  12.530  17.574   5.312
 5106POPC   PO466792  13.189  17.371   5.493
 5106POPC   GL166793  13.006  17.445   5.887
 5106POPC   GL266794  12.745  17.722   5.870
 5106POPC   C1A66795  12.880  17.377   6.315
 5106POPC   D2A66796  12.694  17.401   6.735
 5106POPC   C3A66797  12.945  17.433   7.125
 5106POPC   C4A66798  13.164  17.568   7.517
 5106POPC   C1B66799  12.446  17.656   6.215
 5106POPC   C2B66800  12.348  17.793   6.640
 5106POPC   C3B66801  12.483  17.729   7.075
 5106POPC   C4B66802  12.689  17.744   7.486
 5107POPC   NC366803  36.735  17.091   5.287
 5107POPC   PO466804  37.106  17.668   5.244
 5107POPC   GL166805  37.168  17.465   5.685
 5107POPC   GL266806  37.330  17.748   5.884
 5107POPC   C1A66807  37.062  17.260   6.127
 5107POPC   D2A66808  37.192  17.165   6.590
 5107POPC   C3A66809  36.940  17.222   7.002
 5107POPC   C4A66810  36.926  17.140   7.474
 5107POPC   C1B66811  37.190  17.696   6.335
 5107POPC   C2B66812  36.828  17.551   6.566
 5107POPC   C3B66813  36.779  17.705   6.962
 5107POPC   C4B66814  36.663  17.588   7.359
 5108POPC   NC366815  30.860  31.119   5.480
 5108POPC   PO466816  31.044  31.727   5.444
 5108POPC   GL166817  30.890  31.604   5.842
 5108POPC   GL266818  30.779  31.291   5.942
 5108POPC   C1A66819  30.695  31.678   6.244
 5108POPC   D2A66820  30.512  31.514   6.618
 5108POPC   C3A66821  30.686  31.652   7.018
 5108POPC   C4A66822  30.482  31.847   7.370
 5108POPC   C1B66823  31.027  31.279   6.312
 5108POPC   C2B66824  30.895  31.203   6.738
 5108POPC   C3B66825  30.945  31.231   7.179
 5108POPC   C4B66826  31.168  31.087   7.565
 5109POPC   NC366827  18.031  35.911   5.505
 5109POPC   PO466828  17.392  36.024   5.441
 5109POPC   GL166829  17.580  35.966   5.870
 5109POPC   GL266830  17.803  36.244   5.863
 5109POPC   C1A66831  17.658  36.066   6.342
 5109POPC   D2A66832  17.821  36.163   6.751
 5109POPC   C3A66833  17.695  35.970   7.082
 5109POPC   C4A66834  17.345  35.883   7.258
 5109POPC   C1B66835  17.437  36.439   6.090
 5109POPC   C2B66836  17.264  36.405   6.542
 5109POPC   C3B66837  17.372  36.356   6.975
 5109POPC   C4B66838  17.628  36.416   7.360
 5110POPC   NC366839  34.557   3.183   5.386
 5110POPC   PO466840  34.488   2.511   5.280
 5110POPC   GL166841  34.385   2.520   5.724
 5110POPC   GL266842  34.294   2.848   5.756
 5110POPC   C1A66843  34.479   2.502   6.166
 5110POPC   D2A66844  34.793   2.701   6.464
 5110POPC   C3A66845  34.658   2.605   6.865
 5110POPC   C4A66846  34.511   2.711   7.255
 5110POPC   C1B66847  34.510   3.017   6.161
 5110POPC   C2B66848  34.534   3.155   6.607
 5110POPC   C3B66849  34.783   3.088   6.996
 5110POPC   C4B66850  34.730   3.138   7.457
 5111POPC   NC366851  38.341  32.503   5.245
 5111POPC   PO466852  38.913  32.414   5.483
 5111POPC   GL166853  38.622  32.353   5.851
 5111POPC   GL266854  38.357  32.086   5.753
 5111POPC   C1A66855  38.551  32.531   6.298
 5111POPC   D2A66856  38.302  32.616   6.676
 5111POPC   C3A66857  38.508  32.588   7.079
 5111POPC   C4A66858  38.488  32.174   7.241
 5111POPC   C1B66859  38.261  32.115   6.212
 5111POPC   C2B66860  38.394  32.047   6.669
 5111POPC   C3B66861  38.151  31.858   7.030
 5111POPC   C4B66862  38.071  31.980   7.470
 5112POPC   NC366863   8.130  22.306   5.420
 5112POPC   PO466864   8.727  22.030   5.489
 5112POPC   GL166865   8.495  22.244   5.785
 5112POPC   GL266866   8.219  22.036   5.834
 5112POPC   C1A66867   8.352  22.423   6.180
 5112POPC   D2A66868   8.264  22.635   6.579
 5112POPC   C3A66869   8.226  22.342   6.913
 5112POPC   C4A66870   8.289  22.317   7.365
 5112POPC   C1B66871   8.413  21.901   6.220
 5112POPC   C2B66872   8.526  21.970   6.651
 5112POPC   C3B66873   8.383  21.900   7.094
 5112POPC   C4B66874   8.510  21.936   7.579
 5113POPC   NC366875  15.454  38.819   5.315
 5113POPC   PO466876  15.200  38.359   5.434
 5113POPC   GL166877  15.031  38.260   5.883
 5113POPC   GL266878  15.241  37.965   5.991
 5113POPC   C1A66879  14.992  38.254   6.360
 5113POPC   D2A66880  15.177  38.189   6.796
 5113POPC   C3A66881  15.070  38.438   7.183
 5113POPC   C4A66882  15.014  38.620   7.607
 5113POPC   C1B66883  15.438  37.954   6.419
 5113POPC   C2B66884  15.672  38.210   6.727
 5113POPC   C3B66885  15.608  38.583   6.986
 5113POPC   C4B66886  15.496  38.637   7.439
 5114POPC   NC366887   5.915   4.124   5.504
 5114POPC   PO466888   5.510   4.636   5.698
 5114POPC   GL166889   5.667   4.301   5.892
 5114POPC   GL266890   6.030   4.436   5.892
 5114POPC   C1A66891   5.808   4.154   6.272
 5114POPC   D2A66892   5.950   4.499   6.525
 5114POPC   C3A66893   5.868   4.430   6.916
 5114POPC   C4A66894   5.782   4.026   7.066
 5114POPC   C1B66895   6.348   4.514   6.217
 5114POPC   C2B66896   6.509   4.238   6.566
 5114POPC   C3B66897   6.278   4.066   6.937
 5114POPC   C4B66898   6.095   4.317   7.350
 5115POPC   NC366899  12.274  43.217   5.357
 5115POPC   PO466900  11.857  42.757   5.426
 5115POPC   GL166901  12.069  42.922   5.771
 5115POPC   GL266902  12.011  43.271   5.804
 5115POPC   C1A66903  11.969  42.976   6.233
 5115POPC   D2A66904  11.905  43.179   6.656
 5115POPC   C3A66905  12.008  43.034   7.077
 5115POPC   C4A66906  12.213  42.880   7.467
 5115POPC   C1B66907  11.971  43.499   6.216
 5115POPC   C2B66908  12.038  43.692   6.649
 5115POPC   C3B66909  12.083  43.528   7.085
 5115POPC   C4B66910  11.816  43.356   7.436
 5116POPC   NC366911  37.512  23.865   5.490
 5116POPC   PO466912  37.934  23.386   5.336
 5116POPC   GL166913  37.763  23.523   5.761
 5116POPC   GL266914  37.374  23.467   5.794
 5116POPC   C1A66915  37.783  23.755   6.171
 5116POPC   D2A66916  37.970  23.750   6.608
 5116POPC   C3A66917  37.836  23.893   7.018
 5116POPC   C4A66918  37.806  24.116   7.460
 5116POPC   C1B66919  37.262  23.723   6.164
 5116POPC   C2B66920  37.467  23.651   6.562
 5116POPC   C3B66921  37.468  23.479   6.979
 5116POPC   C4B66922  37.489  23.712   7.345
 5117POPC   NC366923  38.759  35.622   5.457
 5117POPC   PO466924  39.201  35.091   5.419
 5117POPC   GL166925  39.205  35.401   5.751
 5117POPC   GL266926  38.941  35.204   5.855
 5117POPC   C1A66927  39.176  35.464   6.224
 5117POPC   D2A66928  39.289  35.688   6.604
 5117POPC   C3A66929  39.260  35.506   6.990
 5117POPC   C4A66930  39.493  35.300   7.334
 5117POPC   C1B66931  38.867  34.837   6.115
 5117POPC   C2B66932  38.756  34.878   6.537
 5117POPC   C3B66933  38.937  35.137   6.815
 5117POPC   C4B66934  39.042  35.111   7.234
 5118POPC   NC366935  19.417   9.176   5.547
 5118POPC   PO466936  18.725   8.881   5.432
 5118POPC   GL166937  19.019   8.920   5.786
 5118POPC   GL266938  18.980   9.268   5.798
 5118POPC   C1A66939  19.127   8.845   6.235
 5118POPC   D2A66940  18.982   8.931   6.646
 5118POPC   C3A66941  19.003   8.734   7.030
 5118POPC   C4A66942  19.067   8.987   7.389
 5118POPC   C1B66943  19.250   9.360   6.154
 5118POPC   C2B66944  19.361   9.260   6.571
 5118POPC   C3B66945  19.268   9.224   6.971
 5118POPC   C4B66946  19.218   9.478   7.308
 5119POPC   NC366947  41.851   3.232   5.387
 5119POPC   PO466948  41.340   3.698   5.460
 5119POPC   GL166949  41.652   3.542   5.785
 5119POPC   GL266950  41.729   3.881   5.912
 5119POPC   C1A66951  41.547   3.242   6.176
 5119POPC   D2A66952  41.309   3.425   6.567
 5119POPC   C3A66953  41.411   3.418   7.033
 5119POPC   C4A66954  41.700   3.242   7.397
 5119POPC   C1B66955  41.747   3.662   6.320
 5119POPC   C2B66956  41.865   3.322   6.600
 5119POPC   C3B66957  41.927   3.453   6.999
 5119POPC   C4B66958  41.726   3.775   7.256
 5120POPC   NC366959  43.624   6.288   5.416
 5120POPC   PO466960  43.983   5.669   5.308
 5120POPC   GL166961  43.931   5.932   5.693
 5120POPC   GL266962  44.260   6.016   5.860
 5120POPC   C1A66963  43.825   5.816   6.124
 5120POPC   D2A66964  43.961   5.618   6.515
 5120POPC   C3A66965  43.867   5.779   6.921
 5120POPC   C4A66966  43.657   5.990   7.242
 5120POPC   C1B66967  44.276   6.015   6.314
 5120POPC   C2B66968  44.184   6.126   6.724
 5120POPC   C3B66969  44.198   6.101   7.155
 5120POPC   C4B66970  44.103   6.083   7.560
 5121POPC   NC366971  33.496  33.333   5.464
 5121POPC   PO466972  33.738  34.053   5.469
 5121POPC   GL166973  33.704  33.982   5.875
 5121POPC   GL266974  33.490  33.691   5.853
 5121POPC   C1A66975  33.683  33.907   6.306
 5121POPC   D2A66976  33.674  33.701   6.711
 5121POPC   C3A66977  33.862  33.958   7.050
 5121POPC   C4A66978  33.973  34.170   7.441
 5121POPC   C1B66979  33.649  33.384   6.155
 5121POPC   C2B66980  33.730  33.162   6.548
 5121POPC   C3B66981  33.928  33.302   6.934
 5121POPC   C4B66982  33.739  33.510   7.255
 5122POPC   NC366983  36.007  17.743   5.499
 5122POPC   PO466984  36.295  17.126   5.462
 5122POPC   GL166985  36.049  17.290   5.834
 5122POPC   GL266986  36.083  17.673   5.987
 5122POPC   C1A66987  35.987  17.296   6.277
 5122POPC   D2A66988  36.104  17.549   6.615
 5122POPC   C3A66989  36.322  17.296   6.917
 5122POPC   C4A66990  36.010  17.266   7.232
 5122POPC   C1B66991  36.401  17.853   6.284
 5122POPC   C2B66992  36.415  17.970   6.713
 5122POPC   C3B66993  36.263  17.778   7.063
 5122POPC   C4B66994  36.040  17.861   7.373
 5123POPC   NC366995   2.050  34.118   5.557
 5123POPC   PO466996   2.385  34.577   5.692
 5123POPC   GL166997   2.378  34.207   5.968
 5123POPC   GL266998   2.038  34.151   6.072
 5123POPC   C1A66999   2.413  34.117   6.418
 5123POPC   D2A67000   2.402  34.422   6.755
 5123POPC   C3A67001   2.129  34.394   7.086
 5123POPC   C4A67002   1.839  34.428   7.436
 5123POPC   C1B67003   2.124  34.546   6.339
 5123POPC   C2B67004   2.045  34.793   6.749
 5123POPC   C3B67005   2.007  34.924   7.195
 5123POPC   C4B67006   2.298  35.151   7.481
 5124POPC   NC367007  22.278  30.818   5.425
 5124POPC   PO467008  22.265  31.448   5.215
 5124POPC   GL167009  22.256  31.292   5.633
 5124POPC   GL267010  22.227  31.582   5.772
 5124POPC   C1A67011  22.304  31.191   6.097
 5124POPC   D2A67012  22.161  31.100   6.507
 5124POPC   C3A67013  22.204  31.235   6.902
 5124POPC   C4A67014  22.357  31.490   7.207
 5124POPC   C1B67015  21.994  31.585   6.146
 5124POPC   C2B67016  22.033  31.657   6.561
 5124POPC   C3B67017  21.924  31.672   6.970
 5124POPC   C4B67018  22.055  31.901   7.305
 5125POPC   NC367019   4.494  10.494   5.095
 5125POPC   PO467020   3.994  10.150   5.318
 5125POPC   GL167021   4.175  10.360   5.661
 5125POPC   GL267022   4.486  10.484   5.607
 5125POPC   C1A67023   4.139  10.371   6.128
 5125POPC   D2A67024   4.058  10.652   6.482
 5125POPC   C3A67025   4.152  10.606   6.931
 5125POPC   C4A67026   4.023  10.553   7.400
 5125POPC   C1B67027   4.610  10.226   5.977
 5125POPC   C2B67028   4.582  10.237   6.425
 5125POPC   C3B67029   4.582  10.312   6.880
 5125POPC   C4B67030   4.507  10.443   7.280
 5126POPC   NC367031  35.520  35.723   5.395
 5126POPC   PO467032  35.512  36.407   5.366
 5126POPC   GL167033  35.325  36.130   5.695
 5126POPC   GL267034  35.610  35.973   5.848
 5126POPC   C1A67035  35.220  36.046   6.166
 5126POPC   D2A67036  35.125  35.871   6.587
 5126POPC   C3A67037  35.207  36.134   6.973
 5126POPC   C4A67038  35.414  36.460   7.253
 5126POPC   C1B67039  35.788  36.018   6.258
 5126POPC   C2B67040  35.618  36.071   6.664
 5126POPC   C3B67041  35.751  36.115   7.097
 5126POPC   C4B67042  35.732  35.994   7.513
 5127POPC   NC367043  10.977  26.753   5.417
 5127POPC   PO467044  11.549  27.087   5.077
 5127POPC   GL167045  11.442  26.945   5.559
 5127POPC   GL267046  11.562  26.578   5.610
 5127POPC   C1A67047  11.308  27.038   6.038
 5127POPC   D2A67048  11.543  27.008   6.457
 5127POPC   C3A67049  11.329  26.964   6.872
 5127POPC   C4A67050  11.464  26.936   7.309
 5127POPC   C1B67051  11.524  26.568   6.088
 5127POPC   C2B67052  11.235  26.611   6.486
 5127POPC   C3B67053  11.195  26.462   6.936
 5127POPC   C4B67054  11.467  26.427   7.335
 5128POPC   NC367055  41.965  21.729   4.975
 5128POPC   PO467056  42.501  21.602   5.413
 5128POPC   GL167057  42.446  21.414   5.839
 5128POPC   GL267058  42.618  21.097   5.870
 5128POPC   C1A67059  42.293  21.481   6.276
 5128POPC   D2A67060  42.235  21.712   6.692
 5128POPC   C3A67061  42.140  21.569   7.120
 5128POPC   C4A67062  42.442  21.507   7.458
 5128POPC   C1B67063  42.449  20.995   6.290
 5128POPC   C2B67064  42.245  21.140   6.679
 5128POPC   C3B67065  42.491  21.175   7.048
 5128POPC   C4B67066  42.477  21.006   7.493
 5129POPC   NC367067   1.980  39.651   5.478
 5129POPC   PO467068   2.228  40.292   5.363
 5129POPC   GL167069   2.105  40.300   5.781
 5129POPC   GL267070   1.903  40.007   5.842
 5129POPC   C1A67071   2.238  40.182   6.189
 5129POPC   D2A67072   2.033  40.178   6.565
 5129POPC   C3A67073   2.191  40.136   6.937
 5129POPC   C4A67074   2.047  40.214   7.325
 5129POPC   C1B67075   1.833  39.811   6.271
 5129POPC   C2B67076   1.793  39.786   6.757
 5129POPC   C3B67077   1.829  39.752   7.225
 5129POPC   C4B67078   2.024  39.435   7.527
 5130POPC   NC367079  10.244  31.953   5.440
 5130POPC   PO467080  10.728  31.505   5.235
 5130POPC   GL167081  10.607  31.717   5.693
 5130POPC   GL267082  10.822  31.665   5.963
 5130POPC   C1A67083  10.333  31.609   6.108
 5130POPC   D2A67084  10.211  31.318   6.496
 5130POPC   C3A67085  10.159  31.476   6.936
 5130POPC   C4A67086  10.372  31.702   7.274
 5130POPC   C1B67087  10.731  31.362   6.326
 5130POPC   C2B67088  10.652  31.368   6.747
 5130POPC   C3B67089  10.834  31.536   7.070
 5130POPC   C4B67090  10.781  31.432   7.479
 5131POPC   NC367091  12.002  36.006   5.458
 5131POPC   PO467092  12.510  36.443   5.530
 5131POPC   GL167093  12.170  36.293   5.824
 5131POPC   GL267094  12.225  35.934   5.926
 5131POPC   C1A67095  11.918  36.160   6.226
 5131POPC   D2A67096  12.136  35.989   6.596
 5131POPC   C3A67097  11.900  36.056   6.959
 5131POPC   C4A67098  12.002  35.972   7.351
 5131POPC   C1B67099  12.421  36.252   6.248
 5131POPC   C2B67100  12.164  36.491   6.543
 5131POPC   C3B67101  12.185  36.484   7.003
 5131POPC   C4B67102  12.567  36.653   7.199
 5132POPC   NC367103  12.679  10.225   5.366
 5132POPC   PO467104  13.123  10.695   5.180
 5132POPC   GL167105  12.932  10.486   5.688
 5132POPC   GL267106  12.926  10.129   5.830
 5132POPC   C1A67107  12.597  10.521   6.047
 5132POPC   D2A67108  12.445  10.688   6.489
 5132POPC   C3A67109  12.700  10.530   6.855
 5132POPC   C4A67110  12.669  10.284   7.226
 5132POPC   C1B67111  13.051  10.283   6.229
 5132POPC   C2B67112  13.161  10.323   6.681
 5132POPC   C3B67113  13.089  10.054   7.045
 5132POPC   C4B67114  13.238   9.985   7.470
 5133POPC   NC367115   0.994   5.096   5.267
 5133POPC   PO467116   1.488   4.743   5.540
 5133POPC   GL167117   1.115   4.923   5.764
 5133POPC   GL267118   0.770   4.769   5.672
 5133POPC   C1A67119   1.186   5.146   6.178
 5133POPC   D2A67120   1.405   5.053   6.592
 5133POPC   C3A67121   1.171   5.202   6.937
 5133POPC   C4A67122   0.823   5.480   7.089
 5133POPC   C1B67123   0.743   4.895   6.123
 5133POPC   C2B67124   0.871   4.984   6.563
 5133POPC   C3B67125   0.963   4.749   6.919
 5133POPC   C4B67126   0.884   4.984   7.281
 5134POPC   NC367127   3.528  30.003   5.338
 5134POPC   PO467128   3.932  29.453   5.495
 5134POPC   GL167129   3.727  29.773   5.823
 5134POPC   GL267130   3.477  30.088   5.839
 5134POPC   C1A67131   3.824  29.913   6.269
 5134POPC   D2A67132   3.824  29.684   6.645
 5134POPC   C3A67133   3.842  29.904   7.024
 5134POPC   C4A67134   3.449  29.744   7.151
 5134POPC   C1B67135   3.325  29.941   6.251
 5134POPC   C2B67136   3.431  30.012   6.691
 5134POPC   C3B67137   3.484  30.288   7.046
 5134POPC   C4B67138   3.434  30.187   7.454
 5135POPC   NC367139   6.025  36.373   5.467
 5135POPC   PO467140   5.364  36.119   5.586
 5135POPC   GL167141   5.763  36.063   5.802
 5135POPC   GL267142   5.769  36.412   5.915
 5135POPC   C1A67143   6.112  36.034   6.150
 5135POPC   D2A67144   6.339  36.120   6.586
 5135POPC   C3A67145   6.116  36.064   7.014
 5135POPC   C4A67146   6.043  36.337   7.426
 5135POPC   C1B67147   5.677  36.243   6.305
 5135POPC   C2B67148   5.477  36.050   6.635
 5135POPC   C3B67149   5.614  36.165   7.048
 5135POPC   C4B67150   5.305  35.927   7.262
 5136POPC   NC367151   8.587  11.217   5.439
 5136POPC   PO467152   7.959  10.938   5.488
 5136POPC   GL167153   8.197  11.155   5.821
 5136POPC   GL267154   8.531  11.052   5.922
 5136POPC   C1A67155   8.219  11.420   6.186
 5136POPC   D2A67156   8.279  11.696   6.537
 5136POPC   C3A67157   8.187  11.466   6.904
 5136POPC   C4A67158   8.097  11.254   7.285
 5136POPC   C1B67159   8.459  10.988   6.349
 5136POPC   C2B67160   8.440  11.042   6.776
 5136POPC   C3B67161   8.399  10.848   7.162
 5136POPC   C4B67162   8.538  10.945   7.577
 5137POPC   NC367163  42.002  42.229   5.333
 5137POPC   PO467164  41.288  42.386   5.284
 5137POPC   GL167165  41.524  42.464   5.686
 5137POPC   GL267166  41.415  42.146   5.786
 5137POPC   C1A67167  41.747  42.520   6.116
 5137POPC   D2A67168  41.734  42.264   6.523
 5137POPC   C3A67169  41.684  42.406   6.966
 5137POPC   C4A67170  41.559  42.324   7.428
 5137POPC   C1B67171  41.444  41.992   6.202
 5137POPC   C2B67172  41.226  42.094   6.583
 5137POPC   C3B67173  41.256  42.153   7.017
 5137POPC   C4B67174  41.064  42.352   7.328
 5138POPC   NC367175  37.195  36.316   5.658
 5138POPC   PO467176  36.639  36.068   5.363
 5138POPC   GL167177  36.771  36.020   5.808
 5138POPC   GL267178  36.793  36.356   5.962
 5138POPC   C1A67179  36.861  35.987   6.275
 5138POPC   D2A67180  36.748  36.329   6.569
 5138POPC   C3A67181  36.777  36.127   6.944
 5138POPC   C4A67182  37.035  35.766   6.978
 5138POPC   C1B67183  37.197  36.356   6.293
 5138POPC   C2B67184  37.272  36.192   6.719
 5138POPC   C3B67185  37.183  36.368   7.134
 5138POPC   C4B67186  37.080  36.094   7.503
 5139POPC   NC367187  42.430   4.393   5.392
 5139POPC   PO467188  41.715   4.394   5.319
 5139POPC   GL167189  41.992   4.399   5.689
 5139POPC   GL267190  42.182   4.077   5.759
 5139POPC   C1A67191  42.120   4.489   6.134
 5139POPC   D2A67192  42.140   4.629   6.585
 5139POPC   C3A67193  42.321   4.385   6.884
 5139POPC   C4A67194  42.298   4.469   7.291
 5139POPC   C1B67195  42.539   4.146   6.054
 5139POPC   C2B67196  42.603   4.135   6.506
 5139POPC   C3B67197  42.595   3.956   6.897
 5139POPC   C4B67198  42.715   3.878   7.325
 5140POPC   NC367199  34.352  25.969   5.404
 5140POPC   PO467200  35.014  26.146   5.526
 5140POPC   GL167201  34.734  25.947   5.795
 5140POPC   GL267202  34.515  26.167   5.828
 5140POPC   C1A67203  34.734  25.830   6.230
 5140POPC   D2A67204  34.699  26.062   6.629
 5140POPC   C3A67205  34.809  25.958   7.062
 5140POPC   C4A67206  34.626  26.167   7.430
 5140POPC   C1B67207  34.421  26.248   6.227
 5140POPC   C2B67208  34.217  26.257   6.616
 5140POPC   C3B67209  34.315  26.126   6.995
 5140POPC   C4B67210  34.348  25.776   7.278
 5141POPC   NC367211  28.698  16.797   5.339
 5141POPC   PO467212  28.066  16.597   5.422
 5141POPC   GL167213  28.283  16.752   5.773
 5141POPC   GL267214  28.603  16.567   5.810
 5141POPC   C1A67215  28.304  16.871   6.227
 5141POPC   D2A67216  28.540  16.955   6.605
 5141POPC   C3A67217  28.331  16.923   6.996
 5141POPC   C4A67218  28.094  16.676   7.274
 5141POPC   C1B67219  28.782  16.433   6.211
 5141POPC   C2B67220  28.579  16.421   6.606
 5141POPC   C3B67221  28.508  16.444   7.049
 5141POPC   C4B67222  28.474  16.223   7.458
 5142POPC   NC367223  13.199  12.863   5.473
 5142POPC   PO467224  13.831  13.145   5.451
 5142POPC   GL167225  13.657  13.135   5.825
 5142POPC   GL267226  13.479  12.836   5.881
 5142POPC   C1A67227  13.793  12.988   6.230
 5142POPC   D2A67228  13.600  12.819   6.553
 5142POPC   C3A67229  13.759  13.006   6.922
 5142POPC   C4A67230  13.698  13.023   7.353
 5142POPC   C1B67231  13.223  12.627   6.176
 5142POPC   C2B67232  13.228  12.475   6.580
 5142POPC   C3B67233  13.331  12.668   6.980
 5142POPC   C4B67234  13.504  12.550   7.351
 5143POPC   NC367235  20.653  31.604   5.668
 5143POPC   PO467236  20.949  31.180   5.209
 5143POPC   GL167237  20.565  31.025   5.575
 5143POPC   GL267238  20.322  31.231   5.758
 5143POPC   C1A67239  20.542  30.941   6.107
 5143POPC   D2A67240  20.800  31.092   6.516
 5143POPC   C3A67241  20.783  31.300   6.956
 5143POPC   C4A67242  20.913  31.638   7.267
 5143POPC   C1B67243  20.315  31.386   6.200
 5143POPC   C2B67244  20.359  31.383   6.648
 5143POPC   C3B67245  20.425  31.705   6.959
 5143POPC   C4B67246  20.408  31.649   7.389
 5144POPC   NC367247  38.137   3.981   5.283
 5144POPC   PO467248  38.593   3.535   5.448
 5144POPC   GL167249  38.476   3.575   5.843
 5144POPC   GL267250  38.771   3.404   5.931
 5144POPC   C1A67251  38.387   3.393   6.246
 5144POPC   D2A67252  38.689   3.236   6.493
 5144POPC   C3A67253  38.651   3.225   6.936
 5144POPC   C4A67254  38.516   3.547   7.233
 5144POPC   C1B67255  38.829   3.687   6.283
 5144POPC   C2B67256  38.943   3.638   6.728
 5144POPC   C3B67257  38.924   3.856   7.120
 5144POPC   C4B67258  38.915   3.672   7.544
 5145POPC   NC367259  20.361  24.296   5.665
 5145POPC   PO467260  20.235  24.865   5.365
 5145POPC   GL167261  20.272  24.884   5.850
 5145POPC   GL267262  20.511  24.638   6.015
 5145POPC   C1A67263  20.243  24.931   6.335
 5145POPC   D2A67264  20.178  24.665   6.710
 5145POPC   C3A67265  20.294  24.575   7.145
 5145POPC   C4A67266  20.577  24.213   7.243
 5145POPC   C1B67267  20.435  24.358   6.384
 5145POPC   C2B67268  20.309  24.131   6.772
 5145POPC   C3B67269  20.067  24.116   7.138
 5145POPC   C4B67270  20.189  24.187   7.581
 5146POPC   NC367271  19.398   7.574   5.512
 5146POPC   PO467272  19.095   6.985   5.540
 5146POPC   GL167273  19.109   7.280   5.878
 5146POPC   GL267274  18.965   7.612   5.795
 5146POPC   C1A67275  19.203   7.463   6.293
 5146POPC   D2A67276  18.884   7.388   6.558
 5146POPC   C3A67277  18.936   7.184   6.924
 5146POPC   C4A67278  18.768   7.259   7.318
 5146POPC   C1B67279  18.954   7.882   6.152
 5146POPC   C2B67280  19.049   7.902   6.597
 5146POPC   C3B67281  19.009   7.699   7.026
 5146POPC   C4B67282  18.962   7.684   7.506
 5147POPC   NC367283  28.042  26.818   5.460
 5147POPC   PO467284  27.338  26.895   5.410
 5147POPC   GL167285  27.558  27.001   5.789
 5147POPC   GL267286  27.785  26.737   5.872
 5147POPC   C1A67287  27.465  26.933   6.214
 5147POPC   D2A67288  27.557  27.080   6.588
 5147POPC   C3A67289  27.482  26.867   6.961
 5147POPC   C4A67290  27.548  26.987   7.391
 5147POPC   C1B67291  27.963  26.954   6.244
 5147POPC   C2B67292  27.950  26.797   6.674
 5147POPC   C3B67293  28.007  26.866   7.096
 5147POPC   C4B67294  28.190  26.492   7.237
 5148POPC   NC367295   1.629  30.612   5.403
 5148POPC   PO467296   2.325  30.649   5.277
 5148POPC   GL167297   2.212  30.547   5.717
 5148POPC   GL267298   1.851  30.560   5.872
 5148POPC   C1A67299   2.286  30.679   6.137
 5148POPC   D2A67300   2.290  30.900   6.532
 5148POPC   C3A67301   2.282  30.689   6.941
 5148POPC   C4A67302   1.875  30.705   7.107
 5148POPC   C1B67303   1.804  30.706   6.345
 5148POPC   C2B67304   1.755  31.037   6.721
 5148POPC   C3B67305   1.662  31.144   7.195
 5148POPC   C4B67306   1.762  31.005   7.615
 5149POPC   NC367307  26.254  17.157   5.461
 5149POPC   PO467308  25.760  16.707   5.362
 5149POPC   GL167309  25.860  16.781   5.753
 5149POPC   GL267310  25.833  17.104   5.762
 5149POPC   C1A67311  26.090  16.860   6.136
 5149POPC   D2A67312  26.227  16.612   6.477
 5149POPC   C3A67313  26.107  16.725   6.879
 5149POPC   C4A67314  26.218  16.563   7.285
 5149POPC   C1B67315  25.585  17.007   6.153
 5149POPC   C2B67316  25.781  16.966   6.544
 5149POPC   C3B67317  25.825  17.164   6.937
 5149POPC   C4B67318  25.985  16.996   7.294
 5150POPC   NC367319   5.260  39.834   5.473
 5150POPC   PO467320   5.247  40.488   5.469
 5150POPC   GL167321   5.312  40.209   5.841
 5150POPC   GL267322   4.981  40.036   5.921
 5150POPC   C1A67323   5.291  40.169   6.304
 5150POPC   D2A67324   5.059  40.387   6.611
 5150POPC   C3A67325   5.158  40.168   6.950
 5150POPC   C4A67326   5.218  39.886   7.246
 5150POPC   C1B67327   5.067  39.695   6.229
 5150POPC   C2B67328   5.099  39.651   6.687
 5150POPC   C3B67329   5.082  39.438   7.081
 5150POPC   C4B67330   5.034  39.504   7.542
 5151POPC   NC367331  18.838  27.455   5.528
 5151POPC   PO467332  18.228  27.847   5.476
 5151POPC   GL167333  18.327  27.751   5.866
 5151POPC   GL267334  18.647  27.712   5.909
 5151POPC   C1A67335  18.141  27.701   6.253
 5151POPC   D2A67336  18.075  27.485   6.612
 5151POPC   C3A67337  18.260  27.640   6.962
 5151POPC   C4A67338  18.233  27.445   7.331
 5151POPC   C1B67339  18.750  27.915   6.251
 5151POPC   C2B67340  18.509  27.937   6.598
 5151POPC   C3B67341  18.734  27.859   6.965
 5151POPC   C4B67342  18.631  27.743   7.351
 5152POPC   NC367343  36.374  20.263   5.509
 5152POPC   PO467344  36.107  20.866   5.574
 5152POPC   GL167345  36.059  20.516   5.842
 5152POPC   GL267346  35.835  20.735   5.988
 5152POPC   C1A67347  36.327  20.366   6.187
 5152POPC   D2A67348  36.592  20.403   6.565
 5152POPC   C3A67349  36.367  20.167   6.873
 5152POPC   C4A67350  35.999  20.249   7.120
 5152POPC   C1B67351  35.814  20.488   6.316
 5152POPC   C2B67352  36.085  20.536   6.643
 5152POPC   C3B67353  36.250  20.682   7.013
 5152POPC   C4B67354  35.932  20.707   7.339
 5153POPC   NC367355  22.758  12.071   5.378
 5153POPC   PO467356  23.308  11.965   5.475
 5153POPC   GL167357  23.061  12.057   5.872
 5153POPC   GL267358  22.685  12.054   5.890
 5153POPC   C1A67359  22.988  12.301   6.299
 5153POPC   D2A67360  22.724  12.287   6.695
 5153POPC   C3A67361  22.887  12.202   7.104
 5153POPC   C4A67362  23.287  12.397   7.326
 5153POPC   C1B67363  22.736  11.865   6.315
 5153POPC   C2B67364  22.658  11.768   6.753
 5153POPC   C3B67365  22.542  11.786   7.166
 5153POPC   C4B67366  22.544  12.075   7.483
 5154POPC   NC367367  36.490   9.821   5.463
 5154POPC   PO467368  37.221   9.553   5.516
 5154POPC   GL167369  36.829   9.524   5.740
 5154POPC   GL267370  36.749   9.853   5.903
 5154POPC   C1A67371  36.732   9.397   6.160
 5154POPC   D2A67372  36.904   9.650   6.486
 5154POPC   C3A67373  36.971   9.444   6.879
 5154POPC   C4A67374  36.767   9.383   7.286
 5154POPC   C1B67375  37.086  10.020   6.139
 5154POPC   C2B67376  37.096  10.166   6.548
 5154POPC   C3B67377  36.790  10.027   6.832
 5154POPC   C4B67378  36.945   9.839   7.181
 5155POPC   NC367379  32.175   7.840   5.422
 5155POPC   PO467380  32.073   7.128   5.405
 5155POPC   GL167381  32.172   7.434   5.743
 5155POPC   GL267382  32.498   7.633   5.760
 5155POPC   C1A67383  32.098   7.389   6.193
 5155POPC   D2A67384  32.155   7.218   6.611
 5155POPC   C3A67385  31.958   7.432   6.959
 5155POPC   C4A67386  31.951   7.358   7.375
 5155POPC   C1B67387  32.630   7.424   6.122
 5155POPC   C2B67388  32.704   7.290   6.533
 5155POPC   C3B67389  32.541   7.275   6.946
 5155POPC   C4B67390  32.377   7.626   7.183
 5156POPC   NC367391  10.583  39.701   5.021
 5156POPC   PO467392  10.134  39.873   5.463
 5156POPC   GL167393  10.137  39.844   5.882
 5156POPC   GL267394  10.249  40.214   5.843
 5156POPC   C1A67395  10.141  39.609   6.289
 5156POPC   D2A67396  10.360  39.819   6.596
 5156POPC   C3A67397  10.212  39.972   6.971
 5156POPC   C4A67398  10.259  39.697   7.311
 5156POPC   C1B67399  10.477  40.083   6.174
 5156POPC   C2B67400  10.474  40.302   6.539
 5156POPC   C3B67401  10.699  40.225   6.893
 5156POPC   C4B67402  10.620  40.089   7.296
 5157POPC   NC367403  34.947   1.193   5.134
 5157POPC   PO467404  35.533   1.375   5.442
 5157POPC   GL167405  35.353   1.107   5.743
 5157POPC   GL267406  35.203   1.356   6.001
 5157POPC   C1A67407  35.498   0.934   6.141
 5157POPC   D2A67408  35.515   1.202   6.497
 5157POPC   C3A67409  35.536   1.028   6.898
 5157POPC   C4A67410  35.693   1.174   7.255
 5157POPC   C1B67411  34.972   0.997   6.139
 5157POPC   C2B67412  34.963   0.801   6.542
 5157POPC   C3B67413  34.885   0.952   6.971
 5157POPC   C4B67414  35.133   1.329   7.127
 5158POPC   NC367415  11.125  18.704   5.666
 5158POPC   PO467416  11.658  18.911   5.385
 5158POPC   GL167417  11.503  19.051   5.801
 5158POPC   GL267418  11.223  19.271   5.742
 5158POPC   C1A67419  11.552  18.991   6.277
 5158POPC   D2A67420  11.589  18.929   6.766
 5158POPC   C3A67421  11.230  18.815   7.049
 5158POPC   C4A67422  11.207  18.718   7.539
 5158POPC   C1B67423  11.097  19.188   6.159
 5158POPC   C2B67424  11.213  19.270   6.595
 5158POPC   C3B67425  11.108  19.321   7.047
 5158POPC   C4B67426  11.347  19.185   7.385
 5159POPC   NC367427  11.315   1.846   5.412
 5159POPC   PO467428  11.128   2.508   5.524
 5159POPC   GL167429  11.245   2.134   5.836
 5159POPC   GL267430  11.198   1.720   5.877
 5159POPC   C1A67431  11.023   2.039   6.232
 5159POPC   D2A67432  10.815   2.207   6.605
 5159POPC   C3A67433  11.076   2.201   6.993
 5159POPC   C4A67434  11.478   2.250   7.231
 5159POPC   C1B67435  11.474   1.770   6.222
 5159POPC   C2B67436  11.580   1.915   6.614
 5159POPC   C3B67437  11.442   1.804   7.019
 5159POPC   C4B67438  11.624   1.737   7.426
 5160POPC   NC367439   5.142  17.636   5.388
 5160POPC   PO467440   5.171  16.946   5.427
 5160POPC   GL167441   5.089  17.313   5.794
 5160POPC   GL267442   4.930  17.689   5.832
 5160POPC   C1A67443   5.125  17.490   6.240
 5160POPC   D2A67444   5.111  17.748   6.623
 5160POPC   C3A67445   5.093  17.418   6.929
 5160POPC   C4A67446   4.901  17.097   7.234
 5160POPC   C1B67447   4.783  17.912   6.205
 5160POPC   C2B67448   4.641  18.008   6.648
 5160POPC   C3B67449   4.686  17.739   6.978
 5160POPC   C4B67450   4.852  17.594   7.348
 5161POPC   NC367451  41.808  25.584   5.450
 5161POPC   PO467452  41.493  24.975   5.502
 5161POPC   GL167453  41.508  25.203   5.828
 5161POPC   GL267454  41.843  25.168   5.854
 5161POPC   C1A67455  41.525  25.066   6.260
 5161POPC   D2A67456  41.268  24.956   6.606
 5161POPC   C3A67457  41.545  24.942   6.927
 5161POPC   C4A67458  41.467  25.145   7.279
 5161POPC   C1B67459  41.812  25.487   6.155
 5161POPC   C2B67460  41.948  25.495   6.594
 5161POPC   C3B67461  41.616  25.488   6.916
 5161POPC   C4B67462  41.599  25.630   7.355
 5162POPC   NC367463  23.243  30.558   5.410
 5162POPC   PO467464  22.644  30.768   5.139
 5162POPC   GL167465  22.742  30.682   5.616
 5162POPC   GL267466  22.666  31.010   5.774
 5162POPC   C1A67467  22.889  30.630   6.082
 5162POPC   D2A67468  23.112  30.836   6.487
 5162POPC   C3A67469  22.996  30.727   6.940
 5162POPC   C4A67470  23.251  30.553   7.288
 5162POPC   C1B67471  22.794  31.123   6.208
 5162POPC   C2B67472  22.665  31.031   6.656
 5162POPC   C3B67473  22.680  31.122   7.080
 5162POPC   C4B67474  22.515  31.049   7.489
 5163POPC   NC367475  13.022  31.144   5.442
 5163POPC   PO467476  13.213  31.811   5.467
 5163POPC   GL167477  13.083  31.592   5.810
 5163POPC   GL267478  13.275  31.278   5.860
 5163POPC   C1A67479  12.786  31.623   6.164
 5163POPC   D2A67480  12.799  31.913   6.528
 5163POPC   C3A67481  12.883  31.674   6.879
 5163POPC   C4A67482  12.672  31.635   7.238
 5163POPC   C1B67483  13.389  31.129   6.266
 5163POPC   C2B67484  13.101  31.193   6.619
 5163POPC   C3B67485  13.105  31.015   7.035
 5163POPC   C4B67486  13.079  31.359   7.311
 5164POPC   NC367487  15.583  22.060   5.484
 5164POPC   PO467488  16.186  21.914   5.651
 5164POPC   GL167489  16.118  22.213   5.989
 5164POPC   GL267490  15.791  22.177   5.935
 5164POPC   C1A67491  16.046  22.255   6.443
 5164POPC   D2A67492  15.689  22.091   6.660
 5164POPC   C3A67493  15.860  22.047   7.041
 5164POPC   C4A67494  16.233  22.339   7.093
 5164POPC   C1B67495  15.611  22.408   6.252
 5164POPC   C2B67496  15.620  22.646   6.601
 5164POPC   C3B67497  15.782  22.545   6.973
 5164POPC   C4B67498  15.790  22.422   7.386
 5165POPC   NC367499  20.115  26.377   5.673
 5165POPC   PO467500  19.935  25.766   5.349
 5165POPC   GL167501  19.773  25.978   5.731
 5165POPC   GL267502  19.491  26.236   5.761
 5165POPC   C1A67503  19.740  26.076   6.181
 5165POPC   D2A67504  19.641  25.922   6.596
 5165POPC   C3A67505  19.967  25.986   6.887
 5165POPC   C4A67506  20.000  26.043   7.294
 5165POPC   C1B67507  19.260  26.261   6.192
 5165POPC   C2B67508  19.306  26.308   6.679
 5165POPC   C3B67509  19.423  26.156   7.124
 5165POPC   C4B67510  19.646  26.375   7.499
 5166POPC   NC367511  14.513  20.262   5.519
 5166POPC   PO467512  14.721  21.040   5.521
 5166POPC   GL167513  14.474  20.808   5.825
 5166POPC   GL267514  14.677  20.519   5.948
 5166POPC   C1A67515  14.382  20.811   6.273
 5166POPC   D2A67516  14.069  20.786   6.599
 5166POPC   C3A67517  14.142  20.896   7.043
 5166POPC   C4A67518  14.267  20.769   7.476
 5166POPC   C1B67519  14.835  20.535   6.368
 5166POPC   C2B67520  14.550  20.587   6.719
 5166POPC   C3B67521  14.395  20.450   7.090
 5166POPC   C4B67522  14.538  20.319   7.438
 5167POPC   NC367523  22.506  28.325   5.149
 5167POPC   PO467524  21.927  28.323   5.295
 5167POPC   GL167525  22.107  28.402   5.691
 5167POPC   GL267526  21.750  28.441   5.764
 5167POPC   C1A67527  22.330  28.268   6.089
 5167POPC   D2A67528  22.407  28.460   6.478
 5167POPC   C3A67529  22.216  28.302   6.810
 5167POPC   C4A67530  22.277  28.453   7.199
 5167POPC   C1B67531  21.809  28.212   6.132
 5167POPC   C2B67532  21.756  28.380   6.547
 5167POPC   C3B67533  21.774  28.447   7.006
 5167POPC   C4B67534  21.919  28.091   7.271
 5168POPC   NC367535  41.863  13.898   5.482
 5168POPC   PO467536  41.325  13.417   5.348
 5168POPC   GL167537  41.575  13.517   5.690
 5168POPC   GL267538  41.347  13.771   5.794
 5168POPC   C1A67539  41.630  13.501   6.139
 5168POPC   D2A67540  41.468  13.454   6.553
 5168POPC   C3A67541  41.716  13.575   6.901
 5168POPC   C4A67542  41.679  13.476   7.340
 5168POPC   C1B67543  41.231  13.862   6.242
 5168POPC   C2B67544  41.161  13.874   6.700
 5168POPC   C3B67545  41.414  13.945   7.093
 5168POPC   C4B67546  41.855  13.945   7.272
 5169POPC   NC367547   4.779  40.444   5.506
 5169POPC   PO467548   4.220  40.922   5.387
 5169POPC   GL167549   4.488  40.790   5.763
 5169POPC   GL267550   4.731  41.044   5.763
 5169POPC   C1A67551   4.552  40.592   6.212
 5169POPC   D2A67552   4.578  40.585   6.701
 5169POPC   C3A67553   4.210  40.729   6.926
 5169POPC   C4A67554   4.088  40.532   7.294
 5169POPC   C1B67555   4.569  41.127   6.181
 5169POPC   C2B67556   4.426  41.230   6.599
 5169POPC   C3B67557   4.617  41.063   6.963
 5169POPC   C4B67558   4.474  40.868   7.352
 5170POPC   NC367559  21.163  41.472   5.394
 5170POPC   PO467560  21.862  41.281   5.404
 5170POPC   GL167561  21.528  41.353   5.735
 5170POPC   GL267562  21.364  41.715   5.786
 5170POPC   C1A67563  21.385  41.409   6.173
 5170POPC   D2A67564  21.508  41.301   6.569
 5170POPC   C3A67565  21.302  41.437   6.945
 5170POPC   C4A67566  21.461  41.605   7.320
 5170POPC   C1B67567  21.397  41.955   6.148
 5170POPC   C2B67568  21.308  41.813   6.585
 5170POPC   C3B67569  21.306  41.988   7.020
 5170POPC   C4B67570  21.054  41.887   7.414
 5171POPC   NC367571   8.661  19.234   5.494
 5171POPC   PO467572   8.036  18.933   5.313
 5171POPC   GL167573   8.194  19.119   5.696
 5171POPC   GL267574   7.925  19.027   5.899
 5171POPC   C1A67575   8.377  19.272   6.103
 5171POPC   D2A67576   8.463  19.413   6.527
 5171POPC   C3A67577   8.208  19.219   6.846
 5171POPC   C4A67578   8.410  19.117   7.240
 5171POPC   C1B67579   7.959  19.087   6.348
 5171POPC   C2B67580   7.826  18.877   6.709
 5171POPC   C3B67581   8.131  18.731   7.008
 5171POPC   C4B67582   8.025  18.811   7.405
 5172POPC   NC367583  14.703  41.169   5.548
 5172POPC   PO467584  14.331  41.576   5.564
 5172POPC   GL167585  14.069  41.374   5.865
 5172POPC   GL267586  14.275  41.080   5.902
 5172POPC   C1A67587  14.120  41.369   6.328
 5172POPC   D2A67588  14.120  41.634   6.723
 5172POPC   C3A67589  14.084  41.514   7.163
 5172POPC   C4A67590  14.370  41.747   7.430
 5172POPC   C1B67591  14.590  41.219   6.227
 5172POPC   C2B67592  14.613  41.518   6.572
 5172POPC   C3B67593  14.564  41.487   7.016
 5172POPC   C4B67594  14.379  41.108   7.247
 5173POPC   NC367595  16.871  33.395   5.317
 5173POPC   PO467596  16.530  34.035   5.363
 5173POPC   GL167597  16.496  33.845   5.768
 5173POPC   GL267598  16.835  33.693   5.794
 5173POPC   C1A67599  16.364  34.062   6.146
 5173POPC   D2A67600  16.352  34.119   6.591
 5173POPC   C3A67601  16.654  33.866   6.811
 5173POPC   C4A67602  16.711  33.886   7.222
 5173POPC   C1B67603  17.065  33.384   6.019
 5173POPC   C2B67604  17.046  33.364   6.457
 5173POPC   C3B67605  17.006  33.289   6.885
 5173POPC   C4B67606  17.083  33.567   7.195
 5174POPC   NC367607  33.343  44.452   5.468
 5174POPC   PO467608  33.959  44.799   5.364
 5174POPC   GL167609  33.767  44.640   5.733
 5174POPC   GL267610  33.779  44.943   5.868
 5174POPC   C1A67611  33.861  44.592   6.199
 5174POPC   D2A67612  33.639  44.646   6.594
 5174POPC   C3A67613  33.873  44.521   6.985
 5174POPC   C4A67614  33.569  44.680   7.282
 5174POPC   C1B67615  33.682   0.070   6.263
 5174POPC   C2B67616  33.914   0.082   6.622
 5174POPC   C3B67617  33.821   0.019   6.997
 5174POPC   C4B67618  33.965   0.018   7.407
 5175POPC   NC367619   0.495  24.257   5.416
 5175POPC   PO467620  44.987  24.721   5.436
 5175POPC   GL167621   0.351  24.654   5.815
 5175POPC   GL267622   0.585  24.329   5.903
 5175POPC   C1A67623   0.426  24.621   6.304
 5175POPC   D2A67624   0.292  24.462   6.736
 5175POPC   C3A67625   0.380  24.790   7.056
 5175POPC   C4A67626   0.177  24.928   7.436
 5175POPC   C1B67627   0.835  24.295   6.274
 5175POPC   C2B67628   0.799  24.425   6.714
 5175POPC   C3B67629   0.687  24.401   7.154
 5175POPC   C4B67630   0.800  24.348   7.619
 5176POPC   NC367631  25.710  33.586   5.275
 5176POPC   PO467632  26.282  33.992   5.183
 5176POPC   GL167633  26.230  33.968   5.672
 5176POPC   GL267634  26.390  34.207   5.891
 5176POPC   C1A67635  26.038  33.675   6.033
 5176POPC   D2A67636  25.910  33.397   6.417
 5176POPC   C3A67637  25.889  33.500   6.882
 5176POPC   C4A67638  25.688  33.551   7.303
 5176POPC   C1B67639  26.254  34.043   6.291
 5176POPC   C2B67640  25.886  33.909   6.546
 5176POPC   C3B67641  25.854  34.005   7.003
 5176POPC   C4B67642  26.183  34.154   7.305
 5177POPC   NC367643  34.802  31.042   5.115
 5177POPC   PO467644  34.494  31.562   5.188
 5177POPC   GL167645  34.396  31.276   5.622
 5177POPC   GL267646  34.687  31.091   5.795
 5177POPC   C1A67647  34.401  31.323   6.147
 5177POPC   D2A67648  34.349  31.336   6.663
 5177POPC   C3A67649  34.500  31.683   7.018
 5177POPC   C4A67650  34.772  31.767   7.424
 5177POPC   C1B67651  34.881  31.077   6.200
 5177POPC   C2B67652  34.918  31.327   6.563
 5177POPC   C3B67653  34.779  31.243   6.963
 5177POPC   C4B67654  34.824  30.944   7.265
 5178POPC   NC367655   4.176  22.312   5.115
 5178POPC   PO467656   4.630  22.214   5.553
 5178POPC   GL167657   4.209  22.288   5.832
 5178POPC   GL267658   4.144  21.938   6.034
 5178POPC   C1A67659   4.046  22.376   6.239
 5178POPC   D2A67660   4.182  22.107   6.556
 5178POPC   C3A67661   4.092  22.216   6.941
 5178POPC   C4A67662   4.412  22.325   7.237
 5178POPC   C1B67663   4.243  21.653   6.368
 5178POPC   C2B67664   4.579  21.686   6.641
 5178POPC   C3B67665   4.688  21.923   6.965
 5178POPC   C4B67666   4.755  21.782   7.353
 5179POPC   NC367667   9.820  33.610   5.467
 5179POPC   PO467668  10.252  33.881   5.882
 5179POPC   GL167669   9.917  33.657   5.983
 5179POPC   GL267670   9.855  33.313   5.938
 5179POPC   C1A67671   9.947  33.562   6.395
 5179POPC   D2A67672   9.670  33.720   6.661
 5179POPC   C3A67673   9.810  33.850   7.031
 5179POPC   C4A67674  10.056  34.119   7.259
 5179POPC   C1B67675   9.550  33.263   6.306
 5179POPC   C2B67676   9.557  33.213   6.757
 5179POPC   C3B67677   9.562  33.430   7.161
 5179POPC   C4B67678   9.847  33.654   7.488
 5180POPC   NC367679   3.314  28.237   5.428
 5180POPC   PO467680   3.766  28.588   5.399
 5180POPC   GL167681   3.549  28.532   5.809
 5180POPC   GL267682   3.694  28.393   6.121
 5180POPC   C1A67683   3.223  28.623   6.132
 5180POPC   D2A67684   3.138  28.710   6.586
 5180POPC   C3A67685   3.412  28.482   6.899
 5180POPC   C4A67686   3.558  28.334   7.318
 5180POPC   C1B67687   3.638  28.742   6.450
 5180POPC   C2B67688   3.514  28.983   6.848
 5180POPC   C3B67689   3.476  28.837   7.285
 5180POPC   C4B67690   3.800  28.695   7.610
 5181POPC   NC367691  39.161  32.049   5.602
 5181POPC   PO467692  39.462  32.559   5.207
 5181POPC   GL167693  39.338  32.523   5.723
 5181POPC   GL267694  39.505  32.310   5.964
 5181POPC   C1A67695  39.066  32.474   6.165
 5181POPC   D2A67696  38.892  32.245   6.592
 5181POPC   C3A67697  38.966  32.300   7.079
 5181POPC   C4A67698  38.807  32.394   7.562
 5181POPC   C1B67699  39.255  32.014   6.265
 5181POPC   C2B67700  39.153  31.793   6.658
 5181POPC   C3B67701  39.292  31.856   7.083
 5181POPC   C4B67702  39.430  31.846   7.526
 5182POPC   NC367703   0.874  42.126   5.480
 5182POPC   PO467704   1.425  42.524   5.402
 5182POPC   GL167705   1.374  42.290   5.802
 5182POPC   GL267706   1.606  41.991   5.786
 5182POPC   C1A67707   1.084  42.279   6.203
 5182POPC   D2A67708   0.793  42.190   6.585
 5182POPC   C3A67709   0.978  42.269   7.038
 5182POPC   C4A67710   1.400  42.456   7.074
 5182POPC   C1B67711   1.582  42.074   6.224
 5182POPC   C2B67712   1.340  41.963   6.566
 5182POPC   C3B67713   1.455  41.963   6.986
 5182POPC   C4B67714   1.361  42.083   7.425
 5183POPC   NC367715  34.213  27.869   5.018
 5183POPC   PO467716  34.702  28.241   5.323
 5183POPC   GL167717  34.639  28.297   5.748
 5183POPC   GL267718  34.296  28.401   5.742
 5183POPC   C1A67719  34.597  28.522   6.157
 5183POPC   D2A67720  34.733  28.789   6.496
 5183POPC   C3A67721  34.613  28.657   6.915
 5183POPC   C4A67722  34.642  28.379   7.264
 5183POPC   C1B67723  34.319  28.092   6.100
 5183POPC   C2B67724  34.193  27.943   6.512
 5183POPC   C3B67725  34.281  28.173   6.917
 5183POPC   C4B67726  34.322  27.962   7.318
 5184POPC   NC367727  41.485  18.819   5.189
 5184POPC   PO467728  41.482  19.444   5.310
 5184POPC   GL167729  41.527  19.156   5.664
 5184POPC   GL267730  41.528  18.795   5.691
 5184POPC   C1A67731  41.470  19.239   6.116
 5184POPC   D2A67732  41.533  19.053   6.526
 5184POPC   C3A67733  41.504  19.244   6.933
 5184POPC   C4A67734  41.874  19.154   7.195
 5184POPC   C1B67735  41.480  18.727   6.106
 5184POPC   C2B67736  41.323  18.600   6.502
 5184POPC   C3B67737  41.253  18.752   6.870
 5184POPC   C4B67738  41.546  18.793   7.193
 5185POPC   NC367739   8.124  34.967   5.436
 5185POPC   PO467740   8.618  34.512   5.582
 5185POPC   GL167741   8.236  34.600   5.807
 5185POPC   GL267742   8.232  34.281   5.963
 5185POPC   C1A67743   8.007  34.676   6.196
 5185POPC   D2A67744   8.166  34.587   6.598
 5185POPC   C3A67745   7.972  34.649   6.998
 5185POPC   C4A67746   7.975  35.000   7.259
 5185POPC   C1B67747   8.525  34.596   6.208
 5185POPC   C2B67748   8.678  34.460   6.539
 5185POPC   C3B67749   8.457  34.277   6.868
 5185POPC   C4B67750   8.324  34.361   7.240
 5186POPC   NC367751  11.010   7.695   5.106
 5186POPC   PO467752  11.492   7.435   5.425
 5186POPC   GL167753  11.523   7.295   5.879
 5186POPC   GL267754  11.204   7.139   6.018
 5186POPC   C1A67755  11.513   7.452   6.327
 5186POPC   D2A67756  11.534   7.708   6.721
 5186POPC   C3A67757  11.695   7.471   7.086
 5186POPC   C4A67758  11.485   7.451   7.492
 5186POPC   C1B67759  10.996   7.483   6.228
 5186POPC   C2B67760  11.038   7.567   6.667
 5186POPC   C3B67761  11.215   7.328   7.016
 5186POPC   C4B67762  11.071   7.131   7.385
 5187POPC   NC367763  29.720  35.602   5.354
 5187POPC   PO467764  30.299  35.179   5.402
 5187POPC   GL167765  30.092  35.069   5.767
 5187POPC   GL267766  29.746  35.202   5.731
 5187POPC   C1A67767  30.214  35.124   6.193
 5187POPC   D2A67768  30.076  35.334   6.547
 5187POPC   C3A67769  30.109  35.290   6.974
 5187POPC   C4A67770  30.252  35.602   7.271
 5187POPC   C1B67771  29.839  35.469   6.079
 5187POPC   C2B67772  29.640  35.564   6.473
 5187POPC   C3B67773  29.767  35.727   6.860
 5187POPC   C4B67774  29.592  35.660   7.259
 5188POPC   NC367775  15.085   7.794   5.439
 5188POPC   PO467776  15.513   7.395   5.397
 5188POPC   GL167777  15.248   7.185   5.712
 5188POPC   GL267778  15.095   7.488   5.860
 5188POPC   C1A67779  15.220   7.085   6.180
 5188POPC   D2A67780  15.300   7.363   6.533
 5188POPC   C3A67781  15.093   7.280   6.933
 5188POPC   C4A67782  15.277   7.325   7.358
 5188POPC   C1B67783  15.198   7.791   6.197
 5188POPC   C2B67784  15.367   7.873   6.604
 5188POPC   C3B67785  15.449   7.654   7.002
 5188POPC   C4B67786  15.497   7.794   7.426
 5189POPC   NC367787  22.364   0.104   5.486
 5189POPC   PO467788  21.940  44.562   5.527
 5189POPC   GL167789  22.148  44.703   5.896
 5189POPC   GL267790  21.996   0.024   5.854
 5189POPC   C1A67791  22.361  44.601   6.312
 5189POPC   D2A67792  22.258  44.505   6.750
 5189POPC   C3A67793  22.296  44.826   7.057
 5189POPC   C4A67794  22.320   0.039   7.470
 5189POPC   C1B67795  21.883   0.071   6.275
 5189POPC   C2B67796  21.880  44.821   6.625
 5189POPC   C3B67797  21.803  44.742   7.018
 5189POPC   C4B67798  21.889   0.081   7.234
 5190POPC   NC367799   2.229  29.389   5.725
 5190POPC   PO467800   1.600  29.463   5.373
 5190POPC   GL167801   1.710  29.329   5.827
 5190POPC   GL267802   1.828  28.985   5.817
 5190POPC   C1A67803   1.891  29.309   6.291
 5190POPC   D2A67804   2.060  29.335   6.719
 5190POPC   C3A67805   1.773  29.358   7.065
 5190POPC   C4A67806   1.699  29.150   7.475
 5190POPC   C1B67807   1.912  28.806   6.248
 5190POPC   C2B67808   1.878  28.788   6.711
 5190POPC   C3B67809   2.104  28.959   7.078
 5190POPC   C4B67810   2.201  29.096   7.497
 5191POPC   NC367811  38.217   8.539   5.380
 5191POPC   PO467812  37.610   8.977   5.366
 5191POPC   GL167813  37.759   8.683   5.716
 5191POPC   GL267814  37.533   8.386   5.819
 5191POPC   C1A67815  37.869   8.842   6.132
 5191POPC   D2A67816  37.780   9.250   6.377
 5191POPC   C3A67817  37.659   9.245   6.799
 5191POPC   C4A67818  37.909   9.322   7.154
 5191POPC   C1B67819  37.368   8.555   6.191
 5191POPC   C2B67820  37.530   8.787   6.502
 5191POPC   C3B67821  37.819   8.742   6.821
 5191POPC   C4B67822  37.659   8.869   7.211
 5192POPC   NC367823  26.863  20.158   5.490
 5192POPC   PO467824  26.893  19.446   5.697
 5192POPC   GL167825  26.810  19.792   5.839
 5192POPC   GL267826  27.134  19.885   5.779
 5192POPC   C1A67827  26.831  19.846   6.237
 5192POPC   D2A67828  26.792  19.701   6.603
 5192POPC   C3A67829  26.677  19.973   6.856
 5192POPC   C4A67830  26.687  19.951   7.303
 5192POPC   C1B67831  27.253  20.079   6.136
 5192POPC   C2B67832  27.153  20.067   6.580
 5192POPC   C3B67833  27.144  19.864   6.988
 5192POPC   C4B67834  27.122  19.740   7.435
 5193POPC   NC367835  38.269  29.406   5.452
 5193POPC   PO467836  38.515  28.821   5.511
 5193POPC   GL167837  38.754  29.019   5.806
 5193POPC   GL267838  38.807  28.728   5.991
 5193POPC   C1A67839  38.643  29.393   6.075
 5193POPC   D2A67840  38.299  29.480   6.372
 5193POPC   C3A67841  38.417  29.514   6.806
 5193POPC   C4A67842  38.305  29.290   7.207
 5193POPC   C1B67843  38.515  28.927   6.300
 5193POPC   C2B67844  38.430  28.977   6.770
 5193POPC   C3B67845  38.442  28.804   7.222
 5193POPC   C4B67846  38.609  28.819   7.660
 5194POPC   NC367847  37.751   4.358   5.075
 5194POPC   PO467848  37.718   3.821   5.450
 5194POPC   GL167849  37.857   4.176   5.683
 5194POPC   GL267850  37.619   4.332   5.827
 5194POPC   C1A67851  37.958   4.174   6.163
 5194POPC   D2A67852  37.960   3.905   6.559
 5194POPC   C3A67853  37.950   4.175   6.938
 5194POPC   C4A67854  37.857   4.528   7.233
 5194POPC   C1B67855  37.429   4.243   6.178
 5194POPC   C2B67856  37.553   4.214   6.582
 5194POPC   C3B67857  37.455   4.281   6.992
 5194POPC   C4B67858  37.573   4.068   7.368
 5195POPC   NC367859  13.168  26.560   5.492
 5195POPC   PO467860  13.798  26.814   5.491
 5195POPC   GL167861  13.724  27.002   5.901
 5195POPC   GL267862  13.886  27.329   5.979
 5195POPC   C1A67863  13.575  26.884   6.323
 5195POPC   D2A67864  13.307  26.961   6.645
 5195POPC   C3A67865  13.442  26.838   7.022
 5195POPC   C4A67866  13.637  26.465   7.152
 5195POPC   C1B67867  14.025  27.099   6.329
 5195POPC   C2B67868  14.037  26.747   6.557
 5195POPC   C3B67869  13.941  26.813   6.950
 5195POPC   C4B67870  13.852  27.217   7.092
 5196POPC   NC367871  10.102   8.987   5.500
 5196POPC   PO467872   9.450   9.138   5.383
 5196POPC   GL167873   9.631   9.004   5.739
 5196POPC   GL267874   9.777   9.313   5.800
 5196POPC   C1A67875   9.506   8.893   6.153
 5196POPC   D2A67876   9.546   8.728   6.567
 5196POPC   C3A67877   9.460   8.947   6.931
 5196POPC   C4A67878   9.578   8.820   7.285
 5196POPC   C1B67879   9.929   9.207   6.207
 5196POPC   C2B67880   9.781   9.209   6.636
 5196POPC   C3B67881   9.966   8.908   6.927
 5196POPC   C4B67882  10.249   8.997   7.268
 5197POPC   NC367883  23.426  32.705   5.473
 5197POPC   PO467884  23.320  33.337   5.373
 5197POPC   GL167885  23.518  33.109   5.814
 5197POPC   GL267886  23.718  32.803   5.929
 5197POPC   C1A67887  23.475  33.023   6.299
 5197POPC   D2A67888  23.761  33.168   6.664
 5197POPC   C3A67889  23.638  33.269   7.072
 5197POPC   C4A67890  23.482  32.890   7.251
 5197POPC   C1B67891  23.997  32.961   6.264
 5197POPC   C2B67892  24.170  32.848   6.644
 5197POPC   C3B67893  23.904  32.743   6.985
 5197POPC   C4B67894  24.024  32.663   7.404
 5198POPC   NC367895   7.856  11.449   5.557
 5198POPC   PO467896   7.217  11.158   5.383
 5198POPC   GL167897   7.363  11.330   5.755
 5198POPC   GL267898   7.651  11.148   5.911
 5198POPC   C1A67899   7.213  11.339   6.181
 5198POPC   D2A67900   7.421  11.302   6.584
 5198POPC   C3A67901   7.277  11.629   6.868
 5198POPC   C4A67902   7.154  11.431   7.239
 5198POPC   C1B67903   7.717  11.511   6.217
 5198POPC   C2B67904   7.770  11.679   6.659
 5198POPC   C3B67905   7.732  11.611   7.130
 5198POPC   C4B67906   7.821  11.675   7.576
 5199POPC   NC367907  19.510   6.007   5.429
 5199POPC   PO467908  18.840   5.794   5.529
 5199POPC   GL167909  19.115   5.982   5.814
 5199POPC   GL267910  19.407   6.268   5.848
 5199POPC   C1A67911  18.916   6.077   6.183
 5199POPC   D2A67912  19.016   6.260   6.574
 5199POPC   C3A67913  19.016   5.935   6.857
 5199POPC   C4A67914  18.903   5.965   7.259
 5199POPC   C1B67915  19.413   6.088   6.236
 5199POPC   C2B67916  19.527   6.120   6.616
 5199POPC   C3B67917  19.530   5.917   6.942
 5199POPC   C4B67918  19.390   5.808   7.287
 5200POPC   NC367919  30.692  30.143   5.346
 5200POPC   PO467920  30.164  29.862   5.738
 5200POPC   GL167921  30.527  30.033   5.975
 5200POPC   GL267922  30.759  30.282   5.835
 5200POPC   C1A67923  30.819  29.822   6.257
 5200POPC   D2A67924  30.787  29.566   6.628
 5200POPC   C3A67925  30.701  29.754   7.016
 5200POPC   C4A67926  30.611  29.911   7.449
 5200POPC   C1B67927  30.895  30.338   6.259
 5200POPC   C2B67928  30.878  30.132   6.678
 5200POPC   C3B67929  30.835  30.274   7.106
 5200POPC   C4B67930  30.867  30.334   7.564
 5201POPC   NC367931  10.825  14.449   5.660
 5201POPC   PO467932  10.278  14.121   5.564
 5201POPC   GL167933  10.361  14.363   5.897
 5201POPC   GL267934  10.419  14.725   5.837
 5201POPC   C1A67935  10.503  14.410   6.291
 5201POPC   D2A67936  10.295  14.471   6.660
 5201POPC   C3A67937  10.403  14.678   7.023
 5201POPC   C4A67938  10.415  14.360   7.339
 5201POPC   C1B67939  10.726  14.852   6.203
 5201POPC   C2B67940  10.798  14.663   6.638
 5201POPC   C3B67941  10.896  14.593   7.097
 5201POPC   C4B67942  10.718  14.744   7.476
 5202POPC   NC367943  16.312   4.937   5.467
 5202POPC   PO467944  16.963   5.076   5.259
 5202POPC   GL167945  16.778   5.107   5.708
 5202POPC   GL267946  16.455   5.324   5.804
 5202POPC   C1A67947  16.953   4.910   6.109
 5202POPC   D2A67948  16.754   4.867   6.505
 5202POPC   C3A67949  16.969   4.908   6.895
 5202POPC   C4A67950  16.776   4.797   7.291
 5202POPC   C1B67951  16.672   5.324   6.222
 5202POPC   C2B67952  16.810   5.370   6.655
 5202POPC   C3B67953  16.665   5.419   7.069
 5202POPC   C4B67954  16.616   5.243   7.486
 5203POPC   NC367955  33.340  34.092   5.176
 5203POPC   PO467956  32.797  34.392   5.435
 5203POPC   GL167957  32.956  34.663   5.771
 5203POPC   GL267958  33.319  34.728   5.890
 5203POPC   C1A67959  32.937  34.846   6.177
 5203POPC   D2A67960  33.172  34.801   6.557
 5203POPC   C3A67961  32.900  34.741   6.930
 5203POPC   C4A67962  33.021  34.642   7.324
 5203POPC   C1B67963  33.493  34.486   6.240
 5203POPC   C2B67964  33.502  34.281   6.616
 5203POPC   C3B67965  33.357  34.454   6.952
 5203POPC   C4B67966  33.422  34.340   7.341
 5204POPC   NC367967  34.395  19.573   5.560
 5204POPC   PO467968  34.743  18.953   5.431
 5204POPC   GL167969  34.733  19.224   5.783
 5204POPC   GL267970  34.387  19.162   5.897
 5204POPC   C1A67971  34.779  19.367   6.207
 5204POPC   D2A67972  34.628  19.133   6.558
 5204POPC   C3A67973  34.714  19.246   6.985
 5204POPC   C4A67974  34.415  19.169   7.281
 5204POPC   C1B67975  34.285  18.790   6.165
 5204POPC   C2B67976  34.498  18.615   6.521
 5204POPC   C3B67977  34.378  18.656   6.946
 5204POPC   C4B67978  34.096  18.772   7.227
 5205POPC   NC367979   0.117   7.345   5.450
 5205POPC   PO467980  44.423   7.456   5.441
 5205POPC   GL167981  44.705   7.301   5.772
 5205POPC   GL267982   0.029   7.501   5.910
 5205POPC   C1A67983  44.627   7.363   6.192
 5205POPC   D2A67984  44.796   7.285   6.565
 5205POPC   C3A67985  44.617   7.388   6.961
 5205POPC   C4A67986  44.573   7.415   7.398
 5205POPC   C1B67987  44.975   7.728   6.308
 5205POPC   C2B67988  44.958   7.742   6.771
 5205POPC   C3B67989  44.789   7.838   7.176
 5205POPC   C4B67990  44.939   7.697   7.624
 5206POPC   NC367991  35.112  16.243   5.447
 5206POPC   PO467992  35.602  15.906   5.064
 5206POPC   GL167993  35.560  15.857   5.545
 5206POPC   GL267994  35.605  16.175   5.665
 5206POPC   C1A67995  35.585  15.799   6.035
 5206POPC   D2A67996  35.629  16.039   6.452
 5206POPC   C3A67997  35.727  15.809   6.829
 5206POPC   C4A67998  35.443  15.764   7.119
 5206POPC   C1B67999  35.380  16.297   6.069
 5206POPC   C2B68000  35.154  16.263   6.467
 5206POPC   C3B68001  35.298  16.206   6.878
 5206POPC   C4B68002  35.162  16.194   7.308
 5207POPC   NC368003  32.772  19.383   5.287
 5207POPC   PO468004  32.110  19.231   5.402
 5207POPC   GL168005  31.991  19.101   5.822
 5207POPC   GL268006  32.041  18.743   5.804
 5207POPC   C1A68007  32.148  19.094   6.255
 5207POPC   D2A68008  32.443  18.989   6.601
 5207POPC   C3A68009  32.341  19.228   6.960
 5207POPC   C4A68010  32.525  19.210   7.366
 5207POPC   C1B68011  31.927  18.603   6.199
 5207POPC   C2B68012  32.020  18.688   6.588
 5207POPC   C3B68013  31.861  18.692   6.975
 5207POPC   C4B68014  31.928  19.021   7.253
 5208POPC   NC368015  26.695  33.823   5.227
 5208POPC   PO468016  27.284  33.527   5.418
 5208POPC   GL168017  27.107  33.646   5.819
 5208POPC   GL268018  27.054  33.999   5.892
 5208POPC   C1A68019  26.979  33.689   6.288
 5208POPC   D2A68020  27.052  33.974   6.667
 5208POPC   C3A68021  27.050  33.738   7.032
 5208POPC   C4A68022  26.689  33.533   7.196
 5208POPC   C1B68023  26.758  34.143   6.236
 5208POPC   C2B68024  26.563  34.262   6.631
 5208POPC   C3B68025  26.605  34.058   7.017
 5208POPC   C4B68026  26.825  34.046   7.376
 5209POPC   NC368027  31.580  18.081   5.429
 5209POPC   PO468028  30.946  18.013   5.633
 5209POPC   GL168029  31.310  18.265   5.856
 5209POPC   GL268030  31.703  18.331   5.842
 5209POPC   C1A68031  31.414  18.509   6.232
 5209POPC   D2A68032  31.409  18.351   6.647
 5209POPC   C3A68033  31.367  18.557   7.032
 5209POPC   C4A68034  31.249  18.403   7.425
 5209POPC   C1B68035  31.732  18.006   6.169
 5209POPC   C2B68036  31.717  17.950   6.625
 5209POPC   C3B68037  31.658  18.094   7.063
 5209POPC   C4B68038  31.811  17.947   7.470
 5210POPC   NC368039   9.821  37.931   5.476
 5210POPC   PO468040   9.479  37.427   5.690
 5210POPC   GL168041   9.553  37.769   5.904
 5210POPC   GL268042   9.918  37.690   5.930
 5210POPC   C1A68043   9.618  37.728   6.336
 5210POPC   D2A68044   9.859  37.995   6.586
 5210POPC   C3A68045   9.695  37.862   6.947
 5210POPC   C4A68046   9.810  37.646   7.303
 5210POPC   C1B68047  10.086  37.510   6.336
 5210POPC   C2B68048  10.115  37.558   6.803
 5210POPC   C3B68049  10.146  37.306   7.183
 5210POPC   C4B68050  10.120  37.373   7.656
 5211POPC   NC368051   9.741  20.730   5.389
 5211POPC   PO468052   9.821  20.111   5.267
 5211POPC   GL168053   9.626  20.346   5.692
 5211POPC   GL268054   9.892  20.583   5.872
 5211POPC   C1A68055   9.465  20.477   6.118
 5211POPC   D2A68056   9.328  20.765   6.488
 5211POPC   C3A68057   9.489  20.770   6.917
 5211POPC   C4A68058   9.634  20.463   7.187
 5211POPC   C1B68059  10.046  20.778   6.280
 5211POPC   C2B68060   9.975  20.714   6.740
 5211POPC   C3B68061   9.974  20.852   7.180
 5211POPC   C4B68062  10.160  20.739   7.610
 5212POPC   NC368063  17.698  32.754   5.363
 5212POPC   PO468064  17.187  33.070   5.415
 5212POPC   GL168065  17.392  32.970   5.789
 5212POPC   GL268066  17.630  33.218   5.875
 5212POPC   C1A68067  17.297  32.973   6.246
 5212POPC   D2A68068  17.415  33.071   6.673
 5212POPC   C3A68069  17.562  32.774   6.993
 5212POPC   C4A68070  17.238  32.675   7.254
 5212POPC   C1B68071  17.578  33.407   6.295
 5212POPC   C2B68072  17.530  33.601   6.699
 5212POPC   C3B68073  17.815  33.508   7.021
 5212POPC   C4B68074  17.486  33.242   7.172
 5213POPC   NC368075  21.223  12.542   5.609
 5213POPC   PO468076  21.699  12.977   5.362
 5213POPC   GL168077  21.612  12.802   5.823
 5213POPC   GL268078  21.523  13.038   6.005
 5213POPC   C1A68079  21.329  12.616   6.238
 5213POPC   D2A68080  21.046  12.594   6.630
 5213POPC   C3A68081  21.193  12.850   7.029
 5213POPC   C4A68082  21.389  12.666   7.404
 5213POPC   C1B68083  21.691  12.941   6.403
 5213POPC   C2B68084  21.595  12.703   6.745
 5213POPC   C3B68085  21.730  12.887   7.119
 5213POPC   C4B68086  21.687  13.076   7.508
 5214POPC   NC368087   5.713  35.564   5.418
 5214POPC   PO468088   6.241  35.056   5.520
 5214POPC   GL168089   5.994  35.348   5.816
 5214POPC   GL268090   5.629  35.354   5.895
 5214POPC   C1A68091   6.123  35.464   6.229
 5214POPC   D2A68092   5.897  35.336   6.592
 5214POPC   C3A68093   6.152  35.474   6.937
 5214POPC   C4A68094   6.008  35.251   7.302
 5214POPC   C1B68095   5.691  35.729   6.182
 5214POPC   C2B68096   5.913  35.827   6.595
 5214POPC   C3B68097   5.709  35.677   7.009
 5214POPC   C4B68098   5.688  35.631   7.476
 5215POPC   NC368099  17.580   2.961   5.297
 5215POPC   PO468100  17.510   2.441   5.605
 5215POPC   GL168101  17.581   2.757   5.861
 5215POPC   GL268102  17.814   3.034   5.778
 5215POPC   C1A68103  17.472   2.621   6.256
 5215POPC   D2A68104  17.606   2.387   6.550
 5215POPC   C3A68105  17.545   2.572   6.928
 5215POPC   C4A68106  17.147   2.637   7.156
 5215POPC   C1B68107  17.749   3.042   6.262
 5215POPC   C2B68108  17.527   3.057   6.695
 5215POPC   C3B68109  17.538   3.013   7.173
 5215POPC   C4B68110  17.703   3.014   7.602
 5216POPC   NC368111   7.635  37.475   5.530
 5216POPC   PO468112   7.200  38.025   5.468
 5216POPC   GL168113   7.382  37.821   5.819
 5216POPC   GL268114   7.741  37.935   5.816
 5216POPC   C1A68115   7.434  37.551   6.218
 5216POPC   D2A68116   7.234  37.455   6.665
 5216POPC   C3A68117   7.422  37.542   7.090
 5216POPC   C4A68118   7.786  37.562   7.365
 5216POPC   C1B68119   7.561  38.064   6.224
 5216POPC   C2B68120   7.586  37.859   6.603
 5216POPC   C3B68121   7.797  37.885   6.962
 5216POPC   C4B68122   7.692  38.084   7.296
 5217POPC   NC368123  38.182  26.768   5.411
 5217POPC   PO468124  37.577  26.586   5.502
 5217POPC   GL168125  37.605  26.838   5.868
 5217POPC   GL268126  37.904  26.984   5.801
 5217POPC   C1A68127  37.391  26.984   6.236
 5217POPC   D2A68128  37.594  26.931   6.624
 5217POPC   C3A68129  37.586  27.208   6.950
 5217POPC   C4A68130  37.488  26.947   7.301
 5217POPC   C1B68131  37.896  27.112   6.234
 5217POPC   C2B68132  38.109  26.942   6.613
 5217POPC   C3B68133  37.960  26.858   7.064
 5217POPC   C4B68134  37.994  26.888   7.555
 5218POPC   NC368135  25.496  17.804   5.546
 5218POPC   PO468136  25.033  17.254   5.433
 5218POPC   GL168137  25.106  17.514   5.805
 5218POPC   GL268138  25.461  17.429   5.875
 5218POPC   C1A68139  25.166  17.433   6.265
 5218POPC   D2A68140  25.109  17.604   6.651
 5218POPC   C3A68141  25.301  17.381   6.986
 5218POPC   C4A68142  25.061  17.182   7.264
 5218POPC   C1B68143  25.530  17.788   6.177
 5218POPC   C2B68144  25.518  17.942   6.593
 5218POPC   C3B68145  25.368  17.870   7.005
 5218POPC   C4B68146  24.967  17.899   7.237
 5219POPC   NC368147   0.589   0.869   4.987
 5219POPC   PO468148   0.563   1.510   5.394
 5219POPC   GL168149   0.460   1.395   5.771
 5219POPC   GL268150   0.250   1.687   5.840
 5219POPC   C1A68151   0.170   1.167   6.058
 5219POPC   D2A68152   0.191   1.054   6.497
 5219POPC   C3A68153  44.988   0.935   6.897
 5219POPC   C4A68154   0.240   0.817   7.233
 5219POPC   C1B68155   0.417   1.594   6.237
 5219POPC   C2B68156   0.283   1.560   6.639
 5219POPC   C3B68157   0.202   1.637   7.052
 5219POPC   C4B68158   0.253   1.318   7.293
 5220POPC   NC368159  17.980  22.420   5.338
 5220POPC   PO468160  18.529  21.992   5.270
 5220POPC   GL168161  18.571  22.102   5.699
 5220POPC   GL268162  18.334  22.365   5.730
 5220POPC   C1A68163  18.492  22.038   6.138
 5220POPC   D2A68164  18.236  22.122   6.508
 5220POPC   C3A68165  18.319  22.295   6.895
 5220POPC   C4A68166  18.316  21.932   7.158
 5220POPC   C1B68167  18.292  22.517   6.156
 5220POPC   C2B68168  18.057  22.595   6.533
 5220POPC   C3B68169  17.745  22.614   6.846
 5220POPC   C4B68170  17.970  22.525   7.227
 5221POPC   NC368171  43.632   2.989   5.376
 5221POPC   PO468172  44.074   2.390   5.439
 5221POPC   GL168173  43.873   2.538   5.885
 5221POPC   GL268174  43.802   2.936   5.844
 5221POPC   C1A68175  43.775   2.762   6.294
 5221POPC   D2A68176  43.914   2.971   6.642
 5221POPC   C3A68177  43.879   2.657   6.935
 5221POPC   C4A68178  44.204   2.670   7.207
 5221POPC   C1B68179  43.484   3.191   6.038
 5221POPC   C2B68180  43.438   3.201   6.478
 5221POPC   C3B68181  43.577   3.267   6.916
 5221POPC   C4B68182  43.764   3.020   7.242
 5222POPC   NC368183  30.201  36.576   5.581
 5222POPC   PO468184  29.832  36.062   5.364
 5222POPC   GL168185  29.708  36.056   5.781
 5222POPC   GL268186  29.837  36.378   5.861
 5222POPC   C1A68187  29.795  35.967   6.205
 5222POPC   D2A68188  30.146  35.830   6.454
 5222POPC   C3A68189  30.230  35.941   6.892
 5222POPC   C4A68190  29.983  36.053   7.260
 5222POPC   C1B68191  29.942  36.433   6.290
 5222POPC   C2B68192  29.878  36.235   6.682
 5222POPC   C3B68193  29.977  36.501   7.021
 5222POPC   C4B68194  29.773  36.519   7.416
 5223POPC   NC368195  39.638   1.058   5.763
 5223POPC   PO468196  39.019   1.225   5.422
 5223POPC   GL168197  39.147   1.126   5.844
 5223POPC   GL268198  39.292   1.331   6.084
 5223POPC   C1A68199  39.066   0.863   6.196
 5223POPC   D2A68200  39.297   0.806   6.539
 5223POPC   C3A68201  39.344   1.103   6.857
 5223POPC   C4A68202  39.416   1.326   7.221
 5223POPC   C1B68203  38.844   1.394   6.156
 5223POPC   C2B68204  38.743   1.496   6.565
 5223POPC   C3B68205  38.779   1.372   6.981
 5223POPC   C4B68206  38.954   1.092   7.197
 5224POPC   NC368207  44.126  31.961   5.460
 5224POPC   PO468208  43.633  32.394   5.407
 5224POPC   GL168209  43.730  32.124   5.738
 5224POPC   GL268210  44.015  32.305   5.829
 5224POPC   C1A68211  43.875  31.917   6.127
 5224POPC   D2A68212  43.900  31.856   6.578
 5224POPC   C3A68213  44.119  32.056   6.952
 5224POPC   C4A68214  43.789  32.073   7.279
 5224POPC   C1B68215  43.942  32.405   6.240
 5224POPC   C2B68216  43.848  32.377   6.661
 5224POPC   C3B68217  43.911  32.533   7.084
 5224POPC   C4B68218  44.051  32.730   7.449
 5225POPC   NC368219  28.892  43.900   5.655
 5225POPC   PO468220  28.407  44.208   5.296
 5225POPC   GL168221  28.387  43.904   5.737
 5225POPC   GL268222  28.070  43.693   5.807
 5225POPC   C1A68223  28.558  43.746   6.190
 5225POPC   D2A68224  28.384  43.653   6.624
 5225POPC   C3A68225  28.436  43.847   7.046
 5225POPC   C4A68226  28.385  43.703   7.509
 5225POPC   C1B68227  28.107  43.986   6.188
 5225POPC   C2B68228  28.223  44.139   6.620
 5225POPC   C3B68229  28.016  44.208   7.007
 5225POPC   C4B68230  28.152  44.139   7.432
 5226POPC   NC368231  22.060   1.655   5.551
 5226POPC   PO468232  22.381   2.165   5.173
 5226POPC   GL168233  22.175   2.177   5.627
 5226POPC   GL268234  21.822   2.366   5.666
 5226POPC   C1A68235  22.206   2.010   6.088
 5226POPC   D2A68236  22.293   1.732   6.472
 5226POPC   C3A68237  22.224   1.859   6.905
 5226POPC   C4A68238  22.287   2.223   7.204
 5226POPC   C1B68239  21.755   2.286   6.105
 5226POPC   C2B68240  21.855   2.045   6.475
 5226POPC   C3B68241  21.867   2.221   6.883
 5226POPC   C4B68242  21.852   1.969   7.253
 5227POPC   NC368243   1.832  20.038   5.742
 5227POPC   PO468244   2.237  19.558   5.518
 5227POPC   GL168245   2.081  19.624   5.927
 5227POPC   GL268246   1.754  19.531   5.869
 5227POPC   C1A68247   2.065  19.895   6.325
 5227POPC   D2A68248   1.841  19.847   6.719
 5227POPC   C3A68249   2.060  19.818   7.089
 5227POPC   C4A68250   2.311  20.141   7.205
 5227POPC   C1B68251   1.625  19.646   6.278
 5227POPC   C2B68252   1.578  19.411   6.653
 5227POPC   C3B68253   1.645  19.492   7.091
 5227POPC   C4B68254   1.852  19.531   7.470
 5228POPC   NC368255  26.215  36.258   5.376
 5228POPC   PO468256  26.633  35.902   5.445
 5228POPC   GL168257  26.309  35.868   5.812
 5228POPC   GL268258  26.019  36.128   5.857
 5228POPC   C1A68259  26.171  35.878   6.294
 5228POPC   D2A68260  26.088  36.113   6.715
 5228POPC   C3A68261  25.909  35.882   7.071
 5228POPC   C4A68262  26.110  35.544   7.297
 5228POPC   C1B68263  25.803  36.248   6.284
 5228POPC   C2B68264  25.787  36.523   6.671
 5228POPC   C3B68265  25.807  36.394   7.126
 5228POPC   C4B68266  25.693  36.270   7.571
 5229POPC   NC368267  15.767  13.283   5.431
 5229POPC   PO468268  16.226  13.761   5.478
 5229POPC   GL168269  16.042  13.502   5.799
 5229POPC   GL268270  16.296  13.310   5.998
 5229POPC   C1A68271  15.726  13.653   6.086
 5229POPC   D2A68272  15.547  13.500   6.466
 5229POPC   C3A68273  15.814  13.376   6.794
 5229POPC   C4A68274  15.792  13.509   7.230
 5229POPC   C1B68275  16.231  13.752   6.178
 5229POPC   C2B68276  15.992  13.896   6.512
 5229POPC   C3B68277  16.083  13.787   6.929
 5229POPC   C4B68278  16.236  13.319   7.074
 5230POPC   NC368279  18.009  27.438   5.573
 5230POPC   PO468280  17.346  27.370   5.503
 5230POPC   GL168281  17.570  27.561   5.857
 5230POPC   GL268282  17.806  27.867   5.859
 5230POPC   C1A68283  17.733  27.396   6.240
 5230POPC   D2A68284  17.575  27.233   6.610
 5230POPC   C3A68285  17.544  27.390   7.005
 5230POPC   C4A68286  17.804  27.681   7.175
 5230POPC   C1B68287  17.568  27.869   6.273
 5230POPC   C2B68288  17.634  27.795   6.695
 5230POPC   C3B68289  17.347  27.887   7.047
 5230POPC   C4B68290  17.167  28.141   7.362
 5231POPC   NC368291  16.429  10.549   5.121
 5231POPC   PO468292  15.849  10.492   5.438
 5231POPC   GL168293  15.767  10.532   5.848
 5231POPC   GL268294  15.743  10.188   5.884
 5231POPC   C1A68295  15.773  10.641   6.282
 5231POPC   D2A68296  16.009  10.537   6.647
 5231POPC   C3A68297  15.722  10.590   6.947
 5231POPC   C4A68298  15.764  10.606   7.348
 5231POPC   C1B68299  16.060  10.230   6.217
 5231POPC   C2B68300  16.092  10.025   6.621
 5231POPC   C3B68301  15.935  10.093   7.024
 5231POPC   C4B68302  16.133  10.223   7.370
 5232POPC   NC368303  20.712   3.680   5.336
 5232POPC   PO468304  20.281   3.200   5.587
 5232POPC   GL168305  20.677   3.315   5.770
 5232POPC   GL268306  20.548   3.633   5.855
 5232POPC   C1A68307  20.738   3.293   6.210
 5232POPC   D2A68308  20.394   3.336   6.473
 5232POPC   C3A68309  20.387   3.305   6.933
 5232POPC   C4A68310  20.417   3.648   7.206
 5232POPC   C1B68311  20.945   3.750   6.100
 5232POPC   C2B68312  21.096   3.801   6.558
 5232POPC   C3B68313  20.953   3.794   7.010
 5232POPC   C4B68314  20.811   3.845   7.449
 5233POPC   NC368315  22.729   7.057   5.391
 5233POPC   PO468316  23.002   6.404   5.431
 5233POPC   GL168317  22.881   6.656   5.754
 5233POPC   GL268318  23.200   6.577   5.960
 5233POPC   C1A68319  22.752   6.747   6.170
 5233POPC   D2A68320  23.084   6.701   6.493
 5233POPC   C3A68321  22.936   6.698   6.911
 5233POPC   C4A68322  22.555   6.897   7.064
 5233POPC   C1B68323  23.359   6.298   6.313
 5233POPC   C2B68324  23.323   6.311   6.785
 5233POPC   C3B68325  23.371   6.154   7.210
 5233POPC   C4B68326  23.200   6.380   7.633
 5234POPC   NC368327  10.160  15.884   5.321
 5234POPC   PO468328   9.592  16.001   5.351
 5234POPC   GL168329   9.822  16.015   5.706
 5234POPC   GL268330   9.960  15.677   5.744
 5234POPC   C1A68331   9.814  16.037   6.156
 5234POPC   D2A68332   9.665  15.886   6.579
 5234POPC   C3A68333   9.812  16.170   6.904
 5234POPC   C4A68334  10.005  16.074   7.301
 5234POPC   C1B68335  10.182  15.635   6.136
 5234POPC   C2B68336  10.174  15.502   6.556
 5234POPC   C3B68337  10.103  15.699   6.957
 5234POPC   C4B68338  10.221  15.568   7.362
 5235POPC   NC368339   9.730   2.306   5.492
 5235POPC   PO468340   9.992   1.808   5.283
 5235POPC   GL168341  10.013   1.955   5.732
 5235POPC   GL268342   9.637   1.928   5.829
 5235POPC   C1A68343   9.961   2.121   6.177
 5235POPC   D2A68344   9.692   1.990   6.548
 5235POPC   C3A68345   9.876   2.111   6.941
 5235POPC   C4A68346  10.093   1.895   7.241
 5235POPC   C1B68347   9.411   2.220   6.141
 5235POPC   C2B68348   9.192   2.182   6.554
 5235POPC   C3B68349   9.357   2.050   6.958
 5235POPC   C4B68350   9.612   1.685   7.077
 5236POPC   NC368351   4.602  20.303   5.412
 5236POPC   PO468352   5.227  20.375   5.401
 5236POPC   GL168353   5.204  20.543   5.817
 5236POPC   GL268354   4.850  20.579   5.803
 5236POPC   C1A68355   5.199  20.611   6.266
 5236POPC   D2A68356   5.038  20.776   6.649
 5236POPC   C3A68357   5.298  20.612   6.991
 5236POPC   C4A68358   5.335  20.751   7.428
 5236POPC   C1B68359   4.819  20.283   6.138
 5236POPC   C2B68360   4.845  20.281   6.568
 5236POPC   C3B68361   4.801  20.403   6.979
 5236POPC   C4B68362   4.656  20.499   7.381
 5237POPC   NC368363   4.896   5.497   5.249
 5237POPC   PO468364   5.129   4.891   5.301
 5237POPC   GL168365   5.193   5.049   5.707
 5237POPC   GL268366   5.009   5.338   5.716
 5237POPC   C1A68367   5.169   4.991   6.176
 5237POPC   D2A68368   4.971   4.835   6.558
 5237POPC   C3A68369   5.069   4.952   6.987
 5237POPC   C4A68370   5.178   4.754   7.369
 5237POPC   C1B68371   4.838   5.370   6.121
 5237POPC   C2B68372   5.036   5.443   6.535
 5237POPC   C3B68373   4.884   5.459   6.963
 5237POPC   C4B68374   4.639   5.548   7.328
 5238POPC   NC368375  20.174  37.492   5.667
 5238POPC   PO468376  19.763  37.884   5.323
 5238POPC   GL168377  19.867  37.915   5.785
 5238POPC   GL268378  20.223  38.037   5.887
 5238POPC   C1A68379  19.651  37.766   6.186
 5238POPC   D2A68380  19.768  37.444   6.502
 5238POPC   C3A68381  19.706  37.457   6.960
 5238POPC   C4A68382  19.430  37.347   7.294
 5238POPC   C1B68383  20.135  37.845   6.304
 5238POPC   C2B68384  19.939  37.879   6.711
 5238POPC   C3B68385  19.730  37.955   7.114
 5238POPC   C4B68386  19.777  37.669   7.459
 5239POPC   NC368387  28.575   8.746   5.362
 5239POPC   PO468388  28.838   9.317   5.337
 5239POPC   GL168389  28.788   9.028   5.757
 5239POPC   GL268390  28.451   8.889   5.833
 5239POPC   C1A68391  28.718   8.906   6.259
 5239POPC   D2A68392  28.429   8.798   6.625
 5239POPC   C3A68393  28.437   8.887   7.110
 5239POPC   C4A68394  28.055   8.973   7.406
 5239POPC   C1B68395  28.126   8.799   6.159
 5239POPC   C2B68396  27.891   8.814   6.544
 5239POPC   C3B68397  27.993   8.684   6.965
 5239POPC   C4B68398  28.116   8.477   7.349
 5240POPC   NC368399  15.458  19.009   5.304
 5240POPC   PO468400  14.846  18.983   5.463
 5240POPC   GL168401  15.155  19.114   5.761
 5240POPC   GL268402  15.498  19.090   5.803
 5240POPC   C1A68403  15.155  19.222   6.206
 5240POPC   D2A68404  14.986  19.157   6.638
 5240POPC   C3A68405  15.161  19.351   7.047
 5240POPC   C4A68406  15.054  19.183   7.480
 5240POPC   C1B68407  15.630  19.045   6.242
 5240POPC   C2B68408  15.506  19.095   6.695
 5240POPC   C3B68409  15.458  18.927   7.127
 5240POPC   C4B68410  15.453  18.855   7.604
 5241POPC   NC368411  10.659  30.742   5.269
 5241POPC   PO468412  10.724  31.227   5.709
 5241POPC   GL168413  10.632  30.777   5.776
 5241POPC   GL268414  10.334  30.636   5.917
 5241POPC   C1A68415  10.799  30.623   6.147
 5241POPC   D2A68416  10.806  30.875   6.563
 5241POPC   C3A68417  10.731  30.637   6.933
 5241POPC   C4A68418  10.375  30.627   7.225
 5241POPC   C1B68419  10.390  30.917   6.224
 5241POPC   C2B68420  10.275  30.781   6.592
 5241POPC   C3B68421  10.332  31.007   6.915
 5241POPC   C4B68422  10.364  31.172   7.316
 5242POPC   NC368423  24.658   0.165   5.411
 5242POPC   PO468424  24.255   0.772   5.465
 5242POPC   GL168425  24.339   0.453   5.811
 5242POPC   GL268426  24.410   0.072   5.848
 5242POPC   C1A68427  24.289   0.400   6.265
 5242POPC   D2A68428  24.517   0.670   6.553
 5242POPC   C3A68429  24.453   0.569   6.973
 5242POPC   C4A68430  24.671   0.624   7.357
 5242POPC   C1B68431  24.732   0.178   6.176
 5242POPC   C2B68432  24.634   0.176   6.647
 5242POPC   C3B68433  24.808   0.200   7.084
 5242POPC   C4B68434  24.716   0.120   7.540
 5243POPC   NC368435  28.810  17.567   5.326
 5243POPC   PO468436  28.249  17.427   4.978
 5243POPC   GL168437  28.194  17.431   5.526
 5243POPC   GL268438  28.445  17.556   5.702
 5243POPC   C1A68439  28.140  17.346   6.055
 5243POPC   D2A68440  28.285  17.399   6.544
 5243POPC   C3A68441  28.217  17.424   7.059
 5243POPC   C4A68442  27.976  17.508   7.489
 5243POPC   C1B68443  28.608  17.594   6.121
 5243POPC   C2B68444  28.796  17.398   6.464
 5243POPC   C3B68445  28.685  17.527   6.871
 5243POPC   C4B68446  28.690  17.226   7.225
 5244POPC   NC368447  10.322   4.455   5.355
 5244POPC   PO468448  10.923   4.078   5.541
 5244POPC   GL168449  10.557   4.145   5.771
 5244POPC   GL268450  10.464   4.459   5.860
 5244POPC   C1A68451  10.468   4.013   6.176
 5244POPC   D2A68452  10.705   4.078   6.545
 5244POPC   C3A68453  10.521   3.986   6.929
 5244POPC   C4A68454  10.682   4.196   7.289
 5244POPC   C1B68455  10.521   4.534   6.304
 5244POPC   C2B68456  10.321   4.418   6.713
 5244POPC   C3B68457  10.378   4.585   7.164
 5244POPC   C4B68458  10.356   4.500   7.643
 5245POPC   NC368459   9.281  37.106   5.415
 5245POPC   PO468460   8.697  36.848   5.458
 5245POPC   GL168461   8.833  36.815   5.871
 5245POPC   GL268462   8.943  37.148   5.810
 5245POPC   C1A68463   8.731  37.024   6.294
 5245POPC   D2A68464   8.680  36.978   6.750
 5245POPC   C3A68465   8.895  36.603   6.915
 5245POPC   C4A68466   8.915  36.521   7.350
 5245POPC   C1B68467   9.235  37.038   6.137
 5245POPC   C2B68468   9.348  37.284   6.496
 5245POPC   C3B68469   9.132  37.272   6.900
 5245POPC   C4B68470   9.028  36.988   7.232
 5246POPC   NC368471  18.594  34.016   5.275
 5246POPC   PO468472  18.034  33.597   5.342
 5246POPC   GL168473  18.220  33.817   5.693
 5246POPC   GL268474  18.090  33.542   5.866
 5246POPC   C1A68475  18.326  33.888   6.165
 5246POPC   D2A68476  18.282  34.128   6.557
 5246POPC   C3A68477  18.401  33.908   6.944
 5246POPC   C4A68478  18.557  33.966   7.331
 5246POPC   C1B68479  18.114  33.404   6.265
 5246POPC   C2B68480  18.217  33.543   6.652
 5246POPC   C3B68481  18.360  33.373   7.038
 5246POPC   C4B68482  18.329  33.506   7.430
 5247POPC   NC368483   9.547  32.071   5.570
 5247POPC   PO468484  10.082  32.393   5.515
 5247POPC   GL168485   9.779  32.355   5.926
 5247POPC   GL268486   9.416  32.404   5.955
 5247POPC   C1A68487   9.665  32.236   6.385
 5247POPC   D2A68488   9.841  32.306   6.814
 5247POPC   C3A68489   9.571  32.294   7.168
 5247POPC   C4A68490   9.677  32.549   7.591
 5247POPC   C1B68491   9.278  32.603   6.336
 5247POPC   C2B68492   9.352  32.629   6.792
 5247POPC   C3B68493   9.310  32.701   7.250
 5247POPC   C4B68494   9.228  32.343   7.581
 5248POPC   NC368495  23.009  35.248   5.349
 5248POPC   PO468496  22.598  35.791   5.413
 5248POPC   GL168497  22.843  35.578   5.748
 5248POPC   GL268498  22.910  35.223   5.840
 5248POPC   C1A68499  23.094  35.595   6.143
 5248POPC   D2A68500  23.184  35.384   6.567
 5248POPC   C3A68501  22.975  35.492   6.995
 5248POPC   C4A68502  22.795  35.821   7.279
 5248POPC   C1B68503  22.754  35.250   6.269
 5248POPC   C2B68504  22.724  35.153   6.687
 5248POPC   C3B68505  22.804  35.007   7.090
 5248POPC   C4B68506  23.100  35.056   7.412
 5249POPC   NC368507  32.709  34.848   5.347
 5249POPC   PO468508  32.102  34.564   5.313
 5249POPC   GL168509  32.111  34.520   5.791
 5249POPC   GL268510  32.455  34.493   5.817
 5249POPC   C1A68511  32.133  34.288   6.247
 5249POPC   D2A68512  32.030  34.096   6.680
 5249POPC   C3A68513  32.293  34.288   7.020
 5249POPC   C4A68514  32.212  34.490   7.427
 5249POPC   C1B68515  32.447  34.700   6.197
 5249POPC   C2B68516  32.458  34.620   6.632
 5249POPC   C3B68517  32.299  34.792   7.030
 5249POPC   C4B68518  32.560  34.866   7.402
 5250POPC   NC368519  31.723  13.751   5.493
 5250POPC   PO468520  31.249  13.294   5.228
 5250POPC   GL168521  31.446  13.366   5.703
 5250POPC   GL268522  31.310  13.670   5.822
 5250POPC   C1A68523  31.416  13.371   6.219
 5250POPC   D2A68524  31.228  13.329   6.683
 5250POPC   C3A68525  31.519  13.450   7.087
 5250POPC   C4A68526  31.749  13.434   7.535
 5250POPC   C1B68527  31.447  13.905   6.215
 5250POPC   C2B68528  31.375  13.812   6.672
 5250POPC   C3B68529  31.299  14.008   7.066
 5250POPC   C4B68530  30.972  14.048   7.357
 5251POPC   NC368531  30.992  16.737   5.225
 5251POPC   PO468532  31.623  16.695   5.114
 5251POPC   GL168533  31.312  16.746   5.627
 5251POPC   GL268534  31.520  16.980   5.831
 5251POPC   C1A68535  31.172  16.684   6.100
 5251POPC   D2A68536  31.349  16.639   6.549
 5251POPC   C3A68537  31.132  16.751   6.933
 5251POPC   C4A68538  31.297  16.761   7.343
 5251POPC   C1B68539  31.656  16.897   6.221
 5251POPC   C2B68540  31.711  17.077   6.598
 5251POPC   C3B68541  31.668  16.924   7.002
 5251POPC   C4B68542  31.736  17.030   7.417
 5252POPC   NC368543   5.046  36.296   5.279
 5252POPC   PO468544   4.893  36.965   5.360
 5252POPC   GL168545   5.068  37.034   5.771
 5252POPC   GL268546   4.742  37.024   5.948
 5252POPC   C1A68547   5.180  36.917   6.212
 5252POPC   D2A68548   4.902  36.887   6.573
 5252POPC   C3A68549   5.169  36.834   6.936
 5252POPC   C4A68550   5.605  36.788   7.104
 5252POPC   C1B68551   4.804  36.573   6.137
 5252POPC   C2B68552   4.804  36.368   6.543
 5252POPC   C3B68553   4.729  36.568   6.956
 5252POPC   C4B68554   4.752  36.910   7.250
 5253POPC   NC368555   5.296  36.570   5.648
 5253POPC   PO468556   4.674  36.467   5.507
 5253POPC   GL168557   4.903  36.153   5.785
 5253POPC   GL268558   4.737  35.806   5.811
 5253POPC   C1A68559   5.172  36.199   6.199
 5253POPC   D2A68560   5.286  36.509   6.524
 5253POPC   C3A68561   5.152  36.312   6.917
 5253POPC   C4A68562   5.280  36.438   7.314
 5253POPC   C1B68563   4.727  35.952   6.217
 5253POPC   C2B68564   4.965  35.875   6.593
 5253POPC   C3B68565   4.824  35.880   6.999
 5253POPC   C4B68566   4.817  36.181   7.302
 5254POPC   NC368567   7.882  23.093   5.501
 5254POPC   PO468568   8.462  22.691   5.471
 5254POPC   GL168569   8.281  22.911   5.798
 5254POPC   GL268570   8.022  22.670   5.775
 5254POPC   C1A68571   8.017  23.017   6.170
 5254POPC   D2A68572   7.889  22.995   6.616
 5254POPC   C3A68573   8.275  23.025   6.922
 5254POPC   C4A68574   8.278  23.126   7.405
 5254POPC   C1B68575   7.859  22.516   6.136
 5254POPC   C2B68576   7.813  22.399   6.546
 5254POPC   C3B68577   7.802  22.592   6.912
 5254POPC   C4B68578   8.008  22.732   7.213
 5255POPC   NC368579  11.676  13.013   5.323
 5255POPC   PO468580  12.293  12.991   5.583
 5255POPC   GL168581  11.959  12.849   5.846
 5255POPC   GL268582  11.791  12.588   5.659
 5255POPC   C1A68583  11.870  12.929   6.296
 5255POPC   D2A68584  11.792  13.156   6.697
 5255POPC   C3A68585  12.094  13.071   7.052
 5255POPC   C4A68586  12.292  12.873   7.456
 5255POPC   C1B68587  11.668  12.506   6.093
 5255POPC   C2B68588  11.960  12.460   6.441
 5255POPC   C3B68589  11.844  12.664   6.813
 5255POPC   C4B68590  11.882  12.633   7.233
 5256POPC   NC368591   0.030  18.242   5.514
 5256POPC   PO468592  44.376  17.992   5.531
 5256POPC   GL168593  44.585  18.218   5.817
 5256POPC   GL268594  44.754  17.953   5.931
 5256POPC   C1A68595  44.639  18.368   6.265
 5256POPC   D2A68596  44.848  18.430   6.666
 5256POPC   C3A68597  44.548  18.521   6.983
 5256POPC   C4A68598  44.333  18.301   7.271
 5256POPC   C1B68599  44.358  17.953   6.216
 5256POPC   C2B68600  44.402  18.109   6.644
 5256POPC   C3B68601  44.652  17.998   6.998
 5256POPC   C4B68602  44.990  17.759   7.208
 5257POPC   NC368603   9.303  12.584   5.542
 5257POPC   PO468604   8.910  13.141   5.397
 5257POPC   GL168605   9.093  13.016   5.729
 5257POPC   GL268606   9.283  13.299   5.794
 5257POPC   C1A68607   8.992  12.780   6.119
 5257POPC   D2A68608   9.154  12.645   6.521
 5257POPC   C3A68609   8.849  12.727   6.841
 5257POPC   C4A68610   8.989  12.550   7.203
 5257POPC   C1B68611   8.956  13.311   6.110
 5257POPC   C2B68612   8.919  13.125   6.500
 5257POPC   C3B68613   8.882  13.286   6.897
 5257POPC   C4B68614   8.912  13.099   7.272
 5258POPC   NC368615  32.865   0.213   5.309
 5258POPC   PO468616  33.419   0.549   5.456
 5258POPC   GL168617  33.040   0.491   5.744
 5258POPC   GL268618  32.795   0.214   5.796
 5258POPC   C1A68619  32.836   0.577   6.143
 5258POPC   D2A68620  32.974   0.396   6.511
 5258POPC   C3A68621  33.093   0.678   6.789
 5258POPC   C4A68622  33.149   0.634   7.228
 5258POPC   C1B68623  32.684   0.087   6.194
 5258POPC   C2B68624  32.565   0.101   6.605
 5258POPC   C3B68625  32.663   0.364   6.924
 5258POPC   C4B68626  32.765   0.279   7.289
 5259POPC   NC368627  27.606  33.222   5.177
 5259POPC   PO468628  27.266  32.622   5.498
 5259POPC   GL168629  27.620  32.916   5.788
 5259POPC   GL268630  27.362  32.815   5.959
 5259POPC   C1A68631  27.769  33.000   6.200
 5259POPC   D2A68632  27.598  33.070   6.599
 5259POPC   C3A68633  27.799  32.990   6.981
 5259POPC   C4A68634  27.713  33.198   7.372
 5259POPC   C1B68635  27.276  32.798   6.333
 5259POPC   C2B68636  27.353  32.639   6.734
 5259POPC   C3B68637  27.348  32.804   7.158
 5259POPC   C4B68638  27.084  32.739   7.516
 5260POPC   NC368639  23.003  28.254   5.557
 5260POPC   PO468640  23.369  28.787   5.544
 5260POPC   GL168641  22.998  28.619   5.888
 5260POPC   GL268642  22.619  28.544   5.728
 5260POPC   C1A68643  22.851  28.355   6.201
 5260POPC   D2A68644  23.042  28.325   6.589
 5260POPC   C3A68645  22.733  28.263   6.871
 5260POPC   C4A68646  22.825  28.094   7.243
 5260POPC   C1B68647  22.547  28.771   6.101
 5260POPC   C2B68648  22.793  28.780   6.494
 5260POPC   C3B68649  22.592  28.753   6.889
 5260POPC   C4B68650  22.829  28.630   7.228
 5261POPC   NC368651  27.869   8.198   5.578
 5261POPC   PO468652  27.288   8.511   5.451
 5261POPC   GL168653  27.371   8.184   5.766
 5261POPC   GL268654  27.300   8.384   6.002
 5261POPC   C1A68655  27.528   7.952   6.185
 5261POPC   D2A68656  27.742   7.876   6.612
 5261POPC   C3A68657  27.480   7.994   7.011
 5261POPC   C4A68658  27.619   8.142   7.462
 5261POPC   C1B68659  27.679   8.430   6.267
 5261POPC   C2B68660  27.683   8.373   6.711
 5261POPC   C3B68661  27.549   8.489   7.115
 5261POPC   C4B68662  27.583   8.676   7.513
 5262POPC   NC368663  17.825  32.184   5.709
 5262POPC   PO468664  17.478  32.361   5.169
 5262POPC   GL168665  17.380  32.422   5.642
 5262POPC   GL268666  17.335  32.148   5.896
 5262POPC   C1A68667  17.537  32.578   6.076
 5262POPC   D2A68668  17.606  32.610   6.511
 5262POPC   C3A68669  17.426  32.324   6.796
 5262POPC   C4A68670  17.507  32.267   7.225
 5262POPC   C1B68671  17.445  32.060   6.324
 5262POPC   C2B68672  17.425  31.823   6.707
 5262POPC   C3B68673  17.750  31.874   6.993
 5262POPC   C4B68674  18.146  31.920   7.165
 5263POPC   NC368675  29.689  26.991   5.403
 5263POPC   PO468676  29.642  26.303   5.339
 5263POPC   GL168677  29.635  26.582   5.705
 5263POPC   GL268678  29.980  26.664   5.766
 5263POPC   C1A68679  29.649  26.808   6.124
 5263POPC   D2A68680  29.820  26.810   6.586
 5263POPC   C3A68681  29.713  27.006   7.013
 5263POPC   C4A68682  29.744  26.827   7.448
 5263POPC   C1B68683  30.044  26.483   6.215
 5263POPC   C2B68684  30.080  26.385   6.688
 5263POPC   C3B68685  30.164  26.738   6.992
 5263POPC   C4B68686  30.247  26.963   7.411
 5264POPC   NC368687  13.107  32.902   5.434
 5264POPC   PO468688  12.523  33.265   5.461
 5264POPC   GL168689  12.738  33.002   5.821
 5264POPC   GL268690  13.033  32.745   5.898
 5264POPC   C1A68691  12.760  33.007   6.271
 5264POPC   D2A68692  12.956  33.268   6.564
 5264POPC   C3A68693  12.887  33.110   6.971
 5264POPC   C4A68694  13.140  33.124   7.350
 5264POPC   C1B68695  12.932  32.513   6.270
 5264POPC   C2B68696  12.701  32.433   6.636
 5264POPC   C3B68697  12.562  32.690   6.983
 5264POPC   C4B68698  12.471  33.034   7.286
 5265POPC   NC368699  11.014  13.150   5.503
 5265POPC   PO468700  11.395  12.632   5.331
 5265POPC   GL168701  11.331  12.806   5.724
 5265POPC   GL268702  11.493  13.110   5.787
 5265POPC   C1A68703  11.209  12.774   6.143
 5265POPC   D2A68704  11.433  12.765   6.516
 5265POPC   C3A68705  11.209  12.745   6.904
 5265POPC   C4A68706  11.389  12.880   7.285
 5265POPC   C1B68707  11.486  13.251   6.208
 5265POPC   C2B68708  11.200  13.236   6.534
 5265POPC   C3B68709  11.201  13.242   6.964
 5265POPC   C4B68710  10.896  13.124   7.281
 5266POPC   NC368711  43.006  29.371   5.038
 5266POPC   PO468712  42.797  28.907   5.496
 5266POPC   GL168713  42.951  28.900   5.873
 5266POPC   GL268714  43.290  28.991   5.771
 5266POPC   C1A68715  43.032  29.201   6.206
 5266POPC   D2A68716  43.217  29.400   6.549
 5266POPC   C3A68717  43.149  29.305   6.959
 5266POPC   C4A68718  43.124  29.451   7.378
 5266POPC   C1B68719  43.352  28.762   6.158
 5266POPC   C2B68720  43.198  28.886   6.573
 5266POPC   C3B68721  43.353  28.834   6.968
 5266POPC   C4B68722  43.242  28.949   7.366
 5267POPC   NC368723  33.990  30.912   5.390
 5267POPC   PO468724  33.461  30.494   5.351
 5267POPC   GL168725  33.556  30.329   5.796
 5267POPC   GL268726  33.797  30.610   5.791
 5267POPC   C1A68727  33.794  30.307   6.195
 5267POPC   D2A68728  33.871  30.512   6.578
 5267POPC   C3A68729  33.501  30.614   6.782
 5267POPC   C4A68730  33.550  30.489   7.176
 5267POPC   C1B68731  33.816  30.849   6.187
 5267POPC   C2B68732  33.922  31.027   6.631
 5267POPC   C3B68733  33.870  30.878   7.035
 5267POPC   C4B68734  33.598  30.942   7.356
 5268POPC   NC368735   6.887  10.855   5.532
 5268POPC   PO468736   6.565  10.264   5.412
 5268POPC   GL168737   6.592  10.431   5.811
 5268POPC   GL268738   6.472  10.750   5.835
 5268POPC   C1A68739   6.888  10.504   6.142
 5268POPC   D2A68740   6.884  10.779   6.497
 5268POPC   C3A68741   6.630  10.669   6.874
 5268POPC   C4A68742   6.763  10.572   7.292
 5268POPC   C1B68743   6.422  10.695   6.240
 5268POPC   C2B68744   6.325  10.947   6.560
 5268POPC   C3B68745   6.352  11.122   6.910
 5268POPC   C4B68746   6.360  10.915   7.286
 5269POPC   NC368747  36.890  40.769   5.168
 5269POPC   PO468748  37.321  40.442   5.235
 5269POPC   GL168749  37.226  40.643   5.687
 5269POPC   GL268750  36.908  40.842   5.775
 5269POPC   C1A68751  37.164  40.658   6.198
 5269POPC   D2A68752  37.071  40.789   6.683
 5269POPC   C3A68753  36.943  40.525   7.072
 5269POPC   C4A68754  37.160  40.382   7.468
 5269POPC   C1B68755  36.863  41.078   6.213
 5269POPC   C2B68756  36.925  41.289   6.647
 5269POPC   C3B68757  36.923  41.173   7.105
 5269POPC   C4B68758  36.784  40.859   7.431
 5270POPC   NC368759   2.941  41.097   5.485
 5270POPC   PO468760   3.146  40.389   5.484
 5270POPC   GL168761   2.899  40.656   5.793
 5270POPC   GL268762   3.047  40.899   5.951
 5270POPC   C1A68763   2.600  40.735   6.147
 5270POPC   D2A68764   2.378  41.031   6.462
 5270POPC   C3A68765   2.452  40.939   6.924
 5270POPC   C4A68766   2.392  40.557   7.211
 5270POPC   C1B68767   3.090  40.575   6.279
 5270POPC   C2B68768   2.908  40.463   6.691
 5270POPC   C3B68769   2.882  40.631   7.133
 5270POPC   C4B68770   2.782  40.414   7.536
 5271POPC   NC368771   4.619  42.112   5.225
 5271POPC   PO468772   4.300  42.469   5.658
 5271POPC   GL168773   4.178  42.601   6.006
 5271POPC   GL268774   3.918  42.784   5.819
 5271POPC   C1A68775   4.182  42.462   6.437
 5271POPC   D2A68776   4.291  42.181   6.766
 5271POPC   C3A68777   4.633  42.099   7.011
 5271POPC   C4A68778   4.600  42.158   7.447
 5271POPC   C1B68779   3.726  42.664   6.229
 5271POPC   C2B68780   3.787  42.757   6.651
 5271POPC   C3B68781   4.100  42.633   6.955
 5271POPC   C4B68782   4.162  42.479   7.400
 5272POPC   NC368783  39.326  43.937   5.178
 5272POPC   PO468784  39.046  43.453   5.517
 5272POPC   GL168785  39.124  43.773   5.785
 5272POPC   GL268786  39.383  43.988   5.701
 5272POPC   C1A68787  39.027  43.818   6.225
 5272POPC   D2A68788  39.052  43.634   6.633
 5272POPC   C3A68789  39.231  43.775   7.053
 5272POPC   C4A68790  38.956  43.772   7.458
 5272POPC   C1B68791  39.406  44.147   6.125
 5272POPC   C2B68792  39.472  43.964   6.552
 5272POPC   C3B68793  39.654  44.095   6.938
 5272POPC   C4B68794  39.511  44.100   7.326
 5273POPC   NC368795  41.802  23.856   5.435
 5273POPC   PO468796  41.102  23.743   5.499
 5273POPC   GL168797  41.437  23.696   5.839
 5273POPC   GL268798  41.785  23.520   5.810
 5273POPC   C1A68799  41.527  23.494   6.257
 5273POPC   D2A68800  41.569  23.358   6.700
 5273POPC   C3A68801  41.495  23.701   7.009
 5273POPC   C4A68802  41.392  23.795   7.446
 5273POPC   C1B68803  41.960  23.768   6.146
 5273POPC   C2B68804  41.853  23.784   6.584
 5273POPC   C3B68805  42.010  23.836   7.002
 5273POPC   C4B68806  41.846  24.076   7.307
 5274POPC   NC368807  11.577  16.927   5.245
 5274POPC   PO468808  10.957  16.626   5.484
 5274POPC   GL168809  11.205  16.701   5.856
 5274POPC   GL268810  11.292  16.976   5.764
 5274POPC   C1A68811  11.275  16.644   6.298
 5274POPC   D2A68812  11.465  16.613   6.697
 5274POPC   C3A68813  11.221  16.481   7.014
 5274POPC   C4A68814  11.028  16.619   7.375
 5274POPC   C1B68815  11.185  17.137   6.183
 5274POPC   C2B68816  11.125  17.191   6.625
 5274POPC   C3B68817  11.298  17.002   7.003
 5274POPC   C4B68818  11.333  17.035   7.479
 5275POPC   NC368819  12.739  31.896   5.464
 5275POPC   PO468820  13.144  32.429   5.388
 5275POPC   GL168821  13.029  32.237   5.741
 5275POPC   GL268822  12.694  32.326   5.818
 5275POPC   C1A68823  13.057  32.048   6.119
 5275POPC   D2A68824  13.299  32.114   6.514
 5275POPC   C3A68825  13.080  32.183   6.881
 5275POPC   C4A68826  12.974  32.033   7.253
 5275POPC   C1B68827  12.482  32.210   6.207
 5275POPC   C2B68828  12.307  32.054   6.614
 5275POPC   C3B68829  12.545  32.088   6.986
 5275POPC   C4B68830  12.518  32.371   7.364
 5276POPC   NC368831   6.559  31.411   5.512
 5276POPC   PO468832   6.575  31.989   5.309
 5276POPC   GL168833   6.581  31.905   5.833
 5276POPC   GL268834   6.545  31.566   6.008
 5276POPC   C1A68835   6.905  31.837   6.224
 5276POPC   D2A68836   6.942  31.513   6.544
 5276POPC   C3A68837   6.664  31.617   6.878
 5276POPC   C4A68838   6.761  31.810   7.259
 5276POPC   C1B68839   6.592  31.219   6.328
 5276POPC   C2B68840   6.709  31.105   6.788
 5276POPC   C3B68841   6.753  31.249   7.237
 5276POPC   C4B68842   6.626  31.130   7.671
 5277POPC   NC368843  28.843   4.107   5.392
 5277POPC   PO468844  29.510   4.034   5.556
 5277POPC   GL168845  29.247   4.322   5.801
 5277POPC   GL268846  28.893   4.294   5.863
 5277POPC   C1A68847  29.243   4.331   6.236
 5277POPC   D2A68848  29.393   4.163   6.614
 5277POPC   C3A68849  29.255   4.345   6.994
 5277POPC   C4A68850  29.072   4.697   7.256
 5277POPC   C1B68851  28.970   3.916   6.155
 5277POPC   C2B68852  28.965   3.843   6.609
 5277POPC   C3B68853  28.858   4.017   7.027
 5277POPC   C4B68854  28.885   4.012   7.512
 5278POPC   NC368855  30.385  13.304   5.502
 5278POPC   PO468856  29.809  13.580   5.323
 5278POPC   GL168857  29.949  13.501   5.732
 5278POPC   GL268858  30.024  13.833   5.814
 5278POPC   C1A68859  29.920  13.421   6.191
 5278POPC   D2A68860  29.766  13.551   6.624
 5278POPC   C3A68861  29.876  13.321   6.989
 5278POPC   C4A68862  30.031  13.473   7.377
 5278POPC   C1B68863  29.913  13.947   6.230
 5278POPC   C2B68864  30.046  13.998   6.623
 5278POPC   C3B68865  29.940  13.833   7.011
 5278POPC   C4B68866  29.952  14.003   7.395
 5279POPC   NC368867   4.910  35.665   5.360
 5279POPC   PO468868   5.429  35.168   5.401
 5279POPC   GL168869   5.126  35.322   5.699
 5279POPC   GL268870   5.243  35.657   5.736
 5279POPC   C1A68871   4.926  35.203   6.114
 5279POPC   D2A68872   4.889  35.329   6.557
 5279POPC   C3A68873   5.199  35.062   6.774
 5279POPC   C4A68874   5.185  34.860   7.171
 5279POPC   C1B68875   5.168  35.663   6.161
 5279POPC   C2B68876   5.378  35.545   6.546
 5279POPC   C3B68877   5.221  35.555   6.937
 5279POPC   C4B68878   5.282  35.374   7.340
 5280POPC   NC368879  24.757  17.652   5.404
 5280POPC   PO468880  24.215  17.237   5.505
 5280POPC   GL168881  24.473  17.429   5.774
 5280POPC   GL268882  24.258  17.684   5.882
 5280POPC   C1A68883  24.670  17.434   6.169
 5280POPC   D2A68884  24.524  17.411   6.599
 5280POPC   C3A68885  24.730  17.507   7.010
 5280POPC   C4A68886  24.710  17.481   7.487
 5280POPC   C1B68887  24.093  17.341   6.135
 5280POPC   C2B68888  24.068  17.106   6.483
 5280POPC   C3B68889  24.181  17.162   6.880
 5280POPC   C4B68890  24.242  17.450   7.212
 5281POPC   NC368891  12.843  18.867   5.506
 5281POPC   PO468892  13.063  19.465   5.205
 5281POPC   GL168893  13.024  19.356   5.653
 5281POPC   GL268894  12.684  19.306   5.752
 5281POPC   C1A68895  13.047  19.332   6.125
 5281POPC   D2A68896  13.062  18.975   6.439
 5281POPC   C3A68897  13.006  19.115   6.854
 5281POPC   C4A68898  12.921  19.132   7.277
 5281POPC   C1B68899  12.643  19.025   6.115
 5281POPC   C2B68900  12.540  19.116   6.537
 5281POPC   C3B68901  12.541  18.928   6.918
 5281POPC   C4B68902  12.433  19.032   7.308
 5282POPC   NC368903  13.163  16.910   5.625
 5282POPC   PO468904  12.587  16.524   5.557
 5282POPC   GL168905  12.887  16.542   5.891
 5282POPC   GL268906  13.218  16.392   5.968
 5282POPC   C1A68907  12.711  16.682   6.264
 5282POPC   D2A68908  12.479  16.488   6.580
 5282POPC   C3A68909  12.710  16.630   6.906
 5282POPC   C4A68910  12.644  17.011   7.158
 5282POPC   C1B68911  13.226  16.779   6.259
 5282POPC   C2B68912  13.060  17.014   6.641
 5282POPC   C3B68913  13.141  16.868   7.061
 5282POPC   C4B68914  13.106  16.429   7.184
 5283POPC   NC368915  21.192  13.524   5.430
 5283POPC   PO468916  20.925  13.032   5.770
 5283POPC   GL168917  21.150  13.366   5.986
 5283POPC   GL268918  21.439  13.526   5.874
 5283POPC   C1A68919  21.384  13.378   6.383
 5283POPC   D2A68920  21.497  13.245   6.810
 5283POPC   C3A68921  21.168  13.437   7.057
 5283POPC   C4A68922  21.166  13.890   7.202
 5283POPC   C1B68923  21.591  13.817   6.174
 5283POPC   C2B68924  21.590  13.793   6.628
 5283POPC   C3B68925  21.647  13.719   7.074
 5283POPC   C4B68926  21.649  13.975   7.463
 5284POPC   NC368927   8.716  16.905   5.388
 5284POPC   PO468928   9.274  16.539   5.266
 5284POPC   GL168929   9.024  16.616   5.699
 5284POPC   GL268930   8.698  16.831   5.885
 5284POPC   C1A68931   8.982  16.490   6.129
 5284POPC   D2A68932   8.805  16.690   6.487
 5284POPC   C3A68933   8.868  16.462   6.840
 5284POPC   C4A68934   8.981  16.486   7.236
 5284POPC   C1B68935   9.039  17.012   6.161
 5284POPC   C2B68936   9.244  16.956   6.583
 5284POPC   C3B68937   9.038  16.946   6.992
 5284POPC   C4B68938   9.010  17.001   7.454
 5285POPC   NC368939  37.775  33.370   5.423
 5285POPC   PO468940  37.315  32.845   5.523
 5285POPC   GL168941  37.618  33.043   5.787
 5285POPC   GL268942  37.453  33.308   5.809
 5285POPC   C1A68943  37.802  33.231   6.188
 5285POPC   D2A68944  37.966  33.291   6.618
 5285POPC   C3A68945  37.866  32.992   6.971
 5285POPC   C4A68946  37.964  32.958   7.431
 5285POPC   C1B68947  37.389  33.520   6.148
 5285POPC   C2B68948  37.398  33.462   6.574
 5285POPC   C3B68949  37.536  33.398   6.995
 5285POPC   C4B68950  37.475  33.119   7.324
 5286POPC   NC368951  25.694   3.875   5.278
 5286POPC   PO468952  25.121   3.582   5.513
 5286POPC   GL168953  25.460   3.586   5.783
 5286POPC   GL268954  25.595   3.941   5.793
 5286POPC   C1A68955  25.391   3.327   6.178
 5286POPC   D2A68956  24.995   3.484   6.391
 5286POPC   C3A68957  24.931   3.568   6.841
 5286POPC   C4A68958  25.025   3.492   7.289
 5286POPC   C1B68959  25.368   3.846   6.196
 5286POPC   C2B68960  25.440   3.621   6.607
 5286POPC   C3B68961  25.376   3.752   7.040
 5286POPC   C4B68962  25.361   3.795   7.526
 5287POPC   NC368963  36.210  12.384   5.330
 5287POPC   PO468964  36.500  11.906   5.312
 5287POPC   GL168965  36.238  12.007   5.710
 5287POPC   GL268966  36.075  11.713   5.806
 5287POPC   C1A68967  36.031  12.096   6.138
 5287POPC   D2A68968  36.169  12.085   6.564
 5287POPC   C3A68969  35.981  12.295   6.904
 5287POPC   C4A68970  36.271  12.249   7.214
 5287POPC   C1B68971  35.854  11.611   6.202
 5287POPC   C2B68972  35.783  11.740   6.651
 5287POPC   C3B68973  36.036  11.794   7.026
 5287POPC   C4B68974  35.970  11.884   7.474
 5288POPC   NC368975  24.543  33.064   5.539
 5288POPC   PO468976  23.895  32.852   5.474
 5288POPC   GL168977  24.129  33.104   5.815
 5288POPC   GL268978  24.286  32.762   5.883
 5288POPC   C1A68979  24.480  33.128   6.185
 5288POPC   D2A68980  24.653  33.004   6.609
 5288POPC   C3A68981  24.508  33.245   6.945
 5288POPC   C4A68982  24.141  33.155   7.176
 5288POPC   C1B68983  24.552  32.630   6.256
 5288POPC   C2B68984  24.595  32.463   6.663
 5288POPC   C3B68985  24.400  32.594   7.049
 5288POPC   C4B68986  24.574  32.906   7.322
 5289POPC   NC368987  27.170  28.027   5.480
 5289POPC   PO468988  26.858  27.435   5.274
 5289POPC   GL168989  26.890  27.693   5.722
 5289POPC   GL268990  26.854  27.496   5.986
 5289POPC   C1A68991  27.057  27.924   6.144
 5289POPC   D2A68992  26.952  27.730   6.554
 5289POPC   C3A68993  27.049  27.743   7.009
 5289POPC   C4A68994  26.712  27.860   7.297
 5289POPC   C1B68995  26.774  27.260   6.333
 5289POPC   C2B68996  26.624  27.155   6.703
 5289POPC   C3B68997  26.624  27.408   7.050
 5289POPC   C4B68998  26.796  27.383   7.455
 5290POPC   NC368999   1.760   2.325   5.582
 5290POPC   PO469000   2.123   1.792   5.393
 5290POPC   GL169001   2.095   1.963   5.827
 5290POPC   GL269002   1.748   1.993   5.958
 5290POPC   C1A69003   2.144   2.204   6.231
 5290POPC   D2A69004   2.209   2.276   6.656
 5290POPC   C3A69005   1.952   2.029   6.936
 5290POPC   C4A69006   2.173   2.018   7.282
 5290POPC   C1B69007   1.945   1.737   6.254
 5290POPC   C2B69008   1.790   1.638   6.613
 5290POPC   C3B69009   1.925   1.465   6.926
 5290POPC   C4B69010   1.951   1.541   7.327
 5291POPC   NC369011  11.491  21.925   5.210
 5291POPC   PO469012  10.859  21.656   5.256
 5291POPC   GL169013  11.168  21.949   5.624
 5291POPC   GL269014  11.523  21.849   5.718
 5291POPC   C1A69015  11.318  22.207   6.028
 5291POPC   D2A69016  11.382  22.150   6.519
 5291POPC   C3A69017  11.189  22.370   6.915
 5291POPC   C4A69018  11.382  22.382   7.331
 5291POPC   C1B69019  11.744  21.922   6.139
 5291POPC   C2B69020  11.860  21.909   6.590
 5291POPC   C3B69021  11.678  21.965   7.026
 5291POPC   C4B69022  11.690  21.974   7.487
 5292POPC   NC369023  36.383  13.363   5.395
 5292POPC   PO469024  35.921  13.810   5.265
 5292POPC   GL169025  35.793  13.679   5.682
 5292POPC   GL269026  35.817  14.000   5.792
 5292POPC   C1A69027  35.901  13.474   6.087
 5292POPC   D2A69028  35.944  13.714   6.486
 5292POPC   C3A69029  35.908  13.522   6.891
 5292POPC   C4A69030  36.110  13.419   7.266
 5292POPC   C1B69031  36.177  13.940   6.061
 5292POPC   C2B69032  36.334  14.078   6.468
 5292POPC   C3B69033  36.191  13.999   6.889
 5292POPC   C4B69034  35.998  13.919   7.274
 5293POPC   NC369035   9.874  39.503   5.376
 5293POPC   PO469036   9.784  38.828   5.438
 5293POPC   GL169037   9.655  39.044   5.793
 5293POPC   GL269038   9.849  39.381   5.864
 5293POPC   C1A69039   9.521  39.144   6.203
 5293POPC   D2A69040   9.605  39.445   6.532
 5293POPC   C3A69041   9.697  39.315   6.931
 5293POPC   C4A69042   9.614  39.046   7.263
 5293POPC   C1B69043  10.055  39.103   6.133
 5293POPC   C2B69044  10.202  39.117   6.538
 5293POPC   C3B69045  10.204  39.392   6.865
 5293POPC   C4B69046  10.100  39.198   7.231
 5294POPC   NC369047   4.130   3.791   5.647
 5294POPC   PO469048   4.557   3.476   5.246
 5294POPC   GL169049   4.378   3.350   5.704
 5294POPC   GL269050   4.208   3.045   5.784
 5294POPC   C1A69051   4.458   3.343   6.196
 5294POPC   D2A69052   4.563   3.416   6.682
 5294POPC   C3A69053   4.406   3.769   6.949
 5294POPC   C4A69054   4.695   3.962   7.273
 5294POPC   C1B69055   3.989   3.123   6.204
 5294POPC   C2B69056   4.067   3.290   6.644
 5294POPC   C3B69057   4.194   3.255   7.098
 5294POPC   C4B69058   4.106   3.397   7.539
 5295POPC   NC369059   9.715   6.753   5.449
 5295POPC   PO469060   9.692   6.064   5.618
 5295POPC   GL169061   9.538   6.409   5.783
 5295POPC   GL269062   9.856   6.508   5.860
 5295POPC   C1A69063   9.332   6.683   6.087
 5295POPC   D2A69064   9.406   6.849   6.506
 5295POPC   C3A69065   9.602   6.537   6.770
 5295POPC   C4A69066   9.666   6.532   7.215
 5295POPC   C1B69067   9.884   6.341   6.236
 5295POPC   C2B69068  10.083   6.544   6.526
 5295POPC   C3B69069  10.043   6.783   6.876
 5295POPC   C4B69070  10.135   6.694   7.287
 5296POPC   NC369071   8.689  29.169   5.488
 5296POPC   PO469072   9.375  29.311   5.452
 5296POPC   GL169073   9.133  29.151   5.788
 5296POPC   GL269074   8.817  29.288   5.952
 5296POPC   C1A69075   9.150  29.050   6.227
 5296POPC   D2A69076   9.342  29.205   6.549
 5296POPC   C3A69077   9.206  29.110   6.936
 5296POPC   C4A69078   9.269  29.465   7.170
 5296POPC   C1B69079   8.840  29.496   6.355
 5296POPC   C2B69080   8.794  29.326   6.759
 5296POPC   C3B69081   8.698  29.100   7.145
 5296POPC   C4B69082   8.643  28.993   7.608
 5297POPC   NC369083  44.623  24.387   5.333
 5297POPC   PO469084  44.052  24.754   5.177
 5297POPC   GL169085  44.193  24.470   5.585
 5297POPC   GL269086  44.380  24.187   5.746
 5297POPC   C1A69087  44.328  24.565   6.085
 5297POPC   D2A69088  44.606  24.521   6.473
 5297POPC   C3A69089  44.495  24.515   6.916
 5297POPC   C4A69090  44.911  24.540   7.162
 5297POPC   C1B69091  44.667  24.182   6.107
 5297POPC   C2B69092  44.597  24.010   6.546
 5297POPC   C3B69093  44.708  24.072   6.977
 5297POPC   C4B69094  44.570  24.228   7.393
 5298POPC   NC369095  36.751  43.231   5.419
 5298POPC   PO469096  37.312  43.314   5.205
 5298POPC   GL169097  37.176  43.308   5.719
 5298POPC   GL269098  36.989  43.037   5.803
 5298POPC   C1A69099  37.099  43.214   6.231
 5298POPC   D2A69100  36.923  43.210   6.614
 5298POPC   C3A69101  37.186  43.215   6.943
 5298POPC   C4A69102  37.079  43.129   7.317
 5298POPC   C1B69103  36.720  42.874   6.165
 5298POPC   C2B69104  36.539  42.892   6.596
 5298POPC   C3B69105  36.793  42.860   6.979
 5298POPC   C4B69106  36.720  42.760   7.395
 5299POPC   NC369107  44.218   2.782   5.622
 5299POPC   PO469108  44.772   2.792   5.329
 5299POPC   GL169109  44.847   2.909   5.737
 5299POPC   GL269110  44.556   3.074   5.849
 5299POPC   C1A69111  44.726   2.687   6.127
 5299POPC   D2A69112  44.770   2.379   6.443
 5299POPC   C3A69113  44.624   2.467   6.893
 5299POPC   C4A69114  44.687   2.566   7.314
 5299POPC   C1B69115  44.332   2.981   6.279
 5299POPC   C2B69116  44.478   2.955   6.725
 5299POPC   C3B69117  44.553   3.048   7.173
 5299POPC   C4B69118  44.227   3.115   7.485
 5300POPC   NC369119  12.425   3.478   5.625
 5300POPC   PO469120  13.120   3.595   5.451
 5300POPC   GL169121  12.890   3.674   5.808
 5300POPC   GL269122  12.656   3.948   5.757
 5300POPC   C1A69123  12.823   3.491   6.218
 5300POPC   D2A69124  13.012   3.404   6.600
 5300POPC   C3A69125  12.793   3.423   6.983
 5300POPC   C4A69126  12.954   3.465   7.387
 5300POPC   C1B69127  12.495   3.874   6.181
 5300POPC   C2B69128  12.504   3.686   6.601
 5300POPC   C3B69129  12.563   3.883   7.002
 5300POPC   C4B69130  12.542   3.767   7.433
 5301POPC   NC369131   3.316  30.948   5.443
 5301POPC   PO469132   3.717  30.426   5.412
 5301POPC   GL169133   3.516  30.624   5.820
 5301POPC   GL269134   3.787  30.787   6.043
 5301POPC   C1A69135   3.324  30.805   6.243
 5301POPC   D2A69136   3.534  30.708   6.666
 5301POPC   C3A69137   3.429  30.893   7.057
 5301POPC   C4A69138   3.512  31.204   7.367
 5301POPC   C1B69139   3.635  30.389   6.271
 5301POPC   C2B69140   3.850  30.297   6.673
 5301POPC   C3B69141   3.893  30.582   7.039
 5301POPC   C4B69142   3.656  30.639   7.447
 5302POPC   NC369143  28.340   7.351   5.353
 5302POPC   PO469144  28.180   7.971   5.325
 5302POPC   GL169145  28.282   7.624   5.755
 5302POPC   GL269146  28.590   7.596   5.871
 5302POPC   C1A69147  28.144   7.250   6.078
 5302POPC   D2A69148  28.122   6.912   6.427
 5302POPC   C3A69149  28.162   6.967   6.893
 5302POPC   C4A69150  28.426   7.158   7.226
 5302POPC   C1B69151  28.425   7.600   6.328
 5302POPC   C2B69152  28.480   7.429   6.772
 5302POPC   C3B69153  28.539   7.640   7.187
 5302POPC   C4B69154  28.539   7.789   7.617
 5303POPC   NC369155  42.866  41.568   5.526
 5303POPC   PO469156  43.300  41.815   5.052
 5303POPC   GL169157  43.217  41.905   5.614
 5303POPC   GL269158  43.350  41.640   5.853
 5303POPC   C1A69159  42.952  41.840   6.078
 5303POPC   D2A69160  42.934  41.527   6.432
 5303POPC   C3A69161  42.779  41.597   6.860
 5303POPC   C4A69162  42.852  41.871   7.199
 5303POPC   C1B69163  43.417  41.839   6.300
 5303POPC   C2B69164  43.206  41.835   6.727
 5303POPC   C3B69165  43.228  41.524   7.130
 5303POPC   C4B69166  43.250  41.328   7.575
 5304POPC   NC369167  26.354  34.434   5.411
 5304POPC   PO469168  25.724  34.692   5.473
 5304POPC   GL169169  25.962  34.481   5.789
 5304POPC   GL269170  26.248  34.714   5.848
 5304POPC   C1A69171  25.840  34.319   6.210
 5304POPC   D2A69172  26.042  34.387   6.632
 5304POPC   C3A69173  25.873  34.541   7.015
 5304POPC   C4A69174  26.087  34.679   7.404
 5304POPC   C1B69175  26.085  34.771   6.286
 5304POPC   C2B69176  26.007  34.946   6.720
 5304POPC   C3B69177  25.884  35.084   7.153
 5304POPC   C4B69178  25.998  35.143   7.613
 5305POPC   NC369179  42.062  44.381   5.442
 5305POPC   PO469180  42.306  43.739   5.481
 5305POPC   GL169181  42.301  43.773   5.894
 5305POPC   GL269182  42.380  43.424   5.904
 5305POPC   C1A69183  42.411  44.075   6.208
 5305POPC   D2A69184  42.149  44.310   6.509
 5305POPC   C3A69185  42.086  44.146   6.892
 5305POPC   C4A69186  42.323  44.065   7.253
 5305POPC   C1B69187  42.241  43.420   6.308
 5305POPC   C2B69188  42.402  43.724   6.583
 5305POPC   C3B69189  42.609  44.020   6.808
 5305POPC   C4B69190  42.664  43.713   7.115
 5306POPC   NC369191   4.414  30.464   5.380
 5306POPC   PO469192   4.455  31.098   5.355
 5306POPC   GL169193   4.256  30.837   5.749
 5306POPC   GL269194   4.097  30.464   5.793
 5306POPC   C1A69195   4.385  30.784   6.200
 5306POPC   D2A69196   4.524  31.050   6.565
 5306POPC   C3A69197   4.395  30.898   6.986
 5306POPC   C4A69198   4.445  30.726   7.400
 5306POPC   C1B69199   4.146  30.341   6.243
 5306POPC   C2B69200   4.331  30.481   6.645
 5306POPC   C3B69201   4.304  30.296   7.063
 5306POPC   C4B69202   3.982  30.236   7.397
 5307POPC   NC369203  35.579  12.775   5.486
 5307POPC   PO469204  36.246  12.871   5.376
 5307POPC   GL169205  36.006  12.829   5.759
 5307POPC   GL269206  35.962  12.470   5.758
 5307POPC   C1A69207  35.941  12.956   6.208
 5307POPC   D2A69208  36.152  13.133   6.596
 5307POPC   C3A69209  35.962  13.013   6.999
 5307POPC   C4A69210  35.795  13.046   7.410
 5307POPC   C1B69211  36.259  12.547   6.098
 5307POPC   C2B69212  36.147  12.603   6.524
 5307POPC   C3B69213  36.347  12.676   6.903
 5307POPC   C4B69214  36.287  12.777   7.325
 5308POPC   NC369215  14.096   6.203   5.387
 5308POPC   PO469216  13.453   5.914   5.275
 5308POPC   GL169217  13.478   5.921   5.726
 5308POPC   GL269218  13.813   6.044   5.809
 5308POPC   C1A69219  13.579   5.693   6.119
 5308POPC   D2A69220  13.404   5.795   6.530
 5308POPC   C3A69221  13.703   5.668   6.824
 5308POPC   C4A69222  13.896   5.530   7.233
 5308POPC   C1B69223  13.536   6.189   6.171
 5308POPC   C2B69224  13.590   6.285   6.605
 5308POPC   C3B69225  13.611   6.125   7.011
 5308POPC   C4B69226  13.481   5.802   7.256
 5309POPC   NC369227  41.562  32.661   5.311
 5309POPC   PO469228  41.361  33.277   5.330
 5309POPC   GL169229  41.195  33.084   5.721
 5309POPC   GL269230  41.100  32.741   5.867
 5309POPC   C1A69231  41.379  33.103   6.125
 5309POPC   D2A69232  41.593  33.009   6.515
 5309POPC   C3A69233  41.540  33.206   6.941
 5309POPC   C4A69234  41.746  33.095   7.380
 5309POPC   C1B69235  41.215  32.664   6.339
 5309POPC   C2B69236  41.231  32.810   6.806
 5309POPC   C3B69237  41.274  32.780   7.268
 5309POPC   C4B69238  41.132  32.421   7.540
 5310POPC   NC369239  33.935  25.292   5.242
 5310POPC   PO469240  34.202  24.713   5.382
 5310POPC   GL169241  34.126  25.118   5.728
 5310POPC   GL269242  33.878  25.431   5.804
 5310POPC   C1A69243  34.069  25.206   6.213
 5310POPC   D2A69244  34.133  25.537   6.570
 5310POPC   C3A69245  34.151  25.378   6.987
 5310POPC   C4A69246  34.057  25.382   7.419
 5310POPC   C1B69247  33.693  25.543   6.277
 5310POPC   C2B69248  33.657  25.477   6.777
 5310POPC   C3B69249  33.572  25.488   7.267
 5310POPC   C4B69250  33.468  25.588   7.727
 5311POPC   NC369251  44.796  13.239   5.462
 5311POPC   PO469252  44.766  13.795   5.346
 5311POPC   GL169253  44.670  13.640   5.782
 5311POPC   GL269254  44.936  13.425   5.945
 5311POPC   C1A69255  44.684  13.762   6.258
 5311POPC   D2A69256  44.725  13.633   6.712
 5311POPC   C3A69257  44.560  13.896   7.085
 5311POPC   C4A69258  44.363  13.843   7.492
 5311POPC   C1B69259   0.165  13.556   6.351
 5311POPC   C2B69260   0.205  13.475   6.816
 5311POPC   C3B69261  44.912  13.543   7.179
 5311POPC   C4B69262  44.973  13.579   7.618
 5312POPC   NC369263  16.208  17.681   5.329
 5312POPC   PO469264  15.659  17.726   5.476
 5312POPC   GL169265  15.737  17.408   5.751
 5312POPC   GL269266  16.101  17.361   5.734
 5312POPC   C1A69267  15.610  17.294   6.177
 5312POPC   D2A69268  15.776  17.411   6.603
 5312POPC   C3A69269  15.660  17.325   7.039
 5312POPC   C4A69270  15.751  17.467   7.486
 5312POPC   C1B69271  16.123  17.457   6.213
 5312POPC   C2B69272  16.271  17.343   6.667
 5312POPC   C3B69273  16.165  17.469   7.109
 5312POPC   C4B69274  16.298  17.427   7.566
 5313POPC   NC369275   7.046  44.101   5.438
 5313POPC   PO469276   7.612  43.755   5.483
 5313POPC   GL169277   7.422  44.030   5.781
 5313POPC   GL269278   7.220  43.809   6.003
 5313POPC   C1A69279   7.478  44.253   6.162
 5313POPC   D2A69280   7.527  44.053   6.521
 5313POPC   C3A69281   7.725  44.190   6.866
 5313POPC   C4A69282   7.631  44.030   7.242
 5313POPC   C1B69283   7.044  44.056   6.378
 5313POPC   C2B69284   7.123  44.106   6.832
 5313POPC   C3B69285   7.117  43.893   7.233
 5313POPC   C4B69286   6.877  43.947   7.622
 5314POPC   NC369287  10.459  21.409   5.236
 5314POPC   PO469288  10.142  20.890   5.556
 5314POPC   GL169289  10.353  21.065   5.859
 5314POPC   GL269290  10.636  21.250   5.729
 5314POPC   C1A69291  10.324  21.221   6.249
 5314POPC   D2A69292  10.532  21.251   6.611
 5314POPC   C3A69293  10.313  21.228   6.996
 5314POPC   C4A69294  10.351  21.596   7.238
 5314POPC   C1B69295  10.798  21.422   6.139
 5314POPC   C2B69296  10.913  21.576   6.551
 5314POPC   C3B69297  10.786  21.512   6.987
 5314POPC   C4B69298  10.820  21.616   7.446
 5315POPC   NC369299  12.920  26.486   5.052
 5315POPC   PO469300  12.998  25.995   5.560
 5315POPC   GL169301  12.894  26.309   5.857
 5315POPC   GL269302  12.556  26.455   5.804
 5315POPC   C1A69303  13.015  26.117   6.232
 5315POPC   D2A69304  12.991  25.688   6.465
 5315POPC   C3A69305  12.986  25.726   6.919
 5315POPC   C4A69306  12.929  25.974   7.300
 5315POPC   C1B69307  12.556  26.349   6.246
 5315POPC   C2B69308  12.698  26.129   6.634
 5315POPC   C3B69309  12.542  26.119   7.015
 5315POPC   C4B69310  12.733  26.443   7.240
 5316POPC   NC369311   2.357  28.504   5.543
 5316POPC   PO469312   2.881  28.112   5.403
 5316POPC   GL169313   2.746  28.263   5.805
 5316POPC   GL269314   2.754  28.631   5.861
 5316POPC   C1A69315   2.809  28.317   6.260
 5316POPC   D2A69316   2.668  28.517   6.622
 5316POPC   C3A69317   2.711  28.357   7.029
 5316POPC   C4A69318   3.015  28.549   7.296
 5316POPC   C1B69319   2.431  28.710   6.203
 5316POPC   C2B69320   2.359  28.919   6.615
 5316POPC   C3B69321   2.613  28.868   6.990
 5316POPC   C4B69322   2.482  28.677   7.362
 5317POPC   NC369323  42.166  21.152   5.496
 5317POPC   PO469324  42.644  20.621   5.543
 5317POPC   GL169325  42.352  20.661   5.866
 5317POPC   GL269326  42.101  20.931   5.937
 5317POPC   C1A69327  42.248  20.513   6.250
 5317POPC   D2A69328  42.487  20.421   6.602
 5317POPC   C3A69329  42.354  20.694   6.908
 5317POPC   C4A69330  42.237  20.589   7.297
 5317POPC   C1B69331  41.930  20.921   6.327
 5317POPC   C2B69332  41.906  20.630   6.632
 5317POPC   C3B69333  41.842  20.755   7.020
 5317POPC   C4B69334  42.043  21.064   7.233
 5318POPC   NC369335   7.532  16.071   5.558
 5318POPC   PO469336   7.044  16.565   5.710
 5318POPC   GL169337   7.249  16.201   5.973
 5318POPC   GL269338   7.400  15.835   5.971
 5318POPC   C1A69339   7.400  16.080   6.401
 5318POPC   D2A69340   7.307  15.813   6.740
 5318POPC   C3A69341   7.447  16.050   7.079
 5318POPC   C4A69342   7.852  16.047   7.233
 5318POPC   C1B69343   7.701  15.677   6.312
 5318POPC   C2B69344   7.719  15.489   6.708
 5318POPC   C3B69345   7.547  15.524   7.105
 5318POPC   C4B69346   7.203  15.690   7.342
 5319POPC   NC369347  37.992  22.934   5.194
 5319POPC   PO469348  37.564  22.547   5.575
 5319POPC   GL169349  37.651  22.794   5.882
 5319POPC   GL269350  37.878  23.017   5.750
 5319POPC   C1A69351  37.909  22.779   6.238
 5319POPC   D2A69352  37.913  22.536   6.609
 5319POPC   C3A69353  37.894  22.820   6.948
 5319POPC   C4A69354  37.475  22.883   7.088
 5319POPC   C1B69355  37.671  23.228   6.154
 5319POPC   C2B69356  37.806  23.248   6.572
 5319POPC   C3B69357  37.963  23.347   6.944
 5319POPC   C4B69358  37.782  23.246   7.338
 5320POPC   NC369359  25.541  27.888   5.549
 5320POPC   PO469360  24.965  28.277   5.469
 5320POPC   GL169361  25.218  28.265   5.809
 5320POPC   GL269362  25.549  28.343   5.760
 5320POPC   C1A69363  25.133  28.221   6.256
 5320POPC   D2A69364  25.292  28.361   6.636
 5320POPC   C3A69365  25.094  28.206   7.001
 5320POPC   C4A69366  24.952  28.366   7.366
 5320POPC   C1B69367  25.506  28.577   6.117
 5320POPC   C2B69368  25.735  28.601   6.464
 5320POPC   C3B69369  25.677  28.575   6.891
 5320POPC   C4B69370  25.399  28.582   7.223
 5321POPC   NC369371  31.448  42.858   5.316
 5321POPC   PO469372  31.053  43.402   5.327
 5321POPC   GL169373  31.315  43.380   5.681
 5321POPC   GL269374  31.473  43.073   5.777
 5321POPC   C1A69375  31.452  43.483   6.094
 5321POPC   D2A69376  31.569  43.340   6.486
 5321POPC   C3A69377  31.567  43.508   6.870
 5321POPC   C4A69378  31.458  43.220   7.176
 5321POPC   C1B69379  31.458  42.920   6.232
 5321POPC   C2B69380  31.491  42.898   6.730
 5321POPC   C3B69381  31.671  42.742   7.157
 5321POPC   C4B69382  31.599  42.477   7.562
 5322POPC   NC369383   7.704  39.398   5.408
 5322POPC   PO469384   8.436  39.363   5.458
 5322POPC   GL169385   8.160  39.284   5.773
 5322POPC   GL269386   7.976  38.983   5.635
 5322POPC   C1A69387   8.255  39.384   6.240
 5322POPC   D2A69388   8.502  39.417   6.651
 5322POPC   C3A69389   8.355  39.212   7.051
 5322POPC   C4A69390   8.375  39.185   7.532
 5322POPC   C1B69391   8.001  38.948   6.099
 5322POPC   C2B69392   8.124  38.966   6.545
 5322POPC   C3B69393   7.881  38.880   6.909
 5322POPC   C4B69394   7.991  38.899   7.324
 5323POPC   NC369395   0.415   9.146   5.415
 5323POPC   PO469396   0.668   8.548   5.484
 5323POPC   GL169397   0.396   8.767   5.758
 5323POPC   GL269398   0.607   9.060   5.867
 5323POPC   C1A69399   0.210   8.772   6.177
 5323POPC   D2A69400   0.421   8.666   6.569
 5323POPC   C3A69401   0.242   8.762   6.963
 5323POPC   C4A69402   0.456   8.465   7.160
 5323POPC   C1B69403   0.737   8.845   6.196
 5323POPC   C2B69404   0.788   9.056   6.575
 5323POPC   C3B69405   0.803   8.997   6.994
 5323POPC   C4B69406   0.625   9.252   7.294
 5324POPC   NC369407  26.363   7.427   5.481
 5324POPC   PO469408  26.946   7.622   5.147
 5324POPC   GL169409  26.859   7.468   5.643
 5324POPC   GL269410  26.566   7.632   5.904
 5324POPC   C1A69411  26.787   7.242   6.067
 5324POPC   D2A69412  26.791   7.550   6.408
 5324POPC   C3A69413  26.864   7.497   6.834
 5324POPC   C4A69414  26.870   7.125   7.079
 5324POPC   C1B69415  26.323   7.485   6.242
 5324POPC   C2B69416  26.329   7.567   6.691
 5324POPC   C3B69417  26.445   7.397   7.090
 5324POPC   C4B69418  26.759   7.539   7.371
 5325POPC   NC369419   9.621  24.616   5.423
 5325POPC   PO469420  10.110  24.219   5.439
 5325POPC   GL169421   9.833  24.208   5.831
 5325POPC   GL269422   9.736  24.546   5.901
 5325POPC   C1A69423   9.941  24.355   6.306
 5325POPC   D2A69424   9.978  24.565   6.709
 5325POPC   C3A69425   9.791  24.341   7.063
 5325POPC   C4A69426   9.494  24.433   7.402
 5325POPC   C1B69427   9.591  24.822   6.233
 5325POPC   C2B69428   9.662  25.022   6.657
 5325POPC   C3B69429   9.588  24.837   7.073
 5325POPC   C4B69430   9.353  24.933   7.450
 5326POPC   NC369431  12.236  35.081   5.376
 5326POPC   PO469432  12.120  34.488   5.214
 5326POPC   GL169433  12.216  34.595   5.666
 5326POPC   GL269434  11.924  34.742   5.820
 5326POPC   C1A69435  12.381  34.617   6.096
 5326POPC   D2A69436  12.380  34.713   6.527
 5326POPC   C3A69437  12.316  34.462   6.900
 5326POPC   C4A69438  12.456  34.683   7.261
 5326POPC   C1B69439  11.948  34.858   6.275
 5326POPC   C2B69440  11.910  34.738   6.725
 5326POPC   C3B69441  11.885  34.647   7.153
 5326POPC   C4B69442  11.584  34.384   7.313
 5327POPC   NC369443  25.559   0.204   5.496
 5327POPC   PO469444  25.953   0.649   5.157
 5327POPC   GL169445  25.892   0.574   5.638
 5327POPC   GL269446  25.562   0.730   5.653
 5327POPC   C1A69447  26.064   0.583   6.110
 5327POPC   D2A69448  26.240   0.841   6.490
 5327POPC   C3A69449  26.232   0.689   6.936
 5327POPC   C4A69450  25.966   0.433   7.220
 5327POPC   C1B69451  25.531   0.612   6.082
 5327POPC   C2B69452  25.686   0.464   6.466
 5327POPC   C3B69453  25.718   0.677   6.855
 5327POPC   C4B69454  25.560   0.757   7.266
 5328POPC   NC369455  10.215   0.114   5.666
 5328POPC   PO469456  10.579   0.675   5.462
 5328POPC   GL169457  10.361   0.588   5.838
 5328POPC   GL269458  10.651   0.415   5.892
 5328POPC   C1A69459  10.341   0.329   6.272
 5328POPC   D2A69460  10.470   0.317   6.694
 5328POPC   C3A69461  10.303   0.474   7.093
 5328POPC   C4A69462  10.602   0.187   7.264
 5328POPC   C1B69463  10.652   0.725   6.231
 5328POPC   C2B69464  10.595   0.803   6.647
 5328POPC   C3B69465  10.777   0.631   7.038
 5328POPC   C4B69466  10.741   0.641   7.473
 5329POPC   NC369467  32.464  13.773   5.373
 5329POPC   PO469468  31.948  13.314   5.484
 5329POPC   GL169469  32.132  13.629   5.750
 5329POPC   GL269470  32.401  13.471   5.826
 5329POPC   C1A69471  31.994  13.805   6.127
 5329POPC   D2A69472  31.806  13.622   6.465
 5329POPC   C3A69473  31.864  13.772   6.842
 5329POPC   C4A69474  32.045  13.562   7.149
 5329POPC   C1B69475  32.476  13.648   6.222
 5329POPC   C2B69476  32.334  13.760   6.596
 5329POPC   C3B69477  32.485  13.574   6.931
 5329POPC   C4B69478  32.585  13.668   7.352
 5330POPC   NC369479  29.602  33.885   5.421
 5330POPC   PO469480  30.180  33.610   5.434
 5330POPC   GL169481  29.951  33.810   5.815
 5330POPC   GL269482  29.834  34.168   5.824
 5330POPC   C1A69483  30.046  33.913   6.257
 5330POPC   D2A69484  30.418  34.020   6.519
 5330POPC   C3A69485  30.250  34.157   6.893
 5330POPC   C4A69486  29.908  33.901   6.998
 5330POPC   C1B69487  29.531  34.059   6.136
 5330POPC   C2B69488  29.624  34.085   6.576
 5330POPC   C3B69489  29.428  34.044   6.963
 5330POPC   C4B69490  29.547  34.036   7.398
 5331POPC   NC369491  44.785  43.320   5.433
 5331POPC   PO469492  44.538  42.671   5.506
 5331POPC   GL169493  44.698  42.970   5.814
 5331POPC   GL269494   0.005  43.175   5.863
 5331POPC   C1A69495  44.590  43.253   6.157
 5331POPC   D2A69496  44.605  43.357   6.580
 5331POPC   C3A69497  44.307  43.187   6.895
 5331POPC   C4A69498  44.412  42.939   7.266
 5331POPC   C1B69499   0.132  43.351   6.264
 5331POPC   C2B69500   0.105  43.367   6.717
 5331POPC   C3B69501  44.829  43.206   7.054
 5331POPC   C4B69502  44.777  43.221   7.506
 5332POPC   NC369503  25.285  31.111   5.305
 5332POPC   PO469504  25.096  31.714   5.554
 5332POPC   GL169505  25.100  31.386   5.844
 5332POPC   GL269506  24.754  31.398   5.915
 5332POPC   C1A69507  25.136  31.370   6.292
 5332POPC   D2A69508  25.144  31.200   6.698
 5332POPC   C3A69509  25.337  31.508   6.925
 5332POPC   C4A69510  25.409  31.637   7.311
 5332POPC   C1B69511  24.861  31.815   6.157
 5332POPC   C2B69512  24.887  32.000   6.612
 5332POPC   C3B69513  24.965  31.867   7.062
 5332POPC   C4B69514  24.978  31.782   7.523
 5333POPC   NC369515  15.006   1.672   5.521
 5333POPC   PO469516  15.313   2.365   5.448
 5333POPC   GL169517  15.329   2.046   5.732
 5333POPC   GL269518  14.993   2.068   5.841
 5333POPC   C1A69519  15.437   1.857   6.117
 5333POPC   D2A69520  15.520   2.022   6.534
 5333POPC   C3A69521  15.565   1.783   6.910
 5333POPC   C4A69522  15.222   1.823   7.197
 5333POPC   C1B69523  15.108   2.230   6.237
 5333POPC   C2B69524  14.897   2.169   6.602
 5333POPC   C3B69525  14.773   1.977   6.970
 5333POPC   C4B69526  14.812   2.133   7.352
 5334POPC   NC369527  42.983   7.712   5.374
 5334POPC   PO469528  43.566   7.315   5.139
 5334POPC   GL169529  43.323   7.373   5.584
 5334POPC   GL269530  43.450   7.692   5.729
 5334POPC   C1A69531  43.086   7.432   6.029
 5334POPC   D2A69532  42.974   7.259   6.484
 5334POPC   C3A69533  42.890   7.478   6.890
 5334POPC   C4A69534  43.070   7.514   7.299
 5334POPC   C1B69535  43.399   7.794   6.186
 5334POPC   C2B69536  43.411   7.511   6.542
 5334POPC   C3B69537  43.373   7.308   6.926
 5334POPC   C4B69538  43.578   7.446   7.284
 5335POPC   NC369539  31.753  28.394   5.431
 5335POPC   PO469540  31.135  28.472   5.110
 5335POPC   GL169541  31.262  28.449   5.608
 5335POPC   GL269542  31.510  28.189   5.823
 5335POPC   C1A69543  31.282  28.599   6.070
 5335POPC   D2A69544  31.523  28.432   6.443
 5335POPC   C3A69545  31.327  28.493   6.845
 5335POPC   C4A69546  31.385  28.598   7.278
 5335POPC   C1B69547  31.733  28.011   6.211
 5335POPC   C2B69548  31.805  28.037   6.684
 5335POPC   C3B69549  31.617  28.137   7.101
 5335POPC   C4B69550  31.458  27.817   7.387
 5336POPC   NC369551  18.172   1.614   5.420
 5336POPC   PO469552  17.881   1.076   5.077
 5336POPC   GL169553  18.080   1.169   5.663
 5336POPC   GL269554  18.394   1.322   5.780
 5336POPC   C1A69555  18.101   1.093   6.144
 5336POPC   D2A69556  18.339   1.222   6.492
 5336POPC   C3A69557  18.186   1.170   6.906
 5336POPC   C4A69558  18.304   1.361   7.271
 5336POPC   C1B69559  18.715   1.326   6.103
 5336POPC   C2B69560  18.852   1.332   6.520
 5336POPC   C3B69561  18.706   1.192   6.925
 5336POPC   C4B69562  18.662   0.997   7.337
 5337POPC   NC369563   3.796  40.587   5.390
 5337POPC   PO469564   3.452  41.221   5.331
 5337POPC   GL169565   3.504  41.029   5.757
 5337POPC   GL269566   3.468  40.651   5.798
 5337POPC   C1A69567   3.491  40.909   6.244
 5337POPC   D2A69568   3.717  40.692   6.633
 5337POPC   C3A69569   3.685  40.837   7.083
 5337POPC   C4A69570   3.472  41.087   7.420
 5337POPC   C1B69571   3.599  40.399   6.185
 5337POPC   C2B69572   3.419  40.280   6.575
 5337POPC   C3B69573   3.346  40.467   6.957
 5337POPC   C4B69574   3.252  40.357   7.360
 5338POPC   NC369575   3.241  27.088   5.426
 5338POPC   PO469576   3.740  26.892   5.540
 5338POPC   GL169577   3.398  26.890   5.871
 5338POPC   GL269578   3.213  26.599   5.884
 5338POPC   C1A69579   3.310  26.911   6.319
 5338POPC   D2A69580   3.490  26.877   6.717
 5338POPC   C3A69581   3.375  26.992   7.157
 5338POPC   C4A69582   3.070  27.127   7.502
 5338POPC   C1B69583   3.555  26.477   6.198
 5338POPC   C2B69584   3.693  26.406   6.656
 5338POPC   C3B69585   3.858  26.667   6.995
 5338POPC   C4B69586   3.792  26.688   7.415
 5339POPC   NC369587  40.369  39.715   5.648
 5339POPC   PO469588  39.947  40.252   5.568
 5339POPC   GL169589  40.009  39.965   5.927
 5339POPC   GL269590  39.688  39.779   5.886
 5339POPC   C1A69591  40.199  39.964   6.366
 5339POPC   D2A69592  40.015  39.802   6.760
 5339POPC   C3A69593  40.149  39.882   7.204
 5339POPC   C4A69594  40.364  40.180   7.493
 5339POPC   C1B69595  39.699  39.915   6.334
 5339POPC   C2B69596  39.535  40.004   6.726
 5339POPC   C3B69597  39.612  39.781   7.114
 5339POPC   C4B69598  39.707  39.671   7.548
 5340POPC   NC369599  14.754  24.630   5.470
 5340POPC   PO469600  14.131  24.326   5.376
 5340POPC   GL169601  14.371  24.277   5.813
 5340POPC   GL269602  14.742  24.295   5.885
 5340POPC   C1A69603  14.457  24.557   6.222
 5340POPC   D2A69604  14.600  24.720   6.649
 5340POPC   C3A69605  14.402  24.577   7.049
 5340POPC   C4A69606  14.203  24.185   7.131
 5340POPC   C1B69607  14.646  24.080   6.294
 5340POPC   C2B69608  14.583  24.108   6.757
 5340POPC   C3B69609  14.777  24.265   7.133
 5340POPC   C4B69610  14.691  24.227   7.572
 5341POPC   NC369611  43.198  15.422   5.491
 5341POPC   PO469612  42.751  14.913   5.809
 5341POPC   GL169613  42.939  15.260   5.933
 5341POPC   GL269614  43.261  15.151   5.906
 5341POPC   C1A69615  43.051  15.230   6.378
 5341POPC   D2A69616  42.976  15.288   6.787
 5341POPC   C3A69617  43.050  15.050   7.103
 5341POPC   C4A69618  43.081  15.345   7.419
 5341POPC   C1B69619  43.526  15.322   6.243
 5341POPC   C2B69620  43.440  15.470   6.666
 5341POPC   C3B69621  43.498  15.302   7.083
 5341POPC   C4B69622  43.456  15.015   7.464
 5342POPC   NC369623  27.197   2.111   5.485
 5342POPC   PO469624  26.566   2.141   5.627
 5342POPC   GL169625  26.895   2.019   5.885
 5342POPC   GL269626  26.982   1.688   5.767
 5342POPC   C1A69627  26.903   2.104   6.306
 5342POPC   D2A69628  26.675   2.076   6.667
 5342POPC   C3A69629  26.976   2.056   6.966
 5342POPC   C4A69630  27.044   2.339   7.283
 5342POPC   C1B69631  26.716   1.627   6.154
 5342POPC   C2B69632  26.847   1.606   6.584
 5342POPC   C3B69633  26.770   1.565   7.004
 5342POPC   C4B69634  26.553   1.889   7.193
 5343POPC   NC369635  20.201  13.750   5.417
 5343POPC   PO469636  20.743  13.466   5.316
 5343POPC   GL169637  20.733  13.554   5.770
 5343POPC   GL269638  20.407  13.542   5.869
 5343POPC   C1A69639  20.776  13.560   6.261
 5343POPC   D2A69640  20.788  13.867   6.626
 5343POPC   C3A69641  20.660  13.768   7.079
 5343POPC   C4A69642  20.463  13.927   7.497
 5343POPC   C1B69643  20.293  13.421   6.307
 5343POPC   C2B69644  20.535  13.423   6.723
 5343POPC   C3B69645  20.691  13.209   7.145
 5343POPC   C4B69646  20.709  13.126   7.627
 5344POPC   NC369647  37.151   9.105   5.411
 5344POPC   PO469648  37.098   8.473   5.350
 5344POPC   GL169649  37.025   8.573   5.795
 5344POPC   GL269650  37.270   8.818   5.788
 5344POPC   C1A69651  36.944   8.878   6.198
 5344POPC   D2A69652  36.731   9.096   6.590
 5344POPC   C3A69653  36.740   8.913   7.038
 5344POPC   C4A69654  36.820   8.912   7.497
 5344POPC   C1B69655  37.391   9.126   6.070
 5344POPC   C2B69656  37.242   9.241   6.467
 5344POPC   C3B69657  37.209   8.988   6.836
 5344POPC   C4B69658  37.215   9.131   7.229
 5345POPC   NC369659  28.131  42.023   5.578
 5345POPC   PO469660  28.733  42.136   5.195
 5345POPC   GL169661  28.593  42.440   5.657
 5345POPC   GL269662  28.268  42.478   5.776
 5345POPC   C1A69663  28.660  42.377   6.153
 5345POPC   D2A69664  28.463  42.248   6.565
 5345POPC   C3A69665  28.542  42.360   7.011
 5345POPC   C4A69666  28.366  42.107   7.366
 5345POPC   C1B69667  28.128  42.434   6.210
 5345POPC   C2B69668  28.146  42.657   6.633
 5345POPC   C3B69669  28.038  42.471   7.043
 5345POPC   C4B69670  28.030  42.472   7.514
 5346POPC   NC369671  12.716   6.972   5.519
 5346POPC   PO469672  13.247   7.351   5.619
 5346POPC   GL169673  12.858   7.513   5.826
 5346POPC   GL269674  12.488   7.410   5.710
 5346POPC   C1A69675  12.899   7.498   6.277
 5346POPC   D2A69676  12.935   7.235   6.631
 5346POPC   C3A69677  13.016   7.462   6.996
 5346POPC   C4A69678  12.964   7.311   7.387
 5346POPC   C1B69679  12.504   7.224   6.123
 5346POPC   C2B69680  12.443   7.366   6.540
 5346POPC   C3B69681  12.531   7.302   6.996
 5346POPC   C4B69682  12.475   7.192   7.443
 5347POPC   NC369683  38.421  18.151   5.430
 5347POPC   PO469684  37.967  18.659   5.691
 5347POPC   GL169685  38.192  18.333   5.904
 5347POPC   GL269686  38.525  18.303   5.925
 5347POPC   C1A69687  38.270  18.255   6.360
 5347POPC   D2A69688  38.412  18.493   6.711
 5347POPC   C3A69689  38.373  18.292   7.122
 5347POPC   C4A69690  38.712  18.342   7.409
 5347POPC   C1B69691  38.601  17.921   6.086
 5347POPC   C2B69692  38.472  17.777   6.421
 5347POPC   C3B69693  38.487  17.901   6.808
 5347POPC   C4B69694  38.699  17.887   7.194
 5348POPC   NC369695  32.771   3.490   5.240
 5348POPC   PO469696  33.310   3.811   5.550
 5348POPC   GL169697  33.217   3.571   5.881
 5348POPC   GL269698  32.934   3.370   5.808
 5348POPC   C1A69699  33.348   3.517   6.276
 5348POPC   D2A69700  33.239   3.316   6.642
 5348POPC   C3A69701  33.214   3.425   7.076
 5348POPC   C4A69702  33.414   3.640   7.422
 5348POPC   C1B69703  32.872   3.365   6.274
 5348POPC   C2B69704  32.824   3.677   6.665
 5348POPC   C3B69705  32.692   3.571   7.063
 5348POPC   C4B69706  32.726   3.163   7.266
 5349POPC   NC369707  11.861  10.591   5.193
 5349POPC   PO469708  11.312  10.893   5.475
 5349POPC   GL169709  11.555  10.571   5.674
 5349POPC   GL269710  11.252  10.478   5.846
 5349POPC   C1A69711  11.671  10.530   6.123
 5349POPC   D2A69712  11.466  10.586   6.541
 5349POPC   C3A69713  11.539  10.348   6.916
 5349POPC   C4A69714  11.819  10.404   7.242
 5349POPC   C1B69715  11.236  10.839   6.148
 5349POPC   C2B69716  11.062  10.935   6.571
 5349POPC   C3B69717  10.975  10.737   6.952
 5349POPC   C4B69718  11.263  10.608   7.243
 5350POPC   NC369719   1.425  31.095   5.658
 5350POPC   PO469720   1.048  31.666   5.535
 5350POPC   GL169721   1.287  31.547   5.857
 5350POPC   GL269722   0.986  31.275   5.879
 5350POPC   C1A69723   1.354  31.340   6.254
 5350POPC   D2A69724   1.253  31.140   6.639
 5350POPC   C3A69725   1.423  31.448   6.889
 5350POPC   C4A69726   1.486  31.651   7.266
 5350POPC   C1B69727   0.910  31.627   6.169
 5350POPC   C2B69728   1.063  31.631   6.573
 5350POPC   C3B69729   1.027  31.766   6.949
 5350POPC   C4B69730   0.939  31.715   7.339
 5351POPC   NC369731  40.629  20.771   5.457
 5351POPC   PO469732  41.097  20.267   5.366
 5351POPC   GL169733  40.969  20.476   5.766
 5351POPC   GL269734  40.626  20.403   5.857
 5351POPC   C1A69735  40.969  20.631   6.216
 5351POPC   D2A69736  40.979  20.414   6.590
 5351POPC   C3A69737  41.043  20.610   6.935
 5351POPC   C4A69738  41.251  20.482   7.274
 5351POPC   C1B69739  40.549  20.345   6.309
 5351POPC   C2B69740  40.561  20.689   6.631
 5351POPC   C3B69741  40.564  20.759   7.068
 5351POPC   C4B69742  40.675  20.430   7.342
 5352POPC   NC369743  12.411  27.144   5.083
 5352POPC   PO469744  13.027  26.944   5.262
 5352POPC   GL169745  13.135  27.005   5.734
 5352POPC   GL269746  12.796  26.899   5.757
 5352POPC   C1A69747  13.092  26.788   6.164
 5352POPC   D2A69748  12.994  26.552   6.550
 5352POPC   C3A69749  12.892  26.808   6.925
 5352POPC   C4A69750  13.060  26.815   7.340
 5352POPC   C1B69751  12.558  26.870   6.135
 5352POPC   C2B69752  12.506  26.736   6.558
 5352POPC   C3B69753  12.345  26.620   6.940
 5352POPC   C4B69754  12.377  26.932   7.237
 5353POPC   NC369755  14.433  11.759   5.475
 5353POPC   PO469756  14.751  11.107   5.617
 5353POPC   GL169757  14.520  11.360   5.918
 5353POPC   GL269758  14.154  11.478   5.857
 5353POPC   C1A69759  14.519  11.317   6.379
 5353POPC   D2A69760  14.546  11.333   6.816
 5353POPC   C3A69761  14.584  11.190   7.193
 5353POPC   C4A69762  14.727  11.590   7.347
 5353POPC   C1B69763  14.105  11.104   6.161
 5353POPC   C2B69764  14.139  11.069   6.645
 5353POPC   C3B69765  14.055  11.473   6.864
 5353POPC   C4B69766  14.272  11.736   7.136
 5354POPC   NC369767  44.734  17.913   5.245
 5354POPC   PO469768  44.341  17.318   5.297
 5354POPC   GL169769  44.568  17.515   5.625
 5354POPC   GL269770  44.302  17.599   5.841
 5354POPC   C1A69771  44.767  17.470   6.046
 5354POPC   D2A69772  44.762  17.735   6.425
 5354POPC   C3A69773  44.804  17.514   6.804
 5354POPC   C4A69774  44.907  17.246   7.166
 5354POPC   C1B69775  44.292  17.450   6.236
 5354POPC   C2B69776  44.307  17.603   6.637
 5354POPC   C3B69777  44.202  17.762   7.013
 5354POPC   C4B69778  44.510  17.563   7.245
 5355POPC   NC369779   3.441  34.889   5.439
 5355POPC   PO469780   3.547  35.512   5.282
 5355POPC   GL169781   3.628  35.573   5.754
 5355POPC   GL269782   3.622  35.223   5.871
 5355POPC   C1A69783   3.594  35.701   6.211
 5355POPC   D2A69784   3.374  35.421   6.504
 5355POPC   C3A69785   3.449  35.397   6.943
 5355POPC   C4A69786   3.239  35.458   7.320
 5355POPC   C1B69787   3.710  34.964   6.233
 5355POPC   C2B69788   3.622  34.981   6.655
 5355POPC   C3B69789   3.809  34.956   7.024
 5355POPC   C4B69790   3.683  35.193   7.350
 5356POPC   NC369791  15.804  23.208   5.354
 5356POPC   PO469792  15.698  22.526   5.461
 5356POPC   GL169793  15.752  22.710   5.865
 5356POPC   GL269794  15.947  23.011   5.805
 5356POPC   C1A69795  16.020  22.736   6.258
 5356POPC   D2A69796  16.212  22.727   6.700
 5356POPC   C3A69797  16.151  22.861   7.158
 5356POPC   C4A69798  15.976  22.833   7.584
 5356POPC   C1B69799  15.693  23.144   6.147
 5356POPC   C2B69800  15.851  23.116   6.556
 5356POPC   C3B69801  15.687  23.044   6.951
 5356POPC   C4B69802  15.754  23.208   7.339
 5357POPC   NC369803  43.479  29.755   5.431
 5357POPC   PO469804  44.105  29.954   5.509
 5357POPC   GL169805  43.796  29.832   5.836
 5357POPC   GL269806  43.477  30.065   5.825
 5357POPC   C1A69807  43.936  29.596   6.219
 5357POPC   D2A69808  44.126  29.401   6.598
 5357POPC   C3A69809  44.008  29.558   7.010
 5357POPC   C4A69810  43.934  29.892   7.322
 5357POPC   C1B69811  43.703  30.179   6.185
 5357POPC   C2B69812  43.550  30.180   6.586
 5357POPC   C3B69813  43.717  30.192   6.968
 5357POPC   C4B69814  43.542  30.188   7.359
 5358POPC   NC369815  20.494  12.061   5.373
 5358POPC   PO469816  21.153  12.139   5.381
 5358POPC   GL169817  20.952  12.045   5.775
 5358POPC   GL269818  20.588  12.117   5.874
 5358POPC   C1A69819  21.007  12.110   6.218
 5358POPC   D2A69820  20.757  11.989   6.596
 5358POPC   C3A69821  20.716  12.159   7.012
 5358POPC   C4A69822  20.723  11.933   7.445
 5358POPC   C1B69823  20.362  12.010   6.268
 5358POPC   C2B69824  20.233  11.968   6.726
 5358POPC   C3B69825  20.261  11.964   7.187
 5358POPC   C4B69826  20.270  11.963   7.651
 5359POPC   NC369827  29.919  16.417   5.420
 5359POPC   PO469828  29.802  16.988   5.374
 5359POPC   GL169829  30.105  16.872   5.739
 5359POPC   GL269830  30.208  16.511   5.839
 5359POPC   C1A69831  30.239  16.864   6.181
 5359POPC   D2A69832  30.156  16.570   6.499
 5359POPC   C3A69833  29.996  16.794   6.855
 5359POPC   C4A69834  30.215  17.039   7.177
 5359POPC   C1B69835  29.810  16.538   6.075
 5359POPC   C2B69836  29.692  16.318   6.454
 5359POPC   C3B69837  29.861  16.292   6.859
 5359POPC   C4B69838  29.947  16.491   7.265
 5360POPC   NC369839  16.237  32.294   5.493
 5360POPC   PO469840  15.604  31.986   5.574
 5360POPC   GL169841  15.791  32.016   5.960
 5360POPC   GL269842  15.853  32.357   5.904
 5360POPC   C1A69843  15.945  32.152   6.385
 5360POPC   D2A69844  16.015  32.194   6.848
 5360POPC   C3A69845  15.690  32.056   7.134
 5360POPC   C4A69846  15.755  32.265   7.535
 5360POPC   C1B69847  16.186  32.569   6.158
 5360POPC   C2B69848  16.378  32.665   6.554
 5360POPC   C3B69849  16.164  32.681   6.953
 5360POPC   C4B69850  16.190  32.490   7.373
 5361POPC   NC369851  39.681  31.351   5.225
 5361POPC   PO469852  40.374  31.607   5.278
 5361POPC   GL169853  40.079  31.521   5.598
 5361POPC   GL269854  40.281  31.751   5.788
 5361POPC   C1A69855  39.947  31.362   6.023
 5361POPC   D2A69856  40.185  31.243   6.397
 5361POPC   C3A69857  40.059  31.290   6.828
 5361POPC   C4A69858  40.134  31.296   7.231
 5361POPC   C1B69859  40.127  31.791   6.246
 5361POPC   C2B69860  40.126  31.761   6.663
 5361POPC   C3B69861  40.049  31.785   7.078
 5361POPC   C4B69862  40.418  31.731   7.329
 5362POPC   NC369863  36.139  44.482   5.816
 5362POPC   PO469864  36.563  44.998   5.562
 5362POPC   GL169865  36.339  44.982   5.973
 5362POPC   GL269866  35.980  44.883   6.057
 5362POPC   C1A69867  36.364  44.929   6.415
 5362POPC   D2A69868  36.431  44.917   6.848
 5362POPC   C3A69869  36.126  44.662   7.031
 5362POPC   C4A69870  36.049  44.259   7.213
 5362POPC   C1B69871  35.784  44.606   6.388
 5362POPC   C2B69872  35.564  44.525   6.789
 5362POPC   C3B69873  35.643  44.851   7.067
 5362POPC   C4B69874  35.979   0.083   7.289
 5363POPC   NC369875   6.670   4.680   5.515
 5363POPC   PO469876   6.366   4.099   5.577
 5363POPC   GL169877   6.640   4.271   5.902
 5363POPC   GL269878   6.900   4.078   5.999
 5363POPC   C1A69879   6.869   4.501   6.277
 5363POPC   D2A69880   6.874   4.617   6.733
 5363POPC   C3A69881   6.485   4.518   7.022
 5363POPC   C4A69882   6.550   4.144   7.360
 5363POPC   C1B69883   6.990   3.959   6.374
 5363POPC   C2B69884   7.181   4.109   6.708
 5363POPC   C3B69885   6.869   4.178   6.969
 5363POPC   C4B69886   6.906   4.468   7.285
 5364POPC   NC369887  38.082  41.060   5.499
 5364POPC   PO469888  38.650  40.699   5.436
 5364POPC   GL169889  38.621  40.922   5.796
 5364POPC   GL269890  38.312  40.810   5.906
 5364POPC   C1A69891  38.795  40.798   6.201
 5364POPC   D2A69892  38.713  40.632   6.633
 5364POPC   C3A69893  38.469  40.819   6.942
 5364POPC   C4A69894  38.552  41.026   7.336
 5364POPC   C1B69895  38.281  41.151   6.203
 5364POPC   C2B69896  38.206  41.369   6.617
 5364POPC   C3B69897  38.159  41.224   7.080
 5364POPC   C4B69898  38.101  40.773   7.310
 5365POPC   NC369899   6.299  10.693   5.336
 5365POPC   PO469900   5.708  10.367   5.344
 5365POPC   GL169901   5.787  10.225   5.726
 5365POPC   GL269902   6.068  10.443   5.768
 5365POPC   C1A69903   5.873  10.200   6.164
 5365POPC   D2A69904   6.040  10.460   6.464
 5365POPC   C3A69905   5.969  10.356   6.838
 5365POPC   C4A69906   6.219  10.437   7.179
 5365POPC   C1B69907   5.820  10.727   6.079
 5365POPC   C2B69908   5.821  10.924   6.529
 5365POPC   C3B69909   5.932  10.842   6.968
 5365POPC   C4B69910   5.860  10.929   7.411
 5366POPC   NC369911  15.234  17.566   5.423
 5366POPC   PO469912  14.696  17.995   5.493
 5366POPC   GL169913  14.934  17.688   5.815
 5366POPC   GL269914  15.318  17.719   5.901
 5366POPC   C1A69915  15.041  17.408   6.208
 5366POPC   D2A69916  14.961  17.523   6.651
 5366POPC   C3A69917  15.000  17.310   7.042
 5366POPC   C4A69918  14.923  17.439   7.471
 5366POPC   C1B69919  15.428  17.735   6.364
 5366POPC   C2B69920  15.423  17.725   6.813
 5366POPC   C3B69921  15.321  17.665   7.245
 5366POPC   C4B69922  15.332  17.706   7.696
 5367POPC   NC369923  18.047  20.022   5.453
 5367POPC   PO469924  18.488  19.553   5.465
 5367POPC   GL169925  18.333  19.845   5.829
 5367POPC   GL269926  18.599  20.014   5.981
 5367POPC   C1A69927  18.103  19.953   6.219
 5367POPC   D2A69928  18.067  19.643   6.543
 5367POPC   C3A69929  18.057  19.694   6.984
 5367POPC   C4A69930  17.946  19.961   7.287
 5367POPC   C1B69931  18.550  19.847   6.389
 5367POPC   C2B69932  18.331  20.042   6.735
 5367POPC   C3B69933  18.466  19.984   7.145
 5367POPC   C4B69934  18.721  19.740   7.483
 5368POPC   NC369935  21.192  27.275   5.531
 5368POPC   PO469936  21.605  27.781   5.557
 5368POPC   GL169937  21.357  27.648   5.842
 5368POPC   GL269938  21.025  27.751   5.721
 5368POPC   C1A69939  21.405  27.443   6.217
 5368POPC   D2A69940  21.174  27.449   6.556
 5368POPC   C3A69941  21.390  27.547   6.856
 5368POPC   C4A69942  21.297  27.468   7.228
 5368POPC   C1B69943  20.975  27.711   6.168
 5368POPC   C2B69944  21.059  27.947   6.588
 5368POPC   C3B69945  20.985  27.813   7.014
 5368POPC   C4B69946  20.990  27.797   7.480
 5369POPC   NC369947  24.066   1.205   5.339
 5369POPC   PO469948  23.464   0.977   5.492
 5369POPC   GL169949  23.826   1.114   5.782
 5369POPC   GL269950  23.752   1.423   5.763
 5369POPC   C1A69951  24.020   1.316   6.163
 5369POPC   D2A69952  23.878   1.138   6.545
 5369POPC   C3A69953  23.917   1.384   6.891
 5369POPC   C4A69954  23.856   1.249   7.268
 5369POPC   C1B69955  23.505   1.267   6.166
 5369POPC   C2B69956  23.382   1.360   6.584
 5369POPC   C3B69957  23.433   1.203   6.965
 5369POPC   C4B69958  23.339   1.093   7.350
 5370POPC   NC369959  12.704  24.105   5.516
 5370POPC   PO469960  13.030  23.575   5.294
 5370POPC   GL169961  13.022  23.647   5.731
 5370POPC   GL269962  12.715  23.696   5.827
 5370POPC   C1A69963  13.081  23.828   6.174
 5370POPC   D2A69964  12.951  23.726   6.610
 5370POPC   C3A69965  13.074  23.990   6.966
 5370POPC   C4A69966  12.953  24.001   7.435
 5370POPC   C1B69967  12.512  23.952   6.150
 5370POPC   C2B69968  12.464  23.925   6.595
 5370POPC   C3B69969  12.498  23.646   6.945
 5370POPC   C4B69970  12.617  23.636   7.369
 5371POPC   NC369971  37.294   7.270   5.335
 5371POPC   PO469972  36.671   7.678   5.331
 5371POPC   GL169973  36.930   7.584   5.699
 5371POPC   GL269974  37.010   7.256   5.785
 5371POPC   C1A69975  36.889   7.656   6.147
 5371POPC   D2A69976  36.903   7.348   6.481
 5371POPC   C3A69977  36.795   7.380   6.915
 5371POPC   C4A69978  36.721   7.720   7.204
 5371POPC   C1B69979  37.308   7.384   6.090
 5371POPC   C2B69980  37.432   7.353   6.510
 5371POPC   C3B69981  37.312   7.364   6.917
 5371POPC   C4B69982  37.183   7.055   7.208
 5372POPC   NC369983   4.062  31.395   5.304
 5372POPC   PO469984   4.513  31.785   5.330
 5372POPC   GL169985   4.528  31.690   5.767
 5372POPC   GL269986   4.360  31.373   5.786
 5372POPC   C1A69987   4.255  31.746   6.169
 5372POPC   D2A69988   4.021  31.553   6.539
 5372POPC   C3A69989   4.280  31.402   6.862
 5372POPC   C4A69990   4.315  31.344   7.292
 5372POPC   C1B69991   4.140  31.217   6.172
 5372POPC   C2B69992   4.015  30.987   6.579
 5372POPC   C3B69993   3.921  31.073   7.031
 5372POPC   C4B69994   3.991  31.012   7.468
 5373POPC   NC369995  35.806   5.359   5.328
 5373POPC   PO469996  35.373   4.904   5.432
 5373POPC   GL169997  35.513   5.199   5.742
 5373POPC   GL269998  35.824   5.027   5.745
 5373POPC   C1A69999  35.304   5.368   6.146
 5373POPC   D2A70000  34.978   5.278   6.477
 5373POPC   C3A70001  35.165   5.410   6.856
 5373POPC   C4A70002  35.533   5.293   7.095
 5373POPC   C1B70003  35.639   4.951   6.165
 5373POPC   C2B70004  35.654   5.063   6.601
 5373POPC   C3B70005  35.836   4.898   6.975
 5373POPC   C4B70006  35.566   4.806   7.320
 5374POPC   NC370007  14.274  14.307   5.525
 5374POPC   PO470008  14.903  14.336   5.630
 5374POPC   GL170009  14.613  14.339   5.967
 5374POPC   GL270010  14.277  14.504   5.973
 5374POPC   C1A70011  14.517  14.395   6.401
 5374POPC   D2A70012  14.318  14.680   6.671
 5374POPC   C3A70013  14.542  14.589   7.042
 5374POPC   C4A70014  14.569  14.230   7.325
 5374POPC   C1B70015  14.027  14.322   6.255
 5374POPC   C2B70016  13.892  14.380   6.652
 5374POPC   C3B70017  14.085  14.323   7.039
 5374POPC   C4B70018  14.103  14.517   7.417
 5375POPC   NC370019  19.098  32.364   5.163
 5375POPC   PO470020  18.522  31.942   5.378
 5375POPC   GL170021  18.828  32.003   5.758
 5375POPC   GL270022  18.863  32.348   5.964
 5375POPC   C1A70023  19.041  31.950   6.171
 5375POPC   D2A70024  19.065  32.284   6.460
 5375POPC   C3A70025  19.139  32.113   6.839
 5375POPC   C4A70026  19.074  32.100   7.257
 5375POPC   C1B70027  18.824  32.705   6.212
 5375POPC   C2B70028  18.661  32.603   6.609
 5375POPC   C3B70029  18.858  32.527   6.977
 5375POPC   C4B70030  19.155  32.641   7.271
 5376POPC   NC370031  33.746   0.212   5.450
 5376POPC   PO470032  34.137   0.705   5.719
 5376POPC   GL170033  33.907   0.441   5.946
 5376POPC   GL270034  33.571   0.423   5.904
 5376POPC   C1A70035  33.911   0.525   6.366
 5376POPC   D2A70036  33.994   0.647   6.784
 5376POPC   C3A70037  33.846   0.481   7.165
 5376POPC   C4A70038  34.130   0.496   7.530
 5376POPC   C1B70039  33.389   0.560   6.246
 5376POPC   C2B70040  33.496   0.401   6.638
 5376POPC   C3B70041  33.336   0.213   6.973
 5376POPC   C4B70042  33.481   0.200   7.375
 5377POPC   NC370043  10.880   0.909   5.157
 5377POPC   PO470044  11.348   1.312   5.521
 5377POPC   GL170045  11.276   1.153   5.921
 5377POPC   GL270046  11.487   0.867   6.041
 5377POPC   C1A70047  11.116   1.359   6.267
 5377POPC   D2A70048  11.273   1.510   6.633
 5377POPC   C3A70049  11.400   1.304   7.000
 5377POPC   C4A70050  11.239   1.386   7.415
 5377POPC   C1B70051  11.130   0.859   6.328
 5377POPC   C2B70052  11.082   0.957   6.793
 5377POPC   C3B70053  11.143   0.901   7.293
 5377POPC   C4B70054  11.077   1.045   7.773
 5378POPC   NC370055  39.833   0.875   5.266
 5378POPC   PO470056  40.161   1.426   5.300
 5378POPC   GL170057  40.199   1.387   5.719
 5378POPC   GL270058  40.143   1.058   5.746
 5378POPC   C1A70059  40.225   1.380   6.165
 5378POPC   D2A70060  40.058   1.204   6.546
 5378POPC   C3A70061  39.763   1.445   6.814
 5378POPC   C4A70062  39.852   1.572   7.252
 5378POPC   C1B70063  40.219   0.829   6.139
 5378POPC   C2B70064  40.239   0.645   6.552
 5378POPC   C3B70065  40.300   0.894   6.916
 5378POPC   C4B70066  39.935   1.086   7.123
 5379POPC   NC370067  29.021  42.027   5.551
 5379POPC   PO470068  29.126  41.331   5.248
 5379POPC   GL170069  29.274  41.315   5.724
 5379POPC   GL270070  29.164  41.641   5.821
 5379POPC   C1A70071  29.327  41.434   6.233
 5379POPC   D2A70072  29.253  41.686   6.629
 5379POPC   C3A70073  29.294  41.505   7.043
 5379POPC   C4A70074  29.301  41.372   7.491
 5379POPC   C1B70075  29.047  41.895   6.202
 5379POPC   C2B70076  28.774  41.831   6.600
 5379POPC   C3B70077  28.846  41.943   7.001
 5379POPC   C4B70078  28.960  41.727   7.349
 5380POPC   NC370079   2.483   2.089   5.501
 5380POPC   PO470080   3.067   1.699   5.553
 5380POPC   GL170081   3.176   2.016   5.865
 5380POPC   GL270082   2.798   1.979   5.915
 5380POPC   C1A70083   3.084   2.117   6.322
 5380POPC   D2A70084   2.809   1.903   6.609
 5380POPC   C3A70085   2.602   2.073   6.965
 5380POPC   C4A70086   2.667   2.053   7.414
 5380POPC   C1B70087   2.480   1.816   6.215
 5380POPC   C2B70088   2.299   1.762   6.646
 5380POPC   C3B70089   2.406   1.591   7.061
 5380POPC   C4B70090   2.394   1.642   7.521
 5381POPC   NC370091  43.790   9.370   5.194
 5381POPC   PO470092  43.669   8.745   5.438
 5381POPC   GL170093  43.958   8.926   5.737
 5381POPC   GL270094  44.129   8.649   5.816
 5381POPC   C1A70095  43.988   8.976   6.204
 5381POPC   D2A70096  43.850   9.220   6.561
 5381POPC   C3A70097  43.706   9.315   6.989
 5381POPC   C4A70098  43.912   9.171   7.319
 5381POPC   C1B70099  43.756   8.542   6.088
 5381POPC   C2B70100  43.782   8.617   6.542
 5381POPC   C3B70101  43.885   8.845   6.907
 5381POPC   C4B70102  43.556   8.822   7.216
 5382POPC   NC370103  30.386   6.854   5.182
 5382POPC   PO470104  30.634   6.254   5.280
 5382POPC   GL170105  30.745   6.549   5.628
 5382POPC   GL270106  30.543   6.859   5.673
 5382POPC   C1A70107  30.830   6.496   6.068
 5382POPC   D2A70108  30.619   6.505   6.475
 5382POPC   C3A70109  30.877   6.580   6.867
 5382POPC   C4A70110  30.782   6.582   7.313
 5382POPC   C1B70111  30.559   6.954   6.136
 5382POPC   C2B70112  30.671   7.018   6.574
 5382POPC   C3B70113  30.548   6.950   6.988
 5382POPC   C4B70114  30.607   7.138   7.382
 5383POPC   NC370115  36.901  11.662   5.375
 5383POPC   PO470116  37.329  12.287   5.443
 5383POPC   GL170117  37.157  11.936   5.747
 5383POPC   GL270118  36.756  11.884   5.795
 5383POPC   C1A70119  37.050  11.981   6.209
 5383POPC   D2A70120  36.995  12.290   6.545
 5383POPC   C3A70121  37.241  12.251   6.927
 5383POPC   C4A70122  37.094  11.907   7.156
 5383POPC   C1B70123  36.524  11.899   6.181
 5383POPC   C2B70124  36.684  11.866   6.607
 5383POPC   C3B70125  36.552  11.847   7.024
 5383POPC   C4B70126  36.439  11.678   7.398
 5384POPC   NC370127   5.236   8.402   5.464
 5384POPC   PO470128   4.676   7.986   5.319
 5384POPC   GL170129   4.893   8.099   5.704
 5384POPC   GL270130   5.214   8.087   5.867
 5384POPC   C1A70131   4.779   8.122   6.152
 5384POPC   D2A70132   5.057   8.059   6.523
 5384POPC   C3A70133   4.961   8.228   6.937
 5384POPC   C4A70134   5.150   7.992   7.260
 5384POPC   C1B70135   5.215   8.432   6.187
 5384POPC   C2B70136   5.216   8.567   6.624
 5384POPC   C3B70137   5.395   8.547   7.045
 5384POPC   C4B70138   5.548   8.635   7.490
 5385POPC   NC370139   9.438  14.938   5.060
 5385POPC   PO470140   9.065  15.468   5.439
 5385POPC   GL170141   8.888  15.275   5.766
 5385POPC   GL270142   8.664  15.561   5.828
 5385POPC   C1A70143   9.050  15.045   6.129
 5385POPC   D2A70144   8.907  14.927   6.507
 5385POPC   C3A70145   9.067  15.081   6.851
 5385POPC   C4A70146   8.826  15.123   7.203
 5385POPC   C1B70147   8.964  15.565   6.182
 5385POPC   C2B70148   9.260  15.432   6.479
 5385POPC   C3B70149   9.206  15.565   6.884
 5385POPC   C4B70150   9.285  15.348   7.254
 5386POPC   NC370151  34.664  20.339   5.417
 5386POPC   PO470152  34.872  19.707   5.537
 5386POPC   GL170153  34.849  19.906   5.929
 5386POPC   GL270154  34.504  19.977   5.947
 5386POPC   C1A70155  34.761  19.913   6.376
 5386POPC   D2A70156  34.854  19.670   6.730
 5386POPC   C3A70157  34.727  19.922   7.083
 5386POPC   C4A70158  34.404  20.074   7.310
 5386POPC   C1B70159  34.342  19.644   6.223
 5386POPC   C2B70160  34.237  19.531   6.647
 5386POPC   C3B70161  34.302  19.623   7.071
 5386POPC   C4B70162  34.096  19.676   7.466
 5387POPC   NC370163  27.999  18.343   5.604
 5387POPC   PO470164  28.539  17.961   5.397
 5387POPC   GL170165  28.360  18.042   5.823
 5387POPC   GL270166  28.021  17.875   5.829
 5387POPC   C1A70167  28.372  18.311   6.212
 5387POPC   D2A70168  28.468  18.551   6.599
 5387POPC   C3A70169  28.263  18.398   6.942
 5387POPC   C4A70170  28.171  18.531   7.342
 5387POPC   C1B70171  28.193  17.827   6.262
 5387POPC   C2B70172  28.258  17.892   6.702
 5387POPC   C3B70173  28.118  17.927   7.115
 5387POPC   C4B70174  27.857  18.065   7.443
 5388POPC   NC370175  36.161  22.954   5.602
 5388POPC   PO470176  36.107  22.328   5.245
 5388POPC   GL170177  36.243  22.490   5.737
 5388POPC   GL270178  36.565  22.636   5.787
 5388POPC   C1A70179  36.101  22.628   6.173
 5388POPC   D2A70180  36.231  22.514   6.584
 5388POPC   C3A70181  36.154  22.738   6.936
 5388POPC   C4A70182  35.983  22.841   7.313
 5388POPC   C1B70183  36.508  22.939   6.185
 5388POPC   C2B70184  36.193  23.077   6.524
 5388POPC   C3B70185  36.287  23.242   6.967
 5388POPC   C4B70186  36.273  23.247   7.439
 5389POPC   NC370187   9.191  19.045   5.398
 5389POPC   PO470188   8.551  18.741   5.515
 5389POPC   GL170189   8.833  18.909   5.856
 5389POPC   GL270190   9.043  19.214   5.853
 5389POPC   C1A70191   8.772  18.970   6.284
 5389POPC   D2A70192   8.486  18.847   6.603
 5389POPC   C3A70193   8.723  18.806   6.958
 5389POPC   C4A70194   8.907  18.958   7.301
 5389POPC   C1B70195   8.902  19.449   6.195
 5389POPC   C2B70196   8.976  19.526   6.611
 5389POPC   C3B70197   8.828  19.348   6.991
 5389POPC   C4B70198   8.790  19.454   7.446
 5390POPC   NC370199  41.461  43.869   5.380
 5390POPC   PO470200  40.754  43.902   5.463
 5390POPC   GL170201  40.772  43.854   5.887
 5390POPC   GL270202  40.974  44.148   6.011
 5390POPC   C1A70203  40.642  43.850   6.313
 5390POPC   D2A70204  40.842  44.084   6.649
 5390POPC   C3A70205  40.729  43.959   7.050
 5390POPC   C4A70206  40.609  44.062   7.447
 5390POPC   C1B70207  41.193  43.794   6.193
 5390POPC   C2B70208  41.301  43.667   6.604
 5390POPC   C3B70209  41.163  43.678   7.027
 5390POPC   C4B70210  40.937  43.656   7.422
 5391POPC   NC370211   7.653  41.663   5.352
 5391POPC   PO470212   7.018  41.536   5.537
 5391POPC   GL170213   7.336  41.568   5.870
 5391POPC   GL270214   7.705  41.680   5.847
 5391POPC   C1A70215   7.204  41.642   6.292
 5391POPC   D2A70216   7.059  41.428   6.649
 5391POPC   C3A70217   7.095  41.696   6.995
 5391POPC   C4A70218   7.308  41.699   7.375
 5391POPC   C1B70219   7.727  41.477   6.231
 5391POPC   C2B70220   7.606  41.333   6.637
 5391POPC   C3B70221   7.644  41.554   7.018
 5391POPC   C4B70222   7.776  41.450   7.438
 5392POPC   NC370223  29.181  37.096   5.195
 5392POPC   PO470224  29.413  36.467   5.181
 5392POPC   GL170225  29.368  36.692   5.599
 5392POPC   GL270226  29.343  36.411   5.777
 5392POPC   C1A70227  29.128  36.747   6.069
 5392POPC   D2A70228  29.035  36.555   6.524
 5392POPC   C3A70229  29.141  36.780   6.949
 5392POPC   C4A70230  29.260  37.172   7.237
 5392POPC   C1B70231  29.446  36.371   6.208
 5392POPC   C2B70232  29.534  36.586   6.613
 5392POPC   C3B70233  29.475  36.363   7.004
 5392POPC   C4B70234  29.246  36.467   7.361
 5393POPC   NC370235  30.821   7.897   5.416
 5393POPC   PO470236  30.550   7.258   5.293
 5393POPC   GL170237  30.625   7.373   5.757
 5393POPC   GL270238  30.773   7.692   5.886
 5393POPC   C1A70239  30.382   7.456   6.166
 5393POPC   D2A70240  30.309   7.668   6.554
 5393POPC   C3A70241  30.582   7.475   6.858
 5393POPC   C4A70242  30.726   7.621   7.243
 5393POPC   C1B70243  30.879   7.380   6.214
 5393POPC   C2B70244  31.064   7.354   6.623
 5393POPC   C3B70245  31.009   7.235   7.074
 5393POPC   C4B70246  31.069   7.386   7.528
 5394POPC   NC370247   0.247  40.576   5.343
 5394POPC   PO470248   0.785  40.893   5.547
 5394POPC   GL170249   0.505  40.861   5.901
 5394POPC   GL270250   0.290  41.139   6.025
 5394POPC   C1A70251   0.511  40.791   6.357
 5394POPC   D2A70252   0.659  40.748   6.791
 5394POPC   C3A70253   0.398  40.557   7.148
 5394POPC   C4A70254   0.527  40.510   7.597
 5394POPC   C1B70255   0.166  41.170   6.478
 5394POPC   C2B70256   0.245  41.010   6.907
 5394POPC   C3B70257   0.565  41.030   7.241
 5394POPC   C4B70258   0.586  41.234   7.648
 5395POPC   NC370259  37.607  11.915   5.389
 5395POPC   PO470260  38.022  11.325   5.562
 5395POPC   GL170261  37.940  11.801   5.819
 5395POPC   GL270262  37.844  12.184   5.768
 5395POPC   C1A70263  37.567  11.973   6.134
 5395POPC   D2A70264  37.384  11.855   6.600
 5395POPC   C3A70265  37.605  11.884   7.055
 5395POPC   C4A70266  37.631  12.195   7.404
 5395POPC   C1B70267  38.052  12.176   6.194
 5395POPC   C2B70268  38.119  12.383   6.615
 5395POPC   C3B70269  37.974  12.282   7.028
 5395POPC   C4B70270  38.127  12.050   7.383
 5396POPC   NC370271  35.014  14.628   4.998
 5396POPC   PO470272  34.568  14.358   5.495
 5396POPC   GL170273  34.662  14.395   5.853
 5396POPC   GL270274  34.961  14.217   5.776
 5396POPC   C1A70275  34.561  14.297   6.254
 5396POPC   D2A70276  34.398  14.450   6.628
 5396POPC   C3A70277  34.652  14.334   6.948
 5396POPC   C4A70278  34.468  14.438   7.304
 5396POPC   C1B70279  35.041  14.536   6.144
 5396POPC   C2B70280  34.916  14.544   6.550
 5396POPC   C3B70281  34.971  14.753   6.923
 5396POPC   C4B70282  34.935  14.589   7.310
 5397POPC   NC370283  21.826   4.829   5.083
 5397POPC   PO470284  21.277   4.939   5.503
 5397POPC   GL170285  21.238   4.948   5.921
 5397POPC   GL270286  20.896   4.910   6.007
 5397POPC   C1A70287  21.288   5.175   6.286
 5397POPC   D2A70288  21.523   5.002   6.600
 5397POPC   C3A70289  21.788   5.188   6.889
 5397POPC   C4A70290  21.855   4.827   7.128
 5397POPC   C1B70291  21.098   4.708   6.373
 5397POPC   C2B70292  21.140   4.736   6.807
 5397POPC   C3B70293  21.317   5.027   7.080
 5397POPC   C4B70294  21.465   5.415   7.231
 5398POPC   NC370295  29.399   1.103   5.305
 5398POPC   PO470296  29.037   1.580   5.572
 5398POPC   GL170297  29.282   1.314   5.799
 5398POPC   GL270298  28.999   1.261   6.000
 5398POPC   C1A70299  29.443   1.424   6.194
 5398POPC   D2A70300  29.190   1.335   6.534
 5398POPC   C3A70301  29.414   1.447   6.884
 5398POPC   C4A70302  29.425   1.284   7.287
 5398POPC   C1B70303  28.674   1.456   6.272
 5398POPC   C2B70304  28.769   1.575   6.686
 5398POPC   C3B70305  28.932   1.308   7.006
 5398POPC   C4B70306  28.744   1.183   7.360
 5399POPC   NC370307  12.346  16.102   5.557
 5399POPC   PO470308  12.991  15.787   5.502
 5399POPC   GL170309  12.774  15.999   5.838
 5399POPC   GL270310  12.443  15.818   5.958
 5399POPC   C1A70311  12.708  16.155   6.247
 5399POPC   D2A70312  12.545  15.979   6.632
 5399POPC   C3A70313  12.706  16.082   7.038
 5399POPC   C4A70314  13.106  15.908   7.168
 5399POPC   C1B70315  12.565  15.551   6.274
 5399POPC   C2B70316  12.813  15.495   6.624
 5399POPC   C3B70317  12.720  15.561   7.047
 5399POPC   C4B70318  12.634  15.702   7.463
 5400POPC   NC370319   3.749  32.608   5.411
 5400POPC   PO470320   3.336  33.080   5.478
 5400POPC   GL170321   3.683  33.040   5.748
 5400POPC   GL270322   3.772  33.404   5.710
 5400POPC   C1A70323   3.618  32.897   6.190
 5400POPC   D2A70324   3.289  32.896   6.508
 5400POPC   C3A70325   3.374  32.782   6.938
 5400POPC   C4A70326   3.461  32.911   7.360
 5400POPC   C1B70327   3.508  33.387   6.077
 5400POPC   C2B70328   3.579  33.331   6.515
 5400POPC   C3B70329   3.436  33.286   6.940
 5400POPC   C4B70330   3.415  33.493   7.318
 5401POPC   NC370331   4.463  37.079   5.497
 5401POPC   PO470332   3.934  36.732   5.305
 5401POPC   GL170333   4.115  36.776   5.760
 5401POPC   GL270334   4.150  37.131   5.886
 5401POPC   C1A70335   4.339  36.788   6.187
 5401POPC   D2A70336   4.341  36.546   6.585
 5401POPC   C3A70337   4.254  36.721   6.995
 5401POPC   C4A70338   4.252  37.046   7.311
 5401POPC   C1B70339   3.980  37.185   6.274
 5401POPC   C2B70340   4.203  37.052   6.606
 5401POPC   C3B70341   4.545  37.141   6.862
 5401POPC   C4B70342   4.575  37.454   7.192
 5402POPC   NC370343  27.528  21.479   5.425
 5402POPC   PO470344  28.050  21.648   5.700
 5402POPC   GL170345  27.766  21.301   5.887
 5402POPC   GL270346  27.393  21.227   5.843
 5402POPC   C1A70347  27.788  21.184   6.333
 5402POPC   D2A70348  27.974  21.054   6.736
 5402POPC   C3A70349  27.775  21.256   7.108
 5402POPC   C4A70350  27.602  21.576   7.412
 5402POPC   C1B70351  27.300  21.051   6.256
 5402POPC   C2B70352  27.321  21.192   6.686
 5402POPC   C3B70353  27.254  21.270   7.136
 5402POPC   C4B70354  27.450  21.087   7.485
 5403POPC   NC370355  30.235  18.731   5.300
 5403POPC   PO470356  29.839  19.248   5.327
 5403POPC   GL170357  29.911  18.923   5.705
 5403POPC   GL270358  30.251  18.734   5.805
 5403POPC   C1A70359  29.952  18.899   6.196
 5403POPC   D2A70360  29.864  18.896   6.664
 5403POPC   C3A70361  29.676  19.252   6.919
 5403POPC   C4A70362  29.806  19.421   7.341
 5403POPC   C1B70363  30.246  18.469   6.176
 5403POPC   C2B70364  30.432  18.422   6.587
 5403POPC   C3B70365  30.274  18.557   6.997
 5403POPC   C4B70366  30.033  18.927   7.147
 5404POPC   NC370367  16.586   2.883   5.381
 5404POPC   PO470368  16.945   2.336   5.261
 5404POPC   GL170369  16.864   2.567   5.694
 5404POPC   GL270370  16.483   2.616   5.815
 5404POPC   C1A70371  16.958   2.692   6.161
 5404POPC   D2A70372  17.130   2.716   6.622
 5404POPC   C3A70373  17.038   3.077   6.905
 5404POPC   C4A70374  16.837   3.008   7.300
 5404POPC   C1B70375  16.468   2.875   6.171
 5404POPC   C2B70376  16.682   2.987   6.531
 5404POPC   C3B70377  16.668   2.722   6.889
 5404POPC   C4B70378  16.415   2.747   7.252
 5405POPC   NC370379  27.639  42.626   5.351
 5405POPC   PO470380  27.689  41.970   5.423
 5405POPC   GL170381  27.580  42.234   5.761
 5405POPC   GL270382  27.757  42.528   5.858
 5405POPC   C1A70383  27.704  42.128   6.186
 5405POPC   D2A70384  27.833  42.257   6.584
 5405POPC   C3A70385  27.628  42.143   6.944
 5405POPC   C4A70386  27.833  42.054   7.326
 5405POPC   C1B70387  27.581  42.634   6.303
 5405POPC   C2B70388  27.616  42.656   6.775
 5405POPC   C3B70389  27.569  42.568   7.226
 5405POPC   C4B70390  27.488  42.443   7.644
 5406POPC   NC370391  40.111  21.314   5.369
 5406POPC   PO470392  39.646  21.748   5.673
 5406POPC   GL170393  40.000  21.491   5.841
 5406POPC   GL270394  40.375  21.576   5.721
 5406POPC   C1A70395  39.999  21.161   6.182
 5406POPC   D2A70396  40.233  21.076   6.560
 5406POPC   C3A70397  40.027  21.181   6.951
 5406POPC   C4A70398  40.194  21.102   7.343
 5406POPC   C1B70399  40.396  21.456   6.154
 5406POPC   C2B70400  40.402  21.586   6.569
 5406POPC   C3B70401  40.476  21.450   6.984
 5406POPC   C4B70402  40.230  21.624   7.305
 5407POPC   NC370403   8.947  24.937   5.485
 5407POPC   PO470404   9.217  24.424   5.292
 5407POPC   GL170405   9.311  24.320   5.743
 5407POPC   GL270406   9.233  24.650   5.877
 5407POPC   C1A70407   9.424  24.303   6.219
 5407POPC   D2A70408   9.477  24.520   6.644
 5407POPC   C3A70409   9.200  24.436   6.997
 5407POPC   C4A70410   8.946  24.315   7.378
 5407POPC   C1B70411   9.100  24.712   6.330
 5407POPC   C2B70412   8.917  24.789   6.757
 5407POPC   C3B70413   8.895  24.806   7.235
 5407POPC   C4B70414   8.879  24.980   7.668
 5408POPC   NC370415   1.198  20.982   5.379
 5408POPC   PO470416   1.458  21.627   5.358
 5408POPC   GL170417   1.239  21.380   5.710
 5408POPC   GL270418   1.401  21.072   5.818
 5408POPC   C1A70419   1.081  21.339   6.151
 5408POPC   D2A70420   1.183  21.118   6.535
 5408POPC   C3A70421   1.056  21.360   6.912
 5408POPC   C4A70422   1.112  21.633   7.253
 5408POPC   C1B70423   1.568  21.180   6.208
 5408POPC   C2B70424   1.669  21.278   6.627
 5408POPC   C3B70425   1.494  21.108   7.009
 5408POPC   C4B70426   1.145  21.091   7.335
 5409POPC   NC370427  19.210   5.479   5.531
 5409POPC   PO470428  18.984   4.904   5.357
 5409POPC   GL170429  18.939   5.065   5.787
 5409POPC   GL270430  18.853   5.409   5.880
 5409POPC   C1A70431  18.868   4.949   6.216
 5409POPC   D2A70432  19.021   5.118   6.605
 5409POPC   C3A70433  18.876   4.845   6.943
 5409POPC   C4A70434  18.941   4.993   7.341
 5409POPC   C1B70435  19.157   5.587   6.190
 5409POPC   C2B70436  19.309   5.582   6.614
 5409POPC   C3B70437  19.138   5.433   7.020
 5409POPC   C4B70438  18.858   5.487   7.356
 5410POPC   NC370439  24.503  16.842   5.507
 5410POPC   PO470440  23.849  16.626   5.320
 5410POPC   GL170441  24.113  16.543   5.726
 5410POPC   GL270442  24.133  16.899   5.853
 5410POPC   C1A70443  24.404  16.479   6.104
 5410POPC   D2A70444  24.701  16.447   6.424
 5410POPC   C3A70445  24.596  16.491   6.870
 5410POPC   C4A70446  24.847  16.645   7.193
 5410POPC   C1B70447  24.449  16.979   6.152
 5410POPC   C2B70448  24.522  16.895   6.557
 5410POPC   C3B70449  24.804  17.012   6.838
 5410POPC   C4B70450  24.563  17.061   7.200
 5411POPC   NC370451  44.263  34.998   5.468
 5411POPC   PO470452  44.468  34.491   5.472
 5411POPC   GL170453  44.665  34.579   5.836
 5411POPC   GL270454  44.501  34.304   5.983
 5411POPC   C1A70455  44.611  34.737   6.268
 5411POPC   D2A70456  44.653  34.565   6.677
 5411POPC   C3A70457  44.579  34.803   7.079
 5411POPC   C4A70458  44.466  35.068   7.460
 5411POPC   C1B70459  44.861  34.269   6.259
 5411POPC   C2B70460  44.980  34.160   6.692
 5411POPC   C3B70461  44.790  34.311   7.095
 5411POPC   C4B70462  44.855  34.564   7.470
 5412POPC   NC370463  12.993   2.852   5.314
 5412POPC   PO470464  12.535   3.288   5.227
 5412POPC   GL170465  12.820   3.175   5.659
 5412POPC   GL270466  13.204   3.147   5.664
 5412POPC   C1A70467  12.755   2.889   6.039
 5412POPC   D2A70468  12.462   2.685   6.357
 5412POPC   C3A70469  12.607   2.640   6.784
 5412POPC   C4A70470  12.639   2.805   7.194
 5412POPC   C1B70471  13.186   3.147   6.110
 5412POPC   C2B70472  13.020   2.916   6.465
 5412POPC   C3B70473  13.014   2.956   6.883
 5412POPC   C4B70474  13.145   2.832   7.273
 5413POPC   NC370475  15.473  10.255   5.327
 5413POPC   PO470476  15.013  10.700   5.225
 5413POPC   GL170477  14.969  10.609   5.689
 5413POPC   GL270478  15.258  10.381   5.796
 5413POPC   C1A70479  15.036  10.704   6.147
 5413POPC   D2A70480  15.298  10.597   6.528
 5413POPC   C3A70481  15.180  10.685   6.952
 5413POPC   C4A70482  15.253  10.546   7.370
 5413POPC   C1B70483  15.347  10.181   6.213
 5413POPC   C2B70484  15.602  10.184   6.597
 5413POPC   C3B70485  15.432  10.181   7.027
 5413POPC   C4B70486  15.575  10.152   7.450
 5414POPC   NC370487   7.046   5.992   5.557
 5414POPC   PO470488   7.654   5.585   5.599
 5414POPC   GL170489   7.417   5.817   5.917
 5414POPC   GL270490   7.492   6.191   5.964
 5414POPC   C1A70491   7.464   5.882   6.368
 5414POPC   D2A70492   7.747   6.026   6.658
 5414POPC   C3A70493   7.539   6.071   7.041
 5414POPC   C4A70494   7.651   6.003   7.430
 5414POPC   C1B70495   7.098   6.204   6.285
 5414POPC   C2B70496   6.967   6.074   6.691
 5414POPC   C3B70497   7.049   6.258   7.113
 5414POPC   C4B70498   7.145   6.025   7.497
 5415POPC   NC370499  30.421  38.309   5.316
 5415POPC   PO470500  30.891  38.590   5.320
 5415POPC   GL170501  30.608  38.580   5.716
 5415POPC   GL270502  30.492  38.243   5.836
 5415POPC   C1A70503  30.508  38.650   6.185
 5415POPC   D2A70504  30.325  38.629   6.635
 5415POPC   C3A70505  30.577  38.523   7.032
 5415POPC   C4A70506  30.481  38.529   7.490
 5415POPC   C1B70507  30.282  38.188   6.264
 5415POPC   C2B70508  30.292  38.114   6.727
 5415POPC   C3B70509  30.387  38.055   7.164
 5415POPC   C4B70510  30.797  38.133   7.342
 5416POPC   NC370511  26.304  28.523   5.427
 5416POPC   PO470512  25.752  28.099   5.186
 5416POPC   GL170513  25.991  28.158   5.608
 5416POPC   GL270514  25.916  27.942   5.870
 5416POPC   C1A70515  26.008  28.402   6.055
 5416POPC   D2A70516  26.235  28.398   6.456
 5416POPC   C3A70517  26.136  28.344   6.902
 5416POPC   C4A70518  26.053  28.620   7.228
 5416POPC   C1B70519  25.638  28.072   6.202
 5416POPC   C2B70520  25.766  28.112   6.598
 5416POPC   C3B70521  25.583  28.084   6.965
 5416POPC   C4B70522  25.763  28.214   7.294
 5417POPC   NC370523  10.285  20.439   5.478
 5417POPC   PO470524  10.594  20.963   5.244
 5417POPC   GL170525  10.708  20.743   5.656
 5417POPC   GL270526  10.705  20.369   5.741
 5417POPC   C1A70527  10.748  20.886   6.102
 5417POPC   D2A70528  10.563  20.747   6.525
 5417POPC   C3A70529  10.743  20.910   6.923
 5417POPC   C4A70530  10.475  20.729   7.209
 5417POPC   C1B70531  10.439  20.482   6.110
 5417POPC   C2B70532  10.183  20.315   6.450
 5417POPC   C3B70533  10.300  20.351   6.876
 5417POPC   C4B70534  10.128  20.361   7.272
 5418POPC   NC370535  14.029  15.268   5.653
 5418POPC   PO470536  13.489  15.160   5.242
 5418POPC   GL170537  13.492  15.240   5.696
 5418POPC   GL270538  13.393  15.587   5.755
 5418POPC   C1A70539  13.549  14.984   6.095
 5418POPC   D2A70540  13.879  14.808   6.372
 5418POPC   C3A70541  13.865  14.894   6.819
 5418POPC   C4A70542  13.549  15.018   7.101
 5418POPC   C1B70543  13.637  15.490   6.133
 5418POPC   C2B70544  13.623  15.274   6.529
 5418POPC   C3B70545  13.725  15.470   6.904
 5418POPC   C4B70546  13.849  15.401   7.295
 5419POPC   NC370547  44.306  44.939   5.143
 5419POPC   PO470548  44.672  44.444   5.502
 5419POPC   GL170549  44.869  44.590   5.883
 5419POPC   GL270550  44.943  44.918   5.863
 5419POPC   C1A70551  44.925  44.710   6.323
 5419POPC   D2A70552  44.575  44.690   6.608
 5419POPC   C3A70553  44.749  44.646   7.010
 5419POPC   C4A70554  44.589  44.514   7.363
 5419POPC   C1B70555  44.535  44.965   6.138
 5419POPC   C2B70556  44.257   0.136   6.467
 5419POPC   C3B70557  44.243   0.048   6.908
 5419POPC   C4B70558  44.544   0.064   7.236
 5420POPC   NC370559  10.817  27.738   5.581
 5420POPC   PO470560  11.440  27.943   5.407
 5420POPC   GL170561  11.408  27.529   5.661
 5420POPC   GL270562  11.155  27.548   5.919
 5420POPC   C1A70563  11.628  27.444   6.080
 5420POPC   D2A70564  11.353  27.474   6.442
 5420POPC   C3A70565  11.486  27.464   6.849
 5420POPC   C4A70566  11.223  27.370   7.181
 5420POPC   C1B70567  11.350  27.890   6.168
 5420POPC   C2B70568  11.209  27.956   6.605
 5420POPC   C3B70569  11.300  27.896   7.048
 5420POPC   C4B70570  11.631  27.771   7.346
 5421POPC   NC370571  18.686   4.627   5.559
 5421POPC   PO470572  18.181   4.158   5.419
 5421POPC   GL170573  18.258   4.352   5.778
 5421POPC   GL270574  18.183   4.693   5.736
 5421POPC   C1A70575  18.050   4.385   6.168
 5421POPC   D2A70576  18.083   4.271   6.583
 5421POPC   C3A70577  17.897   4.501   6.905
 5421POPC   C4A70578  18.169   4.228   7.127
 5421POPC   C1B70579  18.376   4.772   6.145
 5421POPC   C2B70580  18.183   4.764   6.533
 5421POPC   C3B70581  18.384   4.665   6.909
 5421POPC   C4B70582  18.287   4.718   7.307
 5422W        W70583  35.181   5.367  14.494
 5423W        W70584  12.370   1.811   2.700
 5424W        W70585   1.726  13.204   4.073
 5425W        W70586  29.589   2.844   3.430
 5426W        W70587   2.563   6.423   2.888
 5427W        W70588  28.471  42.300  13.452
 5428W        W70589  18.148  28.511   0.397
 5429W        W70590  24.256  17.661   3.306
 5430W        W70591  21.319  36.310   5.053
 5431W        W70592  41.030  10.096  12.319
 5432W        W70593   5.929  18.326   3.586
 5433W        W70594  37.037  11.932  14.489
 5434W        W70595  10.354  16.902   3.111
 5435W        W70596  13.431  20.025  13.103
 5436W        W70597  29.396  10.291  10.228
 5437W        W70598  36.378  15.191  13.027
 5438W        W70599  26.208  11.292  12.504
 5439W        W70600  10.408  17.666   4.925
 5440W        W70601   0.261  16.358   0.883
 5441W        W70602  27.447  19.593  13.734
 5442W        W70603  30.573  15.782  14.424
 5443W        W70604   1.172  38.371   1.967
 5444W        W70605  17.580   7.404  11.593
 5445W        W70606  33.851   9.452   1.381
 5446W        W70607  36.843  25.099  11.121
 5447W        W70608  21.175  37.317  12.670
 5448W        W70609  33.802  26.567  12.431
 5449W        W70610  32.953  19.733   0.759
 5450W        W70611  14.436  40.839   1.934
 5451W        W70612   8.796  39.479   4.658
 5452W        W70613  27.035  34.979  11.076
 5453W        W70614  39.437  11.625   2.587
 5454W        W70615  16.671  40.461   0.187
 5455W        W70616  44.849  13.435  14.880
 5456W        W70617  18.152  27.688   3.802
 5457W        W70618  34.287  23.736   0.680
 5458W        W70619   9.848  16.030  10.389
 5459W        W70620  24.178   0.559  13.565
 5460W        W70621  44.484  36.843   3.200
 5461W        W70622  16.768  40.548  12.469
 5462W        W70623  32.152  24.016   1.281
 5463W        W70624  28.165   9.045   5.338
 5464W        W70625  11.733   8.632   1.445
 5465W        W70626  19.102  24.766   4.239
 5466W        W70627  34.899  17.136  11.679
 5467W        W70628  19.991  21.410   3.651
 5468W        W70629  35.864   0.871  11.318
 5469W        W70630  11.711   7.732   5.033
 5470W        W70631  28.442  38.091   3.463
 5471W        W70632  28.640  15.613  14.355
 5472W        W70633  33.877  27.241   3.805
 5473W        W70634  29.586  14.391   2.625
 5474W        W70635  33.984  24.793  10.664
 5475W        W70636  38.355  27.034  12.794
 5476W        W70637   3.220  37.762  11.467
 5477W        W70638  32.996  21.516   1.208
 5478W        W70639   2.015  38.234  11.207
 5479W        W70640  39.626  34.521  11.659
 5480W        W70641  13.849  33.666   4.128
 5481W        W70642  28.161  40.543  14.891
 5482W        W70643  14.633  15.735  11.907
 5483W        W70644  25.910  15.094  14.994
 5484W        W70645   9.414   6.316  14.542
 5485W        W70646  10.311   9.166   4.608
 5486W        W70647  40.331  34.492  12.628
 5487W        W70648  34.280  34.076   0.450
 5488W        W70649  28.624  24.698  10.627
 5489W        W70650  18.424  18.368   1.697
 5490W        W70651  29.878  39.318   3.865
 5491W        W70652  17.283  22.101   1.442
 5492W        W70653  39.015   1.515   4.875
 5493W        W70654  21.786   6.012  14.222
 5494W        W70655  44.850   1.451   1.579
 5495W        W70656  17.447  28.447  12.793
 5496W        W70657  42.595  18.973  13.421
 5497W        W70658  26.116  36.017   3.162
 5498W        W70659   5.541  20.706  12.261
 5499W        W70660   8.812  36.485   1.737
 5500W        W70661  25.617   4.800   0.978
 5501W        W70662   4.869  11.722  10.599
 5502W        W70663   7.237  32.022   4.654
 5503W        W70664   0.377  20.205  10.897
 5504W        W70665  34.141   6.332  11.748
 5505W        W70666  25.557  42.388   2.217
 5506W        W70667  28.136   2.951   1.495
 5507W        W70668  30.299  21.421  10.313
 5508W        W70669  14.449  39.196   0.684
 5509W        W70670   3.542  22.585   4.676
 5510W        W70671  33.993  14.600  12.269
 5511W        W70672  18.452  17.000  13.092
 5512W        W70673  24.550   1.383  13.519
 5513W        W70674  42.141  25.219  14.657
 5514W        W70675   0.823  36.656   0.803
 5515W        W70676   0.410  25.814   2.352
 5516W        W70677  10.821   5.485  11.080
 5517W        W70678   5.496  19.513  13.352
 5518W        W70679  35.834  21.117   2.903
 5519W        W70680  28.349  32.878   2.053
 5520W        W70681  17.976  11.668   3.622
 5521W        W70682  19.647  21.681  10.443
 5522W        W70683  30.376  42.368  14.850
 5523W        W70684  32.604  37.089  13.307
 5524W        W70685   4.940  11.062   4.330
 5525W        W70686  21.099  38.036   3.606
 5526W        W70687  33.735  27.760   3.164
 5527W        W70688  20.571  28.634  11.771
 5528W        W70689   7.900   2.875   2.642
 5529W        W70690  14.087  42.523  11.137
 5530W        W70691  22.094   0.981   3.081
 5531W        W70692  25.598  30.414  11.517
 5532W        W70693  38.381  31.464  10.863
 5533W        W70694  20.542  15.787  12.658
 5534W        W70695   2.293  39.996  13.920
 5535W        W70696  39.529   1.185   4.075
 5536W        W70697  24.660  44.986  13.883
 5537W        W70698   0.061  28.657   4.181
 5538W        W70699  11.634  40.268  11.557
 5539W        W70700  17.330  32.143   0.797
 5540W        W70701  43.374  42.335  14.041
 5541W        W70702  33.027  32.280   2.344
 5542W        W70703   5.995   0.452   2.796
 5543W        W70704   3.883  37.919   1.676
 5544W        W70705  12.348  32.346   0.552
 5545W        W70706  10.333   2.166   5.002
 5546W        W70707   2.969   8.972  11.583
 5547W        W70708  36.434   8.289  12.441
 5548W        W70709   7.190  11.018  14.918
 5549W        W70710  14.734   4.780  13.339
 5550W        W70711  31.995  37.615  12.924
 5551W        W70712   1.936  15.816  11.456
 5552W        W70713  42.776  42.057   3.815
 5553W        W70714  26.466  17.792  12.900
 5554W        W70715   2.786  26.781   5.270
 5555W        W70716  42.205  28.202   0.748
 5556W        W70717   7.200  18.618   3.211
 5557W        W70718   0.015  10.452  12.970
 5558W        W70719  32.336  35.938  11.007
 5559W        W70720   2.137  42.454  14.799
 5560W        W70721  43.976  15.094  12.496
 5561W        W70722  18.694   8.546   5.034
 5562W        W70723   7.458   1.274   2.965
 5563W        W70724  15.323  17.081  14.893
 5564W        W70725  40.846   4.403   2.811
 5565W        W70726  40.382  23.704  12.973
 5566W        W70727   2.401  35.307   4.070
 5567W        W70728   4.180  41.507  12.438
 5568W        W70729  38.489   7.056  12.521
 5569W        W70730   4.900   3.793   3.702
 5570W        W70731   2.413  44.747   1.893
 5571W        W70732   4.235  30.663   0.992
 5572W        W70733  10.973  12.844   3.559
 5573W        W70734  10.423  35.859  11.707
 5574W        W70735  38.029  39.874   1.288
 5575W        W70736  10.189  33.060   3.665
 5576W        W70737  26.668  41.446   3.585
 5577W        W70738  11.105   6.756  10.483
 5578W        W70739  35.879  23.380  14.377
 5579W        W70740  19.743  24.286   2.843
 5580W        W70741  18.793  42.421   0.892
 5581W        W70742  13.294  14.690  13.920
 5582W        W70743   1.744  32.128   0.959
 5583W        W70744  40.080  24.110   2.023
 5584W        W70745  16.279   0.021   4.938
 5585W        W70746  12.925   2.523   4.609
 5586W        W70747  14.160  16.727   3.214
 5587W        W70748  23.270  15.276   3.159
 5588W        W70749   8.302  11.330   4.356
 5589W        W70750   7.939  15.623   2.075
 5590W        W70751  27.667  26.002  13.944
 5591W        W70752  17.283   0.953   2.309
 5592W        W70753  42.646  12.330  12.465
 5593W        W70754  10.252  43.420  10.161
 5594W        W70755  42.639  40.804  10.684
 5595W        W70756  40.860   7.008  12.460
 5596W        W70757  29.566  31.183  14.388
 5597W        W70758  22.250  10.932   0.808
 5598W        W70759  31.740  20.180   3.989
 5599W        W70760  27.126  31.706   2.222
 5600W        W70761  24.269   9.054  10.611
 5601W        W70762  14.500  14.410  11.115
 5602W        W70763  35.962   7.180  12.303
 5603W        W70764   7.385   5.882   4.123
 5604W        W70765  29.609   6.779  11.214
 5605W        W70766  21.033  17.945  13.035
 5606W        W70767  12.104  36.814  12.185
 5607W        W70768  36.873  40.255  14.329
 5608W        W70769   9.992   8.951  13.264
 5609W        W70770  13.751  13.790   1.341
 5610W        W70771  29.424   9.142  14.630
 5611W        W70772  27.360  40.965  11.188
 5612W        W70773  16.162  20.200  14.777
 5613W        W70774  27.975   8.084  13.824
 5614W        W70775   7.239  28.398   2.098
 5615W        W70776   2.168  33.467   3.213
 5616W        W70777  27.687   4.973   3.101
 5617W        W70778  29.584  28.645   4.659
 5618W        W70779  24.778  19.769   3.621
 5619W        W70780  15.065  23.573   1.405
 5620W        W70781   0.598  44.398  13.798
 5621W        W70782  19.565  28.589  13.859
 5622W        W70783   8.249  14.204   2.115
 5623W        W70784  44.842  41.420  13.753
 5624W        W70785  12.310  24.655   2.805
 5625W        W70786  34.192   5.763   4.532
 5626W        W70787  16.832  33.828  10.940
 5627W        W70788  25.117  38.597  13.985
 5628W        W70789   5.160  13.887   2.382
 5629W        W70790  25.052  35.889   3.728
 5630W        W70791   4.498  24.205   5.465
 5631W        W70792  23.285  20.449  11.516
 5632W        W70793  39.813  22.185  13.619
 5633W        W70794  43.609  20.982   3.295
 5634W        W70795  27.140  23.892  14.338
 5635W        W70796  41.821  36.416  13.650
 5636W        W70797  35.958  30.029   2.219
 5637W        W70798  13.502  22.538  12.447
 5638W        W70799  38.862  16.569  11.575
 5639W        W70800  35.140  44.371  10.763
 5640W        W70801   8.160   7.244   0.000
 5641W        W70802  36.477  37.452  12.960
 5642W        W70803  11.286  34.036  10.875
 5643W        W70804  10.806  35.645  10.996
 5644W        W70805  14.598  25.899  12.462
 5645W        W70806  40.974  16.409  12.030
 5646W        W70807  14.279  25.595   0.296
 5647W        W70808  24.405  28.559  14.429
 5648W        W70809  19.661  20.558  11.128
 5649W        W70810  13.112  11.167   1.217
 5650W        W70811  29.036   9.325  11.398
 5651W        W70812  33.946   8.264   3.830
 5652W        W70813  29.394   8.836  12.021
 5653W        W70814  31.324  17.633  11.686
 5654W        W70815  14.791  44.430  14.760
 5655W        W70816   8.201  19.470   5.290
 5656W        W70817  16.537  27.728  12.137
 5657W        W70818  31.827   9.929  14.817
 5658W        W70819  19.998  22.329  13.360
 5659W        W70820  13.778  42.434   3.807
 5660W        W70821  39.010   1.085   1.079
 5661W        W70822  44.259  23.161  11.497
 5662W        W70823   6.827  12.635   2.052
 5663W        W70824  43.990  21.108   4.300
 5664W        W70825  20.156  43.836  10.643
 5665W        W70826  38.462  28.715   4.145
 5666W        W70827  29.111  17.196  11.177
 5667W        W70828  27.154  14.627   2.750
 5668W        W70829  15.824  44.503   1.850
 5669W        W70830   9.323   1.733  12.056
 5670W        W70831  30.491  12.109   1.261
 5671W        W70832  35.369  16.580   0.738
 5672W        W70833   5.552  20.151   4.105
 5673W        W70834  35.932   0.337  14.181
 5674W        W70835  29.520  27.795   2.811
 5675W        W70836  33.993  23.017  11.114
 5676W        W70837  17.838   0.347  11.540
 5677W        W70838  39.341  41.288   0.776
 5678W        W70839  16.804   6.242  14.343
 5679W        W70840  41.378  20.025   0.322
 5680W        W70841  11.341  44.244  12.311
 5681W        W70842   3.997  31.687  14.426
 5682W        W70843  11.597  15.397   1.485
 5683W        W70844  34.006  33.017  14.453
 5684W        W70845  26.639  15.628  12.876
 5685W        W70846  22.047  28.146   2.654
 5686W        W70847   5.725   2.021   2.565
 5687W        W70848  29.920  42.741  13.028
 5688W        W70849   1.405   3.873  12.475
 5689W        W70850  13.808  30.744   4.085
 5690W        W70851   5.886  44.290   1.912
 5691W        W70852  34.899   3.205   2.189
 5692W        W70853  28.497  22.737  14.985
 5693W        W70854  21.060  43.994   4.153
 5694W        W70855  44.374  24.643  10.854
 5695W        W70856  23.981  44.612  10.233
 5696W        W70857  20.295  18.705   1.437
 5697W        W70858  42.254  38.921  14.777
 5698W        W70859  34.371  28.488  12.593
 5699W        W70860  44.140   0.393   1.816
 5700W        W70861   4.721  24.619  11.587
 5701W        W70862  29.383   5.949  11.210
 5702W        W70863   7.767  25.399  13.800
 5703W        W70864  31.370  20.283  11.513
 5704W        W70865   8.040   2.870  14.807
 5705W        W70866  28.863  44.972   1.259
 5706W        W70867  39.429  21.981   1.455
 5707W        W70868   9.557  39.929  12.576
 5708W        W70869   6.527  17.738   0.127
 5709W        W70870  16.129  39.369  13.032
 5710W        W70871  44.875   8.727   1.791
 5711W        W70872  16.125   9.640  11.205
 5712W        W70873  20.186  42.765  10.604
 5713W        W70874  23.067  44.770  11.065
 5714W        W70875  43.034  10.624   3.778
 5715W        W70876  23.109  16.784  14.437
 5716W        W70877  30.061  18.319  13.822
 5717W        W70878  42.925  19.497  10.728
 5718W        W70879   1.339   9.707   1.343
 5719W        W70880  14.353  16.833   3.712
 5720W        W70881  16.319  21.540  12.927
 5721W        W70882  20.815  42.852  11.865
 5722W        W70883  18.323  20.728   1.159
 5723W        W70884  44.009  38.807   1.772
 5724W        W70885  29.704  42.259  13.116
 5725W        W70886  44.512  11.151   3.198
 5726W        W70887  20.830  41.528   1.079
 5727W        W70888  30.331  30.592  11.549
 5728W        W70889  31.194   7.247   4.164
 5729W        W70890  27.978  28.705  12.043
 5730W        W70891  44.275  35.595   4.162
 5731W        W70892  26.267  23.451   5.386
 5732W        W70893  40.669   9.556   2.587
 5733W        W70894   1.791  34.032   4.488
 5734W        W70895  28.167  27.455  11.627
 5735W        W70896  34.278   2.302  14.392
 5736W        W70897  36.587  13.137  12.410
 5737W        W70898  32.434   9.606   2.092
 5738W        W70899  31.663  42.833   2.263
 5739W        W70900  32.368  10.738  10.697
 5740W        W70901  32.641  42.548  10.987
 5741W        W70902  21.038  18.023   1.467
 5742W        W70903  17.234  31.983  10.200
 5743W        W70904  37.027   6.723   3.390
 5744W        W70905   4.237  16.924   3.724
 5745W        W70906   4.414   6.616  12.664
 5746W        W70907  41.540  30.127   1.346
 5747W        W70908  42.893  30.133   0.831
 5748W        W70909  29.669  24.412  12.377
 5749W        W70910  41.463  22.289   1.669
 5750W        W70911  12.142  23.798  14.965
 5751W        W70912  39.590  15.467   1.458
 5752W        W70913  34.133  29.442   2.283
 5753W        W70914  37.788   4.434  12.418
 5754W        W70915  15.595   3.710  12.975
 5755W        W70916  17.629  38.429  11.121
 5756W        W70917  35.185  38.500   0.379
 5757W        W70918  12.178  23.289  13.245
 5758W        W70919  28.239  29.662  13.880
 5759W        W70920   0.766  17.367  11.092
 5760W        W70921  44.455  18.063  12.008
 5761W        W70922   0.229  13.046  11.932
 5762W        W70923  24.181  12.304   2.805
 5763W        W70924  40.001  11.079   0.413
 5764W        W70925   3.089  27.107   0.323
 5765W        W70926   4.088  11.844  12.372
 5766W        W70927  23.568  43.316   4.529
 5767W        W70928   1.400  32.547  11.488
 5768W        W70929   6.002  33.835  11.638
 5769W        W70930  22.167  34.561  12.946
 5770W        W70931  31.923  23.775  11.576
 5771W        W70932  26.638   8.673  11.936
 5772W        W70933  26.466  40.866  14.807
 5773W        W70934   7.141  28.452   4.251
 5774W        W70935   0.717  44.497  14.950
 5775W        W70936  34.115  42.795   0.929
 5776W        W70937   7.453   3.743   0.700
 5777W        W70938   6.305   0.723  13.833
 5778W        W70939  11.703  32.245   1.285
 5779W        W70940   7.403  29.110  11.602
 5780W        W70941  30.425  19.594  12.137
 5781W        W70942  38.947  13.090   3.371
 5782W        W70943  35.026  31.557  14.468
 5783W        W70944  20.761  35.622   4.350
 5784W        W70945  43.433  32.149   4.444
 5785W        W70946  11.209   8.669   3.666
 5786W        W70947  39.317  28.740  11.964
 5787W        W70948  42.111  27.259   3.296
 5788W        W70949  26.066   2.214   3.267
 5789W        W70950   6.588   7.392   4.806
 5790W        W70951  31.369  40.300  13.757
 5791W        W70952  44.258  44.898   0.530
 5792W        W70953  30.081  16.124   2.127
 5793W        W70954  44.443  15.624   2.511
 5794W        W70955  22.268  18.549  11.476
 5795W        W70956   5.341  17.537  12.577
 5796W        W70957  30.123  16.183   1.244
 5797W        W70958  32.041  30.708   2.263
 5798W        W70959  26.875  37.345  14.033
 5799W        W70960  23.280  36.779  12.171
 5800W        W70961   1.483  31.137   3.646
 5801W        W70962  20.325  13.836   3.262
 5802W        W70963  33.058   1.207  13.916
 5803W        W70964   0.802  32.866   0.315
 5804W        W70965  31.359  40.640   1.505
 5805W        W70966  11.210  41.798   1.784
 5806W        W70967   1.246   3.450   3.575
 5807W        W70968  27.931  40.394   4.626
 5808W        W70969  22.478   6.828   1.657
 5809W        W70970  41.387   5.585   3.564
 5810W        W70971  23.575  34.974  13.390
 5811W        W70972   2.474  29.960  11.314
 5812W        W70973   2.850   7.087  11.174
 5813W        W70974  15.616  33.970   4.331
 5814W        W70975  25.487  17.099   2.070
 5815W        W70976  13.560  20.573   2.939
 5816W        W70977   4.470  35.950   3.305
 5817W        W70978  25.156  13.138  14.780
 5818W        W70979   2.024   9.444   3.346
 5819W        W70980   0.736  24.532  10.507
 5820W        W70981  39.884   4.361  13.988
 5821W        W70982   6.284  23.280   1.568
 5822W        W70983  43.559  28.181  13.924
 5823W        W70984  22.755  13.096   4.576
 5824W        W70985  42.341  20.630  10.832
 5825W        W70986  43.082  28.030  14.009
 5826W        W70987  42.804   3.408   1.271
 5827W        W70988   3.789  19.718   2.930
 5828W        W70989  44.065  40.637   4.642
 5829W        W70990   0.263  24.056  13.421
 5830W        W70991  36.060  24.714   0.049
 5831W        W70992  22.028  42.794   4.045
 5832W        W70993   3.446  29.237  11.151
 5833W        W70994   6.381   3.773  13.600
 5834W        W70995  31.399  38.904   9.774
 5835W        W70996  27.540   6.675  12.910
 5836W        W70997  39.527  35.633  10.809
 5837W        W70998  12.711  22.692   4.465
 5838W        W70999  43.078  20.085   1.744
 5839W        W71000  36.645  43.531  12.568
 5840W        W71001   0.419  19.866   1.457
 5841W        W71002  39.838  20.771   4.573
 5842W        W71003  26.624  27.028   1.253
 5843W        W71004  27.422   4.857  12.058
 5844W        W71005   2.268  21.991   4.131
 5845W        W71006  27.024  21.942  13.880
 5846W        W71007  41.032  21.708  14.385
 5847W        W71008   0.321  30.684  13.049
 5848W        W71009  23.069   8.832   4.196
 5849W        W71010   3.426  29.156  14.852
 5850W        W71011  31.378  38.591   4.989
 5851W        W71012  31.578  18.339  12.829
 5852W        W71013  11.283  38.296   3.547
 5853W        W71014  14.559  39.034   3.976
 5854W        W71015  37.258  42.228   0.740
 5855W        W71016  25.304   1.408  11.536
 5856W        W71017  11.203   4.704  14.572
 5857W        W71018  41.853  20.730  12.078
 5858W        W71019  11.212   3.948   4.342
 5859W        W71020  29.396  32.098   1.905
 5860W        W71021  15.612  24.352  13.549
 5861W        W71022  20.535   3.502  13.927
 5862W        W71023  24.739  41.991   2.339
 5863W        W71024  17.388  21.837   3.428
 5864W        W71025  10.326  41.900  14.266
 5865W        W71026  14.031  33.802  12.942
 5866W        W71027   8.187  31.675   2.303
 5867W        W71028  12.616  21.969  14.909
 5868W        W71029  12.234  13.093   4.060
 5869W        W71030   2.404  26.347  10.491
 5870W        W71031  22.466  37.275  12.542
 5871W        W71032  23.853  12.599  12.976
 5872W        W71033  18.749   3.197   2.828
 5873W        W71034   9.022  14.930   3.663
 5874W        W71035   3.600  16.073  14.924
 5875W        W71036   8.419  42.885   3.087
 5876W        W71037  22.414   0.959  11.688
 5877W        W71038  24.603  32.916  12.066
 5878W        W71039  41.492  30.886   0.847
 5879W        W71040  21.591   3.306  12.153
 5880W        W71041  29.568  39.323  10.737
 5881W        W71042  19.104  28.125   2.770
 5882W        W71043  32.201  18.840   2.350
 5883W        W71044  14.707  38.903   2.124
 5884W        W71045  41.556  13.205  11.685
 5885W        W71046  14.337  18.219  11.678
 5886W        W71047  15.208  35.723  14.874
 5887W        W71048  35.597  15.053  11.598
 5888W        W71049  40.023  38.404  13.098
 5889W        W71050  25.105  11.437   1.938
 5890W        W71051  22.595  17.267  11.089
 5891W        W71052  34.564  27.517   2.618
 5892W        W71053  23.953  16.926   0.149
 5893W        W71054  17.401  16.109  12.750
 5894W        W71055   1.404  21.076  11.079
 5895W        W71056  13.579   1.421   2.556
 5896W        W71057  24.737  11.400  13.585
 5897W        W71058  36.349   4.904  13.857
 5898W        W71059  29.646  18.118   4.751
 5899W        W71060   2.884  13.893   0.372
 5900W        W71061   8.637  35.443   0.961
 5901W        W71062  32.638  33.267  14.480
 5902W        W71063   5.391  37.429  13.789
 5903W        W71064  22.539  12.348  14.421
 5904W        W71065  22.496  23.545   3.528
 5905W        W71066  12.667  28.521  14.594
 5906W        W71067  23.548  26.738  12.035
 5907W        W71068  44.828  14.669   3.082
 5908W        W71069  11.652  10.467   3.662
 5909W        W71070  23.413  20.067   0.710
 5910W        W71071  43.821   2.645  12.023
 5911W        W71072  35.840  14.413  12.095
 5912W        W71073  28.217  41.599  13.964
 5913W        W71074   8.485   8.285   4.620
 5914W        W71075  29.615  22.715  12.912
 5915W        W71076   7.610  38.145  14.369
 5916W        W71077  14.746   8.643   0.365
 5917W        W71078  37.570  18.036   1.351
 5918W        W71079  19.360   9.307   0.985
 5919W        W71080  17.270   4.904   2.865
 5920W        W71081  38.288  18.940  11.161
 5921W        W71082  19.821  42.785   0.854
 5922W        W71083  34.701  27.278  10.812
 5923W        W71084  13.062   7.686  12.114
 5924W        W71085  22.689  18.156  14.949
 5925W        W71086  28.671  22.059   4.263
 5926W        W71087  13.183   1.779   0.564
 5927W        W71088  14.662  43.799   1.467
 5928W        W71089  34.318  13.224   3.154
 5929W        W71090  35.038  12.231   0.744
 5930W        W71091  21.590  34.398   3.277
 5931W        W71092   0.595  16.098   4.138
 5932W        W71093   5.183  37.016  13.541
 5933W        W71094  39.862  39.528   3.101
 5934W        W71095  36.253  10.287  11.778
 5935W        W71096   2.089  39.507  10.436
 5936W        W71097  14.205  25.975   4.846
 5937W        W71098  33.263  32.114   2.808
 5938W        W71099   8.273  41.058  13.582
 5939W        W71100  27.579  19.021   2.995
 5940W        W71101  35.362  16.893  11.638
 5941W        W71102   2.241   2.165  10.472
 5942W        W71103   4.787  38.957   4.992
 5943W        W71104  37.056  44.551  12.344
 5944W        W71105  23.861  16.436  12.425
 5945W        W71106  32.579  35.080  14.812
 5946W        W71107  19.098  29.677  11.534
 5947W        W71108  37.322  23.065  13.895
 5948W        W71109  41.227  42.930   2.710
 5949W        W71110  12.848   6.281   0.018
 5950W        W71111   5.713   4.956   9.981
 5951W        W71112  25.125  29.373   3.707
 5952W        W71113  28.485  25.080   3.563
 5953W        W71114  41.528   9.240   4.107
 5954W        W71115  42.754   3.316  12.504
 5955W        W71116   5.466  10.367   2.072
 5956W        W71117   1.159  37.229  12.064
 5957W        W71118  17.344   2.899   0.414
 5958W        W71119  37.905  35.817  11.549
 5959W        W71120   9.348   3.492  11.602
 5960W        W71121  30.100  23.066  12.619
 5961W        W71122  14.224  35.444  14.854
 5962W        W71123  36.328  13.996   4.376
 5963W        W71124  25.125  29.424   1.690
 5964W        W71125  43.434   3.832  11.845
 5965W        W71126  17.853  13.758   3.454
 5966W        W71127   2.368  18.221   3.444
 5967W        W71128  37.516  30.908   2.459
 5968W        W71129  19.229   1.489  14.999
 5969W        W71130  28.600  38.247   3.012
 5970W        W71131  15.374  37.623  13.495
 5971W        W71132  17.844  36.194  12.017
 5972W        W71133  15.794  36.976  12.355
 5973W        W71134  15.738  37.075   1.230
 5974W        W71135  32.026   7.731  11.482
 5975W        W71136   9.705  34.363  11.528
 5976W        W71137  41.879  34.790   2.823
 5977W        W71138   0.380  40.876   4.610
 5978W        W71139  21.958   7.861  14.107
 5979W        W71140   3.505  23.646  14.794
 5980W        W71141  38.579  36.264  14.766
 5981W        W71142  41.596  13.315  13.955
 5982W        W71143  27.998  42.963   4.533
 5983W        W71144  32.993  12.389  14.893
 5984W        W71145  40.006   2.387  12.165
 5985W        W71146  32.144  26.768   2.572
 5986W        W71147  18.273  33.533  12.920
 5987W        W71148  25.662  36.839   5.144
 5988W        W71149  40.440  44.372  12.166
 5989W        W71150  39.302  38.086   3.036
 5990W        W71151  28.478  41.985   0.542
 5991W        W71152  39.796  27.059  11.175
 5992W        W71153  30.925  17.268   3.163
 5993W        W71154   2.178   7.537   4.549
 5994W        W71155   2.301  26.252  13.115
 5995W        W71156  10.611  35.522  13.505
 5996W        W71157  18.569  27.263   2.590
 5997W        W71158  17.622  18.643  13.338
 5998W        W71159   4.659   3.187  12.517
 5999W        W71160  33.116  11.746   4.338
 6000W        W71161  43.411  19.942  11.189
 6001W        W71162  34.610  41.595  13.195
 6002W        W71163  15.772   1.445   4.284
 6003W        W71164  16.061  30.009  12.548
 6004W        W71165  34.973   4.069   2.276
 6005W        W71166  21.263  44.264  14.838
 6006W        W71167  26.346  17.612  14.002
 6007W        W71168   6.175  25.074   0.763
 6008W        W71169   3.809  30.491   4.131
 6009W        W71170  22.169   0.498  11.590
 6010W        W71171   1.100  19.550  11.616
 6011W        W71172   7.177  12.248  11.607
 6012W        W71173  43.904  34.442  10.550
 6013W        W71174  42.583  42.862  10.999
 6014W        W71175  31.524   9.317   2.318
 6015W        W71176  23.381  39.628  11.618
 6016W        W71177  14.661  29.443   0.933
 6017W        W71178  35.863   1.927  14.391
 6018W        W71179  11.084   4.354  12.293
 6019W        W71180  26.025   9.807   3.593
 6020W        W71181   5.458  29.720  14.390
 6021W        W71182  44.133  20.091   0.549
 6022W        W71183  37.469  12.920  12.408
 6023W        W71184  26.511  14.006  11.596
 6024W        W71185  11.980  23.174   1.106
 6025W        W71186  22.609  41.919  10.225
 6026W        W71187  23.088  24.489   4.077
 6027W        W71188  40.856  35.865   2.392
 6028W        W71189  27.082  31.473   1.686
 6029W        W71190  27.998   8.864  12.889
 6030W        W71191  13.321  37.838   4.158
 6031W        W71192   4.817  41.046  10.555
 6032W        W71193   9.937  32.980  12.650
 6033W        W71194  39.923  14.620  10.606
 6034W        W71195  30.100  21.736   1.310
 6035W        W71196  19.000  31.921   1.934
 6036W        W71197  26.066   6.461  13.987
 6037W        W71198   5.877  12.376   3.679
 6038W        W71199  37.660   8.762   1.382
 6039W        W71200  18.708   1.221   3.127
 6040W        W71201  15.823  23.580  11.061
 6041W        W71202  16.758   4.396  12.172
 6042W        W71203  40.463  22.679  14.802
 6043W        W71204  41.057  17.630  14.240
 6044W        W71205  19.419  42.364   2.570
 6045W        W71206  36.363   2.149   1.124
 6046W        W71207  11.914  22.025   3.724
 6047W        W71208  39.556  35.514  13.360
 6048W        W71209  43.247  23.762   1.786
 6049W        W71210  26.062   1.457   3.777
 6050W        W71211  27.778  33.070   3.804
 6051W        W71212  32.365  42.976   4.989
 6052W        W71213  31.405  28.193   4.375
 6053W        W71214  10.715   4.257  11.710
 6054W        W71215   9.870  12.896   0.799
 6055W        W71216   2.282   6.431  14.937
 6056W        W71217  23.472  19.938  13.518
 6057W        W71218  29.895  11.744  10.398
 6058W        W71219  28.579  44.435  14.950
 6059W        W71220  17.163  12.400  11.217
 6060W        W71221  21.968  43.856  13.969
 6061W        W71222   6.685  34.656   0.450
 6062W        W71223  44.983   5.468  12.521
 6063W        W71224  38.961  22.566  11.956
 6064W        W71225  26.532  24.964   2.703
 6065W        W71226  21.513  44.563  12.037
 6066W        W71227   3.512  25.052   1.835
 6067W        W71228  29.191  40.881   1.898
 6068W        W71229  28.014  31.896   3.193
 6069W        W71230  10.864   6.128  12.944
 6070W        W71231  35.447  36.461  10.393
 6071W        W71232  13.470  13.815   4.610
 6072W        W71233  34.450  31.385   1.297
 6073W        W71234  27.484  14.149  14.985
 6074W        W71235  40.918   0.816   4.154
 6075W        W71236  23.168  31.816   3.953
 6076W        W71237  30.967  38.664   9.891
 6077W        W71238  18.556  27.409  13.384
 6078W        W71239  30.878  37.945  11.599
 6079W        W71240  19.285  23.766   1.830
 6080W        W71241  12.698  33.668  13.959
 6081W        W71242  33.054  22.665  13.583
 6082W        W71243  17.658  40.182  14.114
 6083W        W71244   9.394  40.089   3.383
 6084W        W71245   0.883  33.655  13.355
 6085W        W71246   6.267  34.458  13.299
 6086W        W71247  31.946  26.694   1.582
 6087W        W71248  17.326  19.623  11.476
 6088W        W71249  43.422  13.872  13.550
 6089W        W71250  30.055  42.815  10.607
 6090W        W71251  41.715  14.673  11.643
 6091W        W71252   8.915  44.353  14.337
 6092W        W71253  40.510  39.305  12.936
 6093W        W71254  37.662  27.519   3.184
 6094W        W71255  13.996   6.357  12.892
 6095W        W71256   8.141  37.331   0.425
 6096W        W71257   5.110  44.434   4.432
 6097W        W71258   5.274  22.658   1.958
 6098W        W71259   6.398  13.221   2.147
 6099W        W71260   5.245  17.048  13.435
 6100W        W71261  17.129  25.062  14.473
 6101W        W71262  41.860  21.506   4.528
 6102W        W71263  10.287  32.330   5.032
 6103W        W71264  34.555  26.808  10.993
 6104W        W71265  27.508  33.594  14.901
 6105W        W71266  16.730   4.513   0.062
 6106W        W71267  17.209  13.531   2.870
 6107W        W71268  33.574   1.688  10.638
 6108W        W71269  28.086  10.137   0.859
 6109W        W71270   6.679  19.145   2.234
 6110W        W71271   8.439   3.198   3.348
 6111W        W71272   8.157  35.103  12.438
 6112W        W71273   5.405  17.499   3.004
 6113W        W71274  17.701  17.655   2.438
 6114W        W71275  28.923  12.343  11.159
 6115W        W71276  25.261  38.364  13.136
 6116W        W71277  29.106  43.477   1.256
 6117W        W71278  35.463  37.215   0.714
 6118W        W71279  42.116  44.831  14.230
 6119W        W71280  33.500  38.481   3.550
 6120W        W71281  25.517  42.041  13.617
 6121W        W71282  18.759  26.388  12.058
 6122W        W71283  13.359  42.413   1.592
 6123W        W71284  18.777   5.213   0.247
 6124W        W71285   0.186   3.831   2.130
 6125W        W71286   3.896  27.220   2.251
 6126W        W71287   2.965  20.706  13.511
 6127W        W71288  44.164  23.357  14.579
 6128W        W71289  15.220  37.553   4.528
 6129W        W71290  18.802   7.615   1.788
 6130W        W71291  41.272  24.481  12.181
 6131W        W71292  32.572   1.059  13.730
 6132W        W71293  26.435  22.231  10.285
 6133W        W71294  28.002  43.194   2.774
 6134W        W71295  10.747  24.142  10.695
 6135W        W71296  19.632  21.499   3.129
 6136W        W71297  35.597  26.738   4.035
 6137W        W71298  38.916  33.675  14.950
 6138W        W71299  37.531  17.157   5.087
 6139W        W71300  40.279  34.998  14.321
 6140W        W71301  20.728  41.121  12.568
 6141W        W71302   4.382   7.670   0.916
 6142W        W71303  21.636  40.410   4.541
 6143W        W71304  36.839  10.496  12.971
 6144W        W71305   4.545  18.731  13.187
 6145W        W71306  17.780   7.480   3.883
 6146W        W71307  41.896  33.536   4.155
 6147W        W71308  28.954  29.549   2.329
 6148W        W71309  27.688   8.180   2.318
 6149W        W71310  14.953  39.408  10.440
 6150W        W71311  33.965  27.009   2.810
 6151W        W71312  17.388  13.743  14.228
 6152W        W71313  27.197  15.831   3.682
 6153W        W71314  17.940  35.238   3.661
 6154W        W71315  22.758  16.112  13.494
 6155W        W71316  44.466  40.225  14.494
 6156W        W71317  18.152  21.260   2.340
 6157W        W71318  29.431  37.126  12.055
 6158W        W71319  37.539  44.967  14.428
 6159W        W71320  26.205   9.277  11.500
 6160W        W71321   7.388  28.450  13.072
 6161W        W71322  10.435  12.661  13.607
 6162W        W71323  22.606  17.760  12.339
 6163W        W71324  25.648   0.454  10.604
 6164W        W71325  44.005  38.517  14.837
 6165W        W71326  18.631   9.564   4.570
 6166W        W71327  22.286  10.243  12.051
 6167W        W71328  14.912   3.204   4.127
 6168W        W71329  18.035  20.789  13.806
 6169W        W71330  28.216  40.424   4.193
 6170W        W71331   5.312  28.087   2.231
 6171W        W71332  12.394  27.952  12.501
 6172W        W71333  11.706  21.034   2.136
 6173W        W71334  30.049   6.157   3.864
 6174W        W71335   3.280  40.539   3.394
 6175W        W71336   6.551  16.729   3.373
 6176W        W71337  41.238  43.986  14.125
 6177W        W71338  26.135  39.788   3.415
 6178W        W71339  22.386  20.966   2.357
 6179W        W71340   2.458  38.087   2.704
 6180W        W71341  12.961  43.221  11.202
 6181W        W71342  36.814  15.145  11.176
 6182W        W71343  17.795   5.206  12.173
 6183W        W71344  30.884   3.177  14.333
 6184W        W71345   4.157   4.418   2.642
 6185W        W71346  10.805  21.331  12.564
 6186W        W71347   1.028  42.853   3.314
 6187W        W71348  11.690  36.862  11.367
 6188W        W71349  40.603  36.553  13.819
 6189W        W71350  21.038  36.925   4.478
 6190W        W71351  29.161  11.902  12.022
 6191W        W71352  17.563  11.199  11.599
 6192W        W71353  20.968  13.483   3.673
 6193W        W71354  30.287  36.656   2.873
 6194W        W71355  12.206  28.493  14.322
 6195W        W71356  42.049  23.687   4.210
 6196W        W71357  13.626  13.209   0.349
 6197W        W71358  32.174  40.399  13.381
 6198W        W71359  23.744  26.865   0.821
 6199W        W71360   3.476  12.506  14.454
 6200W        W71361  33.995  18.522   3.622
 6201W        W71362  16.099   6.417  13.770
 6202W        W71363  34.631  41.406   1.660
 6203W        W71364   8.427  31.511  11.093
 6204W        W71365  11.290  37.086  13.618
 6205W        W71366  44.701   6.186   4.063
 6206W        W71367  35.624  20.615  14.322
 6207W        W71368  15.625  42.942  13.781
 6208W        W71369  36.520  40.951  14.811
 6209W        W71370  27.263  15.786   2.214
 6210W        W71371  20.274  42.974   2.815
 6211W        W71372  37.597  18.259   0.365
 6212W        W71373   3.187  29.547  10.711
 6213W        W71374   7.682  26.212  13.891
 6214W        W71375   4.835   0.927  14.768
 6215W        W71376   0.281   3.477  12.026
 6216W        W71377  10.630  41.981  10.431
 6217W        W71378  41.233  41.353  10.604
 6218W        W71379  38.304  24.195   1.928
 6219W        W71380  16.213  43.745   4.110
 6220W        W71381  24.294  42.572  12.528
 6221W        W71382  40.042  22.108  12.469
 6222W        W71383  36.888  12.226  12.613
 6223W        W71384  23.625  24.459   4.578
 6224W        W71385  43.537   7.841   2.659
 6225W        W71386  30.156  29.556   2.807
 6226W        W71387  30.458  36.029   1.690
 6227W        W71388  25.271  17.303  13.410
 6228W        W71389  31.566  24.925  13.640
 6229W        W71390   4.225  31.993  10.721
 6230W        W71391  43.120  14.113   0.951
 6231W        W71392  40.949  11.115   1.729
 6232W        W71393  18.701  20.479  11.248
 6233W        W71394  23.042  26.478   1.367
 6234W        W71395  41.855  12.097   4.921
 6235W        W71396  21.535  40.277  14.841
 6236W        W71397  44.237  24.526   4.609
 6237W        W71398   0.312   5.778   4.597
 6238W        W71399  12.998  13.436  13.669
 6239W        W71400  23.510  37.135   1.362
 6240W        W71401   2.627  40.434  14.692
 6241W        W71402  13.219  31.139  11.684
 6242W        W71403  44.242   2.744   3.855
 6243W        W71404  12.990  23.411  11.613
 6244W        W71405   7.258  25.474  12.132
 6245W        W71406  32.727  38.495  13.648
 6246W        W71407  39.993  12.605  11.172
 6247W        W71408   3.353  40.337   2.451
 6248W        W71409  29.625  14.023   5.056
 6249W        W71410  20.810   9.451   3.219
 6250W        W71411  35.489  22.207  11.194
 6251W        W71412  14.169  31.709  12.630
 6252W        W71413  16.876  30.636  10.646
 6253W        W71414  26.094  13.314   5.005
 6254W        W71415  22.440   0.002   3.228
 6255W        W71416  32.176  22.032  10.991
 6256W        W71417   7.383  30.340   1.362
 6257W        W71418  17.544   9.271  13.490
 6258W        W71419  10.740  43.887   1.426
 6259W        W71420  16.552  25.686   0.825
 6260W        W71421   8.195  15.061   1.486
 6261W        W71422  17.906  18.193  13.348
 6262W        W71423  27.484  28.019   0.555
 6263W        W71424  21.955  17.989   3.180
 6264W        W71425   9.680  29.505   4.901
 6265W        W71426  31.328  38.210  10.290
 6266W        W71427   0.388  31.506  12.427
 6267W        W71428   1.295   8.667  13.699
 6268W        W71429  33.703  38.400  11.658
 6269W        W71430  20.523  32.997   2.485
 6270W        W71431  21.854   8.811  11.641
 6271W        W71432  28.588  26.672  11.523
 6272W        W71433   5.716  29.423  14.856
 6273W        W71434  17.425  11.478   3.190
 6274W        W71435   5.166  41.503   4.040
 6275W        W71436  37.933  34.232  14.797
 6276W        W71437  22.694  11.245  10.789
 6277W        W71438  36.482   1.021   1.879
 6278W        W71439  21.642  43.697   2.151
 6279W        W71440  29.588  17.345   2.572
 6280W        W71441  16.078  33.964   4.606
 6281W        W71442   6.836   2.697   1.444
 6282W        W71443  38.735  37.513   0.916
 6283W        W71444   5.264  39.866   2.613
 6284W        W71445  22.560  20.813   4.096
 6285W        W71446  32.604  10.284  11.400
 6286W        W71447  26.535  42.734   3.890
 6287W        W71448  12.204   1.862  11.595
 6288W        W71449  30.020  36.507   4.178
 6289W        W71450   8.740  21.992  11.429
 6290W        W71451  39.370  36.351  12.945
 6291W        W71452  44.319   6.659   1.427
 6292W        W71453  11.011  17.744   2.241
 6293W        W71454  43.397  11.869   4.032
 6294W        W71455  28.867  13.425   0.008
 6295W        W71456  22.196  44.595  12.327
 6296W        W71457  26.705  24.452  12.105
 6297W        W71458  44.939  27.486   3.703
 6298W        W71459  30.676  36.065   4.114
 6299W        W71460   7.922  24.629  10.649
 6300W        W71461  10.775  41.829  12.481
 6301W        W71462  40.617   6.400  11.447
 6302W        W71463  34.131  38.531  13.874
 6303W        W71464  19.775  29.963  13.568
 6304W        W71465  35.809  38.563  14.388
 6305W        W71466  35.497  17.758  10.639
 6306W        W71467  39.530  21.662  12.125
 6307W        W71468  44.084  39.961  13.807
 6308W        W71469   4.764  21.134  12.491
 6309W        W71470  32.003   1.505  14.449
 6310W        W71471   3.509  26.415  12.924
 6311W        W71472  22.010   9.390   3.772
 6312W        W71473  31.983  16.562   3.265
 6313W        W71474  19.692  27.413  11.989
 6314W        W71475  26.737   0.483  14.517
 6315W        W71476   0.129  32.143  11.093
 6316W        W71477  41.325  38.014  12.123
 6317W        W71478  33.091  30.910   3.909
 6318W        W71479  17.473  32.593  14.143
 6319W        W71480  34.503  36.798   4.817
 6320W        W71481  14.319  24.590   1.151
 6321W        W71482  16.480  37.036   2.862
 6322W        W71483  13.617  10.387  14.491
 6323W        W71484  28.133   0.085   3.779
 6324W        W71485  10.460  29.144   4.824
 6325W        W71486  23.116  20.345  13.255
 6326W        W71487  41.761  15.807   2.642
 6327W        W71488  17.162  39.009  14.921
 6328W        W71489  15.830  42.454  12.557
 6329W        W71490  26.720   7.782   1.729
 6330W        W71491  22.563   3.089   1.153
 6331W        W71492   7.125  29.695   1.029
 6332W        W71493  44.928  34.976   1.398
 6333W        W71494  38.016  42.425   2.419
 6334W        W71495   0.533   5.486  14.937
 6335W        W71496  26.378  26.754   2.620
 6336W        W71497   1.206  41.582  13.660
 6337W        W71498  31.935   5.923   5.127
 6338W        W71499  33.342  24.760  11.634
 6339W        W71500   1.425  32.697   4.536
 6340W        W71501  14.050  35.576  13.324
 6341W        W71502  38.961  27.142   1.270
 6342W        W71503  17.148   0.422  10.236
 6343W        W71504   2.791  25.401   1.871
 6344W        W71505  36.527  17.810   3.264
 6345W        W71506  32.519   3.919  13.399
 6346W        W71507  24.223  11.243  14.472
 6347W        W71508  35.024   0.159  10.225
 6348W        W71509  19.945  35.555  11.351
 6349W        W71510   1.055  11.766   9.875
 6350W        W71511  33.880   6.298  10.820
 6351W        W71512  21.815  17.102   2.960
 6352W        W71513  14.556  36.909   0.981
 6353W        W71514  17.095   7.919   3.640
 6354W        W71515  13.138  16.789   3.004
 6355W        W71516  22.543   9.120   4.615
 6356W        W71517  42.276  20.195   3.739
 6357W        W71518   6.367  10.098  13.547
 6358W        W71519  42.227  30.136  14.413
 6359W        W71520  32.651  43.495  14.386
 6360W        W71521  14.673  32.115   0.885
 6361W        W71522  18.204  25.908  10.793
 6362W        W71523  25.732  30.481   2.709
 6363W        W71524   3.213  20.818   3.241
 6364W        W71525  13.350   8.655   2.160
 6365W        W71526  37.531  15.636   1.920
 6366W        W71527  34.011  17.353   0.045
 6367W        W71528  29.972  15.880   1.677
 6368W        W71529  38.320   7.577  12.501
 6369W        W71530  26.533   6.156   2.948
 6370W        W71531  26.762   4.193   1.827
 6371W        W71532  28.167  11.810  12.843
 6372W        W71533  29.701  40.745   1.097
 6373W        W71534  18.079  14.173   0.020
 6374W        W71535   1.165  41.539  13.121
 6375W        W71536  39.830  29.524   3.360
 6376W        W71537  44.354   2.036  12.516
 6377W        W71538  22.141  12.738  12.055
 6378W        W71539  25.095  37.389  10.267
 6379W        W71540  25.959  37.336   1.758
 6380W        W71541  19.066  15.071  10.228
 6381W        W71542  38.198  28.962  10.716
 6382W        W71543  44.332   1.646   1.699
 6383W        W71544  25.646  37.535  13.073
 6384W        W71545  19.982   2.815   3.126
 6385W        W71546  27.716  33.575   2.118
 6386W        W71547  19.144  30.187  10.508
 6387W        W71548  25.606  11.587  11.649
 6388W        W71549  37.888  39.298   3.495
 6389W        W71550  42.858  26.763  12.078
 6390W        W71551   1.163  16.194  11.530
 6391W        W71552  31.077   5.894   1.213
 6392W        W71553  42.469  29.724   1.913
 6393W        W71554   7.551   7.123   3.962
 6394W        W71555  15.779  25.605  11.587
 6395W        W71556   1.337  10.235  11.464
 6396W        W71557   0.178  28.413  11.427
 6397W        W71558   5.911  25.086  10.609
 6398W        W71559  15.532  41.986   0.500
 6399W        W71560  11.052  12.122  14.868
 6400W        W71561  29.363  29.694   1.413
 6401W        W71562   3.166   2.329  10.902
 6402W        W71563  26.468  34.116  13.284
 6403W        W71564  42.640  20.490  11.227
 6404W        W71565  26.636   4.663   4.982
 6405W        W71566  42.032  30.135   2.902
 6406W        W71567  25.167   4.566  11.186
 6407W        W71568  26.013   8.777  14.127
 6408W        W71569  23.648  29.147   3.442
 6409W        W71570  31.564  22.689  13.942
 6410W        W71571  16.661  23.042   3.894
 6411W        W71572  42.129  38.331   4.150
 6412W        W71573  38.418  27.965   2.133
 6413W        W71574  42.870  24.599  12.833
 6414W        W71575  26.045   2.710  13.180
 6415W        W71576  25.025  36.665  12.661
 6416W        W71577   6.241  42.828   0.850
 6417W        W71578   3.278  17.538  14.077
 6418W        W71579  31.206  16.714  10.615
 6419W        W71580  14.714  25.169  14.252
 6420W        W71581  31.149   2.231   4.480
 6421W        W71582   6.187  37.136   2.220
 6422W        W71583  25.578  32.276   2.759
 6423W        W71584   1.813  17.087   2.705
 6424W        W71585   4.700  26.642  14.756
 6425W        W71586  29.964  31.643  12.043
 6426W        W71587  40.820  42.452   4.129
 6427W        W71588  19.740  26.177  14.046
 6428W        W71589   3.891   5.111   3.820
 6429W        W71590  11.217  25.510  13.410
 6430W        W71591   2.655  16.117  13.026
 6431W        W71592  37.410   4.785  10.689
 6432W        W71593  38.759  23.563   4.622
 6433W        W71594  17.256  44.040  14.450
 6434W        W71595  37.926  32.305   0.347
 6435W        W71596  39.731   0.096  14.915
 6436W        W71597  44.484  20.237  10.871
 6437W        W71598  19.169  35.462   0.034
 6438W        W71599  27.693  39.505   3.699
 6439W        W71600  26.562  38.379  13.616
 6440W        W71601  13.080   5.137  12.386
 6441W        W71602  28.392  26.288  10.749
 6442W        W71603  23.540  18.660  13.419
 6443W        W71604  24.085  19.816  14.922
 6444W        W71605  25.608  10.649  12.126
 6445W        W71606   7.819  26.050   1.711
 6446W        W71607  12.657  41.938  14.693
 6447W        W71608  23.539   1.225  12.069
 6448W        W71609  41.930  21.738  11.126
 6449W        W71610  23.513  41.316  12.861
 6450W        W71611   5.799  43.867  13.610
 6451W        W71612   2.270   4.798   4.953
 6452W        W71613  43.961   2.007  10.744
 6453W        W71614  23.494  16.699   4.720
 6454W        W71615  41.533   9.291   3.059
 6455W        W71616   1.470   2.389  13.508
 6456W        W71617  20.877  32.529   1.800
 6457W        W71618  25.559  26.989   4.170
 6458W        W71619  30.917  41.493   4.049
 6459W        W71620  38.449  44.180   3.387
 6460W        W71621  44.993  38.565  11.875
 6461W        W71622   3.841  23.033  12.106
 6462W        W71623  20.776   8.497   2.327
 6463W        W71624  30.519  39.954  12.138
 6464W        W71625  24.673  27.476   3.133
 6465W        W71626  40.404   6.573  10.532
 6466W        W71627  19.980  23.418  10.136
 6467W        W71628  15.932  18.103   1.307
 6468W        W71629   0.911   3.845   3.658
 6469W        W71630  15.369  33.942   0.222
 6470W        W71631  19.570  38.811   3.158
 6471W        W71632  14.514  25.502   0.775
 6472W        W71633  24.351   9.786  12.111
 6473W        W71634  42.392  24.102   4.189
 6474W        W71635  11.205  21.184   0.732
 6475W        W71636  43.956  39.817   1.406
 6476W        W71637  18.554  32.666  11.161
 6477W        W71638  11.608  19.516   3.595
 6478W        W71639  34.859  36.953  11.491
 6479W        W71640   5.760  12.686  14.894
 6480W        W71641  39.914   2.699   1.395
 6481W        W71642  25.497  16.811   1.657
 6482W        W71643  33.391  43.232  11.935
 6483W        W71644  35.031   2.375   0.033
 6484W        W71645  15.647  25.913  11.164
 6485W        W71646   0.312  36.678   0.756
 6486W        W71647  36.564  19.525   1.672
 6487W        W71648  11.671  34.911   1.929
 6488W        W71649  34.987  34.668   0.916
 6489W        W71650  26.642  41.492   3.077
 6490W        W71651   7.109  16.164   2.227
 6491W        W71652  31.401  43.708   3.658
 6492W        W71653  36.397   2.724  10.711
 6493W        W71654  15.812  42.402  13.464
 6494W        W71655  36.661  38.844   3.248
 6495W        W71656  42.802  12.619  10.725
 6496W        W71657  28.209  44.809  10.607
 6497W        W71658  15.248  23.037  13.635
 6498W        W71659  35.985   7.210   2.943
 6499W        W71660  26.955  40.007  11.627
 6500W        W71661  12.542   0.361   4.616
 6501W        W71662  34.931  28.288   0.793
 6502W        W71663  35.126  11.977   3.220
 6503W        W71664   3.430  39.311   0.881
 6504W        W71665  34.537  30.948   2.631
 6505W        W71666  29.643  32.287  14.919
 6506W        W71667  25.008  26.413  11.180
 6507W        W71668  29.379  33.035   2.779
 6508W        W71669  38.953  16.015  12.435
 6509W        W71670  29.846   6.887   4.547
 6510W        W71671   9.034  42.401  12.424
 6511W        W71672  15.650  19.092   0.948
 6512W        W71673  43.942  20.195   4.763
 6513W        W71674  32.266  35.078   5.203
 6514W        W71675   0.312  25.019   0.465
 6515W        W71676  41.913  32.461   2.162
 6516W        W71677  19.640  24.675   3.808
 6517W        W71678  29.758  29.109   2.256
 6518W        W71679  19.217  26.671  12.023
 6519W        W71680  12.861  24.467   4.703
 6520W        W71681  19.200  28.259   3.252
 6521W        W71682  11.806  20.611   4.476
 6522W        W71683   1.964  31.496   2.964
 6523W        W71684  23.968  43.824   4.534
 6524W        W71685  28.277   7.137   1.409
 6525W        W71686  44.959  43.606  13.489
 6526W        W71687  35.753  26.189   4.235
 6527W        W71688  37.291  13.872   2.363
 6528W        W71689  43.011  24.612  10.647
 6529W        W71690  25.073  33.621   3.091
 6530W        W71691  28.662  34.812   3.621
 6531W        W71692   4.739  30.348  11.572
 6532W        W71693  20.970   5.853  12.506
 6533W        W71694  41.362  35.404   0.434
 6534W        W71695  22.098  44.370  12.773
 6535W        W71696  26.770  43.841   3.172
 6536W        W71697  15.684  15.015   4.023
 6537W        W71698  29.253   3.799   4.819
 6538W        W71699  27.506  20.030   4.822
 6539W        W71700  21.149  27.006  13.770
 6540W        W71701  34.659  31.682   2.435
 6541W        W71702   4.088   5.231  14.326
 6542W        W71703  38.537  42.213  14.884
 6543W        W71704  12.134  15.116  12.486
 6544W        W71705   8.824  16.066  11.360
 6545W        W71706   6.327  13.341  11.612
 6546W        W71707  23.699   1.319  11.144
 6547W        W71708  28.632  16.399  11.127
 6548W        W71709  44.762  12.309  11.913
 6549W        W71710   7.888  10.181   0.682
 6550W        W71711  17.603  43.905   1.214
 6551W        W71712   2.479  36.019  10.282
 6552W        W71713  20.043  21.681  14.460
 6553W        W71714  11.356  27.003  11.141
 6554W        W71715  25.912  38.745   1.240
 6555W        W71716  31.076  35.955  14.290
 6556W        W71717  40.851  15.897  14.547
 6557W        W71718   5.031  26.602   1.579
 6558W        W71719  17.178   2.219   0.775
 6559W        W71720  18.766  22.546  14.071
 6560W        W71721  29.558  30.763   1.921
 6561W        W71722   7.293  35.100  12.444
 6562W        W71723  38.074  14.126   2.257
 6563W        W71724   3.156  41.783  11.115
 6564W        W71725  17.574   1.175  11.429
 6565W        W71726  24.133  24.056  13.134
 6566W        W71727   0.389   6.427  11.184
 6567W        W71728  41.877  28.509  14.943
 6568W        W71729  26.196   0.209   0.337
 6569W        W71730  20.592  44.787   4.576
 6570W        W71731  32.930  43.057   1.801
 6571W        W71732  41.129   1.512   0.476
 6572W        W71733  11.616  34.520  11.609
 6573W        W71734  28.713  26.292   4.116
 6574W        W71735   8.655  24.569  13.395
 6575W        W71736  32.922  12.594  14.320
 6576W        W71737   0.518  31.159  11.139
 6577W        W71738  37.740  37.174  12.031
 6578W        W71739   3.546   7.248   3.170
 6579W        W71740  15.142   3.903  13.120
 6580W        W71741  26.772  42.057  12.148
 6581W        W71742  10.176   4.810   4.091
 6582W        W71743  18.966   2.028  13.908
 6583W        W71744   6.137  41.270  10.790
 6584W        W71745   8.458  25.126   1.380
 6585W        W71746   4.906   8.789   4.733
 6586W        W71747  18.145  28.118  14.563
 6587W        W71748  36.761  22.210   0.480
 6588W        W71749   4.362   4.453  10.958
 6589W        W71750   1.053   1.818  10.728
 6590W        W71751  38.401   3.221   2.416
 6591W        W71752  21.296  23.969  12.922
 6592W        W71753  26.576  36.850   0.018
 6593W        W71754  31.937   0.783   3.286
 6594W        W71755  37.625   6.121  11.106
 6595W        W71756  30.131  15.039   2.270
 6596W        W71757   2.676  35.591  13.032
 6597W        W71758  26.571   7.388  11.651
 6598W        W71759  33.986   8.871   0.808
 6599W        W71760  37.834  26.210   0.878
 6600W        W71761  39.727  39.993   3.335
 6601W        W71762  15.105  36.344   3.929
 6602W        W71763  21.614  41.708  10.651
 6603W        W71764  28.663  37.333  10.243
 6604W        W71765  33.155   1.823   2.167
 6605W        W71766  38.962  25.310   0.698
 6606W        W71767  13.098  34.445   3.610
 6607W        W71768   0.299   0.879   3.142
 6608W        W71769  39.864   2.242  13.329
 6609W        W71770  44.459  29.653   2.887
 6610W        W71771  31.595  19.039   4.028
 6611W        W71772  39.755  16.348   4.076
 6612W        W71773  27.815  15.917  10.231
 6613W        W71774  36.564  38.015   3.721
 6614W        W71775  32.898  43.045   2.716
 6615W        W71776  43.579  40.577  13.403
 6616W        W71777  16.562  42.893   4.951
 6617W        W71778  28.416   8.272  13.604
 6618W        W71779  14.588   3.351   0.879
 6619W        W71780  13.335  10.237  12.899
 6620W        W71781  22.072  38.257  10.615
 6621W        W71782  31.397  14.057  12.320
 6622W        W71783   0.800   8.167   4.591
 6623W        W71784  11.584  21.703  14.558
 6624W        W71785  33.043  43.909   0.014
 6625W        W71786  22.468   1.380  12.001
 6626W        W71787  31.565  37.311  13.823
 6627W        W71788  28.721   4.123   4.098
 6628W        W71789  22.760  18.432   3.561
 6629W        W71790  20.368   8.244  10.780
 6630W        W71791  38.281  43.887  11.026
 6631W        W71792  24.418  24.215  11.216
 6632W        W71793  25.086  33.049   4.203
 6633W        W71794  44.501  44.025   0.473
 6634W        W71795  33.381  41.255   2.831
 6635W        W71796   9.870   0.864   3.432
 6636W        W71797  15.685  26.721  11.503
 6637W        W71798  10.205  36.635   0.531
 6638W        W71799  41.923   3.211   3.094
 6639W        W71800  10.221  31.708  13.444
 6640W        W71801  15.411  17.647   1.862
 6641W        W71802  14.070  30.047  14.406
 6642W        W71803  19.802  19.533  14.064
 6643W        W71804  29.083  41.258  14.950
 6644W        W71805  42.532  27.571  12.445
 6645W        W71806  25.093  36.314   0.879
 6646W        W71807   6.910   4.790   3.529
 6647W        W71808  38.480  43.747  14.841
 6648W        W71809   9.127  27.502   2.778
 6649W        W71810   7.764  17.535  10.744
 6650W        W71811   3.930   7.262  11.656
 6651W        W71812  43.753  25.732  11.605
 6652W        W71813  25.231  10.923  14.045
 6653W        W71814   2.509   5.922   2.809
 6654W        W71815  19.303   0.377   0.301
 6655W        W71816  20.578   6.872  10.777
 6656W        W71817  40.438   9.635  14.422
 6657W        W71818  20.590  34.393  13.347
 6658W        W71819   9.266  17.385  14.481
 6659W        W71820  41.983  21.519  12.530
 6660W        W71821  34.296   9.861  12.931
 6661W        W71822  28.883  28.214   1.736
 6662W        W71823  44.429  39.759   4.728
 6663W        W71824  16.773  39.855   3.568
 6664W        W71825   5.242  31.890  11.560
 6665W        W71826  26.226  22.642   3.732
 6666W        W71827  20.142   0.989  13.936
 6667W        W71828  14.393   3.683   2.123
 6668W        W71829  42.958  41.258  12.012
 6669W        W71830   1.188   4.346  12.594
 6670W        W71831  32.135  24.741  14.498
 6671W        W71832  38.473  28.427   2.349
 6672W        W71833   1.349  12.066   2.322
 6673W        W71834   0.402  31.203   1.674
 6674W        W71835  29.400  10.133   0.417
 6675W        W71836   3.860  10.082   3.635
 6676W        W71837  25.063  25.379  12.088
 6677W        W71838  26.506  36.338   4.203
 6678W        W71839  34.915  36.506   2.210
 6679W        W71840  40.908  35.682   0.377
 6680W        W71841  31.923  38.762   3.275
 6681W        W71842  22.976  40.509  12.354
 6682W        W71843  30.891  22.297  10.703
 6683W        W71844  24.215  30.407  11.237
 6684W        W71845   9.880  20.134   4.780
 6685W        W71846  43.579  26.171   4.691
 6686W        W71847   7.166  18.699   4.123
 6687W        W71848  29.800  18.874  12.053
 6688W        W71849  36.267   1.270   2.280
 6689W        W71850  22.954  12.165  11.176
 6690W        W71851   0.722  24.224  14.765
 6691W        W71852   1.446  35.821  12.857
 6692W        W71853   0.917  37.253  12.879
 6693W        W71854  16.817  10.659   3.272
 6694W        W71855  16.784   7.185   0.406
 6695W        W71856  29.424  18.511  13.319
 6696W        W71857   1.308  32.635  12.774
 6697W        W71858   2.135   1.420   0.775
 6698W        W71859  28.189  21.100   3.479
 6699W        W71860   0.371  18.096  12.301
 6700W        W71861  25.870   1.291   4.239
 6701W        W71862  35.014  43.911  10.957
 6702W        W71863  19.936   0.768  11.412
 6703W        W71864  10.931  37.896  11.111
 6704W        W71865  24.848  29.767  12.952
 6705W        W71866   4.984   1.395   4.277
 6706W        W71867  25.567   6.438  10.634
 6707W        W71868  40.553   6.168  12.521
 6708W        W71869  13.714  39.235  11.072
 6709W        W71870   7.763  20.436   3.434
 6710W        W71871  16.655  22.034  12.078
 6711W        W71872  37.876   7.461  13.420
 6712W        W71873   8.237   1.949   2.714
 6713W        W71874  18.844  14.703   9.954
 6714W        W71875  24.415  34.946  10.969
 6715W        W71876  30.722  17.614  13.056
 6716W        W71877  38.422  11.223  12.307
 6717W        W71878   0.054   1.683   4.996
 6718W        W71879  25.860  33.412   1.357
 6719W        W71880  23.987  10.079   0.836
 6720W        W71881  12.136  20.231   0.959
 6721W        W71882  28.894  17.071   1.263
 6722W        W71883  40.512  27.572  12.465
 6723W        W71884  27.722  39.469  14.312
 6724W        W71885   6.224  12.686  12.453
 6725W        W71886  39.082  43.494   2.177
 6726W        W71887  22.156  15.540  13.789
 6727W        W71888  18.424  23.242   4.550
 6728W        W71889  29.867  26.817  14.453
 6729W        W71890  18.302   3.233   2.139
 6730W        W71891  20.706  30.117   3.727
 6731W        W71892  40.634   6.964  10.245
 6732W        W71893  41.773  40.967  13.618
 6733W        W71894  34.847  25.010   1.163
 6734W        W71895  39.570  44.911   1.327
 6735W        W71896   4.201  37.078  11.125
 6736W        W71897  43.960  39.318   1.581
 6737W        W71898  31.040  22.567  14.013
 6738W        W71899  39.343  30.458  14.908
 6739W        W71900  29.770  28.126   2.500
 6740W        W71901  28.352  12.821  14.563
 6741W        W71902   9.805  34.331  11.013
 6742W        W71903  25.995   3.113  10.596
 6743W        W71904   3.297   9.357   3.025
 6744W        W71905  38.738   3.933   0.825
 6745W        W71906  40.997  23.417   3.289
 6746W        W71907   5.745  32.336  12.912
 6747W        W71908  19.211  33.861  12.881
 6748W        W71909   8.564  26.527   4.200
 6749W        W71910  21.065  29.530  11.155
 6750W        W71911   6.467   4.751  12.523
 6751W        W71912  36.531  39.942   4.816
 6752W        W71913   7.417  24.508  14.754
 6753W        W71914  41.705   3.612  12.689
 6754W        W71915   2.966  30.251   4.012
 6755W        W71916  42.358  24.134  12.254
 6756W        W71917   0.209  18.554  10.990
 6757W        W71918  18.765  34.462  11.803
 6758W        W71919   5.493  41.515   0.358
 6759W        W71920  38.515   0.690  12.546
 6760W        W71921  28.142  19.753  11.121
 6761W        W71922   1.158  37.522  13.962
 6762W        W71923   9.354   1.374   4.564
 6763W        W71924  33.646   1.979   2.278
 6764W        W71925  30.672   2.119   1.854
 6765W        W71926  18.244  15.224  10.812
 6766W        W71927  38.517   6.219   3.395
 6767W        W71928  15.141  25.183  10.743
 6768W        W71929   8.834  18.418  11.648
 6769W        W71930  42.799  19.789   2.640
 6770W        W71931  30.565  34.436  12.379
 6771W        W71932  39.987  30.659  14.275
 6772W        W71933  10.608  15.614   0.341
 6773W        W71934  40.527   5.507  10.313
 6774W        W71935  27.671   1.536  12.925
 6775W        W71936  19.573  33.119   1.357
 6776W        W71937   3.914   4.309  11.290
 6777W        W71938  22.929  35.970  13.053
 6778W        W71939  29.344  37.937  14.873
 6779W        W71940  10.540  34.594   3.843
 6780W        W71941  24.008  29.995   3.381
 6781W        W71942  29.289  29.572  13.836
 6782W        W71943  31.151   1.403   1.425
 6783W        W71944  32.923  26.963   3.763
 6784W        W71945  43.052  31.364   2.903
 6785W        W71946  25.180  11.599   0.895
 6786W        W71947  20.583  21.561  14.321
 6787W        W71948  35.109  35.021   1.293
 6788W        W71949  20.155  25.264   2.286
 6789W        W71950   5.867  27.252  12.471
 6790W        W71951  39.987   1.875  10.756
 6791W        W71952  27.184  43.635  14.776
 6792W        W71953   3.010   9.889  14.260
 6793W        W71954  33.425  22.488  12.048
 6794W        W71955  12.563   5.313   3.772
 6795W        W71956  17.803   8.351   2.310
 6796W        W71957  39.800  37.422  14.939
 6797W        W71958   8.373  29.158   4.035
 6798W        W71959  12.334   5.036   1.812
 6799W        W71960  24.690  25.981  13.459
 6800W        W71961  16.602  29.911   3.876
 6801W        W71962  17.830  28.056   0.992
 6802W        W71963  25.625  13.331   1.345
 6803W        W71964  36.032  35.366   4.721
 6804W        W71965  40.772  43.703   0.473
 6805W        W71966  18.969  36.965   1.354
 6806W        W71967   6.511  33.003   4.051
 6807W        W71968  26.575  29.472   2.532
 6808W        W71969  35.649  16.633   4.327
 6809W        W71970  13.232  38.756  14.973
 6810W        W71971   3.275  28.759  11.210
 6811W        W71972  39.979  31.091   3.974
 6812W        W71973  35.454  35.660  14.280
 6813W        W71974  29.209  35.340  11.551
 6814W        W71975  30.875  29.589   1.271
 6815W        W71976   9.887  31.363   3.552
 6816W        W71977  15.190   6.245   3.174
 6817W        W71978  11.326  44.104  13.985
 6818W        W71979  12.651  13.153  13.978
 6819W        W71980  36.811  19.588  12.872
 6820W        W71981  40.526  34.624  13.529
 6821W        W71982  22.570  39.884   4.075
 6822W        W71983  31.766  38.081  12.893
 6823W        W71984   1.499   5.006  14.387
 6824W        W71985   6.230  12.060  11.182
 6825W        W71986  40.089  28.893   1.183
 6826W        W71987  44.276  17.083  12.179
 6827W        W71988  26.565   5.337   1.878
 6828W        W71989  12.721   2.256  12.536
 6829W        W71990  41.412  21.086   3.834
 6830W        W71991   0.956  26.614   4.633
 6831W        W71992  14.543  34.374  13.607
 6832W        W71993   1.825   9.762   0.485
 6833W        W71994  11.620  39.486  10.330
 6834W        W71995   5.253   5.941  14.871
 6835W        W71996  13.285  32.895   4.598
 6836W        W71997  19.773   1.279   1.168
 6837W        W71998   8.627  32.050   3.605
 6838W        W71999   6.376  44.565   0.453
 6839W        W72000  37.401  30.004   0.393
 6840W        W72001  12.341   2.742  10.760
 6841W        W72002  38.009  26.233   2.541
 6842W        W72003  35.213   1.076  12.884
 6843W        W72004   2.494  44.566  12.785
 6844W        W72005  22.666  32.454   0.401
 6845W        W72006  19.241  41.991  14.825
 6846W        W72007  17.934  23.469  11.095
 6847W        W72008  43.531   1.922  14.967
 6848W        W72009  24.292  27.859  11.915
 6849W        W72010   7.387  43.012  10.690
 6850W        W72011  43.297  24.720  14.439
 6851W        W72012  27.609   3.140   3.694
 6852W        W72013   2.754   9.435  11.508
 6853W        W72014  36.939  30.533  12.513
 6854W        W72015   3.887   6.836  12.398
 6855W        W72016  34.578  27.154   1.540
 6856W        W72017  39.954   3.309  12.001
 6857W        W72018   3.395  27.504   2.154
 6858W        W72019  17.522  32.062   1.770
 6859W        W72020  19.942  13.854   2.927
 6860W        W72021  35.853   8.153  11.148
 6861W        W72022  24.744  12.778  10.802
 6862W        W72023  44.925  15.716  14.246
 6863W        W72024   5.004  41.822   3.578
 6864W        W72025   8.734  33.649  14.407
 6865W        W72026  40.086  35.098  13.840
 6866W        W72027   7.883  30.158  10.673
 6867W        W72028  29.897   6.344  13.855
 6868W        W72029  43.994  10.761   1.476
 6869W        W72030   5.065  44.577  12.487
 6870W        W72031  33.165  17.105   0.795
 6871W        W72032  23.883  14.843   0.841
 6872W        W72033  39.323   0.788  11.177
 6873W        W72034  17.279  16.668   1.852
 6874W        W72035  35.084   5.777   3.200
 6875W        W72036  37.622  20.948   2.923
 6876W        W72037   4.168   1.898  14.637
 6877W        W72038  22.242  42.541  13.336
 6878W        W72039  36.948  24.274  14.537
 6879W        W72040  28.946   4.432   1.405
 6880W        W72041  19.435  29.697   3.222
 6881W        W72042   8.055  24.769  12.444
 6882W        W72043  44.286   1.295  13.755
 6883W        W72044  36.953  34.644   0.318
 6884W        W72045   2.236  30.051  11.886
 6885W        W72046  10.383  11.621  13.912
 6886W        W72047  44.861  15.682   0.300
 6887W        W72048  31.599  33.419   2.207
 6888W        W72049  26.045   0.044  11.418
 6889W        W72050  25.946  40.947   3.448
 6890W        W72051  35.467  42.293  14.022
 6891W        W72052   0.795  42.810  13.600
 6892W        W72053   0.236  20.757   1.732
 6893W        W72054  23.422  18.210   3.428
 6894W        W72055  37.919  30.718   3.661
 6895W        W72056  28.430  44.946   0.311
 6896W        W72057  15.765  13.347  10.634
 6897W        W72058  40.067  34.492  10.676
 6898W        W72059  17.014  32.088   1.886
 6899W        W72060  42.177  15.815  14.486
 6900W        W72061  13.274   4.413  14.966
 6901W        W72062  10.632  14.076   2.281
 6902W        W72063  33.843  24.105  12.941
 6903W        W72064  43.608  23.941  12.176
 6904W        W72065  23.163   1.525   4.303
 6905W        W72066  33.896  15.671   4.588
 6906W        W72067  19.027   2.417  13.524
 6907W        W72068   1.959  29.643  12.083
 6908W        W72069  38.808  31.856  14.583
 6909W        W72070  16.138   7.632   0.886
 6910W        W72071  17.136  30.411   5.239
 6911W        W72072   7.234  20.822  12.053
 6912W        W72073   9.191   6.995   4.526
 6913W        W72074  24.129  14.865   1.886
 6914W        W72075   0.474  35.618  14.337
 6915W        W72076  40.484  30.107  12.478
 6916W        W72077   8.457  29.524  14.843
 6917W        W72078  41.914   4.268  12.096
 6918W        W72079  41.486   8.891  11.614
 6919W        W72080  18.191  27.037  11.544
 6920W        W72081   4.303  28.319  11.224
 6921W        W72082  41.854  24.188  13.020
 6922W        W72083   8.419   7.805   3.771
 6923W        W72084  24.487  29.229  13.826
 6924W        W72085  34.847  12.405   1.394
 6925W        W72086  23.321  36.918  11.201
 6926W        W72087  17.189  22.090  10.806
 6927W        W72088  24.379  19.140  10.186
 6928W        W72089   7.423  15.835  14.427
 6929W        W72090  30.987  12.678   2.434
 6930W        W72091  16.118  42.956   3.992
 6931W        W72092  24.135  19.801  13.978
 6932W        W72093  29.029   3.192   2.778
 6933W        W72094  10.363  43.789  13.426
 6934W        W72095  25.489  29.862  12.437
 6935W        W72096  43.328  10.621  10.218
 6936W        W72097   3.303  42.806  11.161
 6937W        W72098  21.211  34.530   1.788
 6938W        W72099   4.234   8.329   2.153
 6939W        W72100  39.109  32.467   1.865
 6940W        W72101  23.637   1.521   1.810
 6941W        W72102  38.473   5.425   0.821
 6942W        W72103   7.326  31.321   0.444
 6943W        W72104   7.817  16.727  14.564
 6944W        W72105  11.938  43.994   0.006
 6945W        W72106   9.418  15.856  14.579
 6946W        W72107   2.303  44.058   0.735
 6947W        W72108  19.439  26.760   1.850
 6948W        W72109   4.712  36.042   2.211
 6949W        W72110   2.364  17.889   4.949
 6950W        W72111  35.089   3.055  14.430
 6951W        W72112   0.308  44.390   3.744
 6952W        W72113  29.177   0.395   0.341
 6953W        W72114  36.871   4.532   2.249
 6954W        W72115  37.911  16.800   2.415
 6955W        W72116  21.167   9.562   1.136
 6956W        W72117  15.873   6.862   2.910
 6957W        W72118  15.579  40.976  12.578
 6958W        W72119   2.660  42.855   4.655
 6959W        W72120   5.875  37.473  13.539
 6960W        W72121  23.529  11.261  10.183
 6961W        W72122  38.334   2.604  14.541
 6962W        W72123  22.488  16.544  13.498
 6963W        W72124  37.559  13.240  13.350
 6964W        W72125  10.763   8.900   3.797
 6965W        W72126  44.991  40.799  12.302
 6966W        W72127  17.576  31.165   1.283
 6967W        W72128   5.774  13.413  11.263
 6968W        W72129  40.298  14.653   3.834
 6969W        W72130  20.220  37.461  13.245
 6970W        W72131  17.303   7.711  12.015
 6971W        W72132  43.355  22.722   3.630
 6972W        W72133   0.992   6.638  14.676
 6973W        W72134  42.941   1.696   4.597
 6974W        W72135  13.399  42.457   2.132
 6975W        W72136  37.568  21.123  11.150
 6976W        W72137  13.628   4.946  12.189
 6977W        W72138   9.284  19.508   4.764
 6978W        W72139  12.384   5.426   2.372
 6979W        W72140  43.488  14.269   0.597
 6980W        W72141   4.284  10.331  13.289
 6981W        W72142  26.165  31.754  14.339
 6982W        W72143  12.320  25.692   3.654
 6983W        W72144   6.484  43.017   1.314
 6984W        W72145   7.381  44.562   2.485
 6985W        W72146  12.554  34.885  12.514
 6986W        W72147   2.777  28.058   3.815
 6987W        W72148   5.328  27.775   5.247
 6988W        W72149  42.016  24.778  11.635
 6989W        W72150   3.248  26.690  12.060
 6990W        W72151  38.677   3.362  11.611
 6991W        W72152   6.914  17.093   4.086
 6992W        W72153  17.880   7.666   1.610
 6993W        W72154  23.861  43.397  11.636
 6994W        W72155  35.993  42.968   3.473
 6995W        W72156  10.451   4.869  13.536
 6996W        W72157  44.411  43.073   2.392
 6997W        W72158  21.562  23.998   1.239
 6998W        W72159  24.288  12.563  14.025
 6999W        W72160   3.843  13.973   4.575
 7000W        W72161  12.931   2.734  12.492
 7001W        W72162  31.104  17.088   1.828
 7002W        W72163   1.820  43.889  11.550
 7003W        W72164  38.581   2.878  11.458
 7004W        W72165  34.366  21.975  13.444
 7005W        W72166   8.898  10.204  12.332
 7006W        W72167  20.599  41.841   4.899
 7007W        W72168   6.096   6.937   2.388
 7008W        W72169  41.949   9.220   0.542
 7009W        W72170  31.645   7.826  14.050
 7010W        W72171  14.366  31.314   3.930
 7011W        W72172  33.233  11.886  11.306
 7012W        W72173  21.153   4.318   4.279
 7013W        W72174  31.582   2.421   2.903
 7014W        W72175   8.616  40.031   0.271
 7015W        W72176  17.679  36.626   3.333
 7016W        W72177  19.785  17.769  13.603
 7017W        W72178   9.300   8.720   1.995
 7018W        W72179   6.246   3.831  12.120
 7019W        W72180  44.865  34.617  13.905
 7020W        W72181  21.486  34.022   2.511
 7021W        W72182   7.826   7.853  12.468
 7022W        W72183  19.712   2.815   2.243
 7023W        W72184  30.969  39.678   2.209
 7024W        W72185  12.838  39.640  10.270
 7025W        W72186   2.741   5.761   4.848
 7026W        W72187   4.222  43.051   0.910
 7027W        W72188  13.197  38.596  10.694
 7028W        W72189  25.531  30.867  12.491
 7029W        W72190  19.546   3.275   1.733
 7030W        W72191   1.436  21.800   4.184
 7031W        W72192   3.149  27.473   0.828
 7032W        W72193  44.447   6.123  14.038
 7033W        W72194  42.951  36.045  12.296
 7034W        W72195  13.429   9.835   0.838
 7035W        W72196  30.196  39.313  11.939
 7036W        W72197  22.328  39.929   3.624
 7037W        W72198  33.959  23.786  13.431
 7038W        W72199   0.723  14.357   3.212
 7039W        W72200  19.800  25.678   4.028
 7040W        W72201  38.542  22.261  12.508
 7041W        W72202  41.390  31.700   1.228
 7042W        W72203  33.111  29.663  12.151
 7043W        W72204  35.885  38.560   1.150
 7044W        W72205  30.467  15.671   4.181
 7045W        W72206  32.023  30.295  14.643
 7046W        W72207  37.060  21.666  11.933
 7047W        W72208  26.530   1.249   2.604
 7048W        W72209  12.651  18.259  12.548
 7049W        W72210  30.080  24.213  12.132
 7050W        W72211  30.727  41.482   3.574
 7051W        W72212  26.335   4.178   0.842
 7052W        W72213  33.988   9.827   2.460
 7053W        W72214  25.438  33.459   3.889
 7054W        W72215   2.170  44.009   4.220
 7055W        W72216  42.495   8.277   3.219
 7056W        W72217  42.472  19.709  10.705
 7057W        W72218  28.694  11.867   3.162
 7058W        W72219  31.637  23.938   1.942
 7059W        W72220   1.997  34.354   3.656
 7060W        W72221  13.113  12.265   0.660
 7061W        W72222   4.348  13.633   0.187
 7062W        W72223  42.138  26.779   4.117
 7063W        W72224  24.647  26.139  11.502
 7064W        W72225  44.542  36.331   3.149
 7065W        W72226  35.684   9.692  13.878
 7066W        W72227  29.521   8.977   5.037
 7067W        W72228   0.217   5.300  13.497
 7068W        W72229  23.087  24.511   1.895
 7069W        W72230   8.458   8.413   3.742
 7070W        W72231  39.464  33.000  14.267
 7071W        W72232  28.018  28.624  14.490
 7072W        W72233  28.050   5.913  12.183
 7073W        W72234   8.801   3.692   3.676
 7074W        W72235  31.430   3.709  11.483
 7075W        W72236  18.321  40.515  14.536
 7076W        W72237  41.915  11.150  12.545
 7077W        W72238  36.327  40.231   1.008
 7078W        W72239  40.540   5.374   2.290
 7079W        W72240  16.169  42.121  11.139
 7080W        W72241   7.642   6.315   1.724
 7081W        W72242  21.973   3.258   0.414
 7082W        W72243  21.535  39.443  11.913
 7083W        W72244  28.052   4.158   2.293
 7084W        W72245  10.087   3.766   1.889
 7085W        W72246  20.255  26.903  10.749
 7086W        W72247  13.734  11.962   0.760
 7087W        W72248  33.380  32.968   1.270
 7088W        W72249  10.692  26.943   2.785
 7089W        W72250  43.160  38.550   4.262
 7090W        W72251  13.892  24.619  13.841
 7091W        W72252  28.507   8.762  10.636
 7092W        W72253  18.277  15.263  13.417
 7093W        W72254  25.178  21.747   5.488
 7094W        W72255   7.376  30.914  13.493
 7095W        W72256  13.080  43.142  12.909
 7096W        W72257  29.084  34.355   0.021
 7097W        W72258  23.014  12.403  12.598
 7098W        W72259  11.633   0.319  14.469
 7099W        W72260  16.444  27.135   4.163
 7100W        W72261  44.983   3.163   0.411
 7101W        W72262  16.605  38.284  14.809
 7102W        W72263  33.354  29.120  13.194
 7103W        W72264   9.907  40.001  11.234
 7104W        W72265  31.921  13.673   2.349
 7105W        W72266  28.984  22.152  11.591
 7106W        W72267  13.336  14.815   4.433
 7107W        W72268  36.069  22.049   4.299
 7108W        W72269   9.858  42.061  14.144
 7109W        W72270  22.450   3.188  12.452
 7110W        W72271  40.071  24.667  13.475
 7111W        W72272  23.648  18.324   2.385
 7112W        W72273  37.960   0.287  14.222
 7113W        W72274  21.751  25.669  12.023
 7114W        W72275  37.279  17.568   2.218
 7115W        W72276  13.610   6.331  12.564
 7116W        W72277  37.511  28.154  12.816
 7117W        W72278   5.198  24.106   3.266
 7118W        W72279   7.858  41.286   4.993
 7119W        W72280  43.806   4.825  13.969
 7120W        W72281  10.861  36.585  10.605
 7121W        W72282  33.022   9.168  10.771
 7122W        W72283   8.321  23.613   1.279
 7123W        W72284  34.829  26.203   0.739
 7124W        W72285  11.910  30.248   2.231
 7125W        W72286   2.220   7.628   1.828
 7126W        W72287   8.684  41.048  14.795
 7127W        W72288  21.992  12.620   2.416
 7128W        W72289  19.115  16.292  10.870
 7129W        W72290  17.853   4.852  12.999
 7130W        W72291  33.543  19.009  12.487
 7131W        W72292  44.000   7.897  12.543
 7132W        W72293  13.921  35.756  14.094
 7133W        W72294  16.578   3.150   1.744
 7134W        W72295  18.858  41.471  11.722
 7135W        W72296   7.667  20.915   3.222
 7136W        W72297   1.992  13.654  10.956
 7137W        W72298  12.409  18.253   2.746
 7138W        W72299   2.925  42.970   0.076
 7139W        W72300  13.864   4.695  10.677
 7140W        W72301  11.596   9.754   0.350
 7141W        W72302  41.415  19.248   0.581
 7142W        W72303  24.755  40.326  14.253
 7143W        W72304   2.906  15.226   1.908
 7144W        W72305  36.792  28.378   2.783
 7145W        W72306   9.418  42.495  12.847
 7146W        W72307   2.103  11.725  11.537
 7147W        W72308  14.072  32.453   1.669
 7148W        W72309  25.654  41.042   0.171
 7149W        W72310  10.737  24.478  12.115
 7150W        W72311  19.128  39.419   3.137
 7151W        W72312   6.723   4.353  11.709
 7152W        W72313  16.048  26.164  10.944
 7153W        W72314  32.052  35.119  11.577
 7154W        W72315  12.064  14.093  11.979
 7155W        W72316   5.312  36.884   3.705
 7156W        W72317  34.119   7.243  14.961
 7157W        W72318  30.664  34.969  14.380
 7158W        W72319  26.164  22.192  11.178
 7159W        W72320  27.773  33.972  13.810
 7160W        W72321  23.006  12.717  11.469
 7161W        W72322  17.735  29.111  13.280
 7162W        W72323  39.379  32.453  14.521
 7163W        W72324  20.462  28.728   2.845
 7164W        W72325  20.147  11.706  11.864
 7165W        W72326  25.146   6.440  14.077
 7166W        W72327   3.293  37.799   3.195
 7167W        W72328  24.460  23.250   5.309
 7168W        W72329   1.232   2.017   2.593
 7169W        W72330  18.033   8.878   0.811
 7170W        W72331  17.020  35.605   2.805
 7171W        W72332  26.491  34.025   3.679
 7172W        W72333   0.935   7.425  13.466
 7173W        W72334  23.714  41.930  13.563
 7174W        W72335  22.702  33.700   4.571
 7175W        W72336  12.135  30.926  11.195
 7176W        W72337  10.746  13.594  10.665
 7177W        W72338   6.410  29.522   2.643
 7178W        W72339  26.195  18.877  10.801
 7179W        W72340   0.711   3.356   3.693
 7180W        W72341  29.524   5.191   4.523
 7181W        W72342  34.954  25.508   0.966
 7182W        W72343  12.230   7.233  10.674
 7183W        W72344   8.157  19.139   1.285
 7184W        W72345  13.583  19.294   2.889
 7185W        W72346   0.851   3.934   0.795
 7186W        W72347  38.100  26.563  10.775
 7187W        W72348  12.711  16.864   4.321
 7188W        W72349  20.104  41.483   0.351
 7189W        W72350  27.353  44.805   2.221
 7190W        W72351  38.353  11.999   4.106
 7191W        W72352   1.000  20.878  14.250
 7192W        W72353  18.109  25.650   3.397
 7193W        W72354   5.905  39.870   3.215
 7194W        W72355  28.402  43.599  10.962
 7195W        W72356   5.453  27.251   4.377
 7196W        W72357  29.538   4.452  12.870
 7197W        W72358  27.099  38.285   0.330
 7198W        W72359   1.020   2.413  13.738
 7199W        W72360  26.272  13.674   2.514
 7200W        W72361  39.830   5.345  11.632
 7201W        W72362  20.030   1.413  13.421
 7202W        W72363   0.422  22.303   4.573
 7203W        W72364   8.825   8.449  13.410
 7204W        W72365   7.293   4.498   4.722
 7205W        W72366  32.474   6.989  11.563
 7206W        W72367  17.226   9.731  14.608
 7207W        W72368  18.693  39.598   5.351
 7208W        W72369  21.271  34.390  10.726
 7209W        W72370  19.562   6.635   2.288
 7210W        W72371   2.442  43.842  10.774
 7211W        W72372   3.442  40.702  13.889
 7212W        W72373  26.496  30.919  14.527
 7213W        W72374   1.354  13.858   0.788
 7214W        W72375  42.607  42.654   4.950
 7215W        W72376  15.251  15.716   0.523
 7216W        W72377   3.376   8.781   0.666
 7217W        W72378  28.051  12.568  13.821
 7218W        W72379  25.654  13.657  14.401
 7219W        W72380   5.673  18.653  12.436
 7220W        W72381   2.794  31.047   2.810
 7221W        W72382  21.320  25.830  10.138
 7222W        W72383   8.731  41.553   2.098
 7223W        W72384  22.101  30.618   2.818
 7224W        W72385   2.780  28.687   4.129
 7225W        W72386   7.244  26.963  11.708
 7226W        W72387   7.980  35.790  13.497
 7227W        W72388   2.307  32.524   2.626
 7228W        W72389   5.947   3.489  11.893
 7229W        W72390  20.094  33.924   0.901
 7230W        W72391  39.899  11.319  14.950
 7231W        W72392   1.894  13.081   3.590
 7232W        W72393  15.151   0.198   2.599
 7233W        W72394  21.208  18.567   2.351
 7234W        W72395  11.702  19.003   4.451
 7235W        W72396   9.351  43.468  12.939
 7236W        W72397  10.578  11.735   4.062
 7237W        W72398   9.228  26.250   0.676
 7238W        W72399  12.191  34.399   2.669
 7239W        W72400   3.461  25.072   2.347
 7240W        W72401  43.805  26.467   3.250
 7241W        W72402  24.287   0.447   3.342
 7242W        W72403  38.692  16.228   4.798
 7243W        W72404  39.381  30.961   2.799
 7244W        W72405  41.772  30.548  10.723
 7245W        W72406  32.014  12.583  14.749
 7246W        W72407   1.994  28.040  10.686
 7247W        W72408  11.607  19.526   4.493
 7248W        W72409  29.774  14.676  11.150
 7249W        W72410  25.644  12.384  14.881
 7250W        W72411  23.055  41.424   1.715
 7251W        W72412  21.208  43.714   3.719
 7252W        W72413  12.273  16.650   0.249
 7253W        W72414   3.418   7.116  11.691
 7254W        W72415  10.344  17.660  13.783
 7255W        W72416  31.238  34.709  13.906
 7256W        W72417   6.795  26.730  10.965
 7257W        W72418  35.209  17.133   3.267
 7258W        W72419  30.961  24.459  14.206
 7259W        W72420  44.330  32.076   5.003
 7260W        W72421  38.515  26.621  11.451
 7261W        W72422  16.907  41.147   5.304
 7262W        W72423   1.882  17.506   1.873
 7263W        W72424   6.412  18.859  13.492
 7264W        W72425  41.948  30.621  13.589
 7265W        W72426   0.263  28.604  14.602
 7266W        W72427  18.605  39.271   4.538
 7267W        W72428  22.103  26.415   9.783
 7268W        W72429  40.337  39.983  11.310
 7269W        W72430  17.734   1.434   3.686
 7270W        W72431  34.050  13.602   1.426
 7271W        W72432  23.652  11.506   0.742
 7272W        W72433  19.154  41.611   4.637
 7273W        W72434   7.156  35.474  13.455
 7274W        W72435   5.092  42.203  12.287
 7275W        W72436  10.578  26.719  13.701
 7276W        W72437  36.812   0.474  11.029
 7277W        W72438  37.886  30.607   1.780
 7278W        W72439  18.711   6.067   2.220
 7279W        W72440  24.491  21.575  11.797
 7280W        W72441  34.059  34.850  14.503
 7281W        W72442  43.770  25.474  14.754
 7282W        W72443   7.188  32.369   1.285
 7283W        W72444  35.697  10.735   4.958
 7284W        W72445  42.150  19.005  11.199
 7285W        W72446  27.515  31.434   1.984
 7286W        W72447  14.360  32.015   1.749
 7287W        W72448  26.932  19.122  12.896
 7288W        W72449  43.747   6.533   4.237
 7289W        W72450   6.145  10.017  12.400
 7290W        W72451  36.903  17.554  12.054
 7291W        W72452  20.145  36.518  14.231
 7292W        W72453  30.337   9.867   2.214
 7293W        W72454  22.551   2.966  11.997
 7294W        W72455  43.873  41.254   5.510
 7295W        W72456   2.010  17.216   4.341
 7296W        W72457   7.850  14.452  14.904
 7297W        W72458  14.792  11.427   3.694
 7298W        W72459   1.556  40.875   1.868
 7299W        W72460  42.965  39.236  14.017
 7300W        W72461  29.947   1.191  13.095
 7301W        W72462  42.018  16.874  14.963
 7302W        W72463  14.347   6.718  13.781
 7303W        W72464  11.617  18.058  13.346
 7304W        W72465  33.751  37.137   2.746
 7305W        W72466  33.115  30.907  14.014
 7306W        W72467   6.869  16.150   4.525
 7307W        W72468   5.350  43.292  14.873
 7308W        W72469  38.266   9.186  11.643
 7309W        W72470  33.290  39.503  13.575
 7310W        W72471  37.588   9.077   2.703
 7311W        W72472  26.178   3.519   0.355
 7312W        W72473  31.737   9.854   0.425
 7313W        W72474  43.059  29.494   2.229
 7314W        W72475  40.426  43.040  14.750
 7315W        W72476   4.715  13.645  12.950
 7316W        W72477   2.960   0.824  12.981
 7317W        W72478  23.985  34.504  11.596
 7318W        W72479  28.308  16.478   0.746
 7319W        W72480  39.835  28.647   2.413
 7320W        W72481  13.337  26.386   0.847
 7321W        W72482  32.002  23.611   3.523
 7322W        W72483  16.677  23.172  13.387
 7323W        W72484   7.444  42.541  10.505
 7324W        W72485  22.719  41.649  10.669
 7325W        W72486  22.325  21.204  11.894
 7326W        W72487  23.057   4.677   0.239
 7327W        W72488  22.570  20.590   2.729
 7328W        W72489  35.939  24.010  11.073
 7329W        W72490  15.625  30.519   2.449
 7330W        W72491  27.458  31.437   1.015
 7331W        W72492  29.943  27.464   2.710
 7332W        W72493  40.866  20.819   0.073
 7333W        W72494  36.948  11.107   0.832
 7334W        W72495  36.257  21.013  12.186
 7335W        W72496   9.268   4.471  14.942
 7336W        W72497  34.471   4.865  14.867
 7337W        W72498   7.961  23.892  13.514
 7338W        W72499  16.412  44.920  13.457
 7339W        W72500   2.301   4.200   3.463
 7340W        W72501  41.794  36.918   2.178
 7341W        W72502  37.647  15.726  11.962
 7342W        W72503  10.824   1.691   3.281
 7343W        W72504   6.793  29.480   3.274
 7344W        W72505   7.719  13.167  11.931
 7345W        W72506  39.534  43.501  12.444
 7346W        W72507  40.133  19.569  10.709
 7347W        W72508  26.833  23.692  13.523
 7348W        W72509   6.701  19.328  14.271
 7349W        W72510   3.085  44.577   1.096
 7350W        W72511  16.283  20.761  13.365
 7351W        W72512  22.334  37.087  11.219
 7352W        W72513  38.807   1.686   0.453
 7353W        W72514  19.751  19.169  11.046
 7354W        W72515  39.861   7.151   3.690
 7355W        W72516  43.356  20.068   3.193
 7356W        W72517  22.319   9.782  10.515
 7357W        W72518  41.056   5.326  12.028
 7358W        W72519  27.514  25.917  14.810
 7359W        W72520  41.501  44.837   3.614
 7360W        W72521  43.332  23.660  13.526
 7361W        W72522  25.532  23.495  11.411
 7362W        W72523  27.424  16.082  12.122
 7363W        W72524  36.503  35.867   4.358
 7364W        W72525  31.935   5.814   4.255
 7365W        W72526  11.335  29.076  14.324
 7366W        W72527  41.209  27.384  11.941
 7367W        W72528  19.594  34.099  12.019
 7368W        W72529  34.314  31.578   3.319
 7369W        W72530  18.268   2.211   1.239
 7370W        W72531  34.563  19.928   1.007
 7371W        W72532  10.708  35.876  10.465
 7372W        W72533   2.165  17.911   0.705
 7373W        W72534  21.986  16.685   3.726
 7374W        W72535  27.103   2.791  13.029
 7375W        W72536   4.361  14.319  12.035
 7376W        W72537  24.553  39.861  12.944
 7377W        W72538  37.130   5.682  11.874
 7378W        W72539  29.520   9.873   0.910
 7379W        W72540   0.779  25.404  13.771
 7380W        W72541  34.528  11.130   3.160
 7381W        W72542   7.226   9.311  13.050
 7382W        W72543   9.905  20.468  13.104
 7383W        W72544  18.322   1.166   1.366
 7384W        W72545  28.192  37.379   3.923
 7385W        W72546  18.122  21.622  14.940
 7386W        W72547   9.665  40.072   1.738
 7387W        W72548  42.598  19.993  12.020
 7388W        W72549  36.672   9.681  12.496
 7389W        W72550  23.669   2.460  10.618
 7390W        W72551  38.346   0.583  13.960
 7391W        W72552  13.040  40.203   4.146
 7392W        W72553  33.412   4.081  11.663
 7393W        W72554  27.663   1.034  13.037
 7394W        W72555  36.840  21.712   0.047
 7395W        W72556  32.373   2.769   3.104
 7396W        W72557  16.022  37.813   0.852
 7397W        W72558  14.330  34.368  11.963
 7398W        W72559  13.946  43.213  11.462
 7399W        W72560  21.583  36.751   0.392
 7400W        W72561  16.855  13.743  10.465
 7401W        W72562  40.023  15.170   1.278
 7402W        W72563  29.029   4.750  12.279
 7403W        W72564  22.630  27.424   0.382
 7404W        W72565   7.382  29.114  13.970
 7405W        W72566   0.545  31.929   5.000
 7406W        W72567  41.518  29.879  14.955
 7407W        W72568  29.818   8.815  11.726
 7408W        W72569  30.463   7.190   1.842
 7409W        W72570  15.187  13.345   3.407
 7410W        W72571  30.649   6.341  11.485
 7411W        W72572  11.660   1.202  12.667
 7412W        W72573  27.023   4.507   4.646
 7413W        W72574  29.492  39.768  14.351
 7414W        W72575  38.844  13.131  12.432
 7415W        W72576  25.071   1.502  12.014
 7416W        W72577  27.176   3.988   3.752
 7417W        W72578  22.503  17.963  11.872
 7418W        W72579   5.202  34.482   0.049
 7419W        W72580  37.097  18.034   2.142
 7420W        W72581  38.535  42.809  13.396
 7421W        W72582   6.728  23.898   1.865
 7422W        W72583   9.297  29.406   1.747
 7423W        W72584  19.241  16.563  14.521
 7424W        W72585   0.935  15.878  11.193
 7425W        W72586  33.954  44.290   2.868
 7426W        W72587  39.164  37.809   4.471
 7427W        W72588  38.153  17.745  10.724
 7428W        W72589  18.037  22.189  14.110
 7429W        W72590   6.168  41.699  11.711
 7430W        W72591  44.650   4.914   1.315
 7431W        W72592  17.278  33.044  13.919
 7432W        W72593  10.073   7.718   1.648
 7433W        W72594  25.337  21.297   3.150
 7434W        W72595  19.139   6.113  13.540
 7435W        W72596   8.798   4.456   4.123
 7436W        W72597  35.309  25.967  11.072
 7437W        W72598  11.107   4.000  14.765
 7438W        W72599  36.023  28.726   3.305
 7439W        W72600  28.507   4.686   2.687
 7440W        W72601  27.026  20.303  10.761
 7441W        W72602  24.598  21.543  12.299
 7442W        W72603  16.323   2.419   4.097
 7443W        W72604  20.950  10.270  12.953
 7444W        W72605  17.697  11.714   0.758
 7445W        W72606  28.764  44.875  14.287
 7446W        W72607  30.065  14.822   4.632
 7447W        W72608   9.383   4.111  13.930
 7448W        W72609  36.287  28.544   1.642
 7449W        W72610  22.523  20.796   3.203
 7450W        W72611  31.882  40.209   3.807
 7451W        W72612  38.883  21.260   3.120
 7452W        W72613  42.883  37.009  12.947
 7453W        W72614  33.659  32.548  14.816
 7454W        W72615  11.827   1.979   0.732
 7455W        W72616   6.300  16.317  13.791
 7456W        W72617   3.075  37.444   1.838
 7457W        W72618   6.354   1.478  12.893
 7458W        W72619  20.006  31.460   3.266
 7459W        W72620  18.243   0.314   4.670
 7460W        W72621  39.519  12.639  13.803
 7461W        W72622  13.494  44.470  12.788
 7462W        W72623  41.309  35.881  12.881
 7463W        W72624  35.788  18.126   3.746
 7464W        W72625   5.135   8.379  11.014
 7465W        W72626  29.546  21.968  13.337
 7466W        W72627  44.880  37.053   2.315
 7467W        W72628  37.577   7.691  13.847
 7468W        W72629  16.111  24.945   4.585
 7469W        W72630   2.882  37.806  14.877
 7470W        W72631  15.120   7.042   5.207
 7471W        W72632   1.747  42.573  11.181
 7472W        W72633  26.206  16.188   2.825
 7473W        W72634  20.339   0.948   3.265
 7474W        W72635  22.631  18.190  14.340
 7475W        W72636  25.938  30.539   1.685
 7476W        W72637  11.745  35.309   4.499
 7477W        W72638  20.544  25.038   4.108
 7478W        W72639  10.122  35.943   2.788
 7479W        W72640  12.821  18.335  13.915
 7480W        W72641   3.758  35.627  12.474
 7481W        W72642  25.896  13.170   4.532
 7482W        W72643  35.550  11.507   1.779
 7483W        W72644  13.867  42.066  14.549
 7484W        W72645  39.608   5.759  10.735
 7485W        W72646  35.450  37.122  13.479
 7486W        W72647  12.392  27.156  11.457
 7487W        W72648  10.852  40.062  11.154
 7488W        W72649  35.178  29.797   0.811
 7489W        W72650  22.555  17.145   0.012
 7490W        W72651  12.552  15.400  14.957
 7491W        W72652  25.618  24.178  12.189
 7492W        W72653  16.618  10.249  13.053
 7493W        W72654  26.575  37.340  14.846
 7494W        W72655   0.622   6.072   1.845
 7495W        W72656  21.306  23.741   4.047
 7496W        W72657  29.113  11.221  10.662
 7497W        W72658  11.213  26.098   0.724
 7498W        W72659  26.436  11.784  13.206
 7499W        W72660  11.054   3.500   1.492
 7500W        W72661  38.786  27.817  12.008
 7501W        W72662   2.325  27.085  14.811
 7502W        W72663   4.810  19.783  14.320
 7503W        W72664   1.426  17.880  14.878
 7504W        W72665  33.096   3.683   1.994
 7505W        W72666  44.811  44.075  11.037
 7506W        W72667  22.468  14.905   2.216
 7507W        W72668  17.634  11.154   4.320
 7508W        W72669  38.477  34.045  13.085
 7509W        W72670  41.817  22.201  10.627
 7510W        W72671  22.368  34.967   4.929
 7511W        W72672  24.212  40.577  11.538
 7512W        W72673   1.526  23.591  13.094
 7513W        W72674   7.786  14.830  11.323
 7514W        W72675  28.417  36.551  13.382
 7515W        W72676  32.683  20.251  11.132
 7516W        W72677  23.579   5.370   0.718
 7517W        W72678  14.849  17.306  14.949
 7518W        W72679  19.476   0.577  11.691
 7519W        W72680  40.988  32.959   3.610
 7520W        W72681  37.368  32.479   3.675
 7521W        W72682  15.978  43.918  10.566
 7522W        W72683  20.989  35.038  13.864
 7523W        W72684  26.327   4.182  11.825
 7524W        W72685  29.908  15.058  12.469
 7525W        W72686  26.650   1.934  11.592
 7526W        W72687   1.066  24.488  13.398
 7527W        W72688  42.935  14.581   1.836
 7528W        W72689   4.245   2.538   0.256
 7529W        W72690   4.944  43.118  11.414
 7530W        W72691  10.112  37.787  11.561
 7531W        W72692  40.528  32.704  12.076
 7532W        W72693  17.178  33.348  13.480
 7533W        W72694  11.117   4.694   2.196
 7534W        W72695  19.185   5.446   0.012
 7535W        W72696  33.301  30.957  14.937
 7536W        W72697  31.895  33.340   4.000
 7537W        W72698  34.360  26.640   2.794
 7538W        W72699  14.403  23.014   4.194
 7539W        W72700  28.620  19.239   0.011
 7540W        W72701  14.973  41.161   4.067
 7541W        W72702  12.378  18.559  13.512
 7542W        W72703   3.510  28.541  12.904
 7543W        W72704   7.267  23.698  12.575
 7544W        W72705  41.280  16.648   3.095
 7545W        W72706  22.801  44.935   2.139
 7546W        W72707  24.246  41.873   3.223
 7547W        W72708  12.036  24.622   0.979
 7548W        W72709   1.961   0.995  11.167
 7549W        W72710  44.290   1.134   4.629
 7550W        W72711  29.587  40.811   2.280
 7551W        W72712  12.341  37.928   4.338
 7552W        W72713  29.705  30.678  12.758
 7553W        W72714  15.524  17.441  11.745
 7554W        W72715  11.744  10.277  11.194
 7555W        W72716  41.919   6.822  12.760
 7556W        W72717  41.972  28.584   1.507
 7557W        W72718   9.108  26.631  10.520
 7558W        W72719  35.784  15.808  11.518
 7559W        W72720  25.032  42.321  14.794
 7560W        W72721   8.156   9.241   1.746
 7561W        W72722  19.830   1.900  11.092
 7562W        W72723  40.086  22.131   3.176
 7563W        W72724  36.369  34.203  14.748
 7564W        W72725  11.693  30.959  12.104
 7565W        W72726  32.267  40.168   5.200
 7566W        W72727  18.953   6.930   2.183
 7567W        W72728  40.463  31.152   4.730
 7568W        W72729  40.650  28.269   4.486
 7569W        W72730  35.628  18.041  14.405
 7570W        W72731  35.100  22.350   4.565
 7571W        W72732   1.014   1.380  14.061
 7572W        W72733  23.540  16.673  11.600
 7573W        W72734  43.122  12.882   2.241
 7574W        W72735  33.900  39.954   4.123
 7575W        W72736  22.132  22.519  14.731
 7576W        W72737  11.263  29.756   0.836
 7577W        W72738   1.444   4.876  13.507
 7578W        W72739  34.950  13.038   2.347
 7579W        W72740  17.174  24.078  10.793
 7580W        W72741  37.332  27.031  11.124
 7581W        W72742  30.732  15.410   1.301
 7582W        W72743   6.991  37.017   3.224
 7583W        W72744  43.826  40.129   3.275
 7584W        W72745  30.481  29.150   4.079
 7585W        W72746  28.154  42.516   3.102
 7586W        W72747  14.359  39.329  11.650
 7587W        W72748  43.895  36.172   3.657
 7588W        W72749  21.321  18.123  13.923
 7589W        W72750  39.559  14.112  13.823
 7590W        W72751  25.993  16.309  12.151
 7591W        W72752  40.205  37.268  14.628
 7592W        W72753   0.771  17.908  14.490
 7593W        W72754  18.748  12.061  11.892
 7594W        W72755  13.823  11.822  11.236
 7595W        W72756   4.339  37.782  10.364
 7596W        W72757  40.461  32.441  11.076
 7597W        W72758   5.325  16.653  10.786
 7598W        W72759  24.506  26.652  14.898
 7599W        W72760  10.213  19.037  12.576
 7600W        W72761  14.853   5.292  14.396
 7601W        W72762  31.327  35.244  13.820
 7602W        W72763  22.626  37.139   0.330
 7603W        W72764   6.232  12.396   2.170
 7604W        W72765  30.330  37.903  11.636
 7605W        W72766  39.757  14.250  10.927
 7606W        W72767  41.970  31.581  12.020
 7607W        W72768  13.580  35.071   2.337
 7608W        W72769  28.139  33.949   4.156
 7609W        W72770  31.333  11.836   3.217
 7610W        W72771  28.962   1.706  12.002
 7611W        W72772  14.295  28.192  13.378
 7612W        W72773  33.858   6.771   2.772
 7613W        W72774  26.640  44.546   2.722
 7614W        W72775   9.793   8.867  12.403
 7615W        W72776  21.403  15.780   1.601
 7616W        W72777   5.250  42.326  10.984
 7617W        W72778  23.186  23.714   2.386
 7618W        W72779  39.014   7.728   0.860
 7619W        W72780   2.882  23.103  11.257
 7620W        W72781   0.714   4.500  12.453
 7621W        W72782  21.323  40.731  14.807
 7622W        W72783  35.914  34.008  14.891
 7623W        W72784   7.496  21.670  13.356
 7624W        W72785  42.413  33.700  14.838
 7625W        W72786  10.864  18.509   0.712
 7626W        W72787  10.269  41.873  13.769
 7627W        W72788  35.594  16.206   4.638
 7628W        W72789  22.100   5.528   1.939
 7629W        W72790  23.286  17.147  11.553
 7630W        W72791  24.480  36.774   0.453
 7631W        W72792   9.445   9.784  13.870
 7632W        W72793  17.336  27.895   3.044
 7633W        W72794  24.021  27.693  14.503
 7634W        W72795  13.351  38.921   3.058
 7635W        W72796  21.246  17.626  13.999
 7636W        W72797  21.011  18.163   0.307
 7637W        W72798  18.761  36.067   4.242
 7638W        W72799  44.059  29.902   3.685
 7639W        W72800  33.070  15.641   4.913
 7640W        W72801  31.530   7.448   2.333
 7641W        W72802   0.033   1.621  11.927
 7642W        W72803  40.788  16.388  14.714
 7643W        W72804   7.422   1.861  12.103
 7644W        W72805  32.712  26.965  10.764
 7645W        W72806  22.499   9.749  14.376
 7646W        W72807  34.877  20.570  14.089
 7647W        W72808  20.879  22.167   0.362
 7648W        W72809  19.099  41.266   1.375
 7649W        W72810  35.845  37.536  12.104
 7650W        W72811  41.578  27.213   0.355
 7651W        W72812  18.085  14.994  12.096
 7652W        W72813  27.992  13.633  13.976
 7653W        W72814  41.888  23.656  14.983
 7654W        W72815  28.750   3.305   1.952
 7655W        W72816  41.308  18.760   0.764
 7656W        W72817  25.186   7.707   0.407
 7657W        W72818  21.125  36.972   0.545
 7658W        W72819   9.182   8.477  10.842
 7659W        W72820  31.306  40.406  10.650
 7660W        W72821  21.360   9.860   0.352
 7661W        W72822  29.128  20.985  14.731
 7662W        W72823  13.300  12.065   4.359
 7663W        W72824   6.432  40.281  11.482
 7664W        W72825  25.350  41.303   0.959
 7665W        W72826  41.819  40.357   0.285
 7666W        W72827   4.660  27.682   0.812
 7667W        W72828  11.692  21.695  10.925
 7668W        W72829   8.954   8.867   4.255
 7669W        W72830  30.487   6.150   4.161
 7670W        W72831   4.915  11.066  13.997
 7671W        W72832  30.110  12.158   2.763
 7672W        W72833  23.428  27.821  10.933
 7673W        W72834   0.215  35.880   2.037
 7674W        W72835  35.827  29.670  13.891
 7675W        W72836   9.757  41.770   2.876
 7676W        W72837  21.025   6.729   4.476
 7677W        W72838  22.679  30.114  13.448
 7678W        W72839  21.066  36.012   2.757
 7679W        W72840  37.996  18.308   4.720
 7680W        W72841  41.276  26.658   2.368
 7681W        W72842   2.167  10.302   5.030
 7682W        W72843  31.628   1.170   1.328
 7683W        W72844  24.499  37.679  13.779
 7684W        W72845  10.333  39.141   2.420
 7685W        W72846  11.662   3.318  14.776
 7686W        W72847  39.140  30.621  10.477
 7687W        W72848   6.648  18.207   2.690
 7688W        W72849  10.171  14.099  12.542
 7689W        W72850  17.161  18.608  14.794
 7690W        W72851  11.592  37.543  14.304
 7691W        W72852  14.546   8.994   5.101
 7692W        W72853  37.458  44.892  11.639
 7693W        W72854  11.704   4.387  14.360
 7694W        W72855  34.635  35.646  12.423
 7695W        W72856   9.798   0.176  13.737
 7696W        W72857  28.187  40.320  10.889
 7697W        W72858  22.972  30.429  12.488
 7698W        W72859  20.912  41.835  14.287
 7699W        W72860  43.266  27.956   3.146
 7700W        W72861  23.679   8.351  14.714
 7701W        W72862  20.816  44.867   2.280
 7702W        W72863   4.483  37.940   4.425
 7703W        W72864  34.149   4.001   4.201
 7704W        W72865  16.549  19.640   4.569
 7705W        W72866   7.370  25.748   1.745
 7706W        W72867  31.696  27.515   0.934
 7707W        W72868   1.252  31.850  11.388
 7708W        W72869  43.107  27.952   0.898
 7709W        W72870   0.435  28.311   3.121
 7710W        W72871   8.449  41.454  14.490
 7711W        W72872  29.554  39.438   4.582
 7712W        W72873  20.591  13.320  11.007
 7713W        W72874  25.288  27.659   0.635
 7714W        W72875  14.156  12.124  11.500
 7715W        W72876  21.006  43.931  13.684
 7716W        W72877   6.467   8.835  13.061
 7717W        W72878   5.002  31.154   3.366
 7718W        W72879   4.657   3.416   1.753
 7719W        W72880  39.091   5.277  12.325
 7720W        W72881  16.973  21.952   3.699
 7721W        W72882  30.984   1.877  11.989
 7722W        W72883   9.523  37.027   4.953
 7723W        W72884  26.987  34.284  13.428
 7724W        W72885   8.435  19.794   0.665
 7725W        W72886  31.266  13.617  12.030
 7726W        W72887  42.571   5.520  11.877
 7727W        W72888  39.719  23.559  11.872
 7728W        W72889   7.683   5.662   0.543
 7729W        W72890  34.439  36.528  10.450
 7730W        W72891  40.312  43.972   1.797
 7731W        W72892  37.218  18.955   2.049
 7732W        W72893  25.450  37.132   3.010
 7733W        W72894   0.293   8.741  11.572
 7734W        W72895   9.336   0.706  10.719
 7735W        W72896  34.172  10.923  11.185
 7736W        W72897  21.153  23.241  13.985
 7737W        W72898   2.369  27.662   0.477
 7738W        W72899  40.495  24.580   1.216
 7739W        W72900  43.767  33.982  10.765
 7740W        W72901  27.444  19.413   3.658
 7741W        W72902  28.096  15.915  12.438
 7742W        W72903  20.192  10.558  11.038
 7743W        W72904   6.746   8.737  13.488
 7744W        W72905  19.558   3.759   3.396
 7745W        W72906  39.526  12.406  11.173
 7746W        W72907   9.273  35.031  14.955
 7747W        W72908  18.065  37.388  11.144
 7748W        W72909  36.706  24.603   1.785
 7749W        W72910  13.109   7.411  11.198
 7750W        W72911   5.856  22.203  14.266
 7751W        W72912  10.547  25.222   0.347
 7752W        W72913  13.726  36.429  14.576
 7753W        W72914  13.744  44.819   3.265
 7754W        W72915   5.220  20.337  13.640
 7755W        W72916  17.443  20.202  13.958
 7756W        W72917   3.689  35.747   1.407
 7757W        W72918  38.742  34.847   4.579
 7758W        W72919  34.730   4.114   2.754
 7759W        W72920  37.509  19.301   1.809
 7760W        W72921   0.433  11.160  11.336
 7761W        W72922  42.095   8.944  11.099
 7762W        W72923  39.487  39.402  10.796
 7763W        W72924  28.383  26.083   0.844
 7764W        W72925  19.118  43.629   0.844
 7765W        W72926  29.552  39.992   1.195
 7766W        W72927  20.074  31.045  14.725
 7767W        W72928  25.518  43.355   3.238
 7768W        W72929  27.230  10.710   1.875
 7769W        W72930  20.345  22.613   2.381
 7770W        W72931  32.386   7.926  12.262
 7771W        W72932  43.976  20.058  13.051
 7772W        W72933  12.728  12.079   3.172
 7773W        W72934   7.384  26.051   2.609
 7774W        W72935  25.489  36.439  14.727
 7775W        W72936  30.446   5.372  14.850
 7776W        W72937   0.759  12.187   3.123
 7777W        W72938  13.317  42.367  11.686
 7778W        W72939  30.854   9.135  14.770
 7779W        W72940  25.889  22.121  13.115
 7780W        W72941   4.945  24.041  13.289
 7781W        W72942  36.384   1.858  12.639
 7782W        W72943  33.560  43.580   5.548
 7783W        W72944  41.372  42.164   3.122
 7784W        W72945  38.015  21.072  13.477
 7785W        W72946  22.856  23.949  14.453
 7786W        W72947  32.094  42.269   1.788
 7787W        W72948   1.006  40.410  12.882
 7788W        W72949  16.565   5.695   4.097
 7789W        W72950  12.738   9.139  10.711
 7790W        W72951  13.804   5.074   3.313
 7791W        W72952  38.005  12.333  11.451
 7792W        W72953  23.029  12.438   1.804
 7793W        W72954  25.449   1.481   2.190
 7794W        W72955  19.118  41.796   0.315
 7795W        W72956  27.297  33.091   3.617
 7796W        W72957  23.034  34.435   3.282
 7797W        W72958  29.878  34.582  12.002
 7798W        W72959  36.987   9.804  10.777
 7799W        W72960  25.214  42.488   4.532
 7800W        W72961  23.624   6.712   0.442
 7801W        W72962  35.079  17.472  13.397
 7802W        W72963   1.790   7.701  11.690
 7803W        W72964   6.206  33.577   9.968
 7804W        W72965   8.595  37.842   3.788
 7805W        W72966  26.112  15.302  14.426
 7806W        W72967   7.646  32.589   1.379
 7807W        W72968  41.303  19.842  13.399
 7808W        W72969  25.556   9.705   2.702
 7809W        W72970  20.290  37.646  11.886
 7810W        W72971  21.788  15.600  13.019
 7811W        W72972  30.350  12.923   1.200
 7812W        W72973   7.310  17.802  13.286
 7813W        W72974  23.889   7.756  12.018
 7814W        W72975   1.930  43.482   3.094
 7815W        W72976  35.795  15.615   0.390
 7816W        W72977  17.180  43.630   2.359
 7817W        W72978  38.134   1.258  11.880
 7818W        W72979  31.538  39.722   3.120
 7819W        W72980  24.648  36.231   3.167
 7820W        W72981  12.688  44.420   1.646
 7821W        W72982  28.651  11.396  11.367
 7822W        W72983  42.258   4.124  14.746
 7823W        W72984  39.885  38.658  14.764
 7824W        W72985  10.097  15.355  11.917
 7825W        W72986   1.958   3.398   1.898
 7826W        W72987  29.466  12.915   3.095
 7827W        W72988  38.094  21.533  11.911
 7828W        W72989  35.300  15.415   3.692
 7829W        W72990  22.596  44.881   4.810
 7830W        W72991  30.104  10.952   0.353
 7831W        W72992   6.872  26.837   0.288
 7832W        W72993  30.238  14.619   0.707
 7833W        W72994  18.779  27.053   3.546
 7834W        W72995  25.766   0.185  14.469
 7835W        W72996  40.174  30.017   4.068
 7836W        W72997   2.808  18.099   4.166
 7837W        W72998  37.955  19.540   1.844
 7838W        W72999   5.485  18.524  14.418
 7839W        W73000  18.315   2.545   0.336
 7840W        W73001  13.230   4.941   1.577
 7841W        W73002  44.849  25.461   4.691
 7842W        W73003  31.199  14.014   0.563
 7843W        W73004  35.119   8.788   5.352
 7844W        W73005  16.786  24.564  10.854
 7845W        W73006   6.177  32.993   2.663
 7846W        W73007  42.413  42.357   4.068
 7847W        W73008  43.411  25.966   2.377
 7848W        W73009  21.171  24.683  14.972
 7849W        W73010  41.598  42.352   2.144
 7850W        W73011  39.212  16.883  11.320
 7851W        W73012  37.625  35.826   3.567
 7852W        W73013  29.378   0.275   2.639
 7853W        W73014  41.035  20.497  11.205
 7854W        W73015  26.788  26.517  12.036
 7855W        W73016  39.805  32.398  10.640
 7856W        W73017   9.713  36.629   4.673
 7857W        W73018   3.443  29.347   2.958
 7858W        W73019  19.731  33.578   2.955
 7859W        W73020  22.232  17.317   3.164
 7860W        W73021  20.341  14.231   2.243
 7861W        W73022  40.412  44.221   1.326
 7862W        W73023  30.823  38.354   4.317
 7863W        W73024  40.462  36.518   2.844
 7864W        W73025  36.924  22.444  13.056
 7865W        W73026  26.962  31.590   3.603
 7866W        W73027   4.895  16.290   4.528
 7867W        W73028  30.967  21.047   2.087
 7868W        W73029  16.199  28.013   2.344
 7869W        W73030  13.868  34.650   0.078
 7870W        W73031  20.568  19.749   0.839
 7871W        W73032  35.399  23.922   1.907
 7872W        W73033  27.960  44.882   1.513
 7873W        W73034  17.713  31.614  11.417
 7874W        W73035  21.281   5.968  14.320
 7875W        W73036  24.059  42.274  12.878
 7876W        W73037  10.144  39.041   0.428
 7877W        W73038  15.691  37.737  10.710
 7878W        W73039  33.343  17.354  10.299
 7879W        W73040  38.990  35.038  13.886
 7880W        W73041  15.715  21.945   2.255
 7881W        W73042  44.322  19.676  13.196
 7882W        W73043  40.294   7.351  11.636
 7883W        W73044  25.859   4.311  14.930
 7884W        W73045  31.422  25.749  13.995
 7885W        W73046  14.076  31.412  14.478
 7886W        W73047   0.768   3.387  14.620
 7887W        W73048  14.603  23.239   4.606
 7888W        W73049  18.599  31.522  13.817
 7889W        W73050  21.488  43.292   4.334
 7890W        W73051  19.141  43.759  14.479
 7891W        W73052  40.432   4.769  12.333
 7892W        W73053  23.620  21.508  11.981
 7893W        W73054  26.505  39.676  13.385
 7894W        W73055  30.133   0.694   2.785
 7895W        W73056  19.326  43.066   2.212
 7896W        W73057   0.131  29.173   3.157
 7897W        W73058  20.531  22.393  10.098
 7898W        W73059  23.605  21.493  13.409
 7899W        W73060   4.969  40.242   1.879
 7900W        W73061  27.583  31.259  10.766
 7901W        W73062   5.186   2.744  13.123
 7902W        W73063  21.612   7.645  12.174
 7903W        W73064  29.543  15.438   2.776
 7904W        W73065  13.794  31.419   0.547
 7905W        W73066  17.607  32.943  12.629
 7906W        W73067  12.443  22.199  14.442
 7907W        W73068  28.089  28.641   4.766
 7908W        W73069  44.022   0.139   2.269
 7909W        W73070  18.568  29.686  11.440
 7910W        W73071   1.073   8.365  10.675
 7911W        W73072  34.198   3.124  10.974
 7912W        W73073  28.993  16.346   3.675
 7913W        W73074  29.588  33.428   4.072
 7914W        W73075  17.570  22.529  12.064
 7915W        W73076   8.367  42.430   4.390
 7916W        W73077  37.914  18.949  14.322
 7917W        W73078  38.363   3.955   2.793
 7918W        W73079  16.884  35.097   4.182
 7919W        W73080  22.500   9.435   3.283
 7920W        W73081  31.421  26.828  10.796
 7921W        W73082  22.981  15.607   1.822
 7922W        W73083   6.800  24.939   4.466
 7923W        W73084  34.051   3.004   2.915
 7924W        W73085  44.238  17.207  13.850
 7925W        W73086  35.585  22.816   0.401
 7926W        W73087  38.953  11.091  12.113
 7927W        W73088  39.955   8.101   2.348
 7928W        W73089  44.400  36.556  13.576
 7929W        W73090  25.017   7.603  14.505
 7930W        W73091  26.077  26.410  13.539
 7931W        W73092   9.190  32.139   3.144
 7932W        W73093  34.623  18.428   1.147
 7933W        W73094  24.978  44.739   4.228
 7934W        W73095  21.050  21.487  10.612
 7935W        W73096  31.694  24.877   1.167
 7936W        W73097  39.115  28.257  12.020
 7937W        W73098  23.202   8.393  14.334
 7938W        W73099  15.586  11.682  13.809
 7939W        W73100  11.425  11.753  12.474
 7940W        W73101   3.422  34.826   2.202
 7941W        W73102  10.779  40.610   4.672
 7942W        W73103   1.714   1.143  12.525
 7943W        W73104  21.292  21.041  11.547
 7944W        W73105  44.891  26.475  14.538
 7945W        W73106  23.105  42.062  10.074
 7946W        W73107  34.067  25.303  13.516
 7947W        W73108  21.005  29.402   4.136
 7948W        W73109  30.173  22.569  14.411
 7949W        W73110  28.649  41.378  11.496
 7950W        W73111  30.932  16.257   1.512
 7951W        W73112  25.164   7.415   0.844
 7952W        W73113  43.822   1.793   3.832
 7953W        W73114  30.593  37.204  14.922
 7954W        W73115   7.332  44.435  14.493
 7955W        W73116  42.162  18.986  13.040
 7956W        W73117   3.884  29.881  14.790
 7957W        W73118  28.400  44.904  13.335
 7958W        W73119   7.339  35.853   0.428
 7959W        W73120  10.891  42.096   3.051
 7960W        W73121  28.429   5.110  10.664
 7961W        W73122  30.475   6.754   2.716
 7962W        W73123   4.915  20.904   3.257
 7963W        W73124  15.821  29.708   0.421
 7964W        W73125   3.369  12.125  12.837
 7965W        W73126   4.151  38.846  14.404
 7966W        W73127   0.479  13.632   2.763
 7967W        W73128   1.316  42.291   1.673
 7968W        W73129   2.241   1.899   0.515
 7969W        W73130  20.928  11.137   3.105
 7970W        W73131  26.459  35.573   3.694
 7971W        W73132   6.875  37.842   0.758
 7972W        W73133  32.028  19.696  14.832
 7973W        W73134  32.339  44.829   4.124
 7974W        W73135   4.707  21.180  13.441
 7975W        W73136  10.981  38.451  14.305
 7976W        W73137  27.417  26.509   2.039
 7977W        W73138   2.016  34.472   1.764
 7978W        W73139  39.744  16.319   2.265
 7979W        W73140   4.306  37.062   4.588
 7980W        W73141  43.426  41.500  14.540
 7981W        W73142  30.340  26.445  12.431
 7982W        W73143  36.545  22.088  10.953
 7983W        W73144  41.902   1.805   2.311
 7984W        W73145   6.183   6.387   4.012
 7985W        W73146   8.925  27.093  12.471
 7986W        W73147   9.730  16.179  12.848
 7987W        W73148   7.354  10.685   4.178
 7988W        W73149  11.155  14.956   2.957
 7989W        W73150  33.418   6.554  10.794
 7990W        W73151  32.661  30.729  12.925
 7991W        W73152  35.389   5.542   0.380
 7992W        W73153  38.889  25.773   0.522
 7993W        W73154  43.386   0.480   3.821
 7994W        W73155  33.559  28.053   0.270
 7995W        W73156  32.688  44.135   0.797
 7996W        W73157  28.931  13.301   3.729
 7997W        W73158   1.313  14.870   3.448
 7998W        W73159  27.094  18.586   1.230
 7999W        W73160  35.497  13.014   4.101
 8000W        W73161  15.009  23.581   4.630
 8001W        W73162   5.723   5.335   2.333
 8002W        W73163  17.968  27.758  12.569
 8003W        W73164  31.659  41.794   0.847
 8004W        W73165  31.999  15.027   2.240
 8005W        W73166  35.426  33.421   3.107
 8006W        W73167  30.356  29.339   3.226
 8007W        W73168   6.817  16.763   0.441
 8008W        W73169  37.334  38.776  14.072
 8009W        W73170  29.078  17.169  12.101
 8010W        W73171  15.734   5.647   0.038
 8011W        W73172  38.247  35.646   4.594
 8012W        W73173  32.485   5.740  11.203
 8013W        W73174  16.815  21.320  12.493
 8014W        W73175   5.035  33.595   0.773
 8015W        W73176  20.735  13.506   4.748
 8016W        W73177   6.287  20.552   2.650
 8017W        W73178  19.704   7.914   0.803
 8018W        W73179  29.202  33.917   0.695
 8019W        W73180  10.652  40.355   3.295
 8020W        W73181  30.805  36.468   4.894
 8021W        W73182  19.655  14.489  14.699
 8022W        W73183  10.865  34.937  10.598
 8023W        W73184  14.247  12.126   3.537
 8024W        W73185   4.163   2.253   4.241
 8025W        W73186  26.676  40.085  14.759
 8026W        W73187   5.452  35.634  13.772
 8027W        W73188   1.275  11.297   9.879
 8028W        W73189  38.312  12.530   1.265
 8029W        W73190  44.302  39.597  11.634
 8030W        W73191  43.734  21.445   4.619
 8031W        W73192  43.597  34.307  12.953
 8032W        W73193   5.345  24.681   0.907
 8033W        W73194  43.947  22.831   3.332
 8034W        W73195  36.351  36.505  10.690
 8035W        W73196   3.412   0.556   4.596
 8036W        W73197  12.211   1.946   0.406
 8037W        W73198   9.183   6.658   3.618
 8038W        W73199  18.740  33.484   1.979
 8039W        W73200  25.768  14.725   0.354
 8040W        W73201  31.189  19.793  11.765
 8041W        W73202  22.987   3.306   2.736
 8042W        W73203  27.533  27.459  13.947
 8043W        W73204  21.517  17.856  14.362
 8044W        W73205  41.014  16.622  10.703
 8045W        W73206  13.153  16.663   1.305
 8046W        W73207  35.880   6.778   4.126
 8047W        W73208  11.470  33.367   1.069
 8048W        W73209   0.569  37.880  13.645
 8049W        W73210  24.956  28.091  12.597
 8050W        W73211  11.706  40.810   0.341
 8051W        W73212   5.414  33.480   3.672
 8052W        W73213   1.855   1.779   4.066
 8053W        W73214  12.056  16.419  11.730
 8054W        W73215  43.657  16.617  12.895
 8055W        W73216   0.429  12.943   2.217
 8056W        W73217  23.938  10.249  12.451
 8057W        W73218  32.901  33.142   2.161
 8058W        W73219   6.277  24.028  14.317
 8059W        W73220  37.031  43.174   1.365
 8060W        W73221  34.038   1.445   0.304
 8061W        W73222   1.483  38.913   4.024
 8062W        W73223  41.216  44.657   3.198
 8063W        W73224  41.350   7.393   2.843
 8064W        W73225   9.253  25.690   0.713
 8065W        W73226  30.936  10.971  13.428
 8066W        W73227  35.031  14.159   4.702
 8067W        W73228  21.043  30.458  11.252
 8068W        W73229  33.661  22.957   4.453
 8069W        W73230  25.046  23.730   1.961
 8070W        W73231  21.555  21.545   0.433
 8071W        W73232   4.874  33.854   2.019
 8072W        W73233  29.383  23.676   1.727
 8073W        W73234  43.385  22.524   1.684
 8074W        W73235   9.261  44.447  10.076
 8075W        W73236   8.177  41.036   0.478
 8076W        W73237  38.059  27.212   3.415
 8077W        W73238  20.440  18.700  13.929
 8078W        W73239   1.784   7.175  14.899
 8079W        W73240  35.341  19.207   1.930
 8080W        W73241  28.095  33.880   1.941
 8081W        W73242  38.048  29.437  12.034
 8082W        W73243  19.110   6.224   1.834
 8083W        W73244  27.039  27.414  13.767
 8084W        W73245  37.755  30.928  10.856
 8085W        W73246  29.925  12.592  10.721
 8086W        W73247   3.669  24.992  11.129
 8087W        W73248  38.961  11.166   4.691
 8088W        W73249  19.832  37.908   1.442
 8089W        W73250  17.055   2.163  13.882
 8090W        W73251  24.909   7.115  14.348
 8091W        W73252  11.792  17.647   0.436
 8092W        W73253   0.509  28.112  12.485
 8093W        W73254  37.674  20.183  12.021
 8094W        W73255   0.262  10.733  14.977
 8095W        W73256  43.765   6.581   0.782
 8096W        W73257  20.772  10.354  12.146
 8097W        W73258  10.486  13.812   4.123
 8098W        W73259   2.851  42.955  14.498
 8099W        W73260  42.208  32.996  14.181
 8100W        W73261  28.917   6.420   1.259
 8101W        W73262  39.918  25.273  12.821
 8102W        W73263  24.050  28.145  12.503
 8103W        W73264  38.739  17.642  11.324
 8104W        W73265  43.947  39.477  10.538
 8105W        W73266  33.334  34.594  11.051
 8106W        W73267  18.359  40.566   0.424
 8107W        W73268  23.153  28.886   1.161
 8108W        W73269   1.327  22.634  13.560
 8109W        W73270  22.279  28.139  14.340
 8110W        W73271  43.555  34.537  14.801
 8111W        W73272  12.348  24.630  11.767
 8112W        W73273   0.733  42.208   2.870
 8113W        W73274   7.238  12.112   4.099
 8114W        W73275  22.050   0.267   3.576
 8115W        W73276  33.485   2.914   5.231
 8116W        W73277  27.623  14.374   0.870
 8117W        W73278   7.645   3.021  13.412
 8118W        W73279  13.142  38.996  10.373
 8119W        W73280  28.459  43.373  14.210
 8120W        W73281  20.643   5.822   2.729
 8121W        W73282  38.464  27.538   3.438
 8122W        W73283  43.450   0.766  12.290
 8123W        W73284  32.981   8.762   3.649
 8124W        W73285  23.650  11.142  13.581
 8125W        W73286  31.308  30.672  14.423
 8126W        W73287  31.384  40.452   4.723
 8127W        W73288  14.343  16.220  13.075
 8128W        W73289  12.241   2.377  12.489
 8129W        W73290  27.391  13.239  12.923
 8130W        W73291  19.965  37.904   4.849
 8131W        W73292  40.799  28.899   2.819
 8132W        W73293  24.506  39.473  12.055
 8133W        W73294  22.499  10.889   2.832
 8134W        W73295  37.845  29.149  11.107
 8135W        W73296  21.979  44.802  11.044
 8136W        W73297  12.725  10.894  12.493
 8137W        W73298   5.920  13.684  14.866
 8138W        W73299  27.881  34.916  10.487
 8139W        W73300  14.128  34.178   4.363
 8140W        W73301  15.689   3.726  13.912
 8141W        W73302  33.554  23.057   1.498
 8142W        W73303  39.788  20.791   3.216
 8143W        W73304  41.978  40.086  14.322
 8144W        W73305  33.101  35.665   3.253
 8145W        W73306   5.231  41.019  14.051
 8146W        W73307  24.151   8.983  14.172
 8147W        W73308  10.567  33.646  10.894
 8148W        W73309  10.338  17.953   9.894
 8149W        W73310   4.715  25.250   0.925
 8150W        W73311  24.043  42.035  14.976
 8151W        W73312  42.301  31.995  13.473
 8152W        W73313  38.020  23.325  10.721
 8153W        W73314  40.032   9.792   4.867
 8154W        W73315  13.606  31.051  12.310
 8155W        W73316   2.840  10.326  12.402
 8156W        W73317  18.608  11.062   3.778
 8157W        W73318  24.216  44.465  12.700
 8158W        W73319  23.429  33.898  12.009
 8159W        W73320  26.531   1.358   3.161
 8160W        W73321  38.150  13.623   3.455
 8161W        W73322  42.035  14.132   2.489
 8162W        W73323  37.369  20.805   1.627
 8163W        W73324  24.935  29.859   0.874
 8164W        W73325  24.094  40.769   3.979
 8165W        W73326  23.614  42.245  13.144
 8166W        W73327  35.766   8.926  13.025
 8167W        W73328  23.756  22.601   1.381
 8168W        W73329  30.751  38.850  11.708
 8169W        W73330  38.369   4.290  11.767
 8170W        W73331  21.740  27.632   0.987
 8171W        W73332  36.288  40.801  13.273
 8172W        W73333  19.629  13.807   4.404
 8173W        W73334  15.754   6.340  12.436
 8174W        W73335  26.084  29.562  14.783
 8175W        W73336  31.103   7.734   3.369
 8176W        W73337  23.966   9.673  12.442
 8177W        W73338  14.376  21.539   2.777
 8178W        W73339  16.168   3.522  13.815
 8179W        W73340  40.157   2.688  14.766
 8180W        W73341  11.795  24.257   2.242
 8181W        W73342  22.133  13.366   2.671
 8182W        W73343  43.777  34.148  11.238
 8183W        W73344   1.276  17.401   4.506
 8184W        W73345  26.050  43.241   0.374
 8185W        W73346  16.635   5.657   4.726
 8186W        W73347  28.816  22.484   2.868
 8187W        W73348  42.916  17.637   1.857
 8188W        W73349  40.968  44.716   3.685
 8189W        W73350  41.839  13.797  10.689
 8190W        W73351   4.790  20.131   1.253
 8191W        W73352   6.757  20.490   0.937
 8192W        W73353  38.004  43.410   2.380
 8193W        W73354  32.693   1.379  13.333
 8194W        W73355  22.397  38.498  13.541
 8195W        W73356  20.655  19.280  14.820
 8196W        W73357   9.670  38.737  13.951
 8197W        W73358   8.956   9.687  12.946
 8198W        W73359   6.269   4.049   2.704
 8199W        W73360  36.668  42.948   4.086
 8200W        W73361   8.165  31.849  14.354
 8201W        W73362  33.073  30.996   0.925
 8202W        W73363  11.682   7.305  11.876
 8203W        W73364  40.294  11.812   4.369
 8204W        W73365  31.369   6.644   1.669
 8205W        W73366   9.408  33.942   4.682
 8206W        W73367  28.084  18.032   9.916
 8207W        W73368   1.652  17.088   3.589
 8208W        W73369  19.730   2.420  12.097
 8209W        W73370  19.250  34.307  13.509
 8210W        W73371  43.727  10.570  12.553
 8211W        W73372  32.172  34.945  13.339
 8212W        W73373  28.416  12.160   2.111
 8213W        W73374  34.978  20.055  10.925
 8214W        W73375  23.757   2.552  13.058
 8215W        W73376  15.106  44.020   3.700
 8216W        W73377  39.838  29.674   0.916
 8217W        W73378  19.451  39.307   9.818
 8218W        W73379  44.051   7.840   1.236
 8219W        W73380  26.424  23.257  13.001
 8220W        W73381   3.540   9.828  14.261
 8221W        W73382  13.626   6.344   1.809
 8222W        W73383  32.430  44.942  12.992
 8223W        W73384  33.287  20.781  10.728
 8224W        W73385  30.461  43.749  12.862
 8225W        W73386  29.905  20.457  11.069
 8226W        W73387  36.939  11.867   4.329
 8227W        W73388  13.478  23.814  10.369
 8228W        W73389  24.292  11.461  11.779
 8229W        W73390  16.141  34.089   3.615
 8230W        W73391  30.151  42.294  13.940
 8231W        W73392  43.280  16.817  11.644
 8232W        W73393  22.034   5.371   0.732
 8233W        W73394  34.886  30.617   3.518
 8234W        W73395  34.400  17.162  10.570
 8235W        W73396  35.277   3.349   1.174
 8236W        W73397  14.132  41.980  12.969
 8237W        W73398   2.726  37.267   3.726
 8238W        W73399  22.090  20.231  12.360
 8239W        W73400  43.589  42.312   0.829
 8240W        W73401  23.169  24.224   4.519
 8241W        W73402  25.562  36.660  11.928
 8242W        W73403  24.654  43.104  11.447
 8243W        W73404  38.440  36.530  10.653
 8244W        W73405  41.091  27.143  11.506
 8245W        W73406  23.152  36.900  13.123
 8246W        W73407   7.816  31.835  11.584
 8247W        W73408  17.825   6.477   0.502
 8248W        W73409   3.787  15.513   2.763
 8249W        W73410  32.444  11.143   2.849
 8250W        W73411  25.155  33.195   2.743
 8251W        W73412  31.894   5.253  10.641
 8252W        W73413  33.596  25.351  14.219
 8253W        W73414  32.445   9.202  11.598
 8254W        W73415  18.579  43.549   0.314
 8255W        W73416  21.939  10.863   1.777
 8256W        W73417   0.512  21.081   3.221
 8257W        W73418  41.745  17.855  14.712
 8258W        W73419  37.041   3.098   5.353
 8259W        W73420  14.146   3.387  11.981
 8260W        W73421  15.687   1.510  11.842
 8261W        W73422   4.458  17.053   4.358
 8262W        W73423  12.994   9.941  11.576
 8263W        W73424   5.582  31.541   2.806
 8264W        W73425  42.816  36.763   2.420
 8265W        W73426  13.820  43.486   2.774
 8266W        W73427  10.401  37.891   4.509
 8267W        W73428  43.650  23.640   4.581
 8268W        W73429  28.042  19.789   4.099
 8269W        W73430  34.946   9.370  12.463
 8270W        W73431  25.174  22.579   2.699
 8271W        W73432  31.914  43.495  13.820
 8272W        W73433  19.159  31.411   2.082
 8273W        W73434  24.200   7.837   4.257
 8274W        W73435  11.799   9.793   0.842
 8275W        W73436  42.950  37.122   2.764
 8276W        W73437  43.880  24.436   4.258
 8277W        W73438  25.089   3.242   5.080
 8278W        W73439   7.832  27.421  11.649
 8279W        W73440  11.345   4.755  11.478
 8280W        W73441   1.024  34.020  13.878
 8281W        W73442  34.118   3.708   1.889
 8282W        W73443   3.966  13.541   2.869
 8283W        W73444  41.348  28.406   4.790
 8284W        W73445  21.688  29.399   3.658
 8285W        W73446  28.212  28.186  14.333
 8286W        W73447   3.432   2.958  14.122
 8287W        W73448   5.751  37.550   0.481
 8288W        W73449  20.563  14.125  14.971
 8289W        W73450  43.880  27.561  14.344
 8290W        W73451   3.826  27.570  12.543
 8291W        W73452   4.921  37.437  11.151
 8292W        W73453  32.937  42.984   4.629
 8293W        W73454  17.085  23.348  13.111
 8294W        W73455  31.001  16.442  12.470
 8295W        W73456   7.844  41.414  12.428
 8296W        W73457   2.524  28.141   0.351
 8297W        W73458  29.122   6.247  11.932
 8298W        W73459   2.509  13.543   9.832
 8299W        W73460  17.764   7.774   2.656
 8300W        W73461  23.486   6.787   3.021
 8301W        W73462  37.850  21.537  12.356
 8302W        W73463  44.219  16.546   4.038
 8303W        W73464  11.721  40.406   1.930
 8304W        W73465   6.289  23.863  10.217
 8305W        W73466  10.762  30.173   3.179
 8306W        W73467   2.219  22.124  13.752
 8307W        W73468  11.222   8.872   2.145
 8308W        W73469   4.416  17.640  11.215
 8309W        W73470  11.138  44.263  14.792
 8310W        W73471  26.093  23.693  14.351
 8311W        W73472  28.441   3.702   4.209
 8312W        W73473  41.796  15.049  12.187
 8313W        W73474  43.382   8.193  10.835
 8314W        W73475  21.412  26.017   4.353
 8315W        W73476  32.245  34.747  11.993
 8316W        W73477  23.012  23.647   3.649
 8317W        W73478   6.215  37.804   0.411
 8318W        W73479  37.994  35.889   1.390
 8319W        W73480  43.347  40.053  12.431
 8320W        W73481  42.274  34.024  13.354
 8321W        W73482  31.566  28.012   5.088
 8322W        W73483  18.908  25.470  11.713
 8323W        W73484  26.536  13.314   0.017
 8324W        W73485  14.268  29.247  12.637
 8325W        W73486  20.262  38.428  14.261
 8326W        W73487   3.855  15.162  14.742
 8327W        W73488   2.954  34.639   2.094
 8328W        W73489   2.343  31.010   1.265
 8329W        W73490   3.843  34.532   3.778
 8330W        W73491  32.837  12.303  13.893
 8331W        W73492  35.845  24.270  12.503
 8332W        W73493   9.902   0.887  13.060
 8333W        W73494   1.855   4.093   3.725
 8334W        W73495   9.597  21.176   3.542
 8335W        W73496  18.618   6.508  12.717
 8336W        W73497  23.019   5.266   0.974
 8337W        W73498  28.278  40.837  11.025
 8338W        W73499   5.743   1.685   1.618
 8339W        W73500  13.608  23.679  12.115
 8340W        W73501  43.407  37.022   1.799
 8341W        W73502  23.991  35.209  11.181
 8342W        W73503  16.122  38.396  12.131
 8343W        W73504  22.680  31.042   3.809
 8344W        W73505  26.036  27.701  11.044
 8345W        W73506  32.145   3.324  14.906
 8346W        W73507  38.038   6.462  11.244
 8347W        W73508  19.179   2.489  10.897
 8348W        W73509  30.925   0.496   2.720
 8349W        W73510   1.944   7.140  13.325
 8350W        W73511  34.141  19.716  12.533
 8351W        W73512  24.428  44.724   0.213
 8352W        W73513  36.292  19.194   4.770
 8353W        W73514  12.374   0.581   4.164
 8354W        W73515  18.121  22.023   1.717
 8355W        W73516  22.570   9.926   3.172
 8356W        W73517  22.147   4.543   1.764
 8357W        W73518  38.894   8.746  14.780
 8358W        W73519  26.621  22.166   0.306
 8359W        W73520  14.489   0.924  10.212
 8360W        W73521  23.456  10.490  12.410
 8361W        W73522  42.302  36.509   9.820
 8362W        W73523  11.971   1.696  11.127
 8363W        W73524   1.205  21.116   2.389
 8364W        W73525  11.721  20.798  11.400
 8365W        W73526  20.105  34.739  11.143
 8366W        W73527  38.071  23.778   3.945
 8367W        W73528  43.133  19.017   1.873
 8368W        W73529  43.740   3.278   3.656
 8369W        W73530  20.705  24.697  11.249
 8370W        W73531  27.965  25.827   1.762
 8371W        W73532  42.729   1.757  11.144
 8372W        W73533  15.719  14.189   2.244
 8373W        W73534   0.345   6.355  13.505
 8374W        W73535  15.742  14.147   3.202
 8375W        W73536  28.216  19.622   1.811
 8376W        W73537  18.613  22.393   2.813
 8377W        W73538  35.500   4.865  11.024
 8378W        W73539  28.144  14.297   0.904
 8379W        W73540  41.552  17.053   2.843
 8380W        W73541   8.201   6.140  11.971
 8381W        W73542  12.812   8.780   2.158
 8382W        W73543   1.772  31.622   0.903
 8383W        W73544   5.617   9.658  11.472
 8384W        W73545   2.092  10.731   3.318
 8385W        W73546  20.491   9.280   4.675
 8386W        W73547   1.243  21.079   0.889
 8387W        W73548   1.751  10.262   4.107
 8388W        W73549  20.229  19.199   1.279
 8389W        W73550  38.127  15.159  10.794
 8390W        W73551  29.139  15.236  11.316
 8391W        W73552  16.088  40.540   0.073
 8392W        W73553  27.589  15.785  12.504
 8393W        W73554  38.994  24.045   0.194
 8394W        W73555   5.381  30.941  10.996
 8395W        W73556  42.231   5.636   4.579
 8396W        W73557  24.546  19.923  13.385
 8397W        W73558  27.490   7.933   0.997
 8398W        W73559  22.530   9.851   0.843
 8399W        W73560  26.163  21.607   2.753
 8400W        W73561   7.396   0.805   1.785
 8401W        W73562   7.659  16.539   3.243
 8402W        W73563  14.811  24.525  11.608
 8403W        W73564  15.226  21.977  11.982
 8404W        W73565  14.110  36.357   2.749
 8405W        W73566  22.166  15.536  14.697
 8406W        W73567  41.769   5.951  13.464
 8407W        W73568  29.363  29.952   0.952
 8408W        W73569  22.520  27.959  13.049
 8409W        W73570   1.117  20.727  12.106
 8410W        W73571   9.477  37.316   3.748
 8411W        W73572  41.822  20.007  12.545
 8412W        W73573  12.170  35.467   3.777
 8413W        W73574   3.469  32.199  10.322
 8414W        W73575  38.106  19.750  12.955
 8415W        W73576  26.497  18.067  11.562
 8416W        W73577  15.157  17.570  11.289
 8417W        W73578  33.472   2.237   4.555
 8418W        W73579   2.762  33.470  12.545
 8419W        W73580  21.231   1.758  13.653
 8420W        W73581  25.008  15.286   1.031
 8421W        W73582  24.668   4.896   0.249
 8422W        W73583  35.787  30.999  10.426
 8423W        W73584  18.466   0.922   0.763
 8424W        W73585  44.786   5.401   2.605
 8425W        W73586  43.245  20.479  12.131
 8426W        W73587   3.922   3.319   4.548
 8427W        W73588  10.891  18.730   4.886
 8428W        W73589   2.611  26.560  10.070
 8429W        W73590  19.315  10.295  14.960
 8430W        W73591   6.055  40.529   5.085
 8431W        W73592  12.293  27.944   3.117
 8432W        W73593  34.443  38.081  14.792
 8433W        W73594  15.705  15.840   5.034
 8434W        W73595   3.964  11.674  10.505
 8435W        W73596  12.902  19.419  11.193
 8436W        W73597  31.050  25.959   3.439
 8437W        W73598   1.933  23.273  13.004
 8438W        W73599   6.733  20.597   4.138
 8439W        W73600   6.477  22.175   1.785
 8440W        W73601  31.582  11.214   4.631
 8441W        W73602  15.821  41.279  14.336
 8442W        W73603  29.054  34.058  13.416
 8443W        W73604  37.422  18.990   4.610
 8444W        W73605  37.958  42.726  10.758
 8445W        W73606  12.888  12.851   3.622
 8446W        W73607  23.491  40.984  13.335
 8447W        W73608  40.998  40.185  13.941
 8448W        W73609  38.867  27.501   0.389
 8449W        W73610  22.527  38.563   4.577
 8450W        W73611   2.053   5.131   0.612
 8451W        W73612  14.173  42.492   4.370
 8452W        W73613  40.817  29.181  13.515
 8453W        W73614  26.383  15.292  14.866
 8454W        W73615  13.998  11.217   0.503
 8455W        W73616  43.650  29.940  13.451
 8456W        W73617  21.528   1.411  10.780
 8457W        W73618  15.984   1.959   4.298
 8458W        W73619   7.259  32.368   3.543
 8459W        W73620  30.807  29.260  11.137
 8460W        W73621  28.029  35.639  11.560
 8461W        W73622  31.830  13.845  12.537
 8462W        W73623  24.802  38.408   1.914
 8463W        W73624  23.570  24.684  11.110
 8464W        W73625  32.022   6.737   0.906
 8465W        W73626  15.049  30.686  11.195
 8466W        W73627  15.315  34.791  11.627
 8467W        W73628  10.278  26.100   3.116
 8468W        W73629  19.054  39.465   3.641
 8469W        W73630  33.440   4.196  11.114
 8470W        W73631  33.490   8.323  13.690
 8471W        W73632  33.152   2.483  13.551
 8472W        W73633  42.813  42.262  12.078
 8473W        W73634  30.232  26.398  14.475
 8474W        W73635  21.077   5.593  14.014
 8475W        W73636   2.073   0.761   2.629
 8476W        W73637  30.570  11.805   3.709
 8477W        W73638  35.102  25.728  11.494
 8478W        W73639  11.280  36.073  13.434
 8479W        W73640  30.191  36.168  13.828
 8480W        W73641  13.237  32.367  13.939
 8481W        W73642  13.822  20.746  10.758
 8482W        W73643  14.298  38.329  14.148
 8483W        W73644  29.635   4.736  13.663
 8484W        W73645  15.487   3.373   1.377
 8485W        W73646  24.661  35.794   5.042
 8486W        W73647   5.174  23.134   0.415
 8487W        W73648  15.096  12.851  13.167
 8488W        W73649   3.979  13.724   9.890
 8489W        W73650   2.995  44.285  14.800
 8490W        W73651  28.380  35.036   2.266
 8491W        W73652  35.609  30.956  12.022
 8492W        W73653   3.279  26.890   3.334
 8493W        W73654  32.917   7.635   3.785
 8494W        W73655  21.076  15.074   0.844
 8495W        W73656  27.755  18.694   0.735
 8496W        W73657  43.545  34.868   9.870
 8497W        W73658  31.393  23.810  14.038
 8498W        W73659  39.888   3.667   5.142
 8499W        W73660  34.067  29.011  13.791
 8500W        W73661   6.724   1.859  14.922
 8501W        W73662  38.194  22.913  13.479
 8502W        W73663  13.138  26.105  11.565
 8503W        W73664  36.321   8.409   4.489
 8504W        W73665   2.197  38.868   2.277
 8505W        W73666  17.649  41.954  13.551
 8506W        W73667  14.046   0.377  14.075
 8507W        W73668   7.698  39.074  12.586
 8508W        W73669  39.369  16.310   4.625
 8509W        W73670  15.068   9.249   0.635
 8510W        W73671  10.065   0.109   4.094
 8511W        W73672  28.805  17.555   2.438
 8512W        W73673   0.000  34.998   3.168
 8513W        W73674  14.691  30.356   4.956
 8514W        W73675  41.148  39.582   3.653
 8515W        W73676   8.204  44.441  10.794
 8516W        W73677  30.453  41.744   3.246
 8517W        W73678  15.585  40.848   2.629
 8518W        W73679   6.261  23.714   1.233
 8519W        W73680  15.581  12.731  13.011
 8520W        W73681  21.484  20.619   4.196
 8521W        W73682  17.915   9.511  11.501
 8522W        W73683  34.509   1.608   1.282
 8523W        W73684  43.901   5.146   0.831
 8524W        W73685  32.917  19.588  11.115
 8525W        W73686  26.890  35.737  12.470
 8526W        W73687   9.722  40.019  13.579
 8527W        W73688   1.517   0.783  13.366
 8528W        W73689  29.080  33.810  11.508
 8529W        W73690  17.526  17.202  12.526
 8530W        W73691   7.477   9.360   3.800
 8531W        W73692  39.030   9.685  13.604
 8532W        W73693   0.786  42.580   0.960
 8533W        W73694  12.779  10.377  11.166
 8534W        W73695  11.648   9.311   4.131
 8535W        W73696  17.656  13.386  11.438
 8536W        W73697  40.418  44.215  12.680
 8537W        W73698  39.395  21.653  13.068
 8538W        W73699   0.714  10.342   5.415
 8539W        W73700  21.998  20.734  14.917
 8540W        W73701  14.349  40.823  11.520
 8541W        W73702  41.359  38.550  14.958
 8542W        W73703  31.351  22.333   3.591
 8543W        W73704  37.339   7.410  13.498
 8544W        W73705  43.735  11.511   1.930
 8545W        W73706  21.612   6.312   1.299
 8546W        W73707  28.261  20.596  13.419
 8547W        W73708  36.012   7.670  12.141
 8548W        W73709  32.056   9.882  10.307
 8549W        W73710  29.429  12.642  11.571
 8550W        W73711  12.373  26.734  13.375
 8551W        W73712   5.765   9.481   4.046
 8552W        W73713  39.901  32.034   2.156
 8553W        W73714   0.494  41.485   0.746
 8554W        W73715  14.627  28.464   2.787
 8555W        W73716  12.327  34.049  11.522
 8556W        W73717  34.052  10.439  11.072
 8557W        W73718   6.072  42.507   0.027
 8558W        W73719  15.753  41.524   0.263
 8559W        W73720   4.008  33.701   2.740
 8560W        W73721  11.946  17.209  14.690
 8561W        W73722   1.624   8.137   3.515
 8562W        W73723  39.092   7.488   1.327
 8563W        W73724   7.396  33.189   3.257
 8564W        W73725  10.663  28.041  13.577
 8565W        W73726  22.118  37.844  11.586
 8566W        W73727  36.682   8.027  12.075
 8567W        W73728  20.123  18.032   0.850
 8568W        W73729  11.333  29.578  13.336
 8569W        W73730  37.072  37.395  14.717
 8570W        W73731  10.189   8.749   2.957
 8571W        W73732  25.910  10.878   2.801
 8572W        W73733  18.346  15.221   3.966
 8573W        W73734  11.754  30.194  14.037
 8574W        W73735  11.613  15.499  11.182
 8575W        W73736  12.064  12.152  12.012
 8576W        W73737  23.088   0.426  13.994
 8577W        W73738   3.387  43.436   0.916
 8578W        W73739  41.967  23.544  11.574
 8579W        W73740  29.488  34.033  14.788
 8580W        W73741  21.292  44.620  12.724
 8581W        W73742  28.025  35.034  12.942
 8582W        W73743  22.554   6.259  11.449
 8583W        W73744  14.316  26.422  11.618
 8584W        W73745  28.442   0.010   2.753
 8585W        W73746   1.038  22.691   2.276
 8586W        W73747  18.625  30.097  12.757
 8587W        W73748  28.783  37.811   9.458
 8588W        W73749  14.300  26.383  14.321
 8589W        W73750  16.054  11.439  13.012
 8590W        W73751  26.114  42.493  11.564
 8591W        W73752  39.505   5.879   3.844
 8592W        W73753  31.493   0.399  13.482
 8593W        W73754  18.611  37.704  10.400
 8594W        W73755  15.145  11.378   2.328
 8595W        W73756  41.460   2.964  12.010
 8596W        W73757  15.109   4.196   2.476
 8597W        W73758   4.453   7.947  13.949
 8598W        W73759   8.556  30.308  13.390
 8599W        W73760  22.737  34.106  10.630
 8600W        W73761   5.762   9.632  10.700
 8601W        W73762  11.929  34.532  14.034
 8602W        W73763   2.595  29.407   1.875
 8603W        W73764  21.631  20.189  11.575
 8604W        W73765   1.764  11.588  13.480
 8605W        W73766  15.661  33.450   3.262
 8606W        W73767  16.588   5.838   0.732
 8607W        W73768  43.151  14.776   2.270
 8608W        W73769  28.140  13.301  14.352
 8609W        W73770  13.921  30.161  11.088
 8610W        W73771  10.592  18.943   2.585
 8611W        W73772   4.690  10.255  12.949
 8612W        W73773  41.088  35.415   2.334
 8613W        W73774  32.088  27.227  13.176
 8614W        W73775   3.455   1.831  13.613
 8615W        W73776   1.179  44.827   2.213
 8616W        W73777  37.799  30.434   0.766
 8617W        W73778  31.657   0.381  12.485
 8618W        W73779   1.077  16.160   0.260
 8619W        W73780  15.647  39.154   1.349
 8620W        W73781  33.729  30.033   1.097
 8621W        W73782  24.591  32.956   4.564
 8622W        W73783  17.010  28.880   1.489
 8623W        W73784  15.065  14.810   0.265
 8624W        W73785  16.588   0.897   0.671
 8625W        W73786  31.546  24.008   1.446
 8626W        W73787  42.397   1.229   4.009
 8627W        W73788  17.505   8.286   2.756
 8628W        W73789  23.037  35.548  11.439
 8629W        W73790  33.374  37.394  13.563
 8630W        W73791  41.061  14.554   4.110
 8631W        W73792   7.721   7.708   3.232
 8632W        W73793  18.134   6.333   1.410
 8633W        W73794  23.996  23.272   5.054
 8634W        W73795   1.209  33.834   2.783
 8635W        W73796  26.679  23.168   9.575
 8636W        W73797  25.180  19.197  14.955
 8637W        W73798  19.433  38.335   0.610
 8638W        W73799  11.220  43.800  12.561
 8639W        W73800  37.548  35.299   0.735
 8640W        W73801  41.446  38.434   2.870
 8641W        W73802  27.819  12.396  12.033
 8642W        W73803  28.706  11.852   1.780
 8643W        W73804  20.135  22.652   0.245
 8644W        W73805  19.696  41.559   2.727
 8645W        W73806  34.955  14.761  10.654
 8646W        W73807  26.046   6.992  11.094
 8647W        W73808  35.248  21.235   2.206
 8648W        W73809  11.197  15.306   0.702
 8649W        W73810  33.666  26.159  14.496
 8650W        W73811  33.412  43.403  11.420
 8651W        W73812  22.696  15.714  12.437
 8652W        W73813  28.606   4.041  14.975
 8653W        W73814  30.970  35.499  11.284
 8654W        W73815  16.992  24.854   0.416
 8655W        W73816  25.489  15.939   4.314
 8656W        W73817   6.689  41.398  14.268
 8657W        W73818   8.907   2.707  14.387
 8658W        W73819  32.100  32.053   4.813
 8659W        W73820  16.074   4.267  13.345
 8660W        W73821  28.530  43.757   2.178
 8661W        W73822  26.632  36.984  12.914
 8662W        W73823   0.609  37.463   2.694
 8663W        W73824  40.594  12.767  13.333
 8664W        W73825   9.107  39.123  13.836
 8665W        W73826   2.936   5.396   0.431
 8666W        W73827  15.822   4.242   0.524
 8667W        W73828  33.844  24.441   9.829
 8668W        W73829  13.269  21.179  13.934
 8669W        W73830  38.786   4.486  12.657
 8670W        W73831  12.080  32.887  11.131
 8671W        W73832   0.037  10.374  13.488
 8672W        W73833  21.609  16.720  12.845
 8673W        W73834   2.471  11.191   2.203
 8674W        W73835   5.692  12.104  12.429
 8675W        W73836  35.916  39.823  13.123
 8676W        W73837  31.374  26.904  13.466
 8677W        W73838  22.449   8.942  10.945
 8678W        W73839  36.343  44.560  11.173
 8679W        W73840   8.597   2.377  11.147
 8680W        W73841  12.392  43.880   4.730
 8681W        W73842  33.422  20.041   2.729
 8682W        W73843  43.421  34.150  13.819
 8683W        W73844  36.830   2.339   1.193
 8684W        W73845  14.253  40.056  12.850
 8685W        W73846  13.876  32.070   3.893
 8686W        W73847  15.741  41.305  11.358
 8687W        W73848   7.683  40.863  13.282
 8688W        W73849   5.631  35.275   2.837
 8689W        W73850  20.477   6.739  13.544
 8690W        W73851  33.945  36.248  13.402
 8691W        W73852   0.851  36.413  14.488
 8692W        W73853   8.146  35.323  13.284
 8693W        W73854  32.779  20.763  10.767
 8694W        W73855  12.223   7.353   1.435
 8695W        W73856  20.849  10.262  14.962
 8696W        W73857  26.110  13.096   0.367
 8697W        W73858  32.020  16.936   4.620
 8698W        W73859  17.088  25.218   3.274
 8699W        W73860  31.679   8.410   1.458
 8700W        W73861  43.810  25.579   1.661
 8701W        W73862  38.368  31.466  11.526
 8702W        W73863   5.248  26.372   3.919
 8703W        W73864  10.552  44.420   3.595
 8704W        W73865  32.956  28.617   2.047
 8705W        W73866  43.777   3.408  12.476
 8706W        W73867  20.207   4.687   5.016
 8707W        W73868   0.298  38.262   4.239
 8708W        W73869  13.868   3.242  11.574
 8709W        W73870  33.912  10.348  10.568
 8710W        W73871  12.590   0.887  10.726
 8711W        W73872  36.801   3.465  13.294
 8712W        W73873  39.398  23.018  13.619
 8713W        W73874  11.450  30.050   4.157
 8714W        W73875  30.113   8.459  11.898
 8715W        W73876  28.530  42.967   4.614
 8716W        W73877  19.630   5.286  14.521
 8717W        W73878  39.408  12.636   4.132
 8718W        W73879  10.163  25.950   2.252
 8719W        W73880  31.418  16.281  10.826
 8720W        W73881  18.535  21.280   1.973
 8721W        W73882  18.654  27.087   4.073
 8722W        W73883  10.138   5.914   1.987
 8723W        W73884  29.871   8.649   3.997
 8724W        W73885  17.431  32.976  10.529
 8725W        W73886  25.275  31.465  11.547
 8726W        W73887  14.328  11.587   4.577
 8727W        W73888  14.633  26.796  14.306
 8728W        W73889  19.144  26.893   1.437
 8729W        W73890   7.494  22.136  13.058
 8730W        W73891  39.290  33.897   0.240
 8731W        W73892  43.444  17.111  10.193
 8732W        W73893  19.011  25.725  13.005
 8733W        W73894  15.974  11.686  14.856
 8734W        W73895  10.828  31.502   3.727
 8735W        W73896  23.392  22.512  11.189
 8736W        W73897  43.517  33.656   5.428
 8737W        W73898  33.363  11.736  12.913
 8738W        W73899  25.505  21.479   0.956
 8739W        W73900   2.005  15.294  11.309
 8740W        W73901  13.553  44.335  10.756
 8741W        W73902  34.074  19.076  11.672
 8742W        W73903   5.985  23.546   4.135
 8743W        W73904  18.850  40.265   3.135
 8744W        W73905   2.868  44.669   2.156
 8745W        W73906   5.216  29.773   0.649
 8746W        W73907  19.965   2.970   1.807
 8747W        W73908   0.259  33.675  13.028
 8748W        W73909  24.582  15.311  10.565
 8749W        W73910   0.685  40.977   3.372
 8750W        W73911   0.998  33.093  13.053
 8751W        W73912  20.314  19.720  10.576
 8752W        W73913   4.950  12.390  10.000
 8753W        W73914  16.866  29.419   1.482
 8754W        W73915  25.298   4.382   0.826
 8755W        W73916  19.797  19.198  11.934
 8756W        W73917  11.803  26.890   1.369
 8757W        W73918  29.929  10.963  14.472
 8758W        W73919  42.889  15.742   4.541
 8759W        W73920  41.989  11.947  13.954
 8760W        W73921  26.506   7.329  10.227
 8761W        W73922  25.176  43.443  12.153
 8762W        W73923  10.849  33.205   4.497
 8763W        W73924  41.852  35.817  12.945
 8764W        W73925   8.372  38.156  12.235
 8765W        W73926  12.696  40.716  11.190
 8766W        W73927   1.559  31.439   4.079
 8767W        W73928  27.691  42.519  12.984
 8768W        W73929  22.128  33.575  11.090
 8769W        W73930  39.944   8.103   4.758
 8770W        W73931  22.692  37.166  13.819
 8771W        W73932  37.088  30.601  11.580
 8772W        W73933  13.649   4.311   3.562
 8773W        W73934   4.213  39.832   3.705
 8774W        W73935  22.535   9.399  12.940
 8775W        W73936  15.868  26.452   0.379
 8776W        W73937  29.870  41.913   0.182
 8777W        W73938  29.746  24.730   2.208
 8778W        W73939  23.593  13.927   0.453
 8779W        W73940  35.026   6.364   1.520
 8780W        W73941  13.126  44.349  12.258
 8781W        W73942  27.158  30.506   4.590
 8782W        W73943  33.116  16.164  13.735
 8783W        W73944  41.648  42.702  11.645
 8784W        W73945  36.201  36.002   5.091
 8785W        W73946  40.663   2.145  12.980
 8786W        W73947   5.435  26.025  11.597
 8787W        W73948  31.317   2.235   1.955
 8788W        W73949  42.254  33.340   0.804
 8789W        W73950   0.765  32.584   4.873
 8790W        W73951  10.139  16.625   2.688
 8791W        W73952  16.260  34.797   4.201
 8792W        W73953  35.478  14.323   4.507
 8793W        W73954  37.975  31.609   0.960
 8794W        W73955   9.919  36.486  12.680
 8795W        W73956  40.132  35.992   4.020
 8796W        W73957   3.788   6.346   4.486
 8797W        W73958  21.271  34.610   4.744
 8798W        W73959  10.587  23.148  10.502
 8799W        W73960  27.878  20.921  13.548
 8800W        W73961  29.502  15.808  13.551
 8801W        W73962  16.325  28.139  12.506
 8802W        W73963  32.038   3.029   3.940
 8803W        W73964  38.901  14.305  11.156
 8804W        W73965   5.752  41.457   4.411
 8805W        W73966  42.860  26.532  10.350
 8806W        W73967  42.548  23.184   0.849
 8807W        W73968  42.162  26.415   2.830
 8808W        W73969  14.633  13.879   2.728
 8809W        W73970  40.434  23.511   1.237
 8810W        W73971  13.114  22.145   4.610
 8811W        W73972   3.259  43.493  14.467
 8812W        W73973  14.141  29.524  13.081
 8813W        W73974  37.949  16.288   1.395
 8814W        W73975   8.179   6.495  10.485
 8815W        W73976   1.873  27.069  13.531
 8816W        W73977  17.367  19.246  13.582
 8817W        W73978   5.246  21.623   0.287
 8818W        W73979   1.316  28.138  12.903
 8819W        W73980  37.934   7.067  11.455
 8820W        W73981  34.643   7.238  12.879
 8821W        W73982  34.675  41.534  10.863
 8822W        W73983  27.447  18.835   4.768
 8823W        W73984  17.805  20.525  10.952
 8824W        W73985  24.140  16.229   2.801
 8825W        W73986  19.411  18.641  13.954
 8826W        W73987  17.751  12.889  12.484
 8827W        W73988   1.757  19.529   2.216
 8828W        W73989  22.741  18.713  11.649
 8829W        W73990   3.909   8.180  14.563
 8830W        W73991  17.351  34.616  12.983
 8831W        W73992  29.926  11.275   4.082
 8832W        W73993   2.979  22.687   0.426
 8833W        W73994  23.004  31.342  11.088
 8834W        W73995  10.090  26.408  10.753
 8835W        W73996  37.390  43.540   3.101
 8836W        W73997   2.442   5.026  14.838
 8837W        W73998   2.998  12.227   4.996
 8838W        W73999  16.763  43.279  11.949
 8839W        W74000   6.994  39.832   3.322
 8840W        W74001  43.947  25.211  13.015
 8841W        W74002   6.859  20.099   3.183
 8842W        W74003  32.099  20.035  13.844
 8843W        W74004  32.570  32.540   2.346
 8844W        W74005  13.280  20.802   4.849
 8845W        W74006  37.819  43.009   0.682
 8846W        W74007   2.307  41.830   1.295
 8847W        W74008  40.979  40.343  14.431
 8848W        W74009  37.523  32.390  10.558
 8849W        W74010   1.895  39.647   0.117
 8850W        W74011  10.423   9.155   2.223
 8851W        W74012  18.216  26.543   4.988
 8852W        W74013   1.275  31.339  11.510
 8853W        W74014  22.558  24.485  11.943
 8854W        W74015  19.737  19.061   1.932
 8855W        W74016  15.427  24.383  14.813
 8856W        W74017   1.888   1.310  14.808
 8857W        W74018  39.236   9.418  10.752
 8858W        W74019  30.697   4.323   2.233
 8859W        W74020  22.014  16.150   1.780
 8860W        W74021  18.834  34.179   0.865
 8861W        W74022  12.240  44.416   2.377
 8862W        W74023  43.554   1.870   2.389
 8863W        W74024  40.365  24.645   4.963
 8864W        W74025  19.683  29.003   3.428
 8865W        W74026  20.258  39.221   0.658
 8866W        W74027  18.340  21.870   0.367
 8867W        W74028  16.738  21.373   2.286
 8868W        W74029  17.057  17.734  12.014
 8869W        W74030  44.908  24.234   1.383
 8870W        W74031  35.361  31.935  10.673
 8871W        W74032  44.273  29.871  12.872
 8872W        W74033   9.059   6.363   5.022
 8873W        W74034  35.103   3.260  12.122
 8874W        W74035  15.363  23.966   1.226
 8875W        W74036  11.673  26.916  12.045
 8876W        W74037  10.385  38.194   1.631
 8877W        W74038   4.878  36.590   3.718
 8878W        W74039   4.690  22.072   2.640
 8879W        W74040  32.997  17.524   4.949
 8880W        W74041  26.576   2.458  13.880
 8881W        W74042  25.012   3.329   4.539
 8882W        W74043  24.527   0.349  12.582
 8883W        W74044  29.582  15.596   4.681
 8884W        W74045  33.623  42.619   3.671
 8885W        W74046  30.465   7.394   2.316
 8886W        W74047  24.068   5.878   4.563
 8887W        W74048   8.744   1.331   0.168
 8888W        W74049  36.840  18.592   3.659
 8889W        W74050  33.534   8.709  11.611
 8890W        W74051  15.653  26.986   1.058
 8891W        W74052   5.944  21.111   1.280
 8892W        W74053  43.857  12.003   4.223
 8893W        W74054  26.699  28.420   4.321
 8894W        W74055  23.017  14.847  14.788
 8895W        W74056  14.363   7.685  14.598
 8896W        W74057  32.535   4.168  12.149
 8897W        W74058  19.141  10.430  10.339
 8898W        W74059   4.362  22.983  11.188
 8899W        W74060   2.787  12.734  13.879
 8900W        W74061  34.122  43.850  14.438
 8901W        W74062  17.096  28.463   0.711
 8902W        W74063  42.202   2.644  14.704
 8903W        W74064  15.619   2.706   5.184
 8904W        W74065  33.734  13.669   2.757
 8905W        W74066  30.032   3.504   3.851
 8906W        W74067  22.014   1.682   3.905
 8907W        W74068  32.036  17.057  11.890
 8908W        W74069  41.083  39.552   4.519
 8909W        W74070  10.720   9.982   0.372
 8910W        W74071   7.189  34.609   3.682
 8911W        W74072  20.206  31.541  12.696
 8912W        W74073  37.863   0.067  13.027
 8913W        W74074  40.405  44.766   2.226
 8914W        W74075  38.470  36.393   3.584
 8915W        W74076   4.117   2.711   1.236
 8916W        W74077  21.243  44.248   4.569
 8917W        W74078  15.835   2.769   4.140
 8918W        W74079   8.927  21.788   2.283
 8919W        W74080   7.077   3.509  12.295
 8920W        W74081  14.731  25.557  11.464
 8921W        W74082   4.530   4.133  12.597
 8922W        W74083  31.163  33.870   4.569
 8923W        W74084  40.445  26.730   1.983
 8924W        W74085  11.229  14.597   3.334
 8925W        W74086  29.597  27.195  11.510
 8926W        W74087  31.640  17.111   1.849
 8927W        W74088  37.554  33.378   0.670
 8928W        W74089  16.034  31.001  13.405
 8929W        W74090  29.112  13.078  14.310
 8930W        W74091  27.201  10.277  11.037
 8931W        W74092  35.094  42.389  13.116
 8932W        W74093  31.369  28.332  12.560
 8933W        W74094  19.130  44.085   5.409
 8934W        W74095  10.654  13.614   1.200
 8935W        W74096  17.531  27.546  11.042
 8936W        W74097   4.698  34.910   4.784
 8937W        W74098   1.561   0.928   2.616
 8938W        W74099  25.662   4.985   1.491
 8939W        W74100   0.236  11.745  13.642
 8940W        W74101  22.609  14.301   3.754
 8941W        W74102  30.608  44.680   5.145
 8942W        W74103   7.132  22.163  13.468
 8943W        W74104   0.259  17.230  11.096
 8944W        W74105  19.670  23.568   4.980
 8945W        W74106  34.603   5.907   3.076
 8946W        W74107  13.256  32.640   4.148
 8947W        W74108  31.863  41.039  11.248
 8948W        W74109  44.576  37.630   5.468
 8949W        W74110   8.889  41.301  12.962
 8950W        W74111  40.620   2.945   3.709
 8951W        W74112  27.384  22.776  14.069
 8952W        W74113  24.354  25.646   0.888
 8953W        W74114  37.975  19.090  12.089
 8954W        W74115  27.974   5.486   2.813
 8955W        W74116  39.145  15.138   3.244
 8956W        W74117   1.814  43.290  13.759
 8957W        W74118   3.754  31.673   0.304
 8958W        W74119  33.955  37.564   4.572
 8959W        W74120  14.161  41.431   4.565
 8960W        W74121  24.288   2.235  11.867
 8961W        W74122  28.230   7.399   0.971
 8962W        W74123  36.523  21.752   2.687
 8963W        W74124   7.378  23.561  13.066
 8964W        W74125  17.258  33.381   1.655
 8965W        W74126  17.883   4.041  11.144
 8966W        W74127  43.477  28.907   0.747
 8967W        W74128   8.384  21.656  10.656
 8968W        W74129  30.413  38.438  13.909
 8969W        W74130  12.348   3.933   0.798
 8970W        W74131  16.558   6.633  13.685
 8971W        W74132  35.446  19.064  11.171
 8972W        W74133  23.429  44.653   0.827
 8973W        W74134  30.981  11.557   2.982
 8974W        W74135   7.239  14.507   0.621
 8975W        W74136   0.688   5.754  11.613
 8976W        W74137   7.914  18.319  11.139
 8977W        W74138   7.928   2.844   0.720
 8978W        W74139   6.456  16.680   9.882
 8979W        W74140  40.745  39.343  13.423
 8980W        W74141  33.184  20.198   1.395
 8981W        W74142  38.593  43.806   4.637
 8982W        W74143  23.568  35.296   4.509
 8983W        W74144   0.697  16.094  12.923
 8984W        W74145  31.552   8.443   0.516
 8985W        W74146   8.191  41.308   2.152
 8986W        W74147  23.826   3.983   3.522
 8987W        W74148  21.073  31.090   0.792
 8988W        W74149  20.054  36.905  11.561
 8989W        W74150  40.748   8.398   1.406
 8990W        W74151   2.221   8.544   3.679
 8991W        W74152  18.548  42.946   1.751
 8992W        W74153   6.745   4.782   2.578
 8993W        W74154   3.967  11.413   4.605
 8994W        W74155  22.224   9.795   3.550
 8995W        W74156  19.790  44.750  12.304
 8996W        W74157  18.086  19.324   4.093
 8997W        W74158   9.163  20.292   3.674
 8998W        W74159  10.401  40.504   0.301
 8999W        W74160  33.407   8.387   1.346
 9000W        W74161  12.937  39.742  14.878
 9001W        W74162   5.799   4.848  11.169
 9002W        W74163  32.096  15.846   2.532
 9003W        W74164  18.611  21.531   3.177
 9004W        W74165  12.399  37.488  11.618
 9005W        W74166  28.346  29.143   2.595
 9006W        W74167  16.298  29.957   0.448
 9007W        W74168  15.161  25.627  13.544
 9008W        W74169  31.559   4.958   2.245
 9009W        W74170  31.002  17.252  13.814
 9010W        W74171   8.815  38.277  14.907
 9011W        W74172  29.096  31.382   1.308
 9012W        W74173  11.212  12.403  11.161
 9013W        W74174  22.806  31.417  13.059
 9014W        W74175   5.919  29.913  12.151
 9015W        W74176   6.891  18.998   0.242
 9016W        W74177  32.430  36.077   0.834
 9017W        W74178  16.199  44.175  13.909
 9018W        W74179   7.862   3.455   3.337
 9019W        W74180   5.517  24.609   4.154
 9020W        W74181  23.050   8.901   1.637
 9021W        W74182  42.117   1.519  14.008
 9022W        W74183  23.506   0.071   4.080
 9023W        W74184  17.713   4.919   3.790
 9024W        W74185  13.045  24.175   3.339
 9025W        W74186  20.164   4.452  14.311
 9026W        W74187  13.601   6.311  14.083
 9027W        W74188  36.190  42.962   1.108
 9028W        W74189  27.868  41.343   0.873
 9029W        W74190   3.870  31.513  12.087
 9030W        W74191  35.813  36.530  13.044
 9031W        W74192  15.130  27.583  10.532
 9032W        W74193  16.242  23.201  12.613
 9033W        W74194   0.886  16.835   2.443
 9034W        W74195   6.486  43.296   0.867
 9035W        W74196   3.398  11.856   1.207
 9036W        W74197  36.512  35.011   2.489
 9037W        W74198  38.487  18.021   3.288
 9038W        W74199   8.347   4.938   0.817
 9039W        W74200   1.933  23.257   2.342
 9040W        W74201  31.731  14.169   2.363
 9041W        W74202   7.797  44.053   3.716
 9042W        W74203   2.618   5.261  12.580
 9043W        W74204  30.261  12.706   3.009
 9044W        W74205  10.929  15.150   0.292
 9045W        W74206  32.922  40.782  11.181
 9046W        W74207   7.870  16.081  10.891
 9047W        W74208  17.804  14.627   0.754
 9048W        W74209  11.370  18.020   1.594
 9049W        W74210  24.085  11.795   0.751
 9050W        W74211   9.823  44.907   3.291
 9051W        W74212  33.117   0.893  10.802
 9052W        W74213  31.008  14.180  14.077
 9053W        W74214  32.628  39.838   0.209
 9054W        W74215  17.709   9.473   1.730
 9055W        W74216   4.336  28.718  12.170
 9056W        W74217  17.856  10.250   0.801
 9057W        W74218  12.636  35.408   3.591
 9058W        W74219  33.179  30.522  14.654
 9059W        W74220   0.791  20.705   2.587
 9060W        W74221  16.850  42.506  13.364
 9061W        W74222   7.634   5.900  14.406
 9062W        W74223  41.530  21.372  11.143
 9063W        W74224  10.681  17.334   2.289
 9064W        W74225  29.151   4.817   4.638
 9065W        W74226  30.924  19.649  14.828
 9066W        W74227  16.553  33.937  14.033
 9067W        W74228  36.494   2.187   2.090
 9068W        W74229  41.884  17.528   3.802
 9069W        W74230  22.559   4.661  13.559
 9070W        W74231   6.575  12.176  14.345
 9071W        W74232  31.371  31.965  11.688
 9072W        W74233   7.210  44.375  10.531
 9073W        W74234  21.593   8.960  12.935
 9074W        W74235   2.885  33.334  13.029
 9075W        W74236  25.095  27.254  12.890
 9076W        W74237  19.237  31.995  12.518
 9077W        W74238  42.027   6.808   4.304
 9078W        W74239  16.661  26.609   3.151
 9079W        W74240  20.742  23.602   1.262
 9080W        W74241   7.193  35.850  14.282
 9081W        W74242  41.000  27.242   3.513
 9082W        W74243  39.092  21.662   4.812
 9083W        W74244   9.742  21.816  10.532
 9084W        W74245  23.169  43.371  12.949
 9085W        W74246  22.777  44.718  12.487
 9086W        W74247   4.984  22.506   3.418
 9087W        W74248  22.427  34.593  11.523
 9088W        W74249  13.858   5.267  11.845
 9089W        W74250  38.463  18.061   4.760
 9090W        W74251  29.538  24.527   2.612
 9091W        W74252   8.886  24.434   4.365
 9092W        W74253   8.735  18.686  14.406
 9093W        W74254  12.167  36.542  13.783
 9094W        W74255  34.474  29.868   0.472
 9095W        W74256  33.353   9.702   4.139
 9096W        W74257  34.334  22.525  14.449
 9097W        W74258  28.370  12.340  11.165
 9098W        W74259  32.626  44.388  14.911
 9099W        W74260  15.617  11.611   2.215
 9100W        W74261  24.615  24.560   2.732
 9101W        W74262  32.648  25.532  13.113
 9102W        W74263  36.638  40.431   1.382
 9103W        W74264  42.223  21.370   0.247
 9104W        W74265  14.835  21.566   4.161
 9105W        W74266   9.799   5.841  13.924
 9106W        W74267   6.785   4.971  14.849
 9107W        W74268   0.438  10.198  12.816
 9108W        W74269  28.414   8.815   3.638
 9109W        W74270  43.349  31.499  10.812
 9110W        W74271  10.400  36.855  10.565
 9111W        W74272   6.746   4.171  13.573
 9112W        W74273  19.636   7.867  13.342
 9113W        W74274   4.852  30.170   0.549
 9114W        W74275  29.934  14.907  11.574
 9115W        W74276  35.995  20.315  11.161
 9116W        W74277   3.235  16.363   3.628
 9117W        W74278  28.741  13.725   3.482
 9118W        W74279   1.011   8.126  11.504
 9119W        W74280  21.293  13.730   3.159
 9120W        W74281  38.574  28.934   2.902
 9121W        W74282  11.607  14.188  14.318
 9122W        W74283  27.519   8.665   2.290
 9123W        W74284   5.905  27.705   4.960
 9124W        W74285  34.959  20.088   1.857
 9125W        W74286   3.334  25.714  14.816
 9126W        W74287  43.649   3.073  14.310
 9127W        W74288   2.317  19.728  12.061
 9128W        W74289  34.477  25.605   4.327
 9129W        W74290  18.692   1.286  11.437
 9130W        W74291  36.955  29.176  11.572
 9131W        W74292  23.969  35.918   2.777
 9132W        W74293  44.041  21.065  14.485
 9133W        W74294   3.908   2.420  12.036
 9134W        W74295  20.724  29.150  11.191
 9135W        W74296  38.787  41.390   2.754
 9136W        W74297  24.130  30.464   3.621
 9137W        W74298   4.459  14.445   4.166
 9138W        W74299   4.288  41.720   3.278
 9139W        W74300  32.324  11.026   0.885
 9140W        W74301   5.561   7.169   2.419
 9141W        W74302   9.617   2.707   4.475
 9142W        W74303  40.622   2.873  11.760
 9143W        W74304   5.235   3.499  11.544
 9144W        W74305  18.345  14.865  10.332
 9145W        W74306  35.166  24.655  11.925
 9146W        W74307  33.893   1.214   0.794
 9147W        W74308  36.945   6.189  14.754
 9148W        W74309   2.805   2.570   1.363
 9149W        W74310  25.460  12.124   2.406
 9150W        W74311   5.415  19.337  14.855
 9151W        W74312   5.855  36.059  14.852
 9152W        W74313   5.705  35.535   1.511
 9153W        W74314  10.351  26.382  13.050
 9154W        W74315  19.777  26.918   3.777
 9155W        W74316   3.904  18.632  12.463
 9156W        W74317  38.880  17.787  14.558
 9157W        W74318  32.058  29.124  12.645
 9158W        W74319  38.878  38.365   3.616
 9159W        W74320   2.319  32.615   0.905
 9160W        W74321  20.203  30.523   2.702
 9161W        W74322  18.826  43.761   4.193
 9162W        W74323  11.270  34.125   3.649
 9163W        W74324   4.688   8.804   1.663
 9164W        W74325  22.732  29.816   4.358
 9165W        W74326  38.335  40.565  10.642
 9166W        W74327  11.644   8.181  12.948
 9167W        W74328  42.955  14.161  12.427
 9168W        W74329   6.530   0.259   3.830
 9169W        W74330  39.393  33.106  11.706
 9170W        W74331   3.891  44.720   3.729
 9171W        W74332  23.695  34.311   0.152
 9172W        W74333  37.288  20.167   4.182
 9173W        W74334  36.509  38.831   2.343
 9174W        W74335  11.400  17.518   0.776
 9175W        W74336  15.784  21.757  11.644
 9176W        W74337   7.459  41.364   4.070
 9177W        W74338  28.713  10.551   0.076
 9178W        W74339  37.137  13.647  13.504
 9179W        W74340  36.215   1.478   1.805
 9180W        W74341   3.934  24.235  11.645
 9181W        W74342   9.342  42.986  13.644
 9182W        W74343  40.792  22.583  14.226
 9183W        W74344  27.765  10.044  12.783
 9184W        W74345  32.653  24.586   0.758
 9185W        W74346  39.580  30.978  14.345
 9186W        W74347   6.909  36.325  13.522
 9187W        W74348  34.418  18.078  14.718
 9188W        W74349   3.238  18.371   4.064
 9189W        W74350   1.360  28.492   0.356
 9190W        W74351  18.614   1.954   1.998
 9191W        W74352  24.233   2.184  10.519
 9192W        W74353  28.837   5.553   2.670
 9193W        W74354   2.404  17.996  13.420
 9194W        W74355  10.142  31.686  11.739
 9195W        W74356  36.501   6.813   1.431
 9196W        W74357  40.378  37.625  11.469
 9197W        W74358  13.766  25.075  10.902
 9198W        W74359  10.785   3.484  12.015
 9199W        W74360  19.302   9.443   3.792
 9200W        W74361  21.166   1.439  12.811
 9201W        W74362   8.451  16.404   3.687
 9202W        W74363  34.941  11.348   4.159
 9203W        W74364  20.726  38.214   3.958
 9204W        W74365  27.247  29.585   1.995
 9205W        W74366  40.712  11.228   0.070
 9206W        W74367  21.429  43.982  11.027
 9207W        W74368  38.140   1.812  12.099
 9208W        W74369  20.605  44.553   3.291
 9209W        W74370  12.096  35.489  11.517
 9210W        W74371  19.276   3.949   3.775
 9211W        W74372  19.788  33.452  10.861
 9212W        W74373  44.328   0.680  12.478
 9213W        W74374  36.916  37.290  11.336
 9214W        W74375  28.635  11.681   0.881
 9215W        W74376  27.057  36.368   0.651
 9216W        W74377  44.078  23.234  14.086
 9217W        W74378  10.688  20.608   4.396
 9218W        W74379  24.713  20.099   1.335
 9219W        W74380  25.024  24.766  12.294
 9220W        W74381  32.978  26.104   1.835
 9221W        W74382  24.985  44.395  13.301
 9222W        W74383  43.221   0.618  11.312
 9223W        W74384  27.518  31.929   0.853
 9224W        W74385  10.139  27.642  12.459
 9225W        W74386  31.957  42.908  13.754
 9226W        W74387  10.047  24.683   0.783
 9227W        W74388   8.975  10.695  10.648
 9228W        W74389  13.175  44.651   1.745
 9229W        W74390  34.466  32.000  11.532
 9230W        W74391  20.551  31.094   0.992
 9231W        W74392  14.267  19.428   1.052
 9232W        W74393   4.685   8.660  11.659
 9233W        W74394  23.782  19.874   2.154
 9234W        W74395  30.473  42.969   1.380
 9235W        W74396   2.090   1.783  10.796
 9236W        W74397  20.850  25.126  12.080
 9237W        W74398  28.060  43.061  14.579
 9238W        W74399  36.287   9.354   4.572
 9239W        W74400  25.511   3.762   3.748
 9240W        W74401  43.915  29.951   1.338
 9241W        W74402  32.149   6.394   5.033
 9242W        W74403  41.369  40.823  12.219
 9243W        W74404  34.175   6.091   1.324
 9244W        W74405  28.168  36.589   3.670
 9245W        W74406   0.983  19.807  13.033
 9246W        W74407  38.757  26.911  13.105
 9247W        W74408  20.142  39.236   4.735
 9248W        W74409  26.447  11.779   2.778
 9249W        W74410  25.731  36.799   9.747
 9250W        W74411  13.682   7.272  13.439
 9251W        W74412   5.892  39.110   3.685
 9252W        W74413   4.927  18.745   2.830
 9253W        W74414   1.943  41.649  14.758
 9254W        W74415   5.740  42.341   1.971
 9255W        W74416  15.858  11.650  11.137
 9256W        W74417  21.132  40.369   4.310
 9257W        W74418  25.623  38.813   2.660
 9258W        W74419  21.031  21.754  14.568
 9259W        W74420  14.685  44.789  13.154
 9260W        W74421  23.178  18.040  13.857
 9261W        W74422  23.131  34.390   2.017
 9262W        W74423  38.013  44.304  13.681
 9263W        W74424  38.334  30.351   1.947
 9264W        W74425  19.973  42.314  13.865
 9265W        W74426   8.643  25.091  10.474
 9266W        W74427  34.033  24.228   0.631
 9267W        W74428  32.667  26.197   0.951
 9268W        W74429  25.931  35.819  13.349
 9269W        W74430  23.210   0.658   0.312
 9270W        W74431  37.498  43.519  11.557
 9271W        W74432  34.508  26.921  10.480
 9272W        W74433  26.775   1.743   0.516
 9273W        W74434  11.902   9.156   2.675
 9274W        W74435   6.358   1.443   1.662
 9275W        W74436  19.169  12.104  14.942
 9276W        W74437  21.216   8.825  10.787
 9277W        W74438  34.983   0.471  11.178
 9278W        W74439  13.732  43.492  11.037
 9279W        W74440   0.492  17.566   1.761
 9280W        W74441   6.486  30.104   2.219
 9281W        W74442   2.555  22.899   4.247
 9282W        W74443   5.352  28.842   0.382
 9283W        W74444  18.012  38.137   1.266
 9284W        W74445  19.727  28.060  13.763
 9285W        W74446   8.841   7.529   3.662
 9286W        W74447  25.763   1.909   2.125
 9287W        W74448  11.856  33.081   4.769
 9288W        W74449  44.330  14.544   3.055
 9289W        W74450  16.023   1.879   4.808
 9290W        W74451  43.448  40.590  12.046
 9291W        W74452  42.771  10.131  10.541
 9292W        W74453  43.039   9.445  12.078
 9293W        W74454   0.943   9.334   1.356
 9294W        W74455  26.520  12.548   3.310
 9295W        W74456  22.672  38.566  10.679
 9296W        W74457  11.203  17.995   0.696
 9297W        W74458  19.594   9.240   0.127
 9298W        W74459  24.649  29.074   0.218
 9299W        W74460  20.996  24.146  13.309
 9300W        W74461  25.188  25.946   0.001
 9301W        W74462  12.050   2.459   3.795
 9302W        W74463  22.137   6.850   0.181
 9303W        W74464   1.768  36.619  13.527
 9304W        W74465  44.403  23.413   2.730
 9305W        W74466  20.140   5.961  12.869
 9306W        W74467  18.556  44.563   3.529
 9307W        W74468  36.878  43.220  14.604
 9308W        W74469  44.540  34.931  11.466
 9309W        W74470  14.725  18.891   2.438
 9310W        W74471   1.466  21.964   4.692
 9311W        W74472   2.729  16.111   1.901
 9312W        W74473   3.477  22.198  12.601
 9313W        W74474  15.048  24.209  13.185
 9314W        W74475  38.949  31.557  13.904
 9315W        W74476  40.451  20.207  13.861
 9316W        W74477   2.999   7.857  13.861
 9317W        W74478  38.861  19.677   1.823
 9318W        W74479  13.192  40.614   2.211
 9319W        W74480  27.761  13.688  13.524
 9320W        W74481  14.831   7.816  14.801
 9321W        W74482  13.630   9.668   3.695
 9322W        W74483   3.237  16.361   9.953
 9323W        W74484  26.725  22.086   3.787
 9324W        W74485  30.508   0.997   3.709
 9325W        W74486  43.105  29.550   3.685
 9326W        W74487   4.343  12.317  13.108
 9327W        W74488  29.426  41.248  14.551
 9328W        W74489  15.963   5.252  13.113
 9329W        W74490  30.103  22.809   2.226
 9330W        W74491  22.718  29.114  10.619
 9331W        W74492   6.144  18.894  12.427
 9332W        W74493  28.534  10.553   2.880
 9333W        W74494  36.403  33.892   2.783
 9334W        W74495   8.976  43.947  13.671
 9335W        W74496  40.966  32.564  10.916
 9336W        W74497  41.010   3.858  11.486
 9337W        W74498  11.603   3.883  12.025
 9338W        W74499  14.653  36.373   3.611
 9339W        W74500  20.989  37.373   2.872
 9340W        W74501  28.019   2.436  13.982
 9341W        W74502   8.598   9.777   2.142
 9342W        W74503   2.997  27.555   3.744
 9343W        W74504  27.753   4.035  12.731
 9344W        W74505  41.921  16.663   3.741
 9345W        W74506  25.674  31.476   2.420
 9346W        W74507  40.979  34.385  13.376
 9347W        W74508  34.002  15.142   4.675
 9348W        W74509  24.470  14.069   0.470
 9349W        W74510  22.261  12.303   2.714
 9350W        W74511  42.941  17.082  12.831
 9351W        W74512  18.109  20.774   3.659
 9352W        W74513  38.823  13.799  13.474
 9353W        W74514  39.446  22.577   2.310
 9354W        W74515  22.048  38.111   4.126
 9355W        W74516  28.182  36.252  10.934
 9356W        W74517  17.499   7.467   1.917
 9357W        W74518  22.795  28.053   2.463
 9358W        W74519  34.080   1.410  12.205
 9359W        W74520  17.123  26.571  14.904
 9360W        W74521  15.868  34.175   2.835
 9361W        W74522  17.804  15.638  14.056
 9362W        W74523   7.102  36.121  12.538
 9363W        W74524   3.211  38.642   2.920
 9364W        W74525  35.183  40.079   2.413
 9365W        W74526  13.036  40.458  13.807
 9366W        W74527  34.361  31.133   3.599
 9367W        W74528  37.470   3.269   4.301
 9368W        W74529  31.318  24.093   0.981
 9369W        W74530  12.216  24.206   1.880
 9370W        W74531  16.115  11.556  11.602
 9371W        W74532  16.040  33.858  13.996
 9372W        W74533   4.884  39.390  12.532
 9373W        W74534  36.457   0.721  12.089
 9374W        W74535  16.117  30.549  13.948
 9375W        W74536  40.295   8.597  10.987
 9376W        W74537  36.436  24.590  10.565
 9377W        W74538  37.885   8.570   0.970
 9378W        W74539  21.948  24.793   0.289
 9379W        W74540  33.611  12.622   1.793
 9380W        W74541   2.891  27.145  11.810
 9381W        W74542   5.204  43.936  12.299
 9382W        W74543  10.121   0.625   0.353
 9383W        W74544  23.831  15.572  12.861
 9384W        W74545  24.280  24.150  14.012
 9385W        W74546  15.522  25.422  11.109
 9386W        W74547  25.706  25.074  12.569
 9387W        W74548  27.425  29.457   3.401
 9388W        W74549  10.582  30.640  14.831
 9389W        W74550  21.810  40.585  11.851
 9390W        W74551  33.402  28.065   4.761
 9391W        W74552  34.029  41.579   3.150
 9392W        W74553   6.940  33.446   2.691
 9393W        W74554  37.730  30.641   2.824
 9394W        W74555   9.198  31.665  13.408
 9395W        W74556  19.777  31.978   4.166
 9396W        W74557  37.477   7.388   3.760
 9397W        W74558  27.187  34.974   4.849
 9398W        W74559  24.497  43.367   0.423
 9399W        W74560  36.148   0.923   3.261
 9400W        W74561   1.206  14.085   2.301
 9401W        W74562  28.178  27.549   0.720
 9402W        W74563  29.608  10.636  10.564
 9403W        W74564  30.000  27.903   2.971
 9404W        W74565  22.565  35.972   4.914
 9405W        W74566  36.054  41.794   0.770
 9406W        W74567   1.465  28.482   1.479
 9407W        W74568  16.697  41.544   5.044
 9408W        W74569  32.955   8.347  13.353
 9409W        W74570  19.997  13.814  10.544
 9410W        W74571  35.562  27.880  10.878
 9411W        W74572  42.738  26.695   2.219
 9412W        W74573   3.757  38.782   0.414
 9413W        W74574   6.806  28.551   2.364
 9414W        W74575  18.298  27.160  12.044
 9415W        W74576  12.574  15.709  12.897
 9416W        W74577  28.962   4.376  11.550
 9417W        W74578  36.897   8.231   1.274
 9418W        W74579   2.417  19.662  11.163
 9419W        W74580  43.421  11.960   2.114
 9420W        W74581  26.235  12.627  13.021
 9421W        W74582   8.978  14.497   4.974
 9422W        W74583   0.444  40.483  10.606
 9423W        W74584  18.165  10.604   2.690
 9424W        W74585  28.437  13.161   1.376
 9425W        W74586  39.849   5.824  11.846
 9426W        W74587  15.755  41.790  14.257
 9427W        W74588  38.522  10.945  11.891
 9428W        W74589   1.302   1.861   1.606
 9429W        W74590  29.913  16.071  10.727
 9430W        W74591  15.837  20.628   3.267
 9431W        W74592  36.779  23.255  12.601
 9432W        W74593  41.459  39.768   1.408
 9433W        W74594  40.048   0.452  14.698
 9434W        W74595  10.900   3.370  13.572
 9435W        W74596  13.303   0.870   0.341
 9436W        W74597  19.521  40.811   0.312
 9437W        W74598  44.300   5.045  12.645
 9438W        W74599  35.042  24.006  14.253
 9439W        W74600  35.066  39.705  11.589
 9440W        W74601  22.272  21.195  13.934
 9441W        W74602  38.968  44.647  10.672
 9442W        W74603  12.217  21.774   1.421
 9443W        W74604  16.708  21.222  11.531
 9444W        W74605  34.411  35.411  14.763
 9445W        W74606  35.079   6.392  11.615
 9446W        W74607  44.114  21.045   3.304
 9447W        W74608   2.340  39.577   1.277
 9448W        W74609  32.893  29.164  14.802
 9449W        W74610  40.806   2.277   1.927
 9450W        W74611  34.634   6.137   4.637
 9451W        W74612  39.364  25.975   2.827
 9452W        W74613  11.694  24.270   0.396
 9453W        W74614  40.917   4.837   3.576
 9454W        W74615   1.368  17.051  13.446
 9455W        W74616  38.439   2.783  13.342
 9456W        W74617  38.592  37.002   0.824
 9457W        W74618  28.453  34.677   2.735
 9458W        W74619  39.568  38.887  14.407
 9459W        W74620  41.936  41.309  12.413
 9460W        W74621  10.681  39.070   1.479
 9461W        W74622  40.774   8.964   2.525
 9462W        W74623   9.232  12.028  12.920
 9463W        W74624  19.558   6.168   4.149
 9464W        W74625  44.926  23.002  10.923
 9465W        W74626  11.647  43.496   3.274
 9466W        W74627  27.577  43.974   0.859
 9467W        W74628  43.291  33.569  14.999
 9468W        W74629   9.887   9.757   0.401
 9469W        W74630  28.609  26.089   9.760
 9470W        W74631  35.708   9.930   1.261
 9471W        W74632   8.023  12.803   4.177
 9472W        W74633  11.138  30.898  14.264
 9473W        W74634   2.715  30.829   1.950
 9474W        W74635  31.447  27.744  14.089
 9475W        W74636  42.411  17.775   4.181
 9476W        W74637  16.042  30.569   3.238
 9477W        W74638  32.598   8.341   1.956
 9478W        W74639  18.263  28.667   2.148
 9479W        W74640  29.132   8.287   4.130
 9480W        W74641  13.650  39.767  11.117
 9481W        W74642  12.054  37.158  13.119
 9482W        W74643  18.998  22.812   5.088
 9483W        W74644  38.540   3.342   3.187
 9484W        W74645   7.298   6.411  10.989
 9485W        W74646   3.437  41.051   4.833
 9486W        W74647  23.135   2.202  11.208
 9487W        W74648  32.162   9.796  12.929
 9488W        W74649  29.403  19.107  13.885
 9489W        W74650  28.463  18.013  14.949
 9490W        W74651  32.181  44.803  11.808
 9491W        W74652  25.066  30.264  11.475
 9492W        W74653   4.720   4.353   1.366
 9493W        W74654   4.313  25.512   0.188
 9494W        W74655  35.909  15.182   3.397
 9495W        W74656  32.547  16.097  14.366
 9496W        W74657   0.815  19.358   4.512
 9497W        W74658   2.338  39.349  11.527
 9498W        W74659   2.310  17.237  12.326
 9499W        W74660  18.845  40.973  11.560
 9500W        W74661  37.232   7.935   2.246
 9501W        W74662  25.035  16.617   3.621
 9502W        W74663  14.619   6.243   4.578
 9503W        W74664  39.851  20.554   0.794
 9504W        W74665  10.919  40.834  11.549
 9505W        W74666  29.056  39.104   2.706
 9506W        W74667  42.412  36.418   0.421
 9507W        W74668  27.185  42.292   0.290
 9508W        W74669  33.156   6.209  11.521
 9509W        W74670   3.155  26.440   5.398
 9510W        W74671  42.672  41.022  13.325
 9511W        W74672  37.210  41.297   1.841
 9512W        W74673  41.795   7.278   4.360
 9513W        W74674   3.456  34.831   1.421
 9514W        W74675   2.479  13.694  11.142
 9515W        W74676  41.238  11.675   0.845
 9516W        W74677  13.731  31.858  11.516
 9517W        W74678  40.258  40.390   0.807
 9518W        W74679  34.620  37.110  13.444
 9519W        W74680  34.222  44.912   1.346
 9520W        W74681   9.243  25.489  11.005
 9521W        W74682   1.785  31.531  13.294
 9522W        W74683  34.223  26.435  11.152
 9523W        W74684  17.630  42.072   1.252
 9524W        W74685  34.857  23.715   0.605
 9525W        W74686  41.459  35.928   0.288
 9526W        W74687   6.659  38.049   0.316
 9527W        W74688  33.789  34.275   4.435
 9528W        W74689  32.451   8.206   4.181
 9529W        W74690  44.289  11.722   4.274
 9530W        W74691  33.593   3.973  13.964
 9531W        W74692   3.327  33.598   1.500
 9532W        W74693  32.847  11.320   3.148
 9533W        W74694  26.476   6.197  10.169
 9534W        W74695   0.075  21.487  11.750
 9535W        W74696  32.941  22.589   3.561
 9536W        W74697  18.134  29.162  14.408
 9537W        W74698  22.063  10.574   2.186
 9538W        W74699  26.680   3.254  12.161
 9539W        W74700  15.279   1.476  13.067
 9540W        W74701   8.928  43.402  11.429
 9541W        W74702  41.857  25.513  11.711
 9542W        W74703  22.755   4.607  14.064
 9543W        W74704   9.392  27.460  11.152
 9544W        W74705  23.133  29.908  13.272
 9545W        W74706  26.760   2.325   4.163
 9546W        W74707  20.528  36.564   2.976
 9547W        W74708  22.553  23.574  13.720
 9548W        W74709   2.429   2.926   1.317
 9549W        W74710  38.282  24.721   4.413
 9550W        W74711  38.107  19.805  13.828
 9551W        W74712  26.476  19.337  12.992
 9552W        W74713  12.746  33.041   2.916
 9553W        W74714  39.532   2.320  12.398
 9554W        W74715  14.586  42.401   4.658
 9555W        W74716  10.073  43.588  10.976
 9556W        W74717  31.016  33.386  12.924
 9557W        W74718  22.180  44.318   2.408
 9558W        W74719  39.787  38.365  11.632
 9559W        W74720  25.662  23.882  10.768
 9560W        W74721  10.765  25.232  12.581
 9561W        W74722  27.016  36.281  13.550
 9562W        W74723  14.131  37.826   2.866
 9563W        W74724  16.645  28.863   2.887
 9564W        W74725  41.540  23.723   4.151
 9565W        W74726  39.594   1.540  10.722
 9566W        W74727  31.047  38.983   4.110
 9567W        W74728  38.918  34.324  12.456
 9568W        W74729  15.142  43.639  11.063
 9569W        W74730  17.631  10.273  12.611
 9570W        W74731   8.741  43.962   4.919
 9571W        W74732   7.739   6.376  13.942
 9572W        W74733   8.725   5.272  13.486
 9573W        W74734  17.758   4.318  13.111
 9574W        W74735   6.147  21.614  13.057
 9575W        W74736  42.130   1.698   3.176
 9576W        W74737  23.657  15.577  13.359
 9577W        W74738  17.318  25.484  11.634
 9578W        W74739  43.875   0.043  14.028
 9579W        W74740  30.855  38.533  12.956
 9580W        W74741   4.936  17.050   4.157
 9581W        W74742  26.216  22.090  14.363
 9582W        W74743  25.952  19.099   3.605
 9583W        W74744   4.318  31.893  12.862
 9584W        W74745  44.509   9.300   2.700
 9585W        W74746  27.446   9.101   0.258
 9586W        W74747  35.594  33.774  13.939
 9587W        W74748  10.822  13.055  10.658
 9588W        W74749  42.483  18.629   4.285
 9589W        W74750  17.551  12.238  14.671
 9590W        W74751  42.963   5.826  12.923
 9591W        W74752  43.899  29.140  10.609
 9592W        W74753  39.369  41.954  12.023
 9593W        W74754  24.118  25.228  10.749
 9594W        W74755  27.682  15.535  12.937
 9595W        W74756  15.003  32.147  11.215
 9596W        W74757   0.447   9.303  13.825
 9597W        W74758  26.024  24.752   2.761
 9598W        W74759  15.328  14.189  14.048
 9599W        W74760  43.833   7.257  11.780
 9600W        W74761  29.711   9.569  14.572
 9601W        W74762  29.929  40.782  12.155
 9602W        W74763   7.202   1.945  10.785
 9603W        W74764  42.400  16.688  12.264
 9604W        W74765  17.495  40.653   1.299
 9605W        W74766  38.941  34.468   3.665
 9606W        W74767  40.402   7.338  14.015
 9607W        W74768   9.908  26.957   4.974
 9608W        W74769  16.861  40.061   4.046
 9609W        W74770   9.344  17.802   4.067
 9610W        W74771  20.347   5.453   1.343
 9611W        W74772   0.701  17.130   0.461
 9612W        W74773  44.490  38.580  14.995
 9613W        W74774  27.614  24.013  12.877
 9614W        W74775  39.650   3.254   4.995
 9615W        W74776   3.329  24.955  14.343
 9616W        W74777  15.231  11.079  11.942
 9617W        W74778   8.833  11.364   4.126
 9618W        W74779  19.104  41.232  14.499
 9619W        W74780  14.257   1.541   4.768
 9620W        W74781  13.838  15.317   1.699
 9621W        W74782  31.011  23.489  10.295
 9622W        W74783  24.721  17.284  13.437
 9623W        W74784  15.195  22.614   3.214
 9624W        W74785  13.774  18.801   2.403
 9625W        W74786  23.567  33.152   4.610
 9626W        W74787  28.632  41.565   3.607
 9627W        W74788  42.493  16.530   3.671
 9628W        W74789   2.010   4.213  11.580
 9629W        W74790  44.320  17.622  12.547
 9630W        W74791  23.588  37.351   1.842
 9631W        W74792  20.658  29.119  11.679
 9632W        W74793   7.129   9.411   0.827
 9633W        W74794   5.729  41.769  14.861
 9634W        W74795  19.848  34.467   4.532
 9635W        W74796  39.594  29.984   1.869
 9636W        W74797  17.761  13.592   1.900
 9637W        W74798   3.767  18.506   0.169
 9638W        W74799  28.506  37.356   0.703
 9639W        W74800  10.609  12.173   3.102
 9640W        W74801  19.306  25.588   0.765
 9641W        W74802   6.932  25.479   0.467
 9642W        W74803  18.065  26.018  12.858
 9643W        W74804  38.413  32.175  13.699
 9644W        W74805  43.464  32.843  12.661
 9645W        W74806  25.408  36.580   2.178
 9646W        W74807  21.593  26.271  14.676
 9647W        W74808  29.421   4.401   3.101
 9648W        W74809  13.275   2.061   3.109
 9649W        W74810   0.696  31.068   2.718
 9650W        W74811  33.290  20.652   3.234
 9651W        W74812  22.985  44.370   3.107
 9652W        W74813  27.512   6.006  10.509
 9653W        W74814  21.763  26.900   1.752
 9654W        W74815  23.339   9.274   4.163
 9655W        W74816   6.329  28.145  11.785
 9656W        W74817  35.012   6.261   4.092
 9657W        W74818  24.268  44.208   3.541
 9658W        W74819  43.730  29.497   1.076
 9659W        W74820  25.722  22.700   2.377
 9660W        W74821   1.793  43.346   0.974
 9661W        W74822  44.788   4.208   3.353
 9662W        W74823  22.379  35.566   0.098
 9663W        W74824   5.349  18.348  14.886
 9664W        W74825  14.669  15.819   5.296
 9665W        W74826  44.015   4.208  13.286
 9666W        W74827   4.958  19.207   0.067
 9667W        W74828   7.440  27.659   1.620
 9668W        W74829   9.384   2.214   1.769
 9669W        W74830  20.153   4.974  13.426
 9670W        W74831  42.351  25.598   1.693
 9671W        W74832   1.255  10.147   3.005
 9672W        W74833   5.977  28.206  12.586
 9673W        W74834  26.651   6.563  12.902
 9674W        W74835  13.625  25.513  11.125
 9675W        W74836  13.412  29.179  12.503
 9676W        W74837  26.176  35.327  11.161
 9677W        W74838   2.326   1.763  14.297
 9678W        W74839  43.565  39.421   3.252
 9679W        W74840  12.709  21.294   4.390
 9680W        W74841  24.305  16.141   3.672
 9681W        W74842   3.780  36.535  12.849
 9682W        W74843  30.594  41.550   1.188
 9683W        W74844   7.853  23.042  11.598
 9684W        W74845   3.886  24.594   0.693
 9685W        W74846  17.825  26.742  14.461
 9686W        W74847  28.684  39.301   4.576
 9687W        W74848  34.210  19.996   1.394
 9688W        W74849  18.619  32.156  11.162
 9689W        W74850  18.532  34.550  14.354
 9690W        W74851  44.803  27.921   2.700
 9691W        W74852   2.819   0.243  12.080
 9692W        W74853  16.300  17.840   0.355
 9693W        W74854  19.663   2.325  10.790
 9694W        W74855  19.085  38.073  14.783
 9695W        W74856   2.961  13.652  13.562
 9696W        W74857  35.483  31.390  10.664
 9697W        W74858  14.976  18.018  11.071
 9698W        W74859  10.588  42.919  12.888
 9699W        W74860  43.985  12.525   4.222
 9700W        W74861  20.063  28.585   4.628
 9701W        W74862  37.354  35.584   2.614
 9702W        W74863  25.482   3.519   1.351
 9703W        W74864   0.947  42.325  13.412
 9704W        W74865  37.327  34.963   4.675
 9705W        W74866  34.599  42.175   1.203
 9706W        W74867  29.476  42.750  11.350
 9707W        W74868  37.661  38.381  14.069
 9708W        W74869  19.726  23.640  14.637
 9709W        W74870  38.137  44.585   4.256
 9710W        W74871  11.111  14.234   2.366
 9711W        W74872  36.598  23.860  10.244
 9712W        W74873  37.503   6.707  13.080
 9713W        W74874  36.262  15.235   3.784
 9714W        W74875   2.976   6.148  10.928
 9715W        W74876  23.971  36.227  11.079
 9716W        W74877   6.956  20.884  13.979
 9717W        W74878   1.475  30.012  13.475
 9718W        W74879  32.481  27.590   2.675
 9719W        W74880  21.693  32.009   1.533
 9720W        W74881  14.190  34.369   0.361
 9721W        W74882  27.285  33.308  13.260
 9722W        W74883  18.636  11.283  11.564
 9723W        W74884  36.341  26.765   2.903
 9724W        W74885   4.428  21.758  12.906
 9725W        W74886  21.963   1.917  13.975
 9726W        W74887  37.845  12.156   0.864
 9727W        W74888  40.901  27.008   3.077
 9728W        W74889   9.861  35.063  13.012
 9729W        W74890   2.236   3.453   4.216
 9730W        W74891  43.611   0.352   1.834
 9731W        W74892  16.096  35.423  14.969
 9732W        W74893  10.813   9.984   2.790
 9733W        W74894  14.304  10.580  10.546
 9734W        W74895  21.070  39.977  13.301
 9735W        W74896   6.862  38.323  13.430
 9736W        W74897   4.503  11.034   4.082
 9737W        W74898  17.837  19.529  11.400
 9738W        W74899   4.821  43.896   3.025
 9739W        W74900  29.070   2.945   0.471
 9740W        W74901  43.901  31.401  12.536
 9741W        W74902  37.877  26.867  12.939
 9742W        W74903  15.404  18.635  14.727
 9743W        W74904  30.725  35.379   0.707
 9744W        W74905  30.614  32.994  11.631
 9745W        W74906   1.189  43.190  11.628
 9746W        W74907  42.729   7.894  14.501
 9747W        W74908  26.438  33.719  11.239
 9748W        W74909  18.350   0.816   2.137
 9749W        W74910  39.263  16.815  11.825
 9750W        W74911  32.684  23.701   9.968
 9751W        W74912  33.878  38.810   0.029
 9752W        W74913   3.725   9.483   4.503
 9753W        W74914  33.650  26.337   0.017
 9754W        W74915   0.194  43.982   0.894
 9755W        W74916  40.413  31.403  14.579
 9756W        W74917  22.735   4.766   2.844
 9757W        W74918  27.012  13.509   0.291
 9758W        W74919  39.462   9.349  13.878
 9759W        W74920   1.382  24.236  14.458
 9760W        W74921  44.350  41.479  11.530
 9761W        W74922  20.263  13.326   2.438
 9762W        W74923  17.540  22.751   1.787
 9763W        W74924  32.629  30.788   3.169
 9764W        W74925  14.652  44.743   3.189
 9765W        W74926  16.145  27.631   0.730
 9766W        W74927  17.292   1.402   4.076
 9767W        W74928   6.238  30.866  12.374
 9768W        W74929  13.534  38.070  14.309
 9769W        W74930  36.039  41.044  12.118
 9770W        W74931  42.194   4.365  12.541
 9771W        W74932  16.461  35.529  12.612
 9772W        W74933   8.764  34.363   4.106
 9773W        W74934   6.332  43.479   2.755
 9774W        W74935  22.617  40.084   3.172
 9775W        W74936   7.187   3.051  12.476
 9776W        W74937  31.829   0.455  12.970
 9777W        W74938   1.106  10.675  13.938
 9778W        W74939  22.804  21.191  13.885
 9779W        W74940  32.698  30.095   1.244
 9780W        W74941  15.516   9.267  11.943
 9781W        W74942  20.244  29.021  11.360
 9782W        W74943   5.029  39.070  10.731
 9783W        W74944  33.520  14.793  11.059
 9784W        W74945  13.012  31.026   3.156
 9785W        W74946  27.004  20.088   3.295
 9786W        W74947  19.998  43.708  12.886
 9787W        W74948   9.821  28.705   3.759
 9788W        W74949  30.966  17.090  12.806
 9789W        W74950  28.512  22.153  12.556
 9790W        W74951   5.849   2.642   0.030
 9791W        W74952  19.563  38.402   2.324
 9792W        W74953   9.156   6.476  10.569
 9793W        W74954  12.746  40.113   2.829
 9794W        W74955  29.252  18.327   3.662
 9795W        W74956  40.096  21.551  13.098
 9796W        W74957  42.298  17.756  11.576
 9797W        W74958  19.342   0.973  13.544
 9798W        W74959   9.311   4.359   1.014
 9799W        W74960  33.978   3.359  13.051
 9800W        W74961  43.079  34.415   0.373
 9801W        W74962  18.566   1.963  14.830
 9802W        W74963  40.383  26.372   4.217
 9803W        W74964  43.292  18.139   2.343
 9804W        W74965  21.624  37.407   1.685
 9805W        W74966   3.433   3.420  13.332
 9806W        W74967  28.406  35.553  13.787
 9807W        W74968  27.079  16.184   0.393
 9808W        W74969  42.724  31.042  14.039
 9809W        W74970  15.383  28.810   4.946
 9810W        W74971  27.533  31.900   4.597
 9811W        W74972  44.439   5.079   1.784
 9812W        W74973  33.194  26.449  11.850
 9813W        W74974  35.416  23.066  11.011
 9814W        W74975  34.680  27.147  14.612
 9815W        W74976  44.136  44.586  13.304
 9816W        W74977   1.546   2.616  12.617
 9817W        W74978   1.891  26.769   1.575
 9818W        W74979  43.084  23.170   0.865
 9819W        W74980  13.279  25.732   0.268
 9820W        W74981  24.510   4.895   3.150
 9821W        W74982  42.384  44.778  12.593
 9822W        W74983  32.337  39.291  13.371
 9823W        W74984  20.155  22.176  10.432
 9824W        W74985   7.248   7.885  13.386
 9825W        W74986  12.400  44.170  14.862
 9826W        W74987  18.702   3.901   1.763
 9827W        W74988  26.017   2.806   1.206
 9828W        W74989  29.554   9.121  11.113
 9829W        W74990  25.294  34.610  10.756
 9830W        W74991   5.562  22.942  14.958
 9831W        W74992  38.313   6.369  14.773
 9832W        W74993  37.911   4.923   4.372
 9833W        W74994  32.118   8.745   0.442
 9834W        W74995  13.663   6.902   4.757
 9835W        W74996  10.336  20.594  13.455
 9836W        W74997  24.857  29.793   3.819
 9837W        W74998  30.512  18.817  14.822
 9838W        W74999  35.817  43.547  13.813
 9839W        W75000  25.380  11.838   0.429
 9840W        W75001  13.244   9.111  12.485
 9841W        W75002  40.576   9.075  12.128
 9842W        W75003  42.323  23.319   2.235
 9843W        W75004  33.121  33.802   3.284
 9844W        W75005  32.046   8.601  13.872
 9845W        W75006  16.171  26.727   3.038
 9846W        W75007  17.109  27.898  12.040
 9847W        W75008   7.247  36.739   2.722
 9848W        W75009  43.890  35.857   2.332
 9849W        W75010  26.466  34.721   4.986
 9850W        W75011  43.373  33.906  13.298
 9851W        W75012  29.803  16.486   4.186
 9852W        W75013  26.584  16.375   5.119
 9853W        W75014  14.225  30.834   3.722
 9854W        W75015  40.542  10.351   1.227
 9855W        W75016  38.924  17.305   5.370
 9856W        W75017  27.072  31.011  11.573
 9857W        W75018   8.498  27.379  11.110
 9858W        W75019   7.552  26.969   5.455
 9859W        W75020  32.156  12.793   1.812
 9860W        W75021   1.964  33.908  10.655
 9861W        W75022   5.481  37.310   1.777
 9862W        W75023  25.685  41.234   1.858
 9863W        W75024  14.566   6.346   1.927
 9864W        W75025   9.339   1.895  13.035
 9865W        W75026  27.203  40.273  12.899
 9866W        W75027  12.211  22.336  11.146
 9867W        W75028  16.017  17.605  12.570
 9868W        W75029  23.079   9.164  14.855
 9869W        W75030  34.174  37.944  13.088
 9870W        W75031  38.033  16.517   2.811
 9871W        W75032  37.401  27.346  14.359
 9872W        W75033   6.433  31.836  12.535
 9873W        W75034  30.640  20.667  10.962
 9874W        W75035  39.905  24.079   2.907
 9875W        W75036  10.740   9.533  10.590
 9876W        W75037  39.006  24.242   2.635
 9877W        W75038  36.836  36.592   0.428
 9878W        W75039  26.521  43.358   5.597
 9879W        W75040   5.642  41.324  12.139
 9880W        W75041  40.781  15.407  12.010
 9881W        W75042  21.575  34.518  11.127
 9882W        W75043  30.128   2.696   2.782
 9883W        W75044  32.316  10.125   1.273
 9884W        W75045   2.427   2.336  13.407
 9885W        W75046  13.802  44.444  14.535
 9886W        W75047  35.369  33.818   1.198
 9887W        W75048   4.279  24.914  14.358
 9888W        W75049  34.378   8.972   2.715
 9889W        W75050  39.458   1.004  11.602
 9890W        W75051  19.689   9.599   1.816
 9891W        W75052   1.976  10.025   2.831
 9892W        W75053  36.508  21.229   3.863
 9893W        W75054   0.624   7.478  13.059
 9894W        W75055  28.977  17.743  14.303
 9895W        W75056  37.446  31.718  11.137
 9896W        W75057  11.749  32.533  12.795
 9897W        W75058   5.765   9.646  12.435
 9898W        W75059  34.957  41.936  12.457
 9899W        W75060  13.342  15.675  10.947
 9900W        W75061  43.356  30.569   0.208
 9901W        W75062  18.238  13.670   0.916
 9902W        W75063  35.065   0.023  13.871
 9903W        W75064   8.745  20.024   4.244
 9904W        W75065  23.269  16.217  11.541
 9905W        W75066   6.699   0.150   3.350
 9906W        W75067  11.562  36.576   0.465
 9907W        W75068  13.832  20.635  13.520
 9908W        W75069  42.566   9.170  11.110
 9909W        W75070   0.956  43.313   3.039
 9910W        W75071  26.101   1.969   3.742
 9911W        W75072  31.496  33.602   4.197
 9912W        W75073   3.219  23.446  11.054
 9913W        W75074   2.004  18.576   3.484
 9914W        W75075  35.362   7.137   1.870
 9915W        W75076  35.701  23.514  11.117
 9916W        W75077  37.690  27.854   3.589
 9917W        W75078  25.002   5.503  13.790
 9918W        W75079  24.468  42.315  12.124
 9919W        W75080  20.186  20.925   1.303
 9920W        W75081   6.249   5.014  14.507
 9921W        W75082  34.778  16.691  12.939
 9922W        W75083   1.886  34.345  11.539
 9923W        W75084  14.390  13.348  11.926
 9924W        W75085   7.799  32.678   2.265
 9925W        W75086  16.805  30.225  11.388
 9926W        W75087  24.672  27.587  11.653
 9927W        W75088  35.807  33.014   1.741
 9928W        W75089  17.318  31.985  10.711
 9929W        W75090  42.918  21.799  12.324
 9930W        W75091  34.307  36.475  14.956
 9931W        W75092   6.175  20.293   0.952
 9932W        W75093  16.064  21.206  14.943
 9933W        W75094  40.770  13.261  12.080
 9934W        W75095  33.648  10.085   9.998
 9935W        W75096  18.203  33.733   2.640
 9936W        W75097  21.894  10.794   1.169
 9937W        W75098   6.342   2.821   1.655
 9938W        W75099  13.237   5.654  13.793
 9939W        W75100  13.330  11.538  13.351
 9940W        W75101  35.343  43.072  10.773
 9941W        W75102   5.211   5.697   4.854
 9942W        W75103  10.425  43.434  11.321
 9943W        W75104   5.198  16.516   0.761
 9944W        W75105   8.348  29.678   4.385
 9945W        W75106  14.314  44.539  12.876
 9946W        W75107   8.691  37.432   3.271
 9947W        W75108  16.915  16.934   5.385
 9948W        W75109  13.611  24.535   0.744
 9949W        W75110  20.612  27.227  11.595
 9950W        W75111  19.999  29.017   0.535
 9951W        W75112  41.043   8.639  11.648
 9952W        W75113  22.818  27.086  11.349
 9953W        W75114  38.910  42.183   3.309
 9954W        W75115   9.826  24.619   4.942
 9955W        W75116  33.976   8.393   4.879
 9956W        W75117   2.980  40.570   4.113
 9957W        W75118  29.050   3.371   4.553
 9958W        W75119   4.078  14.219  11.600
 9959W        W75120  17.777  12.691  14.784
 9960W        W75121  34.391  20.036   2.708
 9961W        W75122  17.753  32.980   3.347
 9962W        W75123  41.366  30.880   2.645
 9963W        W75124  24.237   5.837   0.484
 9964W        W75125  34.525   8.982  11.245
 9965W        W75126  37.240   7.277  10.728
 9966W        W75127   9.189  32.162  14.700
 9967W        W75128  35.965   1.360  14.073
 9968W        W75129   6.308  22.156  10.718
 9969W        W75130  29.739   0.705  14.948
 9970W        W75131  12.760   4.441  14.243
 9971W        W75132  27.327  33.850   0.312
 9972W        W75133  15.467  16.591  10.782
 9973W        W75134  42.025  11.785   3.077
 9974W        W75135   0.809  37.496  14.403
 9975W        W75136  17.089   9.114  13.361
 9976W        W75137  16.674  24.652   2.712
 9977W        W75138  12.825  33.971  11.403
 9978W        W75139  17.004  44.514  14.473
 9979W        W75140   6.628  25.268  11.088
 9980W        W75141   4.083  35.587  13.473
 9981W        W75142  24.282   3.400  14.047
 9982W        W75143  11.663  31.593   0.779
 9983W        W75144  43.895  41.091   3.173
 9984W        W75145  41.060  16.271   2.835
 9985W        W75146   5.771   7.711   4.732
 9986W        W75147  12.910  24.119  12.413
 9987W        W75148  13.853  11.719  14.854
 9988W        W75149  31.241   7.247  14.901
 9989W        W75150   2.683  25.528  13.834
 9990W        W75151  16.993  43.356  12.949
 9991W        W75152  20.631  40.065   0.104
 9992W        W75153  42.041  39.253   1.804
 9993W        W75154  15.509   5.122   4.129
 9994W        W75155   1.075  25.108  11.674
 9995W        W75156  38.343  19.078   1.342
 9996W        W75157   6.378  40.730  12.929
 9997W        W75158  27.680  28.175  11.547
 9998W        W75159  40.910  21.512  11.913
 9999W        W75160   2.955  36.214  11.811
10000W        W75161   6.492   9.884   3.193
10001W        W75162   1.936  37.144   3.202
10002W        W75163  39.430  32.536  14.004
10003W        W75164   7.680  11.584  12.990
10004W        W75165   2.409  23.994  13.028
10005W        W75166  11.584  30.509  13.025
10006W        W75167  30.531  39.423  13.374
10007W        W75168  26.790  23.919   4.495
10008W        W75169  20.667  41.964  13.839
10009W        W75170  26.645  43.911   0.624
10010W        W75171  37.878   0.889  14.935
10011W        W75172   1.000   7.218   2.270
10012W        W75173  29.511  14.538  10.692
10013W        W75174   4.745  25.031  12.301
10014W        W75175   2.481   5.149   0.334
10015W        W75176   4.953  21.219  11.039
10016W        W75177   0.261  10.539   1.334
10017W        W75178  44.349  36.445   3.628
10018W        W75179  31.974   9.297  14.249
10019W        W75180  25.924  26.130  12.017
10020W        W75181  31.421  40.831   2.878
10021W        W75182  32.141  43.694   1.047
10022W        W75183  44.930  23.129   4.532
10023W        W75184  10.389  19.521  12.707
10024W        W75185  44.577   0.399   4.978
10025W        W75186   4.222  31.458  13.992
10026W        W75187  28.427  32.986  14.126
10027W        W75188  37.839  36.948  13.576
10028W        W75189  10.433  29.982   4.373
10029W        W75190  31.859  10.725  10.821
10030W        W75191  36.820   7.021  11.482
10031W        W75192   6.817  42.337   0.865
10032W        W75193  16.436  13.603  13.698
10033W        W75194   5.973  23.302  14.908
10034W        W75195  29.980  26.768  12.202
10035W        W75196  24.927  14.367   3.606
10036W        W75197  14.478   7.750  10.929
10037W        W75198   9.397  28.078  14.207
10038W        W75199  13.077  29.996  14.163
10039W        W75200  37.451  43.422  10.644
10040W        W75201  16.492   9.197   3.922
10041W        W75202  11.081  26.236  14.354
10042W        W75203  18.473  39.388   1.979
10043W        W75204  15.643  21.684  13.581
10044W        W75205  31.357  35.613   1.832
10045W        W75206  18.059   7.170  11.504
10046W        W75207  42.511  16.710  13.651
10047W        W75208  32.677  13.165  13.024
10048W        W75209  31.123   0.869  12.072
10049W        W75210  40.898  11.190  14.557
10050W        W75211  27.993  37.689   4.647
10051W        W75212  42.102  41.865  10.787
10052W        W75213  13.759  13.668   5.061
10053W        W75214  31.588  27.045  12.984
10054W        W75215  32.543  13.814  14.811
10055W        W75216   6.774  38.444  11.650
10056W        W75217   1.396  30.123  10.593
10057W        W75218   1.442  11.697   2.781
10058W        W75219  30.522   1.714  12.129
10059W        W75220  29.617  14.541   1.722
10060W        W75221  15.085  23.789  11.378
10061W        W75222   5.387   4.264  12.888
10062W        W75223  17.440   9.465  14.994
10063W        W75224   6.943   2.190   1.406
10064W        W75225  14.601   7.786  12.783
10065W        W75226  39.357  22.626  12.919
10066W        W75227   5.314  23.884  14.586
10067W        W75228  23.746   2.996  14.870
10068W        W75229  22.415  27.056  10.915
10069W        W75230   4.714  17.743  12.392
10070W        W75231  43.320  42.899  13.925
10071W        W75232  37.863  11.327  13.020
10072W        W75233   2.611  18.452  13.601
10073W        W75234  44.489  29.323   4.151
10074W        W75235  40.302   7.075   3.344
10075W        W75236  40.279  39.822  12.049
10076W        W75237  23.029  28.300   2.879
10077W        W75238  26.194  23.938   0.264
10078W        W75239  44.424  27.255   4.113
10079W        W75240  30.122  25.882   1.325
10080W        W75241  32.555  27.492  10.437
10081W        W75242   8.186  33.617  14.843
10082W        W75243  23.990  28.673   4.727
10083W        W75244   9.440  35.424  14.223
10084W        W75245   6.135  11.213  14.390
10085W        W75246  22.479  37.560  10.759
10086W        W75247   5.544  28.786   0.846
10087W        W75248  17.543  36.821  13.956
10088W        W75249  11.138  30.228  12.169
10089W        W75250   9.876  13.198   2.173
10090W        W75251  20.387  34.348   1.044
10091W        W75252  10.682  15.670   3.648
10092W        W75253  10.311  10.301   2.111
10093W        W75254  18.625  14.087   0.469
10094W        W75255  18.080  28.237  12.903
10095W        W75256  37.409  44.859   4.085
10096W        W75257  38.850   9.849   1.883
10097W        W75258  31.102  27.778  10.921
10098W        W75259  18.694  38.010   2.908
10099W        W75260  31.548  32.679   3.824
10100W        W75261   0.708  38.436   0.360
10101W        W75262  38.444  30.621  11.971
10102W        W75263  27.691  41.321  14.926
10103W        W75264  15.648  19.323   4.369
10104W        W75265  20.839  17.242   9.821
10105W        W75266   5.185  14.279  10.418
10106W        W75267   5.250   1.261   2.359
10107W        W75268  14.699  42.349  14.585
10108W        W75269  19.004  34.661  12.423
10109W        W75270   3.386  15.647   0.840
10110W        W75271  16.845  31.070   4.571
10111W        W75272  28.172  41.860  10.469
10112W        W75273   1.284  12.046  11.497
10113W        W75274  36.444  33.652  13.390
10114W        W75275  37.151  15.810  12.871
10115W        W75276  41.958  29.006   2.383
10116W        W75277   6.881  31.874  14.950
10117W        W75278  32.830  35.519   4.307
10118W        W75279  26.115  38.266  12.845
10119W        W75280  26.998  24.124   4.057
10120W        W75281   8.714   5.798  13.546
10121W        W75282   6.988  41.868  14.470
10122W        W75283  31.783  37.381  12.506
10123W        W75284  30.398  43.446  12.447
10124W        W75285   6.186  21.270  13.482
10125W        W75286  37.586  15.100   3.177
10126W        W75287  23.990  32.319  12.342
10127W        W75288   2.504  18.731  10.743
10128W        W75289  22.919  42.521   3.209
10129W        W75290  23.542   1.077  10.707
10130W        W75291  34.694  43.848  11.417
10131W        W75292  38.004  43.802  13.508
10132W        W75293  36.580  17.269   3.192
10133W        W75294  36.595  39.499   4.183
10134W        W75295  31.345  16.197   0.341
10135W        W75296  44.651   5.411  14.767
10136W        W75297  31.872  17.141   2.626
10137W        W75298  14.578   3.336   4.795
10138W        W75299  44.972  44.606  11.610
10139W        W75300  28.176  42.350   1.312
10140W        W75301  43.889   3.626  12.016
10141W        W75302  23.550  39.021   5.165
10142W        W75303   2.758   4.172   3.689
10143W        W75304  24.344   6.066   3.143
10144W        W75305  36.004   3.179  11.631
10145W        W75306  25.388  22.273  13.070
10146W        W75307  35.004  24.226  13.783
10147W        W75308   1.534   6.010  11.909
10148W        W75309   8.936  14.007   2.763
10149W        W75310  33.744   7.368  11.159
10150W        W75311  13.298  40.986   1.369
10151W        W75312  36.665   7.245   1.824
10152W        W75313  22.827  36.999   3.871
10153W        W75314   6.980   2.880   4.534
10154W        W75315  11.378  20.116  10.910
10155W        W75316  15.168  34.005   2.367
10156W        W75317   0.082  30.468   4.323
10157W        W75318  30.472  15.173   0.901
10158W        W75319  40.417  11.120   1.708
10159W        W75320  12.595  39.901  11.574
10160W        W75321   4.520  31.845  13.814
10161W        W75322  15.157   6.714   2.418
10162W        W75323  21.097  23.301  14.489
10163W        W75324   8.130  41.798  11.143
10164W        W75325  43.398  41.279  13.992
10165W        W75326  27.631   7.791   1.490
10166W        W75327  43.643  15.523  10.768
10167W        W75328  19.973   9.741   2.250
10168W        W75329   9.222  44.179   4.664
10169W        W75330  36.790  23.588  14.426
10170W        W75331  18.842   2.399  12.058
10171W        W75332  29.896   6.773  13.052
10172W        W75333  24.078   2.212   1.645
10173W        W75334   5.688  24.971   3.360
10174W        W75335  35.948  13.221  12.835
10175W        W75336  11.106  11.254  14.733
10176W        W75337  39.931  10.699  14.058
10177W        W75338  32.180  29.001   1.968
10178W        W75339  37.970  18.215  10.195
10179W        W75340   1.249  30.413  12.914
10180W        W75341  18.047  18.655   0.510
10181W        W75342  25.271  23.463  12.017
10182W        W75343  34.120  12.945  11.771
10183W        W75344  17.002   3.292   1.475
10184W        W75345  34.125  42.123  12.424
10185W        W75346   0.768  32.602  11.894
10186W        W75347  11.374  43.969   2.684
10187W        W75348  10.208  25.423  13.744
10188W        W75349  15.874   6.128  14.895
10189W        W75350  17.758  31.756   3.982
10190W        W75351  26.486   8.737   4.876
10191W        W75352  10.615  23.350  14.481
10192W        W75353  20.900  18.255   4.667
10193W        W75354  28.883  37.924  11.212
10194W        W75355  27.035  32.845  13.296
10195W        W75356  15.254  18.947  10.092
10196W        W75357  38.130   7.365   3.221
10197W        W75358  43.444  32.481   1.820
10198W        W75359   5.002  32.423  12.433
10199W        W75360  36.015   5.908  12.719
10200W        W75361   8.213  26.166   5.159
10201W        W75362  12.594   8.834  11.111
10202W        W75363  32.651  29.457   1.039
10203W        W75364  27.713  15.574   4.595
10204W        W75365  40.002  15.247   0.733
10205W        W75366   8.768  14.158   4.526
10206W        W75367  21.287  20.485  13.326
10207W        W75368   5.125   4.718  12.902
10208W        W75369   3.583  25.179   3.160
10209W        W75370  25.438  35.857   1.752
10210W        W75371  21.977  38.314   3.142
10211W        W75372   8.220  12.513   3.192
10212W        W75373  31.510   6.050   3.839
10213W        W75374  20.254  12.965  10.738
10214W        W75375  15.202  20.983   3.631
10215W        W75376  27.224   8.916  11.088
10216W        W75377  39.013  32.550  12.931
10217W        W75378  33.129  42.484  14.960
10218W        W75379   8.339  37.605  14.463
10219W        W75380  11.689  27.015   3.636
10220W        W75381  34.552  17.562   4.413
10221W        W75382  43.974  20.283  10.731
10222W        W75383  37.169  20.979   3.777
10223W        W75384  11.609  12.174  14.519
10224W        W75385  34.876  24.252   2.167
10225W        W75386  13.285  33.769   3.238
10226W        W75387  18.614  35.737   3.381
10227W        W75388   0.408  41.811   2.865
10228W        W75389  17.456  29.473   4.857
10229W        W75390  25.652  36.930  14.532
10230W        W75391  25.621  21.580  14.832
10231W        W75392  28.560   3.176  14.433
10232W        W75393  29.162   7.904  10.718
10233W        W75394  20.190  36.406  11.003
10234W        W75395  27.930  15.204  11.921
10235W        W75396  26.554  40.193   3.996
10236W        W75397  18.100  39.091   1.275
10237W        W75398   9.956  10.018  11.194
10238W        W75399  19.184  15.082   4.851
10239W        W75400   7.659  13.046   2.829
10240W        W75401   3.155  11.757   1.648
10241W        W75402  18.649  34.331   2.766
10242W        W75403  23.157  42.624   4.097
10243W        W75404   5.119  33.615   3.261
10244W        W75405  22.217  15.080   0.003
10245W        W75406   8.882  13.925   1.731
10246W        W75407   4.811  35.247  12.941
10247W        W75408  44.430  30.517   3.111
10248W        W75409  26.262  21.200  13.890
10249W        W75410  37.860  14.602   0.189
10250W        W75411  33.952  28.468  12.902
10251W        W75412  40.930  18.854  11.471
10252W        W75413  27.684  19.167  12.448
10253W        W75414   9.715  36.199  11.105
10254W        W75415  13.112  31.575   1.619
10255W        W75416  39.027  21.069  10.224
10256W        W75417   4.986  36.583   2.864
10257W        W75418   9.204  12.159  12.402
10258W        W75419  31.338  10.710  14.429
10259W        W75420   3.251  41.932   1.365
10260W        W75421  43.756   6.350  13.988
10261W        W75422  38.924  41.131   4.169
10262W        W75423   4.667  42.947   1.811
10263W        W75424  15.764  44.512  14.789
10264W        W75425  23.619  20.335   2.350
10265W        W75426  21.694  41.257   2.899
10266W        W75427  44.924  20.159  11.684
10267W        W75428  15.847  18.518  12.559
10268W        W75429  30.914  32.734  14.345
10269W        W75430  17.683   7.251   2.882
10270W        W75431  29.559  17.611   3.628
10271W        W75432  21.794   2.936  14.978
10272W        W75433  18.240  10.300   4.712
10273W        W75434  28.766  29.623  13.837
10274W        W75435   4.480  39.626   2.241
10275W        W75436  30.086  12.397   1.454
10276W        W75437  38.324  13.638  12.945
10277W        W75438  33.869  13.882  13.381
10278W        W75439   0.509  25.586  11.011
10279W        W75440  23.059  40.694  10.966
10280W        W75441   0.306  32.257   1.995
10281W        W75442  30.940  14.317  12.411
10282W        W75443   6.658  42.939   2.891
10283W        W75444  37.008  32.002  12.928
10284W        W75445  32.822  30.630  12.061
10285W        W75446  35.698  25.855   3.805
10286W        W75447   1.295  13.359  12.581
10287W        W75448  36.473  20.724   3.173
10288W        W75449  19.491  20.012   0.411
10289W        W75450   5.380  23.182   1.466
10290W        W75451   8.210  43.009  14.415
10291W        W75452  44.862  32.918   4.224
10292W        W75453   5.694  18.762  14.893
10293W        W75454  22.564  17.615  11.488
10294W        W75455  18.352  30.813   2.342
10295W        W75456  11.219  41.986  11.916
10296W        W75457  15.518  35.547  12.933
10297W        W75458  38.879  36.746  14.296
10298W        W75459  31.738  41.827  10.864
10299W        W75460  25.697  19.757   3.140
10300W        W75461  43.284   4.875  13.962
10301W        W75462  18.310   0.405   2.971
10302W        W75463  19.332  31.396  13.170
10303W        W75464  34.158  37.902   0.928
10304W        W75465  10.948  25.237   2.838
10305W        W75466  15.824  17.849   2.658
10306W        W75467   9.743  30.984  12.952
10307W        W75468  11.383  12.876  11.203
10308W        W75469  18.774  29.116  12.529
10309W        W75470  32.863  38.342   0.767
10310W        W75471  27.069  43.001   0.886
10311W        W75472  21.504  13.450   4.130
10312W        W75473   3.799  23.633   2.969
10313W        W75474  40.794  37.014   0.366
10314W        W75475  15.786  40.503  12.475
10315W        W75476  37.632  14.199   2.547
10316W        W75477   6.120  35.013   1.951
10317W        W75478  28.553   4.438   3.149
10318W        W75479  20.111  25.976   4.291
10319W        W75480  13.598  27.810  14.366
10320W        W75481  12.067   3.849  14.420
10321W        W75482  36.122  20.737   1.662
10322W        W75483   5.302  14.091   1.923
10323W        W75484  38.476  23.029   0.919
10324W        W75485  13.476  31.897  14.009
10325W        W75486  25.818  44.598  13.585
10326W        W75487   5.790  25.158   3.817
10327W        W75488   5.190  18.057  13.382
10328W        W75489  22.145  14.404   2.646
10329W        W75490   2.429  16.637   1.574
10330W        W75491  18.817  18.532   3.484
10331W        W75492  39.960   0.651   3.145
10332W        W75493  28.883  21.245  12.513
10333W        W75494  20.588   4.198  14.504
10334W        W75495   9.930  42.397   0.341
10335W        W75496  26.443  44.242   5.148
10336W        W75497  26.518  29.116   3.893
10337W        W75498  41.554  29.578  12.935
10338W        W75499  43.359  44.055   0.415
10339W        W75500  35.449  18.790  13.924
10340W        W75501  17.872  39.832  13.818
10341W        W75502  31.591  20.601   4.289
10342W        W75503  17.245   3.732   3.618
10343W        W75504  16.759  41.186   4.266
10344W        W75505   4.703  29.990  13.227
10345W        W75506  27.889  44.830  13.305
10346W        W75507  43.819  21.898   3.768
10347W        W75508  17.130  23.623   3.446
10348W        W75509  28.601  20.258  14.951
10349W        W75510  10.727  21.764   3.635
10350W        W75511  14.296  19.059   3.273
10351W        W75512   2.886  36.958  10.671
10352W        W75513  11.323  19.608   0.837
10353W        W75514   3.492  12.626   0.457
10354W        W75515  22.264  43.376  13.218
10355W        W75516  29.065  19.089  10.673
10356W        W75517  41.218   2.628   2.788
10357W        W75518  11.700  29.925   4.591
10358W        W75519  19.319  35.215   4.094
10359W        W75520  41.795  17.429  12.915
10360W        W75521  36.303  17.092  10.693
10361W        W75522  40.345  39.498   1.226
10362W        W75523  17.020  23.151  10.486
10363W        W75524  28.687   1.982   3.116
10364W        W75525  40.841  39.212   4.812
10365W        W75526  17.130   8.236   0.951
10366W        W75527  27.943  22.971   2.130
10367W        W75528   9.783   5.342   3.665
10368W        W75529   8.948  35.066  13.398
10369W        W75530  23.794  18.683  14.852
10370W        W75531  24.176  25.558  10.174
10371W        W75532  24.157  16.066  11.606
10372W        W75533  35.980   1.015   1.803
10373W        W75534  31.618  20.227   0.480
10374W        W75535  22.781  21.816  12.399
10375W        W75536  26.534  14.657  14.070
10376W        W75537  25.600  39.003   3.152
10377W        W75538  19.694   6.102   0.862
10378W        W75539  37.126  37.925   9.913
10379W        W75540   0.043  44.863  10.390
10380W        W75541  10.619  16.710   1.234
10381W        W75542   6.391  44.878   2.256
10382W        W75543   6.269   8.570   2.866
10383W        W75544  25.044  14.127   0.806
10384W        W75545   8.871  28.730  11.182
10385W        W75546  27.407  25.704   1.098
10386W        W75547  23.091  21.460   4.479
10387W        W75548   4.068  41.451  11.091
10388W        W75549  22.586  44.173   0.428
10389W        W75550  18.552  13.493   4.526
10390W        W75551   1.314  22.184   0.040
10391W        W75552  24.984  37.892  14.549
10392W        W75553   4.690   0.548   0.081
10393W        W75554   8.872  24.795  11.978
10394W        W75555   7.440   6.182  12.903
10395W        W75556   1.131   3.739  11.139
10396W        W75557  30.073  31.037   1.339
10397W        W75558   8.902  39.362  12.859
10398W        W75559  22.200  30.809   1.164
10399W        W75560  25.015  42.429   2.180
10400W        W75561  37.812   6.938   0.778
10401W        W75562   3.932   7.431   4.920
10402W        W75563  14.847  35.046   0.221
10403W        W75564  30.174  21.081   0.810
10404W        W75565  21.201  33.069   9.996
10405W        W75566  12.726  35.635  12.054
10406W        W75567   8.620  29.014  14.846
10407W        W75568  17.971  19.049  11.635
10408W        W75569  13.927   8.520   3.827
10409W        W75570  37.900  17.686  13.787
10410W        W75571   4.433   8.722   2.419
10411W        W75572   9.660   3.280   2.365
10412W        W75573  36.821  12.833   2.732
10413W        W75574  43.425   3.298  13.642
10414W        W75575  25.834  43.823  11.448
10415W        W75576  13.219  31.975   0.737
10416W        W75577   5.017  20.638  12.382
10417W        W75578  36.315  17.228   4.083
10418W        W75579  19.874  37.573  11.545
10419W        W75580  21.497   0.932  10.594
10420W        W75581  38.553  28.864  10.345
10421W        W75582  25.771   9.715   3.158
10422W        W75583  43.695  38.778  12.038
10423W        W75584  33.542  19.270  10.362
10424W        W75585  22.952  28.158  11.577
10425W        W75586  15.232  23.060  11.559
10426W        W75587   3.833  14.544  11.944
10427W        W75588  10.537  39.322   4.172
10428W        W75589  23.287  24.984   1.269
10429W        W75590  38.413  27.068   2.623
10430W        W75591   5.441  31.119   5.023
10431W        W75592  33.978  34.878   1.889
10432W        W75593   3.983  27.142   1.762
10433W        W75594  12.742   7.478  12.618
10434W        W75595  22.575  30.487   3.746
10435W        W75596   9.015  34.934   1.763
10436W        W75597   3.451  18.985  12.758
10437W        W75598  27.445  43.812   4.800
10438W        W75599  30.003   7.324   1.601
10439W        W75600  14.048  13.204   4.288
10440W        W75601   3.346  27.002   3.847
10441W        W75602  29.630   3.479   2.146
10442W        W75603  32.197  21.803   0.924
10443W        W75604   0.049   5.303  11.318
10444W        W75605  14.776  10.887   3.711
10445W        W75606  29.042  39.637  14.065
10446W        W75607  33.537   5.098   2.148
10447W        W75608  43.879  27.943  14.868
10448W        W75609  25.117  29.697  12.069
10449W        W75610   4.223  19.655   3.198
10450W        W75611   0.906  35.014  11.100
10451W        W75612  31.863  29.082  11.092
10452W        W75613  10.047  23.242  13.355
10453W        W75614  14.768  39.687   2.708
10454W        W75615  41.983  27.114  10.577
10455W        W75616  41.098  31.183  12.505
10456W        W75617  25.755  34.818  13.375
10457W        W75618   3.593   4.009   4.623
10458W        W75619   0.556   9.161   4.186
10459W        W75620  19.705  28.630   4.253
10460W        W75621  29.918   4.602  13.245
10461W        W75622  26.079   5.767  13.772
10462W        W75623  37.532  35.087  13.851
10463W        W75624  20.656  41.942   3.004
10464W        W75625  31.185  25.538   4.086
10465W        W75626  13.414  13.606   3.157
10466W        W75627  13.974  11.334  10.375
10467W        W75628  15.389  24.680  13.902
10468W        W75629  38.823   9.908  14.497
10469W        W75630  20.055  39.913  11.074
10470W        W75631  39.916  12.589   3.193
10471W        W75632  26.529  17.529  11.540
10472W        W75633   0.144   5.433  14.612
10473W        W75634  22.263  16.178   2.225
10474W        W75635   5.851  31.106   3.717
10475W        W75636  26.997   2.322   1.883
10476W        W75637   8.461  10.918   0.805
10477W        W75638   2.934  35.563   4.182
10478W        W75639   7.007  30.683   4.207
10479W        W75640   1.773  35.479  11.917
10480W        W75641  20.798   3.996   1.787
10481W        W75642  37.756  25.963   2.196
10482W        W75643   8.934  36.489  10.671
10483W        W75644   3.944  11.374   0.400
10484W        W75645  37.309  13.657  13.993
10485W        W75646  27.237  16.624  14.993
10486W        W75647  19.279  13.873  12.957
10487W        W75648  21.082  21.545  11.569
10488W        W75649  15.188  43.036   3.689
10489W        W75650  44.549  43.540  13.983
10490W        W75651  29.543  27.081   1.591
10491W        W75652  14.259   8.200   2.645
10492W        W75653  20.802   3.912  13.694
10493W        W75654  41.829  40.373   2.656
10494W        W75655  27.093  39.507  10.892
10495W        W75656  12.752  43.254  10.726
10496W        W75657   0.532  31.894   2.819
10497W        W75658  10.289   8.727  10.258
10498W        W75659  41.357  23.220  11.764
10499W        W75660  29.359  12.749   2.615
10500W        W75661  16.826  40.997  14.582
10501W        W75662  17.808  21.288   4.744
10502W        W75663  24.750  16.866   2.191
10503W        W75664   1.764  19.662   4.859
10504W        W75665   9.813  23.088  14.692
10505W        W75666   8.709  42.514   3.353
10506W        W75667  14.612  43.854   0.961
10507W        W75668  28.722  31.310  13.470
10508W        W75669  28.262  33.152  12.105
10509W        W75670  14.794  14.217   4.245
10510W        W75671   4.374  28.540   3.159
10511W        W75672  12.616  44.331   4.552
10512W        W75673  12.097  17.551   1.448
10513W        W75674  30.063  29.886   0.244
10514W        W75675  33.579  37.961  14.541
10515W        W75676   6.138  18.021   1.744
10516W        W75677  22.821   8.921  11.328
10517W        W75678   3.856  20.144  12.185
10518W        W75679  11.137  15.754  10.432
10519W        W75680  16.289  43.073  11.940
10520W        W75681  14.667  43.099  13.879
10521W        W75682   0.984   5.693   2.443
10522W        W75683   5.710  23.179   3.278
10523W        W75684  33.637  44.553  14.998
10524W        W75685  30.311  16.565   4.298
10525W        W75686  36.604  33.420   2.861
10526W        W75687  44.989  27.653  12.301
10527W        W75688  12.900  32.026   4.064
10528W        W75689  44.674  40.395  11.046
10529W        W75690  16.230  17.694   1.198
10530W        W75691  16.099  41.834   0.759
10531W        W75692  12.410   6.138  10.749
10532W        W75693  27.667  18.819  12.034
10533W        W75694  17.704   9.883  14.787
10534W        W75695  16.180  14.887   2.756
10535W        W75696  14.159  15.685   5.094
10536W        W75697  16.698  12.892  11.567
10537W        W75698  25.180   6.728   3.240
10538W        W75699  28.279  11.120  13.848
10539W        W75700  23.188  44.569   2.106
10540W        W75701  11.551  44.618  13.152
10541W        W75702  28.900  19.356  13.918
10542W        W75703  27.371  17.806  14.156
10543W        W75704   2.187  40.911   2.185
10544W        W75705   2.919  30.985  12.011
10545W        W75706  26.681  40.330  12.945
10546W        W75707  19.121  23.504   0.254
10547W        W75708  22.181  30.435   5.088
10548W        W75709  41.329   4.146  11.154
10549W        W75710  22.501  17.373   9.619
10550W        W75711   6.559   2.870   3.207
10551W        W75712  17.593  10.105  11.058
10552W        W75713  11.262  31.966   2.452
10553W        W75714   6.384   5.383   3.963
10554W        W75715   4.737  27.655  11.503
10555W        W75716   4.216  18.297   1.172
10556W        W75717  38.321  30.882   1.941
10557W        W75718  17.512  34.395   0.674
10558W        W75719  21.660   2.400   4.216
10559W        W75720  36.358  27.165   0.835
10560W        W75721  35.284  19.796   4.107
10561W        W75722  26.964  15.196   3.009
10562W        W75723  20.672  20.747   2.711
10563W        W75724  44.914  21.726  13.406
10564W        W75725  13.353  17.208   3.249
10565W        W75726   6.013   1.341   0.001
10566W        W75727  40.710  40.087  11.909
10567W        W75728  17.902  30.951   0.920
10568W        W75729  41.945   4.891   1.606
10569W        W75730  17.846   3.413  12.632
10570W        W75731  39.695  25.696   0.291
10571W        W75732  13.105  17.665   1.189
10572W        W75733  23.202  31.091   3.762
10573W        W75734   1.640   9.136  11.487
10574W        W75735   1.870  35.356   1.789
10575W        W75736  10.887  13.606  11.504
10576W        W75737  44.080   9.803   3.650
10577W        W75738  28.594  27.224   0.338
10578W        W75739  37.608   1.651  12.857
10579W        W75740  37.372  10.442  14.212
10580W        W75741  25.979   5.285  14.036
10581W        W75742  33.394  28.121   3.292
10582W        W75743  16.787  32.096  14.004
10583W        W75744   6.561  34.757   9.858
10584W        W75745   0.781  24.985   2.155
10585W        W75746  20.560  14.682   4.377
10586W        W75747  29.408  36.605   0.437
10587W        W75748   1.857  26.561   0.381
10588W        W75749  36.107  16.913   4.446
10589W        W75750   9.288  36.374   3.438
10590W        W75751  33.947  30.522   4.267
10591W        W75752  23.938  18.245   3.758
10592W        W75753  11.681   1.624  13.783
10593W        W75754  16.541  16.823  12.986
10594W        W75755  28.446  11.387  11.943
10595W        W75756  42.297  22.678   3.293
10596W        W75757   1.929   5.847   4.151
10597W        W75758  34.575   2.513   3.607
10598W        W75759   9.387  42.662   0.850
10599W        W75760  43.278  16.070   0.825
10600W        W75761  17.001  30.854  14.384
10601W        W75762   9.703   9.372  13.350
10602W        W75763  15.103  22.219   0.979
10603W        W75764  44.855  14.825   2.169
10604W        W75765  22.567  40.365   3.828
10605W        W75766   6.708  40.583   2.771
10606W        W75767  23.996  43.879   1.744
10607W        W75768   2.079   5.267  11.607
10608W        W75769   2.741  16.355   9.761
10609W        W75770  27.823  25.499  14.825
10610W        W75771  24.189   3.009   1.191
10611W        W75772  31.807  12.929  12.012
10612W        W75773  30.959  28.551   1.957
10613W        W75774  19.837  20.573  13.553
10614W        W75775  17.260  12.380  12.065
10615W        W75776  14.378  37.633  13.386
10616W        W75777  26.091  41.714  12.536
10617W        W75778  19.402  18.703   1.703
10618W        W75779  43.233   0.266   3.369
10619W        W75780   1.001  14.647  13.948
10620W        W75781   5.707  41.097  13.307
10621W        W75782  22.806  42.069   0.690
10622W        W75783  29.163  24.652   3.557
10623W        W75784   7.158  38.060  11.547
10624W        W75785  19.799  33.988   3.289
10625W        W75786  30.929  13.229  14.513
10626W        W75787  33.092   0.978  12.013
10627W        W75788  29.841  42.452  11.533
10628W        W75789  11.197   8.417   2.378
10629W        W75790  41.957  30.368   3.836
10630W        W75791  44.242   6.157   0.852
10631W        W75792  39.457  44.424  11.785
10632W        W75793  38.301  12.323   1.784
10633W        W75794   9.104  31.979  12.987
10634W        W75795  39.387  11.635  14.982
10635W        W75796   7.872  43.307  12.394
10636W        W75797  24.669  36.878   1.844
10637W        W75798  33.562   6.944  13.370
10638W        W75799  19.612  41.644   2.225
10639W        W75800  32.200  22.198  13.460
10640W        W75801  30.404   5.908  13.394
10641W        W75802  25.227  27.001   3.390
10642W        W75803   8.762  18.245   1.369
10643W        W75804  44.416  42.344   0.401
10644W        W75805   3.432  22.057   1.235
10645W        W75806   8.379  34.625  13.888
10646W        W75807   6.231   7.153   3.637
10647W        W75808  12.048   2.465   2.905
10648W        W75809  27.642  17.275   0.568
10649W        W75810  40.375  14.754  13.880
10650W        W75811  12.678  15.608   3.513
10651W        W75812  28.468  32.596  11.655
10652W        W75813  36.130  19.539   1.302
10653W        W75814  37.579  15.649  11.164
10654W        W75815   5.402  19.065   0.348
10655W        W75816  21.362  40.432  13.499
10656W        W75817  34.792   9.065   0.530
10657W        W75818  19.484  30.183   1.952
10658W        W75819   8.331  34.477   3.836
10659W        W75820  38.047  39.399  14.514
10660W        W75821   0.581   3.840   1.214
10661W        W75822  40.370  30.415  14.003
10662W        W75823  29.444  34.402  10.741
10663W        W75824  31.660  29.463   0.831
10664W        W75825  22.552  22.312  13.995
10665W        W75826  34.338  32.494   2.236
10666W        W75827  31.330   0.679  13.085
10667W        W75828  31.854  36.044  12.866
10668W        W75829  40.383  34.561  14.981
10669W        W75830  25.138  32.385  14.368
10670W        W75831  12.481  29.891   0.160
10671W        W75832  20.809  44.932   3.607
10672W        W75833  33.719  38.232  13.771
10673W        W75834  38.479  24.632   3.021
10674W        W75835  13.635  40.541   2.484
10675W        W75836  12.574  42.907  13.969
10676W        W75837  41.017  41.060   1.307
10677W        W75838   8.427  30.188  12.901
10678W        W75839  26.973  17.637   2.660
10679W        W75840  43.525  19.953   4.167
10680W        W75841  42.597  40.541  12.410
10681W        W75842  17.808  41.895  14.045
10682W        W75843  14.283   3.324  10.619
10683W        W75844  10.395  30.443  12.638
10684W        W75845  44.815  11.998  10.601
10685W        W75846   4.697  39.808   1.820
10686W        W75847  11.180   4.300   0.645
10687W        W75848  27.089  25.730  11.114
10688W        W75849  43.266   2.714   0.588
10689W        W75850  36.573   1.354   1.449
10690W        W75851  41.608  37.333   2.609
10691W        W75852  10.721   2.001  12.079
10692W        W75853  30.468   1.243   4.240
10693W        W75854  33.207  19.287   0.108
10694W        W75855  38.471  39.516   2.901
10695W        W75856  23.463  18.036  11.532
10696W        W75857  10.544  33.169  13.904
10697W        W75858  25.010  16.506   2.786
10698W        W75859  34.208   2.004  13.916
10699W        W75860  29.948   2.549   4.063
10700W        W75861  26.908  39.320  13.355
10701W        W75862   2.226  42.974  13.703
10702W        W75863   0.799  27.976  14.032
10703W        W75864  21.821  33.267   2.902
10704W        W75865  28.321  19.659  12.921
10705W        W75866  22.577  43.852  13.555
10706W        W75867  44.955  26.487  10.577
10707W        W75868  19.417   8.755  12.867
10708W        W75869  35.830  21.609  12.972
10709W        W75870  34.616  27.783   3.602
10710W        W75871  16.619   3.660   1.670
10711W        W75872  34.747  27.498  11.625
10712W        W75873  41.239  11.562   2.652
10713W        W75874  22.837   7.866   0.203
10714W        W75875  30.173   6.374  13.296
10715W        W75876  37.150  29.985  14.376
10716W        W75877   6.479  15.708   5.130
10717W        W75878  26.503   2.680  13.418
10718W        W75879  43.196  33.921   1.925
10719W        W75880  35.777  28.884  14.749
10720W        W75881  21.277  37.694  13.950
10721W        W75882  21.487  41.565  13.929
10722W        W75883   9.707  40.349  10.527
10723W        W75884  39.277   1.499   0.816
10724W        W75885   4.376  18.633   2.292
10725W        W75886  15.775  29.167   3.095
10726W        W75887  29.207  44.703  12.967
10727W        W75888   4.515  32.944  11.137
10728W        W75889  23.111  36.945  14.120
10729W        W75890  27.596  39.684  10.879
10730W        W75891   4.369   9.641  11.168
10731W        W75892  12.666  15.400  11.099
10732W        W75893   9.260  20.562   2.290
10733W        W75894   9.758  13.722   0.448
10734W        W75895   6.158  11.950   3.638
10735W        W75896  12.985  30.659   3.754
10736W        W75897   4.787  13.013  12.137
10737W        W75898  14.190  33.602  10.666
10738W        W75899   6.390  16.185   0.208
10739W        W75900  11.683  34.266  11.130
10740W        W75901  26.700  29.044  14.288
10741W        W75902  36.668  44.740   2.780
10742W        W75903  12.125  35.834  12.144
10743W        W75904  21.227   4.728  11.648
10744W        W75905   7.726   6.383  10.182
10745W        W75906   9.418   7.381  12.318
10746W        W75907  29.668  41.031   2.743
10747W        W75908   8.898  15.210  11.129
10748W        W75909  44.593  35.438  12.859
10749W        W75910  43.217  13.109   1.230
10750W        W75911  20.505  10.620   4.433
10751W        W75912  14.586  16.507   4.691
10752W        W75913  37.283  28.482   2.860
10753W        W75914  24.043  32.705   1.459
10754W        W75915  17.597   7.212   1.490
10755W        W75916  18.594  19.038  12.076
10756W        W75917  32.290  11.999  11.510
10757W        W75918  29.004  29.152  13.891
10758W        W75919  42.858   9.319  13.501
10759W        W75920  17.724  33.174   3.846
10760W        W75921  18.230  29.477  12.647
10761W        W75922   0.768  10.722  14.943
10762W        W75923  19.380  26.957   2.369
10763W        W75924  43.988  19.647  12.590
10764W        W75925  34.387   5.202  12.079
10765W        W75926  29.900  26.765  10.677
10766W        W75927  25.778   7.647   3.624
10767W        W75928  24.239  17.659  10.831
10768W        W75929   1.043  32.368  13.131
10769W        W75930  31.064  21.309  11.422
10770W        W75931  39.786   8.716  11.055
10771W        W75932  19.477  34.170  10.798
10772W        W75933  26.039  21.277  11.911
10773W        W75934  33.507  16.683  13.426
10774W        W75935   9.396  21.538  10.790
10775W        W75936   7.789  44.535  13.177
10776W        W75937   6.488  16.646   2.842
10777W        W75938  38.171  13.157   0.761
10778W        W75939  11.371   6.183   4.583
10779W        W75940   6.106  21.649   3.187
10780W        W75941  14.745  22.276   3.891
10781W        W75942  25.807  12.890  11.641
10782W        W75943  19.529   8.833   0.821
10783W        W75944  39.955  37.043   1.896
10784W        W75945  38.456   2.370  12.932
10785W        W75946  28.370  34.985   4.036
10786W        W75947  40.743  40.501   3.421
10787W        W75948  27.404   0.802  13.437
10788W        W75949   0.438  21.609   3.416
10789W        W75950  21.205  43.512  11.123
10790W        W75951  11.709  41.486  11.516
10791W        W75952  31.043  11.174   2.621
10792W        W75953  22.262  27.375  12.469
10793W        W75954  30.297  30.240   3.750
10794W        W75955  24.499  40.854  11.853
10795W        W75956  19.992   5.915  11.505
10796W        W75957   9.610  39.248  13.935
10797W        W75958  29.853  21.631   2.329
10798W        W75959  28.148   6.005   4.567
10799W        W75960   0.001  25.891   3.919
10800W        W75961   2.477  39.322  10.719
10801W        W75962  39.084  28.027  11.544
10802W        W75963   0.793  21.158  12.413
10803W        W75964  33.669  27.267   3.246
10804W        W75965   5.913  22.334  13.784
10805W        W75966  14.578   4.693   4.613
10806W        W75967  22.587   4.010   1.441
10807W        W75968  28.095  32.902   3.123
10808W        W75969  26.009  10.617  10.624
10809W        W75970  10.197   1.291  11.016
10810W        W75971  32.870  12.680  13.012
10811W        W75972  16.160  29.911  11.578
10812W        W75973  38.136  43.523  12.535
10813W        W75974   8.360   9.297  14.452
10814W        W75975  43.770  36.868  13.480
10815W        W75976  12.365  36.360  14.714
10816W        W75977  27.601  17.804  11.046
10817W        W75978  32.132  39.931   0.366
10818W        W75979  24.984  24.174   0.904
10819W        W75980  26.999  11.335  11.981
10820W        W75981  24.925  17.634   0.840
10821W        W75982  17.729   5.281  11.666
10822W        W75983  33.948  24.697   2.124
10823W        W75984  38.364  31.320   0.266
10824W        W75985   7.316  15.276   1.964
10825W        W75986  28.968  42.792  12.191
10826W        W75987  22.958  20.680  12.219
10827W        W75988   7.376   7.155  13.745
10828W        W75989  13.453  18.276   2.806
10829W        W75990  30.425  32.215  13.590
10830W        W75991  13.293  33.682   1.007
10831W        W75992  37.106  15.357   1.842
10832W        W75993  40.452  35.866   4.489
10833W        W75994  39.801  17.251   2.145
10834W        W75995  27.419   1.416   1.854
10835W        W75996  20.260  40.170   1.052
10836W        W75997  40.126  39.989   1.892
10837W        W75998  27.503  40.390   0.801
10838W        W75999  42.415  32.059   5.011
10839W        W76000  35.925  16.998  13.377
10840W        W76001  41.892   0.977  12.022
10841W        W76002   1.097  31.274  11.981
10842W        W76003  13.813  42.899  13.483
10843W        W76004  23.721  43.269   3.719
10844W        W76005  43.893  15.810  11.910
10845W        W76006  18.788  29.590  11.925
10846W        W76007  35.832  35.946  11.911
10847W        W76008   5.822  28.952   4.908
10848W        W76009  10.763  44.887   3.658
10849W        W76010  33.097  42.049   1.799
10850W        W76011  23.501  43.417   2.310
10851W        W76012   3.760   4.486   1.850
10852W        W76013  36.337  27.732   3.875
10853W        W76014   2.734   8.859   2.440
10854W        W76015   0.870   6.357  11.981
10855W        W76016   8.704  33.078  12.447
10856W        W76017  35.360  36.570  10.911
10857W        W76018  10.415  40.281  14.524
10858W        W76019   4.061   6.861   1.504
10859W        W76020  11.751  17.544  13.449
10860W        W76021   9.727  42.297  11.138
10861W        W76022   8.908   4.977   3.585
10862W        W76023  17.319  34.255  11.574
10863W        W76024  24.750  30.995  13.747
10864W        W76025  30.349  22.652  13.447
10865W        W76026  37.273  36.130   3.178
10866W        W76027  27.278  41.801   1.504
10867W        W76028  40.620  22.231   1.016
10868W        W76029   5.138  38.095  13.323
10869W        W76030  23.052  32.287  12.361
10870W        W76031  24.728  33.185  14.071
10871W        W76032   8.662  36.067  12.780
10872W        W76033  42.142  33.131  11.624
10873W        W76034   3.252  42.306  12.861
10874W        W76035  42.498  36.865   1.775
10875W        W76036  41.328  37.141   2.149
10876W        W76037  30.376   4.678   4.069
10877W        W76038   5.121  25.090   0.607
10878W        W76039  22.234   0.969   4.331
10879W        W76040  15.759   4.320   3.322
10880W        W76041  29.721  42.505   1.258
10881W        W76042   0.785  14.673   4.148
10882W        W76043  30.978   2.698  11.872
10883W        W76044  28.054  35.435   1.185
10884W        W76045  35.046  18.237   4.818
10885W        W76046  30.203  34.469  13.855
10886W        W76047  18.531  35.864  12.528
10887W        W76048  36.289  19.498  14.771
10888W        W76049  39.532  14.619   3.281
10889W        W76050  39.648  33.407   3.880
10890W        W76051  29.902  25.720  11.553
10891W        W76052  30.139  21.256   3.103
10892W        W76053  38.824  31.086   0.107
10893W        W76054  39.893  27.651   2.843
10894W        W76055  41.917  30.733   4.211
10895W        W76056  13.445   7.602  12.446
10896W        W76057  29.641  27.690  12.368
10897W        W76058   4.990  38.314  14.695
10898W        W76059  11.891  43.949   4.835
10899W        W76060   5.642  34.443   2.265
10900W        W76061   7.396  35.638   4.585
10901W        W76062  26.693   9.572   2.764
10902W        W76063   2.323  29.087   4.509
10903W        W76064  44.558  34.212   5.044
10904W        W76065  18.778   2.116   3.023
10905W        W76066  19.094  37.601  14.563
10906W        W76067  44.199  18.176   4.143
10907W        W76068  10.878  28.990   0.616
10908W        W76069   2.748  25.602  10.878
10909W        W76070  17.297  24.181  12.945
10910W        W76071  37.854  31.554   4.173
10911W        W76072  42.923  21.986  13.110
10912W        W76073  36.211  27.630   1.958
10913W        W76074  10.673  37.986  12.851
10914W        W76075  19.544  41.990   2.985
10915W        W76076  14.270  27.676  12.533
10916W        W76077  16.271   0.664  13.875
10917W        W76078  28.490  18.537   1.679
10918W        W76079  15.765  15.719   1.884
10919W        W76080  43.518  15.804   1.686
10920W        W76081  17.727  16.836  14.045
10921W        W76082  15.344  36.271   0.824
10922W        W76083  24.459   6.289   0.282
10923W        W76084  10.877  42.819  12.458
10924W        W76085  39.508  11.486   1.272
10925W        W76086  40.370  42.402  12.618
10926W        W76087  44.722  20.250  13.387
10927W        W76088  44.323   6.382   1.870
10928W        W76089  38.159   5.873  12.011
10929W        W76090  19.086  29.655   1.338
10930W        W76091  20.172   2.948   4.160
10931W        W76092   1.959  35.446   2.746
10932W        W76093  35.922  37.753  14.870
10933W        W76094  25.677  29.401   3.615
10934W        W76095  17.848  22.080   3.588
10935W        W76096  13.347  14.293   2.602
10936W        W76097  25.582   8.145   3.582
10937W        W76098  22.092  13.705   4.871
10938W        W76099  38.576  29.918  11.949
10939W        W76100  41.317   4.806   3.201
10940W        W76101  21.149  24.231  13.792
10941W        W76102   9.366  44.364  14.034
10942W        W76103  37.342   4.117   0.804
10943W        W76104  18.802   8.300  12.490
10944W        W76105  28.114  21.864  11.361
10945W        W76106   4.037   9.141   1.550
10946W        W76107  36.876  32.128  11.535
10947W        W76108  44.221  20.567  14.324
10948W        W76109  11.646  26.559   1.927
10949W        W76110  38.017  25.876   1.261
10950W        W76111  30.926  42.173  14.389
10951W        W76112  30.456  43.294   0.407
10952W        W76113   6.146  12.806  10.722
10953W        W76114   5.466  12.728  11.869
10954W        W76115  30.859  22.116   1.409
10955W        W76116   1.904  34.702   3.245
10956W        W76117  20.598  32.123   4.680
10957W        W76118  33.118  28.136  11.725
10958W        W76119   4.200  10.324   2.359
10959W        W76120   3.438  44.987  10.613
10960W        W76121  28.397   6.410  12.417
10961W        W76122  31.386  24.495  13.336
10962W        W76123  15.571   6.201  12.902
10963W        W76124  22.247  11.932   1.153
10964W        W76125   3.905  42.273  11.183
10965W        W76126  32.368  40.018   1.815
10966W        W76127  28.181  37.836   4.190
10967W        W76128  23.509  29.637   3.275
10968W        W76129  19.783  11.089  14.382
10969W        W76130   3.405  15.691  13.130
10970W        W76131  24.719  11.369  14.417
10971W        W76132  32.400   2.841  12.371
10972W        W76133   7.979  41.408   0.797
10973W        W76134  40.367   8.869  13.858
10974W        W76135   5.817  43.710   0.501
10975W        W76136  26.588  28.652   4.798
10976W        W76137  28.673   2.940   2.387
10977W        W76138  10.610  18.622  12.423
10978W        W76139  18.514   4.941  12.217
10979W        W76140  15.706  32.115   2.856
10980W        W76141   5.852   9.787   0.584
10981W        W76142  25.512  15.571  10.671
10982W        W76143  40.550  25.198   2.851
10983W        W76144  23.769   5.163   1.149
10984W        W76145  33.017  30.857   4.430
10985W        W76146  36.597  44.305   0.429
10986W        W76147  42.579  18.149  14.852
10987W        W76148   3.296   9.680   4.769
10988W        W76149  21.123  29.205  11.962
10989W        W76150  43.770  33.052   1.982
10990W        W76151  17.632  13.249   0.034
10991W        W76152  27.673  27.393  12.201
10992W        W76153  19.140  25.165  13.123
10993W        W76154  21.536  35.107  14.756
10994W        W76155  15.246   2.156   2.226
10995W        W76156  11.979  22.702  12.535
10996W        W76157  37.689  41.920  11.010
10997W        W76158  21.795  36.331  12.931
10998W        W76159  17.134   4.813  11.630
10999W        W76160   3.304  16.985  11.810
11000W        W76161  39.278   0.812  12.038
11001W        W76162  10.100  39.691  11.711
11002W        W76163  13.065  41.591  14.814
11003W        W76164  31.520  43.055   1.816
11004W        W76165  15.729  32.004   0.179
11005W        W76166  17.766   3.241   0.382
11006W        W76167  29.573  39.086   2.772
11007W        W76168  35.181  17.754  12.956
11008W        W76169   3.166  30.498  12.910
11009W        W76170   4.133  18.858   2.716
11010W        W76171  42.546   6.971  13.252
11011W        W76172  36.354  19.082   0.098
11012W        W76173   1.628  34.607   2.452
11013W        W76174   3.785  34.407  12.993
11014W        W76175  38.000  30.993   3.220
11015W        W76176  27.010  32.207   2.265
11016W        W76177  25.961  10.358  12.333
11017W        W76178  31.394   8.519  13.529
11018W        W76179  18.427   2.687   1.040
11019W        W76180  31.896  38.507   0.626
11020W        W76181  28.427   5.258   2.726
11021W        W76182  44.283   8.707  14.023
11022W        W76183  42.641  28.634  14.341
11023W        W76184  23.200  36.060  10.148
11024W        W76185  16.303  14.740  13.983
11025W        W76186  31.134  17.323   4.487
11026W        W76187  16.333   2.192   3.637
11027W        W76188  33.525  24.535  11.220
11028W        W76189  20.311  12.608  13.370
11029W        W76190  12.052  23.913   0.483
11030W        W76191   0.903  21.175  13.294
11031W        W76192  36.248   8.119   2.193
11032W        W76193  21.026   2.668   0.304
11033W        W76194  13.542  39.784  13.342
11034W        W76195  27.114  12.622   0.492
11035W        W76196  40.562  19.821  11.595
11036W        W76197  36.909  43.741  14.586
11037W        W76198  38.402   7.101   2.311
11038W        W76199  31.298  19.636   3.398
11039W        W76200  24.946  22.445  12.856
11040W        W76201   1.304  29.894   2.384
11041W        W76202  26.671  30.756   1.347
11042W        W76203  31.937  42.522  14.102
11043W        W76204  23.064  10.055   0.849
11044W        W76205  17.057  11.112  11.489
11045W        W76206  38.349  25.111   1.630
11046W        W76207   0.405   2.386   0.917
11047W        W76208  40.814   3.423  13.471
11048W        W76209  42.978  33.349  11.500
11049W        W76210  26.282  22.119   2.684
11050W        W76211  23.130  19.765   4.330
11051W        W76212   4.322  39.851   0.853
11052W        W76213  13.302  18.823   0.702
11053W        W76214  15.273  38.322  14.299
11054W        W76215  25.511  19.234   4.532
11055W        W76216  44.791   3.064   2.187
11056W        W76217  14.892   5.523   2.751
11057W        W76218  28.394  18.319  12.078
11058W        W76219  23.247  38.379  12.866
11059W        W76220  35.019  23.195  12.150
11060W        W76221   8.375  30.136  14.176
11061W        W76222   5.600  28.634   4.102
11062W        W76223  22.792   2.590   4.964
11063W        W76224  42.756  13.847   2.297
11064W        W76225  18.824  12.132   2.340
11065W        W76226  12.880   2.221  11.172
11066W        W76227  40.546  20.260   0.743
11067W        W76228   4.918  25.186  10.803
11068W        W76229   0.732   1.881  12.596
11069W        W76230   0.656  44.914   2.312
11070W        W76231  35.973  13.582  14.498
11071W        W76232  31.155  34.120  10.669
11072W        W76233  11.276   3.793  13.806
11073W        W76234  37.053  37.550   2.579
11074W        W76235  31.815  10.554  13.509
11075W        W76236  10.696  19.542  14.941
11076W        W76237  17.659   6.148  12.093
11077W        W76238  31.883  27.047   5.603
11078W        W76239  14.875  13.908  14.509
11079W        W76240  32.944   0.474  12.099
11080W        W76241  37.340  26.689   1.889
11081W        W76242  44.806  31.151   0.996
11082W        W76243  28.174  25.439  11.115
11083W        W76244  16.131   1.227   0.754
11084W        W76245  14.996  38.381  11.089
11085W        W76246  21.047  42.324  14.278
11086W        W76247  36.184  21.626  11.094
11087W        W76248  20.825   6.789  12.192
11088W        W76249   1.413  37.900  12.600
11089W        W76250  42.895  36.298   1.683
11090W        W76251  33.179  32.488   4.286
11091W        W76252  33.370   5.812  14.278
11092W        W76253  18.599   6.474  11.414
11093W        W76254  15.323  16.183  11.056
11094W        W76255  28.567  35.387   0.456
11095W        W76256  21.716  20.753   3.688
11096W        W76257   7.071   7.300   4.632
11097W        W76258  24.983   2.253   3.624
11098W        W76259  18.376  34.660  13.128
11099W        W76260  20.224  12.455   2.939
11100W        W76261   3.929  38.840  13.917
11101W        W76262  24.231  41.773  12.876
11102W        W76263  25.476  12.465   0.844
11103W        W76264  11.184  12.061  12.906
11104W        W76265  13.586   9.711   2.199
11105W        W76266  33.200  12.315   3.151
11106W        W76267  30.565   9.286  13.269
11107W        W76268  38.965   0.636   3.724
11108W        W76269  20.802  44.553  14.756
11109W        W76270  34.945   7.180   3.111
11110W        W76271   7.605   9.259  12.198
11111W        W76272  36.314   9.379  10.638
11112W        W76273  12.818   4.838  10.596
11113W        W76274   5.126   9.392  10.631
11114W        W76275  25.707  30.589  11.025
11115W        W76276  40.473   5.593  10.807
11116W        W76277  33.363  16.593  13.938
11117W        W76278  25.971  31.424  13.962
11118W        W76279   4.710   1.272   3.744
11119W        W76280  33.470   9.583   4.767
11120W        W76281  33.499  33.022   2.403
11121W        W76282  14.390  27.078  10.726
11122W        W76283   9.646  42.823  11.174
11123W        W76284   6.361  13.482  13.997
11124W        W76285  26.499   6.297  14.293
11125W        W76286   1.753  23.572   4.639
11126W        W76287  43.811  22.172  13.655
11127W        W76288  31.462  22.693   3.205
11128W        W76289  12.867  26.893  12.522
11129W        W76290  24.655  27.678  13.511
11130W        W76291   4.816  16.799   3.067
11131W        W76292   5.350   2.865  13.901
11132W        W76293  21.995  34.154  13.369
11133W        W76294  42.212   1.730  14.958
11134W        W76295   4.778  43.711   9.685
11135W        W76296   8.830  11.606   0.460
11136W        W76297  36.328  43.506  13.829
11137W        W76298  28.733  16.061   0.437
11138W        W76299  41.314  42.114  12.648
11139W        W76300  41.623  38.550   0.945
11140W        W76301   8.192  36.966   2.404
11141W        W76302  17.753  28.076  14.251
11142W        W76303  27.625   0.325  13.351
11143W        W76304  38.224  44.504  11.737
11144W        W76305  27.122  29.995   1.678
11145W        W76306  10.618  34.101   2.942
11146W        W76307   8.638  37.448   4.137
11147W        W76308  27.353  12.376   2.224
11148W        W76309   1.102  23.189   2.131
11149W        W76310  12.118   9.781   0.413
11150W        W76311   8.586  21.762   4.542
11151W        W76312  38.818  10.931   1.787
11152W        W76313  19.057  10.396   0.434
11153W        W76314   6.832  19.113  13.312
11154W        W76315  22.902  26.393  12.571
11155W        W76316  14.807  14.759  12.971
11156W        W76317  41.978  37.615  11.602
11157W        W76318  14.759   0.702   1.254
11158W        W76319  20.931  31.636   3.225
11159W        W76320  27.927  40.275  13.612
11160W        W76321  26.840  33.335   5.278
11161W        W76322  30.200  34.123   2.741
11162W        W76323   7.149  34.902  13.108
11163W        W76324  16.106  14.324  11.955
11164W        W76325  43.568  42.873   1.368
11165W        W76326   0.761  44.797   4.052
11166W        W76327  12.434   6.860   2.215
11167W        W76328   6.188  12.409  13.749
11168W        W76329  18.488   9.200   4.915
11169W        W76330   9.047  30.950   1.950
11170W        W76331  23.460  42.153  11.763
11171W        W76332  26.854  19.291  11.098
11172W        W76333  22.797  20.828   5.333
11173W        W76334   0.301   4.530  14.062
11174W        W76335  21.884  34.621   2.888
11175W        W76336   1.241  11.242  12.776
11176W        W76337  37.409  11.260  11.965
11177W        W76338  22.017  42.988  12.478
11178W        W76339  40.443  21.511   4.946
11179W        W76340  12.726  12.154  13.013
11180W        W76341  39.322  14.999   2.418
11181W        W76342  19.357   7.918   4.697
11182W        W76343  39.784  28.453  13.052
11183W        W76344  38.327  23.077  14.957
11184W        W76345  44.657  25.074  10.328
11185W        W76346  39.836   5.403   0.319
11186W        W76347   5.981  35.026  11.101
11187W        W76348   4.138  35.943   1.236
11188W        W76349  14.611   3.986   3.573
11189W        W76350  21.041  11.684   1.916
11190W        W76351   0.811  31.078  11.565
11191W        W76352  32.952   5.653   0.235
11192W        W76353  12.551  30.188   3.167
11193W        W76354  19.164  15.551  13.104
11194W        W76355   2.763  19.139   2.723
11195W        W76356   0.420   5.915  11.197
11196W        W76357  33.155  17.414   3.312
11197W        W76358  22.244   0.061  12.531
11198W        W76359  12.792   2.745   3.333
11199W        W76360  34.499  24.087  14.327
11200W        W76361   1.360  38.098   0.861
11201W        W76362  25.329  17.603  10.764
11202W        W76363  33.089  17.718   2.833
11203W        W76364  23.580  12.160   4.429
11204W        W76365  13.076   0.470   4.720
11205W        W76366   2.781  16.105  10.210
11206W        W76367  25.445  35.900   4.657
11207W        W76368  10.338  19.283  13.997
11208W        W76369  34.052  40.200  10.727
11209W        W76370   1.916  33.509   4.596
11210W        W76371  39.500   3.888  14.156
11211W        W76372   9.094   2.366  13.203
11212W        W76373   4.861   4.913  14.607
11213W        W76374  11.946  13.462   0.843
11214W        W76375  13.501  23.908   2.358
11215W        W76376  20.243   5.016   1.775
11216W        W76377  16.719  36.692  11.790
11217W        W76378  15.994  16.082   2.220
11218W        W76379   7.641  39.928   3.957
11219W        W76380  37.957  17.493  10.130
11220W        W76381  31.995   6.589   1.399
11221W        W76382  42.407  12.175  14.878
11222W        W76383   4.699  11.608   3.779
11223W        W76384  16.797  15.798   0.171
11224W        W76385  10.066  25.878  13.504
11225W        W76386  14.181  29.965   3.365
11226W        W76387  19.075  40.336   0.047
11227W        W76388   2.231  24.121   4.930
11228W        W76389  38.469  39.491   1.882
11229W        W76390  16.062  26.734   4.929
11230W        W76391  26.069  36.778  12.788
11231W        W76392  10.384   7.598  11.682
11232W        W76393   6.709  30.439  10.682
11233W        W76394  23.892  20.416   4.517
11234W        W76395  31.862  13.677  11.152
11235W        W76396  32.007  38.398  12.398
11236W        W76397  15.625  24.087   3.150
11237W        W76398  12.366  37.566  10.650
11238W        W76399  29.329   2.928   4.448
11239W        W76400  37.128  10.792   2.758
11240W        W76401  21.600   9.322   2.842
11241W        W76402  33.840  28.940  11.992
11242W        W76403  35.034  37.863   1.133
11243W        W76404  21.330  34.466   3.743
11244W        W76405  20.633  35.204   0.278
11245W        W76406  22.662  18.049  13.448
11246W        W76407   8.263  17.231   4.253
11247W        W76408  15.266  16.220   0.364
11248W        W76409  33.051  43.450   5.406
11249W        W76410  42.122  11.071  13.894
11250W        W76411  23.109  31.926   4.835
11251W        W76412  30.049  36.240  10.574
11252W        W76413  15.697  27.210  11.666
11253W        W76414  32.411  16.774  11.119
11254W        W76415  43.395  39.557   5.777
11255W        W76416   2.752   5.374  13.571
11256W        W76417  42.372  26.339  10.369
11257W        W76418  35.450   1.940   1.707
11258W        W76419  16.491  39.375  11.200
11259W        W76420   7.275  24.061   0.056
11260W        W76421  18.686  12.762  10.770
11261W        W76422   0.357   0.975   2.638
11262W        W76423  14.339  35.079   4.091
11263W        W76424  37.824  16.674  11.333
11264W        W76425  14.348  12.550   1.848
11265W        W76426  19.584  22.486   1.888
11266W        W76427  15.243  11.218  14.767
11267W        W76428  10.179  37.020  14.597
11268W        W76429  11.935   0.880   4.205
11269W        W76430   1.918  30.122   3.121
11270W        W76431   4.298  43.085  13.893
11271W        W76432  13.328  15.900  13.468
11272W        W76433  42.263  31.670   3.245
11273W        W76434   2.985  18.377   2.257
11274W        W76435   1.731  12.083  14.666
11275W        W76436  25.229  26.593   4.256
11276W        W76437  18.803  27.951   0.781
11277W        W76438  27.094  12.298  12.566
11278W        W76439  21.284  36.327   1.223
11279W        W76440  39.287  27.784  12.151
11280W        W76441  34.860  30.657   0.826
11281W        W76442  30.996  44.441   3.086
11282W        W76443  11.833  41.399   3.424
11283W        W76444  22.468  19.814   2.333
11284W        W76445  37.984  37.768  10.565
11285W        W76446  30.056  37.762   3.746
11286W        W76447  42.520  22.150  14.347
11287W        W76448  28.730  13.719  11.717
11288W        W76449   6.772  28.434   1.829
11289W        W76450  37.424  19.494   4.697
11290W        W76451  13.887  23.176   3.277
11291W        W76452  19.293  18.176  14.552
11292W        W76453  18.885  44.547  11.901
11293W        W76454  25.506   6.147  13.163
11294W        W76455  20.500  20.211  10.591
11295W        W76456  43.649  10.375  14.370
11296W        W76457  31.406  38.072   3.811
11297W        W76458  26.364  19.663   0.188
11298W        W76459  25.982   3.220   2.002
11299W        W76460  32.566  28.638   3.839
11300W        W76461  21.012  20.293   1.236
11301W        W76462  10.173  17.741  11.637
11302W        W76463   9.741   9.880  12.520
11303W        W76464   3.815  14.251   2.468
11304W        W76465  18.490  40.190  13.237
11305W        W76466  27.664  16.678   1.442
11306W        W76467  20.538  13.400   1.374
11307W        W76468  30.099  38.695   2.051
11308W        W76469  36.279  10.677   3.783
11309W        W76470  20.666  33.127  12.107
11310W        W76471  23.534  34.894   2.824
11311W        W76472  35.981  25.164  13.339
11312W        W76473  39.303  37.107  12.525
11313W        W76474   1.217  23.115  13.364
11314W        W76475  26.035   4.953  10.964
11315W        W76476  17.164   1.200   0.666
11316W        W76477  18.322  29.795   0.499
11317W        W76478   7.332  20.333  10.626
11318W        W76479  36.397  19.487  12.038
11319W        W76480  24.968   1.748  14.361
11320W        W76481  38.535  13.789  11.128
11321W        W76482  10.415  36.405   3.410
11322W        W76483  38.012  13.242  11.307
11323W        W76484   8.429   7.275  12.574
11324W        W76485  15.633  12.245   1.346
11325W        W76486   2.988  42.491  11.428
11326W        W76487  20.440   8.534   3.274
11327W        W76488  15.180   1.522  12.557
11328W        W76489  35.130   0.939  13.368
11329W        W76490   0.356  19.616   4.225
11330W        W76491   4.738  31.925   2.820
11331W        W76492  12.617  31.588   3.335
11332W        W76493   7.749   9.279   2.982
11333W        W76494  13.265  41.490   4.708
11334W        W76495   0.006   9.862   4.840
11335W        W76496   1.870  30.633  11.215
11336W        W76497  37.614  35.377  11.449
11337W        W76498   3.411  42.237   2.262
11338W        W76499  39.474   6.686   4.909
11339W        W76500   7.697  31.058   0.737
11340W        W76501  27.445  32.551  12.549
11341W        W76502  41.728  16.505  10.248
11342W        W76503  12.038  37.483  11.057
11343W        W76504   3.208  35.559   0.260
11344W        W76505  23.972  11.721  13.426
11345W        W76506  11.759  35.801   0.809
11346W        W76507  36.665  20.017   0.711
11347W        W76508  40.247  16.213   4.081
11348W        W76509  31.869  21.695   2.869
11349W        W76510  35.682   4.725   1.809
11350W        W76511  32.061  39.515   0.937
11351W        W76512  24.807  31.935  13.446
11352W        W76513  29.933  39.115   1.173
11353W        W76514  24.254  24.920   3.245
11354W        W76515  27.487  40.735  12.975
11355W        W76516  11.305  35.487   4.729
11356W        W76517  43.153   1.503   5.037
11357W        W76518  38.299  38.250  14.929
11358W        W76519   5.360  19.798  12.922
11359W        W76520  30.922  11.887   4.093
11360W        W76521  35.230  12.021   2.262
11361W        W76522  25.240  14.694  11.123
11362W        W76523  30.689   4.048  12.981
11363W        W76524   1.537  32.793   2.175
11364W        W76525  21.342  36.847  13.484
11365W        W76526  28.029  21.326  11.217
11366W        W76527  25.131   7.147   0.210
11367W        W76528  24.809  33.150   0.488
11368W        W76529  11.598  36.801  14.987
11369W        W76530  24.372   4.776   4.320
11370W        W76531  38.577   6.234  11.974
11371W        W76532  19.696   0.164  12.603
11372W        W76533  22.652  10.279  14.412
11373W        W76534   0.498   0.338  12.092
11374W        W76535  14.657  44.007   0.069
11375W        W76536   7.682  14.775  10.827
11376W        W76537  22.079  34.659  11.150
11377W        W76538  33.436  14.680  13.543
11378W        W76539  19.700  26.890   3.273
11379W        W76540   1.704   3.339  14.838
11380W        W76541  23.305  16.653  12.058
11381W        W76542  11.018   7.530   2.571
11382W        W76543  41.598  25.809   2.731
11383W        W76544  22.614  37.118  11.673
11384W        W76545  25.610  14.618  10.705
11385W        W76546  23.718  20.392   5.103
11386W        W76547   1.897   2.639   3.638
11387W        W76548  24.149   7.853   2.932
11388W        W76549  30.046  43.390  11.702
11389W        W76550   1.586  31.425  12.129
11390W        W76551  20.995  23.326   4.052
11391W        W76552  34.536  38.960  13.124
11392W        W76553   9.262   5.133  13.739
11393W        W76554  37.521  35.978  12.279
11394W        W76555  17.975  25.632   2.444
11395W        W76556  13.306  44.084   3.867
11396W        W76557  22.642  10.419  10.561
11397W        W76558   4.337  16.789   2.443
11398W        W76559  25.909   8.425   0.957
11399W        W76560  39.886  24.064   1.140
11400W        W76561  15.791   9.224   5.125
11401W        W76562  15.126  43.751  14.804
11402W        W76563  10.107  11.506   3.547
11403W        W76564  37.334  22.745   1.508
11404W        W76565  38.515   3.751   2.274
11405W        W76566  22.884  14.752   0.955
11406W        W76567   4.512  35.374  11.528
11407W        W76568  29.962  34.093  12.197
11408W        W76569  29.620  28.140   1.471
11409W        W76570  30.505   6.250   0.302
11410W        W76571   7.862  13.355   3.223
11411W        W76572  23.707  40.985  14.499
11412W        W76573   1.327   1.695  13.337
11413W        W76574  43.975  12.593  12.564
11414W        W76575  33.259  23.123  10.411
11415W        W76576  31.323  44.944   1.619
11416W        W76577  18.347   5.669  11.103
11417W        W76578  29.055  42.669   0.933
11418W        W76579  35.050  43.397   0.365
11419W        W76580  37.248  41.309   4.081
11420W        W76581  22.214  32.081   3.906
11421W        W76582  36.637   3.169   0.387
11422W        W76583   6.736  24.223   4.344
11423W        W76584  37.579  43.937  14.321
11424W        W76585  40.292   0.817  11.928
11425W        W76586  43.964  40.787   1.795
11426W        W76587  18.791  25.735   4.222
11427W        W76588  23.499  16.294  14.003
11428W        W76589  43.874  30.545   4.260
11429W        W76590  43.376  25.457   0.096
11430W        W76591   7.751  36.568  13.029
11431W        W76592   4.726  34.385  14.806
11432W        W76593  23.164  36.934   2.352
11433W        W76594  36.031  25.994   2.962
11434W        W76595   5.164  42.603  11.972
11435W        W76596   9.730  41.543  12.882
11436W        W76597  43.791  37.496  13.169
11437W        W76598  12.924   0.202  12.566
11438W        W76599  27.315  22.036  10.882
11439W        W76600  15.075  17.292  14.457
11440W        W76601  18.324  36.389  14.962
11441W        W76602  19.168  29.714   3.677
11442W        W76603  44.071  14.765  11.135
11443W        W76604  18.544  33.744   0.921
11444W        W76605  24.584   3.668  10.700
11445W        W76606  39.322  18.232   0.156
11446W        W76607  35.893   5.460   3.228
11447W        W76608   0.844  32.390   1.719
11448W        W76609  12.207  44.684   3.654
11449W        W76610  30.880  42.552   2.871
11450W        W76611  15.498  33.979   4.875
11451W        W76612   6.128  36.312  14.060
11452W        W76613  13.398   0.218   3.169
11453W        W76614  20.769  34.906   3.215
11454W        W76615   9.885   1.351  12.635
11455W        W76616  34.620  34.801   4.166
11456W        W76617  43.475  29.442  10.536
11457W        W76618  27.655  33.549   2.630
11458W        W76619   7.356  16.383   2.845
11459W        W76620  24.418  19.792   4.138
11460W        W76621  17.382  11.357  12.049
11461W        W76622  35.940  14.388  10.756
11462W        W76623  37.070   6.246  13.849
11463W        W76624  25.058  27.403  11.055
11464W        W76625  14.235  21.780  12.806
11465W        W76626  20.388   0.289   4.643
11466W        W76627  13.741  21.190  13.734
11467W        W76628   9.174   0.782  12.551
11468W        W76629  37.100  29.735   3.339
11469W        W76630  19.989  17.286   2.411
11470W        W76631   2.314  26.742  13.429
11471W        W76632  18.724  32.788  12.514
11472W        W76633  13.347  40.059  14.972
11473W        W76634  25.027  30.697   1.207
11474W        W76635   0.103   4.390   4.682
11475W        W76636  10.837  43.054  10.668
11476W        W76637  25.126  22.654  11.850
11477W        W76638  44.301  44.024  14.036
11478W        W76639  40.853  41.988   3.282
11479W        W76640  41.415   8.421   0.307
11480W        W76641   0.503  38.535  13.035
11481W        W76642  11.080  14.104   3.260
11482W        W76643   5.011  37.978  12.038
11483W        W76644  44.727  21.970   0.906
11484W        W76645  31.025  12.693  11.853
11485W        W76646   2.184   5.927   0.019
11486W        W76647  41.991  27.290  11.053
11487W        W76648   6.772  22.582  13.264
11488W        W76649   6.171  19.805   1.241
11489W        W76650   8.894  18.494   3.932
11490W        W76651  43.821  42.595  13.951
11491W        W76652   4.793  10.775   4.737
11492W        W76653  33.916  23.768   0.303
11493W        W76654   1.704  28.647   3.341
11494W        W76655  11.339  35.554   2.292
11495W        W76656   1.123  42.828  13.154
11496W        W76657  31.750  23.470  14.266
11497W        W76658  38.980  11.593  12.218
11498W        W76659  30.981   0.220  11.778
11499W        W76660  44.733  18.143  13.149
11500W        W76661  33.349  14.055  11.696
11501W        W76662  27.392  23.466   1.061
11502W        W76663  22.667  32.688  14.945
11503W        W76664  26.159  35.101  10.664
11504W        W76665  36.781  44.784   0.443
11505W        W76666  39.484  22.815   1.831
11506W        W76667  11.102   7.127  13.855
11507W        W76668  13.128   0.254   0.792
11508W        W76669  19.320  16.588   3.602
11509W        W76670  16.533  16.196   1.388
11510W        W76671   2.241   9.409   2.155
11511W        W76672  10.741  24.189   4.729
11512W        W76673  34.974   2.241   4.531
11513W        W76674  33.919  22.761  13.510
11514W        W76675  15.610   8.923  14.349
11515W        W76676  34.683  37.330   0.190
11516W        W76677  29.942   7.381   0.322
11517W        W76678  10.408   9.086   0.403
11518W        W76679   5.288  19.617   2.871
11519W        W76680  42.773  17.062   0.528
11520W        W76681  12.607  16.051  11.592
11521W        W76682  36.543  25.030   3.262
11522W        W76683  22.816  11.173   3.116
11523W        W76684  44.048  43.652  11.214
11524W        W76685  29.756  43.380   4.320
11525W        W76686   5.200  12.177  13.933
11526W        W76687   9.664  19.146   4.495
11527W        W76688  32.057  14.029   0.685
11528W        W76689  13.199  10.394   2.799
11529W        W76690   7.802   7.382  13.935
11530W        W76691   2.844  14.070  10.363
11531W        W76692  31.439  36.018   3.733
11532W        W76693  10.130  39.392  12.147
11533W        W76694   3.286   1.730  14.484
11534W        W76695   7.941  17.209   1.356
11535W        W76696  28.456  23.739   5.026
11536W        W76697   3.185  26.852   2.819
11537W        W76698  14.715  42.425  12.696
11538W        W76699   5.035  34.118  12.021
11539W        W76700  28.550  40.600  10.641
11540W        W76701  43.201  30.344   1.644
11541W        W76702  35.853  44.775   2.272
11542W        W76703  24.433  21.079   3.202
11543W        W76704  15.246   8.703  12.103
11544W        W76705  15.065  24.714   2.252
11545W        W76706  15.855   0.833  13.638
11546W        W76707  15.332   2.430   2.750
11547W        W76708  15.281  28.052   3.684
11548W        W76709  13.168  19.549   0.324
11549W        W76710  18.031   3.956  14.348
11550W        W76711  10.818  43.436  14.481
11551W        W76712  14.363  21.626  10.541
11552W        W76713  43.372  17.038   0.759
11553W        W76714   9.759  19.672   0.234
11554W        W76715  42.640  22.538  14.001
11555W        W76716  39.603   4.794  13.973
11556W        W76717  42.340   6.596  12.944
11557W        W76718  43.635  15.556  14.398
11558W        W76719   4.257  12.488  11.598
11559W        W76720   9.899  26.208  12.868
11560W        W76721  36.442   7.225  12.464
11561W        W76722  35.648   8.375   1.813
11562W        W76723  33.960   2.751   3.347
11563W        W76724  11.081  44.677  12.388
11564W        W76725  17.723  32.072   2.248
11565W        W76726  27.257   9.881  12.048
11566W        W76727  10.721  23.782   0.430
11567W        W76728  22.982  26.111   4.637
11568W        W76729  12.849  22.962  12.045
11569W        W76730  17.324  40.930  14.639
11570W        W76731   9.242  15.604  12.799
11571W        W76732  10.071  19.358   0.737
11572W        W76733  34.578  21.459   0.782
11573W        W76734  32.128  15.214  12.563
11574W        W76735  39.836  19.645   0.862
11575W        W76736  21.244  34.944  12.059
11576W        W76737  32.112  36.508   3.122
11577W        W76738  11.889  19.321   4.091
11578W        W76739  23.850  18.065   1.954
11579W        W76740  12.167  44.550  14.077
11580W        W76741   2.972  27.490   4.530
11581W        W76742  20.535  21.988   3.281
11582W        W76743  44.386  41.136   5.543
11583W        W76744  23.486  37.134   3.224
11584W        W76745   3.361  32.609  14.944
11585W        W76746  20.717  42.194  13.363
11586W        W76747  36.584  44.453  12.204
11587W        W76748  19.681  11.660   4.159
11588W        W76749   0.934  30.949   0.355
11589W        W76750  18.245   3.632   0.276
11590W        W76751   6.591  29.242  12.378
11591W        W76752  20.715   7.753   0.800
11592W        W76753  41.321  14.133   0.853
11593W        W76754  41.589  19.532  12.502
11594W        W76755  23.186   1.182   1.003
11595W        W76756   6.328   5.981  14.895
11596W        W76757  13.798   6.491   2.291
11597W        W76758   9.787  21.727   2.314
11598W        W76759  30.137   0.263   4.065
11599W        W76760  24.685  26.883  10.610
11600W        W76761  21.692  15.496  14.453
11601W        W76762   9.396  16.402  14.582
11602W        W76763  38.126   8.243   1.986
11603W        W76764  26.200  19.587   3.132
11604W        W76765   7.922  12.039   2.731
11605W        W76766  18.588   3.371  14.975
11606W        W76767  22.029  23.029  12.323
11607W        W76768  16.805  19.084   4.426
11608W        W76769  37.496   8.916  14.257
11609W        W76770  11.771   7.602   1.425
11610W        W76771   8.974   5.492   4.066
11611W        W76772  25.578  28.611  11.088
11612W        W76773  40.449  28.172  10.493
11613W        W76774   9.266   0.278   1.807
11614W        W76775   6.327  28.142   0.357
11615W        W76776   2.706  20.324  11.552
11616W        W76777  19.350  21.207  14.753
11617W        W76778  29.253   1.824  14.937
11618W        W76779  34.415  30.140   2.014
11619W        W76780  13.637  40.057   9.782
11620W        W76781  39.383  27.920   2.421
11621W        W76782   3.229  38.962  13.680
11622W        W76783  21.628  19.130   3.764
11623W        W76784  22.934  35.419   3.261
11624W        W76785  18.537  31.582   2.823
11625W        W76786  28.751  25.148   2.022
11626W        W76787  34.026   2.962   2.414
11627W        W76788  41.869  34.412   3.366
11628W        W76789  25.050  16.595  12.486
11629W        W76790  11.556   0.245   5.088
11630W        W76791  32.427  10.717   0.469
11631W        W76792  34.646  20.497  10.822
11632W        W76793  27.545  19.565  14.245
11633W        W76794   2.516  40.176  11.075
11634W        W76795   1.312  20.854   4.878
11635W        W76796   1.435  37.667  12.096
11636W        W76797  29.018   4.525  12.789
11637W        W76798  19.473  15.167   1.633
11638W        W76799  12.088  34.082   2.288
11639W        W76800  21.230  42.386  12.616
11640W        W76801  30.086  15.873   0.237
11641W        W76802  44.254  15.266  13.024
11642W        W76803  13.298  19.064  14.320
11643W        W76804  11.453  17.316   0.034
11644W        W76805  27.025  32.249  12.511
11645W        W76806  13.524  10.851  13.803
11646W        W76807   7.699   5.015  11.244
11647W        W76808  38.965  13.116   1.036
11648W        W76809   0.206  26.424  14.978
11649W        W76810  34.384  41.215   3.727
11650W        W76811  27.838  34.499  14.449
11651W        W76812  25.896  18.985   4.091
11652W        W76813  23.018  37.403   3.086
11653W        W76814  23.779  30.711  11.199
11654W        W76815  23.433  22.981  14.902
11655W        W76816  27.004   2.007   4.785
11656W        W76817  11.322  43.316  14.412
11657W        W76818  40.362  28.671   0.241
11658W        W76819  30.836  38.416   1.336
11659W        W76820  44.125  40.709  10.293
11660W        W76821  25.846  12.557  10.855
11661W        W76822  40.090  30.608   2.274
11662W        W76823  31.092  26.835  11.189
11663W        W76824   7.269   2.786   0.207
11664W        W76825  14.185  25.986   4.328
11665W        W76826  39.008  28.366   0.378
11666W        W76827  10.468  42.408   3.731
11667W        W76828  14.353  38.556   1.551
11668W        W76829  14.396  41.112   2.943
11669W        W76830   9.842   2.438   1.839
11670W        W76831   7.147   7.164   3.625
11671W        W76832  10.916  27.029  13.372
11672W        W76833   4.751   9.080  13.849
11673W        W76834  36.831  35.104   4.767
11674W        W76835  24.247  44.531  11.685
11675W        W76836  13.328  27.225   2.336
11676W        W76837  38.299  39.936  14.831
11677W        W76838  43.641  28.129  11.628
11678W        W76839   6.875  10.478   3.959
11679W        W76840  18.596  17.144   2.741
11680W        W76841  21.984  27.559  13.751
11681W        W76842   7.552  11.179  13.286
11682W        W76843  32.406  15.021  12.959
11683W        W76844  42.475  42.254  14.099
11684W        W76845   6.445  33.857  12.006
11685W        W76846  10.346  12.792   0.098
11686W        W76847  42.123  12.996   5.047
11687W        W76848  35.401  30.125  14.659
11688W        W76849   2.248  22.140   2.569
11689W        W76850  18.833  14.505   4.503
11690W        W76851   2.865   8.625  13.054
11691W        W76852  15.783  32.648   3.759
11692W        W76853  41.359  13.245   1.208
11693W        W76854   4.945  14.971  13.841
11694W        W76855   3.806  35.450   3.863
11695W        W76856  33.715  16.867   0.307
11696W        W76857   9.698  26.523   0.781
11697W        W76858  32.087  44.819   0.691
11698W        W76859  37.190   8.113  11.971
11699W        W76860  21.020  27.037  14.277
11700W        W76861  29.466  17.998   0.814
11701W        W76862  44.414  17.011  13.366
11702W        W76863   5.128  15.769  10.645
11703W        W76864  22.815  24.527  13.334
11704W        W76865  12.955   4.873   9.752
11705W        W76866   8.908  43.380  14.428
11706W        W76867  14.791  23.724   0.458
11707W        W76868  20.786  32.725   3.978
11708W        W76869  15.224   1.464   3.681
11709W        W76870  37.000  40.779  12.349
11710W        W76871  13.815   5.743   1.811
11711W        W76872  18.694  19.653  10.175
11712W        W76873  18.558  16.833   0.002
11713W        W76874  35.864  36.980  13.837
11714W        W76875  34.875  44.721  10.465
11715W        W76876   1.335  36.517   0.812
11716W        W76877  25.705  40.396  14.501
11717W        W76878  36.838  20.747   4.599
11718W        W76879   8.523  33.598   0.267
11719W        W76880  42.558  17.138   3.400
11720W        W76881   0.356   2.618  13.012
11721W        W76882  37.076  31.432   1.272
11722W        W76883  16.524  44.294  14.323
11723W        W76884  12.339  15.260  12.972
11724W        W76885  29.613  21.944   0.717
11725W        W76886  28.608  39.607  10.733
11726W        W76887  34.703  44.285   5.002
11727W        W76888  14.238  43.208   0.900
11728W        W76889  43.038  32.915   3.588
11729W        W76890  34.903  11.710  13.278
11730W        W76891  41.007  30.146  10.513
11731W        W76892  10.371   0.377  10.690
11732W        W76893   2.742  31.023  14.452
11733W        W76894  22.612  26.264  11.987
11734W        W76895   9.477  13.724  14.297
11735W        W76896  17.852  13.228   2.289
11736W        W76897  17.128   3.804   1.659
11737W        W76898  23.726  15.932  12.473
11738W        W76899   9.774  27.915   1.897
11739W        W76900  42.850  23.496  11.457
11740W        W76901  29.716  41.132  11.855
11741W        W76902  20.675   0.726   4.260
11742W        W76903  27.073  17.773   4.514
11743W        W76904  20.684   3.670   0.799
11744W        W76905  12.872  24.654   4.197
11745W        W76906  11.241   1.262   2.228
11746W        W76907  26.161  17.829  12.449
11747W        W76908  30.442   3.480  14.394
11748W        W76909  26.479  15.664  10.021
11749W        W76910  27.195  15.006   4.211
11750W        W76911  39.483  21.648   4.470
11751W        W76912  30.567  12.878   2.643
11752W        W76913  21.604  29.969  14.217
11753W        W76914   7.149  13.958   1.358
11754W        W76915  34.972  39.734  14.914
11755W        W76916  10.358  43.832   3.243
11756W        W76917   8.091   3.298   2.437
11757W        W76918   5.178  44.730  13.363
11758W        W76919   0.887  39.811   0.578
11759W        W76920  21.717  18.784  10.780
11760W        W76921  42.809  36.614   2.919
11761W        W76922  25.185   4.896  14.375
11762W        W76923   2.217  32.380   0.426
11763W        W76924  36.341  30.495   2.812
11764W        W76925   3.924   8.702   2.307
11765W        W76926   5.822  29.005  10.603
11766W        W76927  20.041  24.064  12.441
11767W        W76928  24.279   8.872  13.678
11768W        W76929  24.060  39.822  13.116
11769W        W76930   6.451  39.852   3.255
11770W        W76931  34.764  39.400   0.995
11771W        W76932  27.663   6.000   3.159
11772W        W76933  35.123  36.941  12.034
11773W        W76934  34.470  28.175   4.679
11774W        W76935   0.931   0.315   2.200
11775W        W76936  31.026  38.986   3.168
11776W        W76937   5.160  17.120   3.678
11777W        W76938  42.955  27.488  11.623
11778W        W76939  14.045  19.562   4.324
11779W        W76940  18.309  14.127   5.304
11780W        W76941  25.642  34.532  12.161
11781W        W76942  13.167  40.983  13.043
11782W        W76943  11.208  29.686  11.385
11783W        W76944  13.517   2.130  14.260
11784W        W76945   8.335  29.598   2.146
11785W        W76946  22.122  31.459  14.991
11786W        W76947   0.279  12.836   3.106
11787W        W76948  22.594   2.742   0.771
11788W        W76949  31.348   6.293   2.770
11789W        W76950  38.866  26.169   0.895
11790W        W76951  44.875  42.783   4.496
11791W        W76952  16.279  39.482   0.459
11792W        W76953  12.878  19.268  13.908
11793W        W76954  33.145  15.074   4.310
11794W        W76955  28.213  20.094  13.521
11795W        W76956  27.463  10.904  11.118
11796W        W76957  13.000  13.761  10.436
11797W        W76958  32.538  31.627   4.233
11798W        W76959  32.195   4.756  13.884
11799W        W76960  30.017  37.492   2.463
11800W        W76961  35.998  26.958   2.140
11801W        W76962  21.678   7.195   3.182
11802W        W76963  26.908  15.155  10.693
11803W        W76964  42.036  34.679   0.916
11804W        W76965   6.380  39.087   2.077
11805W        W76966  14.856   6.719  13.943
11806W        W76967  24.739  13.832  11.194
11807W        W76968  33.428   0.836  14.009
11808W        W76969  26.172  24.488   3.228
11809W        W76970  41.434  35.981  14.214
11810W        W76971  22.026   8.577  11.179
11811W        W76972   2.793  23.775   2.301
11812W        W76973  10.157  33.232   1.392
11813W        W76974   0.046  40.397   3.536
11814W        W76975  30.293  12.261   3.721
11815W        W76976  26.602  18.075   1.804
11816W        W76977  13.295  30.530  10.907
11817W        W76978  41.560  43.313  12.338
11818W        W76979  13.370   7.210  13.049
11819W        W76980  39.511  37.882  12.079
11820W        W76981  18.770  41.268   1.798
11821W        W76982   2.856  39.619  10.560
11822W        W76983  40.456  32.945   2.856
11823W        W76984  14.886  33.541  13.847
11824W        W76985   5.759  16.461  13.654
11825W        W76986  20.298  30.034  13.420
11826W        W76987  42.798  26.777  11.195
11827W        W76988  28.605  42.900   0.931
11828W        W76989  40.139  22.134   0.798
11829W        W76990  24.777  18.089  13.486
11830W        W76991  37.135  23.159  11.267
11831W        W76992  31.432  13.256   4.709
11832W        W76993  39.582  13.681  12.386
11833W        W76994  19.588  43.547  13.178
11834W        W76995   1.805  20.685   4.205
11835W        W76996  29.920   8.319   1.684
11836W        W76997  35.975  20.770  14.688
11837W        W76998  21.236  24.471  12.969
11838W        W76999  44.950  14.276   2.779
11839W        W77000  21.814  21.095  11.867
11840W        W77001  25.487   8.847  10.889
11841W        W77002  44.428  21.400  12.513
11842W        W77003  36.902  43.400   3.974
11843W        W77004  29.271  20.683   1.736
11844W        W77005  40.719  37.312  12.894
11845W        W77006  33.800  25.870   4.543
11846W        W77007   8.721  30.467   0.030
11847W        W77008  19.771  15.815   3.188
11848W        W77009  22.677  14.814   3.681
11849W        W77010  25.664  15.257   3.690
11850W        W77011  19.235  18.336  11.176
11851W        W77012   8.505  25.082  12.993
11852W        W77013  21.593  37.826   4.171
11853W        W77014  27.520  32.881  13.024
11854W        W77015  12.362  16.150  12.044
11855W        W77016  25.029  42.603  13.433
11856W        W77017  38.432  41.453   3.143
11857W        W77018  27.728  22.583  10.288
11858W        W77019   4.256  27.593  10.302
11859W        W77020  18.612  39.327  11.055
11860W        W77021   8.842  16.688  12.611
11861W        W77022  34.586   2.407  11.986
11862W        W77023  29.431   6.762   3.764
11863W        W77024  18.809  33.562  14.562
11864W        W77025  35.471  39.263   3.132
11865W        W77026  18.681   0.261  11.185
11866W        W77027  23.665  18.267   2.937
11867W        W77028  13.574   4.610   3.149
11868W        W77029  34.625  40.499  12.143
11869W        W77030   9.584   3.796  11.259
11870W        W77031   4.665  43.951  11.040
11871W        W77032  36.091  39.720  11.546
11872W        W77033  12.696   6.707   1.286
11873W        W77034  19.159  37.565   1.046
11874W        W77035  13.833   5.381   1.408
11875W        W77036  14.532  41.456  13.651
11876W        W77037  11.776   4.234  10.655
11877W        W77038  24.722  13.725   1.403
11878W        W77039  44.892  40.187  11.483
11879W        W77040  41.743  12.260   2.854
11880W        W77041  13.927  33.925   1.804
11881W        W77042   0.774  10.237   2.182
11882W        W77043   1.787  18.248   0.845
11883W        W77044  10.632  40.796  13.912
11884W        W77045  17.469  23.776  11.871
11885W        W77046  10.663   5.849  10.746
11886W        W77047  40.417  26.189   2.141
11887W        W77048   1.876  17.998  10.812
11888W        W77049  15.807  26.591  14.386
11889W        W77050   1.248   0.729  10.529
11890W        W77051  15.511  41.284   1.723
11891W        W77052  16.615   8.857  12.560
11892W        W77053   3.785  44.002   3.263
11893W        W77054  35.908  37.443   3.204
11894W        W77055  40.526   9.121   0.301
11895W        W77056   6.805   1.290   0.428
11896W        W77057  34.664  28.250   4.165
11897W        W77058   4.615   7.500  12.879
11898W        W77059  18.608  43.327   4.018
11899W        W77060  20.793  36.140   3.182
11900W        W77061  31.135  28.107   1.713
11901W        W77062  29.421  10.823  13.977
11902W        W77063  12.003   5.393   4.548
11903W        W77064  23.727  36.514   2.629
11904W        W77065  18.975   0.437   0.946
11905W        W77066  25.052  38.967  11.468
11906W        W77067  32.099  19.897   4.240
11907W        W77068  10.217  10.653   2.469
11908W        W77069  27.737  34.909   2.766
11909W        W77070  43.574  11.667  11.750
11910W        W77071  44.522  29.961   0.530
11911W        W77072  40.875  17.377  12.133
11912W        W77073  40.021   7.360   0.435
11913W        W77074  19.565   0.780   2.866
11914W        W77075   4.723  13.592   2.406
11915W        W77076  27.921  22.647  14.005
11916W        W77077   3.301  14.812   1.862
11917W        W77078   1.165  41.886   3.891
11918W        W77079   9.360  35.689  13.788
11919W        W77080  21.249  35.531   4.515
11920W        W77081  13.294  41.846   0.464
11921W        W77082  21.212  28.164  13.386
11922W        W77083   7.089  44.145   3.696
11923W        W77084  22.080  22.245  13.327
11924W        W77085   9.731  37.400   0.673
11925W        W77086  31.564  36.124   0.900
11926W        W77087  29.961  13.574   2.614
11927W        W77088   5.271   0.377  11.498
11928W        W77089   5.984  31.608   3.592
11929W        W77090  13.816   1.915  13.042
11930W        W77091  30.060  18.153  12.878
11931W        W77092  29.086   3.950   1.218
11932W        W77093  30.384  38.402   1.657
11933W        W77094   0.983  41.839   1.695
11934W        W77095   7.217  17.557   0.362
11935W        W77096  29.238  22.602  10.177
11936W        W77097  43.827   4.618  11.981
11937W        W77098  26.147  11.183  11.095
11938W        W77099   1.299   7.610   0.634
11939W        W77100  13.102  37.411  13.088
11940W        W77101  35.404  40.039  13.999
11941W        W77102  14.369  35.872  10.814
11942W        W77103   6.379  37.473  14.403
11943W        W77104  34.055  29.715  13.508
11944W        W77105  24.844  30.144  11.915
11945W        W77106  14.352   0.052  12.860
11946W        W77107  42.994  41.564  13.269
11947W        W77108  35.290  14.356   2.393
11948W        W77109   7.362  12.769  11.130
11949W        W77110   5.881  24.795   1.729
11950W        W77111   7.961   1.700   3.842
11951W        W77112  20.116   6.806   4.300
11952W        W77113  34.411  23.479   3.323
11953W        W77114  27.290  23.742   3.630
11954W        W77115  26.164   4.601  11.561
11955W        W77116  17.650   8.973  12.138
11956W        W77117  22.569  26.496  10.237
11957W        W77118   6.027  30.585   1.211
11958W        W77119   3.846   2.791  12.381
11959W        W77120   7.392  44.839   4.245
11960W        W77121  29.173  11.310  11.559
11961W        W77122  24.342  31.959   4.891
11962W        W77123  34.462  12.004   4.328
11963W        W77124  18.000  19.022  12.637
11964W        W77125   4.889  22.296  10.672
11965W        W77126   2.171  40.821   0.548
11966W        W77127  15.161  24.836  14.810
11967W        W77128  44.501  23.215   0.128
11968W        W77129  13.072   2.547  13.015
11969W        W77130  36.405  43.459  11.163
11970W        W77131  37.581  29.168   4.403
11971W        W77132   7.405  39.091  11.560
11972W        W77133  21.806  10.673   0.676
11973W        W77134   6.380  39.990   2.402
11974W        W77135  26.989  24.653   1.887
11975W        W77136   4.987   4.612  12.137
11976W        W77137  43.508   6.369  12.181
11977W        W77138  16.312  16.426  14.043
11978W        W77139  19.015  17.258   2.055
11979W        W77140  27.635  16.872   0.237
11980W        W77141  20.546  28.723  13.943
11981W        W77142  23.773  10.135  14.313
11982W        W77143  43.743  41.818   0.756
11983W        W77144  40.291  19.160   4.699
11984W        W77145  30.127  35.178  11.837
11985W        W77146  23.421  11.726   2.196
11986W        W77147  32.059   8.265   3.793
11987W        W77148  22.962   9.555   0.851
11988W        W77149   6.920  44.575  11.677
11989W        W77150  13.785  20.207   4.994
11990W        W77151   3.746  40.578  10.707
11991W        W77152  37.811   0.703   2.578
11992W        W77153  18.516   9.529   1.333
11993W        W77154   4.124  39.666  12.998
11994W        W77155  15.629   2.909   3.702
11995W        W77156  38.837  36.005  13.869
11996W        W77157  16.828   9.635  10.719
11997W        W77158  25.999   1.885   1.651
11998W        W77159  31.485   8.991  12.583
11999W        W77160  24.131  23.230   2.261
12000W        W77161   6.747  39.068   0.345
12001W        W77162  27.897  44.236  10.318
12002W        W77163  24.721   4.175  14.257
12003W        W77164  44.824   3.343  13.591
12004W        W77165  14.154  44.514   1.352
12005W        W77166  40.483  20.435  14.356
12006W        W77167  20.919  23.725   4.367
12007W        W77168  29.877  15.004   0.536
12008W        W77169  15.239  13.182   1.924
12009W        W77170  25.910  28.288   4.073
12010W        W77171  23.296  13.282  13.274
12011W        W77172  33.969  21.267  14.227
12012W        W77173   9.283  38.730  11.602
12013W        W77174  22.225  28.533  13.782
12014W        W77175  14.811  39.433  14.409
12015W        W77176  22.007   2.338   0.299
12016W        W77177  17.795  21.661  12.339
12017W        W77178  35.832  29.022  11.685
12018W        W77179  15.161   0.708   2.671
12019W        W77180  20.579  44.154  14.986
12020W        W77181  40.439  13.558   0.792
12021W        W77182  14.337   6.286   4.108
12022W        W77183  14.110  23.081   1.751
12023W        W77184  43.879   9.778  10.940
12024W        W77185  17.231  41.596   4.146
12025W        W77186  15.552  33.016   4.107
12026W        W77187  29.770   2.153  12.041
12027W        W77188  18.707   6.264  14.741
12028W        W77189   4.194  43.325   1.358
12029W        W77190  44.247  36.103  12.158
12030W        W77191  43.087  30.889   0.503
12031W        W77192  14.874  26.282   2.744
12032W        W77193  12.042   4.949   0.175
12033W        W77194   3.354  33.025   3.283
12034W        W77195   2.010  42.379   2.962
12035W        W77196  29.729  20.246   4.267
12036W        W77197  29.135  15.569   0.655
12037W        W77198  10.002  23.188   3.161
12038W        W77199  13.850  38.988   0.840
12039W        W77200  25.245  13.937  11.213
12040W        W77201  31.141  28.073  12.948
12041W        W77202  24.077  31.622   4.109
12042W        W77203  20.741  42.006  11.600
12043W        W77204   8.707   7.350  13.928
12044W        W77205  10.876  37.468   1.023
12045W        W77206  30.329  19.600  13.092
12046W        W77207  24.420  39.533   2.957
12047W        W77208  14.051  21.219  10.668
12048W        W77209  20.114  34.935  13.134
12049W        W77210  42.259  30.898   4.922
12050W        W77211   9.232   7.769   0.327
12051W        W77212   4.647  17.393   1.380
12052W        W77213  16.479  13.049   4.419
12053W        W77214  39.961   5.747  11.333
12054W        W77215  13.739   6.662  11.471
12055W        W77216   3.729  31.946  14.851
12056W        W77217  24.083  41.273   1.162
12057W        W77218  28.563  35.025  12.094
12058W        W77219  38.821  18.778   4.748
12059W        W77220  33.061  38.366   2.253
12060W        W77221   4.315   0.077  14.411
12061W        W77222  26.519  23.925  11.917
12062W        W77223  14.478  17.735   1.740
12063W        W77224  43.321   4.780   1.664
12064W        W77225   4.087  44.313   1.355
12065W        W77226   5.550  15.857   1.183
12066W        W77227  37.425  22.821  12.089
12067W        W77228  10.656  40.701   3.700
12068W        W77229  16.105  39.718   2.763
12069W        W77230  35.609   6.289   3.757
12070W        W77231  25.125  34.410   3.848
12071W        W77232  39.830   3.869  12.902
12072W        W77233  34.924   9.894   0.908
12073W        W77234  41.212  43.560   4.123
12074W        W77235  22.154  36.866   1.284
12075W        W77236  19.602  27.449  14.302
12076W        W77237  25.565   8.177   2.748
12077W        W77238  15.796  25.251   4.883
12078W        W77239   6.185  35.326   0.743
12079W        W77240   1.025   8.189   1.409
12080W        W77241  39.028  39.961  12.581
12081W        W77242  26.597  40.446  13.881
12082W        W77243  28.346  29.299   1.177
12083W        W77244  15.042  41.415  14.959
12084W        W77245  32.822  27.363  12.166
12085W        W77246   1.395  25.551  14.710
12086W        W77247   6.222  43.389   4.568
12087W        W77248   6.864  22.254   0.379
12088W        W77249  11.238  22.953  11.534
12089W        W77250   4.997  43.544  11.710
12090W        W77251  43.993   8.362  11.067
12091W        W77252  33.123  44.792   1.493
12092W        W77253  22.219  11.192  13.388
12093W        W77254  31.514  32.964   3.120
12094W        W77255   5.061  38.455   4.250
12095W        W77256   4.377  44.720   3.153
12096W        W77257  20.739  28.851  10.775
12097W        W77258  22.659  11.568   1.826
12098W        W77259  21.222  19.945  14.075
12099W        W77260  44.340  11.822  10.670
12100W        W77261  38.837   4.768   1.209
12101W        W77262  34.633  29.141   0.805
12102W        W77263  30.433  22.245  14.738
12103W        W77264  39.358  41.595  12.492
12104W        W77265  43.858   5.114  11.924
12105W        W77266  33.623  25.243   0.576
12106W        W77267   6.975  40.857   2.364
12107W        W77268  42.832   6.418  12.355
12108W        W77269  27.491  40.737  10.709
12109W        W77270  37.880  28.333   3.418
12110W        W77271  19.346  39.508   0.552
12111W        W77272  17.050   3.880  11.681
12112W        W77273  23.078   0.999  10.467
12113W        W77274  36.937  32.429   2.749
12114W        W77275  27.363  40.758   3.997
12115W        W77276  23.702  22.140   2.605
12116W        W77277  12.011  22.168   1.718
12117W        W77278  36.027  33.111  12.886
12118W        W77279  10.595  32.082  14.874
12119W        W77280  33.793  20.745  10.720
12120W        W77281  37.525   6.175  13.177
12121W        W77282   1.365  24.558   0.391
12122W        W77283   5.756  37.609   1.353
12123W        W77284   9.660   4.792  13.976
12124W        W77285  38.585  32.125   1.248
12125W        W77286  21.577  44.768  13.109
12126W        W77287  18.307  25.503  14.454
12127W        W77288  43.071  14.769  14.627
12128W        W77289  19.267  32.900  11.159
12129W        W77290  17.889  11.256  12.150
12130W        W77291   1.466   9.556  13.243
12131W        W77292  20.709  29.692   2.819
12132W        W77293  14.551  33.443   1.641
12133W        W77294  26.488  10.202   4.193
12134W        W77295  33.005  42.440   4.523
12135W        W77296  10.344  35.615   4.052
12136W        W77297  20.811  31.630   4.717
12137W        W77298  44.181  13.751   2.292
12138W        W77299  29.170  33.432  12.606
12139W        W77300  17.624   8.247   4.487
12140W        W77301  21.077  41.762  10.486
12141W        W77302  43.536  12.883  12.565
12142W        W77303  18.891  44.482   4.658
12143W        W77304  14.534  17.254   4.117
12144W        W77305  12.691   4.092   2.106
12145W        W77306  23.015  20.172  11.846
12146W        W77307  42.994   2.071  13.935
12147W        W77308  18.225  11.638   4.345
12148W        W77309  43.017  32.656   4.386
12149W        W77310  28.213  26.814  14.073
12150W        W77311  36.079  28.822   0.297
12151W        W77312  29.626   6.232   0.563
12152W        W77313  36.737   5.655  11.110
12153W        W77314  39.847   8.611  11.912
12154W        W77315   1.969  30.431   2.682
12155W        W77316  40.275  25.997   1.226
12156W        W77317  38.964  16.577  13.763
12157W        W77318  20.469   9.172  10.615
12158W        W77319  14.093  11.332   1.242
12159W        W77320  12.327  41.658  13.136
12160W        W77321  31.954  32.497   3.056
12161W        W77322  20.089   0.762   0.258
12162W        W77323  21.616  17.946   3.565
12163W        W77324  29.095  42.008   4.078
12164W        W77325   8.237   6.480   0.013
12165W        W77326  10.281   6.386  14.871
12166W        W77327  10.219   5.330   2.860
12167W        W77328  21.590  30.825  13.957
12168W        W77329  16.068  18.510  13.825
12169W        W77330  43.762  28.910   4.487
12170W        W77331  30.353  29.481  11.998
12171W        W77332  11.612  21.982   4.140
12172W        W77333  31.197  24.646   0.325
12173W        W77334  40.376  40.263   3.143
12174W        W77335  22.914  16.445  11.171
12175W        W77336  29.550  30.860  13.989
12176W        W77337  23.791  30.487   3.227
12177W        W77338  28.882   9.213   0.420
12178W        W77339  29.202  30.866   1.246
12179W        W77340  13.736  18.503  11.769
12180W        W77341  32.584  10.357   1.687
12181W        W77342  15.339  20.032   1.816
12182W        W77343  19.461  44.058   2.275
12183W        W77344  24.219  22.110   3.150
12184W        W77345   3.251  12.701  14.971
12185W        W77346   6.544  10.808  12.447
12186W        W77347  11.228   0.158  11.863
12187W        W77348   5.963  15.818   4.284
12188W        W77349  24.464  10.339   1.698
12189W        W77350  40.400  23.592   2.207
12190W        W77351  26.533  21.053  11.977
12191W        W77352  32.534  17.774  11.182
12192W        W77353   3.294   1.060   4.592
12193W        W77354  35.846   9.025  13.546
12194W        W77355   7.150  41.388   3.658
12195W        W77356   7.829  23.636  10.639
12196W        W77357  20.588  17.807   1.328
12197W        W77358  21.699  15.607  10.488
12198W        W77359  42.815  22.504   3.658
12199W        W77360  38.461  36.882  12.259
12200W        W77361  17.788   4.466   0.968
12201W        W77362  15.658  24.553   3.718
12202W        W77363  29.564  33.924   4.233
12203W        W77364  14.516  11.528   3.277
12204W        W77365   3.693   3.719   3.763
12205W        W77366  44.083  33.391  13.627
12206W        W77367  12.884   8.350   3.397
12207W        W77368  10.557  21.609  14.432
12208W        W77369  19.721  11.620  14.439
12209W        W77370  31.496  16.801  11.959
12210W        W77371   3.406   4.540  10.695
12211W        W77372  22.116  12.341   0.844
12212W        W77373  23.115  15.202   1.058
12213W        W77374  11.184   4.797  10.976
12214W        W77375  32.457   4.975  10.511
12215W        W77376  39.481  18.013   0.939
12216W        W77377  37.438  24.307  14.316
12217W        W77378  44.297  14.303   4.136
12218W        W77379  34.579   6.509   4.291
12219W        W77380  26.106  24.623  11.598
12220W        W77381  28.199   2.025   0.235
12221W        W77382  24.740  28.600  13.301
12222W        W77383   3.679  35.978   0.931
12223W        W77384  29.887  33.514  11.571
12224W        W77385  37.626  42.326  14.482
12225W        W77386   5.478  22.654  13.815
12226W        W77387  10.857  41.352   2.496
12227W        W77388  40.332  42.674   0.972
12228W        W77389  38.612  17.043  10.721
12229W        W77390   8.375  16.759   2.592
12230W        W77391  20.716  11.223   4.011
12231W        W77392   3.936  43.316   0.059
12232W        W77393   2.770  27.876  11.158
12233W        W77394  24.970   3.918  11.954
12234W        W77395  41.424  32.727  10.692
12235W        W77396  24.006  20.029  13.526
12236W        W77397  42.065  42.839  10.841
12237W        W77398  22.851  34.089  13.513
12238W        W77399  11.724  44.250   0.391
12239W        W77400  34.096  13.199   0.241
12240W        W77401  30.691  19.179  12.013
12241W        W77402  34.667  38.992   2.359
12242W        W77403   3.578   9.280   9.766
12243W        W77404  32.058  21.578  12.241
12244W        W77405   3.310  25.284   4.271
12245W        W77406  23.042  30.102   2.681
12246W        W77407  20.338  38.514  10.785
12247W        W77408  30.124  41.148  11.037
12248W        W77409  25.154  23.977  11.971
12249W        W77410  17.802  26.121   2.522
12250W        W77411  40.536  43.373  12.090
12251W        W77412  33.201   4.820  13.905
12252W        W77413  25.500   9.336  11.098
12253W        W77414   9.785  28.558  14.200
12254W        W77415  42.022  44.316   3.075
12255W        W77416  24.017  22.563   1.841
12256W        W77417  22.731  17.598  14.834
12257W        W77418  41.051  26.587   1.141
12258W        W77419  39.538  13.836  11.122
12259W        W77420  27.517  11.670   2.764
12260W        W77421  16.186  35.946  14.256
12261W        W77422  12.766  10.600   4.227
12262W        W77423  20.178  23.218   4.432
12263W        W77424  38.919  13.597   1.941
12264W        W77425  30.384   7.749  12.118
12265W        W77426  34.157  25.617  11.555
12266W        W77427   1.020  38.474  12.982
12267W        W77428  27.218   8.380   1.984
12268W        W77429  30.160  34.393   2.293
12269W        W77430  22.387   4.413  11.333
12270W        W77431  23.173  30.080   4.429
12271W        W77432  33.467  30.893   0.425
12272W        W77433  23.590   6.320  11.926
12273W        W77434   4.438  10.757  11.133
12274W        W77435  42.932  12.883   4.532
12275W        W77436  21.294  36.078   3.271
12276W        W77437  10.629   5.663   2.142
12277W        W77438  19.085   9.594  13.081
12278W        W77439  25.807  13.789   3.584
12279W        W77440  22.964   3.400   0.068
12280W        W77441  14.791  32.541   2.623
12281W        W77442   8.325  11.851   2.387
12282W        W77443   8.925  23.261   0.208
12283W        W77444  18.425  17.095   3.218
12284W        W77445  16.664  22.814  10.633
12285W        W77446  43.043  11.811  12.829
12286W        W77447   4.750  42.535   4.896
12287W        W77448  42.840  30.612  12.406
12288W        W77449  30.632  13.209   2.269
12289W        W77450  31.493  30.513   2.881
12290W        W77451  29.451  15.311  12.578
12291W        W77452  17.665  14.537  11.072
12292W        W77453  31.053   5.857   3.670
12293W        W77454  14.721  30.216   2.267
12294W        W77455   5.815  23.844   2.014
12295W        W77456  14.950  11.749  14.683
12296W        W77457  15.147  34.643  12.981
12297W        W77458   5.609  39.996   0.466
12298W        W77459  43.969   7.163   2.166
12299W        W77460  37.954   5.540  14.765
12300W        W77461   8.408  39.836   2.201
12301W        W77462  44.765  38.596   3.203
12302W        W77463  38.246  19.576   1.396
12303W        W77464  11.572  41.019   0.951
12304W        W77465  26.510  12.781  12.050
12305W        W77466  18.216  41.473   4.166
12306W        W77467  33.919  40.459  11.140
12307W        W77468  29.141  44.945   2.282
12308W        W77469  21.746  16.104   2.232
12309W        W77470  12.273  33.716  10.716
12310W        W77471  35.415  23.541  11.583
12311W        W77472  38.670   0.789  14.316
12312W        W77473  11.684  13.030   3.362
12313W        W77474  33.537  27.252  13.382
12314W        W77475   3.793   2.059  11.386
12315W        W77476   9.648  13.713  13.311
12316W        W77477  16.780  41.479  14.366
12317W        W77478  25.765  31.833   0.371
12318W        W77479  36.105  40.978   3.609
12319W        W77480   7.517  44.983  10.738
12320W        W77481   4.826  38.817   0.915
12321W        W77482  35.622   0.225  13.313
12322W        W77483  39.463  30.218  12.436
12323W        W77484  19.078  35.810  12.999
12324W        W77485  41.112  34.540  10.472
12325W        W77486  28.994   5.794  12.607
12326W        W77487   3.847   5.734   0.812
12327W        W77488  40.011  25.066  14.804
12328W        W77489  21.664   9.705   1.368
12329W        W77490  42.248   9.487  12.328
12330W        W77491  39.307  12.490   1.226
12331W        W77492  25.627   7.700   4.488
12332W        W77493  44.271  43.270  12.628
12333W        W77494   3.672  39.966   2.016
12334W        W77495  26.708  11.664   0.844
12335W        W77496   8.353  12.716   0.394
12336W        W77497   9.092  32.052   0.641
12337W        W77498  10.816  16.686  12.026
12338W        W77499  30.087   2.718   5.001
12339W        W77500   2.644  42.158   4.078
12340W        W77501  22.817  23.711   3.167
12341W        W77502  41.193   7.720  10.904
12342W        W77503  22.826  12.652  13.933
12343W        W77504  24.050  33.081   1.021
12344W        W77505   6.354  38.417  12.524
12345W        W77506  35.361  44.333   3.671
12346W        W77507  41.503  28.575   1.213
12347W        W77508  10.347  41.354   3.313
12348W        W77509   3.819   4.203   4.031
12349W        W77510  27.027  11.749   3.558
12350W        W77511  20.702  12.122  10.721
12351W        W77512  42.237   6.432  14.390
12352W        W77513  29.546  34.399   4.449
12353W        W77514  33.415   2.904  12.470
12354W        W77515  40.949  15.648  10.702
12355W        W77516  12.824  39.586   2.807
12356W        W77517  28.098   5.348  12.830
12357W        W77518  24.274  37.922   5.506
12358W        W77519  39.640  22.162   4.556
12359W        W77520  38.446  44.247   1.927
12360W        W77521  39.888  37.512   1.237
12361W        W77522   1.455  23.202   3.998
12362W        W77523   3.798   3.403  11.154
12363W        W77524  40.025  39.446  10.763
12364W        W77525   9.825  29.335  11.566
12365W        W77526  21.118  24.616   4.186
12366W        W77527  41.920  17.189   4.585
12367W        W77528  29.916   3.516  13.163
12368W        W77529  30.660   3.285   2.241
12369W        W77530  17.079   6.777   0.270
12370W        W77531  36.950  27.845  12.066
12371W        W77532  23.649  31.694  12.503
12372W        W77533  22.646  16.651  12.853
12373W        W77534  31.443  22.953   2.137
12374W        W77535  15.665   3.359   0.904
12375W        W77536   5.785  44.343  13.870
12376W        W77537  25.748  34.035   2.680
12377W        W77538  24.633  24.606   0.831
12378W        W77539  37.392  37.760  14.899
12379W        W77540  39.345  41.847  13.449
12380W        W77541   4.382  13.115   0.215
12381W        W77542  30.650  20.572  10.411
12382W        W77543  12.097   7.904   3.176
12383W        W77544  19.761  25.327  13.787
12384W        W77545  18.830   9.267  12.123
12385W        W77546  44.970  14.219   1.010
12386W        W77547   8.025  17.670  14.893
12387W        W77548  43.552  18.594  12.155
12388W        W77549   6.588   3.204   3.658
12389W        W77550  17.199  39.638   1.793
12390W        W77551  37.219  36.876   4.748
12391W        W77552  36.927  24.764   1.309
12392W        W77553  37.630  42.350  10.710
12393W        W77554   1.637  27.229  11.203
12394W        W77555  33.394  15.722   3.607
12395W        W77556  14.310   5.746   0.212
12396W        W77557  35.093  42.098  11.557
12397W        W77558   1.965  24.447  12.136
12398W        W77559  35.997  36.073   0.478
12399W        W77560   2.355  31.525   0.050
12400W        W77561   3.255  30.067  14.025
12401W        W77562  19.547  41.645  12.327
12402W        W77563  33.593  15.102  10.611
12403W        W77564  22.318   1.288   2.168
12404W        W77565   7.541  10.171  14.843
12405W        W77566  12.899  22.614  10.756
12406W        W77567  44.259  31.019  14.778
12407W        W77568  37.953  42.179  11.839
12408W        W77569  43.922   7.138  13.319
12409W        W77570  42.594  21.068   3.254
12410W        W77571  30.849   5.357   4.440
12411W        W77572  13.154  39.089  11.443
12412W        W77573  20.721  31.950  12.113
12413W        W77574  24.870   0.665   0.304
12414W        W77575  33.329  14.392   3.873
12415W        W77576  28.615   3.736   3.730
12416W        W77577  22.061  13.266  13.869
12417W        W77578  23.770  44.280   4.442
12418W        W77579   9.296  10.164  12.669
12419W        W77580   2.615  30.687   4.230
12420W        W77581  38.054  14.833  12.579
12421W        W77582  21.030  10.733  14.749
12422W        W77583  14.556   0.343  13.278
12423W        W77584  40.404  33.593   0.353
12424W        W77585  16.305  28.036  14.491
12425W        W77586  24.618  37.103  12.939
12426W        W77587  12.574  43.694  11.016
12427W        W77588  37.386  30.509   0.467
12428W        W77589  39.354   5.925  13.287
12429W        W77590  43.776  38.054  10.273
12430W        W77591  30.260   2.800   1.356
12431W        W77592  21.500  24.232   2.716
12432W        W77593  36.964   1.130   1.738
12433W        W77594  25.476  12.394  13.362
12434W        W77595   1.314   3.959   1.726
12435W        W77596   0.358  19.352   1.462
12436W        W77597  13.370  24.919   4.154
12437W        W77598  10.762  44.074   4.741
12438W        W77599   6.447   2.424  14.238
12439W        W77600   4.752  41.531   0.692
12440W        W77601  30.394  18.815  14.304
12441W        W77602   6.281  29.089   0.327
12442W        W77603   9.104  43.933   1.393
12443W        W77604  27.875   6.617  14.139
12444W        W77605  15.200  16.342  11.883
12445W        W77606   2.039  40.005   0.914
12446W        W77607  26.984  39.001   2.341
12447W        W77608  40.382  11.729   2.940
12448W        W77609  21.556  34.911   2.594
12449W        W77610   7.232  26.079   0.882
12450W        W77611  16.660   9.217  12.971
12451W        W77612  28.738  14.737   1.222
12452W        W77613  22.858  16.217  12.529
12453W        W77614  17.096  11.214   4.462
12454W        W77615  36.927  31.903   4.016
12455W        W77616  43.464   9.612  11.233
12456W        W77617  42.513  40.313  10.644
12457W        W77618   0.343  44.431  14.257
12458W        W77619  26.282   8.988   1.535
12459W        W77620  40.328   0.554   1.872
12460W        W77621  28.213  34.328   0.444
12461W        W77622  19.669  36.056   0.940
12462W        W77623   5.651  25.633   2.767
12463W        W77624   9.042  44.449   2.143
12464W        W77625  26.976   0.460  11.575
12465W        W77626  16.723  39.344   4.736
12466W        W77627  15.987   3.312   2.210
12467W        W77628   9.126  44.737   2.580
12468W        W77629  10.851  26.468   2.585
12469W        W77630  16.571  21.591  11.186
12470W        W77631  20.592  14.717   0.359
12471W        W77632  22.747  16.270   2.349
12472W        W77633  25.052  31.915   0.714
12473W        W77634  18.696  40.516   2.664
12474W        W77635  20.718  12.121  12.752
12475W        W77636  44.510  22.636  13.582
12476W        W77637  37.539  36.670   3.227
12477W        W77638  17.802  42.788   3.068
12478W        W77639  38.996  27.081   1.973
12479W        W77640   8.940  10.677   2.623
12480W        W77641  17.249  33.853   0.207
12481W        W77642  43.938  23.150   3.773
12482W        W77643  30.597   4.651   3.222
12483W        W77644  21.763   7.562   3.533
12484W        W77645  24.558  29.435   2.188
12485W        W77646  28.550  16.884   0.918
12486W        W77647  37.365  13.084  12.887
12487W        W77648  10.731   7.564  14.895
12488W        W77649  23.946   2.312   2.138
12489W        W77650   8.206  10.243   4.956
12490W        W77651  30.954   7.342   1.663
12491W        W77652  15.566  11.595  12.928
12492W        W77653  42.375   9.729   1.956
12493W        W77654  42.141  39.000   3.185
12494W        W77655   6.000  39.745  13.578
12495W        W77656  23.945   6.319  11.546
12496W        W77657  32.386   1.386   2.829
12497W        W77658  12.114  39.604  13.926
12498W        W77659  37.575   6.693   4.703
12499W        W77660  34.092  36.958   3.603
12500W        W77661  25.920  28.655   1.879
12501W        W77662  10.562  30.046  14.408
12502W        W77663   4.931  11.091  11.443
12503W        W77664   6.580  21.234  14.533
12504W        W77665  22.034  44.014  11.486
12505W        W77666  18.751  43.658   1.236
12506W        W77667  43.574  29.559   4.187
12507W        W77668  29.531   3.284  13.414
12508W        W77669  27.893  17.248  14.198
12509W        W77670   5.322  28.432  14.558
12510W        W77671  20.340  42.691  11.909
12511W        W77672  30.508  18.568   0.843
12512W        W77673  43.037  20.699   4.326
12513W        W77674   4.154  39.807   1.816
12514W        W77675  13.777  13.861   2.883
12515W        W77676  25.090  18.241   4.575
12516W        W77677  19.271  33.560  14.831
12517W        W77678  15.673   1.372  12.359
12518W        W77679   8.112  40.995   2.723
12519W        W77680  22.633  23.002  14.364
12520W        W77681  11.862  38.994   3.087
12521W        W77682  19.300  22.019  12.600
12522W        W77683  15.270  33.614   4.132
12523W        W77684  29.000   4.736   0.966
12524W        W77685  36.537  31.886  13.135
12525W        W77686   1.155  40.302  11.027
12526W        W77687  34.411  42.918   3.667
12527W        W77688   1.309  24.064  11.635
12528W        W77689  12.092  23.269   3.706
12529W        W77690  27.655  37.439  10.439
12530W        W77691  34.144  35.907  12.550
12531W        W77692   4.348  34.994  13.562
12532W        W77693  40.843  41.289   1.779
12533W        W77694  40.964   6.689  14.183
12534W        W77695  38.481   1.910  11.296
12535W        W77696  28.976  18.823  13.897
12536W        W77697  32.873  10.706  11.574
12537W        W77698   1.854   6.701  12.912
12538W        W77699  28.162   0.913  11.703
12539W        W77700  36.162  21.634  13.372
12540W        W77701   2.357  34.706  14.460
12541W        W77702  38.827  31.135   1.026
12542W        W77703  18.438  13.273   3.805
12543W        W77704  26.646  27.059  14.303
12544W        W77705  14.693   3.702   1.699
12545W        W77706  17.225  16.058  11.521
12546W        W77707   3.252  33.580  11.065
12547W        W77708  43.025   4.193  11.615
12548W        W77709   9.439  37.809  13.961
12549W        W77710   0.266  28.224   0.951
12550W        W77711  15.359  41.594  11.120
12551W        W77712   1.844  26.916  11.599
12552W        W77713  28.575  10.245   2.431
12553W        W77714  13.252  10.412   1.834
12554W        W77715  36.108  35.184  12.481
12555W        W77716  23.607   2.040   1.823
12556W        W77717  42.371  40.904  14.862
12557W        W77718  19.037   8.959  12.517
12558W        W77719  44.530  28.963   2.377
12559W        W77720  42.519  40.546   2.850
12560W        W77721  38.212  17.462   3.630
12561W        W77722  18.224  31.105  10.744
12562W        W77723   6.663  10.378   1.732
12563W        W77724  16.180  22.837   4.595
12564W        W77725  18.768  38.731  11.238
12565W        W77726  16.300  44.621  11.177
12566W        W77727   9.887   0.943   2.059
12567W        W77728  24.221  17.209  13.323
12568W        W77729  38.030  32.425   2.975
12569W        W77730   4.692  17.714   3.400
12570W        W77731  44.763  32.028  10.719
12571W        W77732  38.847  18.176  14.940
12572W        W77733  29.389  17.338  14.430
12573W        W77734  42.025  17.598  12.014
12574W        W77735  42.209  24.090  10.461
12575W        W77736  18.640  22.746   3.792
12576W        W77737   6.343  29.135  13.857
12577W        W77738  30.996  15.677   4.171
12578W        W77739  22.992  32.026  14.245
12579W        W77740  44.271  34.509  11.309
12580W        W77741   8.320  18.547  13.855
12581W        W77742  13.392  41.489   1.221
12582W        W77743  29.908  43.498  11.216
12583W        W77744  36.572   1.253  11.361
12584W        W77745  22.652  44.011   1.247
12585W        W77746  28.932  14.161  10.711
12586W        W77747  33.340   5.245  13.635
12587W        W77748  29.755  29.207  12.603
12588W        W77749   9.689   8.921   0.904
12589W        W77750  32.893  22.106   3.321
12590W        W77751  29.629   5.908   3.171
12591W        W77752  14.679  23.621  11.719
12592W        W77753   5.581  15.708  12.507
12593W        W77754  17.078   7.435  11.640
12594W        W77755  39.308  41.114  12.338
12595W        W77756  16.220   8.761   0.024
12596W        W77757  21.169  43.928   0.301
12597W        W77758   0.419   1.609   0.327
12598W        W77759  41.014  11.884   3.615
12599W        W77760  23.400   7.606  11.931
12600W        W77761  41.635  21.692  10.714
12601W        W77762  36.395  29.898   2.856
12602W        W77763  43.840   4.743  11.005
12603W        W77764   2.198   1.325  13.404
12604W        W77765  33.642   6.310   3.991
12605W        W77766   4.435  23.923   0.849
12606W        W77767  23.844  16.809  11.170
12607W        W77768  39.812  27.804   3.617
12608W        W77769  36.831   1.448   0.737
12609W        W77770  42.027   1.911  13.657
12610W        W77771  14.629   3.465  13.959
12611W        W77772  10.359  24.954  12.447
12612W        W77773   6.252  24.504  13.375
12613W        W77774  37.586  24.291   4.146
12614W        W77775  30.009  22.138   3.174
12615W        W77776  16.514  15.239   1.715
12616W        W77777  33.387   7.608   4.116
12617W        W77778  34.107  39.486   2.794
12618W        W77779  40.262  11.804  14.470
12619W        W77780   8.239   9.126  12.108
12620W        W77781  32.231  18.587  14.034
12621W        W77782   8.789   7.833  11.880
12622W        W77783   5.308   7.918   0.050
12623W        W77784  43.652  35.342   3.389
12624W        W77785  10.917  40.816   1.825
12625W        W77786  11.630  14.840   2.818
12626W        W77787   1.438  29.576  13.823
12627W        W77788  24.702  29.536  14.901
12628W        W77789  39.948  14.315  14.695
12629W        W77790  42.075  15.361   4.248
12630W        W77791  13.776  25.714  11.957
12631W        W77792  43.317  19.525   3.970
12632W        W77793  32.537   8.469  13.948
12633W        W77794  29.646   7.693  11.621
12634W        W77795   9.039  37.931  11.199
12635W        W77796   6.117  24.132   0.213
12636W        W77797  17.644  15.629  13.566
12637W        W77798  34.728  30.108  10.852
12638W        W77799   9.948   7.923   3.605
12639W        W77800  26.981  19.666  13.509
12640W        W77801   5.299  31.955   1.059
12641W        W77802   7.588  37.555  14.789
12642W        W77803  19.216  28.091   3.742
12643W        W77804  33.117  17.233  12.522
12644W        W77805  21.410  41.557  13.066
12645W        W77806  12.671  37.329   3.179
12646W        W77807   8.332  33.488  13.061
12647W        W77808  33.310  10.751  14.680
12648W        W77809  16.605   5.196  10.443
12649W        W77810  12.115  43.551   3.086
12650W        W77811  39.615  43.974   0.909
12651W        W77812  20.216  36.322   3.792
12652W        W77813  20.643   1.782  11.610
12653W        W77814   2.183   9.464   1.668
12654W        W77815  16.584  22.552   0.889
12655W        W77816  11.833  41.375  10.592
12656W        W77817  38.309  30.965   4.531
12657W        W77818  16.766  39.333  14.740
12658W        W77819  22.530  38.644  14.029
12659W        W77820  42.000   9.747  13.496
12660W        W77821  34.150  25.206   0.532
12661W        W77822  38.927  14.647  13.773
12662W        W77823   8.281  33.645  11.677
12663W        W77824   0.203  13.791  13.009
12664W        W77825  22.211  38.915   1.293
12665W        W77826  27.190  22.332  14.359
12666W        W77827  16.782  20.849  10.068
12667W        W77828  38.787  28.406  11.336
12668W        W77829  38.851  16.262  13.161
12669W        W77830  12.793  24.383  11.621
12670W        W77831  28.955  33.450   0.821
12671W        W77832  34.316  16.585   4.722
12672W        W77833  11.072  21.430   3.869
12673W        W77834  21.265  34.266   0.771
12674W        W77835  35.372  32.088   0.849
12675W        W77836   9.113  11.705   0.911
12676W        W77837  13.815  13.121  14.882
12677W        W77838  25.552   8.639  14.356
12678W        W77839  41.356  19.065  12.574
12679W        W77840   9.581  39.752   1.335
12680W        W77841  40.258  37.956  13.268
12681W        W77842  10.152  42.854   0.258
12682W        W77843   3.378   4.645   1.470
12683W        W77844  32.820  21.505  11.141
12684W        W77845  37.749  37.260   0.836
12685W        W77846  16.171  30.125  13.055
12686W        W77847  40.364  29.981  10.760
12687W        W77848  44.909  18.861   0.263
12688W        W77849  11.949   6.759   2.049
12689W        W77850   2.492  31.658   2.903
12690W        W77851   4.416  27.105  10.174
12691W        W77852  32.450  28.073   0.421
12692W        W77853   9.699  16.197  12.334
12693W        W77854  38.515  16.506  10.646
12694W        W77855   0.051   7.291  13.933
12695W        W77856  14.814  20.090   1.824
12696W        W77857  38.933  23.466  11.638
12697W        W77858  12.687  29.687   3.112
12698W        W77859  31.823   8.811  10.652
12699W        W77860  37.096   2.871  11.136
12700W        W77861  37.577  44.969   4.834
12701W        W77862   4.691  25.843   3.032
12702W        W77863   4.637  14.977  13.395
12703W        W77864  35.852  33.684   0.483
12704W        W77865   6.227   4.048   3.688
12705W        W77866   1.714  27.358   4.329
12706W        W77867  38.555  18.708   2.703
12707W        W77868  16.761  15.340   0.344
12708W        W77869   9.791  19.753   3.288
12709W        W77870  28.019  26.434   4.079
12710W        W77871  31.630  28.047  11.704
12711W        W77872  26.181  12.346  10.047
12712W        W77873  19.951  43.579   9.299
12713W        W77874  13.262  31.440  14.105
12714W        W77875  34.027  37.188  11.134
12715W        W77876  22.221  32.462   4.789
12716W        W77877  42.764  33.092  14.298
12717W        W77878  11.088  15.730  13.884
12718W        W77879  30.178  24.544   0.224
12719W        W77880   5.202  26.013   3.167
12720W        W77881   2.818  21.086   4.916
12721W        W77882  36.106  29.024  10.707
12722W        W77883  43.315  11.323   2.802
12723W        W77884  32.198  33.192  12.408
12724W        W77885  43.923  10.600  13.501
12725W        W77886  11.874  23.643  10.788
12726W        W77887   0.495  41.071  14.278
12727W        W77888  21.867  29.770  11.983
12728W        W77889  44.447  44.259  10.586
12729W        W77890   9.277  11.040   1.546
12730W        W77891   8.145  13.654   4.168
12731W        W77892   9.700   6.923   4.545
12732W        W77893  25.612  40.079   4.235
12733W        W77894  22.528  13.426  12.957
12734W        W77895   9.356  12.914   5.159
12735W        W77896  26.554  18.600   1.748
12736W        W77897   6.861  38.071  11.994
12737W        W77898   7.339  11.442  13.916
12738W        W77899   4.027  23.478   3.962
12739W        W77900  16.316   3.350   5.315
12740W        W77901  39.197   8.179  13.592
12741W        W77902   4.351  37.889   1.936
12742W        W77903  34.933  11.721  13.899
12743W        W77904  38.548   4.452   4.576
12744W        W77905  11.774  20.135   3.104
12745W        W77906  10.919  13.259   1.863
12746W        W77907  14.970  11.315  14.340
12747W        W77908  40.988  24.199  10.457
12748W        W77909  21.071   2.397   2.600
12749W        W77910  14.438  37.034  14.550
12750W        W77911   4.392   7.353  11.471
12751W        W77912  21.212  20.193   4.223
12752W        W77913   9.198  25.870   1.652
12753W        W77914   8.748   1.225  14.667
12754W        W77915  22.657  10.674  14.056
12755W        W77916  23.191  11.371  13.529
12756W        W77917  35.361  25.522  13.276
12757W        W77918  18.725  28.860  13.467
12758W        W77919  41.050  39.453   2.108
12759W        W77920  40.899  33.065  10.739
12760W        W77921   6.199   0.097  10.351
12761W        W77922  36.126  22.650  11.641
12762W        W77923  35.169  31.570   1.750
12763W        W77924  44.145  32.077  14.871
12764W        W77925  37.161  30.017   4.184
12765W        W77926  31.067  44.348   1.224
12766W        W77927  44.334  32.005   1.647
12767W        W77928  11.789   4.306   2.487
12768W        W77929  12.376  36.596  10.935
12769W        W77930  42.335   8.414   4.254
12770W        W77931  29.105  11.631  12.491
12771W        W77932  43.824  10.646   0.308
12772W        W77933  19.681  19.546   0.501
12773W        W77934  15.769  29.716   4.074
12774W        W77935  37.828   1.956  12.486
12775W        W77936  17.780  22.729   2.328
12776W        W77937  44.878   4.244  13.343
12777W        W77938   7.891  13.547  13.380
12778W        W77939  32.747  32.799  13.904
12779W        W77940   0.517   8.366   2.257
12780W        W77941   6.890  42.399   3.591
12781W        W77942  30.868   0.955   4.146
12782W        W77943  21.004  30.623  12.788
12783W        W77944  27.067  30.427   1.150
12784W        W77945  44.482  17.646  13.969
12785W        W77946  38.463  38.034  10.942
12786W        W77947  41.736  30.218  14.606
12787W        W77948  41.857  30.760   5.240
12788W        W77949  41.881  37.040  12.857
12789W        W77950  38.122  35.308  10.676
12790W        W77951  43.328  23.255  11.587
12791W        W77952  13.127  37.451   1.206
12792W        W77953  32.070  41.886  14.918
12793W        W77954  13.806  18.299  12.381
12794W        W77955  44.480  20.652  11.198
12795W        W77956   3.744   7.108   3.631
12796W        W77957  20.506  33.388  11.684
12797W        W77958  28.085  32.314  12.591
12798W        W77959  10.852   8.954  10.634
12799W        W77960  39.812  11.332   3.033
12800W        W77961  38.932   2.879  13.438
12801W        W77962   6.029  44.431  12.463
12802W        W77963  23.696  18.568  11.674
12803W        W77964   0.849  36.197  14.964
12804W        W77965  15.844  31.634  14.821
12805W        W77966  23.078   5.593   1.880
12806W        W77967  28.953   7.755  12.502
12807W        W77968  39.843   7.303  10.728
12808W        W77969  44.720  44.965   0.274
12809W        W77970   0.777   6.172  10.863
12810W        W77971  44.033  28.457   3.255
12811W        W77972  10.032  24.979  13.471
12812W        W77973   4.438  20.674   4.459
12813W        W77974  10.157  33.446  14.332
12814W        W77975  11.164  27.998  10.736
12815W        W77976   9.879  23.703   4.294
12816W        W77977  21.850  40.368  13.343
12817W        W77978  14.289  39.882   0.347
12818W        W77979  36.133  34.911   0.937
12819W        W77980  28.399  30.535   0.289
12820W        W77981  20.182   9.453   3.745
12821W        W77982  20.981  22.073   9.890
12822W        W77983   2.420  30.434   1.792
12823W        W77984  29.516   4.243   4.075
12824W        W77985  35.204  33.056  13.009
12825W        W77986   6.418  36.626   2.173
12826W        W77987  35.456   7.956   3.152
12827W        W77988  32.406  33.533   4.483
12828W        W77989   6.296  36.675   3.570
12829W        W77990  31.169  42.611   1.124
12830W        W77991  42.826  35.721   0.966
12831W        W77992  25.267  31.554  10.685
12832W        W77993   2.151  18.780   3.914
12833W        W77994  21.150  34.930   2.890
12834W        W77995  44.508  33.329   3.080
12835W        W77996   8.117   4.754  14.272
12836W        W77997  26.487  34.915  11.180
12837W        W77998  16.767  17.399  10.138
12838W        W77999  37.101  29.010   4.622
12839W        W78000  44.971  31.646  13.033
12840W        W78001  40.418  17.225  11.997
12841W        W78002   6.113  30.915   0.793
12842W        W78003  33.386  39.498   3.531
12843W        W78004   6.469  13.056  14.299
12844W        W78005   5.169   3.369   1.865
12845W        W78006  40.280   5.074  11.694
12846W        W78007  27.509  12.924   1.135
12847W        W78008   7.161  11.721   2.141
12848W        W78009  19.546  15.692  14.493
12849W        W78010  27.962  43.882   1.813
12850W        W78011  34.373  41.041  14.048
12851W        W78012  40.623  25.922   4.112
12852W        W78013  41.598  31.635   3.816
12853W        W78014  25.503  21.486  12.081
12854W        W78015   5.823  35.663   2.534
12855W        W78016  44.449  34.490  14.751
12856W        W78017  36.589  37.266   2.476
12857W        W78018  24.996  13.692   2.384
12858W        W78019  23.550  30.361  11.533
12859W        W78020  17.840  25.554  11.643
12860W        W78021  20.130   2.953   4.688
12861W        W78022  18.176  35.284  14.963
12862W        W78023   7.410  21.625   0.270
12863W        W78024  39.448  13.972   1.259
12864W        W78025   6.756   2.205  10.811
12865W        W78026  35.819  14.058  14.021
12866W        W78027  28.500  21.908   0.585
12867W        W78028  10.007  44.029  11.262
12868W        W78029  40.512  27.238   1.854
12869W        W78030   1.905  43.569  11.953
12870W        W78031  42.352  18.820  10.734
12871W        W78032  29.021  38.433   4.354
12872W        W78033  28.586   6.484   3.368
12873W        W78034  36.551  38.779  14.506
12874W        W78035   6.258  30.584  11.919
12875W        W78036  31.119  30.587  10.891
12876W        W78037  37.892   7.667   3.936
12877W        W78038  28.367  39.835  10.317
12878W        W78039   2.297   9.744  13.503
12879W        W78040   5.745   0.380  12.380
12880W        W78041  14.899   1.752  10.701
12881W        W78042  42.001  43.227  12.583
12882W        W78043   4.600   7.664  10.597
12883W        W78044  44.140  33.110   4.572
12884W        W78045  35.958   5.365  14.784
12885W        W78046  16.638   7.267  11.454
12886W        W78047   4.948  18.296  10.712
12887W        W78048  10.276   3.767   0.451
12888W        W78049  44.257  21.048  11.581
12889W        W78050  17.090   6.436  11.559
12890W        W78051  22.094  44.444  10.685
12891W        W78052  24.730  23.532  13.620
12892W        W78053  40.915  39.135   3.813
12893W        W78054  11.634  31.846  14.447
12894W        W78055  39.964   8.407   1.005
12895W        W78056  40.496  27.970   3.620
12896W        W78057  28.289   8.797  11.096
12897W        W78058  25.565  31.678   1.381
12898W        W78059  12.657  28.902   3.564
12899W        W78060  35.990   9.504   1.360
12900W        W78061  31.600  10.614   1.844
12901W        W78062   6.379  33.692   5.427
12902W        W78063  18.743  25.269   2.702
12903W        W78064   5.523  31.991  11.096
12904W        W78065  30.251  21.640  14.358
12905W        W78066  13.845  40.201  13.187
12906W        W78067   1.018  36.397  12.111
12907W        W78068  34.800  31.524  14.012
12908W        W78069   4.309  37.840   1.421
12909W        W78070   6.083  23.153   4.509
12910W        W78071  29.330  17.200   0.334
12911W        W78072  33.528  42.735  11.994
12912W        W78073  17.414   8.620   0.464
12913W        W78074  30.020   8.193   3.156
12914W        W78075  18.144  44.672   3.932
12915W        W78076  19.021  11.814   5.015
12916W        W78077  28.665  33.433  12.850
12917W        W78078  24.979  10.296  11.043
12918W        W78079   8.671  37.984  12.609
12919W        W78080  22.581  36.393   3.224
12920W        W78081  27.030  40.968  13.585
12921W        W78082  38.518  34.511   0.431
12922W        W78083   4.625  18.881  13.691
12923W        W78084  11.304  36.542  10.327
12924W        W78085  17.340  38.359  10.651
12925W        W78086  11.688   7.213  14.793
12926W        W78087  17.120  24.422   4.743
12927W        W78088  30.251  14.785   1.207
12928W        W78089   9.771  41.584   0.716
12929W        W78090  40.542  34.957  12.580
12930W        W78091  16.724  39.033   2.606
12931W        W78092   4.672  32.107   4.947
12932W        W78093  15.708  23.071  13.293
12933W        W78094  17.342  20.053   2.529
12934W        W78095  29.654  40.408   1.472
12935W        W78096  38.906  11.228   3.605
12936W        W78097  24.598  34.041   0.530
12937W        W78098  10.241  13.961   5.089
12938W        W78099  44.349  41.963  14.279
12939W        W78100  34.264  14.261   0.698
12940W        W78101  41.881  44.719  12.531
12941W        W78102  26.837  13.389   3.111
12942W        W78103  34.253  35.097  11.922
12943W        W78104   6.178  36.185   1.319
12944W        W78105  38.779   2.970   1.718
12945W        W78106  44.750   8.966   2.241
12946W        W78107   9.111   9.371   2.778
12947W        W78108  19.987   9.432   2.680
12948W        W78109   7.754  18.224  14.505
12949W        W78110  33.366  18.994   1.770
12950W        W78111  12.564  25.518   0.750
12951W        W78112  28.126   4.230   0.863
12952W        W78113  32.457  33.062  11.124
12953W        W78114  16.309   9.595   4.237
12954W        W78115   1.235   9.946  11.037
12955W        W78116  23.684  39.569  12.454
12956W        W78117   9.593   8.244   2.689
12957W        W78118  12.168   4.878  12.998
12958W        W78119   5.679  24.335   5.087
12959W        W78120  31.567  42.715  10.241
12960W        W78121  40.543  26.618   3.324
12961W        W78122  30.879  17.317   1.266
12962W        W78123  34.214  12.346  13.446
12963W        W78124  35.838   9.212  10.705
12964W        W78125  34.458   1.041   3.681
12965W        W78126  42.326  20.936  12.122
12966W        W78127  31.826  34.386  12.023
12967W        W78128   1.398   1.344  14.990
12968W        W78129   0.243  39.953  14.677
12969W        W78130  34.049  19.715   4.519
12970W        W78131  31.730  27.534  12.973
12971W        W78132  22.174  11.676  12.814
12972W        W78133  43.114  24.485   3.268
12973W        W78134  19.604  10.374   1.147
12974W        W78135  19.735   9.231   3.617
12975W        W78136   9.574  29.369  13.873
12976W        W78137  13.281   5.434  13.303
12977W        W78138  25.768  43.284   0.879
12978W        W78139   9.822  36.217  14.380
12979W        W78140  21.803  38.949   2.854
12980W        W78141  30.437  42.346  12.355
12981W        W78142   6.400  30.706  14.301
12982W        W78143   6.186  10.400  14.918
12983W        W78144  26.030  40.466   2.227
12984W        W78145  14.759  36.884  12.176
12985W        W78146  34.028  43.777  13.553
12986W        W78147   7.571  43.750   0.525
12987W        W78148  37.845  16.261  13.067
12988W        W78149  42.389  25.835   3.301
12989W        W78150  17.430   3.435   2.253
12990W        W78151  13.600  10.110  13.580
12991W        W78152  16.433  41.558   4.600
12992W        W78153  26.283  10.499  11.127
12993W        W78154  23.457  39.091  12.579
12994W        W78155  40.349  36.782  11.096
12995W        W78156  17.743  29.038   3.587
12996W        W78157  32.726   1.744  10.701
12997W        W78158  39.011  40.417  11.675
12998W        W78159  29.875  39.400  12.732
12999W        W78160  28.338  26.628   1.927
13000W        W78161  44.973  24.796   3.444
13001W        W78162  15.222  24.107  10.544
13002W        W78163  38.479   8.393   2.428
13003W        W78164   5.442  39.915  12.065
13004W        W78165  37.356  42.941   0.423
13005W        W78166  11.561  13.362  14.676
13006W        W78167  12.700  43.069  11.648
13007W        W78168  38.861   1.938   4.060
13008W        W78169   1.420  23.716  14.073
13009W        W78170  29.388  32.475  13.343
13010W        W78171  36.706  39.435   0.941
13011W        W78172  32.028  16.525   4.304
13012W        W78173  18.715  30.616  12.844
13013W        W78174   5.400   8.201   1.833
13014W        W78175   7.396  33.110   0.834
13015W        W78176   8.853   2.103  10.767
13016W        W78177  18.119  33.348  13.394
13017W        W78178  40.341  15.580   5.092
13018W        W78179   4.160  39.034   4.145
13019W        W78180  39.088  42.946  11.116
13020W        W78181  41.411  18.771  11.698
13021W        W78182  33.855  12.519   2.245
13022W        W78183  42.478  32.671   0.239
13023W        W78184   4.115  44.841  12.336
13024W        W78185  37.905   9.802  11.894
13025W        W78186  10.717  15.833  14.459
13026W        W78187  29.054  40.361   0.972
13027W        W78188  29.104  18.359  13.712
13028W        W78189  10.719  16.942  11.089
13029W        W78190  44.251  19.669  11.080
13030W        W78191   0.326  28.173  13.879
13031W        W78192  34.641  30.953  12.836
13032W        W78193  30.191  36.929  11.090
13033W        W78194   6.919  15.325   4.966
13034W        W78195  31.485  33.180   0.806
13035W        W78196  15.486   3.148   3.270
13036W        W78197  31.389  21.887   5.057
13037W        W78198  28.929  34.265  12.927
13038W        W78199  35.091  26.150  13.403
13039W        W78200  16.654  31.040   1.126
13040W        W78201  28.242  21.710  13.005
13041W        W78202  38.075  38.871  13.480
13042W        W78203  37.060  42.505   2.218
13043W        W78204  37.445  30.381   1.945
13044W        W78205   2.075  40.609  13.022
13045W        W78206  34.987  27.581  14.513
13046W        W78207  27.884  40.791   4.044
13047W        W78208   0.818  14.762  13.456
13048W        W78209  34.382  29.473   3.718
13049W        W78210  23.260  16.353  13.343
13050W        W78211  34.533  29.086  11.757
13051W        W78212  27.389  32.016  12.833
13052W        W78213  25.981  29.105   0.000
13053W        W78214  39.346   5.817  12.370
13054W        W78215  24.732  34.121   3.661
13055W        W78216   5.920  25.989  12.439
13056W        W78217  43.018  11.644  10.546
13057W        W78218  22.767  33.855  13.055
13058W        W78219  14.764  22.570   2.867
13059W        W78220  37.975  44.940  11.578
13060W        W78221   9.130  12.552  13.933
13061W        W78222   3.750  23.338  14.353
13062W        W78223  21.362  36.815  11.209
13063W        W78224  23.473   7.231   0.522
13064W        W78225  28.687   5.996   2.451
13065W        W78226  26.581  43.842  14.700
13066W        W78227  13.328  35.557  14.645
13067W        W78228  40.728  16.114  10.593
13068W        W78229   9.220  32.875  12.486
13069W        W78230  16.078  38.706  14.973
13070W        W78231  36.947  37.695   0.742
13071W        W78232  38.570  33.900  14.433
13072W        W78233  12.614  19.714   4.288
13073W        W78234  20.277  17.729  12.535
13074W        W78235  21.488   8.635   0.295
13075W        W78236  22.332  31.344  12.858
13076W        W78237  34.445  40.963   0.932
13077W        W78238   4.904   6.034  13.020
13078W        W78239   1.410  34.459   3.247
13079W        W78240   3.945  14.823  12.896
13080W        W78241  37.017  27.309  12.107
13081W        W78242  17.322   7.708   2.358
13082W        W78243  39.035   3.388  13.444
13083W        W78244  35.405  12.300  12.352
13084W        W78245  14.587  23.554  12.665
13085W        W78246  18.904  31.681   4.102
13086W        W78247  33.259  43.434   4.903
13087W        W78248  38.494  23.969   0.031
13088W        W78249  35.299   0.706   1.320
13089W        W78250  40.632   5.239   1.403
13090W        W78251   3.613   5.864  14.860
13091W        W78252  41.331  38.973  11.637
13092W        W78253  31.242  43.354  14.959
13093W        W78254   1.723  40.786  12.699
13094W        W78255  10.767   5.054   0.289
13095W        W78256   2.311  20.557   0.956
13096W        W78257  29.868  44.352  12.343
13097W        W78258  27.709  39.430  12.951
13098W        W78259  29.164  16.318  12.450
13099W        W78260  10.364  44.842   2.267
13100W        W78261  24.391   4.887  13.233
13101W        W78262  11.641  40.764   3.762
13102W        W78263   8.633  28.484   3.260
13103W        W78264  42.894  41.765   4.716
13104W        W78265  11.901   9.796  14.930
13105W        W78266  13.896  11.231  12.044
13106W        W78267  19.580   7.244  12.796
13107W        W78268  40.482  32.957  13.359
13108W        W78269  40.223  10.793   3.477
13109W        W78270  16.297  38.003  11.119
13110W        W78271  21.022  38.056   1.777
13111W        W78272  30.917  38.569  13.898
13112W        W78273  31.804  39.716   3.580
13113W        W78274  24.973  42.835  14.985
13114W        W78275  44.683  26.585   3.323
13115W        W78276   4.891  15.552   3.687
13116W        W78277  17.133  31.358  14.413
13117W        W78278   4.713  41.995   3.197
13118W        W78279  25.071  40.125  12.300
13119W        W78280  12.484  30.737  11.539
13120W        W78281  15.256  19.075   1.684
13121W        W78282   6.459  32.118   3.202
13122W        W78283  10.558  18.941  11.046
13123W        W78284  39.329  29.959   2.301
13124W        W78285  23.570  43.256  14.166
13125W        W78286   1.751  32.895   0.456
13126W        W78287  35.394  11.180   0.862
13127W        W78288  30.964  29.875   0.519
13128W        W78289  16.253  17.761  13.552
13129W        W78290  29.460  22.227  11.052
13130W        W78291  12.225   4.493   3.306
13131W        W78292  16.754   7.460  13.490
13132W        W78293   8.101  21.453  14.418
13133W        W78294  11.637  21.116   4.575
13134W        W78295  31.381  14.738  13.884
13135W        W78296  38.666  26.079  10.225
13136W        W78297  20.579  11.625  14.587
13137W        W78298  34.755  18.013  13.098
13138W        W78299  42.016   8.777  13.545
13139W        W78300  19.055  23.658  13.828
13140W        W78301  11.965  37.243   2.646
13141W        W78302   2.729  27.429  14.776
13142W        W78303  30.529  10.048  13.728
13143W        W78304  34.715  42.484   0.113
13144W        W78305  27.131  17.523  11.164
13145W        W78306  10.579   3.759   2.767
13146W        W78307  15.461  24.582   3.057
13147W        W78308  35.473   2.463  11.902
13148W        W78309  37.801  24.944  11.459
13149W        W78310   3.945  42.619   0.914
13150W        W78311   2.549  36.788   3.784
13151W        W78312  27.252  39.927  11.184
13152W        W78313   9.598  33.347  12.498
13153W        W78314  27.812   4.511  12.106
13154W        W78315   8.941  18.217   0.857
13155W        W78316  39.941   1.902  14.571
13156W        W78317  32.648  23.604  12.017
13157W        W78318   5.765   4.875   2.106
13158W        W78319   0.680  23.234  11.611
13159W        W78320   1.729   6.454  11.002
13160W        W78321  21.014  22.527   1.807
13161W        W78322  10.778  29.643   3.340
13162W        W78323  28.663  18.478  11.144
13163W        W78324  39.205  28.138   3.358
13164W        W78325  33.698   2.246   0.318
13165W        W78326   3.351  15.267  10.919
13166W        W78327   9.064  10.348  13.963
13167W        W78328  12.945  28.677   0.012
13168W        W78329  30.175  27.465   3.196
13169W        W78330  30.410  23.684   1.747
13170W        W78331  10.469   7.089  11.672
13171W        W78332  31.188  11.387  12.049
13172W        W78333  12.352  43.585   3.931
13173W        W78334  15.386   6.653  13.045
13174W        W78335  31.415   7.962  13.584
13175W        W78336  28.664  15.689   4.615
13176W        W78337   9.821  40.002   0.927
13177W        W78338  42.350  18.089   1.349
13178W        W78339  32.117   1.344   1.313
13179W        W78340  35.214  18.300  13.072
13180W        W78341  13.512   4.763   0.269
13181W        W78342   2.348  32.553  13.863
13182W        W78343   9.884  36.561  13.478
13183W        W78344  27.043  20.537   4.171
13184W        W78345  15.617  19.942  14.398
13185W        W78346  40.566   5.133   0.867
13186W        W78347   3.358  10.768  14.793
13187W        W78348  13.301  18.545  13.816
13188W        W78349   8.293  38.787   4.442
13189W        W78350  23.193  32.553  13.370
13190W        W78351  42.550  40.827  12.868
13191W        W78352  40.595   8.675   1.818
13192W        W78353  12.792  39.810  13.837
13193W        W78354  35.066  35.854   2.820
13194W        W78355  20.658  11.319  14.170
13195W        W78356  42.026   4.355  13.037
13196W        W78357  17.837  23.246   2.275
13197W        W78358  30.377  44.866   1.373
13198W        W78359  17.681  40.062  11.762
13199W        W78360  34.108  27.796  10.892
13200W        W78361  12.966  29.052   5.002
13201W        W78362  35.979   5.264   1.325
13202W        W78363  38.512   3.531   0.562
13203W        W78364  22.579  33.345  14.375
13204W        W78365  22.731  38.872  13.608
13205W        W78366  18.368  42.004  14.823
13206W        W78367  16.240   8.362   3.265
13207W        W78368   1.312   6.392  13.567
13208W        W78369  14.713  33.047   2.428
13209W        W78370   4.277  22.623   0.948
13210W        W78371  20.236  32.078   5.081
13211W        W78372  25.191  35.057  10.523
13212W        W78373  14.600  39.602  13.012
13213W        W78374  11.730  33.842  12.668
13214W        W78375  19.621  31.450   2.322
13215W        W78376  33.465  44.915  12.743
13216W        W78377  10.818  36.500  11.613
13217W        W78378   9.374  41.215  13.112
13218W        W78379  16.758   7.156   2.672
13219W        W78380  36.816  44.941  14.022
13220W        W78381  28.030  19.678  14.397
13221W        W78382  26.256  13.702   3.814
13222W        W78383   6.595  30.946  14.981
13223W        W78384   2.658  11.929  14.928
13224W        W78385  30.947   0.046  13.906
13225W        W78386  28.054  37.010   2.413
13226W        W78387  43.032  13.387   2.298
13227W        W78388   7.681  26.489  12.446
13228W        W78389  16.755  14.016  13.806
13229W        W78390  38.868  35.052  10.786
13230W        W78391  30.507  14.124  10.579
13231W        W78392  18.007  15.335   2.691
13232W        W78393  36.415  24.273  14.260
13233W        W78394  10.824   6.883  11.966
13234W        W78395  23.754  34.300   3.783
13235W        W78396   7.669  41.695   2.194
13236W        W78397   6.311  14.923   3.917
13237W        W78398   9.509  26.445  11.114
13238W        W78399  41.871  31.621  11.377
13239W        W78400  11.499  34.566  14.353
13240W        W78401  36.627  40.978  13.834
13241W        W78402  22.356  44.960  13.407
13242W        W78403   9.264  15.339   2.873
13243W        W78404  11.574  25.119  13.366
13244W        W78405  40.202  18.476  13.931
13245W        W78406  40.697  44.009   0.030
13246W        W78407  25.676  14.625   1.820
13247W        W78408  27.060  29.542   2.866
13248W        W78409  38.596  43.009   0.352
13249W        W78410   6.444  39.321  14.447
13250W        W78411  20.040  20.912   3.500
13251W        W78412  14.322  42.822   3.408
13252W        W78413  20.613   3.819   2.257
13253W        W78414  19.067  35.170  12.446
13254W        W78415  39.318  24.768  12.074
13255W        W78416  11.751  10.712  14.466
13256W        W78417  26.020   2.609  10.671
13257W        W78418  16.767   8.815   4.144
13258W        W78419  22.784   0.327  11.180
13259W        W78420  23.539  10.558   1.521
13260W        W78421  11.147   3.898  11.091
13261W        W78422  30.959   2.911  13.871
13262W        W78423  43.457   8.723   3.212
13263W        W78424  19.536  44.082   1.143
13264W        W78425  22.621   0.949   1.864
13265W        W78426  34.653  25.098  12.489
13266W        W78427  42.493   7.390   2.181
13267W        W78428   3.178   7.902  11.411
13268W        W78429  44.722   6.898  14.018
13269W        W78430  29.438  34.900   1.338
13270W        W78431  16.226  13.117  10.687
13271W        W78432  35.610  36.646  13.510
13272W        W78433  19.479  34.963  14.717
13273W        W78434  17.077  40.543  14.854
13274W        W78435  31.228  27.513   3.088
13275W        W78436  41.446  24.176   4.413
13276W        W78437  24.007  35.431  14.047
13277W        W78438  30.165  34.855  14.407
13278W        W78439   1.885  42.080   0.027
13279W        W78440  18.032  26.120   3.655
13280W        W78441   0.041  41.888  13.803
13281W        W78442   1.957   3.692  12.935
13282W        W78443  16.116  13.257   3.642
13283W        W78444  18.585  23.907   0.912
13284W        W78445  44.801  43.515  14.954
13285W        W78446  11.729  16.899  11.079
13286W        W78447  13.361  14.617   3.090
13287W        W78448  26.264   4.625   1.059
13288W        W78449   5.231  20.198  12.598
13289W        W78450  33.190  12.410  13.457
13290W        W78451  10.764  35.044  12.090
13291W        W78452  10.218  21.944   0.381
13292W        W78453   2.441   0.194  11.484
13293W        W78454  18.622  41.934  14.378
13294W        W78455  38.979  36.917  12.165
13295W        W78456  17.633  25.605   4.934
13296W        W78457  27.817  40.591  11.068
13297W        W78458   6.822  17.136  11.462
13298W        W78459  30.677  23.498  14.435
13299W        W78460  28.882  29.463  14.752
13300W        W78461  17.722  14.151  14.047
13301W        W78462  11.635  43.611  13.249
13302W        W78463  19.823  14.236   3.649
13303W        W78464  33.910  13.997  12.877
13304W        W78465  15.720   7.380   1.217
13305W        W78466   4.018  15.271  11.607
13306W        W78467  10.252   3.217  10.912
13307W        W78468  15.102   7.763   1.785
13308W        W78469  39.989  38.060  12.041
13309W        W78470  21.199  11.192   2.678
13310W        W78471  42.988  30.655  14.322
13311W        W78472  19.776  27.706  10.682
13312W        W78473  30.542  35.871   0.789
13313W        W78474   9.348  26.257   4.532
13314W        W78475  14.039  31.956   5.009
13315W        W78476  16.776   5.126   2.756
13316W        W78477  42.359  11.760  10.044
13317W        W78478  15.812  28.897  12.029
13318W        W78479  41.061  44.453  11.072
13319W        W78480  12.308   4.862   0.639
13320W        W78481  42.465   6.336   0.306
13321W        W78482  39.088   9.646  14.122
13322W        W78483  20.703   3.231  14.430
13323W        W78484  36.171  30.240   3.231
13324W        W78485  44.254  36.591  12.967
13325W        W78486  34.149   5.232   3.652
13326W        W78487   4.742  22.547   4.412
13327W        W78488   8.095  43.926   1.260
13328W        W78489  37.815  36.490  13.034
13329W        W78490   9.372  21.645   3.584
13330W        W78491  18.810  33.992  11.578
13331W        W78492  42.673   6.240   1.840
13332W        W78493  14.296  40.062   1.467
13333W        W78494  14.288  44.031  12.801
13334W        W78495  12.910  16.682  14.512
13335W        W78496  12.300  26.442  12.494
13336W        W78497  40.405  38.548   1.509
13337W        W78498  14.647  38.062   3.695
13338W        W78499  26.073  31.531  14.880
13339W        W78500   8.633   8.778  14.717
13340W        W78501   2.547   3.384  14.358
13341W        W78502  41.116  13.319  10.688
13342W        W78503  43.299  24.679   4.603
13343W        W78504  11.729  16.553  14.057
13344W        W78505  37.075   8.851  13.519
13345W        W78506  14.774  36.341   4.556
13346W        W78507  41.797  12.142   3.375
13347W        W78508  34.656   5.864   2.161
13348W        W78509   8.128   7.484  10.711
13349W        W78510  30.956  12.745   0.285
13350W        W78511  10.338  40.322   4.791
13351W        W78512  31.874  13.381  14.143
13352W        W78513  28.098  29.188   0.706
13353W        W78514  43.304   3.899   4.143
13354W        W78515  22.407  41.429  10.999
13355W        W78516  23.413  21.228   2.191
13356W        W78517   9.108  39.296   1.985
13357W        W78518  12.646  11.550  10.713
13358W        W78519   4.922  41.957   4.067
13359W        W78520  30.614  40.505  12.497
13360W        W78521  44.580  28.812   4.056
13361W        W78522  17.006  20.816  14.731
13362W        W78523  16.686  19.031  13.072
13363W        W78524  36.945  40.249   4.434
13364W        W78525  40.832   7.777   4.248
13365W        W78526  42.054  15.694  11.670
13366W        W78527   8.648  13.860  11.964
13367W        W78528  13.395  18.174  14.315
13368W        W78529  40.732  11.716   0.927
13369W        W78530  44.672  36.905  13.083
13370W        W78531   6.638  23.051  12.806
13371W        W78532  41.515   8.571   5.164
13372W        W78533  36.465  24.996   0.217
13373W        W78534  34.074  14.174  11.546
13374W        W78535  40.930  31.142  11.594
13375W        W78536  40.352  43.560   0.733
13376W        W78537  36.850  17.313  13.464
13377W        W78538  32.955  21.249  14.257
13378W        W78539  37.318  20.531  13.897
13379W        W78540  42.263   1.014  13.897
13380W        W78541   6.281  28.609   0.546
13381W        W78542  31.468  21.170  13.929
13382W        W78543  23.977  44.935   0.324
13383W        W78544  26.173   0.123   3.354
13384W        W78545  24.043   2.667   4.522
13385W        W78546   1.300  24.019  13.421
13386W        W78547  23.146  24.763   2.351
13387W        W78548  37.485  15.250  14.762
13388W        W78549   4.471   8.704   0.850
13389W        W78550  29.535   4.717   4.283
13390W        W78551  34.742  12.227   2.256
13391W        W78552  41.007  14.170   4.896
13392W        W78553  15.510  19.112  14.887
13393W        W78554  20.166  26.675  12.089
13394W        W78555  34.862  31.103   3.734
13395W        W78556  18.806  12.770  11.258
13396W        W78557   0.007  39.202   0.493
13397W        W78558  36.605   5.425   0.846
13398W        W78559   1.423  20.500   3.646
13399W        W78560  18.553  26.686  11.663
13400W        W78561  27.648  20.388   3.775
13401W        W78562  29.841  21.589  12.429
13402W        W78563  32.619  10.659   4.183
13403W        W78564  38.228  31.161  12.566
13404W        W78565   6.887  31.031   0.402
13405W        W78566  16.567  35.581   1.509
13406W        W78567  26.649  18.157   4.629
13407W        W78568  32.353  15.791  11.971
13408W        W78569  37.301  28.216   0.109
13409W        W78570  12.797   1.281  13.419
13410W        W78571   1.274  13.650  13.025
13411W        W78572  40.103   5.804   4.753
13412W        W78573   1.404  29.617  14.503
13413W        W78574  30.915  31.185   2.288
13414W        W78575  27.226  17.126   0.859
13415W        W78576  17.092  25.815  11.272
13416W        W78577  14.822  24.222   2.274
13417W        W78578  11.891  31.465  12.058
13418W        W78579  25.822  10.718  11.191
13419W        W78580  17.273  31.577  14.979
13420W        W78581   1.242  16.003   3.381
13421W        W78582   0.463  20.081  10.397
13422W        W78583  30.885  15.859  11.599
13423W        W78584  24.299  38.106   0.551
13424W        W78585  12.031   5.694  11.564
13425W        W78586   9.368  34.742  12.404
13426W        W78587  29.048  44.370   0.181
13427W        W78588  43.223   1.050   3.811
13428W        W78589  34.385  24.919  11.025
13429W        W78590  10.393  17.133  14.006
13430W        W78591   9.768  15.128   4.676
13431W        W78592  42.280  12.214   3.561
13432W        W78593  37.286  33.496  14.370
13433W        W78594  42.096   8.633   3.168
13434W        W78595  38.437  17.534   3.136
13435W        W78596  36.335  18.126   2.882
13436W        W78597  12.533   3.779   0.348
13437W        W78598   4.814  10.566  14.932
13438W        W78599  43.962  38.108   1.381
13439W        W78600  14.920  26.978   3.438
13440W        W78601  34.070   9.672   0.511
13441W        W78602   6.661  41.513   3.874
13442W        W78603  26.178   4.389  13.805
13443W        W78604  34.054  12.750  14.372
13444W        W78605  25.205  44.912   0.793
13445W        W78606  12.149  30.792   0.690
13446W        W78607   5.149  34.064  11.530
13447W        W78608  36.345  19.685   4.942
13448W        W78609  13.320  25.461  10.745
13449W        W78610  11.647   9.349  12.703
13450W        W78611  36.315  22.026  12.380
13451W        W78612  23.927  28.104   4.746
13452W        W78613  14.559  36.982  13.068
13453W        W78614  34.527  41.724   0.337
13454W        W78615  30.094  14.338   4.395
13455W        W78616   5.219  25.829  14.122
13456W        W78617  24.852  18.184   2.261
13457W        W78618  10.070  29.796  11.506
13458W        W78619  33.047  25.623   3.270
13459W        W78620  16.058  29.021  13.975
13460W        W78621  42.873  13.932  12.912
13461W        W78622  22.603  16.769  13.989
13462W        W78623  32.403   1.221   1.902
13463W        W78624  23.277  28.489  12.847
13464W        W78625  30.466  37.385   3.631
13465W        W78626   7.360   9.405   3.289
13466W        W78627  39.896  35.932   2.631
13467W        W78628  24.088  30.086  12.381
13468W        W78629   4.201  35.892  14.296
13469W        W78630  29.830  11.206  12.685
13470W        W78631  18.254  18.829   3.961
13471W        W78632  27.082   9.250   3.350
13472W        W78633   0.221  12.203   1.779
13473W        W78634  30.667   3.271  13.492
13474W        W78635  37.104   0.038  12.630
13475W        W78636  36.065   0.836  13.375
13476W        W78637  16.550  20.054  14.460
13477W        W78638  22.882  25.550  12.374
13478W        W78639  16.059  20.679  14.983
13479W        W78640   8.938  27.012   5.266
13480W        W78641  26.562  38.684  12.620
13481W        W78642  40.764   3.476   2.943
13482W        W78643   1.130   0.854   4.957
13483W        W78644  17.807  42.591  13.502
13484W        W78645  10.626  30.696  13.092
13485W        W78646  39.798  44.001   1.910
13486W        W78647  34.832  19.596  11.619
13487W        W78648  41.252   8.969   2.773
13488W        W78649   9.907   5.426  11.964
13489W        W78650  17.008  12.669  13.005
13490W        W78651  25.004   7.831  13.593
13491W        W78652   5.864  32.940  12.492
13492W        W78653  10.653   1.515  12.935
13493W        W78654  39.797  10.840   2.866
13494W        W78655  12.971  21.110  13.269
13495W        W78656  41.937  43.751  14.920
13496W        W78657  38.881  11.153  14.869
13497W        W78658   4.341  43.464   3.753
13498W        W78659  10.430   7.108  10.901
13499W        W78660   3.276  43.788  12.081
13500W        W78661  16.697  37.175   2.395
13501W        W78662  19.113  31.606  13.979
13502W        W78663  31.627  11.631   1.877
13503W        W78664   6.174  31.976  13.782
13504W        W78665   5.418  20.859   4.633
13505W        W78666  29.123  37.735   3.749
13506W        W78667  28.671  34.922   4.490
13507W        W78668   7.816   6.878  13.750
13508W        W78669   0.195  26.949  14.341
13509W        W78670  16.405  16.791   0.933
13510W        W78671  40.962   2.908   4.544
13511W        W78672  32.247  43.938   3.902
13512W        W78673  22.509  33.974  13.884
13513W        W78674  12.138  22.833  11.149
13514W        W78675   3.488  41.315  11.105
13515W        W78676  22.990  28.343   1.707
13516W        W78677  27.047  18.665   4.039
13517W        W78678   9.447   1.959  14.342
13518W        W78679   0.942  10.834   0.967
13519W        W78680  36.277  36.982   0.751
13520W        W78681  19.457  22.133   2.365
13521W        W78682   3.797  38.460  14.328
13522W        W78683  31.918  40.432   4.632
13523W        W78684  23.828  12.745   2.799
13524W        W78685  34.383  35.916  14.964
13525W        W78686  31.215   9.103  11.933
13526W        W78687  34.330  31.125  12.392
13527W        W78688  19.033  35.814  14.666
13528W        W78689   8.862   1.018  13.683
13529W        W78690  19.770   1.756  13.893
13530W        W78691   5.916  34.906  12.424
13531W        W78692  15.061  10.517   1.585
13532W        W78693  26.353   0.504  13.117
13533W        W78694  42.855   9.617   4.812
13534W        W78695   3.721  42.760   1.845
13535W        W78696  41.511  19.597   4.808
13536W        W78697  38.883   6.992   1.353
13537W        W78698  16.859  34.490  14.850
13538W        W78699  36.793  42.038   2.352
13539W        W78700  13.897  27.070  10.939
13540W        W78701  31.506  19.322   4.511
13541W        W78702  15.083  44.070  14.392
13542W        W78703  27.665  19.560   0.288
13543W        W78704  25.274   2.446   0.422
13544W        W78705   0.171  40.495  11.060
13545W        W78706  42.809  27.620  13.839
13546W        W78707   9.099  28.137  12.471
13547W        W78708  33.834   3.379   2.168
13548W        W78709  22.451  43.969   1.732
13549W        W78710   5.779  42.068  11.613
13550W        W78711  36.802  26.977   4.049
13551W        W78712  35.102  43.502  10.674
13552W        W78713  16.372  25.664   4.325
13553W        W78714  44.996  17.575  13.842
13554W        W78715  31.303  12.625  13.146
13555W        W78716  43.019   5.673  13.455
13556W        W78717  31.589  24.946  14.540
13557W        W78718  12.135   6.423   0.392
13558W        W78719  28.030  41.843  13.480
13559W        W78720  31.168  28.502   0.900
13560W        W78721   6.838   6.286  10.783
13561W        W78722  15.312  18.460  11.012
13562W        W78723  21.455  26.612  13.871
13563W        W78724  14.137  13.390  14.418
13564W        W78725  21.804   8.077   2.203
13565W        W78726   4.291  36.986  14.719
13566W        W78727   7.920  24.413   4.255
13567W        W78728   7.932  29.217  10.464
13568W        W78729  15.852  18.597   2.345
13569W        W78730  24.150   3.709  12.985
13570W        W78731  42.405  29.901   0.908
13571W        W78732  33.080   1.405   1.224
13572W        W78733  44.462   8.462  11.984
13573W        W78734  25.293  11.341   0.456
13574W        W78735  17.030  28.394   1.277
13575W        W78736  20.745   3.988   2.726
13576W        W78737  16.694  20.292  10.211
13577W        W78738  11.333  41.539   2.241
13578W        W78739  42.420  26.228  12.508
13579W        W78740   0.388  15.197  12.136
13580W        W78741  41.253   5.042   4.612
13581W        W78742   7.169  29.401   1.441
13582W        W78743  38.029  33.657   0.627
13583W        W78744  23.001  31.630  13.919
13584W        W78745  34.976  29.604   4.353
13585W        W78746  22.763  25.425  13.275
13586W        W78747  20.056   0.940   1.808
13587W        W78748   8.187  37.093  13.668
13588W        W78749   6.645  33.630  13.831
13589W        W78750   5.014  10.204   4.213
13590W        W78751  14.795  37.066   0.528
13591W        W78752  42.999  25.700  12.030
13592W        W78753  16.687  44.827   1.746
13593W        W78754   5.349   6.422   3.642
13594W        W78755  16.572  11.671  14.245
13595W        W78756  16.414  33.631  11.875
13596W        W78757  12.955   6.455   0.878
13597W        W78758  20.260  33.386   4.123
13598W        W78759  21.543  27.753  14.051
13599W        W78760  15.321  15.724  13.427
13600W        W78761   0.807  31.578   3.370
13601W        W78762   1.909  31.403   4.679
13602W        W78763   4.746   7.282   1.524
13603W        W78764  19.680  34.047   0.285
13604W        W78765  43.654  29.495   0.559
13605W        W78766   2.167  12.090  14.363
13606W        W78767  27.005  10.006   3.661
13607W        W78768  42.806  27.519  13.326
13608W        W78769  19.223  37.159  12.509
13609W        W78770  43.485  17.582   0.132
13610W        W78771  29.077  31.960  10.660
13611W        W78772  17.730  44.115  13.344
13612W        W78773  16.753  14.318   1.403
13613W        W78774  41.335  40.277  12.543
13614W        W78775   3.977  35.753  10.766
13615W        W78776  36.818   1.730   0.284
13616W        W78777  42.890  39.776  12.041
13617W        W78778   2.211  32.938  11.624
13618W        W78779  38.467  10.286  14.405
13619W        W78780  10.499  13.774  12.326
13620W        W78781  37.380   8.422  13.323
13621W        W78782  41.739  22.683   4.611
13622W        W78783  14.391   8.764  14.916
13623W        W78784  22.454   2.335  10.600
13624W        W78785  33.737  40.937   0.220
13625W        W78786   0.444   1.690   3.160
13626W        W78787  33.394  36.575   1.649
13627W        W78788   4.340   4.479  12.963
13628W        W78789  30.346  36.495  11.296
13629W        W78790  24.935  36.898  10.253
13630W        W78791  15.204   3.378  13.110
13631W        W78792  37.468  18.305   1.802
13632W        W78793  13.966  16.047  13.905
13633W        W78794  33.924  30.679   3.347
13634W        W78795  13.087  29.675  10.785
13635W        W78796  29.486  40.771   9.739
13636W        W78797  35.378  42.606  10.983
13637W        W78798  41.882  21.733   0.445
13638W        W78799  30.355  17.575   0.941
13639W        W78800   4.292  43.409   4.635
13640W        W78801  22.144  39.167   4.995
13641W        W78802  43.987   9.671   0.391
13642W        W78803  26.698   9.221  11.510
13643W        W78804   6.920   3.161  11.944
13644W        W78805  26.499  34.152   0.590
13645W        W78806  24.570  31.181   3.591
13646W        W78807   7.767  15.535  10.065
13647W        W78808  24.468  22.661  12.918
13648W        W78809  26.225  37.829  12.572
13649W        W78810  27.916  34.567   4.596
13650W        W78811  28.007  20.212  14.452
13651W        W78812  44.799   4.695   1.792
13652W        W78813  21.247  14.468   5.447
13653W        W78814  21.994  33.178   0.385
13654W        W78815   4.432  31.647  11.811
13655W        W78816  29.941   9.401  10.721
13656W        W78817  28.994   7.569  12.025
13657W        W78818  43.340  33.630   4.142
13658W        W78819  28.717  30.949   2.032
13659W        W78820  44.844   0.912   0.680
13660W        W78821   0.840  42.324   1.923
13661W        W78822  18.540   5.916   0.373
13662W        W78823  35.845  14.606  11.586
13663W        W78824   5.174  26.224  14.470
13664W        W78825  29.981  39.986  14.480
13665W        W78826  14.542   5.106   4.284
13666W        W78827   9.848   2.250  11.667
13667W        W78828  13.286   1.230  12.509
13668W        W78829  42.549  23.567  12.095
13669W        W78830  44.796   7.150   2.691
13670W        W78831  18.270  19.021   2.736
13671W        W78832  11.379  26.525   2.378
13672W        W78833  29.188  10.719   0.360
13673W        W78834  21.226  17.711  11.206
13674W        W78835  34.702  43.515   0.750
13675W        W78836   0.752   0.333   4.207
13676W        W78837   8.263   4.385  12.482
13677W        W78838  24.425  23.165  11.157
13678W        W78839   7.942  31.387  14.262
13679W        W78840  34.831   3.813   0.862
13680W        W78841  30.706  35.594   1.187
13681W        W78842   3.664  27.562   1.704
13682W        W78843   2.639  44.708  12.222
13683W        W78844  14.699  25.812  13.393
13684W        W78845  41.175  12.889  12.445
13685W        W78846   7.300  30.819  12.983
13686W        W78847  35.833  43.032   1.484
13687W        W78848  12.325  13.153   2.681
13688W        W78849  43.422  30.479   4.500
13689W        W78850  41.809   5.736   0.734
13690W        W78851  33.865  20.760   2.366
13691W        W78852  18.743   0.841  11.146
13692W        W78853  12.482  20.952  13.466
13693W        W78854  22.532  10.088   4.425
13694W        W78855  24.203  28.250   1.296
13695W        W78856   7.011  36.856  14.434
13696W        W78857  42.954  34.826   1.325
13697W        W78858  21.080   9.771  13.866
13698W        W78859  28.433  23.009   2.243
13699W        W78860  15.096  25.647   1.857
13700W        W78861  37.037  39.756  14.348
13701W        W78862   0.446   9.526   1.187
13702W        W78863   2.016  42.497   3.473
13703W        W78864   1.642  14.202  14.391
13704W        W78865  36.723   8.670   2.788
13705W        W78866  26.531  26.023  14.497
13706W        W78867  37.492  27.955  10.639
13707W        W78868  32.854  20.760  12.545
13708W        W78869   7.730  35.899  10.034
13709W        W78870  22.634  15.175   4.988
13710W        W78871  34.204  21.652  10.871
13711W        W78872  17.719   8.499  11.672
13712W        W78873  44.441  43.388  12.143
13713W        W78874  31.864   9.420   5.210
13714W        W78875  12.609  32.042   4.518
13715W        W78876  21.119  40.095   0.685
13716W        W78877  12.637  22.716  11.188
13717W        W78878   1.010  13.140  12.185
13718W        W78879   3.489   5.919   3.790
13719W        W78880  24.868   5.041  13.977
13720W        W78881  17.135  28.105  13.043
13721W        W78882  40.151  40.368  13.363
13722W        W78883  14.773   6.201  12.014
13723W        W78884  16.093  10.385   0.391
13724W        W78885  31.464  30.528  10.506
13725W        W78886  19.081  38.516   3.227
13726W        W78887  32.336  18.310   1.647
13727W        W78888  29.537   2.407  11.651
13728W        W78889  17.649  19.677  12.210
13729W        W78890  34.244  27.621  10.436
13730W        W78891  12.465  43.204  11.164
13731W        W78892   2.753  25.570   2.475
13732W        W78893  33.402  44.523  14.497
13733W        W78894   4.646  43.379   2.867
13734W        W78895  12.803  39.202  11.086
13735W        W78896  43.924  19.055   1.438
13736W        W78897  22.404  24.171  10.679
13737W        W78898  39.005   9.145   5.150
13738W        W78899  27.889  11.585  12.365
13739W        W78900  14.610   4.034  14.872
13740W        W78901  35.663  15.081  13.740
13741W        W78902  10.827  41.381  11.598
13742W        W78903   4.355  12.518   0.112
13743W        W78904  22.153  40.331   2.265
13744W        W78905  11.331   1.946  12.483
13745W        W78906  35.683  43.933   3.613
13746W        W78907   5.198   4.174   0.713
13747W        W78908  32.989  41.732   3.665
13748W        W78909  19.364  26.233   1.784
13749W        W78910  41.383  27.858  11.963
13750W        W78911  30.121  14.315  14.390
13751W        W78912  17.756  14.609   1.758
13752W        W78913  15.709  37.891  14.928
13753W        W78914  10.740  22.644  12.555
13754W        W78915  33.881  31.432  12.428
13755W        W78916   5.968  34.893  14.916
13756W        W78917  12.759  25.282   1.367
13757W        W78918  37.152  41.885  11.085
13758W        W78919  43.319  43.449  12.367
13759W        W78920  42.923  37.989  13.015
13760W        W78921  25.646   8.172  12.039
13761W        W78922  18.767   3.796   0.252
13762W        W78923   1.855  32.418   1.923
13763W        W78924  38.617  25.596  12.908
13764W        W78925  38.658   4.425   3.733
13765W        W78926  13.148  36.935   1.248
13766W        W78927  29.609  22.454   3.297
13767W        W78928  16.293  15.573   0.214
13768W        W78929  43.568  19.079   3.833
13769W        W78930  34.983  27.639   2.321
13770W        W78931   2.255  40.355   4.811
13771W        W78932  44.618  21.181   3.603
13772W        W78933  38.893  30.382   4.987
13773W        W78934  15.100  14.537   1.099
13774W        W78935  24.106  26.077  10.279
13775W        W78936   9.830   0.318   4.571
13776W        W78937  20.719  11.329  11.165
13777W        W78938  34.691   2.125   2.226
13778W        W78939  28.863   0.464   1.415
13779W        W78940   0.177  23.919  12.939
13780W        W78941  35.105  14.127  11.717
13781W        W78942  44.232  26.749  14.536
13782W        W78943  40.065  16.748  10.714
13783W        W78944  18.979  42.461  12.441
13784W        W78945   7.134  20.748   4.839
13785W        W78946  11.432  42.460  11.272
13786W        W78947  34.377  38.461  13.010
13787W        W78948  37.572   4.694   1.839
13788W        W78949  20.907  30.966   2.298
13789W        W78950  34.571  41.438  13.718
13790W        W78951  13.940  25.464  12.626
13791W        W78952   5.268  12.723   0.171
13792W        W78953   7.917  14.775   1.858
13793W        W78954  10.266  17.526  14.786
13794W        W78955   3.040   9.758   3.897
13795W        W78956   8.284   5.485  14.960
13796W        W78957  15.223  28.976   2.173
13797W        W78958   1.338  26.712  10.689
13798W        W78959  15.955  16.076  13.950
13799W        W78960  27.018  25.199   1.933
13800W        W78961  34.844  23.984   0.153
13801W        W78962   3.755   4.897   3.211
13802W        W78963  14.204  44.431   4.880
13803W        W78964  29.514  16.367  12.083
13804W        W78965   3.184  38.801  14.873
13805W        W78966  18.246  42.785  13.753
13806W        W78967  13.623  42.897  10.567
13807W        W78968  35.337  37.146   2.846
13808W        W78969  38.876  39.301   2.669
13809W        W78970   0.765  29.182   3.845
13810W        W78971  26.041  30.891  10.663
13811W        W78972  39.104   4.177   0.550
13812W        W78973  17.695  36.104   4.124
13813W        W78974   2.180  24.513   3.181
13814W        W78975   5.249  39.401   2.838
13815W        W78976   1.485   4.145   4.366
13816W        W78977  16.106  36.064   2.743
13817W        W78978  14.154   5.914   3.314
13818W        W78979  26.929  40.994   4.195
13819W        W78980  27.131  24.238   3.577
13820W        W78981   4.629   8.173  11.040
13821W        W78982  18.877  11.174  13.984
13822W        W78983   1.552  37.927   4.720
13823W        W78984  23.947  35.019  10.709
13824W        W78985  33.375   5.398   3.498
13825W        W78986  24.203  41.507  11.614
13826W        W78987  31.481  18.591  14.492
13827W        W78988  19.706  11.951   5.196
13828W        W78989  22.468  39.422  11.199
13829W        W78990  44.152  24.265   5.073
13830W        W78991  27.626  33.928   1.702
13831W        W78992   4.470  39.033   0.336
13832W        W78993   5.162  37.340   3.075
13833W        W78994  22.518   4.185   3.188
13834W        W78995  12.704  24.905  11.514
13835W        W78996  38.402  40.906   0.064
13836W        W78997  13.284  26.265  14.349
13837W        W78998  13.200  33.472   1.486
13838W        W78999  44.930  19.045   1.427
13839W        W79000  12.707  23.361  13.335
13840W        W79001  16.516  31.296   1.547
13841W        W79002  15.093  36.831  13.175
13842W        W79003  37.600   2.787  11.159
13843W        W79004  36.614  27.258  12.624
13844W        W79005   8.762  18.178  13.628
13845W        W79006  31.424  25.919   0.282
13846W        W79007  37.874  38.504   3.597
13847W        W79008   0.525   7.183   4.760
13848W        W79009  24.085  22.794  13.248
13849W        W79010   9.021   1.653  11.624
13850W        W79011  32.544  40.609  11.470
13851W        W79012  18.831   1.363  13.918
13852W        W79013  14.769  21.992   3.193
13853W        W79014  10.332   5.312  14.454
13854W        W79015  25.098  24.139  14.571
13855W        W79016  33.504  34.009   0.933
13856W        W79017  22.440  30.969  14.342
13857W        W79018   1.854  33.689  13.662
13858W        W79019  33.689   5.833   4.676
13859W        W79020  29.872  44.339  11.479
13860W        W79021  22.247  36.539   2.851
13861W        W79022  20.251   2.660   2.158
13862W        W79023  41.476  35.803  11.588
13863W        W79024   8.970  29.717  11.176
13864W        W79025  37.326   2.795   4.152
13865W        W79026  18.182  11.159   4.134
13866W        W79027   4.262   7.120   0.798
13867W        W79028  33.950  44.294  14.685
13868W        W79029  10.124  29.344   5.142
13869W        W79030  43.237  34.843   4.688
13870W        W79031   5.419   4.897  12.041
13871W        W79032  36.360   6.604   4.081
13872W        W79033  32.153   5.719  10.617
13873W        W79034  26.108  33.592  11.923
13874W        W79035  43.186  33.570   2.344
13875W        W79036   8.770  24.146   0.729
13876W        W79037  24.072   4.232  11.202
13877W        W79038  23.440  18.137  13.043
13878W        W79039  26.983  43.213  13.974
13879W        W79040  26.494   8.737   3.858
13880W        W79041  13.141   8.761   1.705
13881W        W79042  24.507   9.902   2.890
13882W        W79043  34.130   0.232  11.568
13883W        W79044   5.914  24.645  12.992
13884W        W79045  31.506   2.226  14.243
13885W        W79046  15.714   3.354  14.420
13886W        W79047  22.073  44.092   2.850
13887W        W79048  10.383   5.769   4.311
13888W        W79049  12.876  35.877   3.745
13889W        W79050  30.153  14.980  13.531
13890W        W79051  30.036  20.991  13.739
13891W        W79052  43.721  17.501  14.677
13892W        W79053   5.176  16.376  12.930
13893W        W79054  22.171   6.765   0.734
13894W        W79055  30.185  43.086  14.484
13895W        W79056  19.171   9.605   0.165
13896W        W79057   0.118  12.347   2.967
13897W        W79058  21.619  10.218  12.457
13898W        W79059  28.916  44.903  13.361
13899W        W79060  19.756   7.381  10.733
13900W        W79061  14.049  10.960   2.794
13901W        W79062   1.516  15.246   2.660
13902W        W79063  28.433  28.642   3.870
13903W        W79064  30.460  41.162   9.811
13904W        W79065  38.169  25.386  10.816
13905W        W79066  23.511  14.756   1.275
13906W        W79067  30.418  12.543  14.015
13907W        W79068  13.250  24.209   0.578
13908W        W79069  13.754  19.761  13.927
13909W        W79070   1.909  21.022  13.308
13910W        W79071  40.622  36.346   2.345
13911W        W79072  25.756  13.839  11.201
13912W        W79073   1.674  13.304  14.497
13913W        W79074   9.355  29.477   4.007
13914W        W79075   2.084  24.355   4.512
13915W        W79076  37.064  27.967  12.938
13916W        W79077  37.881   7.757   0.774
13917W        W79078  43.641  32.655  13.090
13918W        W79079   3.004  22.499   3.722
13919W        W79080   0.455  42.153   3.301
13920W        W79081  19.325  38.862  13.413
13921W        W79082  22.686  28.591  13.583
13922W        W79083  16.631  17.002   3.253
13923W        W79084  40.879  26.598   4.757
13924W        W79085   3.358  15.185  13.870
13925W        W79086  17.128   7.729  12.858
13926W        W79087  27.018  37.977   2.702
13927W        W79088   8.792   2.245   3.380
13928W        W79089  16.523   8.224  11.658
13929W        W79090  30.495   2.750  12.600
13930W        W79091  21.837  19.659   1.203
13931W        W79092  40.131  23.250  11.228
13932W        W79093  38.480   0.722   4.447
13933W        W79094  18.232  13.891  12.678
13934W        W79095   6.660  36.149  10.709
13935W        W79096  18.275  34.007  11.244
13936W        W79097   2.266   5.414   4.208
13937W        W79098  29.226  29.864  14.592
13938W        W79099  18.079  19.041  12.134
13939W        W79100   4.257  14.108   0.361
13940W        W79101  17.714  14.077  10.065
13941W        W79102  38.390   1.311   0.489
13942W        W79103  31.378  44.562  10.646
13943W        W79104  42.686  36.586   1.319
13944W        W79105  25.484   3.589  14.391
13945W        W79106  44.667  30.447   0.423
13946W        W79107  19.533   5.615   0.346
13947W        W79108  25.168  23.409   4.575
13948W        W79109  13.277  42.888   3.373
13949W        W79110  27.011  17.000  12.971
13950W        W79111  22.292  41.525   3.702
13951W        W79112   2.246   5.537   1.241
13952W        W79113   4.342  18.104   2.468
13953W        W79114  31.053  10.222   1.068
13954W        W79115  39.761  42.584  10.632
13955W        W79116  11.403  21.653   0.505
13956W        W79117  14.684   0.738  10.665
13957W        W79118  19.587  39.594   3.625
13958W        W79119  22.184  25.406  11.243
13959W        W79120   3.023  36.874   1.895
13960W        W79121  42.847  33.312   0.254
13961W        W79122   5.307  20.820  13.769
13962W        W79123  13.680  41.362   1.906
13963W        W79124   0.257  29.194  13.935
13964W        W79125  37.606  40.043   3.841
13965W        W79126   3.260   8.201  10.616
13966W        W79127   1.349  35.497   0.006
13967W        W79128  26.539   7.663  12.082
13968W        W79129  31.881  22.106   1.257
13969W        W79130  20.020  37.843   0.970
13970W        W79131  32.918   5.198  10.627
13971W        W79132   5.953  32.884   4.112
13972W        W79133  38.963  32.714   0.881
13973W        W79134   0.700   4.391   0.580
13974W        W79135  40.873  43.225  11.160
13975W        W79136  26.335   7.173  14.323
13976W        W79137  43.915  20.948   0.386
13977W        W79138   0.472  42.390  13.601
13978W        W79139  29.952  33.387   0.630
13979W        W79140  21.082  24.335   3.064
13980W        W79141  39.598  19.638  13.840
13981W        W79142  39.885   0.157   2.696
13982W        W79143   2.290   0.697   0.519
13983W        W79144   9.698   8.634  11.946
13984W        W79145  42.287  35.660  13.815
13985W        W79146  24.424  34.799  12.911
13986W        W79147  11.857   8.125   1.338
13987W        W79148  16.580  28.814  10.580
13988W        W79149  28.441   0.257   1.028
13989W        W79150  42.988   7.384   2.280
13990W        W79151   3.340  11.307   1.825
13991W        W79152  20.669   3.288   2.226
13992W        W79153  32.423  17.323   4.560
13993W        W79154  16.519  14.595   2.338
13994W        W79155  41.677  37.888   3.558
13995W        W79156  42.269  15.688   2.670
13996W        W79157   0.024  18.720   1.812
13997W        W79158   1.414   9.437  11.869
13998W        W79159  22.679  29.380  11.608
13999W        W79160  14.186   7.363   0.397
14000W        W79161  33.158  37.941   0.980
14001W        W79162  15.761  17.307   0.019
14002W        W79163  41.675  32.004   4.658
14003W        W79164  42.694  24.548   1.761
14004W        W79165  33.697  25.265  10.675
14005W        W79166  37.164   9.785   0.928
14006W        W79167  33.503  28.454  12.621
14007W        W79168  37.898  22.765  14.822
14008W        W79169   6.345  14.589  11.055
14009W        W79170  19.347  17.437  14.017
14010W        W79171  44.734   8.082   2.393
14011W        W79172  39.664  20.583  13.709
14012W        W79173  33.375  42.309  12.271
14013W        W79174  16.701  12.863  10.678
14014W        W79175  21.956  34.136   2.721
14015W        W79176  21.401  14.038   5.035
14016W        W79177  23.545  14.533  13.307
14017W        W79178  41.808  28.503  14.068
14018W        W79179  32.229  43.774  13.507
14019W        W79180  27.589  41.798   3.158
14020W        W79181  17.729  38.378   1.761
14021W        W79182  43.050   7.875   4.484
14022W        W79183  22.460  25.937   0.882
14023W        W79184  14.524  44.765   2.298
14024W        W79185  42.101   2.590  12.528
14025W        W79186  16.062  36.889  10.581
14026W        W79187  19.636  18.676   4.323
14027W        W79188  41.805  32.654  11.450
14028W        W79189  10.634  20.849   3.357
14029W        W79190   2.646  18.035  14.427
14030W        W79191  16.741  23.659   3.069
14031W        W79192  21.063   1.465  14.016
14032W        W79193   0.397  25.494   2.791
14033W        W79194  30.612  28.135   2.772
14034W        W79195  20.640  23.976   0.946
14035W        W79196   7.805   6.807   1.849
14036W        W79197  39.106  15.483  12.418
14037W        W79198   9.234  19.436  14.589
14038W        W79199  14.250  19.069  11.590
14039W        W79200  11.195   8.367  14.949
14040W        W79201  17.558  25.773   2.027
14041W        W79202  38.923   8.443  14.325
14042W        W79203  11.671  15.274   0.958
14043W        W79204  37.753  43.009   0.112
14044W        W79205   1.293  19.250   1.328
14045W        W79206  17.293  30.638   3.845
14046W        W79207   3.316  27.855   0.478
14047W        W79208  37.575  21.562  14.896
14048W        W79209  30.735   0.739   1.603
14049W        W79210  15.914  33.340  13.320
14050W        W79211  38.785  26.021  11.064
14051W        W79212  13.090   9.874   4.608
14052W        W79213  41.732   9.680  11.641
14053W        W79214  44.319   7.936   2.687
14054W        W79215  27.194   8.266   2.477
14055W        W79216  37.592   6.772  12.147
14056W        W79217  11.330  11.740  10.448
14057W        W79218  34.690  17.760   0.414
14058W        W79219  29.327  12.411   2.169
14059W        W79220  37.531   1.693  14.971
14060W        W79221  42.069  28.005  11.072
14061W        W79222  13.892  20.069  11.588
14062W        W79223  31.097  28.109  13.977
14063W        W79224  36.410   2.661   1.180
14064W        W79225  44.395   9.699  13.596
14065W        W79226  30.140   4.360   0.720
14066W        W79227  18.081  29.112  11.915
14067W        W79228  10.328  20.651   0.664
14068W        W79229  38.563  29.894   2.707
14069W        W79230  26.705  29.734   4.791
14070W        W79231  27.452   2.903  13.427
14071W        W79232   8.281  43.037  13.524
14072W        W79233  20.935  43.220  14.319
14073W        W79234  12.222  33.876  11.992
14074W        W79235  38.166  20.134  12.116
14075W        W79236  21.545   1.939   4.671
14076W        W79237  34.482   6.400   3.004
14077W        W79238  18.159  20.303   2.090
14078W        W79239   2.359  32.167   4.524
14079W        W79240   6.228   0.265  12.460
14080W        W79241  42.974  34.569  12.161
14081W        W79242  16.747   8.188   1.355
14082W        W79243  19.291  14.637   4.633
14083W        W79244  44.354   9.791  11.727
14084W        W79245  42.277  33.351  13.790
14085W        W79246  43.790  20.991   2.794
14086W        W79247  23.784  27.909   0.800
14087W        W79248  16.339  32.843  11.537
14088W        W79249  29.449  11.755  11.636
14089W        W79250  33.602  16.662  10.728
14090W        W79251   2.793  24.718  14.106
14091W        W79252  21.018  41.402   4.877
14092W        W79253  31.100  44.326   3.588
14093W        W79254  44.836   4.937  12.556
14094W        W79255  12.267   1.329  13.420
14095W        W79256  39.034  42.492   2.310
14096W        W79257  15.607   2.327  12.465
14097W        W79258  23.720   9.121  10.714
14098W        W79259  39.682  25.690   2.161
14099W        W79260  16.226  21.196  11.164
14100W        W79261   4.873   6.198  12.081
14101W        W79262  25.176   6.436   2.790
14102W        W79263  18.547  28.093  12.046
14103W        W79264  10.199  37.146   0.639
14104W        W79265  10.592  39.414   0.830
14105W        W79266  20.284   9.299   2.295
14106W        W79267   9.707  37.605  11.884
14107W        W79268  10.203  17.826   1.342
14108W        W79269  44.466  15.559  11.122
14109W        W79270  37.356   4.852  14.907
14110W        W79271  33.408  33.925   3.766
14111W        W79272  18.265  34.047   4.245
14112W        W79273  37.820   5.542   1.434
14113W        W79274  23.573  14.164  14.974
14114W        W79275  21.295  31.709   4.915
14115W        W79276  32.968  26.519   2.151
14116W        W79277  14.498  12.882   0.268
14117W        W79278  33.676  13.309  10.062
14118W        W79279  22.659  29.167   1.836
14119W        W79280  10.661  28.543  11.986
14120W        W79281   9.324  44.940  12.101
14121W        W79282  14.646  44.297   0.640
14122W        W79283  39.376  11.274   4.392
14123W        W79284  21.316  26.956  14.746
14124W        W79285  43.988  22.205  14.140
14125W        W79286  32.010  15.742  12.777
14126W        W79287  21.043  43.813  10.717
14127W        W79288  19.774  18.879   2.605
14128W        W79289  12.959  35.881   2.827
14129W        W79290   3.796  16.996   3.991
14130W        W79291  23.070   8.936  13.475
14131W        W79292  32.100  23.724  14.535
14132W        W79293   1.800   0.512   0.433
14133W        W79294  33.928  14.084  12.385
14134W        W79295   9.586  43.009  12.843
14135W        W79296  19.716   5.827  11.084
14136W        W79297   2.460   4.891   0.992
14137W        W79298  44.383  28.500  11.162
14138W        W79299  31.357  33.136   4.032
14139W        W79300  28.066  29.111   4.470
14140W        W79301  20.480  15.653   2.233
14141W        W79302  16.456  11.732   1.584
14142W        W79303  37.764  19.366  11.644
14143W        W79304  42.797  28.565   3.740
14144W        W79305  41.010  20.121   0.920
14145W        W79306  23.013  37.546   0.356
14146W        W79307  28.278  24.676  11.627
14147W        W79308  39.098  29.050   3.736
14148W        W79309  20.996  44.517  14.281
14149W        W79310  11.688  19.705  13.862
14150W        W79311  25.413  27.311   1.960
14151W        W79312  12.415  17.415  14.790
14152W        W79313  25.895  17.761   0.856
14153W        W79314  32.475  24.911   2.801
14154W        W79315  42.097  29.087  10.278
14155W        W79316  12.714  12.614  13.900
14156W        W79317  30.541   9.325   1.902
14157W        W79318  38.060  27.545   3.799
14158W        W79319  40.050   0.911  14.336
14159W        W79320  43.295   1.692   0.994
14160W        W79321  40.107   3.235  10.490
14161W        W79322  33.972   9.776   4.867
14162W        W79323   8.093  36.930   1.355
14163W        W79324  41.042  15.078   3.344
14164W        W79325  35.878  23.251  12.421
14165W        W79326  20.754  39.371   0.792
14166W        W79327  23.481  30.195  14.572
14167W        W79328   3.034  37.357   0.671
14168W        W79329  43.333  16.797  12.527
14169W        W79330  38.046  11.354   0.304
14170W        W79331  22.099   3.651   3.900
14171W        W79332  41.759  23.579   4.623
14172W        W79333  23.480  24.268  14.998
14173W        W79334  16.306  26.843  13.079
14174W        W79335  30.730   6.730   0.462
14175W        W79336  38.630   7.920  12.702
14176W        W79337  29.072  34.594   4.510
14177W        W79338  22.905  11.638   2.256
14178W        W79339  12.641  14.348  10.714
14179W        W79340  35.887  31.369  11.017
14180W        W79341   5.229  13.282   1.397
14181W        W79342  24.030  15.281  10.619
14182W        W79343  43.994  17.842  12.077
14183W        W79344  14.277  26.489   1.090
14184W        W79345   4.155  16.139  10.552
14185W        W79346  27.955  36.819  13.423
14186W        W79347  20.065  43.023   4.101
14187W        W79348  20.794  35.248  11.176
14188W        W79349  10.633  23.176  13.916
14189W        W79350  36.964  25.998   3.725
14190W        W79351  29.222   1.259   1.708
14191W        W79352  35.133   3.169  13.056
14192W        W79353   5.221  17.608   3.468
14193W        W79354  16.189  11.150   1.714
14194W        W79355  36.520  11.638   0.328
14195W        W79356  38.533  10.038   4.156
14196W        W79357  40.099  11.832  14.979
14197W        W79358  23.029   4.066  11.840
14198W        W79359  43.783  18.660  12.609
14199W        W79360  34.423   1.137   0.465
14200W        W79361  37.401   0.102   3.160
14201W        W79362  16.694   1.519  12.913
14202W        W79363   5.967   9.060   3.707
14203W        W79364  38.813  16.189  14.079
14204W        W79365  36.934  22.261  11.258
14205W        W79366  33.566  29.627   0.002
14206W        W79367  39.497  20.988   2.125
14207W        W79368  38.940  31.229   2.808
14208W        W79369  42.040   4.447  11.644
14209W        W79370  12.284   0.492  13.960
14210W        W79371  29.588  26.229   3.714
14211W        W79372  40.939  33.526   4.134
14212W        W79373   3.688  29.143   4.084
14213W        W79374  36.303  16.319   0.792
14214W        W79375  22.614   5.799   2.758
14215W        W79376  44.347  20.630  13.403
14216W        W79377  11.009  11.308  11.904
14217W        W79378  27.572   3.677  11.243
14218W        W79379  28.731   8.337   0.976
14219W        W79380  17.576  33.058   1.338
14220W        W79381   7.188  29.394   2.345
14221W        W79382  39.856  12.288  12.971
14222W        W79383   9.230  41.798   4.665
14223W        W79384   4.622  32.854  13.874
14224W        W79385  39.936  44.593  10.068
14225W        W79386  12.175  29.209  12.522
14226W        W79387  38.882  38.904   1.897
14227W        W79388   5.707   2.960   4.720
14228W        W79389  43.411   8.796  10.790
14229W        W79390  10.224  22.779  12.587
14230W        W79391  20.278  21.431  11.992
14231W        W79392  22.604  42.049   3.076
14232W        W79393  13.839  31.572  11.067
14233W        W79394  33.115  39.831   2.334
14234W        W79395  32.422  30.979   2.742
14235W        W79396  31.691  11.799  10.623
14236W        W79397  17.270  31.951   4.050
14237W        W79398   1.392  39.938   1.303
14238W        W79399  32.635  18.157   0.838
14239W        W79400  34.332   1.524   0.800
14240W        W79401  30.595  44.691   3.314
14241W        W79402  25.434  35.656  13.956
14242W        W79403  29.695  25.204  11.233
14243W        W79404  23.565  39.050   2.986
14244W        W79405  24.645  35.640   3.527
14245W        W79406  35.579  25.978   0.269
14246W        W79407  26.029   4.533   4.633
14247W        W79408  26.978   2.628   2.309
14248W        W79409  19.076   0.205   1.789
14249W        W79410  16.263  42.506   9.921
14250W        W79411  26.620  37.643  12.875
14251W        W79412  23.096  29.876  14.745
14252W        W79413  35.375   9.817   4.989
14253W        W79414   1.774  24.772  10.551
14254W        W79415   4.855  30.431   2.816
14255W        W79416   7.868  22.539  12.390
14256W        W79417  26.026   7.659   4.164
14257W        W79418   7.237  32.652   2.262
14258W        W79419  21.048  37.870  12.947
14259W        W79420  25.697  16.090   3.026
14260W        W79421  39.022   3.501  12.500
14261W        W79422   5.840  35.057   0.983
14262W        W79423  27.643  37.040   3.302
14263W        W79424   9.363  21.056   4.838
14264W        W79425  14.318  19.147  14.320
14265W        W79426  29.478  21.819   2.762
14266W        W79427  37.816  34.111  11.978
14267W        W79428  25.006  41.998   2.797
14268W        W79429  28.904  24.282  11.279
14269W        W79430  26.989  15.786  11.696
14270W        W79431  15.170  26.699   3.078
14271W        W79432   6.198   4.667   4.666
14272W        W79433  12.063  11.482  14.276
14273W        W79434  44.995  20.736   3.627
14274W        W79435  27.052   5.870  10.759
14275W        W79436  24.707  19.789   0.933
14276W        W79437  43.794  20.061  13.880
14277W        W79438  23.707   5.909   0.761
14278W        W79439  41.988  14.200   1.914
14279W        W79440  28.085   4.787  14.949
14280W        W79441  33.943  35.465   3.449
14281W        W79442   2.729  20.531   4.468
14282W        W79443  33.669  27.611  14.015
14283W        W79444  19.519  36.120  13.055
14284W        W79445  27.083   0.705   2.381
14285W        W79446  37.588  23.657  14.017
14286W        W79447  26.422  17.765   0.917
14287W        W79448  13.156  12.805   3.177
14288W        W79449  20.212  15.324  10.677
14289W        W79450  37.274  25.472  13.409
14290W        W79451   4.100  27.098  12.468
14291W        W79452  11.166   8.859   2.660
14292W        W79453   5.203  35.450   1.658
14293W        W79454  25.089  32.299   2.946
14294W        W79455  33.223  32.920  10.801
14295W        W79456  23.938  25.656  14.850
14296W        W79457   2.361  19.243  10.410
14297W        W79458   3.538  29.485   1.464
14298W        W79459   0.821   6.782   4.605
14299W        W79460  42.760   1.562  11.968
14300W        W79461  15.060  14.638   2.080
14301W        W79462  29.105  39.337  13.617
14302W        W79463  13.895  44.324  13.552
14303W        W79464   4.865   3.721  12.365
14304W        W79465   1.799  19.014  13.554
14305W        W79466   6.746   6.008  14.028
14306W        W79467  23.419  17.034  10.945
14307W        W79468  19.056  36.991   5.068
14308W        W79469  30.791  38.285   3.799
14309W        W79470  42.099  25.947   2.647
14310W        W79471  10.905  32.029   1.281
14311W        W79472   0.119   7.027   2.305
14312W        W79473  17.160  12.566  12.518
14313W        W79474  18.773   7.064  12.062
14314W        W79475  43.069  29.438   4.171
14315W        W79476   4.555  22.940   9.848
14316W        W79477   9.961   7.140  13.481
14317W        W79478  37.432  44.211   3.609
14318W        W79479  31.367  37.459  10.815
14319W        W79480  41.323  29.955  12.654
14320W        W79481  39.330  21.555  10.735
14321W        W79482  38.155  21.202  12.998
14322W        W79483  27.189   1.823  14.122
14323W        W79484  32.083   4.324   0.702
14324W        W79485  41.947  14.787  10.626
14325W        W79486  38.798  11.174   0.766
14326W        W79487  44.731   4.322   5.028
14327W        W79488  36.621  17.118  11.983
14328W        W79489  33.488  25.005  12.049
14329W        W79490  21.880  36.970  10.336
14330W        W79491  25.879  21.621   0.494
14331W        W79492   5.796  11.211   1.140
14332W        W79493   5.812   4.895   2.618
14333W        W79494   0.788  11.515  12.796
14334W        W79495  23.831   0.234  10.497
14335W        W79496  13.458  16.081  13.931
14336W        W79497   9.711  11.748  11.984
14337W        W79498  42.939  12.116  14.968
14338W        W79499  40.683   3.360   4.663
14339W        W79500  35.602   2.935  14.417
14340W        W79501  19.150   0.668  12.110
14341W        W79502  24.896  18.449   3.299
14342W        W79503   1.347  16.611   0.301
14343W        W79504  12.059  43.226   4.875
14344W        W79505  21.704  44.452   1.940
14345W        W79506  33.101  21.860  11.338
14346W        W79507  21.325  42.255   1.814
14347W        W79508  40.298  21.111  11.986
14348W        W79509  13.636   7.644  12.933
14349W        W79510  21.663  37.363  12.919
14350W        W79511   5.180  16.622   1.294
14351W        W79512  42.292   8.966   0.239
14352W        W79513   8.147  32.072   1.446
14353W        W79514  40.750  39.704  11.164
14354W        W79515  25.951  28.521   3.608
14355W        W79516  23.967  35.980   1.447
14356W        W79517   5.288   7.953  14.525
14357W        W79518  25.405   0.738  11.165
14358W        W79519  16.625   0.504   3.572
14359W        W79520  40.517  19.640   4.679
14360W        W79521  38.393  29.591   3.096
14361W        W79522  17.145  31.146   3.798
14362W        W79523  12.330  19.646  11.998
14363W        W79524  27.936   5.967  11.220
14364W        W79525  43.351   5.234   4.517
14365W        W79526   8.693  37.478   1.895
14366W        W79527  44.389  39.006   1.507
14367W        W79528  15.086  28.194  14.862
14368W        W79529   7.855  12.466   9.923
14369W        W79530  44.226  18.321   2.773
14370W        W79531   3.813  41.922   1.416
14371W        W79532  24.932  21.099  13.141
14372W        W79533  11.065  13.343   0.362
14373W        W79534  21.481   1.369  13.430
14374W        W79535  38.777   9.770  12.382
14375W        W79536  27.770  41.383  11.382
14376W        W79537  14.683   4.329  12.444
14377W        W79538  40.491  26.056   2.623
14378W        W79539  30.664  31.875   4.040
14379W        W79540  27.815  34.359   2.029
14380W        W79541  12.086  10.036   2.194
14381W        W79542   8.828  38.128   4.979
14382W        W79543  37.942  39.580  12.646
14383W        W79544  29.197  10.733  10.867
14384W        W79545   6.724  32.957   1.810
14385W        W79546   3.887  39.957  11.197
14386W        W79547  21.554   9.114   3.793
14387W        W79548  15.620  39.903   2.971
14388W        W79549   8.663  38.967   1.828
14389W        W79550  22.790  13.353  13.404
14390W        W79551  15.319  13.085  14.871
14391W        W79552  22.956  13.900   3.281
14392W        W79553  14.177   5.645   2.505
14393W        W79554  18.111  40.300  13.671
14394W        W79555  33.614  23.533   2.754
14395W        W79556  13.064  13.746   2.186
14396W        W79557  27.633   6.119   4.451
14397W        W79558  29.808  40.324  11.963
14398W        W79559  21.612  28.003  12.178
14399W        W79560  35.976  27.174  11.284
14400W        W79561   8.622   1.478  13.827
14401W        W79562  23.760  36.329  12.951
14402W        W79563  16.157  37.802   5.685
14403W        W79564  16.163  25.858   2.850
14404W        W79565  42.781  33.101   4.515
14405W        W79566  38.457  26.706   4.988
14406W        W79567  33.556  37.459  12.962
14407W        W79568  33.133  41.459  14.228
14408W        W79569  13.085  35.069  14.750
14409W        W79570  40.403  11.848  12.429
14410W        W79571   2.911  31.154  13.983
14411W        W79572  23.648  32.854   3.631
14412W        W79573  32.621  28.901  11.580
14413W        W79574  11.280  17.525  13.254
14414W        W79575  37.572  25.922  12.590
14415W        W79576   2.641  11.738   1.708
14416W        W79577  41.997  33.965  12.923
14417W        W79578   4.464  40.301   4.621
14418W        W79579  10.738  40.250  13.937
14419W        W79580  32.151   8.084   3.274
14420W        W79581  28.638  28.679   2.817
14421W        W79582   5.670  24.201   3.447
14422W        W79583  41.405   5.642  14.925
14423W        W79584  33.523  41.002  11.498
14424W        W79585   1.055  15.662   1.658
14425W        W79586  16.764  33.344   2.357
14426W        W79587  27.978   6.760   0.432
14427W        W79588  27.920   5.778  10.754
14428W        W79589   7.703  33.593   3.164
14429W        W79590  27.124  43.846   4.043
14430W        W79591   1.880  25.854  14.038
14431W        W79592  15.675  18.346   2.763
14432W        W79593  15.335  16.520  12.344
14433W        W79594   4.822  31.359   4.398
14434W        W79595  25.402  35.137   4.077
14435W        W79596  24.381  43.042   0.890
14436W        W79597   1.858   8.133  13.688
14437W        W79598   3.580  44.960  14.020
14438W        W79599  10.779   0.065  10.620
14439W        W79600  18.358  41.062  12.972
14440W        W79601  41.487  13.566   4.083
14441W        W79602  37.034   7.394  13.074
14442W        W79603   3.035   0.380   0.725
14443W        W79604  13.237  25.162   5.042
14444W        W79605  14.630   0.544  11.143
14445W        W79606  18.676   7.819   0.079
14446W        W79607  41.894  32.839   4.963
14447W        W79608  18.830   9.266  11.585
14448W        W79609  10.340  26.665   4.906
14449W        W79610   2.046  42.062  11.592
14450W        W79611  27.674  14.889   2.214
14451W        W79612  18.282  35.077   4.366
14452W        W79613   3.908  33.562   4.173
14453W        W79614  33.804  43.128  10.653
14454W        W79615   0.739  44.233  12.558
14455W        W79616  44.806  31.395   2.628
14456W        W79617  12.643  14.202   4.627
14457W        W79618  39.850   6.694   3.918
14458W        W79619   1.678  36.458  10.566
14459W        W79620  30.079   8.636  12.909
14460W        W79621  40.857  19.990   0.440
14461W        W79622   9.756  33.059  10.672
14462W        W79623  28.959  14.450   0.023
14463W        W79624   9.229  34.596  10.396
14464W        W79625  14.838  27.136  11.625
14465W        W79626   0.842   1.325   3.687
14466W        W79627  42.214  43.730  12.567
14467W        W79628  31.637  31.490  14.931
14468W        W79629   4.186  20.083  12.595
14469W        W79630  12.202   5.925   1.488
14470W        W79631  21.782  24.443  12.981
14471W        W79632  44.801  22.004   1.791
14472W        W79633  42.360  25.611  14.236
14473W        W79634  35.943  13.818  12.028
14474W        W79635  23.327  39.706   1.519
14475W        W79636  42.723   6.290   4.069
14476W        W79637  17.842  24.514   1.455
14477W        W79638  43.558   4.820  11.582
14478W        W79639  10.625  17.180   1.019
14479W        W79640  13.750   5.704   0.845
14480W        W79641   5.263  30.567  14.859
14481W        W79642  33.860   1.028  13.787
14482W        W79643   7.808  22.701   3.212
14483W        W79644  20.197  12.194   1.424
14484W        W79645  13.537  13.433  11.073
14485W        W79646   9.368  38.849  13.448
14486W        W79647  11.731  43.466   2.718
14487W        W79648   1.921  15.456   1.249
14488W        W79649  27.166  10.338  12.999
14489W        W79650  30.156  20.020  11.036
14490W        W79651  40.918   4.357   3.794
14491W        W79652  17.839   5.712  11.084
14492W        W79653   9.650  35.615  13.352
14493W        W79654  32.014  36.844  13.356
14494W        W79655  18.134  11.126   3.619
14495W        W79656  13.688  25.435   2.393
14496W        W79657  26.082  30.724   3.041
14497W        W79658  36.928  29.573   4.321
14498W        W79659   4.849  44.028  13.997
14499W        W79660   2.959   2.340   4.635
14500W        W79661  40.808   4.797   1.200
14501W        W79662  17.815  28.147   3.274
14502W        W79663  30.677  41.594  13.949
14503W        W79664   9.064  26.566   4.109
14504W        W79665  24.874  11.659   0.475
14505W        W79666  12.301  28.862   4.132
14506W        W79667  40.966  15.896  12.005
14507W        W79668  34.045  42.818  12.992
14508W        W79669  44.537   4.483   0.003
14509W        W79670  20.738  39.964   1.833
14510W        W79671   8.827  32.200   4.929
14511W        W79672   3.144  26.141  13.193
14512W        W79673   8.797  29.629   4.630
14513W        W79674  39.927  22.379  11.170
14514W        W79675   8.950  31.158  11.927
14515W        W79676   1.394   5.676   3.258
14516W        W79677  16.293  24.548   0.332
14517W        W79678  41.737  37.167  11.471
14518W        W79679  40.261  36.658  13.442
14519W        W79680  20.165  28.065   4.555
14520W        W79681  29.413   7.163  14.389
14521W        W79682  24.298  31.556  13.133
14522W        W79683  27.685  20.514  11.493
14523W        W79684  20.253   5.138   3.824
14524W        W79685  40.902  20.537   2.820
14525W        W79686  17.979  42.213  12.477
14526W        W79687  12.348  26.891   0.885
14527W        W79688   3.765  27.409  14.119
14528W        W79689  26.895  14.315   1.286
14529W        W79690  13.823  28.678  12.000
14530W        W79691  27.907  33.647  10.616
14531W        W79692  21.751  13.295  13.350
14532W        W79693   8.863  18.605   0.042
14533W        W79694   6.319  32.955   1.327
14534W        W79695   1.237   8.753  13.178
14535W        W79696  29.631  17.635  11.277
14536W        W79697  22.605   0.522  11.884
14537W        W79698  41.729  37.303  10.970
14538W        W79699   6.899  36.925  12.883
14539W        W79700  15.194  26.110  13.401
14540W        W79701  15.762  41.333   1.219
14541W        W79702  40.324  23.780   3.145
14542W        W79703  38.553   3.275  12.611
14543W        W79704  43.837  37.287   1.750
14544W        W79705  13.645  15.214  13.441
14545W        W79706  44.956  28.538   0.175
14546W        W79707  44.557   0.291  11.781
14547W        W79708  10.710  17.917  13.049
14548W        W79709  11.364  20.349  14.464
14549W        W79710  14.115  36.244   1.823
14550W        W79711  12.323  34.171   4.123
14551W        W79712  34.027  21.240   2.326
14552W        W79713   2.524   2.638  11.685
14553W        W79714  15.028  26.763   2.578
14554W        W79715   4.916  39.538   1.402
14555W        W79716  14.120   6.139   1.691
14556W        W79717   5.417  28.653  10.576
14557W        W79718  23.381  44.627  11.619
14558W        W79719  27.485  29.471   0.982
14559W        W79720  13.100  34.594  10.642
14560W        W79721  26.598   5.018   1.428
14561W        W79722  23.013  29.844   3.658
14562W        W79723  37.371  26.089   4.307
14563W        W79724  15.305   1.742   1.849
14564W        W79725  21.741  13.807  12.483
14565W        W79726  14.759  44.585   4.973
14566W        W79727  24.943  42.373  14.281
14567W        W79728  38.751  13.937   5.248
14568W        W79729  35.130  31.638   0.790
14569W        W79730  29.542  35.414  12.442
14570W        W79731  15.598  43.937  11.519
14571W        W79732  35.933  13.810   1.068
14572W        W79733  34.403   6.936  12.055
14573W        W79734  10.001  21.599  13.569
14574W        W79735   6.264  23.764  13.869
14575W        W79736   5.978  40.986   4.089
14576W        W79737  15.722  44.501   0.820
14577W        W79738   8.237  29.883   1.705
14578W        W79739  13.156  36.929   4.493
14579W        W79740  36.911   3.351  11.093
14580W        W79741  17.625  44.437   4.153
14581W        W79742  22.343  27.530  11.609
14582W        W79743  39.175   5.792  11.034
14583W        W79744  36.352  21.161  13.163
14584W        W79745  27.491  25.459  12.452
14585W        W79746  29.398   7.879  14.826
14586W        W79747  37.407  42.875   1.863
14587W        W79748   9.849   6.393   3.687
14588W        W79749  12.223   6.933  11.093
14589W        W79750  33.758  42.440  13.850
14590W        W79751   1.211  28.092   4.399
14591W        W79752   3.515   0.929  13.431
14592W        W79753  19.076  22.735   1.851
14593W        W79754   7.924   6.825   0.233
14594W        W79755  31.974  13.563  14.830
14595W        W79756  20.021   7.111  12.058
14596W        W79757  10.636  16.659   3.633
14597W        W79758  20.046  42.792  11.448
14598W        W79759  27.489  44.450   4.317
14599W        W79760  33.533   1.387  13.966
14600W        W79761  25.468  32.454  10.784
14601W        W79762  12.320  32.120   1.698
14602W        W79763  36.851  20.301  14.031
14603W        W79764  27.140  14.655  12.792
14604W        W79765  27.157  16.191   1.273
14605W        W79766   6.838  39.928   4.630
14606W        W79767   6.332  15.108  11.037
14607W        W79768  25.470  25.479   3.856
14608W        W79769  32.738  43.782  13.719
14609W        W79770  25.272   2.047   2.116
14610W        W79771  27.704  11.933   0.843
14611W        W79772   5.123  44.961   3.657
14612W        W79773  22.465  34.809   2.106
14613W        W79774  31.015   4.523   1.389
14614W        W79775  15.639  26.392  13.450
14615W        W79776  35.111  30.025   3.286
14616W        W79777   4.450   9.397  12.474
14617W        W79778  22.994  16.493  13.755
14618W        W79779  17.594  19.687  10.957
14619W        W79780  17.610  35.261  11.124
14620W        W79781  27.582  16.348   0.311
14621W        W79782  44.492  38.532   5.399
14622W        W79783   5.272  34.448  14.523
14623W        W79784   2.338  38.534   0.382
14624W        W79785  41.395  14.349  12.041
14625W        W79786  29.553  11.849  13.777
14626W        W79787  14.305  25.987   0.899
14627W        W79788  33.394   2.770   4.681
14628W        W79789  21.078  41.826  11.004
14629W        W79790  36.998  42.934   2.690
14630W        W79791   3.954  30.396   1.666
14631W        W79792  13.729  15.805   1.944
14632W        W79793  42.921  23.257  11.903
14633W        W79794  19.487   8.723   4.324
14634W        W79795  35.840  40.362   0.875
14635W        W79796  14.816  17.658  13.386
14636W        W79797   2.989  17.837  12.065
14637W        W79798  17.734  17.693  13.414
14638W        W79799  24.454   2.828  14.351
14639W        W79800  40.299  19.660  12.050
14640W        W79801  44.384  14.215   0.406
14641W        W79802  43.282  23.788  14.474
14642W        W79803  17.050   4.187   1.310
14643W        W79804  39.969   5.410   2.727
14644W        W79805  35.062  30.963   2.689
14645W        W79806   6.016  22.070  11.622
14646W        W79807  39.068   5.389  13.535
14647W        W79808  33.970   6.785   1.264
14648W        W79809  14.762  37.812   4.153
14649W        W79810  38.325   2.606   4.312
14650W        W79811  23.135   4.020  14.364
14651W        W79812   2.773  12.702  13.304
14652W        W79813  35.611  43.482  10.564
14653W        W79814  35.244  30.289   1.002
14654W        W79815   2.398  41.320  11.839
14655W        W79816  12.440   0.919  13.129
14656W        W79817  31.759  33.880  14.395
14657W        W79818  31.648  29.057   2.069
14658W        W79819  23.981  27.972   1.710
14659W        W79820   8.188  44.991   2.470
14660W        W79821  32.103  26.871   4.152
14661W        W79822  18.732  26.281   2.704
14662W        W79823  38.472  29.668   4.123
14663W        W79824  17.733  34.196  11.208
14664W        W79825  39.863  43.951   2.430
14665W        W79826  23.621  29.904   4.225
14666W        W79827  23.791   9.860   0.429
14667W        W79828  40.716   2.649   4.131
14668W        W79829  35.467   7.109   2.912
14669W        W79830  30.527  38.053  10.616
14670W        W79831  23.683  38.057   4.647
14671W        W79832  16.585  33.824   2.274
14672W        W79833   6.452  15.016  14.936
14673W        W79834  33.004   0.746  12.527
14674W        W79835  26.180  19.187   1.323
14675W        W79836  28.772  39.666  11.243
14676W        W79837  27.478  16.042   4.646
14677W        W79838  22.212   8.855  13.517
14678W        W79839  32.616  15.122  14.262
14679W        W79840  13.565  11.750   1.777
14680W        W79841  10.362   1.306   1.381
14681W        W79842  16.597  44.596   4.033
14682W        W79843   0.490  38.463  12.076
14683W        W79844  24.580  19.197  10.661
14684W        W79845  33.684  29.854   3.206
14685W        W79846  39.388  18.179   3.720
14686W        W79847   8.712  31.455   0.006
14687W        W79848  36.152   5.468   2.761
14688W        W79849  21.804  15.765   0.800
14689W        W79850  26.603  14.858   0.857
14690W        W79851  14.160  38.390   4.584
14691W        W79852  25.265   7.679  11.686
14692W        W79853  18.830  37.349  11.671
14693W        W79854  39.873  15.236  11.763
14694W        W79855   5.437  23.474  12.413
14695W        W79856  40.088   8.628  13.301
14696W        W79857  34.009  36.885   0.853
14697W        W79858  16.681  17.977  14.542
14698W        W79859   0.631  40.754   5.060
14699W        W79860  25.167  35.264  12.096
14700W        W79861  40.115  41.028  12.025
14701W        W79862   8.195  26.943  12.082
14702W        W79863  29.013  23.516  14.960
14703W        W79864  36.551  37.613   2.843
14704W        W79865  13.033  32.424   3.752
14705W        W79866  21.072  35.382  10.767
14706W        W79867  14.071  31.871   3.088
14707W        W79868   3.150  20.187   4.564
14708W        W79869  20.143  22.107   4.718
14709W        W79870  15.696  37.047  11.850
14710W        W79871   5.375  35.437   0.628
14711W        W79872  32.962   7.926   1.227
14712W        W79873  28.451  42.051  14.070
14713W        W79874  25.462  21.997  12.068
14714W        W79875   7.353  42.923   0.025
14715W        W79876  11.691  22.172  10.749
14716W        W79877   9.922   9.227   0.435
14717W        W79878  18.075   1.180   1.869
14718W        W79879  31.123  31.476   0.015
14719W        W79880   0.694  29.222  11.119
14720W        W79881  30.395   5.620   4.089
14721W        W79882   0.775   4.987  12.335
14722W        W79883  11.585  21.135   0.337
14723W        W79884  24.177  34.322  13.034
14724W        W79885   9.156   8.905  11.196
14725W        W79886  26.002  14.018   2.763
14726W        W79887   4.900  11.902   0.452
14727W        W79888   2.270  34.438  11.903
14728W        W79889  33.281   1.888  11.921
14729W        W79890  29.689  35.409  10.751
14730W        W79891  27.992   3.205  12.652
14731W        W79892  22.700   5.194  10.728
14732W        W79893  32.544   7.855   2.266
14733W        W79894  39.385  23.672  12.824
14734W        W79895  35.528  16.648  13.476
14735W        W79896  24.152   6.814  12.970
14736W        W79897  22.770  10.750   0.496
14737W        W79898  35.881   5.226   0.325
14738W        W79899   0.422  22.445  13.465
14739W        W79900  15.734   1.461   2.562
14740W        W79901  30.861   6.210   4.510
14741W        W79902  12.147  11.359   3.457
14742W        W79903  38.619  21.212   0.924
14743W        W79904  26.372   1.969   0.761
14744W        W79905   1.471  39.027   3.514
14745W        W79906  22.794  10.692  11.511
14746W        W79907  16.492  13.086  11.130
14747W        W79908  44.732  41.014  11.913
14748W        W79909  44.088  23.758  14.911
14749W        W79910  16.501   6.351   1.283
14750W        W79911  44.231  27.673  13.523
14751W        W79912   9.586   8.237  12.791
14752W        W79913  41.318   9.888   3.738
14753W        W79914   0.741  10.715   1.495
14754W        W79915  44.286  10.815   4.718
14755W        W79916  22.670  33.076  11.624
14756W        W79917  36.808  21.641  12.390
14757W        W79918  34.455  34.854   0.900
14758W        W79919  39.379  25.461   2.927
14759W        W79920  17.587  23.716  10.814
14760W        W79921  22.039  32.283   0.617
14761W        W79922  12.174  34.671  10.450
14762W        W79923  44.792  15.828   2.190
14763W        W79924  25.133  13.426  14.304
14764W        W79925  25.561  30.692  14.071
14765W        W79926  32.685  29.155   0.305
14766W        W79927   5.406  12.481   4.314
14767W        W79928  25.654   5.684   2.814
14768W        W79929  24.908  13.304  11.171
14769W        W79930  23.690  13.485   2.583
14770W        W79931   3.088  14.031  11.808
14771W        W79932  19.803  24.203   0.362
14772W        W79933  41.596   3.609   3.128
14773W        W79934  22.472  10.206   2.186
14774W        W79935   0.254   6.894  11.375
14775W        W79936   7.312   7.784   0.287
14776W        W79937   5.820  14.829   4.293
14777W        W79938  41.361  32.898  13.373
14778W        W79939  39.926  41.744   0.904
14779W        W79940  38.368  17.681  14.503
14780W        W79941   9.571  33.258  13.984
14781W        W79942  34.856  15.884   2.807
14782W        W79943  19.743  27.079   4.401
14783W        W79944  26.695  42.376   2.505
14784W        W79945  20.286   8.085   4.072
14785W        W79946  35.461  37.225  12.978
14786W        W79947   1.157  26.827  14.424
14787W        W79948  38.648  27.589   4.432
14788W        W79949   8.028   3.796  12.874
14789W        W79950  10.804  17.219   4.398
14790W        W79951  25.251   7.772   3.664
14791W        W79952  21.646  21.129  11.201
14792W        W79953  20.688  12.126  11.641
14793W        W79954  26.640  16.591  10.096
14794W        W79955  23.110  38.834  11.932
14795W        W79956  43.547  35.166  13.979
14796W        W79957   4.252   6.225   2.737
14797W        W79958  13.132  17.531  13.758
14798W        W79959  33.377  19.141   2.798
14799W        W79960  16.568  34.138   1.302
14800W        W79961  35.832   8.556   4.550
14801W        W79962  36.966   6.324   0.702
14802W        W79963   3.834  18.248   0.634
14803W        W79964  33.454  11.670   4.723
14804W        W79965  43.608  19.633   2.134
14805W        W79966  40.446  10.834  13.331
14806W        W79967   8.137  15.139  14.468
14807W        W79968  29.269  10.328   0.871
14808W        W79969   3.583  38.451  14.871
14809W        W79970  41.473  37.860  13.011
14810W        W79971  36.032  20.848   0.773
14811W        W79972  39.282  14.088  12.447
14812W        W79973   4.448   0.196   0.408
14813W        W79974   5.448  15.021  10.820
14814W        W79975  15.827  23.710   1.885
14815W        W79976   1.969  41.088   5.021
14816W        W79977  35.872  14.872   0.845
14817W        W79978  19.170  36.080  11.549
14818W        W79979   3.975   0.255   1.501
14819W        W79980   6.262   3.283  13.359
14820W        W79981  13.697   9.432  14.015
14821W        W79982  18.736  23.955  13.289
14822W        W79983  42.295  33.885   4.181
14823W        W79984  21.073  25.964   0.917
14824W        W79985  35.086  10.657  11.736
14825W        W79986  43.780  41.176   1.450
14826W        W79987  34.907  25.775   0.097
14827W        W79988   0.218  18.073  13.315
14828W        W79989  19.377  24.662   9.921
14829W        W79990   3.690  29.278   2.445
14830W        W79991  43.838  28.500  11.897
14831W        W79992  19.371  36.930   3.507
14832W        W79993  34.718  30.625  12.096
14833W        W79994  21.562  36.610   2.174
14834W        W79995  29.864  34.909  13.966
14835W        W79996  41.386   8.811   3.838
14836W        W79997  17.316  43.408   3.636
14837W        W79998  17.575  30.990  11.976
14838W        W79999  11.291  12.622  11.625
14839W        W80000  15.262   3.426  14.044
14840W        W80001   5.387   4.271   3.112
14841W        W80002  16.265  43.625   0.403
14842W        W80003  33.004   7.392  14.418
14843W        W80004  17.077   7.135  10.709
14844W        W80005  11.388  16.800   4.236
14845W        W80006  33.946  27.243   0.868
14846W        W80007  13.236   6.507   3.393
14847W        W80008  13.176  41.325   4.216
14848W        W80009  43.920  12.836   4.631
14849W        W80010  23.602  10.805  10.996
14850W        W80011  20.784  23.671  13.297
14851W        W80012  24.606  20.801   1.795
14852W        W80013  32.035  25.981   3.243
14853W        W80014   0.390  16.845   0.777
14854W        W80015   8.138  23.462   0.086
14855W        W80016  44.298   7.769   0.359
14856W        W80017  23.197  18.205   2.663
14857W        W80018   4.941  26.212  14.940
14858W        W80019  20.058   8.373  12.171
14859W        W80020  35.516  41.775   1.310
14860W        W80021   5.392   8.729   3.999
14861W        W80022  28.039  42.980   2.317
14862W        W80023  43.741   6.195   4.635
14863W        W80024  26.768   4.185  12.057
14864W        W80025  32.214  22.060  14.946
14865W        W80026  35.407   4.492  11.858
14866W        W80027  25.982  33.089  12.842
14867W        W80028   9.749  37.534   3.248
14868W        W80029   4.566  41.258  10.990
14869W        W80030  35.930  33.904  11.234
14870W        W80031  40.873  42.402   3.612
14871W        W80032  31.445  18.757   3.228
14872W        W80033   5.320   1.915   2.861
14873W        W80034  34.944  29.573   2.747
14874W        W80035  11.703  29.206   1.473
14875W        W80036  13.555  32.481   1.643
14876W        W80037  20.906  40.881   2.254
14877W        W80038   2.849   5.769  12.321
14878W        W80039  41.959   2.804  12.010
14879W        W80040   4.545  12.677  14.344
14880W        W80041  24.632   0.202   1.895
14881W        W80042   6.165  22.794   0.797
14882W        W80043  24.692   7.177   4.641
14883W        W80044  17.054  27.014  13.534
14884W        W80045  33.557  21.300   2.159
14885W        W80046  11.169  39.735   4.559
14886W        W80047   9.200   2.982   3.848
14887W        W80048  36.403  12.802  14.235
14888W        W80049  12.124   0.629   4.871
14889W        W80050  15.261  23.920   2.730
14890W        W80051  19.313  11.872   1.490
14891W        W80052  15.060  44.378   4.584
14892W        W80053  39.857  29.529   1.831
14893W        W80054  37.169  32.609  14.747
14894W        W80055  24.884  23.338   1.271
14895W        W80056  26.250  11.268  13.118
14896W        W80057  43.915  37.468  12.162
14897W        W80058  36.534  41.439   3.176
14898W        W80059  25.155  34.078   3.368
14899W        W80060  19.236  39.966   0.830
14900W        W80061  30.337  26.975   4.580
14901W        W80062   7.674  14.358  11.130
14902W        W80063  14.220   1.922   1.169
14903W        W80064   7.871  14.124   2.442
14904W        W80065   0.754  38.544   2.400
14905W        W80066  16.437  22.302  12.458
14906W        W80067  22.137   0.058   4.054
14907W        W80068   5.967  26.550  12.458
14908W        W80069  44.396   5.616  14.053
14909W        W80070  12.647  22.522   1.889
14910W        W80071   9.052  14.283   3.304
14911W        W80072   0.890  29.471  14.711
14912W        W80073  40.864  41.015  13.898
14913W        W80074  15.301  32.300  12.648
14914W        W80075  16.117   9.992   2.421
14915W        W80076  38.883  22.576   4.048
14916W        W80077  18.794  43.148   0.026
14917W        W80078  38.871  40.332  10.685
14918W        W80079  35.421  29.754  11.547
14919W        W80080  18.162  24.690   0.780
14920W        W80081   8.614   4.961   4.035
14921W        W80082   3.819   2.805   3.600
14922W        W80083  30.909  41.311  11.709
14923W        W80084  30.038  24.881  14.375
14924W        W80085  26.313  40.887   2.410
14925W        W80086  36.916  42.664   3.142
14926W        W80087  18.514  38.085  14.314
14927W        W80088  41.389  42.332   1.202
14928W        W80089  18.601  39.222  14.719
14929W        W80090  35.967  40.935   4.088
14930W        W80091  18.805  35.502  14.313
14931W        W80092  15.413  33.447   2.633
14932W        W80093  13.153   3.016  10.992
14933W        W80094  11.180  23.483   1.350
14934W        W80095   8.164  19.385  14.318
14935W        W80096  13.797  12.244  14.338
14936W        W80097  40.080  33.433   2.945
14937W        W80098  44.397  36.047  14.954
14938W        W80099  12.072  32.245  14.455
14939W        W80100  36.736   9.279  11.603
14940W        W80101  20.104   7.805   2.147
14941W        W80102  44.951  16.485  11.323
14942W        W80103  43.822  32.936  13.494
14943W        W80104  40.299   5.494  13.066
14944W        W80105   3.342  22.288   0.344
14945W        W80106  32.111  24.923   2.336
14946W        W80107  34.156  31.680  13.273
14947W        W80108  36.283  10.661  14.774
14948W        W80109  18.012  41.584   4.636
14949W        W80110  31.833  17.373  13.057
14950W        W80111  11.822  19.851  11.100
14951W        W80112  16.696  23.073  14.572
14952W        W80113  16.316  37.422   5.021
14953W        W80114   0.353  20.375   1.379
14954W        W80115  32.043  24.037   0.369
14955W        W80116  42.806   8.069  14.978
14956W        W80117  28.025  20.311   4.111
14957W        W80118  43.997  39.159   3.296
14958W        W80119  16.385  20.809   0.928
14959W        W80120  29.128  14.585  11.988
14960W        W80121  39.721  15.851   3.857
14961W        W80122   6.321  32.890   0.307
14962W        W80123   3.796   8.759  13.624
14963W        W80124  25.642   2.085   4.890
14964W        W80125  36.872  19.299  11.313
14965W        W80126  22.644  25.382   1.702
14966W        W80127  19.524   2.703  12.466
14967W        W80128  21.027  33.059   1.327
14968W        W80129  20.346  26.566  12.546
14969W        W80130   7.578  28.012   1.958
14970W        W80131  20.294  11.859  12.861
14971W        W80132  36.071  40.640   2.217
14972W        W80133  38.961   8.977   4.157
14973W        W80134   1.676  13.645  14.876
14974W        W80135  39.587  18.736   2.677
14975W        W80136  38.828   5.297  10.265
14976W        W80137  31.047  21.476   3.529
14977W        W80138  34.402  35.296  12.777
14978W        W80139  29.633  22.275  13.770
14979W        W80140  28.680  32.709   2.400
14980W        W80141  38.615  13.349  13.266
14981W        W80142  18.449  22.809  14.947
14982W        W80143  24.683  35.833   4.130
14983W        W80144  19.887   1.722   0.472
14984W        W80145  18.077  19.627   3.662
14985W        W80146  36.108   8.909   3.127
14986W        W80147  36.355  44.674  13.895
14987W        W80148  27.317   1.784   0.450
14988W        W80149   1.202  27.973  11.077
14989W        W80150   1.187   5.291  11.122
14990W        W80151  21.280  22.537   0.803
14991W        W80152  15.741   6.952  13.889
14992W        W80153   5.385  39.155   0.734
14993W        W80154  41.775  42.727   1.843
14994W        W80155   7.271  21.808   0.842
14995W        W80156  32.326  42.334   2.318
14996W        W80157  15.730   9.375  12.407
14997W        W80158  33.985   0.714   0.641
14998W        W80159  44.940   8.361  14.932
14999W        W80160  36.299  22.933   1.234
15000W        W80161  36.763  29.676   0.217
15001W        W80162   9.058  19.255  14.112
15002W        W80163  25.043  34.547   1.001
15003W        W80164   6.450  18.306  14.481
15004W        W80165   9.632  35.800   2.662
15005W        W80166  42.462  36.617  12.324
15006W        W80167  10.374  30.970   3.725
15007W        W80168  44.446   3.354   1.911
15008W        W80169  12.820  20.907   0.937
15009W        W80170  41.841  14.053  11.146
15010W        W80171  14.807   4.929  11.361
15011W        W80172  38.347   7.266  14.051
15012W        W80173  31.916  10.435  11.575
15013W        W80174   8.145  22.108   3.345
15014W        W80175   6.352   7.381   4.081
15015W        W80176  14.632  41.021   3.708
15016W        W80177  12.603  21.119  11.660
15017W        W80178  27.529  10.132  14.223
15018W        W80179  38.868  10.022   3.073
15019W        W80180  31.502  29.755  13.754
15020W        W80181  30.132  29.875   1.383
15021W        W80182  42.057  36.104   3.743
15022W        W80183  10.722   6.038   1.284
15023W        W80184  27.195  11.878   1.001
15024W        W80185  25.461  15.728  14.618
15025W        W80186  10.368  37.963  11.120
15026W        W80187  36.390   8.483   3.143
15027W        W80188   3.018  25.797   1.623
15028W        W80189  10.121  42.298  12.024
15029W        W80190  14.304  35.341   1.886
15030W        W80191  20.036  20.578  13.035
15031W        W80192  15.781   2.913   1.229
15032W        W80193  22.779   3.201   4.096
15033W        W80194   3.247  24.668  13.885
15034W        W80195   6.861  35.056   2.346
15035W        W80196  42.452  34.921   4.150
15036W        W80197  31.633  20.354   2.989
15037W        W80198  43.399  33.193  13.647
15038W        W80199  44.968   9.079   2.779
15039W        W80200  13.874  21.656  12.472
15040W        W80201  33.735   3.870  12.969
15041W        W80202  44.982  44.815   4.546
15042W        W80203  40.955  27.662  11.524
15043W        W80204   0.308  40.432  12.514
15044W        W80205  18.204  27.573   4.652
15045W        W80206  25.744  44.877   3.135
15046W        W80207   9.896  44.854  14.520
15047W        W80208  19.581   3.981  13.928
15048W        W80209   2.970  37.859  14.362
15049W        W80210  39.328   9.372   4.748
15050W        W80211  29.181  42.608  13.839
15051W        W80212  13.230  14.809  14.813
15052W        W80213   9.336  22.441   4.559
15053W        W80214   7.153  40.916   0.494
15054W        W80215  15.232  27.742  11.010
15055W        W80216  43.139  24.770  11.140
15056W        W80217  31.268  31.775   2.835
15057W        W80218   5.606  31.065   4.175
15058W        W80219  28.848  30.170   0.950
15059W        W80220  42.100  36.966   3.248
15060W        W80221  44.394  24.503   3.674
15061W        W80222  37.159   9.380   1.753
15062W        W80223  35.717  36.926  11.008
15063W        W80224   6.724   8.486   0.900
15064W        W80225   6.200   8.428  14.799
15065W        W80226   5.958   9.221   2.800
15066W        W80227  12.331  20.660   4.519
15067W        W80228  10.155   4.009   2.909
15068W        W80229  29.647  18.175  14.089
15069W        W80230  22.772   2.813  13.113
15070W        W80231  29.020  33.761  13.012
15071W        W80232   2.415  44.499   2.360
15072W        W80233  28.711  31.632  12.512
15073W        W80234  11.763  34.012  12.176
15074W        W80235  36.949  39.992  11.512
15075W        W80236  27.793   5.200   4.974
15076W        W80237  42.863  25.550   1.560
15077W        W80238  19.583   7.405   3.220
15078W        W80239  10.532  24.799   0.844
15079W        W80240  41.109   2.939  11.652
15080W        W80241  40.021  43.530   1.990
15081W        W80242  10.807  22.532  14.811
15082W        W80243  24.715  23.880   4.513
15083W        W80244   4.346  28.851  13.957
15084W        W80245   8.341  22.522  13.324
15085W        W80246   9.416   9.236   1.345
15086W        W80247  34.617   6.878   4.656
15087W        W80248   7.954   9.457  11.273
15088W        W80249  13.627   6.028   4.202
15089W        W80250  34.078  15.279  13.280
15090W        W80251  28.117   2.044   3.258
15091W        W80252  20.517  22.459   4.664
15092W        W80253   4.852  43.951  13.045
15093W        W80254  23.257   0.520   4.161
15094W        W80255  10.076  40.928   2.865
15095W        W80256   7.235  28.428   0.284
15096W        W80257  28.470  35.318  13.039
15097W        W80258  19.115   8.451   1.435
15098W        W80259  15.325  36.455  12.913
15099W        W80260   6.707  33.634  10.647
15100W        W80261   1.780   7.161   3.705
15101W        W80262   3.657  39.139   0.048
15102W        W80263  18.472  30.114   1.808
15103W        W80264  30.683   1.792   2.432
15104W        W80265  24.700  13.048  12.197
15105W        W80266  24.498  21.574   4.119
15106W        W80267   2.878  44.227   3.087
15107W        W80268  35.515  10.456  12.484
15108W        W80269  20.951  11.233  14.591
15109W        W80270  15.920  15.594   3.259
15110W        W80271   9.890  18.996   2.702
15111W        W80272   2.543   4.317   4.982
15112W        W80273  25.970  42.050  14.954
15113W        W80274  38.878  21.201  13.714
15114W        W80275  36.660  29.528   3.689
15115W        W80276  13.168  17.082   1.859
15116W        W80277  32.902  36.431  13.563
15117W        W80278  19.059  34.449   3.733
15118W        W80279  11.358  34.964  12.998
15119W        W80280  34.826  36.331   4.339
15120W        W80281  21.151  34.470   4.242
15121W        W80282  15.360   5.741   2.691
15122W        W80283  33.629   7.023  14.840
15123W        W80284  27.523  21.281  12.158
15124W        W80285  22.579  34.100  12.504
15125W        W80286  43.281  14.698   3.931
15126W        W80287   2.240   1.791   4.853
15127W        W80288   7.760   4.220   4.671
15128W        W80289  43.762  21.202  11.630
15129W        W80290  14.273   9.399  11.588
15130W        W80291  17.098  27.131  13.018
15131W        W80292  29.460  14.545  12.408
15132W        W80293  26.106   9.862  13.395
15133W        W80294  28.585  20.744  13.044
15134W        W80295   9.807  25.211  13.003
15135W        W80296  32.031   0.462  14.236
15136W        W80297  14.867   8.650  13.933
15137W        W80298  13.306  21.231  14.914
15138W        W80299  35.106  20.575   2.720
15139W        W80300  40.255  33.106   0.250
15140W        W80301   6.121   0.783  11.572
15141W        W80302   7.754  36.583  11.398
15142W        W80303  40.392  31.090   0.051
15143W        W80304  37.125  40.652   4.164
15144W        W80305  30.103   1.287   1.388
15145W        W80306  43.052  39.459   3.285
15146W        W80307   7.945  18.713   3.725
15147W        W80308  21.693  25.785  11.488
15148W        W80309  31.199  36.428  11.642
15149W        W80310  41.070   0.406   0.020
15150W        W80311  22.040  28.876  12.058
15151W        W80312  17.739  15.327  14.497
15152W        W80313  16.820  25.535  11.618
15153W        W80314   0.442  34.882   3.435
15154W        W80315   1.375  18.137   3.177
15155W        W80316  44.515  39.794   0.968
15156W        W80317  44.393  25.037  14.069
15157W        W80318   7.423  24.987   1.399
15158W        W80319  12.751  28.885  10.811
15159W        W80320  28.475  26.727  13.235
15160W        W80321   7.528  13.159  14.295
15161W        W80322  33.839   6.729  11.646
15162W        W80323  21.390  43.429   0.660
15163W        W80324  32.409   5.919   1.786
15164W        W80325  37.610  33.870  14.624
15165W        W80326  36.197   1.704  14.730
15166W        W80327  38.941   0.875  10.848
15167W        W80328  39.262  18.224   2.767
15168W        W80329  30.610   9.751   1.324
15169W        W80330  35.968  44.506  14.801
15170W        W80331  15.100   5.612   2.253
15171W        W80332  43.294  25.968  11.095
15172W        W80333  10.085  39.485   1.739
15173W        W80334   3.735  42.879   0.278
15174W        W80335  19.664  29.566  14.858
15175W        W80336  14.572  28.994   0.194
15176W        W80337  33.644  28.994  10.770
15177W        W80338   8.361  44.849  11.079
15178W        W80339  44.733  33.186  14.842
15179W        W80340  26.910  24.268   5.385
15180W        W80341  23.814  36.780  11.260
15181W        W80342  39.964  23.308   2.397
15182W        W80343  11.317  31.457   0.415
15183W        W80344  16.161   3.008  14.692
15184W        W80345  21.362  15.603  10.951
15185W        W80346  31.833   3.888   1.489
15186W        W80347  17.552  33.454  12.524
15187W        W80348  43.430  10.499   4.580
15188W        W80349   1.035  25.258   1.810
15189W        W80350  13.803  30.245   2.146
15190W        W80351  42.786  40.487  11.607
15191W        W80352  25.797  36.008  10.612
15192W        W80353  36.134   5.562   1.748
15193W        W80354  16.794  20.550  12.186
15194W        W80355  42.770   3.239   3.050
15195W        W80356  18.619   9.382  13.121
15196W        W80357  23.286   3.294  13.586
15197W        W80358  44.795   1.449  14.447
15198W        W80359  36.641   2.361   0.725
15199W        W80360  31.637  25.471  10.972
15200W        W80361  21.754  24.648  13.484
15201W        W80362  37.408  41.968  13.377
15202W        W80363  13.541  17.822  13.450
15203W        W80364   0.821  30.923  14.845
15204W        W80365  23.810  40.567  13.368
15205W        W80366   4.857  31.150  11.071
15206W        W80367  20.830  25.821   0.471
15207W        W80368  39.442  15.497  10.651
15208W        W80369  19.727  28.145   1.891
15209W        W80370  14.060  20.548   2.861
15210W        W80371  37.063   8.768   4.494
15211W        W80372  14.533  29.128   3.391
15212W        W80373  30.154  40.735   2.581
15213W        W80374  28.959  13.645   3.036
15214W        W80375  22.401  21.278   9.947
15215W        W80376  33.329  32.933  14.963
15216W        W80377  30.695  18.785  13.088
15217W        W80378  23.590   0.686  12.027
15218W        W80379  23.472   4.438  13.892
15219W        W80380  16.727   2.398  10.633
15220W        W80381   3.736  21.536  14.304
15221W        W80382  22.702  26.370   1.768
15222W        W80383  20.278  41.555  10.810
15223W        W80384  13.086  28.265  13.793
15224W        W80385   6.360  21.657  14.837
15225W        W80386  10.554  17.177  13.501
15226W        W80387   7.411  34.323   4.089
15227W        W80388  26.464   8.785   4.358
15228W        W80389  11.851   3.413   3.522
15229W        W80390   3.138  25.787  10.537
15230W        W80391   4.178  14.387   4.606
15231W        W80392  26.973  23.297   3.646
15232W        W80393  23.576  40.897   3.768
15233W        W80394  43.317  44.739   4.123
15234W        W80395   5.705  41.522  10.884
15235W        W80396  41.967  43.310  13.491
15236W        W80397   0.806   6.250   1.376
15237W        W80398   9.317   2.960  14.619
15238W        W80399  20.129  36.376   2.708
15239W        W80400  39.532  14.288   2.891
15240W        W80401  12.307   9.794   1.738
15241W        W80402  13.887  22.754  13.416
15242W        W80403   5.210   6.971  10.687
15243W        W80404  23.684  21.118   4.041
15244W        W80405  38.571  11.476  11.897
15245W        W80406  12.290  29.684   2.768
15246W        W80407  43.972  15.787  11.098
15247W        W80408  23.944  32.081  14.962
15248W        W80409   3.340  12.623  13.091
15249W        W80410  14.792  32.023   2.834
15250W        W80411  39.796  18.344  12.194
15251W        W80412  20.335  21.311  14.716
15252W        W80413  12.091  40.754  12.394
15253W        W80414  17.905  24.170   4.821
15254W        W80415   1.234  28.051   4.899
15255W        W80416   3.141  29.003  14.449
15256W        W80417  12.154  12.469   0.997
15257W        W80418   9.848  31.117  10.928
15258W        W80419  44.894  32.304   2.322
15259W        W80420  37.835  23.754  12.102
15260W        W80421  30.869  23.957   0.334
15261W        W80422   5.981  43.324   0.863
15262W        W80423  43.283  40.313   0.835
15263W        W80424  11.139   4.261  12.807
15264W        W80425   2.446  38.595   4.661
15265W        W80426  28.151  31.118  11.954
15266W        W80427   6.957   7.391  12.531
15267W        W80428  40.621  39.593   3.607
15268W        W80429  33.464   0.195  10.986
15269W        W80430  29.515  29.653  13.385
15270W        W80431  41.088  22.209  14.476
15271W        W80432  27.557  39.554  11.986
15272W        W80433  42.822  13.761  13.438
15273W        W80434  23.739  43.472  13.202
15274W        W80435   1.914  16.500  10.645
15275W        W80436   2.972   2.881  14.896
15276W        W80437  13.231  40.168   1.968
15277W        W80438  29.400  25.151   0.510
15278W        W80439  16.561  23.679  14.840
15279W        W80440  13.324  25.876   0.765
15280W        W80441  12.842  41.111  14.927
15281W        W80442   1.370  28.486   1.994
15282W        W80443   0.803  44.421   2.235
15283W        W80444  40.366   7.671  13.586
15284W        W80445  44.495  40.819   1.856
15285W        W80446   2.048  14.808  13.943
15286W        W80447  20.733  37.670  10.329
15287W        W80448   9.341  14.569  12.786
15288W        W80449  34.756  35.436   2.894
15289W        W80450  30.645   5.019  13.463
15290W        W80451  29.243   2.325  11.229
15291W        W80452   4.884   5.409  11.515
15292W        W80453  22.491  35.454   1.496
15293W        W80454  32.547   9.747   0.343
15294W        W80455  14.787  18.599   1.991
15295W        W80456  18.761  16.648  12.195
15296W        W80457  12.688   3.192  11.228
15297W        W80458  41.388  12.175   1.789
15298W        W80459   3.253  31.985  12.549
15299W        W80460  19.020  28.690   2.778
15300W        W80461  32.698   6.405  14.338
15301W        W80462  34.282  19.815   4.064
15302W        W80463  44.359  11.603   2.300
15303W        W80464   5.291   6.786   3.998
15304W        W80465   8.207  11.599  14.667
15305W        W80466  25.800  37.489  10.719
15306W        W80467   0.359   8.944  11.130
15307W        W80468  14.626  33.013   4.283
15308W        W80469  33.890   0.497  12.903
15309W        W80470  42.875  17.671  11.641
15310W        W80471  37.378  44.975   2.292
15311W        W80472  12.642   3.036  14.292
15312W        W80473  19.249  17.752   4.190
15313W        W80474  37.047  22.379   1.792
15314W        W80475  15.823  30.802   2.070
15315W        W80476  28.064  43.841   0.910
15316W        W80477   8.707  32.869  14.935
15317W        W80478   6.094  12.703   5.000
15318W        W80479  41.659   0.031   0.117
15319W        W80480   5.721  25.241  11.127
15320W        W80481  21.487  10.235   1.394
15321W        W80482   6.692  37.697   2.881
15322W        W80483  30.257  19.133  11.351
15323W        W80484  12.082   9.039  14.810
15324W        W80485   5.095   2.539   1.736
15325W        W80486  40.018  42.056  12.807
15326W        W80487  18.580  30.634  11.308
15327W        W80488  30.078  21.678  10.707
15328W        W80489  21.733  35.839  10.474
15329W        W80490  23.473  10.752   2.868
15330W        W80491  32.813   9.222  13.963
15331W        W80492  27.680  34.225   0.240
15332W        W80493  43.861  26.143   0.521
15333W        W80494  16.628  44.520  11.607
15334W        W80495  34.563  35.799   0.452
15335W        W80496  34.657  38.282  13.909
15336W        W80497   6.807  38.439   4.598
15337W        W80498  19.033  16.127  13.790
15338W        W80499  12.349  34.960   3.702
15339W        W80500  28.644   7.015  14.218
15340W        W80501  31.209  17.147   0.681
15341W        W80502  25.705  13.072   1.835
15342W        W80503  37.812  22.082   0.250
15343W        W80504  40.254   2.219   3.294
15344W        W80505  43.891  28.742   2.849
15345W        W80506   2.154  36.034   3.857
15346W        W80507  37.087  34.144  12.620
15347W        W80508   5.710  35.599  10.634
15348W        W80509   8.898   7.828  14.917
15349W        W80510   9.440  27.234  12.428
15350W        W80511  28.218  17.135   2.827
15351W        W80512  20.814  33.664  10.733
15352W        W80513  40.797   4.791  13.102
15353W        W80514  25.502  24.388   0.650
15354W        W80515   6.873  24.973  11.440
15355W        W80516  33.586  30.670   2.257
15356W        W80517   2.469  15.083   4.174
15357W        W80518   6.860  42.798  14.081
15358W        W80519  20.095  36.609   0.295
15359W        W80520  12.152  21.107  11.406
15360W        W80521  11.829  43.063   2.417
15361W        W80522  26.530   5.171  11.095
15362W        W80523  39.277  42.769   2.669
15363W        W80524  21.247   8.241   3.653
15364W        W80525   0.520  27.063   4.010
15365W        W80526  33.935   4.923  12.199
15366W        W80527  19.999  32.697   3.117
15367W        W80528   7.875  31.775   0.035
15368W        W80529  40.816  16.057   0.745
15369W        W80530   1.212  18.343  14.906
15370W        W80531   9.538  12.398  11.190
15371W        W80532  43.357   0.164   1.380
15372W        W80533  19.678   7.312  14.386
15373W        W80534   6.633   4.431   1.805
15374W        W80535  42.016  33.929   0.458
15375W        W80536  30.791  32.530  13.858
15376W        W80537  43.178  22.512   0.275
15377W        W80538  35.245  33.574   4.476
15378W        W80539  13.420  27.581   4.837
15379W        W80540  16.375  14.076   5.024
15380W        W80541  23.062   9.779  11.121
15381W        W80542  19.691  36.041  11.629
15382W        W80543   5.340  24.611   1.781
15383W        W80544  11.788  35.437   2.085
15384W        W80545   2.901  15.273  14.122
15385W        W80546   3.465  16.151   3.205
15386W        W80547  36.439  28.650  11.946
15387W        W80548  41.218  33.902  13.322
15388W        W80549  30.833  41.310  12.980
15389W        W80550   2.996  28.185   2.404
15390W        W80551  33.982  35.894  13.041
15391W        W80552  21.742   5.775  11.786
15392W        W80553  26.601  19.599  10.534
15393W        W80554   9.698   7.918  13.458
15394W        W80555   2.693  34.990  11.476
15395W        W80556  36.973  32.384  11.100
15396W        W80557  27.757  33.036   4.320
15397W        W80558  25.950  34.646   4.873
15398W        W80559  27.276  33.463   3.231
15399W        W80560  13.773  31.013   2.741
15400W        W80561  29.955  38.903   2.490
15401W        W80562  34.709  42.008  13.582
15402W        W80563   3.093  10.682  13.839
15403W        W80564  21.064  27.610   1.772
15404W        W80565   4.802  10.398  11.089
15405W        W80566  37.775   6.593   2.785
15406W        W80567  27.136  26.034   0.226
15407W        W80568  32.930  16.053   3.621
15408W        W80569  42.545  40.558  14.481
15409W        W80570  39.515  38.259  13.934
15410W        W80571   9.826  24.581   4.424
15411W        W80572  41.668  29.369   1.693
15412W        W80573  35.626  27.281  14.000
15413W        W80574  19.240  10.140   2.781
15414W        W80575   0.069  26.214  13.846
15415W        W80576   5.408  28.833   1.656
15416W        W80577  42.263  13.790   2.143
15417W        W80578  24.208  34.472  13.912
15418W        W80579  24.204  24.522  12.849
15419W        W80580  14.141  43.946   4.039
15420W        W80581  19.070  42.813  14.766
15421W        W80582  44.387  33.329   1.317
15422W        W80583   8.909  38.011   2.820
15423W        W80584   0.911   6.934   1.819
15424W        W80585  30.632  21.995   0.633
15425W        W80586   6.276  41.547  12.572
15426W        W80587  12.152  33.857  12.947
15427W        W80588  34.025  37.436  12.620
15428W        W80589  37.018  18.485  11.121
15429W        W80590  42.095  30.652  10.318
15430W        W80591  43.301  15.694  13.412
15431W        W80592   0.022   8.504   2.228
15432W        W80593  40.775   2.408  13.616
15433W        W80594  19.682  42.545  11.718
15434W        W80595  11.705  21.829   2.782
15435W        W80596  12.776   0.229   4.167
15436W        W80597  24.944   6.731  12.129
15437W        W80598   2.899  16.001  12.489
15438W        W80599  33.485  34.923  14.500
15439W        W80600  37.882  14.334  14.733
15440W        W80601  19.179  29.412  14.067
15441W        W80602   5.565   4.657  11.596
15442W        W80603  18.261  27.515   0.311
15443W        W80604  43.455  22.469  14.838
15444W        W80605  37.484   8.893  10.811
15445W        W80606  23.108  10.429   1.819
15446W        W80607  18.797  20.497   3.210
15447W        W80608  41.467  43.104  14.619
15448W        W80609  31.526  35.591  13.494
15449W        W80610  35.161  19.035   3.247
15450W        W80611  21.041  34.472  12.045
15451W        W80612  32.583  17.791  14.886
15452W        W80613  27.109  38.837  14.393
15453W        W80614  29.169  28.196   0.345
15454W        W80615   4.655  26.296   1.779
15455W        W80616  33.090  26.368  13.293
15456W        W80617  16.437  41.240  14.046
15457W        W80618   3.001   8.270   2.183
15458W        W80619  24.811  37.820  12.446
15459W        W80620   5.726  31.410  12.577
15460W        W80621  39.751  13.840  11.586
15461W        W80622  22.040   4.040   4.927
15462W        W80623  35.015  18.143  11.717
15463W        W80624   8.348   4.072  10.666
15464W        W80625  30.251  29.009   2.820
15465W        W80626   0.843   4.902  11.240
15466W        W80627  14.785   4.918  13.897
15467W        W80628   3.156  32.818  12.146
15468W        W80629  42.048  28.230   2.687
15469W        W80630   6.341  40.933   1.702
15470W        W80631   0.101  19.501  13.391
15471W        W80632  35.109   7.424   2.672
15472W        W80633   7.280  22.583  13.212
15473W        W80634  24.630   4.627   0.692
15474W        W80635  38.457   8.763   2.076
15475W        W80636  17.473  30.672   3.318
15476W        W80637  31.256  42.451   0.195
15477W        W80638  26.575  44.982  12.136
15478W        W80639  11.601  15.793   1.176
15479W        W80640   1.660  21.754   3.294
15480W        W80641  42.873  18.145   4.190
15481W        W80642  21.966  30.469  11.862
15482W        W80643  18.667  42.989   3.277
15483W        W80644  23.460  19.142   3.570
15484W        W80645   4.780  17.328  14.916
15485W        W80646  12.364   1.341  10.679
15486W        W80647  24.468  28.258   1.737
15487W        W80648   0.935   1.312  10.750
15488W        W80649  40.446  15.682   4.114
15489W        W80650  20.107   9.772  14.807
15490W        W80651  34.029   2.739   1.934
15491W        W80652  42.833  22.124  11.149
15492W        W80653   1.513  21.001   0.454
15493W        W80654   9.181  11.440   0.073
15494W        W80655  11.364  24.290   1.632
15495W        W80656  23.072   6.573   2.782
15496W        W80657  11.935  21.401   1.222
15497W        W80658  24.976   9.178  12.505
15498W        W80659  10.661   5.094  12.690
15499W        W80660  29.903  29.736  12.037
15500W        W80661  15.555  13.682  14.843
15501W        W80662  12.832   4.979   4.584
15502W        W80663  39.371  11.738   1.721
15503W        W80664  36.598  26.031   4.930
15504W        W80665  27.423   7.115   3.039
15505W        W80666  20.050   6.943   2.398
15506W        W80667  16.993   3.926  14.510
15507W        W80668  30.152  17.300   1.868
15508W        W80669  25.163  15.704   1.325
15509W        W80670   4.819  26.073   1.336
15510W        W80671  26.846  44.298   0.313
15511W        W80672   8.660  29.821  14.471
15512W        W80673   3.693  41.488   4.937
15513W        W80674  14.829  16.549   0.275
15514W        W80675   1.762  23.868  14.459
15515W        W80676  16.562  10.797  12.914
15516W        W80677  13.075  31.862  14.371
15517W        W80678  27.631  18.725   1.238
15518W        W80679  34.529  29.251   3.221
15519W        W80680  32.659  35.488   1.773
15520W        W80681  34.509  16.829  11.580
15521W        W80682  35.536  14.668   0.205
15522W        W80683  28.639  27.656  12.429
15523W        W80684  40.001  16.371   4.535
15524W        W80685  42.993  22.017   2.330
15525W        W80686  11.369  19.341   4.073
15526W        W80687   0.501  12.500  14.448
15527W        W80688  10.233  26.553  12.270
15528W        W80689   5.145  36.984  13.032
15529W        W80690  24.796  43.777   1.306
15530W        W80691  33.107  33.344  12.582
15531W        W80692  18.298  33.624  13.795
15532W        W80693  23.544  14.447   0.407
15533W        W80694  35.365  28.858  11.804
15534W        W80695  24.784  22.419   1.330
15535W        W80696   9.087  26.920  12.913
15536W        W80697   2.362   3.189  10.405
15537W        W80698  21.614   0.907   0.403
15538W        W80699  44.361  23.504   1.384
15539W        W80700  21.559  29.373  11.105
15540W        W80701   8.650  40.865  11.752
15541W        W80702  27.764  23.792  11.477
15542W        W80703  33.063   2.911   1.425
15543W        W80704  42.387  38.207   2.251
15544W        W80705   5.658  34.925  14.031
15545W        W80706  38.591  37.055  13.336
15546W        W80707  22.556   2.767   4.298
15547W        W80708  37.394  25.214   0.587
15548W        W80709  23.290   9.129   0.851
15549W        W80710  37.978  16.761  14.990
15550W        W80711  20.977  34.905   2.390
15551W        W80712  11.304  17.260   4.504
15552W        W80713  37.804  27.107  14.762
15553W        W80714   0.841  24.678   3.634
15554W        W80715  22.715   6.730  11.578
15555W        W80716  21.331   5.788  12.096
15556W        W80717  30.902  33.182  12.067
15557W        W80718  28.120  14.200   1.857
15558W        W80719  14.348  41.495  11.037
15559W        W80720   2.641  27.488   1.770
15560W        W80721   8.298  13.206   1.155
15561W        W80722  22.977  18.561  12.982
15562W        W80723  12.157  21.641   3.484
15563W        W80724  11.013  33.569  13.083
15564W        W80725   5.358  14.833   1.394
15565W        W80726  20.822  16.140  10.532
15566W        W80727  25.954  25.480  14.032
15567W        W80728  40.419  34.443   0.472
15568W        W80729  41.547  35.393  12.908
15569W        W80730  25.217   1.985  11.605
15570W        W80731  12.091  27.874  13.811
15571W        W80732  19.539  25.151  12.530
15572W        W80733   9.149  33.354   1.814
15573W        W80734  38.563   2.721   3.865
15574W        W80735  37.665  33.306   4.072
15575W        W80736  11.917   2.728   1.353
15576W        W80737  36.415   7.898   4.540
15577W        W80738  17.878  16.846  12.673
15578W        W80739  23.500  35.802   4.575
15579W        W80740  31.759   3.989   4.303
15580W        W80741  22.323   7.486  14.282
15581W        W80742  44.055  19.580   3.166
15582W        W80743  28.029  35.227   0.283
15583W        W80744  24.696  26.695  13.097
15584W        W80745  18.799  24.613  14.394
15585W        W80746   1.883  23.299  14.734
15586W        W80747  33.442  26.805   0.171
15587W        W80748   0.960   9.599  11.653
15588W        W80749  17.624  10.839  12.967
15589W        W80750  20.113  20.658   0.507
15590W        W80751   0.451  20.948  13.416
15591W        W80752  41.356  13.624   2.208
15592W        W80753  36.993  31.644   0.006
15593W        W80754  44.424   9.368   3.608
15594W        W80755  19.260  16.055   4.994
15595W        W80756  38.892   5.333  14.950
15596W        W80757  25.733  36.413  12.343
15597W        W80758  29.673  12.181   1.801
15598W        W80759  19.252  32.399  12.848
15599W        W80760  42.790  25.972   4.099
15600W        W80761  44.964  21.697   3.242
15601W        W80762  25.677  13.185  12.149
15602W        W80763  36.773  11.738  12.459
15603W        W80764  14.220  38.390  11.920
15604W        W80765   7.293   4.703  11.216
15605W        W80766  11.141  38.582  11.158
15606W        W80767  12.235  36.360  12.818
15607W        W80768   5.205  22.144   2.739
15608W        W80769  17.639  43.752  11.076
15609W        W80770   0.142  21.250   3.663
15610W        W80771  38.035   3.764  12.059
15611W        W80772  11.209  13.593   3.166
15612W        W80773  15.680  41.971   3.781
15613W        W80774  39.931  34.747  14.621
15614W        W80775  18.824  29.694   0.424
15615W        W80776  33.440  43.423  13.892
15616W        W80777   6.894  44.331  14.232
15617W        W80778  20.208  10.225   2.268
15618W        W80779  11.107  34.969   3.266
15619W        W80780  12.799  32.974   4.793
15620W        W80781  10.944  21.004  12.180
15621W        W80782  27.524  25.599   1.570
15622W        W80783  17.593   6.203   4.336
15623W        W80784  16.504  15.648   3.006
15624W        W80785  14.713   8.252  10.672
15625W        W80786  32.766  24.012  14.803
15626W        W80787  43.563  34.539   5.035
15627W        W80788  38.541  32.685  10.752
15628W        W80789   0.976   7.855  14.614
15629W        W80790  41.383   5.390  12.910
15630W        W80791  10.906  16.021  14.930
15631W        W80792   3.939  11.441  13.314
15632W        W80793   9.587  13.636   4.697
15633W        W80794  41.965  18.884  14.942
15634W        W80795  33.329   3.421   5.050
15635W        W80796  30.411  25.622  14.303
15636W        W80797   3.436   7.378   0.698
15637W        W80798  29.700   5.981  11.613
15638W        W80799   1.654  43.865  12.917
15639W        W80800  44.401  17.179  11.675
15640W        W80801  16.668  23.405   3.526
15641W        W80802  12.104  15.705   1.226
15642W        W80803   4.110  40.221  11.960
15643W        W80804  14.819  44.818  12.124
15644W        W80805  27.552   7.903  10.693
15645W        W80806  25.053  32.837   3.168
15646W        W80807  39.044   8.328   0.734
15647W        W80808  21.729  29.074   0.868
15648W        W80809  37.325   1.786  12.453
15649W        W80810   4.648   0.047  14.793
15650W        W80811  19.333  10.847   0.432
15651W        W80812  15.579   5.043  13.395
15652W        W80813  32.087  24.167   2.788
15653W        W80814  27.116  44.748   2.809
15654W        W80815  37.450  24.517   3.249
15655W        W80816  23.258  26.157   2.472
15656W        W80817   9.081  23.526  14.028
15657W        W80818  18.213  16.125  12.472
15658W        W80819  34.882  24.217   2.691
15659W        W80820  14.178  20.876  13.821
15660W        W80821   7.127  10.233   3.456
15661W        W80822  34.134  29.267   1.463
15662W        W80823  34.838  11.624   3.506
15663W        W80824   1.333  44.005   4.158
15664W        W80825  43.320  24.179  11.790
15665W        W80826  39.745   1.516   1.648
15666W        W80827  22.185   5.284  12.335
15667W        W80828  25.708  27.824   2.299
15668W        W80829  17.603  19.017   2.223
15669W        W80830  31.576  43.472   4.431
15670W        W80831  15.058   1.057  14.347
15671W        W80832  42.851   2.917  12.939
15672W        W80833  44.322  26.127  13.118
15673W        W80834  32.624  17.817   4.771
15674W        W80835  40.028  44.625   1.283
15675W        W80836  19.151  10.351  11.607
15676W        W80837  37.150  42.407  10.589
15677W        W80838   6.576   6.200  13.355
15678W        W80839  20.807  25.958  13.238
15679W        W80840  43.063  16.667  14.132
15680W        W80841  34.427  23.628  11.593
15681W        W80842  38.301  37.351   4.129
15682W        W80843  42.635  39.883   0.088
15683W        W80844   9.729  12.146   3.160
15684W        W80845  13.275  25.657  13.519
15685W        W80846  36.482  40.859   3.930
15686W        W80847  17.687  43.002  12.430
15687W        W80848  21.631  30.154   1.698
15688W        W80849  26.058   3.992   2.757
15689W        W80850  32.421  26.145   1.914
15690W        W80851  20.315  24.559   1.773
15691W        W80852   1.359  14.708   3.925
15692W        W80853   6.276  23.067  14.094
15693W        W80854  27.224  21.609   4.464
15694W        W80855  29.553  13.779   3.296
15695W        W80856  28.668   8.657   0.066
15696W        W80857  41.806  22.259  14.016
15697W        W80858  30.613  39.311   3.277
15698W        W80859  39.997  39.283   4.509
15699W        W80860  17.155  28.251   4.480
15700W        W80861  26.740   5.782   1.473
15701W        W80862  23.716  40.634  14.901
15702W        W80863  26.462  44.707   1.744
15703W        W80864  18.567  25.081  12.491
15704W        W80865  38.128   5.681   1.895
15705W        W80866  20.176   8.723  10.653
15706W        W80867  35.974  32.867  11.185
15707W        W80868  19.482  35.281   2.287
15708W        W80869  40.073  29.143  12.533
15709W        W80870  22.578  20.056  13.077
15710W        W80871  44.683  15.502   1.335
15711W        W80872  19.070  43.001   1.734
15712W        W80873   0.455  33.593   1.700
15713W        W80874  26.609   3.890  13.017
15714W        W80875   6.235  25.976  14.329
15715W        W80876  42.714   9.342   3.244
15716W        W80877  40.395  28.361  14.367
15717W        W80878   5.387  14.386  12.907
15718W        W80879  12.303  39.102   0.811
15719W        W80880   3.155  30.603  13.889
15720W        W80881   6.441  21.286   3.961
15721W        W80882  31.386  41.904  12.973
15722W        W80883  18.498  15.790  11.584
15723W        W80884  44.721  17.202   4.884
15724W        W80885   7.915  18.609   2.271
15725W        W80886  21.141  12.412  14.502
15726W        W80887  35.846  31.609   3.135
15727W        W80888  33.946  18.198   0.452
15728W        W80889  12.523   0.344   3.703
15729W        W80890  17.308   2.926   2.196
15730W        W80891  34.170  19.321   3.227
15731W        W80892  32.314  14.349   2.766
15732W        W80893  31.523  13.217  13.785
15733W        W80894  44.423  42.411  14.474
15734W        W80895  22.449  42.698  12.509
15735W        W80896   7.968  35.412   0.351
15736W        W80897  33.926  33.849   1.995
15737W        W80898  40.994   6.319  14.545
15738W        W80899  25.809  11.717  11.192
15739W        W80900  23.731  44.330   1.817
15740W        W80901  30.474  36.823  14.348
15741W        W80902  32.846  25.632  14.426
15742W        W80903  36.631  28.910   1.400
15743W        W80904  24.847   8.843   0.393
15744W        W80905  24.531   2.367  12.652
15745W        W80906   9.674  23.991   1.884
15746W        W80907  26.540  39.087  14.418
15747W        W80908  31.899  43.009   0.461
15748W        W80909  24.585  19.497  11.619
15749W        W80910  39.026  25.556   1.511
15750W        W80911  17.375  26.857   2.780
15751W        W80912  43.793   1.320   1.726
15752W        W80913  31.985  23.338  12.522
15753W        W80914  42.902  17.114  10.882
15754W        W80915  17.189  37.130   4.647
15755W        W80916  24.671  34.366  13.093
15756W        W80917  44.809  19.097  13.890
15757W        W80918  36.433  38.425   1.917
15758W        W80919   6.047  10.534  12.428
15759W        W80920  30.472  42.669   3.258
15760W        W80921  24.964  24.679   4.201
15761W        W80922  22.220  35.400   2.459
15762W        W80923  33.619   7.465  13.349
15763W        W80924  39.347  29.947  10.714
15764W        W80925  40.329  10.079  11.169
15765W        W80926   4.910  17.878   2.355
15766W        W80927   6.904  39.986  13.345
15767W        W80928   7.329   6.647  13.782
15768W        W80929   5.248   6.461  10.754
15769W        W80930  16.856  11.866   0.120
15770W        W80931   5.370   9.768   0.273
15771W        W80932  44.956  33.213   3.398
15772W        W80933  19.794   1.850  10.571
15773W        W80934  28.902  20.213  14.528
15774W        W80935   3.441   8.174  14.314
15775W        W80936  25.795  30.640   2.209
15776W        W80937  42.836  13.186   4.111
15777W        W80938  36.062  17.697  13.234
15778W        W80939  29.611  12.995  14.413
15779W        W80940  16.188  43.510   9.680
15780W        W80941   0.274  44.967   1.947
15781W        W80942  20.436  43.530   3.315
15782W        W80943  21.581  31.182  11.925
15783W        W80944  43.204  19.068  12.983
15784W        W80945  34.743   5.381   0.962
15785W        W80946  23.011   9.606   3.213
15786W        W80947  11.130  42.234  13.372
15787W        W80948   2.681  37.132   5.484
15788W        W80949   8.679  34.605  13.457
15789W        W80950  33.045  31.355   4.268
15790W        W80951  22.275  15.016  11.852
15791W        W80952  13.380  32.540   2.450
15792W        W80953  28.021  41.848   1.310
15793W        W80954  41.648  10.957  14.803
15794W        W80955   1.743  18.863  11.127
15795W        W80956   4.240   1.508   4.688
15796W        W80957   7.272  39.111   4.945
15797W        W80958  33.018  17.504  13.890
15798W        W80959  10.112   1.777   1.262
15799W        W80960  14.578  37.114   2.892
15800W        W80961  13.692  19.420   0.064
15801W        W80962  25.698   4.344   3.164
15802W        W80963  15.579  33.767  12.376
15803W        W80964  20.074  17.689   1.264
15804W        W80965  44.016  32.174  14.355
15805W        W80966  15.135  30.824  14.357
15806W        W80967  33.036  36.506   3.573
15807W        W80968   6.690  27.176   1.906
15808W        W80969  22.216  11.666  14.250
15809W        W80970  18.746  27.790   4.560
15810W        W80971  10.290  23.666  13.200
15811W        W80972  25.445   9.314   3.145
15812W        W80973  21.286  21.110  14.701
15813W        W80974  41.583  10.877   3.747
15814W        W80975   5.007  24.669   4.132
15815W        W80976  20.776  25.363   5.022
15816W        W80977  36.401  41.468   1.495
15817W        W80978  28.478  19.508   4.161
15818W        W80979  18.650  26.571   3.188
15819W        W80980   3.242  38.843   4.175
15820W        W80981  12.889  23.623   2.635
15821W        W80982  11.779  24.754   0.538
15822W        W80983  19.844   7.310  11.597
15823W        W80984  26.390  41.343  12.812
15824W        W80985  13.266  19.955  12.619
15825W        W80986  44.830  39.990   2.743
15826W        W80987   6.200  32.072  12.904
15827W        W80988  12.782  38.904  14.747
15828W        W80989  11.874  33.976   4.281
15829W        W80990  13.706  24.481   4.117
15830W        W80991  44.931  25.742  13.649
15831W        W80992  20.156  27.924   2.827
15832W        W80993   9.839  13.633  11.582
15833W        W80994  10.361   6.240  10.520
15834W        W80995  30.691  34.395   2.200
15835W        W80996  15.133  14.168  11.386
15836W        W80997  34.580  20.305   0.071
15837W        W80998   6.319  32.608  14.882
15838W        W80999  27.976   4.933  14.165
15839W        W81000  32.751  34.407   0.440
15840W        W81001   2.847   3.843  10.710
15841W        W81002  22.737   3.876   4.616
15842W        W81003  17.474  34.808   2.826
15843W        W81004  16.690   1.861  11.651
15844W        W81005   7.232   8.352   3.769
15845W        W81006  10.234  43.494   0.870
15846W        W81007   0.825   2.191   2.287
15847W        W81008  22.679  28.694  14.085
15848W        W81009   4.198  17.494  14.872
15849W        W81010   6.314   0.766  13.316
15850W        W81011   9.102  26.237   3.573
15851W        W81012   2.058  30.706   3.135
15852W        W81013  38.874  42.496  13.122
15853W        W81014   1.539   6.371   3.785
15854W        W81015  28.065   7.358  12.523
15855W        W81016  21.508  32.468  13.863
15856W        W81017  24.943  35.096  13.765
15857W        W81018  34.070   9.395   4.085
15858W        W81019  27.491  43.799  11.181
15859W        W81020  21.721   9.917   3.335
15860W        W81021  25.482  16.750   3.887
15861W        W81022  18.723  21.007   1.013
15862W        W81023  30.358  16.596  14.747
15863W        W81024   2.706   5.786   3.359
15864W        W81025  40.299  14.589  13.388
15865W        W81026   0.490   5.175   1.479
15866W        W81027   1.756  41.567   0.755
15867W        W81028  42.982   8.254   2.171
15868W        W81029  33.556  41.927   2.336
15869W        W81030  23.090   9.272  12.049
15870W        W81031  36.755  36.250   2.286
15871W        W81032  33.004  34.749   0.747
15872W        W81033  29.889   6.571   0.875
15873W        W81034  44.041  15.280  11.085
15874W        W81035   2.284  32.638   1.741
15875W        W81036   5.400  24.196  13.064
15876W        W81037  33.307   8.693  12.294
15877W        W81038   6.817  23.245  11.070
15878W        W81039   5.205  23.785  12.788
15879W        W81040  12.756   7.700   2.661
15880W        W81041  27.719  13.093  11.109
15881W        W81042  24.134  30.578  14.592
15882W        W81043  11.881   4.667   3.750
15883W        W81044  12.305  41.325   3.251
15884W        W81045  26.863  30.132  13.974
15885W        W81046  35.799  14.118   2.327
15886W        W81047  44.466  40.249   4.579
15887W        W81048  17.408  13.870  11.228
15888W        W81049  39.291   4.261   1.916
15889W        W81050   9.242  14.134  13.456
15890W        W81051   1.496  19.272   3.246
15891W        W81052   9.092  17.854   2.643
15892W        W81053  21.117  39.475   3.126
15893W        W81054  36.398  21.597   0.754
15894W        W81055  26.101   6.100   4.514
15895W        W81056  37.089  16.268  12.419
15896W        W81057  16.180  32.269   0.300
15897W        W81058   8.969  20.109  14.002
15898W        W81059  18.911  21.361  10.365
15899W        W81060   0.824  26.177   4.379
15900W        W81061  37.943  27.989   0.844
15901W        W81062   9.284  37.525   0.982
15902W        W81063   8.548   3.694  12.884
15903W        W81064  37.270  36.933  12.010
15904W        W81065  43.867  12.972   0.723
15905W        W81066  27.501  22.742   2.023
15906W        W81067  15.696  34.855   0.810
15907W        W81068   7.035  35.365   2.783
15908W        W81069  14.124  39.754   3.440
15909W        W81070   0.819  38.064   2.185
15910W        W81071  16.249  36.570   2.774
15911W        W81072   5.691  34.187   1.483
15912W        W81073  28.530   4.674   4.932
15913W        W81074   4.172  16.666   4.171
15914W        W81075  31.364  35.156   0.085
15915W        W81076  31.626  23.592  11.967
15916W        W81077  32.084  18.051  12.122
15917W        W81078   5.914  25.541   0.749
15918W        W81079   7.689  15.180   3.836
15919W        W81080   4.933  16.838  11.538
15920W        W81081  40.962  43.212   0.501
15921W        W81082  18.807  41.449   2.840
15922W        W81083   7.987   6.576   3.030
15923W        W81084  36.039  33.489   2.432
15924W        W81085  23.912  32.137   2.295
15925W        W81086  42.510  13.905  12.506
15926W        W81087  37.901  11.122  12.154
15927W        W81088   6.944  36.644   1.443
15928W        W81089  37.280   0.256  14.050
15929W        W81090  30.707  23.175  14.856
15930W        W81091  23.213   0.622  12.646
15931W        W81092  32.243  24.575  13.449
15932W        W81093  20.408  35.707  11.124
15933W        W81094  42.163  41.350   2.695
15934W        W81095  41.952  42.932   0.402
15935W        W81096  17.046   1.989  11.302
15936W        W81097   2.344  29.725  10.399
15937W        W81098  18.303  32.452   3.657
15938W        W81099  18.298  10.840   0.459
15939W        W81100  13.802  42.967  11.034
15940W        W81101  28.546  12.725  12.169
15941W        W81102  44.469  26.027   2.616
15942W        W81103  42.852  43.005   3.692
15943W        W81104  42.777  26.971   1.747
15944W        W81105  28.971  17.089   0.701
15945W        W81106  43.610  25.496   4.030
15946W        W81107  28.588   8.081  11.491
15947W        W81108  37.978  29.134   1.444
15948W        W81109   1.658  19.588   0.810
15949W        W81110  21.647  30.108  11.605
15950W        W81111  28.553  10.541   4.181
15951W        W81112  43.797  41.598   3.180
15952W        W81113  25.692   7.846   0.288
15953W        W81114  37.857  34.826   2.914
15954W        W81115  15.137  12.395   2.411
15955W        W81116  18.741  14.868  14.768
15956W        W81117  44.847  42.606  11.184
15957W        W81118   9.667  29.938   2.752
15958W        W81119   7.480   6.817  14.737
15959W        W81120  43.274  26.609   0.917
15960W        W81121   7.321  13.164  14.767
15961W        W81122  21.736   8.751  10.725
15962W        W81123  37.318  33.052  11.681
15963W        W81124   1.727  37.626   0.568
15964W        W81125  10.907   2.441  13.422
15965W        W81126  30.461  10.807   1.176
15966W        W81127   3.358   8.473  13.032
15967W        W81128  21.010  44.191   3.307
15968W        W81129  31.153  35.447  14.715
15969W        W81130  32.642  34.415  14.100
15970W        W81131  33.359   7.624   0.903
15971W        W81132   2.444  22.245   3.724
15972W        W81133  12.233  24.435   3.255
15973W        W81134   7.749   5.849  12.676
15974W        W81135  14.910  17.742   2.172
15975W        W81136  40.324  10.832   2.956
15976W        W81137  34.445  39.881   2.839
15977W        W81138  12.808   1.370  12.528
15978W        W81139  13.306  33.192   4.118
15979W        W81140  43.361  33.268  10.616
15980W        W81141   0.968  26.907  14.917
15981W        W81142  34.929  24.614   5.436
15982W        W81143  10.193   0.600   3.991
15983W        W81144  43.635  25.240  13.453
15984W        W81145  22.324  40.484  11.921
15985W        W81146  40.411  40.953  11.142
15986W        W81147  15.828   7.744  14.904
15987W        W81148   7.724  11.094  13.770
15988W        W81149  34.122  30.999  13.921
15989W        W81150  18.281   7.168  14.360
15990W        W81151  29.129  39.342  11.013
15991W        W81152  42.800  29.702   4.548
15992W        W81153  17.774  17.927  13.880
15993W        W81154  41.412  44.442  13.925
15994W        W81155  33.511   9.130   2.692
15995W        W81156  42.803  41.858   1.887
15996W        W81157   3.838   0.908   2.215
15997W        W81158   3.303  34.139  13.864
15998W        W81159   5.056  34.271  10.263
15999W        W81160   5.440  30.850  11.868
16000W        W81161  31.630  38.915   0.445
16001W        W81162   7.285  24.748  11.620
16002W        W81163  25.643  16.740   4.363
16003W        W81164  26.104  26.165  10.526
16004W        W81165  32.681  12.875  12.520
16005W        W81166  29.159  15.994  11.932
16006W        W81167   4.947   0.777   0.999
16007W        W81168  20.558  32.597  12.959
16008W        W81169  11.125  22.318  12.321
16009W        W81170   3.924   5.636   3.813
16010W        W81171  28.184   4.394  10.793
16011W        W81172  20.879   7.268  11.535
16012W        W81173  20.550   4.738  11.872
16013W        W81174  40.912  13.370  12.551
16014W        W81175  38.387  38.543   2.255
16015W        W81176  15.840  34.717  11.586
16016W        W81177  43.552  33.528   3.321
16017W        W81178  36.427  44.913  11.533
16018W        W81179  17.306  43.032  10.029
16019W        W81180  37.598  21.239   3.563
16020W        W81181  21.236   3.251  11.154
16021W        W81182  18.595  15.250  10.115
16022W        W81183  24.704  43.275  11.949
16023W        W81184  30.901   4.178   3.173
16024W        W81185  10.366   3.901   0.971
16025W        W81186   9.828  13.492   2.593
16026W        W81187   0.345  27.703  14.060
16027W        W81188  38.017  38.939   1.309
16028W        W81189  22.215   9.098   1.643
16029W        W81190   8.625  27.602   0.264
16030W        W81191  32.994  19.201   2.436
16031W        W81192  27.967  10.818  11.217
16032W        W81193  39.016  14.409   1.610
16033W        W81194  17.036  17.294  14.339
16034W        W81195   0.281   8.192   4.136
16035W        W81196  22.622  29.888  14.480
16036W        W81197   1.588  42.864  12.896
16037W        W81198  16.619   7.507  14.657
16038W        W81199   5.300  36.013  11.711
16039W        W81200  36.402  26.692  12.610
16040W        W81201  42.251  13.098   3.300
16041W        W81202  42.577  44.925   2.813
16042W        W81203  19.392  30.091   2.818
16043W        W81204   8.409  11.258  14.324
16044W        W81205   8.185  42.577  12.053
16045W        W81206  31.657  17.851  14.598
16046W        W81207  40.788   8.771   4.537
16047W        W81208  17.719  26.024  13.902
16048W        W81209  32.836  43.503  10.777
16049W        W81210  23.633  28.502   2.296
16050W        W81211  21.010   9.622  11.424
16051W        W81212  29.018  44.553  13.936
16052W        W81213  37.496   4.351  14.778
16053W        W81214  27.853  36.190   3.591
16054W        W81215   4.879  33.340   2.834
16055W        W81216  15.361  43.330  10.671
16056W        W81217  29.030  36.913   1.211
16057W        W81218   5.387  14.195  11.903
16058W        W81219   1.615  15.710  13.060
16059W        W81220  17.830  40.573   0.465
16060W        W81221  37.732  10.260  10.386
16061W        W81222  24.699  33.605   3.448
16062W        W81223  27.032   5.519   1.939
16063W        W81224  19.183   2.784   4.142
16064W        W81225  31.049  27.023   3.242
16065W        W81226   0.981  25.532   3.217
16066W        W81227  34.840  21.057   1.936
16067W        W81228  30.169  44.542   1.723
16068W        W81229   5.964  38.387   3.245
16069W        W81230  21.530   1.740  13.030
16070W        W81231  29.140  27.079  13.611
16071W        W81232  37.287  10.799  13.816
16072W        W81233  31.228  43.527   4.839
16073W        W81234  19.686  31.047   3.146
16074W        W81235  43.045  39.925  12.845
16075W        W81236  41.378  38.937   0.277
16076W        W81237  30.638  39.559  10.540
16077W        W81238  35.380  14.535  12.470
16078W        W81239  33.447  18.001  12.413
16079W        W81240  42.451  16.799   2.773
16080W        W81241  16.911  34.900  13.772
16081W        W81242  20.009   9.193  13.433
16082W        W81243  40.081  21.246  12.444
16083W        W81244  13.569  13.124   3.211
16084W        W81245  31.601  36.808  14.000
16085W        W81246  35.837  25.671   1.673
16086W        W81247  15.146   3.887   2.915
16087W        W81248  42.456  24.092   1.755
16088W        W81249  29.445  11.895   2.175
16089W        W81250   8.614  29.950   0.727
16090W        W81251  42.347  30.839  11.464
16091W        W81252   6.117  17.204   1.326
16092W        W81253  36.351   3.204   2.219
16093W        W81254  24.187  36.803   0.011
16094W        W81255  33.254  20.989  13.306
16095W        W81256   9.145  43.454  13.767
16096W        W81257   6.344  28.567   0.032
16097W        W81258   1.843  19.030  12.605
16098W        W81259  15.193   0.969  13.028
16099W        W81260  22.826  40.579  14.558
16100W        W81261  36.217   5.847   3.112
16101W        W81262  38.043   0.393  12.366
16102W        W81263  39.010  40.668   3.191
16103W        W81264   6.868   3.271   0.234
16104W        W81265  25.132   2.808  12.193
16105W        W81266  38.097  14.709  12.081
16106W        W81267  23.279  24.992  11.911
16107W        W81268  22.510  43.798   4.195
16108W        W81269  28.806  44.738   3.225
16109W        W81270   1.146   0.767  11.480
16110W        W81271  14.691  20.226   4.510
16111W        W81272  26.363  10.179  13.064
16112W        W81273  32.868  12.083   0.314
16113W        W81274  16.603  15.707   1.179
16114W        W81275  15.972   4.862   4.188
16115W        W81276  41.838   8.797  12.016
16116W        W81277   4.975  42.776   1.403
16117W        W81278   7.801  42.197   4.190
16118W        W81279  33.060   3.282  14.879
16119W        W81280  22.319  38.487   0.850
16120W        W81281  30.398  29.988  10.545
16121W        W81282  16.538  36.841   3.728
16122W        W81283  19.592   8.308  13.574
16123W        W81284   1.901  42.054   0.538
16124W        W81285  16.046  37.810  14.355
16125W        W81286   0.883   9.269   4.607
16126W        W81287  43.534  10.789   1.256
16127W        W81288  43.916  10.407  14.842
16128W        W81289  27.712  24.674  14.395
16129W        W81290  19.810  10.993   0.320
16130W        W81291  28.881   5.034   2.754
16131W        W81292  37.995  11.166   4.102
16132W        W81293  21.708   3.852  14.772
16133W        W81294  44.523   2.937   0.638
16134W        W81295  21.190   7.221   3.351
16135W        W81296  26.533   2.498   1.775
16136W        W81297  42.092   0.061   0.396
16137W        W81298   3.804   9.428  11.112
16138W        W81299   8.786  13.457   4.962
16139W        W81300  13.395  17.657   2.181
16140W        W81301  11.758  23.909   5.051
16141W        W81302   8.021  28.079   3.177
16142W        W81303  24.127  13.472   2.263
16143W        W81304  23.056  36.450  11.422
16144W        W81305  38.091  41.040   3.250
16145W        W81306  31.914  33.419  14.896
16146W        W81307   6.181   4.953   4.234
16147W        W81308  36.081  32.406  14.831
16148W        W81309   4.762  30.340   1.043
16149W        W81310  42.317  26.454  13.030
16150W        W81311  11.178   6.321   1.294
16151W        W81312  22.008  22.107   1.726
16152W        W81313   0.340   8.826   0.488
16153W        W81314  33.892  19.755  13.822
16154W        W81315  10.269  16.344   4.556
16155W        W81316  25.511  21.705   4.106
16156W        W81317  18.029  17.327   0.471
16157W        W81318  29.834  20.469   5.119
16158W        W81319  31.094  10.951   1.860
16159W        W81320  35.560  29.972  11.999
16160W        W81321   3.719   3.377  11.695
16161W        W81322  18.542  43.495  14.346
16162W        W81323   3.976   9.230  12.463
16163W        W81324  20.685   4.465  12.586
16164W        W81325  34.008  41.304  14.457
16165W        W81326   1.008  41.597   0.789
16166W        W81327   0.385  10.388  13.913
16167W        W81328  21.842  13.718  11.163
16168W        W81329  26.439  41.065  10.715
16169W        W81330   8.832  37.633   2.382
16170W        W81331   8.043   0.387   3.255
16171W        W81332  15.492  36.935  12.821
16172W        W81333  44.672  22.161   3.187
16173W        W81334  39.035  17.741  12.935
16174W        W81335  23.537  13.635  12.945
16175W        W81336  21.273  33.950   1.493
16176W        W81337  38.021  35.368  11.771
16177W        W81338  29.925  32.141   2.706
16178W        W81339  28.658   2.459   1.885
16179W        W81340  25.971  32.307  12.442
16180W        W81341  35.981   0.041  14.749
16181W        W81342   4.873  18.016   1.654
16182W        W81343  41.115   8.650  11.154
16183W        W81344  18.298  17.850  13.399
16184W        W81345   9.153   1.823   4.711
16185W        W81346  39.001  44.380  11.110
16186W        W81347  25.664   1.695   3.542
16187W        W81348  44.559  19.331   3.667
16188W        W81349  13.232  41.835   4.316
16189W        W81350  40.575  35.687  13.367
16190W        W81351  21.120  37.554  10.674
16191W        W81352   7.107  13.365   0.192
16192W        W81353  29.608  22.189  10.181
16193W        W81354  15.272   2.573   0.587
16194W        W81355  43.381  33.024  10.177
16195W        W81356  13.778  36.308   1.052
16196W        W81357  44.974  33.125   2.904
16197W        W81358  22.121   1.291  14.957
16198W        W81359  27.013  29.442  10.669
16199W        W81360   0.903  28.504   3.210
16200W        W81361  35.040  17.250   4.558
16201W        W81362  31.189  35.507  11.730
16202W        W81363  31.073  40.011   4.220
16203W        W81364  35.088  18.255   1.148
16204W        W81365  24.018  35.071  13.094
16205W        W81366   3.758   9.828  12.172
16206W        W81367  28.426  12.911  14.047
16207W        W81368  10.387  35.957   3.662
16208W        W81369  25.881  24.914   0.276
16209W        W81370  21.521  43.969  13.496
16210W        W81371  15.124  34.363   0.423
16211W        W81372  16.149  21.752  13.504
16212W        W81373  25.181  17.624   3.669
16213W        W81374   5.621  22.244   1.455
16214W        W81375  33.034  17.040   1.726
16215W        W81376   2.966   4.602   0.903
16216W        W81377  13.034  34.735   4.056
16217W        W81378  10.074  17.505  12.515
16218W        W81379  28.800  23.345   2.109
16219W        W81380  33.499   7.878   1.335
16220W        W81381  38.563  42.422   4.157
16221W        W81382   2.588  13.056  14.496
16222W        W81383  27.445   8.736  11.573
16223W        W81384   5.796  13.367  13.006
16224W        W81385   5.136  37.303   9.844
16225W        W81386  28.413  20.032   4.371
16226W        W81387   5.857  23.104  13.232
16227W        W81388  16.178  11.764   3.342
16228W        W81389  28.029  13.858  14.429
16229W        W81390  32.702  36.901   3.647
16230W        W81391  44.659  32.063  14.914
16231W        W81392   5.338   2.265  13.930
16232W        W81393  11.159  30.435  10.641
16233W        W81394  22.893  11.702   4.586
16234W        W81395  25.590  26.915  10.449
16235W        W81396  27.888  31.551  14.052
16236W        W81397  30.249  35.958   1.199
16237W        W81398  26.059  17.109   2.289
16238W        W81399  11.322  18.244  12.895
16239W        W81400  13.958  31.230   4.205
16240W        W81401  12.921  37.987   0.111
16241W        W81402  23.605  38.134   3.589
16242W        W81403  15.845  20.996  11.476
16243W        W81404  35.896  17.187   0.517
16244W        W81405  35.594  26.240  12.531
16245W        W81406  34.364  36.847  11.394
16246W        W81407  43.073  39.653   1.625
16247W        W81408  43.028  44.699   2.870
16248W        W81409  36.593  32.406  14.938
16249W        W81410  21.860   4.315  12.997
16250W        W81411  30.887  31.039  10.824
16251W        W81412  12.795  36.704  13.345
16252W        W81413  19.636  33.331   2.524
16253W        W81414   9.025  16.245   1.019
16254W        W81415  15.556   0.416  14.430
16255W        W81416  23.464  32.938  14.331
16256W        W81417  22.973  41.535  10.238
16257W        W81418  26.684  19.009   3.354
16258W        W81419  13.074  30.915   0.529
16259W        W81420  41.997  39.948  12.910
16260W        W81421  22.710   8.910  12.860
16261W        W81422  22.761  25.645   4.592
16262W        W81423  26.338  42.826  13.202
16263W        W81424  35.408  34.201   2.059
16264W        W81425  25.000  10.098  11.536
16265W        W81426   2.646  42.530  11.040
16266W        W81427  37.962  42.932   1.648
16267W        W81428  31.951  40.508   0.959
16268W        W81429  20.720  32.023  13.925
16269W        W81430  37.620   8.293   2.238
16270W        W81431  40.504  14.497   1.616
16271W        W81432   4.486   3.016   4.886
16272W        W81433  29.720  16.259   2.471
16273W        W81434   5.270  13.221   2.816
16274W        W81435  43.036  34.994   3.108
16275W        W81436  31.824  14.398   2.917
16276W        W81437  33.924   0.736   4.779
16277W        W81438  11.685  42.181   4.136
16278W        W81439   9.311  30.921  13.225
16279W        W81440  21.521   3.329  11.631
16280W        W81441   2.753   5.845  14.272
16281W        W81442  41.156  33.667   0.092
16282W        W81443  10.425  43.371  13.105
16283W        W81444   4.823   6.710  10.937
16284W        W81445  25.146   2.123   2.610
16285W        W81446  19.048  13.322  12.959
16286W        W81447  26.277  18.721   0.786
16287W        W81448  28.605  15.744   2.718
16288W        W81449  40.945  13.725  12.149
16289W        W81450  40.080  12.197   1.367
16290W        W81451  11.648  25.620   0.028
16291W        W81452  15.573  24.627   2.349
16292W        W81453  24.328  40.497  13.478
16293W        W81454  11.997  31.086   4.023
16294W        W81455  11.204  37.946  10.674
16295W        W81456  14.108  29.433   3.300
16296W        W81457  31.609  42.926   3.191
16297W        W81458  37.928   0.462   0.702
16298W        W81459  36.231   3.310  10.000
16299W        W81460  30.359  18.674  12.110
16300W        W81461  11.046  10.436   2.942
16301W        W81462  26.040  15.950  13.078
16302W        W81463  39.999   9.763   0.775
16303W        W81464  30.033  21.814   4.934
16304W        W81465   0.004  15.293   2.373
16305W        W81466   9.207  44.241   0.568
16306W        W81467  42.830   7.875  13.038
16307W        W81468   5.545  15.385   3.407
16308W        W81469  36.208  17.120  13.803
16309W        W81470  27.763   9.348   1.172
16310W        W81471  23.182  28.387   3.387
16311W        W81472  20.002  10.020   1.820
16312W        W81473  13.200   4.493  11.268
16313W        W81474  21.320  34.017   2.017
16314W        W81475  41.992  39.502   3.148
16315W        W81476   3.723   3.216   0.753
16316W        W81477  28.532  33.598   4.142
16317W        W81478   2.790  14.008   2.426
16318W        W81479  14.400  25.692  10.578
16319W        W81480   7.234  27.909   1.201
16320W        W81481  24.978  27.558   1.771
16321W        W81482  14.113  22.201   1.262
16322W        W81483  44.983   1.540  11.417
16323W        W81484  23.955  13.008  10.633
16324W        W81485  16.732  17.292  13.053
16325W        W81486  26.765   2.276  14.316
16326W        W81487  14.268  26.628  13.438
16327W        W81488  11.890  35.967  11.522
16328W        W81489   3.023  20.613  14.664
16329W        W81490  40.295  36.278  12.080
16330W        W81491  40.074  37.596  11.032
16331W        W81492  21.177  33.547   4.643
16332W        W81493   7.767   7.817  10.572
16333W        W81494  13.497  11.138  10.303
16334W        W81495  33.846  37.035  12.891
16335W        W81496  34.276  21.118   4.505
16336W        W81497  35.793  30.576   3.328
16337W        W81498  14.328  43.481  10.350
16338W        W81499  27.137  25.177   2.797
16339W        W81500  43.782  35.383  13.118
16340W        W81501   3.370  13.036   2.236
16341W        W81502   8.698  44.274   1.339
16342W        W81503   7.280   7.213  10.089
16343W        W81504  30.756  25.458  11.957
16344W        W81505  11.885  23.063   3.298
16345W        W81506  21.522  16.264   2.689
16346W        W81507  29.260  22.929   0.721
16347W        W81508  25.439   7.229   1.878
16348W        W81509  31.040  23.951  14.436
16349W        W81510  21.541  41.771   1.286
16350W        W81511  15.547  32.208  11.228
16351W        W81512  30.944   9.837  13.991
16352W        W81513  16.302   0.840  13.357
16353W        W81514   2.050  23.735   4.037
16354W        W81515   6.625  22.033   2.605
16355W        W81516   1.803  34.671  11.917
16356W        W81517  42.401   4.732   1.226
16357W        W81518   6.236  28.252   4.226
16358W        W81519  27.881   3.215   1.925
16359W        W81520   9.756  38.325   2.788
16360W        W81521  43.145   8.631   4.199
16361W        W81522  23.725  43.874   0.401
16362W        W81523  18.658  24.071  12.471
16363W        W81524  19.744  44.482   2.030
16364W        W81525  31.219  23.725   2.166
16365W        W81526   2.127  10.113   0.993
16366W        W81527  36.509  24.951   2.120
16367W        W81528  37.854  20.036   1.819
16368W        W81529  31.111  10.273  12.599
16369W        W81530  31.818  30.077  12.401
16370W        W81531  21.725  16.293  14.060
16371W        W81532  30.498  18.077   0.473
16372W        W81533  18.148  41.808  13.451
16373W        W81534  38.756  42.807   2.635
16374W        W81535  38.509  31.499  14.239
16375W        W81536  28.855  20.828   0.341
16376W        W81537  18.624  22.188  11.857
16377W        W81538  21.668  22.424   3.410
16378W        W81539  35.860  33.493   3.434
16379W        W81540   7.551   8.558  13.191
16380W        W81541  30.259  27.486   4.604
16381W        W81542  10.217  20.451   3.716
16382W        W81543  41.017  25.129   4.621
16383W        W81544   9.626   9.160  11.124
16384W        W81545   3.927  32.463  11.602
16385W        W81546  20.709  34.748   1.889
16386W        W81547   3.946  14.161   0.918
16387W        W81548  43.000   6.345   3.623
16388W        W81549  29.745  41.545   2.806
16389W        W81550  10.586  16.270   3.289
16390W        W81551  33.941   3.580  12.147
16391W        W81552  11.245   6.681   4.576
16392W        W81553   2.972   9.058   3.279
16393W        W81554  17.007  13.723  14.574
16394W        W81555  42.750  30.880  14.908
16395W        W81556   2.431   9.216   3.133
16396W        W81557   1.142  30.702   1.261
16397W        W81558  44.547  34.339   3.809
16398W        W81559  18.569  12.940   1.427
16399W        W81560  20.788  26.608  14.486
16400W        W81561  37.859  40.382  10.863
16401W        W81562  12.841  26.906   4.781
16402W        W81563  23.650  32.668  14.740
16403W        W81564   2.318   0.946  14.088
16404W        W81565   2.315   0.264  14.580
16405W        W81566   9.190   0.047  12.889
16406W        W81567   9.274  28.447   2.160
16407W        W81568  14.749   6.329  12.523
16408W        W81569  29.412  37.026  11.533
16409W        W81570  13.724  44.042   0.800
16410W        W81571  25.739  44.989   1.246
16411W        W81572   1.918  21.805  14.309
16412W        W81573  15.501  37.923   1.499
16413W        W81574  23.729  31.486   1.714
16414W        W81575  15.720  14.346  12.555
16415W        W81576  38.020  38.317   2.577
16416W        W81577  30.669  16.146   4.235
16417W        W81578   5.522   5.492  13.308
16418W        W81579  26.022  34.596  14.941
16419W        W81580  30.900  42.257  10.670
16420W        W81581  42.289   3.920  13.276
16421W        W81582  29.480  11.871   1.391
16422W        W81583  32.424  32.438   1.360
16423W        W81584  37.633  41.828   2.803
16424W        W81585  19.037  25.665  13.850
16425W        W81586  21.916  14.230  10.205
16426W        W81587  30.487  41.162  11.414
16427W        W81588  24.475  22.731  14.974
16428W        W81589  16.692   4.819   3.169
16429W        W81590  16.614  30.749  14.059
16430W        W81591  35.876   4.853  14.951
16431W        W81592  41.261  29.973  13.157
16432W        W81593  23.694  12.227  12.119
16433W        W81594  27.461  28.917  12.930
16434W        W81595  19.548  24.007  12.987
16435W        W81596  18.601  34.682   3.623
16436W        W81597  22.648  16.747  10.835
16437W        W81598  24.168   8.430  14.473
16438W        W81599   0.994   0.796  10.968
16439W        W81600  28.535   4.393   2.137
16440W        W81601  44.293   5.275   1.250
16441W        W81602  12.901  15.853   3.916
16442W        W81603  24.778  15.292   3.251
16443W        W81604  11.283   7.333   0.112
16444W        W81605  27.430  28.711   3.880
16445W        W81606  43.824   2.016  13.578
16446W        W81607  37.415  16.759  13.942
16447W        W81608   0.468  32.903   3.626
16448W        W81609  11.571  19.083   1.369
16449W        W81610  33.300   5.637   1.047
16450W        W81611  37.391   7.848   0.884
16451W        W81612  22.623  17.114  14.473
16452W        W81613  32.404  22.468  12.654
16453W        W81614   2.927  25.088  13.692
16454W        W81615   4.921  23.574  14.798
16455W        W81616  30.553  12.356   1.747
16456W        W81617  21.991  11.403   3.197
16457W        W81618   1.252   8.407  12.413
16458W        W81619  29.410  42.314   1.844
16459W        W81620  20.185  39.704   0.848
16460W        W81621  37.419   0.975   3.743
16461W        W81622  14.527  42.265  13.141
16462W        W81623   4.373  44.755   1.326
16463W        W81624  11.174  10.766   4.833
16464W        W81625  25.154  19.532  13.112
16465W        W81626   5.261  12.304   0.511
16466W        W81627  35.410  13.790   4.537
16467W        W81628  12.673  43.942  11.865
16468W        W81629   2.498  14.359  14.827
16469W        W81630  27.628  43.269   2.165
16470W        W81631  10.396  42.098   1.204
16471W        W81632  11.304   0.394   0.699
16472W        W81633  28.577  34.621  14.962
16473W        W81634   6.708  39.105   3.742
16474W        W81635  33.637   2.715   2.736
16475W        W81636  29.099  10.177  12.518
16476W        W81637  39.026  33.213   2.132
16477W        W81638  25.246  25.872   0.929
16478W        W81639  11.729  15.536   3.183
16479W        W81640  38.946  17.298   3.259
16480W        W81641   7.948  22.561   1.140
16481W        W81642  30.107   2.180   2.616
16482W        W81643   3.253  42.509   1.861
16483W        W81644  42.310  32.614  11.545
16484W        W81645  18.267  19.925  12.675
16485W        W81646  34.415  29.382   0.338
16486W        W81647  14.594  41.329  10.607
16487W        W81648  23.134   7.210   3.608
16488W        W81649   4.725   1.195   4.689
16489W        W81650  21.926  31.464  12.504
16490W        W81651  15.091  38.640  13.348
16491W        W81652  33.302  44.707   0.440
16492W        W81653  12.640   6.209  13.623
16493W        W81654  32.668   6.638  14.805
16494W        W81655  16.992  10.579  13.103
16495W        W81656  34.417  44.600   1.718
16496W        W81657  40.121  36.801  12.644
16497W        W81658  13.830  35.140   4.195
16498W        W81659  14.865  16.403   2.814
16499W        W81660  25.072  25.512   3.125
16500W        W81661  14.319  38.291  12.810
16501W        W81662   0.065   6.500   0.487
16502W        W81663  10.648  26.047   0.778
16503W        W81664  42.584  25.510  12.932
16504W        W81665  41.182  17.071   1.875
16505W        W81666  28.147  29.481  12.992
16506W        W81667  11.699   0.696  12.484
16507W        W81668   6.710  30.892  13.523
16508W        W81669  28.416   9.349   2.358
16509W        W81670  39.145   9.991  11.546
16510W        W81671  19.232  19.682   0.749
16511W        W81672  32.367   0.260  12.030
16512W        W81673  18.907  19.056  13.578
16513W        W81674   7.377  20.590  13.922
16514W        W81675  41.554   2.724  11.556
16515W        W81676  19.038   0.944  11.668
16516W        W81677  43.819   0.804   1.710
16517W        W81678   9.327  12.688   3.767
16518W        W81679  12.454  27.741  13.459
16519W        W81680  14.293  11.208  13.571
16520W        W81681   1.456  39.377  14.920
16521W        W81682  32.921  19.709   0.213
16522W        W81683  22.797  24.807   4.847
16523W        W81684  23.130   6.841  14.239
16524W        W81685  43.290  14.651  10.900
16525W        W81686   7.391   0.821  13.920
16526W        W81687  24.549   3.184   4.339
16527W        W81688  17.544  35.019  11.581
16528W        W81689  42.986  15.349   1.339
16529W        W81690  36.805   0.895  14.058
16530W        W81691  12.124  42.228  12.355
16531W        W81692  11.282  17.361   3.164
16532W        W81693  39.335  19.038  11.578
16533W        W81694  34.743  19.613   1.914
16534W        W81695  16.165  27.378   0.262
16535W        W81696   5.898   2.874   1.950
16536W        W81697  20.590  42.086  10.242
16537W        W81698  41.459  18.034   1.932
16538W        W81699  38.156   9.355   2.577
16539W        W81700  31.536  32.471  13.057
16540W        W81701  41.838  23.926  12.568
16541W        W81702  42.285  13.753   4.580
16542W        W81703  12.445  40.319   0.223
16543W        W81704  36.971  16.277  14.508
16544W        W81705  12.814  43.725  13.912
16545W        W81706  38.646  25.482   1.846
16546W        W81707  38.052  31.855   4.570
16547W        W81708  28.622   8.759  13.626
16548W        W81709  24.152   5.668  12.967
16549W        W81710  27.895  11.507  13.781
16550W        W81711  30.638   1.744   4.464
16551W        W81712  16.268  38.320   5.651
16552W        W81713   1.804  10.060  11.595
16553W        W81714   6.469  37.018   3.234
16554W        W81715  42.403  22.232   3.519
16555W        W81716  41.519   3.933  13.815
16556W        W81717   5.349  11.800   2.227
16557W        W81718   1.442   8.467  14.893
16558W        W81719  30.540  27.935  13.531
16559W        W81720  17.651  28.139   1.954
16560W        W81721  13.603  23.445   0.005
16561W        W81722   9.735   3.884   4.213
16562W        W81723  16.231  33.338  11.480
16563W        W81724  22.535  39.057   0.894
16564W        W81725   4.418   4.515   4.605
16565W        W81726  11.255  23.698  12.909
16566W        W81727  40.123   5.270   3.684
16567W        W81728  25.189   5.888  12.513
16568W        W81729   7.359   8.657   0.850
16569W        W81730   7.214   4.989   2.687
16570W        W81731  26.826  11.954  11.091
16571W        W81732   8.291  17.550  10.637
16572W        W81733  19.070  10.638  13.890
16573W        W81734  22.617  43.701  14.497
16574W        W81735   4.867  21.043   2.341
16575W        W81736  35.908  26.645   4.463
16576W        W81737  34.070   0.014  14.038
16577W        W81738  14.226  17.574   2.726
16578W        W81739  42.593  32.728  12.960
16579W        W81740  38.008  41.149   4.197
16580W        W81741  10.610   8.598   0.443
16581W        W81742  37.179   6.928  13.403
16582W        W81743  21.534  38.814   0.757
16583W        W81744   7.234  25.010   3.843
16584W        W81745  43.508  12.898  10.468
16585W        W81746   0.075  31.877  11.539
16586W        W81747  33.388  29.421   4.615
16587W        W81748  42.340  14.884   0.881
16588W        W81749  14.431  25.963  14.062
16589W        W81750  15.125  28.069  13.879
16590W        W81751  32.772  36.886  11.046
16591W        W81752  32.349  12.744  12.904
16592W        W81753   1.760  21.719  11.206
16593W        W81754   7.446   6.455  12.460
16594W        W81755  44.981  30.551  14.421
16595W        W81756  12.618   2.260   3.764
16596W        W81757  31.985  14.140   1.718
16597W        W81758  37.393  32.649   2.128
16598W        W81759  25.017   4.264  14.952
16599W        W81760   1.251  13.813   1.650
16600W        W81761  28.371  23.600   1.710
16601W        W81762  20.167   8.322  12.669
16602W        W81763  21.264   8.016  12.097
16603W        W81764  12.452  22.925   2.272
16604W        W81765   5.974  17.835   1.253
16605W        W81766  27.886  38.123  14.765
16606W        W81767  44.965  18.040  14.639
16607W        W81768   2.251  17.739  14.639
16608W        W81769  12.303  40.877   1.153
16609W        W81770  10.274  27.156   4.097
16610W        W81771  30.550   5.943   3.707
16611W        W81772  15.303  26.404  14.386
16612W        W81773  38.351   2.314  11.025
16613W        W81774  40.713  34.963  10.956
16614W        W81775  42.076   5.277   0.834
16615W        W81776  25.796  37.349  14.986
16616W        W81777  37.446  24.131   3.665
16617W        W81778  14.678  35.002   3.067
16618W        W81779  18.139  39.614   0.044
16619W        W81780   2.674  43.483   0.163
16620W        W81781  42.988  39.554   2.383
16621W        W81782  23.074  21.351   3.662
16622W        W81783  14.358  35.954  13.913
16623W        W81784  25.221  34.906  11.441
16624W        W81785   0.723  18.685  13.746
16625W        W81786  32.001  15.810  14.484
16626W        W81787  43.345  10.889  12.643
16627W        W81788   6.420  32.280  10.739
16628W        W81789  25.649  29.453  13.758
16629W        W81790   4.813  14.284   5.001
16630W        W81791   1.807  15.876  13.990
16631W        W81792   8.356  27.962   0.504
16632W        W81793  27.621   4.550  14.939
16633W        W81794  23.563  14.761   5.032
16634W        W81795   5.622   7.195  14.604
16635W        W81796  35.737   4.936   0.961
16636W        W81797  39.990  42.953   4.208
16637W        W81798  32.525  18.289  12.019
16638W        W81799  14.754  11.234  11.666
16639W        W81800  43.800  22.174   0.087
16640W        W81801   7.198  20.166   1.793
16641W        W81802  16.774   0.947   2.204
16642W        W81803  19.023  13.065   3.241
16643W        W81804  40.537  41.558  12.479
16644W        W81805  39.886  35.501  12.948
16645W        W81806   6.120   8.294  11.452
16646W        W81807  20.090  21.012   0.091
16647W        W81808  36.584   3.241  11.544
16648W        W81809   6.237  31.364  12.521
16649W        W81810  12.315  23.630  14.501
16650W        W81811  20.368  19.158   4.532
16651W        W81812  17.821  34.375   2.109
16652W        W81813  35.546  32.900  11.501
16653W        W81814  30.639  42.796   5.214
16654W        W81815  43.591  20.018   1.726
16655W        W81816  26.627  30.188   1.274
16656W        W81817  32.415  28.943  13.451
16657W        W81818   0.430  17.458   4.632
16658W        W81819  32.413  33.933  10.693
16659W        W81820  29.735  40.914   1.792
16660W        W81821  22.960  34.539  13.303
16661W        W81822  35.353   7.281  10.491
16662W        W81823   0.461  14.366   4.423
16663W        W81824  37.352  17.186   3.885
16664W        W81825   8.239  29.900   0.173
16665W        W81826  32.869  16.533  11.223
16666W        W81827   3.284  38.441   5.041
16667W        W81828  39.987  25.175   3.684
16668W        W81829   2.118  25.656  10.321
16669W        W81830  14.198  42.164   3.974
16670W        W81831  18.549  12.592   2.247
16671W        W81832  14.759  17.232  10.663
16672W        W81833  11.322  35.822   0.079
16673W        W81834  18.419  43.310  11.969
16674W        W81835  30.563   1.942  11.667
16675W        W81836   0.854  15.657  13.816
16676W        W81837  39.044   8.687   4.568
16677W        W81838  14.302  12.334  14.405
16678W        W81839  26.378  11.404  14.539
16679W        W81840  13.063  20.248  14.838
16680W        W81841   3.378  14.916  14.783
16681W        W81842  32.317   4.314  13.667
16682W        W81843  32.711   6.251   4.028
16683W        W81844  13.654  33.577   0.453
16684W        W81845  25.422  35.891  13.460
16685W        W81846   4.794  42.926  13.902
16686W        W81847   2.795  35.618   2.320
16687W        W81848  37.675  42.811  11.980
16688W        W81849   1.483  18.512   0.320
16689W        W81850  10.175  13.836  11.954
16690W        W81851  16.106   9.122  11.155
16691W        W81852   6.833  35.975   0.332
16692W        W81853   4.649   1.290  14.440
16693W        W81854  32.407   9.334  12.896
16694W        W81855  18.781  19.080   2.847
16695W        W81856  44.138   1.203  11.901
16696W        W81857  15.155  44.725   2.901
16697W        W81858   4.113  33.387   0.840
16698W        W81859   8.228  21.172  13.078
16699W        W81860  36.947  10.301   1.873
16700W        W81861   3.966  24.729  11.940
16701W        W81862   6.410  44.792   4.052
16702W        W81863  27.180  18.241   4.728
16703W        W81864  19.071   9.467   4.286
16704W        W81865  16.214  37.322   3.241
16705W        W81866  10.826  19.056  14.802
16706W        W81867  18.320  30.300   2.256
16707W        W81868  18.900   3.411  11.198
16708W        W81869  33.388  13.151  13.821
16709W        W81870  24.079  27.020  13.447
16710W        W81871  26.366  19.223   4.111
16711W        W81872  28.246  13.578  11.624
16712W        W81873  25.468  42.957  11.472
16713W        W81874   4.858  15.276   2.367
16714W        W81875  28.972   1.883  11.100
16715W        W81876  10.801  44.887  12.012
16716W        W81877  28.182   8.177  11.869
16717W        W81878  35.880   9.801   0.263
16718W        W81879  35.849  44.447   3.604
16719W        W81880   7.391  18.116  11.928
16720W        W81881  24.516  12.360  10.575
16721W        W81882  16.565  20.229   4.068
16722W        W81883   4.749   8.295   4.595
16723W        W81884   0.089  29.478  12.399
16724W        W81885   6.689   9.588   4.106
16725W        W81886   7.606   3.340   3.802
16726W        W81887   4.458   5.694  11.554
16727W        W81888  36.797  20.907   0.721
16728W        W81889  38.803   5.728   2.380
16729W        W81890  36.622  37.808   0.346
16730W        W81891  41.382  26.974   1.213
16731W        W81892  33.058  21.202  13.749
16732W        W81893  11.289  23.782   1.748
16733W        W81894  16.974  19.311  14.792
16734W        W81895  38.088   4.300   2.391
16735W        W81896  44.424  35.986   0.769
16736W        W81897  29.501  16.988  11.854
16737W        W81898  40.561  18.373   3.115
16738W        W81899  17.350  30.334  12.545
16739W        W81900  41.713   4.475   3.212
16740W        W81901  38.435  26.127   3.296
16741W        W81902   9.869  15.663  14.643
16742W        W81903   8.489  11.522  12.032
16743W        W81904  18.252  38.487   1.632
16744W        W81905  27.983  26.984  10.677
16745W        W81906  38.881   4.713  11.095
16746W        W81907  44.974  39.490  13.851
16747W        W81908  20.235  27.013  12.808
16748W        W81909   1.046  31.025  11.106
16749W        W81910  39.749  35.777   1.688
16750W        W81911  44.945  20.165  10.608
16751W        W81912  44.804  23.709  12.701
16752W        W81913   4.838  21.456  13.018
16753W        W81914  37.889   1.921   4.795
16754W        W81915  19.139  38.866   4.844
16755W        W81916  33.004  31.788   2.501
16756W        W81917   6.426  31.031  12.890
16757W        W81918  19.172   2.426   2.927
16758W        W81919  42.260  11.087   3.752
16759W        W81920  38.892  31.678   4.161
16760W        W81921   8.895  27.520   4.577
16761W        W81922  10.911  40.429   0.363
16762W        W81923  25.562   1.206  13.771
16763W        W81924  19.829  39.267  10.525
16764W        W81925  42.915  33.977   2.929
16765W        W81926  15.132  13.837  13.723
16766W        W81927   4.930   4.912   2.603
16767W        W81928  40.455  40.942   3.620
16768W        W81929   7.877  10.276   3.003
16769W        W81930  16.528  42.025   5.107
16770W        W81931  15.592   4.391   2.448
16771W        W81932   1.865  41.399  13.851
16772W        W81933  43.450  22.022   2.839
16773W        W81934  21.739  33.802   3.965
16774W        W81935  40.441  11.356  13.454
16775W        W81936  14.929  31.205   2.064
16776W        W81937  44.299   4.548  12.516
16777W        W81938   0.808  22.525   9.931
16778W        W81939  24.806  43.384  14.996
16779W        W81940  44.981  29.172  12.822
16780W        W81941  30.401  28.678   1.341
16781W        W81942  32.098  37.873   0.696
16782W        W81943  37.520  11.881  14.651
16783W        W81944  20.980  15.794  10.182
16784W        W81945  41.650  10.670   3.267
16785W        W81946  15.901  42.807  14.172
16786W        W81947   9.223  43.297  10.555
16787W        W81948  13.364  21.720   2.932
16788W        W81949  21.316  21.711   9.692
16789W        W81950  37.208   6.918  14.423
16790W        W81951  12.815  25.463   1.863
16791W        W81952  33.362   0.174   5.082
16792W        W81953   1.942   7.885  14.419
16793W        W81954  13.723  33.829   4.604
16794W        W81955   6.984  22.126   1.747
16795W        W81956  20.498  23.219  13.332
16796W        W81957   6.265  40.480   2.485
16797W        W81958   3.932   6.626   3.770
16798W        W81959  20.032  29.650  10.686
16799W        W81960  21.682   9.877  14.881
16800W        W81961  29.953  10.094   2.823
16801W        W81962   6.127  26.574  13.573
16802W        W81963   0.428   5.173   0.327
16803W        W81964  19.641  14.259   4.619
16804W        W81965  44.881  33.402  11.515
16805W        W81966   9.648  33.752  14.064
16806W        W81967  28.637  19.094  13.575
16807W        W81968  23.875  27.343   2.820
16808W        W81969  23.196   5.595  14.947
16809W        W81970  12.223  44.042   4.269
16810W        W81971   3.281  22.088   4.118
16811W        W81972  21.229  18.206   1.914
16812W        W81973  35.364   4.250  10.335
16813W        W81974   6.696   0.998  13.602
16814W        W81975  12.501  40.904  11.637
16815W        W81976  38.881  32.798  12.491
16816W        W81977   5.714  21.059   2.247
16817W        W81978  17.879  25.097   0.215
16818W        W81979  27.656  25.007   3.645
16819W        W81980  42.783  10.893   3.142
16820W        W81981  42.424  14.273   1.362
16821W        W81982  25.647  17.632   3.418
16822W        W81983   3.658  44.171  12.954
16823W        W81984   0.352   6.943   3.562
16824W        W81985  29.452  10.552   4.995
16825W        W81986  43.315  43.455  11.849
16826W        W81987  18.032  27.245  12.494
16827W        W81988   7.918  36.657   4.114
16828W        W81989  11.705  32.157   0.735
16829W        W81990  13.561  21.281   3.248
16830W        W81991  38.118   0.005   0.829
16831W        W81992  37.589   9.702   3.740
16832W        W81993  39.123  12.663  10.966
16833W        W81994  21.731  18.046  12.460
16834W        W81995  38.622  34.545   1.388
16835W        W81996  26.426  27.354   2.800
16836W        W81997  33.336  12.082  12.501
16837W        W81998  38.058  17.854   2.394
16838W        W81999  18.287  40.107  11.658
16839W        W82000  40.599  27.566  13.987
16840W        W82001  12.907   5.381   0.983
16841W        W82002  17.993  10.787  11.983
16842W        W82003  17.258  13.630   0.854
16843W        W82004   4.204  43.310  13.278
16844W        W82005   8.016   7.655  14.688
16845W        W82006  23.033  10.125   3.147
16846W        W82007  41.352  11.190   0.960
16847W        W82008   1.440  19.342   1.845
16848W        W82009  43.087   5.555   4.840
16849W        W82010  31.861  20.009  11.479
16850W        W82011  13.142   7.868   0.807
16851W        W82012  13.378  40.291  13.385
16852W        W82013  13.340   4.164   0.953
16853W        W82014  23.700   4.681   0.923
16854W        W82015   7.702   8.871  11.892
16855W        W82016   2.443  27.771  13.372
16856W        W82017  22.217   1.688   1.282
16857W        W82018  13.287   0.507   4.203
16858W        W82019  40.519   2.203  10.796
16859W        W82020   8.689  30.484  12.577
16860W        W82021  11.190  33.584  11.688
16861W        W82022  26.916  22.305  11.061
16862W        W82023  23.058  39.368   0.231
16863W        W82024  14.676  38.605  13.941
16864W        W82025   9.231  44.220   3.701
16865W        W82026   5.387  29.093   2.456
16866W        W82027  23.578  10.606  13.593
16867W        W82028   2.377  13.921  10.677
16868W        W82029  29.224  15.346  13.518
16869W        W82030   3.792   2.723   0.858
16870W        W82031  28.092  21.739   1.278
16871W        W82032  36.525  41.977   1.842
16872W        W82033  19.560  27.207   2.910
16873W        W82034  19.651  14.624  10.673
16874W        W82035  14.799  14.131  14.048
16875W        W82036  38.386  23.539   3.616
16876W        W82037  35.686  21.922   2.639
16877W        W82038  28.639  44.513  13.566
16878W        W82039   7.134  30.965  14.927
16879W        W82040  34.464  42.942   1.765
16880W        W82041  22.822  43.025   0.231
16881W        W82042  39.848  21.995  14.908
16882W        W82043  32.624  24.059  10.928
16883W        W82044  26.757  28.618  13.936
16884W        W82045  41.758   3.243   0.871
16885W        W82046  38.739  41.658   1.400
16886W        W82047  14.129  26.430   4.571
16887W        W82048  13.173  34.440   0.402
16888W        W82049   0.441  13.686   1.712
16889W        W82050  16.138  18.117  12.778
16890W        W82051  28.239  41.757   2.830
16891W        W82052  12.631  22.464  13.033
16892W        W82053  41.444   4.938  14.287
16893W        W82054  29.969  39.437  13.734
16894W        W82055  36.909  30.534  13.894
16895W        W82056  14.714  26.334  13.404
16896W        W82057  15.658  11.757   4.218
16897W        W82058  36.515  41.813  12.524
16898W        W82059  38.552   9.425   0.355
16899W        W82060  28.183  27.924   3.070
16900W        W82061   5.181  44.861  14.506
16901W        W82062  36.932  15.324  14.619
16902W        W82063  43.020   7.114  13.367
16903W        W82064  20.077  26.259   4.706
16904W        W82065  18.661  37.409   1.214
16905W        W82066  11.393  38.605  10.717
16906W        W82067  29.092  37.439   2.963
16907W        W82068  10.835  29.896  11.922
16908W        W82069  23.800  17.586   4.774
16909W        W82070  32.046  43.926  14.934
16910W        W82071   5.489  18.072   3.390
16911W        W82072  16.885  10.130   1.234
16912W        W82073  29.957  30.872  14.443
16913W        W82074  28.374  33.839   3.645
16914W        W82075  14.372  24.615  10.702
16915W        W82076  36.583  37.362  13.840
16916W        W82077  22.644  27.690  14.919
16917W        W82078  29.771   3.828   4.716
16918W        W82079  37.572   3.771   4.115
16919W        W82080   3.736   5.960  11.879
16920W        W82081   6.288  30.585  11.393
16921W        W82082  24.434  24.716   4.222
16922W        W82083  31.697   8.746   0.116
16923W        W82084   6.899  29.211   9.542
16924W        W82085  26.144   8.258  14.077
16925W        W82086  22.781  40.471   2.880
16926W        W82087  11.854  38.477  12.016
16927W        W82088  30.639   0.481  14.882
16928W        W82089  42.231  36.900   0.398
16929W        W82090  33.451  41.611  13.157
16930W        W82091   7.127  35.523  14.969
16931W        W82092  32.615   1.948   4.493
16932W        W82093  43.943   8.111   0.550
16933W        W82094  30.921  32.682  11.979
16934W        W82095   7.223  10.452  10.296
16935W        W82096  44.016   8.209  12.015
16936W        W82097  33.952  42.451   3.103
16937W        W82098  34.478   6.197  10.967
16938W        W82099  20.470  41.110   2.463
16939W        W82100  19.342  23.574  14.269
16940W        W82101  11.596   0.719  13.477
16941W        W82102  12.092  22.445  12.969
16942W        W82103  19.653  34.405   2.520
16943W        W82104   8.105   1.695   4.338
16944W        W82105  32.833  24.959  14.838
16945W        W82106  34.982  27.104   2.328
16946W        W82107   0.300  25.335  12.932
16947W        W82108  36.810  43.809  11.074
16948W        W82109  31.479  44.413  11.517
16949W        W82110  11.244  29.479   2.218
16950W        W82111  44.034  44.345   4.266
16951W        W82112  24.875   4.986   1.857
16952W        W82113  24.657  31.443  13.504
16953W        W82114  39.772  38.153  14.929
16954W        W82115   4.835  15.748  14.870
16955W        W82116  42.798  15.070   1.742
16956W        W82117  10.204  29.125   4.374
16957W        W82118  14.908  40.865   4.485
16958W        W82119   4.476   1.902   2.425
16959W        W82120   7.450   7.197   1.778
16960W        W82121  44.298   2.421   1.916
16961W        W82122  37.086  39.348  11.592
16962W        W82123  36.243  31.370   3.431
16963W        W82124  39.336  25.958   0.037
16964W        W82125  29.696  44.523  14.564
16965W        W82126   9.134   4.848   4.041
16966W        W82127  33.953  10.350  12.965
16967W        W82128  22.238  36.330  11.565
16968W        W82129  38.892   9.108  11.070
16969W        W82130  27.638  16.898   3.414
16970W        W82131   6.508  22.753  12.137
16971W        W82132   7.280  36.703  11.204
16972W        W82133  19.550  39.813  11.100
16973W        W82134  42.840  33.412  14.743
16974W        W82135  25.415  41.305  12.379
16975W        W82136  30.590  39.425   1.922
16976W        W82137  32.545  27.515   3.624
16977W        W82138  42.907   9.635   4.306
16978W        W82139  31.987  18.526  11.946
16979W        W82140  11.665  17.014  14.266
16980W        W82141  32.525   6.259  11.137
16981W        W82142  14.126  34.060   4.870
16982W        W82143  41.307   2.745  10.704
16983W        W82144  23.638  26.701  14.723
16984W        W82145  22.061  13.856   3.186
16985W        W82146  18.669   5.965  13.368
16986W        W82147  25.491  23.709   2.242
16987W        W82148  39.133  16.792  10.803
16988W        W82149  10.841  31.936  10.644
16989W        W82150  28.245  29.981  12.966
16990W        W82151  27.715   1.011   1.802
16991W        W82152  21.101  40.585  13.943
16992W        W82153  43.951   9.175   2.752
16993W        W82154   0.951  19.765   0.662
16994W        W82155  24.564  44.203   2.266
16995W        W82156  32.234  35.009   2.813
16996W        W82157  11.385  31.506   2.661
16997W        W82158  42.098   1.030  11.145
16998W        W82159  34.591  19.049  13.828
16999W        W82160  44.705   0.030   3.273
17000W        W82161  32.600  42.346  11.847
17001W        W82162  29.086  32.718   4.156
17002W        W82163  37.876   2.729  12.122
17003W        W82164  34.295  36.203  14.504
17004W        W82165  35.383  15.291  12.460
17005W        W82166  24.631   3.938   0.084
17006W        W82167  29.269  38.814   3.089
17007W        W82168  44.154  29.864  13.364
17008W        W82169   3.784  19.312  11.561
17009W        W82170  11.025  24.675   0.876
17010W        W82171  16.057  16.914   9.810
17011W        W82172  35.945   8.207  14.337
17012W        W82173   8.157  24.691  14.117
17013W        W82174  38.415  18.190   0.246
17014W        W82175  43.508  10.589   2.706
17015W        W82176  31.707  39.593  12.634
17016W        W82177  40.603  18.811  14.808
17017W        W82178   9.427  22.045  12.822
17018W        W82179  40.522  24.445  11.012
17019W        W82180  15.736   0.991  11.965
17020W        W82181  13.674  41.822   2.128
17021W        W82182  38.783  43.903  11.086
17022W        W82183  18.079   3.467   0.733
17023W        W82184   6.750  13.581  12.595
17024W        W82185  27.249  33.959  13.864
17025W        W82186   7.221   8.711   0.271
17026W        W82187  21.593   8.550   2.253
17027W        W82188  10.631  27.586   3.723
17028W        W82189  13.705  13.294   1.270
17029W        W82190   3.858  18.166  13.799
17030W        W82191  28.446  36.388   4.170
17031W        W82192  10.561  35.473   3.602
17032W        W82193  38.302   2.355   2.186
17033W        W82194   0.212   4.548  12.184
17034W        W82195   4.230  17.989  10.808
17035W        W82196  26.710  26.057   1.237
17036W        W82197  15.783  33.464   4.151
17037W        W82198  38.622  15.070   1.370
17038W        W82199  20.511   1.481  14.808
17039W        W82200  25.199  21.846  10.244
17040W        W82201   5.592  21.537  12.386
17041W        W82202  13.601  30.213   3.283
17042W        W82203  20.374  30.536  13.503
17043W        W82204  28.207  40.421  11.384
17044W        W82205  22.270  31.353  11.544
17045W        W82206  44.515  15.724   1.771
17046W        W82207  23.645  25.381   2.742
17047W        W82208  36.382  31.141  14.459
17048W        W82209  36.380  28.151  11.998
17049W        W82210  40.319  42.994  11.421
17050W        W82211  13.343  28.695  13.380
17051W        W82212  44.641   3.715   3.145
17052W        W82213  24.115   0.868   2.121
17053W        W82214  20.726  39.054  13.494
17054W        W82215  14.638  33.979   2.365
17055W        W82216  22.247  35.540   0.713
17056W        W82217  40.716  37.943   3.156
17057W        W82218   3.752  21.773   2.643
17058W        W82219   5.108  12.080   4.208
17059W        W82220   7.410   0.654   5.127
17060W        W82221  40.889  32.429  12.307
17061W        W82222  18.199  36.801   4.608
17062W        W82223  28.132  10.917   3.795
17063W        W82224   2.953  21.494   4.124
17064W        W82225  18.690  23.865   1.431
17065W        W82226  33.487  35.336  14.822
17066W        W82227  13.493  19.755   2.699
17067W        W82228  10.731  39.351  11.548
17068W        W82229  34.319  29.661   1.833
17069W        W82230  21.266   6.777  13.101
17070W        W82231  25.465  13.580   0.899
17071W        W82232  18.173   5.412   4.588
17072W        W82233  32.416  23.596  12.472
17073W        W82234  26.232  41.833  11.149
17074W        W82235  42.583  12.723   2.843
17075W        W82236   3.671  30.379  12.974
17076W        W82237  44.749  11.464   0.863
17077W        W82238  12.259  20.593  14.704
17078W        W82239  31.940   3.056   2.708
17079W        W82240  28.197  20.461  11.563
17080W        W82241  22.392  23.819  12.611
17081W        W82242  10.510  19.988   3.679
17082W        W82243  33.898  22.603   0.887
17083W        W82244  41.026  12.878   0.938
17084W        W82245  36.511  34.839  12.989
17085W        W82246  15.214  42.932  11.616
17086W        W82247   2.400  13.372   1.307
17087W        W82248  30.022  36.611   4.677
17088W        W82249  15.878  29.552  14.562
17089W        W82250  43.350  22.792   4.735
17090W        W82251  24.883  35.342   4.928
17091W        W82252  30.920  43.311   4.502
17092W        W82253   6.818  21.373  14.073
17093W        W82254   7.763  28.244  14.409
17094W        W82255  30.821  40.130   0.003
17095W        W82256   9.464  22.599  13.840
17096W        W82257  28.451  22.027   2.924
17097W        W82258  12.603  18.861  13.174
17098W        W82259  16.576  19.175   0.768
17099W        W82260   2.750  35.421  14.795
17100W        W82261   1.046   4.925   0.926
17101W        W82262  42.328  35.115  14.558
17102W        W82263  44.314  25.002  11.671
17103W        W82264   3.045  19.071  14.971
17104W        W82265  41.272  43.856   3.698
17105W        W82266  40.838  28.436   0.234
17106W        W82267  15.953   0.292  11.684
17107W        W82268  17.813   2.693  11.382
17108W        W82269  26.555   2.744  14.478
17109W        W82270  21.730  15.054   3.223
17110W        W82271  15.706   5.492  10.490
17111W        W82272  21.759   5.281  12.614
17112W        W82273   3.918  28.919  11.939
17113W        W82274  42.798  40.257  13.726
17114W        W82275  39.559  43.464  10.416
17115W        W82276  29.483   1.527   2.592
17116W        W82277  15.099  42.114  12.843
17117W        W82278  24.508  36.284  10.748
17118W        W82279  21.220  23.147  12.655
17119W        W82280  16.125  11.451   1.282
17120W        W82281  15.722  16.777   1.787
17121W        W82282  18.736   6.174   3.653
17122W        W82283  23.671  27.114   4.572
17123W        W82284  23.697  20.170   1.193
17124W        W82285  25.582   8.837   0.969
17125W        W82286  39.598  25.186   2.470
17126W        W82287  28.151  29.501   3.615
17127W        W82288   3.788  42.485   4.216
17128W        W82289  23.269  16.284   0.202
17129W        W82290  12.225  25.483  14.058
17130W        W82291   2.724  27.547  10.756
17131W        W82292  14.600  21.488   3.235
17132W        W82293  32.774  11.218   0.709
17133W        W82294  44.290  32.333   0.808
17134W        W82295  15.302  29.427  11.715
17135W        W82296  13.570  33.003   2.885
17136W        W82297   2.020  17.297   3.279
17137W        W82298   1.296   9.419   3.639
17138W        W82299  18.036  22.282   2.189
17139W        W82300  30.045  14.675   3.544
17140W        W82301  19.205  21.691  14.911
17141W        W82302   6.761  22.394   2.183
17142W        W82303  15.816  16.350  11.110
17143W        W82304  35.665  12.732  12.453
17144W        W82305  23.678  16.509  12.898
17145W        W82306  31.882  12.739   2.261
17146W        W82307  29.998   5.269  11.484
17147W        W82308  29.117  14.338  13.847
17148W        W82309  32.664  44.048  11.309
17149W        W82310  16.603   0.513  10.726
17150W        W82311  25.086  37.063  11.116
17151W        W82312  26.979  36.151   4.061
17152W        W82313   4.308  32.925   1.031
17153W        W82314  18.363  12.111  14.029
17154W        W82315  28.369  37.400  13.876
17155W        W82316  24.870   7.190  12.427
17156W        W82317  37.867  34.310   4.191
17157W        W82318  39.204  27.745  11.126
17158W        W82319  22.717   6.873   0.670
17159W        W82320  11.121   8.817   3.169
17160W        W82321   5.371   7.880  14.028
17161W        W82322  19.401  38.064   0.193
17162W        W82323   3.897   3.944   1.416
17163W        W82324  40.205  44.291  14.487
17164W        W82325  41.822  13.407  14.919
17165W        W82326  35.444  12.491   4.158
17166W        W82327   2.523  38.816  12.689
17167W        W82328  38.910   3.231  14.755
17168W        W82329  43.901  23.326  12.274
17169W        W82330  40.906  34.038  13.867
17170W        W82331   5.563  17.818  14.735
17171W        W82332   1.857  25.161  12.685
17172W        W82333  13.499   6.812   4.273
17173W        W82334  36.606  11.367   1.195
17174W        W82335  21.691   4.356  14.677
17175W        W82336  37.216   2.927   2.003
17176W        W82337  25.309   6.393  11.657
17177W        W82338  23.992  29.457   3.180
17178W        W82339  31.418  27.709  12.145
17179W        W82340  22.435  40.211  13.053
17180W        W82341  14.263   1.912  11.153
17181W        W82342  23.731  35.938  14.922
17182W        W82343  34.916  35.512  12.851
17183W        W82344  21.466  34.787  13.019
17184W        W82345   4.834  40.257  13.088
17185W        W82346   5.598  25.480  13.998
17186W        W82347   7.350  30.079   2.754
17187W        W82348  35.721   0.725   0.433
17188W        W82349  39.838  13.073  12.027
17189W        W82350  32.638  29.996  13.451
17190W        W82351  14.297  41.908   3.190
17191W        W82352  36.641   4.905  13.400
17192W        W82353  34.907  33.170   4.546
17193W        W82354  43.488   2.083   4.119
17194W        W82355  35.173  44.166  12.928
17195W        W82356  36.317  21.512  12.355
17196W        W82357   2.499  34.675  10.890
17197W        W82358  28.238  13.648   3.563
17198W        W82359  17.717  21.642   3.797
17199W        W82360  31.867  26.992  13.569
17200W        W82361  10.879  10.193   4.205
17201W        W82362   1.839  24.130  12.533
17202W        W82363  24.957  11.590   1.391
17203W        W82364   5.265  40.728  10.664
17204W        W82365   2.765   1.760   4.755
17205W        W82366   9.107   4.703  12.969
17206W        W82367   9.262  21.126  13.124
17207W        W82368  16.269   3.749  10.589
17208W        W82369  11.555  17.996  11.131
17209W        W82370  38.500  35.913  14.286
17210W        W82371  14.251   1.203  12.373
17211W        W82372   6.273  27.683  14.432
17212W        W82373  26.411  33.941   2.383
17213W        W82374  20.822  25.470  11.698
17214W        W82375  10.345   1.704   3.098
17215W        W82376  32.437  20.720  11.152
17216W        W82377   7.632  12.095   0.409
17217W        W82378  13.258   2.596   1.398
17218W        W82379   4.678  34.562   3.380
17219W        W82380  37.559  31.615  12.011
17220W        W82381  25.177  30.738  12.848
17221W        W82382  23.662  27.553   3.326
17222W        W82383   6.347  40.337   1.492
17223W        W82384  11.375  13.068   1.695
17224W        W82385  26.627   4.767  13.375
17225W        W82386   8.424  43.498   0.312
17226W        W82387   1.863  33.052   4.196
17227W        W82388   9.934  28.511  14.784
17228W        W82389  33.035  41.867   2.282
17229W        W82390   5.690  29.665  12.545
17230W        W82391  38.789  35.021  13.398
17231W        W82392  22.321  10.812  14.456
17232W        W82393  21.982  36.416  14.872
17233W        W82394  18.805  18.361   4.714
17234W        W82395  18.052  28.650   2.734
17235W        W82396  10.547  13.441  11.961
17236W        W82397   7.951  43.028   0.886
17237W        W82398  29.482  37.022   2.769
17238W        W82399  18.026   1.011   3.643
17239W        W82400  19.970  29.606   0.827
17240W        W82401  33.927   5.411  11.937
17241W        W82402  31.688  12.445   0.428
17242W        W82403  21.282  30.666   3.273
17243W        W82404  33.949  13.621   0.497
17244W        W82405  33.314  10.376   1.195
17245W        W82406  12.739   3.777  10.814
17246W        W82407  33.912  31.930   0.898
17247W        W82408  30.405  27.923   3.763
17248W        W82409  29.625   6.644   1.327
17249W        W82410  17.217  14.201  13.989
17250W        W82411   6.100   4.956  13.589
17251W        W82412  24.153  13.248  11.948
17252W        W82413   7.295   3.182   4.182
17253W        W82414  16.855   1.702   1.897
17254W        W82415  42.999  25.214  14.837
17255W        W82416   2.220   4.263   2.926
17256W        W82417  12.246  27.211  10.899
17257W        W82418  19.089  31.476   3.094
17258W        W82419  25.401  39.351  11.556
17259W        W82420  22.385  21.337   3.637
17260W        W82421  14.466  36.694   2.571
17261W        W82422  17.496  43.305  13.012
17262W        W82423  33.367  15.069   2.413
17263W        W82424  30.959  40.860  13.783
17264W        W82425  23.643  20.235   0.275
17265W        W82426  13.467  21.588  11.627
17266W        W82427   2.867   1.293  11.226
17267W        W82428  37.295  32.055   0.833
17268W        W82429  37.027  30.890   2.694
17269W        W82430  22.323  25.495  13.509
17270W        W82431  44.238  42.435  10.655
17271W        W82432   0.187  21.672  13.894
17272W        W82433  31.586  39.875  12.226
17273W        W82434  31.033   9.747  12.960
17274W        W82435   8.870   2.600  11.580
17275W        W82436  36.383   8.342   0.387
17276W        W82437  13.796  39.333  13.443
17277W        W82438  37.463  37.901   3.789
17278W        W82439  38.569  22.336   1.849
17279W        W82440   0.294  39.107  13.873
17280W        W82441  41.529  39.943   3.672
17281W        W82442  34.834  35.832  10.094
17282W        W82443  20.024  21.816  13.373
17283W        W82444  34.013  32.527   1.730
17284W        W82445  42.624   2.550  12.554
17285W        W82446   2.010   0.861  13.512
17286W        W82447  15.998  39.544   1.371
17287W        W82448  38.037  23.371   4.826
17288W        W82449  27.748  16.271  11.222
17289W        W82450  29.644  21.003   1.883
17290W        W82451  21.619  28.108   4.910
17291W        W82452  23.148  11.429   4.085
17292W        W82453  38.363  28.453  12.110
17293W        W82454  12.151   8.207   4.535
17294W        W82455  32.671  24.549  13.761
17295W        W82456  41.725  41.501   3.000
17296W        W82457  42.455  42.460   3.115
17297W        W82458  41.003  33.835   3.159
17298W        W82459   5.248  10.413  10.461
17299W        W82460  33.640  37.586  14.905
17300W        W82461  21.566  16.744   9.693
17301W        W82462   8.707  38.488   1.641
17302W        W82463  25.753  38.372  12.485
17303W        W82464   2.777   3.192   3.774
17304W        W82465  14.265   9.118  10.752
17305W        W82466  25.997  32.618   2.817
17306W        W82467  15.738  24.552   1.854
17307W        W82468  20.377  37.599   9.916
17308W        W82469  18.918  23.215   4.754
17309W        W82470   6.736  12.817   3.671
17310W        W82471   6.273  43.354   2.211
17311W        W82472   7.478  21.136   5.031
17312W        W82473  27.853  17.051  12.955
17313W        W82474  14.106  16.026  11.588
17314W        W82475   4.501  15.378   4.434
17315W        W82476  35.780   0.805  14.916
17316W        W82477  11.700  28.391   3.648
17317W        W82478  13.351  21.530  12.534
17318W        W82479  26.124   6.810   0.924
17319W        W82480  25.990  34.490   2.678
17320W        W82481  16.056  23.660   2.342
17321W        W82482  26.061  39.107  11.069
17322W        W82483  36.512   9.241   0.646
17323W        W82484  31.132   1.867  14.236
17324W        W82485  26.052  32.594  14.467
17325W        W82486   2.216  18.694  14.992
17326W        W82487   6.111  16.868  13.714
17327W        W82488  10.593  13.828   1.678
17328W        W82489  28.662  41.477   4.601
17329W        W82490  10.090  15.322  14.964
17330W        W82491   1.620   0.514  11.171
17331W        W82492  36.798  39.381  14.801
17332W        W82493  36.322  16.774  11.655
17333W        W82494  31.644   1.834  12.938
17334W        W82495  22.519  26.053   1.377
17335W        W82496  34.526  23.544  10.647
17336W        W82497  34.679  11.432   1.263
17337W        W82498   5.728  18.738   0.777
17338W        W82499   8.184   5.143   1.342
17339W        W82500  18.663  18.785  14.904
17340W        W82501   5.703  10.848   0.006
17341W        W82502  26.019  14.854   3.754
17342W        W82503  28.976  43.127   4.357
17343W        W82504  14.853  32.421  11.850
17344W        W82505   7.722  35.488  10.724
17345W        W82506  10.354  34.929  10.614
17346W        W82507  16.681  22.144   2.709
17347W        W82508   9.429  10.659   4.042
17348W        W82509   3.625  40.575   4.747
17349W        W82510   6.656   1.158  10.733
17350W        W82511  18.314  42.399   1.159
17351W        W82512   6.780  12.367   1.031
17352W        W82513  24.694  39.411   3.382
17353W        W82514  41.450  31.359  13.231
17354W        W82515  31.660  18.461   0.914
17355W        W82516   1.830   4.799  12.449
17356W        W82517  17.171  10.271  11.840
17357W        W82518   8.781  34.353   3.587
17358W        W82519  21.727  43.629  14.384
17359W        W82520  21.427   6.818   4.032
17360W        W82521  37.869   9.074   0.864
17361W        W82522  29.491  32.259   3.248
17362W        W82523  41.755  24.241  12.154
17363W        W82524  11.121   9.712   2.343
17364W        W82525   7.346  23.160  14.856
17365W        W82526   9.365  23.084  14.983
17366W        W82527  23.155  29.550  11.530
17367W        W82528   8.092   1.178   3.122
17368W        W82529  17.556  22.194  14.731
17369W        W82530  18.755   8.615   4.177
17370W        W82531   5.113  41.571   1.743
17371W        W82532  20.195  23.521  10.623
17372W        W82533  23.394   8.897   0.395
17373W        W82534  23.586   7.760  12.462
17374W        W82535  35.546  34.952   2.663
17375W        W82536   5.763  12.044   3.270
17376W        W82537  32.949  38.752   1.540
17377W        W82538   8.116   7.292  13.548
17378W        W82539  15.219  23.056  13.089
17379W        W82540   2.743   7.880   0.443
17380W        W82541  42.549  35.344  11.878
17381W        W82542  18.499   4.756   4.193
17382W        W82543   9.372  33.909   0.268
17383W        W82544  22.541  11.789   9.910
17384W        W82545  18.994   9.942   2.330
17385W        W82546   0.785  33.736   0.601
17386W        W82547  37.980  19.707  10.668
17387W        W82548  28.223  11.652  14.163
17388W        W82549   8.328  22.911   2.650
17389W        W82550  30.087  39.560   4.274
17390W        W82551  14.972  22.114  14.460
17391W        W82552   6.283  18.215   2.290
17392W        W82553  39.576  24.988  12.478
17393W        W82554   4.970  12.452   1.795
17394W        W82555   6.760   4.424   4.654
17395W        W82556  35.425  31.835  11.595
17396W        W82557  25.975   1.531   2.404
17397W        W82558  32.792  22.117   4.175
17398W        W82559   0.263  18.676  14.408
17399W        W82560  36.315  15.124  11.175
17400W        W82561   3.310  28.550  10.750
17401W        W82562  38.146  28.118   4.655
17402W        W82563  35.544  18.625  12.278
17403W        W82564  24.056  38.792  12.008
17404W        W82565  32.186   0.916   3.718
17405W        W82566  33.060   7.747   2.247
17406W        W82567  21.345  17.728   3.190
17407W        W82568  40.498  30.797  12.815
17408W        W82569  26.135  16.250   3.334
17409W        W82570  15.488   1.955   2.656
17410W        W82571  35.040  13.875   4.204
17411W        W82572  41.316  24.485   1.239
17412W        W82573  37.989  26.305   3.068
17413W        W82574  37.066   6.814   4.754
17414W        W82575  43.247   5.292   3.232
17415W        W82576  41.715   6.389   4.214
17416W        W82577  38.793  16.225   2.291
17417W        W82578  33.902  28.148   0.682
17418W        W82579  39.138  43.301  13.764
17419W        W82580   7.273  43.679  13.449
17420W        W82581  40.948  22.027   2.796
17421W        W82582  40.226  37.109   1.260
17422W        W82583  30.378  27.268  11.991
17423W        W82584   9.202  28.601  10.623
17424W        W82585  44.295  14.547  13.539
17425W        W82586  28.653  25.977  12.874
17426W        W82587  22.690  42.435  11.097
17427W        W82588   9.254  31.818  12.526
17428W        W82589  29.547   8.284   3.838
17429W        W82590  22.707  10.824   1.030
17430W        W82591   9.120   1.091   4.185
17431W        W82592   1.346   0.967  12.877
17432W        W82593  28.965  16.133   2.765
17433W        W82594  37.342  20.248  12.395
17434W        W82595  44.526  31.445   1.325
17435W        W82596   0.369   1.908  11.691
17436W        W82597   8.233  25.406  13.327
17437W        W82598   6.221   5.195   0.289
17438W        W82599   2.765  15.751   2.290
17439W        W82600  22.553   4.519   1.442
17440W        W82601  17.222  36.577  12.581
17441W        W82602  35.951  41.472   0.363
17442W        W82603  15.640   7.808   0.886
17443W        W82604  21.822  29.618  11.486
17444W        W82605  28.447   9.894  14.287
17445W        W82606  41.218  33.493  12.952
17446W        W82607  39.549  15.709  14.272
17447W        W82608  30.597  11.147   1.756
17448W        W82609   4.803  42.801   0.369
17449W        W82610  32.508  42.686   4.531
17450W        W82611  16.498  38.442  10.998
17451W        W82612   9.281  26.697  12.452
17452W        W82613  26.595  17.629   4.628
17453W        W82614  28.439  41.848  13.146
17454W        W82615  22.861  16.711   0.053
17455W        W82616  18.653  29.015  11.093
17456W        W82617  15.239  16.807   2.133
17457W        W82618   4.168  16.726  14.719
17458W        W82619   8.632  38.423  11.862
17459W        W82620  35.105  28.210   2.804
17460W        W82621  16.146  33.161   3.251
17461W        W82622  38.799  18.318  14.442
17462W        W82623  38.492  12.355   0.794
17463W        W82624  38.330  38.054   2.153
17464W        W82625  32.188  27.380   0.990
17465W        W82626   6.771  10.161  13.896
17466W        W82627  37.744  32.442  12.154
17467W        W82628  33.418  15.174  11.898
17468W        W82629  10.321   6.866  12.658
17469W        W82630  44.381  30.644   1.685
17470W        W82631  13.250  20.473  14.390
17471W        W82632  32.744  14.631  12.977
17472W        W82633  20.459  21.263  12.458
17473W        W82634  21.783  34.427  10.623
17474W        W82635  22.757  16.852  10.285
17475W        W82636  17.496   4.021   1.028
17476W        W82637   3.627  35.859  14.952
17477W        W82638  22.391   6.292  14.723
17478W        W82639  24.142   0.719   4.612
17479W        W82640  22.188  33.047   4.005
17480W        W82641  40.991   6.725   2.316
17481W        W82642  21.591   7.874  11.703
17482W        W82643  11.662  32.633  11.325
17483W        W82644  19.832  32.563   4.469
17484W        W82645  31.604  11.109   1.913
17485W        W82646   2.382   2.241  14.452
17486W        W82647  25.535  19.113  10.324
17487W        W82648  33.363  38.992  13.574
17488W        W82649  44.341  11.162  13.156
17489W        W82650  31.534  32.046   0.609
17490W        W82651   9.086   1.313   3.272
17491W        W82652  32.121  28.734   3.202
17492W        W82653  27.697  29.053  13.436
17493W        W82654  32.053   7.189  13.531
17494W        W82655  20.538  33.040   4.746
17495W        W82656  43.780  32.803   5.011
17496W        W82657   0.846  20.007  10.733
17497W        W82658  10.699   4.749   2.935
17498W        W82659  17.157   9.410   4.700
17499W        W82660  37.102  14.819   4.031
17500W        W82661  33.242  32.954  13.903
17501W        W82662   3.057   7.480   0.351
17502W        W82663  38.872  38.538  11.689
17503W        W82664  15.052  20.653  11.399
17504W        W82665   8.693  27.997  11.592
17505W        W82666  26.886  28.478   0.432
17506W        W82667   2.972  16.951   2.306
17507W        W82668  32.070   2.899   0.239
17508W        W82669  15.602  26.863   5.167
17509W        W82670  20.762  21.096  10.765
17510W        W82671  27.326  43.442  14.294
17511W        W82672  18.046  22.031  11.153
17512W        W82673  43.235  29.962   4.099
17513W        W82674  18.453  28.164   2.120
17514W        W82675  11.379   2.617   0.401
17515W        W82676   7.947  30.508   1.049
17516W        W82677   2.939   6.749  13.337
17517W        W82678   3.767  12.682  10.695
17518W        W82679  13.081  10.021   0.216
17519W        W82680  10.522  12.604   4.299
17520W        W82681  39.093   3.014   0.733
17521W        W82682  24.534   8.357   3.687
17522W        W82683  41.275   7.314   4.290
17523W        W82684  34.399  22.003   0.242
17524W        W82685   1.151  32.404   4.159
17525W        W82686   8.304   1.229  11.627
17526W        W82687  44.227  23.016  13.262
17527W        W82688  18.305  40.956   1.767
17528W        W82689  43.313   5.886   2.895
17529W        W82690  32.932  32.670   1.420
17530W        W82691   5.626  26.528  11.618
17531W        W82692  26.057  21.223   2.125
17532W        W82693  24.509   8.813  12.414
17533W        W82694  34.977  15.279   5.253
17534W        W82695  20.248   4.028  13.419
17535W        W82696  39.191  33.159   9.978
17536W        W82697  11.799  35.324   0.998
17537W        W82698  30.153  25.066  10.905
17538W        W82699  12.706  41.537   3.509
17539W        W82700  34.344  32.569  11.053
17540W        W82701   5.335  15.622  11.463
17541W        W82702  11.183   5.915  14.552
17542W        W82703  15.189   2.770  11.897
17543W        W82704  31.573   2.422   3.416
17544W        W82705  19.268   9.624  14.262
17545W        W82706  44.862   7.595   3.883
17546W        W82707  37.899  43.191  10.579
17547W        W82708  23.001  13.692  11.969
17548W        W82709  18.653  15.851   1.770
17549W        W82710   4.372  30.674  12.557
17550W        W82711  33.238  28.704  11.153
17551W        W82712  16.769   5.818  11.107
17552W        W82713  25.061   9.182   2.145
17553W        W82714  10.637  24.572  14.941
17554W        W82715  15.368  36.016  10.822
17555W        W82716  36.992  19.140  13.776
17556W        W82717   1.323   8.985   4.558
17557W        W82718  29.401  13.515  12.920
17558W        W82719  42.727  29.622   0.101
17559W        W82720  20.198   7.980   1.674
17560W        W82721  19.845  20.050   2.732
17561W        W82722  18.751  12.626   3.268
17562W        W82723  38.130  13.398   3.928
17563W        W82724  29.564  30.207  12.617
17564W        W82725  28.917   7.640  13.775
17565W        W82726  31.254   6.777   0.420
17566W        W82727  35.758  29.922  10.703
17567W        W82728  42.690   2.912   4.286
17568W        W82729  12.772   1.797  10.846
17569W        W82730  35.112  34.907   4.082
17570W        W82731   4.110   6.483  13.527
17571W        W82732   5.973  12.852   2.306
17572W        W82733   0.363   4.676   0.305
17573W        W82734   7.052   4.606  13.541
17574W        W82735  24.579  37.973   1.677
17575W        W82736   5.746   3.925   0.560
17576W        W82737   6.886   4.724   0.896
17577W        W82738  31.587  38.464   0.201
17578W        W82739  40.506  14.583  14.618
17579W        W82740  16.180  34.938   2.817
17580W        W82741   1.005  29.475  14.200
17581W        W82742  14.230  21.370   0.949
17582W        W82743   2.661   3.400   1.435
17583W        W82744   4.777  22.985   2.169
17584W        W82745  13.865  28.959  12.433
17585W        W82746  11.735  42.792  11.539
17586W        W82747  15.834  10.341  14.890
17587W        W82748  28.124  36.553  13.843
17588W        W82749  41.938  44.252  14.791
17589W        W82750  30.779  42.635   2.366
17590W        W82751   5.450  10.661   1.462
17591W        W82752  21.040  43.290   2.403
17592W        W82753  39.992  33.148  14.355
17593W        W82754  44.349  20.922  13.946
17594W        W82755  20.677  33.685   4.700
17595W        W82756  25.191  42.556  11.103
17596W        W82757  41.420  11.907  12.319
17597W        W82758  14.231  33.986   0.770
17598W        W82759  38.884   1.459   3.872
17599W        W82760  34.060  22.179   1.154
17600W        W82761  25.128  13.278  12.008
17601W        W82762  22.538   5.890  13.888
17602W        W82763  22.496  33.456   0.408
17603W        W82764  17.656   1.321  10.388
17604W        W82765  35.146  20.587   1.860
17605W        W82766  11.613  38.458   4.418
17606W        W82767  39.292  10.291   3.724
17607W        W82768  18.874  28.284   4.473
17608W        W82769  26.675  17.301  11.095
17609W        W82770  40.347  12.992  12.069
17610W        W82771  42.251  40.762  13.706
17611W        W82772  15.123   9.245  13.784
17612W        W82773  30.422   2.813  13.514
17613W        W82774  15.593  10.400   9.958
17614W        W82775  24.297  20.769   0.548
17615W        W82776  37.057  39.471  10.714
17616W        W82777  39.335  40.561   3.598
17617W        W82778  15.164  11.403   1.313
17618W        W82779  40.573  12.179   4.597
17619W        W82780  16.794  19.745  12.584
17620W        W82781  21.545  26.981   4.222
17621W        W82782   7.202   2.210   4.430
17622W        W82783  12.105  26.976  14.306
17623W        W82784   9.816  32.873   1.261
17624W        W82785  12.305  35.030   0.896
17625W        W82786  39.907  29.923   0.105
17626W        W82787   9.340  26.813   4.527
17627W        W82788   8.152   1.865  14.710
17628W        W82789   2.351  11.643   0.296
17629W        W82790  42.619  38.813   3.106
17630W        W82791   1.339   3.523  12.886
17631W        W82792  16.295  38.002   5.237
17632W        W82793  39.389  13.151   2.782
17633W        W82794  23.926  13.051  11.131
17634W        W82795  32.188  16.988   3.505
17635W        W82796   1.838  44.388  11.602
17636W        W82797   5.224  23.824  12.018
17637W        W82798  44.081  38.651   4.585
17638W        W82799  43.409   8.857  12.953
17639W        W82800  28.185  23.491  13.377
17640W        W82801  18.827   1.734  12.158
17641W        W82802   6.363  18.569  13.071
17642W        W82803  38.524  23.934   1.033
17643W        W82804   8.355  33.488  11.193
17644W        W82805  11.164  25.940  11.590
17645W        W82806   3.876  37.959  14.156
17646W        W82807  32.842  25.983  14.031
17647W        W82808  16.612  11.094  11.223
17648W        W82809  17.644   7.452  13.093
17649W        W82810  15.314  24.466   0.317
17650W        W82811  39.383  43.841   0.446
17651W        W82812  19.826  43.131   0.443
17652W        W82813   3.055  26.468  11.602
17653W        W82814  33.686  20.114   1.453
17654W        W82815  32.132  19.341  14.445
17655W        W82816  16.545  26.975  13.515
17656W        W82817  28.212  43.337  11.440
17657W        W82818  31.363  22.146   1.377
17658W        W82819  28.104  17.529   1.782
17659W        W82820  22.628  30.194  14.898
17660W        W82821  14.114  33.845  14.288
17661W        W82822  20.497  28.851  12.621
17662W        W82823   0.090  16.721  11.785
17663W        W82824  23.662  13.701   1.492
17664W        W82825  34.131  17.744   4.173
17665W        W82826  39.279  38.922  13.002
17666W        W82827  30.965  26.563  10.782
17667W        W82828  42.382   6.327   0.861
17668W        W82829  28.323   9.813   3.400
17669W        W82830  37.042   0.031   1.315
17670W        W82831  41.883  35.369   0.321
17671W        W82832  31.406   3.482  13.014
17672W        W82833  21.774   3.742  11.926
17673W        W82834  14.908   8.733  14.856
17674W        W82835  20.176   9.699   4.621
17675W        W82836  15.565  40.520   1.246
17676W        W82837  11.305   8.725   1.137
17677W        W82838  43.579  23.174   3.415
17678W        W82839  31.908  44.660   4.359
17679W        W82840  31.952  15.617   4.059
17680W        W82841  39.863  19.678  11.133
17681W        W82842  17.200  16.810  13.496
17682W        W82843  40.603  38.416   4.337
17683W        W82844  41.471  44.333   2.273
17684W        W82845   4.801  31.443  13.996
17685W        W82846  37.581   1.018   2.234
17686W        W82847   2.434  16.217   0.652
17687W        W82848  27.582  22.261   1.899
17688W        W82849  34.648  44.317  10.701
17689W        W82850  24.901  14.155   2.151
17690W        W82851  23.969  41.941   2.795
17691W        W82852  28.771  12.570   3.718
17692W        W82853  34.942   9.867  12.558
17693W        W82854  34.964  44.513  14.845
17694W        W82855  24.014  10.838   3.149
17695W        W82856  31.991  10.223  10.700
17696W        W82857  10.684   9.101   0.844
17697W        W82858  32.649  34.432   1.920
17698W        W82859  24.232  34.515  10.715
17699W        W82860   1.967  14.065  14.933
17700W        W82861  42.572  17.772  13.912
17701W        W82862  37.631   7.757   1.349
17702W        W82863   8.422   9.605   3.147
17703W        W82864  17.817  10.372  14.940
17704W        W82865   9.732  13.231   5.018
17705W        W82866  12.737  36.819   3.133
17706W        W82867   8.849  44.047  14.944
17707W        W82868  18.423  24.563   3.158
17708W        W82869   8.741  10.481  10.228
17709W        W82870   1.674   6.378   1.493
17710W        W82871  14.500  37.317  12.076
17711W        W82872  38.309   9.477  13.453
17712W        W82873   5.360  11.389  12.144
17713W        W82874  36.130  11.121  12.607
17714W        W82875  10.736  28.948  11.157
17715W        W82876  22.707   1.876   2.630
17716W        W82877  33.416  23.997  11.187
17717W        W82878   8.378  14.078   1.245
17718W        W82879  33.335  16.792  11.174
17719W        W82880  22.199  36.810  13.830
17720W        W82881   2.188  29.621  11.618
17721W        W82882  11.393   1.346  14.549
17722W        W82883  13.698  36.450   0.088
17723W        W82884   5.182  34.941   1.772
17724W        W82885  29.532  40.133  13.385
17725W        W82886  40.304   5.584  11.698
17726W        W82887  25.455  35.160   2.351
17727W        W82888  17.285  27.428  13.806
17728W        W82889   4.993  19.125   2.044
17729W        W82890  19.251   3.941  14.979
17730W        W82891  12.698  29.487  12.158
17731W        W82892  37.786  36.104   4.511
17732W        W82893  16.003  14.659   2.313
17733W        W82894  43.562  13.741  11.547
17734W        W82895   5.116  33.047   0.754
17735W        W82896  40.796  39.389  14.778
17736W        W82897  17.250  21.161  10.819
17737W        W82898  11.432  11.165   2.793
17738W        W82899  15.439  10.597   2.485
17739W        W82900  28.497  37.336  12.946
17740W        W82901  25.516  17.171  11.946
17741W        W82902   4.669   4.654  12.582
17742W        W82903   9.881  36.925   1.847
17743W        W82904  17.965  23.516  12.941
17744W        W82905  34.489   2.288  10.745
17745W        W82906  34.147  22.774   0.435
17746W        W82907  29.940  34.614   4.797
17747W        W82908  38.353   6.122  11.479
17748W        W82909  15.754   2.891   0.704
17749W        W82910  30.547  20.088   4.677
17750W        W82911  33.125   4.497  11.846
17751W        W82912   7.277   6.165  12.017
17752W        W82913  34.359  44.472  12.537
17753W        W82914  43.003  31.858   2.722
17754W        W82915  30.029  36.828   3.620
17755W        W82916   1.316   8.818   2.818
17756W        W82917  35.359  30.901  10.712
17757W        W82918  39.110  34.564  11.542
17758W        W82919   4.776  24.444  12.358
17759W        W82920  16.838  28.034   3.120
17760W        W82921  11.806  32.959  12.454
17761W        W82922  37.428  39.740  11.566
17762W        W82923  11.390  23.079   3.233
17763W        W82924  36.386  28.703  11.071
17764W        W82925  20.242  44.590   4.199
17765W        W82926  34.181  38.571   3.039
17766W        W82927  28.204  14.349  13.464
17767W        W82928  22.652  38.081  13.392
17768W        W82929  22.687  21.444   0.775
17769W        W82930  23.198  24.213   0.443
17770W        W82931  18.023  38.310   4.154
17771W        W82932   9.775  30.452   2.722
17772W        W82933  30.620  10.201  12.464
17773W        W82934   7.301  22.982   3.309
17774W        W82935  23.403   5.396  11.912
17775W        W82936  42.098  23.080  12.459
17776W        W82937  23.246   9.809   3.635
17777W        W82938  24.936  21.705   0.422
17778W        W82939  25.543  32.683   3.077
17779W        W82940  15.798   0.386  13.899
17780W        W82941  10.575  24.034  12.940
17781W        W82942  11.162  18.953  13.539
17782W        W82943  27.595  33.129  11.597
17783W        W82944  37.123  40.859  13.971
17784W        W82945   2.756   0.226  14.886
17785W        W82946  21.553  25.019   3.065
17786W        W82947  33.059  23.757   4.911
17787W        W82948  16.452  13.219   2.712
17788W        W82949  39.925  21.241   4.353
17789W        W82950  29.596  29.843  14.230
17790W        W82951  22.153  40.913   1.328
17791W        W82952  27.511  18.294   0.498
17792W        W82953  21.682  33.469  10.828
17793W        W82954   1.795   1.268   1.451
17794W        W82955  43.791  29.640  13.061
17795W        W82956  36.358  41.821  13.421
17796W        W82957  24.176  34.684  12.060
17797W        W82958  26.128  25.765   0.420
17798W        W82959  20.091  40.475  11.694
17799W        W82960  18.634  34.035  12.078
17800W        W82961   1.926   6.420   5.074
17801W        W82962  26.464  26.124  11.893
17802W        W82963   4.075   3.351   5.062
17803W        W82964   1.539  16.430   4.219
17804W        W82965  32.678  11.956  12.486
17805W        W82966  19.553  15.714   0.424
17806W        W82967  18.609  18.039   2.048
17807W        W82968  36.962   7.905  11.213
17808W        W82969  39.063  10.084   9.977
17809W        W82970   8.938  19.845   3.812
17810W        W82971  11.892  18.805   2.111
17811W        W82972  28.927  20.682  14.319
17812W        W82973   5.248  14.838   5.430
17813W        W82974  33.805   1.212  11.265
17814W        W82975  16.597  12.389   0.042
17815W        W82976   0.042  13.844   3.038
17816W        W82977  38.390  10.737   2.903
17817W        W82978  12.206  27.734  12.973
17818W        W82979  23.812  16.721   1.921
17819W        W82980   0.881  40.307   4.929
17820W        W82981  27.556  44.994   2.685
17821W        W82982   5.275   1.698   1.235
17822W        W82983  44.908   1.532   3.355
17823W        W82984  22.213   4.861  12.603
17824W        W82985  12.611  44.297   3.661
17825W        W82986  13.722  14.246   1.086
17826W        W82987   1.298   9.606   2.304
17827W        W82988   9.139   0.422  12.088
17828W        W82989  23.282   0.387   1.427
17829W        W82990  14.074  11.703  12.316
17830W        W82991   9.382  34.200  10.043
17831W        W82992  13.907  20.516   1.971
17832W        W82993  12.915  31.653   2.917
17833W        W82994   2.266   0.481   1.364
17834W        W82995  42.510  16.188  13.520
17835W        W82996  19.598  23.824   4.129
17836W        W82997  33.918   6.902  14.277
17837W        W82998  31.413   0.424   2.533
17838W        W82999  40.821   5.163  14.034
17839W        W83000  39.260   1.892  12.612
17840W        W83001  24.435  44.951  14.361
17841W        W83002  41.365  25.519   4.550
17842W        W83003  31.229  34.104   0.852
17843W        W83004  31.193  16.600   3.784
17844W        W83005  11.132   5.887   0.100
17845W        W83006  22.630  34.914  13.268
17846W        W83007  40.837  23.533   1.933
17847W        W83008   6.874  18.034   3.136
17848W        W83009  35.598  27.427  10.631
17849W        W83010   5.917  44.483  11.951
17850W        W83011   0.388  29.090   4.338
17851W        W83012  38.768  39.391   1.158
17852W        W83013  10.709  16.652   1.757
17853W        W83014  22.571  31.706  14.856
17854W        W83015  43.321   9.371   4.893
17855W        W83016  23.052  10.288   0.385
17856W        W83017  25.499  22.670   4.273
17857W        W83018   2.212  21.280   3.540
17858W        W83019  38.151  14.559   1.838
17859W        W83020  29.603  21.652   3.713
17860W        W83021   5.838  12.832  12.954
17861W        W83022  33.849  12.642  12.142
17862W        W83023   0.766  15.755   2.159
17863W        W83024  20.149  18.316  13.585
17864W        W83025  18.503  28.194  10.225
17865W        W83026  43.256   1.716  11.971
17866W        W83027   1.900  33.344   1.409
17867W        W83028   4.427   4.953  11.007
17868W        W83029  18.528  14.341   0.921
17869W        W83030  30.855  22.587  14.941
17870W        W83031  26.078  15.761  11.441
17871W        W83032  38.085  10.454  13.546
17872W        W83033  10.399   0.427   1.847
17873W        W83034  12.193  42.029   1.802
17874W        W83035  22.195  27.674   0.171
17875W        W83036   4.763  23.070  12.115
17876W        W83037  40.369   9.596   0.244
17877W        W83038  30.495   8.545  12.593
17878W        W83039  28.594   6.923   4.947
17879W        W83040  34.843  35.651   0.851
17880W        W83041  22.671  44.867   3.796
17881W        W83042  10.151  29.148  13.337
17882W        W83043  11.875  29.715  12.446
17883W        W83044  27.026  12.387   1.820
17884W        W83045  38.810   7.399  11.665
17885W        W83046  41.521  30.440  11.832
17886W        W83047  20.316  39.709  14.905
17887W        W83048   6.791  31.478  10.529
17888W        W83049  39.764  31.390  10.763
17889W        W83050  22.225   8.209   3.595
17890W        W83051   0.506   3.235   5.114
17891W        W83052   1.325  31.511   1.895
17892W        W83053  38.437  12.117   2.790
17893W        W83054   9.398  12.679  11.605
17894W        W83055  38.764  30.173   1.692
17895W        W83056  43.013  29.663  10.729
17896W        W83057   6.406   8.571  11.132
17897W        W83058   1.246  31.742  12.520
17898W        W83059  27.223  35.683  12.057
17899W        W83060   4.659  42.836   2.787
17900W        W83061  16.172  15.167   2.284
17901W        W83062  38.163  17.225  13.788
17902W        W83063  33.157  34.048   4.695
17903W        W83064  11.908  33.176   1.403
17904W        W83065  16.257  22.332   1.693
17905W        W83066   8.834  33.478   4.836
17906W        W83067  22.907  11.431   9.835
17907W        W83068  10.952  35.494  14.455
17908W        W83069  16.757  44.940   0.706
17909W        W83070  15.176  19.314  12.116
17910W        W83071  44.728  44.767   1.293
17911W        W83072  31.456  23.854  11.120
17912W        W83073  40.457   9.134  14.312
17913W        W83074  20.968  39.531  11.809
17914W        W83075  25.627  10.768  13.142
17915W        W83076  27.970   0.021  13.839
17916W        W83077  34.436  33.592   0.449
17917W        W83078   7.037  43.443   4.153
17918W        W83079   1.043   1.078   2.640
17919W        W83080  23.683  28.598  11.909
17920W        W83081   2.460   5.316  10.744
17921W        W83082  17.834  34.995   4.116
17922W        W83083  17.561  27.001  13.643
17923W        W83084  18.537  38.886   2.909
17924W        W83085  36.658   1.071   3.244
17925W        W83086  17.834  42.351   0.431
17926W        W83087  30.628  43.771  13.773
17927W        W83088   2.925  12.685   3.222
17928W        W83089   0.325  28.034  11.099
17929W        W83090  12.602   6.311   4.162
17930W        W83091  38.791  18.507  10.579
17931W        W83092  19.636  17.548   1.003
17932W        W83093  15.766  13.732  11.353
17933W        W83094  26.307   0.160  14.456
17934W        W83095  40.507  21.777   2.718
17935W        W83096  23.725  23.626  13.474
17936W        W83097   7.419  14.274   0.168
17937W        W83098  11.720   3.957  14.054
17938W        W83099  36.561   7.098   4.912
17939W        W83100  18.554   6.575   2.183
17940W        W83101  13.118  20.554   4.330
17941W        W83102  30.131  29.370   4.362
17942W        W83103  35.649  30.063   3.248
17943W        W83104  17.204  10.785   1.777
17944W        W83105  31.999   7.755  12.011
17945W        W83106   7.318   7.106   2.696
17946W        W83107  43.159   8.201   0.746
17947W        W83108  14.176  31.935  11.761
17948W        W83109  27.319  26.512  13.986
17949W        W83110  16.573  26.373   3.609
17950W        W83111  28.399  42.457   4.701
17951W        W83112  31.456   8.268   0.021
17952W        W83113  22.515  17.057  13.547
17953W        W83114  37.373   4.708  13.842
17954W        W83115  33.623  36.676   4.608
17955W        W83116   7.895   8.781  13.530
17956W        W83117  43.446  26.999   1.341
17957W        W83118  21.283  21.002  13.437
17958W        W83119  44.040   7.380  11.316
17959W        W83120  21.953  25.585   2.357
17960W        W83121  17.794  39.837   2.412
17961W        W83122   3.162  18.070  14.387
17962W        W83123  40.111  44.533  12.921
17963W        W83124   6.306  19.096  12.878
17964W        W83125  31.874  38.489   2.773
17965W        W83126  16.429  41.080   3.168
17966W        W83127  11.942   0.393   2.783
17967W        W83128  27.050  42.744   2.612
17968W        W83129  34.524  38.512   2.657
17969W        W83130  24.034  23.721   2.184
17970W        W83131   8.920  30.482   1.793
17971W        W83132  11.588   3.992  12.858
17972W        W83133  26.478  10.200   4.741
17973W        W83134  34.672  40.003   2.403
17974W        W83135  39.527  38.415   1.390
17975W        W83136  40.355  25.556   3.368
17976W        W83137  43.431   6.606  11.559
17977W        W83138  33.452   1.391  12.037
17978W        W83139  30.076  40.257  11.516
17979W        W83140  27.651  17.309  12.442
17980W        W83141  21.090  33.403  11.954
17981W        W83142  14.989  42.028   3.776
17982W        W83143  28.657   5.200   1.810
17983W        W83144  11.131  27.914   2.152
17984W        W83145  23.671  23.018   3.179
17985W        W83146  28.915  42.062  13.081
17986W        W83147   2.356   3.693   1.724
17987W        W83148  25.489  38.254  13.897
17988W        W83149  10.676   8.279   1.849
17989W        W83150   8.957   9.117  10.757
17990W        W83151  20.213  23.284  11.087
17991W        W83152  37.484   4.282   0.331
17992W        W83153   8.665  14.377   1.547
17993W        W83154  27.426  13.142   3.582
17994W        W83155  20.648   7.270  11.995
17995W        W83156   0.453  35.642   0.788
17996W        W83157  35.063  31.010   3.217
17997W        W83158   3.650  42.474  12.077
17998W        W83159   4.313  27.734  14.988
17999W        W83160   4.700  30.127   3.214
18000W        W83161  36.747  25.181   4.633
18001W        W83162  13.473  20.331   0.207
18002W        W83163   7.129  11.311  10.658
18003W        W83164  41.359  16.682   0.169
18004W        W83165  35.343  37.478   3.221
18005W        W83166  41.137  22.218   1.208
18006W        W83167  40.831  39.525   2.597
18007W        W83168  16.899  44.826  13.679
18008W        W83169  40.057  15.422   2.157
18009W        W83170  44.995  28.119   0.469
18010W        W83171  27.019  13.731  13.805
18011W        W83172   3.278  18.073   4.475
18012W        W83173  10.329  20.685  11.673
18013W        W83174  40.093  43.419  14.019
18014W        W83175  43.011  22.359  14.323
18015W        W83176  38.700  38.928  12.502
18016W        W83177  41.758   9.718   3.380
18017W        W83178  34.300  15.570   1.700
18018W        W83179  16.780  17.814   3.814
18019W        W83180  10.289  11.241   2.096
18020W        W83181  19.792  26.517  14.434
18021W        W83182  13.317  17.575  10.677
18022W        W83183  27.007  10.314   2.115
18023W        W83184  36.446  24.078  11.069
18024W        W83185   6.748  19.381  12.866
18025W        W83186  24.197   4.545   5.155
18026W        W83187  16.268   4.899   1.911
18027W        W83188  23.599  36.356  12.067
18028W        W83189  27.049   6.030   1.889
18029W        W83190   5.193   5.117   1.352
18030W        W83191  28.899   6.947   4.526
18031W        W83192  32.459  38.529  12.665
18032W        W83193  17.418   4.632   5.133
18033W        W83194   8.596  40.070  10.706
18034W        W83195  27.132   5.445  14.498
18035W        W83196  26.513   3.823  14.027
18036W        W83197  21.499  41.355   1.694
18037W        W83198  32.766   8.164  12.514
18038W        W83199  27.992  35.915   4.065
18039W        W83200  10.255  42.364  13.949
18040W        W83201  41.360  10.159  11.128
18041W        W83202  16.201   3.664   2.547
18042W        W83203  23.163   8.714   2.147
18043W        W83204  20.706   8.773   4.624
18044W        W83205  16.977   1.363  14.446
18045W        W83206  35.550  21.778   4.316
18046W        W83207  31.703  11.745  12.634
18047W        W83208  19.849  27.309  14.726
18048W        W83209  30.448  23.546   3.447
18049W        W83210  16.023  32.842  13.404
18050W        W83211   0.803   9.841   1.368
18051W        W83212  36.985   1.439  12.659
18052W        W83213  24.608  25.579   2.861
18053W        W83214   9.331   8.428   4.398
18054W        W83215  39.930  31.666  14.264
18055W        W83216  36.663  13.515  11.064
18056W        W83217   5.309  31.939  13.278
18057W        W83218   5.972  13.828  13.949
18058W        W83219  34.893   5.264  10.911
18059W        W83220  32.883  35.617   2.729
18060W        W83221  17.157  38.539  10.216
18061W        W83222  38.116  30.626  12.549
18062W        W83223  31.690  30.687  14.829
18063W        W83224   7.560  25.946   1.272
18064W        W83225  13.013   8.294   0.530
18065W        W83226  17.216  35.856  10.717
18066W        W83227  31.099  40.550  11.101
18067W        W83228  28.634  15.565  10.687
18068W        W83229  16.148  43.924  12.941
18069W        W83230   9.069   2.982  10.704
18070W        W83231  16.173  36.078   4.651
18071W        W83232  41.781  23.594   1.532
18072W        W83233  39.819   2.805   3.260
18073W        W83234   4.686  12.125  14.068
18074W        W83235   4.806   3.926  14.306
18075W        W83236   1.456  44.421   3.830
18076W        W83237  29.123  26.832   1.347
18077W        W83238  39.885  22.700   4.294
18078W        W83239  34.071   9.937  10.277
18079W        W83240  13.398  19.454   3.629
18080W        W83241  34.068   8.800  13.224
18081W        W83242  24.542  40.089   2.276
18082W        W83243  17.726  22.514  13.784
18083W        W83244  18.379  24.945   4.307
18084W        W83245  26.095   5.498  11.061
18085W        W83246  10.865  29.385   2.876
18086W        W83247  38.749   5.969   0.619
18087W        W83248   3.757  29.478   0.537
18088W        W83249  13.655   1.500  14.844
18089W        W83250  22.725   5.881  14.841
18090W        W83251  16.090  21.261  13.331
18091W        W83252  33.050  40.926  13.514
18092W        W83253  25.000  43.867  11.952
18093W        W83254  35.096   8.795   3.246
18094W        W83255   4.496  36.211   3.738
18095W        W83256  43.834   3.793  13.559
18096W        W83257  12.113  31.473   3.245
18097W        W83258  36.479  10.658   1.296
18098W        W83259  38.363  37.457  10.420
18099W        W83260  43.549  33.194   2.873
18100W        W83261  26.638  21.778  14.346
18101W        W83262  29.954  36.081  11.427
18102W        W83263  10.370  21.630   0.967
18103W        W83264  12.897  44.211  14.192
18104W        W83265  11.268   7.059   2.561
18105W        W83266  10.818  29.962   4.713
18106W        W83267  39.608   2.469  10.929
18107W        W83268  10.772   8.057   3.427
18108W        W83269   1.907  13.475  11.564
18109W        W83270  33.060  20.032  14.371
18110W        W83271  23.219  33.793  14.407
18111W        W83272  27.505  21.009   0.218
18112W        W83273  34.134  21.747   0.682
18113W        W83274  36.866  15.187   3.720
18114W        W83275   4.957  33.529  12.819
18115W        W83276  23.864   3.239  11.013
18116W        W83277  32.131  16.103  14.072
18117W        W83278   8.198  28.523   1.239
18118W        W83279  40.350  42.007  11.802
18119W        W83280   5.348  11.199   1.431
18120W        W83281  19.024  11.246   4.505
18121W        W83282   1.959  39.285  14.754
18122W        W83283   5.922  30.600   1.711
18123W        W83284  18.013  29.858  13.435
18124W        W83285  34.587   7.692  12.112
18125W        W83286  20.843  26.508  12.540
18126W        W83287   2.241  27.676   3.225
18127W        W83288  43.797   8.504  10.615
18128W        W83289  16.658  10.329   4.359
18129W        W83290  21.997  18.020   2.510
18130W        W83291  25.452  38.632   0.737
18131W        W83292  17.659  24.570   0.961
18132W        W83293  27.879  14.963   3.303
18133W        W83294  12.729  28.180  10.733
18134W        W83295  43.319  36.937   2.323
18135W        W83296  34.981  20.653   5.033
18136W        W83297  37.961  44.469  12.278
18137W        W83298  39.558  38.921   4.111
18138W        W83299  42.948  40.748  12.028
18139W        W83300  24.913  37.635   0.888
18140W        W83301  28.427   8.982   3.155
18141W        W83302  41.882   5.418  14.896
18142W        W83303  27.240  43.454   4.388
18143W        W83304  43.290   1.796  12.846
18144W        W83305   4.147  26.605   2.177
18145W        W83306  23.181   8.199  14.830
18146W        W83307  39.941  10.290  12.804
18147W        W83308   5.777  21.584   2.099
18148W        W83309   7.376   3.245   1.366
18149W        W83310  23.155  20.222   9.654
18150W        W83311  41.585  14.084   2.249
18151W        W83312  37.577  26.260  13.605
18152W        W83313  17.570  27.072  12.781
18153W        W83314  15.025   9.629   1.384
18154W        W83315  11.772  40.866   3.268
18155W        W83316   7.246  39.907   0.389
18156W        W83317   4.449  35.080  11.945
18157W        W83318  32.925  23.530  13.493
18158W        W83319  10.688  41.923   0.532
18159W        W83320  31.639  42.267  12.020
18160W        W83321  30.380  35.565   2.836
18161W        W83322  34.510  24.427   4.508
18162W        W83323  12.508  35.974  13.058
18163W        W83324  41.698   7.075   3.045
18164W        W83325  16.537  41.351   1.616
18165W        W83326  20.730  22.255   1.451
18166W        W83327  29.156  11.377   2.808
18167W        W83328   2.324  28.397   1.771
18168W        W83329   6.681  35.908  14.297
18169W        W83330   7.930   3.965  14.846
18170W        W83331  27.518  41.490   2.723
18171W        W83332  41.323  23.971  12.254
18172W        W83333  17.003  28.107   3.598
18173W        W83334   4.268   3.441   0.442
18174W        W83335   7.412  41.040   0.964
18175W        W83336  22.454   4.758  14.452
18176W        W83337  29.518  36.473   4.681
18177W        W83338  38.095  16.199  12.606
18178W        W83339   5.824  15.756  12.972
18179W        W83340  34.580  21.741  14.807
18180W        W83341  18.667   1.022   1.758
18181W        W83342  29.296  25.026  11.703
18182W        W83343  34.843  11.116  11.614
18183W        W83344   9.218   5.947   1.709
18184W        W83345  36.418  35.638  14.271
18185W        W83346  19.506  24.217   1.864
18186W        W83347   9.665  39.884  10.769
18187W        W83348   2.024  31.338  12.500
18188W        W83349  19.619  19.120   4.072
18189W        W83350  10.720  26.774  12.384
18190W        W83351  14.878  35.097   4.084
18191W        W83352  20.370   8.588  11.811
18192W        W83353  27.963  41.001  13.095
18193W        W83354   1.392   5.396   2.639
18194W        W83355  12.613   1.755   3.645
18195W        W83356   6.747  40.371   2.284
18196W        W83357  26.147   1.981   4.840
18197W        W83358   3.801  26.679  12.564
18198W        W83359  13.832  25.141  14.901
18199W        W83360  23.609  33.453  14.322
18200W        W83361  14.217  38.022   2.390
18201W        W83362   4.168   4.970  13.877
18202W        W83363  10.505  10.841  10.920
18203W        W83364  15.088  24.171   3.143
18204W        W83365  18.580  31.892   0.255
18205W        W83366  30.912  41.937   0.457
18206W        W83367  15.324  43.140   2.821
18207W        W83368  13.664  23.891  14.388
18208W        W83369  21.041  19.778  14.517
18209W        W83370  38.958  38.112  10.722
18210W        W83371   7.281   5.494  10.541
18211W        W83372  36.914  21.358  14.031
18212W        W83373  35.522   0.244  13.844
18213W        W83374  17.565  16.574   2.299
18214W        W83375  29.471  31.603  14.655
18215W        W83376  29.676  13.043  12.505
18216W        W83377  19.954  12.856  10.317
18217W        W83378  39.820  16.763   1.230
18218W        W83379   1.977  22.915  14.310
18219W        W83380  18.215   1.438  11.624
18220W        W83381   5.674   3.203  11.478
18221W        W83382  39.569  43.929  10.650
18222W        W83383  41.949  42.408   2.537
18223W        W83384  23.176  20.249  10.196
18224W        W83385  38.453   1.098  13.967
18225W        W83386  42.634   6.856  12.600
18226W        W83387   5.170  11.792   3.763
18227W        W83388  33.113  19.624   2.691
18228W        W83389  44.311   9.651   4.307
18229W        W83390  17.715  41.150   1.348
18230W        W83391  15.680  10.970  12.170
18231W        W83392   8.879  17.746   4.887
18232W        W83393  17.307  25.442   1.095
18233W        W83394  27.998  31.563  14.964
18234W        W83395  44.643  22.734   4.734
18235W        W83396  15.761  35.326   4.701
18236W        W83397  20.135  34.791   0.925
18237W        W83398  16.131  40.641   3.248
18238W        W83399   6.972  27.681  14.906
18239W        W83400  40.998  34.346   3.212
18240W        W83401   5.269  41.355   4.554
18241W        W83402  40.336  13.557   1.325
18242W        W83403  38.147  34.877  11.033
18243W        W83404   0.503  37.289   1.381
18244W        W83405  36.019  11.676   3.208
18245W        W83406  15.503  31.138  13.434
18246W        W83407  32.525  35.016  11.039
18247W        W83408   5.266  20.026  14.071
18248W        W83409  17.539  32.527   3.154
18249W        W83410  40.859  33.118  13.054
18250W        W83411  37.437   6.504  13.565
18251W        W83412  31.046  14.756  10.622
18252W        W83413  13.395  20.409  10.952
18253W        W83414  27.849  39.072  13.947
18254W        W83415  32.245  28.240  12.288
18255W        W83416  17.401  42.085   4.048
18256W        W83417  19.232  29.570  12.999
18257W        W83418  35.620  37.862   2.315
18258W        W83419  38.883   4.782  10.185
18259W        W83420   9.629  22.624  12.046
18260W        W83421  27.979  20.385   1.315
18261W        W83422  27.564   5.029   4.513
18262W        W83423  16.805  20.114   4.534
18263W        W83424  27.996  43.939  11.078
18264W        W83425  37.432   6.683   1.713
18265W        W83426  35.436  13.214   1.233
18266W        W83427   8.133  36.440  13.892
18267W        W83428  26.332  34.427  11.156
18268W        W83429  34.555  30.799  13.390
18269W        W83430   0.491  28.457   1.396
18270W        W83431  32.644  32.464  14.794
18271W        W83432   1.321  16.143   2.906
18272W        W83433  30.045  18.074   2.315
18273W        W83434   0.763  13.254  13.414
18274W        W83435   2.041  28.663  13.016
18275W        W83436  10.413  28.080  12.025
18276W        W83437  37.431  25.019  13.566
18277W        W83438  29.593  21.741   1.416
18278W        W83439  43.752  43.371  11.577
18279W        W83440  11.671   8.389   0.095
18280W        W83441  11.056  35.055   1.426
18281W        W83442  11.402  16.289   2.824
18282W        W83443  23.587  14.297  11.541
18283W        W83444   9.744  28.898   4.295
18284W        W83445  34.049  20.283  10.835
18285W        W83446  21.242  29.221   9.927
18286W        W83447  44.132  35.301   1.273
18287W        W83448  30.443  34.537  10.662
18288W        W83449  39.568   6.564   0.346
18289W        W83450  41.887  33.379   2.595
18290W        W83451  17.386  35.968   2.359
18291W        W83452  13.178  21.726  14.887
18292W        W83453  35.318   1.474   0.841
18293W        W83454   6.493   3.021   1.194
18294W        W83455  23.567  23.099  12.878
18295W        W83456  25.109   7.159   5.022
18296W        W83457  35.473  10.973  12.442
18297W        W83458  14.825  41.519   3.698
18298W        W83459  39.663  16.556  12.002
18299W        W83460  17.406   0.418  12.509
18300W        W83461  23.612  19.742   4.097
18301W        W83462  20.691  18.994  14.376
18302W        W83463  12.164   1.470   1.896
18303W        W83464  33.955  39.964   1.939
18304W        W83465  24.628  43.496  12.913
18305W        W83466  43.427   9.980  12.185
18306W        W83467  36.720  27.675   2.135
18307W        W83468  44.955  11.173   4.168
18308W        W83469  40.383   7.675   4.522
18309W        W83470  20.341   1.801   0.188
18310W        W83471  25.334  36.495   4.951
18311W        W83472   0.351   9.000  13.369
18312W        W83473  42.986  14.294   3.778
18313W        W83474   0.488  42.064   2.421
18314W        W83475  12.136   5.868   2.403
18315W        W83476  33.441  21.627  14.031
18316W        W83477  36.464   9.658   1.592
18317W        W83478  16.198  37.733  14.848
18318W        W83479  40.099  17.153  12.403
18319W        W83480  21.711  41.027   4.213
18320W        W83481  41.032  39.951   2.820
18321W        W83482  39.341  18.143   1.421
18322W        W83483   2.427  38.721   1.809
18323W        W83484   8.688   7.903   2.212
18324W        W83485  43.272  12.324   3.731
18325W        W83486  19.104   5.874  12.653
18326W        W83487  27.912  28.818  11.139
18327W        W83488  26.448  30.762  11.626
18328W        W83489  44.781   6.155   0.881
18329W        W83490   5.494  19.956  10.571
18330W        W83491  44.988  38.086   4.631
18331W        W83492  41.824  38.585   3.195
18332W        W83493  26.085   0.485  13.561
18333W        W83494   9.644  32.024  14.314
18334W        W83495   2.995  42.753   0.829
18335W        W83496  20.433  12.679  12.010
18336W        W83497  35.483  16.201   2.221
18337W        W83498   8.706  25.934  11.468
18338W        W83499  43.437  20.235   1.257
18339W        W83500  35.035  10.297   4.395
18340W        W83501  30.564  14.307   1.291
18341W        W83502  38.916  24.960  10.765
18342W        W83503  31.401  39.245   1.363
18343W        W83504  38.021  27.126  14.272
18344W        W83505   2.747   3.361   4.270
18345W        W83506  25.590  29.396  14.719
18346W        W83507  26.104  21.956   3.139
18347W        W83508  16.497  34.103  11.710
18348W        W83509  16.739  29.149   0.672
18349W        W83510  16.218  39.812  12.077
18350W        W83511  42.603  29.437   3.716
18351W        W83512  36.921  14.607   0.052
18352W        W83513  17.121  20.578   3.695
18353W        W83514  13.818  12.913   3.629
18354W        W83515   3.899  41.371   1.525
18355W        W83516   1.110   2.701   4.058
18356W        W83517   9.194   1.482   0.390
18357W        W83518  14.112  10.552   4.847
18358W        W83519  37.932  31.119   2.208
18359W        W83520   9.651  29.645  13.062
18360W        W83521  20.600  31.201  11.126
18361W        W83522  40.847   5.344   2.776
18362W        W83523  24.741  40.615  13.803
18363W        W83524   1.277  43.438  14.923
18364W        W83525  44.464  24.065   4.630
18365W        W83526  22.829  27.664  11.552
18366W        W83527  25.010  37.063  12.318
18367W        W83528  40.303  35.879  12.943
18368W        W83529  27.284   1.165   3.844
18369W        W83530  21.803  27.881   0.505
18370W        W83531   9.487  23.259  12.611
18371W        W83532   9.196  35.881  11.963
18372W        W83533  26.113  30.433  11.862
18373W        W83534  43.218   5.902   0.919
18374W        W83535   3.871  39.007  12.383
18375W        W83536  38.012   8.127   3.682
18376W        W83537  21.079  35.791  12.419
18377W        W83538  40.446  44.417  13.553
18378W        W83539  31.039  10.143  12.046
18379W        W83540  16.033   8.244   4.150
18380W        W83541   0.709  25.718   3.759
18381W        W83542  28.208   9.819  11.960
18382W        W83543  27.884  21.458   2.229
18383W        W83544  37.399  39.560   4.831
18384W        W83545  33.699  22.511   0.376
18385W        W83546  17.628  14.732   4.023
18386W        W83547  41.008  11.389   0.455
18387W        W83548  41.505  33.970  14.189
18388W        W83549   4.702  24.986  11.226
18389W        W83550  12.107  44.319   3.276
18390W        W83551  18.735  31.162   2.303
18391W        W83552  44.744  34.380   4.278
18392W        W83553  42.223   3.943   1.764
18393W        W83554  33.153  10.861  11.982
18394W        W83555  12.189  40.314   3.689
18395W        W83556  29.485  41.859   4.448
18396W        W83557  16.573  14.166  10.317
18397W        W83558  41.583  19.447  14.334
18398W        W83559  39.592  12.712   0.846
18399W        W83560  11.084  15.957  12.589
18400W        W83561  22.265   2.929  13.033
18401W        W83562  29.217  18.809  12.008
18402W        W83563  22.949  26.113   1.006
18403W        W83564  42.572  23.694   3.172
18404W        W83565   8.423  36.470   2.426
18405W        W83566  17.613  10.044   3.172
18406W        W83567   6.795  10.797  13.403
18407W        W83568  38.796  39.082  12.995
18408W        W83569  38.212   8.778   0.611
18409W        W83570  35.074  14.304   2.877
18410W        W83571  35.891   2.541  11.612
18411W        W83572   5.746  24.747  11.139
18412W        W83573  10.068  11.640  13.482
18413W        W83574  41.989   4.970  11.541
18414W        W83575  14.225  12.639   3.467
18415W        W83576  38.820  31.634   1.751
18416W        W83577   2.854  25.503  11.377
18417W        W83578   2.394  15.355   1.052
18418W        W83579  11.435   6.823  12.678
18419W        W83580  16.464  16.496  11.640
18420W        W83581   2.405   2.180  11.953
18421W        W83582  22.640   9.202  10.530
18422W        W83583  44.445  30.907  12.818
18423W        W83584   2.402   2.419   2.766
18424W        W83585   8.881   5.855   1.287
18425W        W83586  28.545  32.673   3.277
18426W        W83587   2.736  17.118  13.780
18427W        W83588  19.182  11.766   0.990
18428W        W83589  22.676  26.216   3.609
18429W        W83590  26.760  41.477  10.746
18430W        W83591  35.119  33.465   1.789
18431W        W83592  43.160  21.727   0.475
18432W        W83593   4.919  20.740  10.236
18433W        W83594  13.321   8.427  11.956
18434W        W83595  42.798  24.686   0.372
18435W        W83596  10.666   8.063  10.612
18436W        W83597  26.882  42.728  14.081
18437W        W83598  16.440  39.623  13.401
18438W        W83599   1.879  21.609   3.805
18439W        W83600  39.872  13.893   2.885
18440W        W83601   5.712  29.537  11.203
18441W        W83602   5.256  21.889  11.087
18442W        W83603  10.873  15.387   2.852
18443W        W83604  40.934  34.916  13.364
18444W        W83605  36.836  33.252  12.645
18445W        W83606  37.517  16.221   1.656
18446W        W83607   9.991   2.685   4.099
18447W        W83608  30.115  33.825  11.230
18448W        W83609  10.308  32.164   0.334
18449W        W83610  27.624  16.706   2.936
18450W        W83611  26.748  35.235   1.948
18451W        W83612  28.100  40.789   3.583
18452W        W83613  33.116  23.019  12.758
18453W        W83614  29.079  28.550  13.439
18454W        W83615  19.159  22.886  13.546
18455W        W83616   9.331  25.104   4.156
18456W        W83617  26.195  42.216   1.186
18457W        W83618  39.816  18.313  11.064
18458W        W83619  32.666  13.826   1.891
18459W        W83620  25.017  43.529  11.080
18460W        W83621  11.420   3.248   4.419
18461W        W83622  27.264  33.115  14.855
18462W        W83623  43.185  27.205   2.645
18463W        W83624  36.413  23.492   1.287
18464W        W83625   5.144  40.589   3.290
18465W        W83626  13.566   8.650  14.371
18466W        W83627  42.717  44.056   1.662
18467W        W83628  17.038  26.981   1.756
18468W        W83629   9.846  24.488  11.904
18469W        W83630  30.813   9.708  12.474
18470W        W83631  43.449  39.387  10.187
18471W        W83632   2.319   0.018   0.061
18472W        W83633  19.294   6.327  11.596
18473W        W83634  25.799  29.174  10.259
18474W        W83635  15.624   4.209   1.531
18475W        W83636  11.947  29.215   4.145
18476W        W83637   0.966   2.460  14.244
18477W        W83638  14.954  36.159  14.721
18478W        W83639  31.545  21.255   0.322
18479W        W83640   7.461  13.596  12.096
18480W        W83641   7.379  12.671  13.434
18481W        W83642  39.508  17.322  11.206
18482W        W83643  20.329  33.403  10.760
18483W        W83644  44.972  31.861  12.486
18484W        W83645  40.997   5.329  14.870
18485W        W83646  28.542  38.353  13.069
18486W        W83647  28.113  20.495   0.790
18487W        W83648  11.807  23.101  14.915
18488W        W83649   1.720  25.141  14.772
18489W        W83650  16.159  19.513   1.280
18490W        W83651  14.271  17.103  10.810
18491W        W83652  10.882  16.130   2.883
18492W        W83653  27.041  43.453   3.381
18493W        W83654  42.694  33.474   3.039
18494W        W83655   1.789  25.313  13.997
18495W        W83656  18.424  42.883   0.972
18496W        W83657  24.026   6.824   0.752
18497W        W83658   8.799   5.736  14.932
18498W        W83659  26.695  23.676  13.012
18499W        W83660  26.619  42.769  10.968
18500W        W83661  15.238   1.748  10.307
18501W        W83662   4.243   8.507  12.825
18502W        W83663  20.544  21.471   3.302
18503W        W83664  21.592  32.444   1.183
18504W        W83665  12.704  31.924  12.135
18505W        W83666  43.112  10.352  13.488
18506W        W83667   1.266   9.383   1.788
18507W        W83668  36.163  40.557  12.115
18508W        W83669   3.284  13.639   3.105
18509W        W83670  17.003  11.616  12.943
18510W        W83671  23.698   0.487  12.788
18511W        W83672   1.013  43.804   3.292
18512W        W83673  29.175  12.204  11.580
18513W        W83674  25.493   5.921  10.714
18514W        W83675  14.708  26.514   3.208
18515W        W83676  15.282  34.973   1.555
18516W        W83677  11.854  14.293   3.753
18517W        W83678  39.382   6.700  12.226
18518W        W83679  43.772  10.888   4.584
18519W        W83680  11.627  43.436   4.205
18520W        W83681  19.110  19.096   4.165
18521W        W83682  28.242   9.834  11.143
18522W        W83683   1.690  40.668  14.854
18523W        W83684  17.577  41.919   0.377
18524W        W83685  35.921  40.323   1.833
18525W        W83686  43.750  36.998  12.915
18526W        W83687  26.562  44.042   2.740
18527W        W83688  36.871   1.026  12.961
18528W        W83689  39.407  28.111   0.839
18529W        W83690  19.397   2.999  14.404
18530W        W83691  15.360  14.995  11.470
18531W        W83692  26.526  11.984  10.202
18532W        W83693  17.144  37.381   1.521
18533W        W83694  20.568  36.573  14.519
18534W        W83695  33.158  44.586  11.992
18535W        W83696  33.184  16.307  12.744
18536W        W83697  33.411   6.155   2.472
18537W        W83698   1.714  10.201   3.607
18538W        W83699   9.710  40.377  12.343
18539W        W83700  15.398  38.469   4.156
18540W        W83701  32.697  17.715  12.849
18541W        W83702  23.796  26.247   1.176
18542W        W83703  22.658   4.793   1.893
18543W        W83704  16.619  38.870   4.913
18544W        W83705  42.254  37.088  12.473
18545W        W83706  13.340  35.912   1.207
18546W        W83707  25.319  39.529   0.900
18547W        W83708  15.797  37.487  11.627
18548W        W83709   8.423  21.993  11.911
18549W        W83710  23.221   2.788   2.394
18550W        W83711  43.941  36.364  11.068
18551W        W83712  32.310  18.031   1.204
18552W        W83713  20.533   0.014  11.673
18553W        W83714   8.173  37.284  12.239
18554W        W83715   8.378   6.360   3.350
18555W        W83716  16.647  22.133  14.251
18556W        W83717   5.821   3.196   3.843
18557W        W83718  28.091  23.108  14.930
18558W        W83719  37.438  27.865  12.382
18559W        W83720  17.248   5.442   3.272
18560W        W83721   7.432  42.980   1.506
18561W        W83722  38.028  44.810  14.407
18562W        W83723  41.158  22.720  14.570
18563W        W83724  14.221  21.207   0.048
18564W        W83725  22.498  42.049   0.280
18565W        W83726  17.364  36.105   3.682
18566W        W83727   0.304   1.229  14.375
18567W        W83728   2.976   3.945  12.454
18568W        W83729   0.909   7.162   1.341
18569W        W83730  41.893  26.949   3.674
18570W        W83731  27.397   0.581  12.936
18571W        W83732  11.441  18.210  11.997
18572W        W83733  20.788   6.383   4.817
18573W        W83734  40.103   1.452  10.483
18574W        W83735  26.444  10.392  12.194
18575W        W83736  19.865  19.147   4.549
18576W        W83737   1.255  25.153  14.424
18577W        W83738  15.245  28.216  11.140
18578W        W83739  24.972   3.449  11.729
18579W        W83740  15.359   2.694  11.041
18580W        W83741   2.482  23.633  12.151
18581W        W83742  28.933   4.409  10.561
18582W        W83743  18.222  37.677  10.758
18583W        W83744   5.841  39.942   4.719
18584W        W83745  15.583  30.326   4.866
18585W        W83746  13.165  25.431  13.966
18586W        W83747  29.542   9.419   0.045
18587W        W83748  15.316  43.238  10.154
18588W        W83749  19.629  31.579  11.621
18589W        W83750  27.008  18.503   0.370
18590W        W83751  26.619   9.706   0.977
18591W        W83752   8.400  19.780   3.104
18592W        W83753   9.102  32.075  12.114
18593W        W83754  17.856  30.577  14.389
18594W        W83755  32.653  22.114   0.865
18595W        W83756   8.372  31.135   2.300
18596W        W83757   1.457  20.061  12.866
18597W        W83758  15.256  18.209   4.955
18598W        W83759  43.367  30.637  12.435
18599W        W83760   2.220  26.926  13.901
18600W        W83761  40.601  37.129   2.409
18601W        W83762   4.870  43.794   0.501
18602W        W83763   7.189  27.448  14.304
18603W        W83764  36.568  43.039  13.904
18604W        W83765  33.701   4.898  10.410
18605W        W83766  16.290  38.794   0.935
18606W        W83767  20.022   5.494   1.861
18607W        W83768  39.534  34.878   2.175
18608W        W83769  28.854  22.768   4.099
18609W        W83770  21.511  16.211   9.632
18610W        W83771   7.645  29.246   2.202
18611W        W83772  42.282   9.814   2.455
18612W        W83773   4.514  43.418  11.847
18613W        W83774  17.212  31.063  14.857
18614W        W83775   3.020   4.710   2.760
18615W        W83776  44.145  18.356  14.319
18616W        W83777   3.870  31.266  13.582
18617W        W83778   3.647  33.913  11.258
18618W        W83779  25.702  35.477  12.990
18619W        W83780  14.844  41.951   3.255
18620W        W83781   7.654  19.678   1.759
18621W        W83782  18.195   1.920   0.799
18622W        W83783  42.299   9.074   2.926
18623W        W83784  27.416   9.140   2.099
18624W        W83785  19.766  26.911  11.895
18625W        W83786  22.506   0.655   0.074
18626W        W83787  28.393   7.683  14.772
18627W        W83788  32.100  33.181   1.226
18628W        W83789  12.184  25.498  12.298
18629W        W83790   4.815  34.879   2.114
18630W        W83791  19.701  23.193  14.373
18631W        W83792  12.786   5.762   2.848
18632W        W83793  41.599  40.083  11.646
18633W        W83794  25.631  27.262   3.140
18634W        W83795  33.492  44.335   3.062
18635W        W83796  15.025  34.650   3.193
18636W        W83797   8.815  13.226   1.053
18637W        W83798  44.306  13.287   2.970
18638W        W83799   7.418  20.607  12.510
18639W        W83800  28.491   7.811   1.888
18640W        W83801  13.431  23.472  10.767
18641W        W83802   1.880  36.630   0.452
18642W        W83803  23.065  14.478  13.949
18643W        W83804  37.740  17.182   4.266
18644W        W83805  21.103  44.399  12.318
18645W        W83806  30.722   5.730  10.331
18646W        W83807  36.397  41.734  10.791
18647W        W83808  19.051  25.114  12.625
18648W        W83809  39.500  27.717   3.205
18649W        W83810  17.020   3.697  14.045
18650W        W83811  19.536  27.576   0.020
18651W        W83812  31.896  16.826   0.984
18652W        W83813   6.879  12.528   3.273
18653W        W83814   4.505  31.054   3.221
18654W        W83815  33.047  18.902  12.503
18655W        W83816  22.762  30.323   4.234
18656W        W83817  26.664  23.761   2.354
18657W        W83818  40.390   5.090   2.691
18658W        W83819  12.277  22.026  12.070
18659W        W83820  27.544  28.572  12.511
18660W        W83821  39.427   8.668   4.210
18661W        W83822  29.337  30.350   4.155
18662W        W83823   2.927  12.322  12.990
18663W        W83824  37.812  31.994   1.714
18664W        W83825  25.715  44.748  12.162
18665W        W83826  32.341  30.569  14.327
18666W        W83827  16.108  33.931  12.150
18667W        W83828  25.194   4.772   1.464
18668W        W83829  32.908   2.147   0.762
18669W        W83830  16.325  37.447  11.631
18670W        W83831  22.021  38.680   9.791
18671W        W83832  15.010  24.623  12.881
18672W        W83833  43.847  13.831  12.026
18673W        W83834  26.891  19.795  10.928
18674W        W83835  17.626  35.215  13.336
18675W        W83836  34.275   2.344   3.217
18676W        W83837  42.046  23.033  14.867
18677W        W83838  21.004   7.579   5.094
18678W        W83839  36.519  12.580  12.464
18679W        W83840  18.898   2.814  14.324
18680W        W83841  25.798   6.243  11.531
18681W        W83842  25.623  24.468   3.593
18682W        W83843  38.419  27.381  14.495
18683W        W83844  37.994   1.938   2.429
18684W        W83845  27.602  41.727  14.563
18685W        W83846  15.832   0.844   1.913
18686W        W83847  14.359  10.300  11.421
18687W        W83848  35.738   5.848  13.186
18688W        W83849  37.201  23.450   2.597
18689W        W83850  15.290  18.663  10.527
18690W        W83851  15.148  30.501   2.206
18691W        W83852  15.649  15.665   4.555
18692W        W83853   2.770  14.561  14.337
18693W        W83854  11.552  18.535  11.164
18694W        W83855   0.807   2.078   0.805
18695W        W83856  33.048  24.483  14.931
18696W        W83857  25.706  18.852   3.224
18697W        W83858  43.866  12.883  12.978
18698W        W83859  31.825  26.856   2.961
18699W        W83860  34.062   9.362   0.926
18700W        W83861  33.811   1.327   4.112
18701W        W83862  17.013  44.273   5.349
18702W        W83863   1.925   9.497   2.849
18703W        W83864  21.788  16.051   1.326
18704W        W83865   0.310  27.911   1.792
18705W        W83866   9.904  38.369   2.297
18706W        W83867  36.675   8.773   0.435
18707W        W83868  38.710  13.152  11.949
18708W        W83869  36.979  30.152  12.860
18709W        W83870  11.241  29.412   3.201
18710W        W83871  38.816   3.496   1.646
18711W        W83872  21.359  29.653  14.910
18712W        W83873  16.110   2.652   3.684
18713W        W83874   3.786   8.948   3.225
18714W        W83875  36.489  17.585   2.785
18715W        W83876  10.640  19.430   2.394
18716W        W83877  38.520  18.309   1.765
18717W        W83878  42.483   5.135   3.717
18718W        W83879   6.234  33.993  13.000
18719W        W83880  21.099  28.032   3.237
18720W        W83881  25.227  34.957   2.777
18721W        W83882  20.643  38.365   0.483
18722W        W83883   0.707  30.847  13.981
18723W        W83884  35.341  23.199  13.508
18724W        W83885   4.728  19.562   1.971
18725W        W83886  33.635  29.430  14.461
18726W        W83887  10.070  24.186  14.329
18727W        W83888   5.393  40.990   0.534
18728W        W83889   5.509  26.376   4.391
18729W        W83890  44.261  40.992   1.409
18730W        W83891  38.290  39.943   2.168
18731W        W83892  11.734  22.329   2.885
18732W        W83893   3.659  32.536   2.164
18733W        W83894  22.242  37.920  12.437
18734W        W83895  10.448  33.653  13.713
18735W        W83896  18.159  33.293   4.688
18736W        W83897  12.791  36.387  11.135
18737W        W83898  26.187  24.472   1.310
18738W        W83899  42.919   6.640  11.501
18739W        W83900   2.279  14.870   3.738
18740W        W83901   0.814  41.817  13.428
18741W        W83902  34.911  10.650   2.472
18742W        W83903  34.835   8.354  11.150
18743W        W83904  13.865  13.381  13.592
18744W        W83905   8.753  40.404   2.753
18745W        W83906  16.276   5.122   3.205
18746W        W83907  30.372  21.367  13.406
18747W        W83908  27.326  19.101  11.199
18748W        W83909  28.473  25.635   1.816
18749W        W83910  16.379  10.219   2.047
18750W        W83911  32.216  40.045  12.990
18751W        W83912  11.205  24.072   0.238
18752W        W83913  20.488  36.929   2.195
18753W        W83914  14.143   9.628  12.388
18754W        W83915  20.029   4.396   0.454
18755W        W83916   5.518   9.222  10.948
18756W        W83917  30.187  25.211  11.912
18757W        W83918   2.806   3.848   4.115
18758W        W83919  17.112  18.405  11.160
18759W        W83920  43.672  19.889  13.429
18760W        W83921  35.446  18.535   4.602
18761W        W83922  21.270  24.659  14.462
18762W        W83923  15.280  38.814  11.073
18763W        W83924   8.259   6.850  12.845
18764W        W83925   0.364  39.711   4.444
18765W        W83926   0.437  24.994   3.633
18766W        W83927  29.510   6.185   1.976
18767W        W83928   6.353  17.257  11.712
18768W        W83929  38.795  28.610   4.731
18769W        W83930  13.235  39.495  11.151
18770W        W83931  11.689  40.432  13.516
18771W        W83932   4.692  29.612   3.322
18772W        W83933  37.625  19.955  10.975
18773W        W83934   8.367  25.607  12.887
18774W        W83935  17.119  27.069  10.407
18775W        W83936  32.450   4.410  13.161
18776W        W83937  14.101  39.849   9.913
18777W        W83938  12.171  31.643  12.532
18778W        W83939  18.961  35.520   0.508
18779W        W83940  12.869  34.583   2.224
18780W        W83941  33.876  21.024   3.735
18781W        W83942  17.155   5.718   2.350
18782W        W83943   2.304  34.885  13.530
18783W        W83944  10.142   8.397   0.951
18784W        W83945   2.289   0.780  14.586
18785W        W83946  34.040  43.854   2.584
18786W        W83947  21.218  40.428   4.822
18787W        W83948   2.263  36.416  11.209
18788W        W83949  44.476  29.706  14.730
18789W        W83950  19.038  21.316  13.441
18790W        W83951  14.285  37.858   4.508
18791W        W83952  12.359  37.478   3.592
18792W        W83953  42.699  20.739  12.980
18793W        W83954  23.598  38.595   1.233
18794W        W83955   7.912   3.944   3.200
18795W        W83956  18.254  27.529  11.655
18796W        W83957  38.550   9.921  11.185
18797W        W83958  36.527  21.756  13.742
18798W        W83959   9.540  40.415   2.304
18799W        W83960  27.752  30.655  14.002
18800W        W83961  18.181  29.398  13.676
18801W        W83962   7.516  24.085   0.533
18802W        W83963   9.595  31.370  14.813
18803W        W83964  24.073   1.203  13.490
18804W        W83965   6.666  10.771  14.900
18805W        W83966  43.215  10.323  11.865
18806W        W83967  16.043  18.617   9.867
18807W        W83968  13.527  32.375   3.689
18808W        W83969  23.328  36.345   0.810
18809W        W83970  38.834  39.988  14.044
18810W        W83971  13.987   2.443   4.108
18811W        W83972   4.341   0.021   1.789
18812W        W83973   6.985   1.500   2.939
18813W        W83974   0.848   6.527  12.811
18814W        W83975  24.859  10.155  14.167
18815W        W83976  39.590  24.467  12.390
18816W        W83977  11.184  21.872   4.773
18817W        W83978  29.990  20.431  11.996
18818W        W83979  24.050  25.227  14.024
18819W        W83980   7.746  13.876  12.539
18820W        W83981  21.626  36.338   0.776
18821W        W83982   6.411  36.172   3.533
18822W        W83983  16.134   8.636   0.938
18823W        W83984  25.851  29.865  13.975
18824W        W83985  37.747  28.645   3.011
18825W        W83986  29.016  25.844  14.514
18826W        W83987  19.845   8.277  10.743
18827W        W83988  18.252  29.601  14.657
18828W        W83989   7.703  43.745  13.188
18829W        W83990   9.408  38.186  10.914
18830W        W83991   8.856   8.680  10.481
18831W        W83992  29.818   1.490   3.835
18832W        W83993  14.905  21.290  11.168
18833W        W83994   9.882  18.828  11.639
18834W        W83995  18.997   0.818  13.053
18835W        W83996  38.544  12.053   1.401
18836W        W83997  44.703  12.847  13.214
18837W        W83998  26.378  42.446   1.612
18838W        W83999  29.637  21.924  10.644
18839W        W84000  39.132  23.349   1.352
18840W        W84001  14.637  36.934   0.017
18841W        W84002  10.267  39.231   4.613
18842W        W84003  43.080  32.817  10.641
18843W        W84004  19.693  35.041   3.168
18844W        W84005  43.794  14.564   2.345
18845W        W84006  27.076  14.622   4.555
18846W        W84007  16.631  12.964   3.115
18847W        W84008  33.418  39.039   0.921
18848W        W84009   3.188  40.796  11.968
18849W        W84010   1.268  13.292   2.852
18850W        W84011  17.544  35.168   4.526
18851W        W84012  20.698  38.732   3.273
18852W        W84013  33.839  36.358  14.329
18853W        W84014  14.226  18.433   0.515
18854W        W84015   5.950  30.852   5.049
18855W        W84016   3.941  36.990   1.960
18856W        W84017  19.709   1.812   1.394
18857W        W84018  31.540  38.080   1.873
18858W        W84019  36.935  37.642  12.786
18859W        W84020  30.589  39.233   4.173
18860W        W84021  39.400  20.134  10.703
18861W        W84022  23.198  14.317   4.204
18862W        W84023  21.709  38.605   4.168
18863W        W84024  23.230  31.450   0.781
18864W        W84025   2.669  40.110   2.314
18865W        W84026  29.366   7.742   2.734
18866W        W84027  42.239  14.050   4.165
18867W        W84028   2.689  16.114  14.842
18868W        W84029   8.789   2.987  11.896
18869W        W84030  13.281  15.809   4.651
18870W        W84031  17.848  28.953   2.335
18871W        W84032  42.334  24.474   0.594
18872W        W84033  37.729   8.756  11.237
18873W        W84034  16.597   1.444  11.987
18874W        W84035   6.492  14.848  12.301
18875W        W84036  33.025  34.960  13.569
18876W        W84037   5.882  20.012  14.494
18877W        W84038  40.786  26.411   2.915
18878W        W84039  26.887   7.905   4.483
18879W        W84040  32.322   8.911  11.189
18880W        W84041  27.639  12.300   4.981
18881W        W84042   0.944  14.075  12.125
18882W        W84043  32.693   7.324  11.892
18883W        W84044  36.384  40.992  14.317
18884W        W84045  12.410  19.136  12.027
18885W        W84046  27.450  43.062   1.286
18886W        W84047  18.076   6.965   2.220
18887W        W84048  16.627  25.698  13.910
18888W        W84049  24.694  21.454   4.588
18889W        W84050  31.351   8.674   0.954
18890W        W84051  26.279  10.090   1.012
18891W        W84052  29.699  41.575   3.648
18892W        W84053  17.237  36.474   5.188
18893W        W84054   3.672  25.901   0.281
18894W        W84055  34.987  25.533   4.433
18895W        W84056   3.442  14.874  12.708
18896W        W84057  11.886  25.040  10.942
18897W        W84058  22.098  42.551   2.701
18898W        W84059  37.512  41.607   2.130
18899W        W84060  35.609  37.066  12.250
18900W        W84061   5.471  40.412   1.854
18901W        W84062   9.323   6.948   1.923
18902W        W84063  34.122   6.205  14.357
18903W        W84064  34.372  44.478   3.082
18904W        W84065   8.670  13.861   2.295
18905W        W84066  37.448  32.792  10.872
18906W        W84067   0.664   6.989   3.152
18907W        W84068  12.162  27.177   3.690
18908W        W84069  26.349  26.328  10.040
18909W        W84070  44.506  24.676   0.856
18910W        W84071  22.079  28.509   4.572
18911W        W84072   9.650  34.295   3.934
18912W        W84073  22.146  35.513   4.248
18913W        W84074  19.142  14.742   2.734
18914W        W84075   9.189  26.138   2.265
18915W        W84076  34.969  30.031  11.607
18916W        W84077  22.804   0.376   3.301
18917W        W84078  13.911  26.737  11.734
18918W        W84079  24.093  10.646  13.468
18919W        W84080  39.449  35.447   0.941
18920W        W84081  20.142  33.702  11.135
18921W        W84082  25.442  24.001  12.640
18922W        W84083  35.452  15.906   3.702
18923W        W84084  41.392  23.119   3.432
18924W        W84085  20.570  34.505   2.346
18925W        W84086  16.823  42.986  13.553
18926W        W84087  28.986   5.786  13.626
18927W        W84088  33.037  35.207   2.998
18928W        W84089   6.385  29.429  14.841
18929W        W84090  32.387  27.584  11.846
18930W        W84091   2.450   0.790   4.711
18931W        W84092  43.146  28.152  11.588
18932W        W84093   8.659  40.538   3.230
18933W        W84094   2.989   4.278   2.472
18934W        W84095  32.594  36.938   1.756
18935W        W84096  44.135  34.017  10.401
18936W        W84097   6.228  35.850  10.545
18937W        W84098  17.197  40.146   0.820
18938W        W84099  33.170  13.168   4.102
18939W        W84100  13.705  19.821   2.246
18940W        W84101  19.674  28.452   3.365
18941W        W84102  25.746  24.905  10.727
18942W        W84103  18.000  32.488  13.619
18943W        W84104  15.413   8.418  14.369
18944W        W84105  36.455  18.720   4.620
18945W        W84106  37.004   3.940   0.015
18946W        W84107  37.069   6.187  11.940
18947W        W84108  20.999  20.658  14.840
18948W        W84109  23.950  33.974   2.327
18949W        W84110  29.580   9.917   2.448
18950W        W84111  38.804  37.204  14.555
18951W        W84112  38.886   5.753  13.176
18952W        W84113   1.035  21.850  12.705
18953W        W84114  23.046  39.755   3.174
18954W        W84115  15.821  25.493  13.262
18955W        W84116  29.435  34.920  12.438
18956W        W84117  14.811  26.985  14.988
18957W        W84118  10.086  41.346  11.059
18958W        W84119  20.318  22.499  14.681
18959W        W84120  18.014   5.904   4.558
18960W        W84121   2.737  36.526  11.471
18961W        W84122  33.310  21.226   4.775
18962W        W84123  39.069   2.022   4.514
18963W        W84124  31.383  34.887   1.397
18964W        W84125   8.865  12.923   4.950
18965W        W84126   2.461   0.406  10.708
18966W        W84127  30.880  35.447  14.271
18967W        W84128   8.391   8.329   2.218
18968W        W84129  24.540  41.783  13.476
18969W        W84130  28.670  26.492   1.065
18970W        W84131  11.698  13.229   3.875
18971W        W84132  13.661   3.512  13.973
18972W        W84133  17.343  15.806   5.406
18973W        W84134  37.159   7.172   1.911
18974W        W84135   9.657  28.951  14.757
18975W        W84136  33.359  41.007  14.399
18976W        W84137   7.241  15.648   3.759
18977W        W84138  10.443  28.954   1.462
18978W        W84139  12.628  14.225   3.295
18979W        W84140  23.244  17.695   4.937
18980W        W84141  23.711  31.579  11.559
18981W        W84142  12.437   9.748   0.819
18982W        W84143   7.703   4.911   3.267
18983W        W84144   8.616  42.026  13.354
18984W        W84145   4.959  18.243   2.715
18985W        W84146  42.501  10.330   4.241
18986W        W84147   4.092  42.372   1.354
18987W        W84148  28.589  39.980   1.628
18988W        W84149  31.387  13.734   2.342
18989W        W84150  25.622  34.687   3.979
18990W        W84151  10.293  14.571  14.452
18991W        W84152   2.727  10.463  11.517
18992W        W84153  23.080  35.606  10.871
18993W        W84154  37.292  29.564  11.559
18994W        W84155  10.822  32.876   3.489
18995W        W84156   3.827  21.152  11.861
18996W        W84157  14.276  14.640  14.825
18997W        W84158  17.217   6.940   2.682
18998W        W84159   1.733  32.943  11.331
18999W        W84160  30.010  30.891  11.300
19000W        W84161  22.926   4.126   3.723
19001W        W84162  29.474  30.352  14.117
19002W        W84163  23.975  16.198   0.802
19003W        W84164  16.812  12.515   3.625
19004W        W84165  37.536  22.514  14.528
19005W        W84166  17.341  27.638  11.562
19006W        W84167  21.027  36.582  12.021
19007W        W84168  10.748  26.047  12.999
19008W        W84169  10.735  11.247  14.041
19009W        W84170  11.878   2.629   2.409
19010W        W84171  34.120  31.503   1.867
19011W        W84172  17.291  18.514   3.750
19012W        W84173  40.954  22.468   0.506
19013W        W84174  44.249  34.103  13.375
19014W        W84175   0.843   1.904   2.916
19015W        W84176  13.026  40.774  12.578
19016W        W84177  27.546  19.149   0.963
19017W        W84178  29.448  15.100  11.708
19018W        W84179   7.353  25.836   3.117
19019W        W84180  36.964  11.844  11.170
19020W        W84181  11.183  13.023   3.121
19021W        W84182  20.248  31.154   4.570
19022W        W84183   9.554  43.498   3.397
19023W        W84184  12.777  22.188  14.017
19024W        W84185  43.383   0.713  11.797
19025W        W84186  23.675  13.952   3.493
19026W        W84187  38.992  34.366   2.817
19027W        W84188  34.442  29.445   2.713
19028W        W84189  41.066  30.896   2.224
19029W        W84190  28.793  24.696   3.186
19030W        W84191   7.194  35.887  12.082
19031W        W84192  42.782  41.423  10.628
19032W        W84193   4.208   9.295  10.805
19033W        W84194  31.198  26.100   0.729
19034W        W84195   7.695   3.021  12.563
19035W        W84196   2.722   3.939  11.962
19036W        W84197   5.867  35.491   4.656
19037W        W84198  39.483   3.448  12.748
19038W        W84199   8.420  21.616   1.535
19039W        W84200  21.695  19.153   5.246
19040W        W84201  44.884   9.911   0.089
19041W        W84202  27.263  18.747   0.769
19042W        W84203  13.975  33.532   2.697
19043W        W84204  30.665  28.932   3.258
19044W        W84205  33.683  13.097   4.140
19045W        W84206  13.697  11.395   0.892
19046W        W84207  37.523  13.681  14.485
19047W        W84208  36.337  11.238  10.593
19048W        W84209  39.376  25.210   3.356
19049W        W84210  20.021  22.262   3.286
19050W        W84211  15.254  36.012  11.754
19051W        W84212  20.334  25.511  11.558
19052W        W84213  39.446  25.469  12.561
19053W        W84214  26.182   0.289   1.236
19054W        W84215  26.073  24.236  11.937
19055W        W84216   3.186  26.015   2.813
19056W        W84217   7.650   9.621   4.225
19057W        W84218  21.911   6.740  10.995
19058W        W84219  28.426  10.346   1.850
19059W        W84220  25.428  20.022  14.840
19060W        W84221  32.351  30.947  11.590
19061W        W84222   9.683   6.363   2.765
19062W        W84223  26.324  10.614   0.990
19063W        W84224   3.769   6.486  13.140
19064W        W84225  21.442  43.524   3.288
19065W        W84226   2.416  20.942  13.325
19066W        W84227  33.650   6.541  12.127
19067W        W84228  15.114   0.387   1.600
19068W        W84229  42.993   4.751  14.371
19069W        W84230  36.576  17.746  13.017
19070W        W84231   4.840   9.503   1.237
19071W        W84232  12.248  44.100  13.332
19072W        W84233  19.750  11.718   3.146
19073W        W84234  16.236  33.351  10.041
19074W        W84235  18.860  35.946   2.240
19075W        W84236  33.540  13.625  12.958
19076W        W84237   4.948  19.682  14.839
19077W        W84238  38.765  19.378   2.268
19078W        W84239  18.585  11.271   0.544
19079W        W84240  28.602  35.547  12.506
19080W        W84241  41.341   4.696  13.325
19081W        W84242   5.685  37.416   3.073
19082W        W84243  32.899  38.292   1.749
19083W        W84244  37.336  36.937   0.894
19084W        W84245  14.123  21.276  12.086
19085W        W84246  24.976   0.316   2.720
19086W        W84247   6.902  32.347  11.011
19087W        W84248  31.155   4.934   3.660
19088W        W84249  26.109   5.785   3.180
19089W        W84250  36.574   2.208  10.769
19090W        W84251   5.890  10.306   4.305
19091W        W84252  11.808  13.436  13.198
19092W        W84253  39.082  35.479  10.581
19093W        W84254  25.600   4.621  10.883
19094W        W84255   6.827  14.130  11.663
19095W        W84256  37.250  30.433   2.873
19096W        W84257  39.954   7.676   1.391
19097W        W84258  41.447  42.668   3.115
19098W        W84259   2.091   2.571   4.134
19099W        W84260   4.652  15.852   4.620
19100W        W84261  16.655  34.785   4.497
19101W        W84262   0.021  25.906   4.427
19102W        W84263   7.503  21.803  11.840
19103W        W84264  42.588  44.739  13.995
19104W        W84265  40.619   4.761  11.478
19105W        W84266  14.830  24.224   0.353
19106W        W84267  16.020  11.638   1.826
19107W        W84268   9.247  19.316   0.111
19108W        W84269   6.175   3.386  12.375
19109W        W84270  20.664  43.068   0.759
19110W        W84271  22.608  11.936  11.565
19111W        W84272  30.209   0.815  13.965
19112W        W84273  22.641   4.736  10.538
19113W        W84274  26.191   9.541   4.032
19114W        W84275  24.408  22.997   0.430
19115W        W84276   7.016  20.710  11.411
19116W        W84277  24.663  21.761   3.625
19117W        W84278  28.690   4.196  13.017
19118W        W84279   6.097  30.057  14.214
19119W        W84280  21.766   0.375   2.808
19120W        W84281   7.693   8.970  13.984
19121W        W84282  14.725  26.859  13.449
19122W        W84283  22.012  20.804  11.044
19123W        W84284  16.569   2.970   3.730
19124W        W84285   4.278  35.427   1.988
19125W        W84286   1.284   2.315   0.070
19126W        W84287  12.153  15.688   2.338
19127W        W84288  40.885   1.484  14.997
19128W        W84289  32.118  24.071  10.590
19129W        W84290   4.772  20.783   4.089
19130W        W84291  32.032  35.654   0.211
19131W        W84292   0.040  41.590  12.377
19132W        W84293  23.978  14.639  12.495
19133W        W84294  19.831  24.451  14.486
19134W        W84295  39.831  28.818   0.439
19135W        W84296  25.058  17.766   4.149
19136W        W84297  28.689  32.568  11.185
19137W        W84298  27.676  29.088   3.101
19138W        W84299  25.442  39.301   2.762
19139W        W84300  37.783   2.567   4.282
19140W        W84301  27.089   0.389  13.306
19141W        W84302  25.557  30.816  14.652
19142W        W84303  11.226   8.327   0.468
19143W        W84304   1.562  23.809  11.261
19144W        W84305  42.441  42.173   0.326
19145W        W84306   5.029  10.553   2.255
19146W        W84307  13.228  36.691   0.782
19147W        W84308   6.007  28.506   5.049
19148W        W84309  44.383  17.660   3.167
19149W        W84310  25.403  15.109  10.911
19150W        W84311  38.875   5.486   0.455
19151W        W84312  26.710  25.662  11.983
19152W        W84313  12.294  36.887   1.842
19153W        W84314   9.712   6.797  11.605
19154W        W84315  31.801  30.972   3.242
19155W        W84316  25.642  25.683   4.317
19156W        W84317  19.994  39.331  14.709
19157W        W84318  40.412  22.815   1.755
19158W        W84319  18.782   1.454   1.314
19159W        W84320   2.565  16.404  12.609
19160W        W84321   6.204  17.871  13.513
19161W        W84322  41.571  33.974   3.684
19162W        W84323  33.488  17.767  11.976
19163W        W84324  24.503  21.686  14.730
19164W        W84325  37.872  31.522  14.995
19165W        W84326  26.688   6.784  14.487
19166W        W84327   6.576  31.381  13.440
19167W        W84328   5.666  11.872   3.735
19168W        W84329  24.260  38.297  13.017
19169W        W84330  44.783   5.219  12.121
19170W        W84331  17.542  14.685   0.276
19171W        W84332  38.553   0.450  11.647
19172W        W84333  22.660  25.508   3.108
19173W        W84334  27.617  29.471   0.483
19174W        W84335  33.031  15.580   2.754
19175W        W84336   3.041   3.384   3.335
19176W        W84337  42.203   3.498  10.684
19177W        W84338  20.719  32.529  10.379
19178W        W84339   4.873  35.665  14.414
19179W        W84340  29.466   6.890   0.791
19180W        W84341  23.962  41.535   0.727
19181W        W84342  18.292  15.371  11.810
19182W        W84343  18.569   0.037   0.115
19183W        W84344  12.730  15.118  11.621
19184W        W84345  36.400  23.474   3.211
19185W        W84346   3.637   5.004  12.808
19186W        W84347   1.742  17.991   0.315
19187W        W84348   0.265   3.644   0.370
19188W        W84349   6.202   4.921  10.213
19189W        W84350  11.637  32.548   1.736
19190W        W84351   2.224   7.189   4.955
19191W        W84352  28.611  16.122  10.634
19192W        W84353  30.161   9.213   4.478
19193W        W84354  37.958  31.502  14.316
19194W        W84355  43.464  11.012   0.417
19195W        W84356   4.161  25.741  12.812
19196W        W84357  15.074  38.236  12.907
19197W        W84358  16.747   8.392   2.426
19198W        W84359  39.485   7.326   4.531
19199W        W84360  15.385  24.569  11.962
19200W        W84361  31.149   9.759   3.921
19201W        W84362  36.110   9.376   3.908
19202W        W84363  15.648   9.175   0.268
19203W        W84364  12.713  40.471  13.402
19204W        W84365  15.555  35.325  12.481
19205W        W84366  23.187  10.778  14.881
19206W        W84367   6.276  18.575   2.764
19207W        W84368  21.692  23.466   1.243
19208W        W84369  15.547   5.226  10.907
19209W        W84370  36.033   3.971   3.859
19210W        W84371  21.703  27.419  12.394
19211W        W84372  11.617  17.986   0.998
19212W        W84373  39.644  19.995   1.236
19213W        W84374  33.422   9.066   4.817
19214W        W84375   2.032  41.817  13.550
19215W        W84376  15.265  27.661   0.702
19216W        W84377   9.736  28.081   0.938
19217W        W84378   6.005   7.433   2.276
19218W        W84379  43.919  17.857  13.793
19219W        W84380   4.853  10.131  11.572
19220W        W84381  25.681   6.432   2.224
19221W        W84382  17.762  34.043   4.154
19222W        W84383  38.487  30.418   2.458
19223W        W84384  36.509  23.103   3.809
19224W        W84385  30.929  36.813   2.196
19225W        W84386  27.981  36.904   4.845
19226W        W84387  23.708  21.640   2.371
19227W        W84388  35.066  40.425  14.085
19228W        W84389  39.958   6.787   2.871
19229W        W84390  18.568  44.894   4.722
19230W        W84391  20.511  22.567   1.046
19231W        W84392  28.895   7.755  14.868
19232W        W84393  32.502  35.471  10.810
19233W        W84394  36.899  29.995   3.752
19234W        W84395   8.329  33.349  12.134
19235W        W84396   8.991  10.699  12.464
19236W        W84397  30.553  28.947  11.501
19237W        W84398  18.306   9.843  11.567
19238W        W84399  26.955  29.607  12.462
19239W        W84400  10.663   0.573  14.445
19240W        W84401  32.219  31.030  11.012
19241W        W84402  40.329   8.226  11.585
19242W        W84403  37.113  29.915  11.886
19243W        W84404  37.866  37.035   4.106
19244W        W84405  28.480  32.629   1.512
19245W        W84406   6.213  22.978   4.056
19246W        W84407  31.086  41.440  12.533
19247W        W84408  34.533   7.078  10.775
19248W        W84409  40.567  14.219  10.892
19249W        W84410  26.625  37.356  10.368
19250W        W84411  28.556  18.684   2.335
19251W        W84412  15.875   0.433  11.210
19252W        W84413   9.263   9.298  13.053
19253W        W84414  32.006  19.282   2.186
19254W        W84415   2.187  22.605  13.939
19255W        W84416  40.034  14.353   4.634
19256W        W84417  20.889   1.622   1.027
19257W        W84418  22.722   6.664  12.546
19258W        W84419  43.039  44.778  10.788
19259W        W84420  11.203  18.315   1.113
19260W        W84421  44.156  44.210   0.849
19261W        W84422  16.489  31.454   2.310
19262W        W84423  41.465   0.273   1.403
19263W        W84424   5.679  34.646   0.263
19264W        W84425  38.030   6.145  12.465
19265W        W84426  36.345  44.498   0.881
19266W        W84427  32.787  13.888  13.411
19267W        W84428   2.219  27.230   4.708
19268W        W84429  14.184  42.902   2.155
19269W        W84430   5.963  12.646  11.965
19270W        W84431  19.004  17.894   4.609
19271W        W84432   4.752  41.221   1.669
19272W        W84433  20.899   3.100  13.932
19273W        W84434  36.237  34.137   2.315
19274W        W84435  35.347  29.556  13.728
19275W        W84436   3.776   7.217   2.679
19276W        W84437  10.680  15.811   4.560
19277W        W84438  40.855  24.568   1.946
19278W        W84439   2.912  22.561   2.368
19279W        W84440  39.153  44.580   1.404
19280W        W84441  39.347  44.283  14.268
19281W        W84442  40.521   2.721   0.642
19282W        W84443  36.596   1.306   2.719
19283W        W84444  31.552  39.068   4.993
19284W        W84445  38.553   2.815  10.954
19285W        W84446  29.084   3.016  14.457
19286W        W84447   9.212   0.724  13.439
19287W        W84448   7.649   5.223  12.126
19288W        W84449  16.330  37.118  12.378
19289W        W84450  21.600  40.884  10.673
19290W        W84451  31.379  22.111  11.968
19291W        W84452  37.620   5.026   3.474
19292W        W84453   2.178  16.604   3.184
19293W        W84454  44.717  18.106   3.488
19294W        W84455  31.844  39.016   3.718
19295W        W84456  14.608  39.885   9.783
19296W        W84457  13.894  18.118  11.456
19297W        W84458  37.669   0.161   2.681
19298W        W84459  21.640   4.454   1.082
19299W        W84460  19.202   4.690  14.099
19300W        W84461  22.613  30.967  10.398
19301W        W84462   4.010   9.938  13.512
19302W        W84463   0.923  15.992   9.974
19303W        W84464   5.453  36.497  10.886
19304W        W84465  40.392   4.624   2.918
19305W        W84466  39.467  26.636   0.653
19306W        W84467  36.967  26.465  10.995
19307W        W84468  44.557  29.451  12.750
19308W        W84469   1.872  30.928  10.761
19309W        W84470  27.007   0.969  11.409
19310W        W84471  38.401   3.367   1.917
19311W        W84472  22.874  41.883  11.514
19312W        W84473  37.044  23.652  11.477
19313W        W84474  22.339  10.902  11.503
19314W        W84475  10.814   1.695  11.675
19315W        W84476   6.765  12.630  12.514
19316W        W84477  33.907  15.318  11.862
19317W        W84478   3.010   9.216   1.506
19318W        W84479  37.058   1.242   0.326
19319W        W84480  34.603   5.969  12.477
19320W        W84481  10.346  27.742   0.804
19321W        W84482   8.131  23.588   1.754
19322W        W84483  14.203   5.216   0.075
19323W        W84484  16.924  40.340   4.483
19324W        W84485  23.969   3.321  11.486
19325W        W84486   4.327  36.402   2.354
19326W        W84487  33.581   6.389  11.249
19327W        W84488  36.049  18.410   4.619
19328W        W84489  11.016  23.965   2.921
19329W        W84490   8.023  32.185   2.324
19330W        W84491  27.159  20.261   3.751
19331W        W84492  32.829  23.030   2.757
19332W        W84493   4.851  15.511   1.650
19333W        W84494   8.210   7.989  10.836
19334W        W84495   4.943  28.058   4.605
19335W        W84496  15.599  32.331  10.658
19336W        W84497  21.519  30.384   4.619
19337W        W84498  40.350  12.694   2.335
19338W        W84499  39.894  38.036  11.209
19339W        W84500   7.074  24.141   2.696
19340W        W84501  38.509   2.107  14.396
19341W        W84502  28.787  35.911  13.811
19342W        W84503  31.780  14.318  12.734
19343W        W84504  39.954  43.047   0.822
19344W        W84505   9.392  39.498  12.912
19345W        W84506  27.674   8.173   4.078
19346W        W84507   7.458   3.678  13.295
19347W        W84508  13.183   3.321  10.568
19348W        W84509  32.989  41.576  12.866
19349W        W84510  16.686   4.250  11.650
19350W        W84511  32.656   3.509  13.749
19351W        W84512  16.999  11.330  13.382
19352W        W84513   0.220  35.427   1.493
19353W        W84514  41.089  28.735  14.459
19354W        W84515  41.555  30.574   3.579
19355W        W84516  11.741   9.960   3.733
19356W        W84517  36.546  34.441  11.554
19357W        W84518  24.707  37.856   0.366
19358W        W84519  29.477  30.483   0.970
19359W        W84520   1.787  10.566  11.501
19360W        W84521   1.774  42.048  12.036
19361W        W84522  42.309  21.588   0.749
19362W        W84523  38.883  17.234   3.828
19363W        W84524  34.027  23.593  12.951
19364W        W84525   4.949  29.231  10.253
19365W        W84526  32.877   1.990  14.326
19366W        W84527   4.349  23.843  11.692
19367W        W84528   0.979  14.273   2.762
19368W        W84529  16.973  38.953   3.267
19369W        W84530  44.885   1.667   2.051
19370W        W84531  41.468  27.606   2.848
19371W        W84532   6.305  44.975  14.351
19372W        W84533  41.861  31.451   2.310
19373W        W84534  16.858  24.706  10.359
19374W        W84535  36.012  17.324   2.757
19375W        W84536  23.352  23.027  13.888
19376W        W84537  35.162   0.006   1.796
19377W        W84538   7.424   4.178  13.952
19378W        W84539  20.655  18.342  11.210
19379W        W84540  21.402  22.067   0.427
19380W        W84541  13.750  44.561   0.974
19381W        W84542   3.926  10.682  12.100
19382W        W84543  19.795   8.665  12.510
19383W        W84544  32.613  15.768   0.205
19384W        W84545  41.936  28.006   3.628
19385W        W84546  43.839  44.828   4.173
19386W        W84547  24.538  22.667   0.890
19387W        W84548  41.781  28.810  12.497
19388W        W84549  43.427  32.047   2.433
19389W        W84550   7.607  19.987  12.986
19390W        W84551  29.087  30.036  12.525
19391W        W84552  31.359  21.687  13.424
19392W        W84553  18.654  40.862  13.965
19393W        W84554  41.484   3.275  12.990
19394W        W84555   3.896  37.966  12.796
19395W        W84556  29.684  12.789  12.025
19396W        W84557  35.813  18.124  14.877
19397W        W84558  28.494  29.456  10.674
19398W        W84559  29.988  32.606  11.613
19399W        W84560  24.578  18.858   3.376
19400W        W84561  36.841  11.872   3.819
19401W        W84562  15.357  33.392   3.676
19402W        W84563  33.952  44.305  13.509
19403W        W84564  10.924  28.104  12.173
19404W        W84565  17.226  14.343   3.290
19405W        W84566  26.540  17.051  10.658
19406W        W84567  43.726  18.712   4.877
19407W        W84568  31.717  22.211  14.849
19408W        W84569  20.566  38.779  14.927
19409W        W84570   8.887  43.752  10.633
19410W        W84571  32.417  44.463   0.459
19411W        W84572  42.076  17.626  14.364
19412W        W84573  17.883  37.957  11.063
19413W        W84574  44.260   2.016  11.152
19414W        W84575  18.938  24.501   2.915
19415W        W84576  20.494  31.305   3.158
19416W        W84577   2.023  23.466   1.838
19417W        W84578  35.383  36.225   1.491
19418W        W84579  18.105  44.064  10.913
19419W        W84580  23.568   5.391   1.854
19420W        W84581  30.402  44.973  10.893
19421W        W84582   0.869  31.502  11.250
19422W        W84583   0.758  23.636  11.940
19423W        W84584  20.838   9.242   1.414
19424W        W84585  32.890  19.037   3.489
19425W        W84586  23.445  22.191   1.283
19426W        W84587   8.419  21.661   1.019
19427W        W84588  33.052  41.960  14.973
19428W        W84589  19.014   1.868   3.810
19429W        W84590  21.642  19.206   1.413
19430W        W84591  25.650  42.597   4.217
19431W        W84592  43.520  23.928  13.968
19432W        W84593  28.887   5.933  11.071
19433W        W84594  29.714  23.829  13.040
19434W        W84595  27.286   6.855  13.394
19435W        W84596  16.559  11.294  13.077
19436W        W84597   4.883  25.014   5.714
19437W        W84598  42.527  23.631   4.046
19438W        W84599  26.884   4.729   0.227
19439W        W84600   0.526  25.123   1.738
19440W        W84601  22.189  25.777  13.094
19441W        W84602  35.500  22.804  13.879
19442W        W84603  43.188  28.810  11.123
19443W        W84604  25.191  37.934   2.720
19444W        W84605   1.816  28.398  12.493
19445W        W84606  22.277  25.533   4.395
19446W        W84607  14.548  15.526   3.819
19447W        W84608  28.047   1.508  13.894
19448W        W84609  16.027  10.847   2.116
19449W        W84610  40.288  35.195   1.340
19450W        W84611  41.739  30.948   3.260
19451W        W84612  37.732  39.931  14.951
19452W        W84613  41.466  23.181  11.289
19453W        W84614  39.337  29.709  12.501
19454W        W84615  38.912  24.399   3.163
19455W        W84616  20.219   3.226   1.413
19456W        W84617  35.049  33.600  13.113
19457W        W84618  34.241   2.049   2.447
19458W        W84619  38.389  17.738  12.081
19459W        W84620  21.525   3.935   1.212
19460W        W84621  33.775  24.772   3.204
19461W        W84622  42.363  39.843  14.065
19462W        W84623  32.987  25.873   2.737
19463W        W84624  41.301  40.517   1.788
19464W        W84625  11.598  14.072   3.349
19465W        W84626  18.028  36.602   2.303
19466W        W84627  10.340  41.508   0.401
19467W        W84628  43.984  22.464  11.299
19468W        W84629  33.098  17.214  11.433
19469W        W84630   2.958  29.441  11.165
19470W        W84631  44.483  26.948  11.526
19471W        W84632  15.704  19.028   3.372
19472W        W84633  27.097   1.382   1.387
19473W        W84634  24.595  12.846  13.173
19474W        W84635  22.687  10.113   2.662
19475W        W84636  42.490  41.505  13.443
19476W        W84637   8.377  38.509  14.225
19477W        W84638  44.850  23.487   1.920
19478W        W84639   3.242  29.541   2.330
19479W        W84640  21.678  17.702  11.476
19480W        W84641   3.941  36.000   2.695
19481W        W84642  19.380  19.212   4.575
19482W        W84643  37.293  14.633   0.903
19483W        W84644   6.108  35.564  13.426
19484W        W84645  35.569   5.736  13.650
19485W        W84646  37.469  19.187  14.480
19486W        W84647  12.739  10.389   0.008
19487W        W84648  28.997  41.926  11.034
19488W        W84649   4.772  17.087   1.797
19489W        W84650  23.718   4.333  10.827
19490W        W84651  15.704  21.132  10.995
19491W        W84652  35.051  21.260   0.948
19492W        W84653  42.645  41.905   4.286
19493W        W84654   8.470  33.076   2.303
19494W        W84655  29.920   7.990  11.973
19495W        W84656  12.094  20.218   0.441
19496W        W84657  33.453  26.509   2.972
19497W        W84658  10.842  31.556   2.722
19498W        W84659   5.847   4.351   2.860
19499W        W84660  14.052  41.479   2.277
19500W        W84661  29.887  35.551  12.089
19501W        W84662  11.703  31.198   1.197
19502W        W84663   8.836  40.339   3.691
19503W        W84664  13.220   8.302   1.431
19504W        W84665  26.820  26.865  12.436
19505W        W84666   4.999   3.251  10.658
19506W        W84667  22.585  14.185   2.778
19507W        W84668  24.731   1.209  10.747
19508W        W84669  37.274  22.115   0.311
19509W        W84670  38.484  17.290   0.783
19510W        W84671  14.639  42.306   2.725
19511W        W84672  32.145  39.288  12.649
19512W        W84673  40.220  25.683   2.326
19513W        W84674  13.135  21.915  11.128
19514W        W84675   2.273  19.713  12.819
19515W        W84676  34.593  37.904  14.272
19516W        W84677  34.062  31.595  10.550
19517W        W84678  39.919  36.990   4.771
19518W        W84679  23.258  10.948  14.391
19519W        W84680  10.290  24.474  10.071
19520W        W84681   1.292  37.567  13.004
19521W        W84682  39.409   3.878  12.483
19522W        W84683   1.448  28.760  14.895
19523W        W84684  44.547  28.333   4.955
19524W        W84685  19.499  12.137   3.098
19525W        W84686  35.552  41.259   1.255
19526W        W84687  35.061  34.590  10.012
19527W        W84688  18.438   4.812  10.176
19528W        W84689  22.649  42.920   0.724
19529W        W84690  12.934  26.610   1.143
19530W        W84691  34.016   9.891   0.983
19531W        W84692  12.355  21.104  13.966
19532W        W84693  13.282  28.759  11.156
19533W        W84694  24.587  25.039  11.514
19534W        W84695   3.029  31.993  14.042
19535W        W84696  42.822  42.376  10.442
19536W        W84697  13.663  15.586  13.830
19537W        W84698   8.454   4.261   2.439
19538W        W84699   0.478   0.814   4.211
19539W        W84700  14.275  39.334  12.644
19540W        W84701  41.067  31.618   3.834
19541W        W84702  39.598   6.619   2.463
19542W        W84703  42.805  15.737   3.637
19543W        W84704  42.315  11.802   4.896
19544W        W84705   2.889  44.916  12.927
19545W        W84706  30.204  38.245   0.057
19546W        W84707  18.677  24.763   3.925
19547W        W84708  21.550  43.027   3.184
19548W        W84709  31.072  20.633   1.717
19549W        W84710  24.046  16.158  13.928
19550W        W84711   4.026  32.363  14.882
19551W        W84712  29.502   7.656   0.303
19552W        W84713   4.658  39.750   0.026
19553W        W84714   0.190  32.206  14.924
19554W        W84715  32.472  30.961  13.344
19555W        W84716   3.509  11.797  10.792
19556W        W84717  17.791  15.782   2.897
19557W        W84718   7.421  26.880   1.410
19558W        W84719  44.263  16.203  14.934
19559W        W84720  31.545   4.248  10.835
19560W        W84721  38.964   8.660  12.927
19561W        W84722   4.232  32.967  10.693
19562W        W84723   7.278  19.719  12.287
19563W        W84724   2.304  29.772   9.870
19564W        W84725   3.942  13.542  12.060
19565W        W84726  10.382  12.123   4.373
19566W        W84727  21.265  28.386   1.199
19567W        W84728  18.109  27.786   1.933
19568W        W84729  16.131  41.582  11.133
19569W        W84730  10.836  40.397   2.223
19570W        W84731  30.192  43.374   4.034
19571W        W84732  21.676  37.329   4.045
19572W        W84733  26.244  35.056   4.621
19573W        W84734  20.323   6.362   4.491
19574W        W84735  41.254  23.711   4.594
19575W        W84736  15.082  25.439   3.672
19576W        W84737  19.116   2.268  14.352
19577W        W84738  15.343  44.935   1.790
19578W        W84739  33.938  22.794   4.063
19579W        W84740   2.538  25.599   3.771
19580W        W84741  19.475  24.737   0.916
19581W        W84742  25.015  38.049  12.023
19582W        W84743  10.382  44.922  10.967
19583W        W84744  17.549  12.472   4.156
19584W        W84745  21.561   5.426  11.428
19585W        W84746  38.298  24.247   1.388
19586W        W84747  22.037  17.836  14.371
19587W        W84748  41.573  24.630   4.163
19588W        W84749  13.769  33.479  14.453
19589W        W84750  26.487  11.734   3.663
19590W        W84751  27.995  19.823   0.561
19591W        W84752  43.519  13.238   1.634
19592W        W84753  11.570  44.668  12.517
19593W        W84754   0.374   3.461   4.662
19594W        W84755  19.225  13.269  12.083
19595W        W84756   0.064  29.931   0.572
19596W        W84757  22.140  26.810  10.128
19597W        W84758  39.886  15.239  13.115
19598W        W84759  29.064   9.909  10.241
19599W        W84760  29.684  41.975  13.840
19600W        W84761  19.159  14.006  11.607
19601W        W84762  26.515  19.905   1.803
19602W        W84763  36.198  24.864   1.673
19603W        W84764  39.410  36.669  11.647
19604W        W84765   9.376  42.775  12.421
19605W        W84766  35.029   2.346  11.655
19606W        W84767   0.437  14.361   0.870
19607W        W84768  14.472  44.252   1.712
19608W        W84769   3.213  23.968  11.056
19609W        W84770  10.856   0.635  14.920
19610W        W84771   2.377  40.744   5.151
19611W        W84772  30.034  33.095  11.893
19612W        W84773   7.801  20.177  11.916
19613W        W84774  13.595  37.564   1.998
19614W        W84775   6.712   5.922  11.160
19615W        W84776  26.746  18.312  14.373
19616W        W84777  27.633   4.922   1.198
19617W        W84778  43.558  28.810   3.251
19618W        W84779   4.452  13.815  13.379
19619W        W84780  12.184  17.132   1.776
19620W        W84781  33.803  29.269  13.428
19621W        W84782   3.238  27.435  13.965
19622W        W84783  43.963  17.855   2.880
19623W        W84784  18.591  39.947  12.045
19624W        W84785   7.530  44.226   5.283
19625W        W84786  20.674  44.423  11.113
19626W        W84787   5.809   7.806   3.856
19627W        W84788  15.554   9.298  12.947
19628W        W84789  24.266   1.179   4.876
19629W        W84790  40.111   4.609  11.503
19630W        W84791  36.002  41.403  10.741
19631W        W84792   6.229  11.394  13.007
19632W        W84793  44.213  26.572  11.754
19633W        W84794  15.358  40.338  14.038
19634W        W84795  34.980  20.179   0.419
19635W        W84796   6.761   4.403  10.452
19636W        W84797   4.173  42.479  12.817
19637W        W84798  21.107  43.282   1.869
19638W        W84799  28.716  10.972  11.626
19639W        W84800  15.733   9.426  14.447
19640W        W84801  18.747  44.549   2.496
19641W        W84802  35.422  25.606  11.866
19642W        W84803  39.294  33.013  13.783
19643W        W84804  37.874  11.478  13.515
19644W        W84805  28.004  10.672   0.903
19645W        W84806  14.174  14.605   4.816
19646W        W84807  30.974  24.291  12.419
19647W        W84808   3.510  43.327  12.030
19648W        W84809   7.814  29.563  12.817
19649W        W84810  32.990  25.480  12.177
19650W        W84811  13.340   5.813   3.570
19651W        W84812   2.151  44.582  11.244
19652W        W84813  34.424  16.327   3.173
19653W        W84814  42.665  13.059   5.026
19654W        W84815  37.154  29.524   3.807
19655W        W84816  23.464  12.742   2.211
19656W        W84817  26.965   9.337   2.289
19657W        W84818  33.460  26.650   2.392
19658W        W84819  42.392   1.069  12.139
19659W        W84820  23.326  32.707  11.489
19660W        W84821  39.414   4.123   1.405
19661W        W84822  41.454  42.450  12.303
19662W        W84823  21.927  13.234   4.971
19663W        W84824  11.282  40.319   3.791
19664W        W84825   5.786  32.500   1.756
19665W        W84826  18.710  27.782   0.301
19666W        W84827  25.554   6.207   3.759
19667W        W84828  11.905  44.336  12.726
19668W        W84829  44.399  36.502   0.832
19669W        W84830  33.735  26.346   3.616
19670W        W84831  32.384  41.551   3.339
19671W        W84832  10.822  31.815   2.186
19672W        W84833  37.942  28.561  14.005
19673W        W84834   5.861  15.609   3.059
19674W        W84835  39.027  14.503  12.556
19675W        W84836  31.956  32.469   4.566
19676W        W84837  17.181   9.269   1.210
19677W        W84838  16.631  36.272  13.110
19678W        W84839   1.444   6.472  14.435
19679W        W84840  36.495  17.523  10.417
19680W        W84841   4.916  32.825  14.720
19681W        W84842  35.652  10.258  14.987
19682W        W84843   8.556  40.779   3.673
19683W        W84844  41.650  25.191  12.919
19684W        W84845  22.204   4.254  14.353
19685W        W84846  26.022   1.255  12.405
19686W        W84847   5.134  43.162   2.902
19687W        W84848  39.360  36.525  14.326
19688W        W84849  39.566   9.922   1.106
19689W        W84850  37.102  11.474   1.235
19690W        W84851  16.087  21.094  11.933
19691W        W84852  11.234  36.815  11.633
19692W        W84853  26.209  14.646  12.784
19693W        W84854  17.691  15.934  12.118
19694W        W84855  25.074  31.609   1.150
19695W        W84856   3.037  41.277  12.977
19696W        W84857  18.784  41.679  12.979
19697W        W84858  20.983  21.051  10.295
19698W        W84859  20.843  36.658  11.200
19699W        W84860  21.974  17.904  13.008
19700W        W84861  30.616  38.473   0.349
19701W        W84862  35.376  44.454  12.551
19702W        W84863  41.968  20.751   0.186
19703W        W84864   0.438   7.282  12.582
19704W        W84865  43.367  10.503  13.928
19705W        W84866  23.668  31.845   3.904
19706W        W84867  13.694  39.361   3.335
19707W        W84868   3.303  35.366  12.542
19708W        W84869  38.898  30.157  10.567
19709W        W84870  11.299  23.741  14.831
19710W        W84871  21.995   7.843   3.895
19711W        W84872   1.557  23.293   1.926
19712W        W84873   4.539  21.444  13.846
19713W        W84874   3.817   6.207   3.493
19714W        W84875   3.764  30.634   2.596
19715W        W84876   2.669  11.545  10.698
19716W        W84877  24.774  18.029  12.508
19717W        W84878  40.161  22.183   4.540
19718W        W84879  14.273   4.943  14.001
19719W        W84880  32.788   4.029  14.387
19720W        W84881  19.982  21.108  12.296
19721W        W84882  22.163   5.057   1.717
19722W        W84883  15.487  20.203   3.999
19723W        W84884  40.856  33.338  12.582
19724W        W84885  20.282  10.449  12.282
19725W        W84886  30.149  12.063   4.520
19726W        W84887  20.681   3.461   2.733
19727W        W84888  44.947  22.368  11.332
19728W        W84889  32.031   7.072   3.030
19729W        W84890  11.886  27.165  13.372
19730W        W84891  37.351  32.658  11.346
19731W        W84892   2.811  32.408   4.642
19732W        W84893  19.215  27.701  14.579
19733W        W84894  33.499  39.962   3.788
19734W        W84895   6.918   0.706  13.044
19735W        W84896  10.822  35.399   3.170
19736W        W84897  12.676  28.386   1.717
19737W        W84898  29.612  10.062  11.217
19738W        W84899  14.723  17.885  10.628
19739W        W84900  33.573  40.304   1.782
19740W        W84901  29.715  37.970  12.619
19741W        W84902  39.406  15.055  12.172
19742W        W84903   7.667   2.560  14.968
19743W        W84904  28.093  36.874   1.294
19744W        W84905  42.929  30.817   3.780
19745W        W84906   4.135  28.201  13.620
19746W        W84907  25.674  35.451  11.176
19747W        W84908   7.438  36.825   3.584
19748W        W84909  12.765  42.903   3.361
19749W        W84910  14.708  11.853  10.254
19750W        W84911  43.620  13.214   3.591
19751W        W84912  38.331  40.252  14.308
19752W        W84913   4.814  43.769   3.851
19753W        W84914  38.723   7.331   1.710
19754W        W84915   8.328  16.078   1.716
19755W        W84916  28.561  41.048   3.519
19756W        W84917  29.266  13.347   3.326
19757W        W84918  31.420  26.286  13.781
19758W        W84919   2.507  21.004   1.245
19759W        W84920  42.432   1.399   4.489
19760W        W84921  40.307  35.038   2.694
19761W        W84922   0.166  33.215   4.498
19762W        W84923  31.199  23.062  14.784
19763W        W84924  32.125  40.578  11.166
19764W        W84925  35.407  28.003   4.579
19765W        W84926  23.252  13.436   1.677
19766W        W84927  28.885  20.346   1.710
19767W        W84928  31.984  44.446  11.493
19768W        W84929  22.930  20.250   3.049
19769W        W84930  12.804  33.707   2.261
19770W        W84931  20.806  14.557  14.034
19771W        W84932  24.449   1.558  14.928
19772W        W84933  38.799  39.006  14.830
19773W        W84934  13.880  31.186  11.903
19774W        W84935   9.322  31.218   1.434
19775W        W84936  34.152   9.209  13.536
19776W        W84937  27.217   6.693   3.300
19777W        W84938  35.978  29.187   0.648
19778W        W84939   8.254  39.862   1.697
19779W        W84940  28.479   8.512   2.392
19780W        W84941  25.428  21.697  11.608
19781W        W84942   3.741  26.979   1.339
19782W        W84943  28.273  40.844  12.470
19783W        W84944  44.061  14.281   4.613
19784W        W84945  18.126  12.874   3.672
19785W        W84946  31.638  34.209  15.000
19786W        W84947  32.923  15.110  11.920
19787W        W84948  12.375  42.568   0.469
19788W        W84949  28.447  22.970   9.952
19789W        W84950  14.890   6.282   2.329
19790W        W84951  38.590  26.839  14.449
19791W        W84952  30.049  20.299   4.680
19792W        W84953   3.943  38.213   1.243
19793W        W84954  33.701  39.252  14.829
19794W        W84955  41.827   4.654  14.495
19795W        W84956  38.359  25.071  12.951
19796W        W84957  34.812  21.055   3.882
19797W        W84958   9.666  24.159   5.170
19798W        W84959  38.441  19.349   1.814
19799W        W84960  24.509  32.473   1.356
19800W        W84961   2.294   3.412   3.726
19801W        W84962  44.994  11.659  14.268
19802W        W84963   4.432  36.587  11.085
19803W        W84964   7.844  19.636   1.276
19804W        W84965  38.477  24.017   0.528
19805W        W84966  12.846  13.321  14.931
19806W        W84967  22.260  11.164  11.955
19807W        W84968  19.591  19.020   0.519
19808W        W84969  18.030  28.641  12.602
19809W        W84970  16.783  25.548   4.629
19810W        W84971  25.924  10.825   3.647
19811W        W84972  36.915  26.953  10.840
19812W        W84973   9.663  13.854  12.007
19813W        W84974  31.808   0.429  10.597
19814W        W84975  22.030   2.430   1.678
19815W        W84976  10.768   6.373  12.123
19816W        W84977  15.071   5.357  13.909
19817W        W84978  34.909  26.968   1.196
19818W        W84979  15.707   0.459   3.785
19819W        W84980  32.912   4.901  12.493
19820W        W84981  17.594  42.053  12.144
19821W        W84982  22.096   7.457  11.890
19822W        W84983   5.515  15.512  13.299
19823W        W84984   8.524   6.508   0.926
19824W        W84985  24.195  11.314   2.409
19825W        W84986  36.091   7.783   1.249
19826W        W84987  42.936   3.228   1.722
19827W        W84988  16.308  29.659  12.004
19828W        W84989  34.835  29.574  13.878
19829W        W84990  15.865  44.066  11.954
19830W        W84991  26.625  37.173  10.926
19831W        W84992  20.222  11.640  13.341
19832W        W84993   7.895  35.263  11.208
19833W        W84994   4.000  43.420   4.146
19834W        W84995  18.477  23.048  12.406
19835W        W84996  18.109  43.467   2.205
19836W        W84997  24.590  44.494   2.693
19837W        W84998  30.467  30.152  13.142
19838W        W84999  16.560  17.243   2.802
19839W        W85000  34.068  43.964   4.157
19840W        W85001   4.230  21.613  14.236
19841W        W85002  21.322  34.051  11.170
19842W        W85003  13.866  12.568  11.646
19843W        W85004  38.841   6.117  12.810
19844W        W85005  33.219  15.828  14.137
19845W        W85006  22.731   2.037   1.831
19846W        W85007  10.878  37.991   4.312
19847W        W85008  32.453  22.167  11.972
19848W        W85009  15.153  23.078   4.617
19849W        W85010   3.000  25.118   3.874
19850W        W85011  14.790   8.828  11.877
19851W        W85012  20.210   1.504  13.901
19852W        W85013  28.425  25.575   1.289
19853W        W85014  38.011   4.303   0.274
19854W        W85015  43.756   7.496  12.982
19855W        W85016  24.516   2.144   4.590
19856W        W85017  20.648  31.048  12.983
19857W        W85018  44.073  44.037  11.544
19858W        W85019  30.149   1.381  13.507
19859W        W85020  29.690  12.794  10.279
19860W        W85021  12.168   0.873   1.916
19861W        W85022   9.896   6.561  14.482
19862W        W85023  11.119   5.567   2.394
19863W        W85024  32.588  27.562   4.588
19864W        W85025  25.718  28.329  12.407
19865W        W85026  35.122  19.497  13.457
19866W        W85027  24.847   6.840  11.650
19867W        W85028  15.620  42.232  11.223
19868W        W85029  28.521  25.477  12.852
19869W        W85030  36.159  12.881  13.324
19870W        W85031  17.288  42.861   0.866
19871W        W85032  24.467  31.066  10.671
19872W        W85033  16.460  22.582   3.741
19873W        W85034  40.772  42.944   1.025
19874W        W85035  31.564  27.596   2.716
19875W        W85036  25.853  28.391  10.524
19876W        W85037  19.521  22.419   0.984
19877W        W85038  25.114  33.122  11.507
19878W        W85039   2.063  25.072  14.366
19879W        W85040  33.982  37.865   1.404
19880W        W85041   7.578  23.193  10.744
19881W        W85042  26.765  44.539  11.964
19882W        W85043  36.471  37.425  11.539
19883W        W85044  19.259  43.430  10.910
19884W        W85045   4.413  27.567   2.177
19885W        W85046  32.038  34.624   4.788
19886W        W85047  41.246  35.495  12.503
19887W        W85048  10.304   1.158  12.032
19888W        W85049  22.175  43.186   3.752
19889W        W85050   4.859  11.408  13.636
19890W        W85051   8.862  16.652   3.487
19891W        W85052  29.521   4.824   1.324
19892W        W85053  38.359   2.503   0.460
19893W        W85054  31.776   9.715   1.643
19894W        W85055  13.822  28.425  13.328
19895W        W85056  23.663  24.980   0.794
19896W        W85057  39.856  22.215   1.230
19897W        W85058   4.650  18.062   0.263
19898W        W85059   6.730  41.866  14.010
19899W        W85060  38.602   1.027   2.332
19900W        W85061  41.830  44.888   1.502
19901W        W85062   7.798  42.979   4.601
19902W        W85063  17.259  23.879  11.251
19903W        W85064  26.835  27.609   0.319
19904W        W85065  39.851  27.485  10.728
19905W        W85066  30.848  21.548   1.927
19906W        W85067   5.785  42.967  14.960
19907W        W85068   8.902  26.086   4.894
19908W        W85069  25.499   4.786   3.887
19909W        W85070   8.205  34.143  13.433
19910W        W85071  12.798   9.662  10.639
19911W        W85072   8.615  18.216  14.138
19912W        W85073  20.334  23.178   3.226
19913W        W85074  24.981  16.866  13.374
19914W        W85075  44.264  12.061  13.129
19915W        W85076  15.700  38.835  10.455
19916W        W85077  33.863  16.543   3.710
19917W        W85078  38.888  34.073   1.435
19918W        W85079  33.964  39.331   0.265
19919W        W85080  17.291  44.360   2.813
19920W        W85081  11.159  27.297   3.749
19921W        W85082  34.306  41.316   5.020
19922W        W85083  38.100  24.653   1.679
19923W        W85084  34.536  38.086  13.445
19924W        W85085  12.777  26.625   2.162
19925W        W85086  42.866  16.591  12.054
19926W        W85087  25.194  26.693  12.917
19927W        W85088  26.030   6.922  13.710
19928W        W85089  24.898  39.004   3.643
19929W        W85090  14.041  10.081  14.511
19930W        W85091  40.068  41.421   3.689
19931W        W85092   3.982  25.346   1.811
19932W        W85093  39.409  35.845   0.520
19933W        W85094  12.176  31.398   1.371
19934W        W85095  36.304  42.198   3.659
19935W        W85096  19.013  10.280  10.814
19936W        W85097  33.381  18.825  11.152
19937W        W85098  13.811  33.108   3.324
19938W        W85099  41.247  10.101   5.013
19939W        W85100  37.021  43.911  13.090
19940W        W85101  15.242  32.530  10.979
19941W        W85102  24.219  31.056  14.855
19942W        W85103  31.439  12.852   0.061
19943W        W85104  38.932  14.251  12.089
19944W        W85105  31.351   8.932   0.455
19945W        W85106  33.236   0.862   1.820
19946W        W85107  17.729  15.665  14.891
19947W        W85108   8.359   4.913  11.250
19948W        W85109  27.618  13.153  10.606
19949W        W85110  36.960  10.544   3.206
19950W        W85111  21.712  43.490   3.757
19951W        W85112   2.889  24.607  13.514
19952W        W85113  20.270   8.382   2.806
19953W        W85114  32.710  15.460  11.578
19954W        W85115  42.677  33.137   1.129
19955W        W85116  35.680  40.281  12.813
19956W        W85117  36.179  29.568  14.355
19957W        W85118   3.373  33.976   3.488
19958W        W85119  24.239  43.846   4.093
19959W        W85120  35.953  18.445  12.584
19960W        W85121  44.327  41.079   4.653
19961W        W85122  28.857  42.224   0.806
19962W        W85123   0.857  29.679   3.767
19963W        W85124  41.112   0.724  13.357
19964W        W85125   1.017  19.041   1.729
19965W        W85126  24.260   1.770   3.601
19966W        W85127  15.911  34.333   2.327
19967W        W85128   9.263   8.364   3.418
19968W        W85129  28.935   8.449  10.683
19969W        W85130  13.667   0.810  14.766
19970W        W85131   8.274   8.512  11.278
19971W        W85132  27.061  44.879  13.389
19972W        W85133  36.371  18.639   2.759
19973W        W85134  41.797  33.890   1.846
19974W        W85135  17.743  11.678   4.583
19975W        W85136  34.924  41.930   0.004
19976W        W85137  22.967   1.335   1.885
19977W        W85138  30.956   0.348  10.713
19978W        W85139  30.107  26.032   4.804
19979W        W85140  24.617  10.407   2.691
19980W        W85141  20.676  37.252  13.897
19981W        W85142   6.772  18.281   3.571
19982W        W85143  14.982  14.914  14.278
19983W        W85144   4.170   8.370  13.762
19984W        W85145  44.246   2.306  13.407
19985W        W85146  19.491  23.895  13.869
19986W        W85147  37.734   0.024   0.433
19987W        W85148  25.694  39.578   4.090
19988W        W85149   0.904  33.881  11.550
19989W        W85150   8.471  31.754   4.036
19990W        W85151  29.948  39.032  10.962
19991W        W85152   9.210  39.944  14.922
19992W        W85153  24.749  23.445  12.664
19993W        W85154  11.090  28.513  10.713
19994W        W85155   6.247  44.358   2.295
19995W        W85156  35.396  16.678  12.105
19996W        W85157  38.062  12.648   0.821
19997W        W85158   0.686  11.304   0.404
19998W        W85159  44.980  39.119   3.848
19999W        W85160   9.930  12.326   4.251
20000W        W85161  27.024  16.407  14.031
20001W        W85162  37.360  43.978  11.916
20002W        W85163  37.842  26.586   1.856
20003W        W85164  36.712   4.038  11.555
20004W        W85165  17.895  37.325  13.337
20005W        W85166  12.860  19.752   4.817
20006W        W85167   9.664  16.314  10.769
20007W        W85168   9.560   7.514  10.741
20008W        W85169  30.532  19.311  10.427
20009W        W85170  43.460   8.760  13.482
20010W        W85171  12.070  38.979   0.353
20011W        W85172  38.565  38.001   3.847
20012W        W85173  22.185   6.567  13.495
20013W        W85174  19.106  15.183  11.957
20014W        W85175  33.288  32.433   1.149
20015W        W85176  28.000  18.490  10.674
20016W        W85177  31.680   9.616   0.870
20017W        W85178  44.160  29.428  11.981
20018W        W85179   7.585  25.500  12.536
20019W        W85180  24.497  38.944  14.357
20020W        W85181  22.229  39.314  14.947
20021W        W85182  31.853   8.609  12.556
20022W        W85183  33.876  34.103   3.940
20023W        W85184  29.229  26.423   4.089
20024W        W85185  31.560   1.765  13.964
20025W        W85186  39.583   5.442  11.147
20026W        W85187  43.449  28.549   1.462
20027W        W85188  24.276  20.874  13.893
20028W        W85189  36.904  28.068   4.576
20029W        W85190   8.474  15.886  12.121
20030W        W85191   9.161   7.893  14.456
20031W        W85192  31.518  16.245   2.161
20032W        W85193  34.145  23.520   1.166
20033W        W85194  14.275  32.303   4.133
20034W        W85195  21.145  33.348  13.892
20035W        W85196   2.374  10.855  13.030
20036W        W85197   4.742   4.433  14.368
20037W        W85198  32.140  42.585  11.095
20038W        W85199  26.498  41.918  10.706
20039W        W85200  19.827  16.038   2.726
20040W        W85201   1.926  44.061  12.029
20041W        W85202  16.629  21.672  13.339
20042W        W85203  27.102  35.402  10.714
20043W        W85204  37.487  43.875   4.059
20044W        W85205  16.608  27.284  13.098
20045W        W85206  14.375   1.917  12.032
20046W        W85207  41.808   4.300   4.644
20047W        W85208  33.655  42.146  14.303
20048W        W85209  39.027  16.871  14.640
20049W        W85210  37.363  36.406   4.591
20050W        W85211  27.703   2.691   0.807
20051W        W85212  17.919  43.431  12.136
20052W        W85213  41.151  25.214   0.840
20053W        W85214  35.979   3.169  13.421
20054W        W85215  31.841   8.177   2.863
20055W        W85216   0.384   1.251  11.907
20056W        W85217  23.792  25.201  10.221
20057W        W85218  16.313  24.677  11.489
20058W        W85219  37.450  28.999   1.618
20059W        W85220   7.364   0.299   2.640
20060W        W85221  34.859  35.152   0.753
20061W        W85222   6.661   6.324   2.666
20062W        W85223  43.831  26.992  10.953
20063W        W85224   0.279  11.421   2.176
20064W        W85225  10.415  21.060  10.754
20065W        W85226  42.820  33.267  10.693
20066W        W85227  30.891   3.740   0.884
20067W        W85228  10.765  31.883  13.482
20068W        W85229   3.887  37.514  12.518
20069W        W85230  32.940   6.606   3.367
20070W        W85231  42.378  29.116  11.121
20071W        W85232   7.427  35.142  11.002
20072W        W85233  34.666  23.634  12.054
20073W        W85234   5.842  16.143  12.604
20074W        W85235   9.624  34.720   4.245
20075W        W85236   1.210  25.943   4.150
20076W        W85237   8.339  23.130  14.505
20077W        W85238  14.198   9.317   3.423
20078W        W85239  33.663   0.314  12.468
20079W        W85240   3.364   0.875   1.965
20080W        W85241  44.322  10.733   1.878
20081W        W85242  12.727   3.636  12.170
20082W        W85243   8.914  26.532   4.600
20083W        W85244  25.409  22.049  14.003
20084W        W85245   6.707  14.088  12.511
20085W        W85246   8.103  16.095  14.466
20086W        W85247  35.516  21.527   2.912
20087W        W85248   6.163   2.230   2.693
20088W        W85249  11.908  40.774   4.198
20089W        W85250  38.883   1.484   2.395
20090W        W85251  21.817  44.710   2.433
20091W        W85252   8.705  15.702   2.967
20092W        W85253  13.060  18.592  14.296
20093W        W85254  25.241  29.733  13.997
20094W        W85255  13.664  29.116  11.098
20095W        W85256  12.813   2.886   2.806
20096W        W85257   3.017  34.582  13.422
20097W        W85258  32.344  29.248  13.879
20098W        W85259  37.067  28.111  14.254
20099W        W85260  38.412  40.019   2.760
20100W        W85261  14.697  44.756  12.626
20101W        W85262  16.513  42.789  11.049
20102W        W85263  15.207  15.360  10.514
20103W        W85264  18.958  14.194  10.308
20104W        W85265  12.651   5.674   1.334
20105W        W85266  35.603  28.009   2.824
20106W        W85267  12.586  12.411  10.717
20107W        W85268  42.148  42.850  11.846
20108W        W85269  11.729   0.233   0.416
20109W        W85270  42.996   1.471   1.348
20110W        W85271  33.537  15.949  11.582
20111W        W85272   7.410  13.687  14.899
20112W        W85273  33.339  24.183  12.900
20113W        W85274  20.765  14.058  13.991
20114W        W85275  15.113  25.190  13.845
20115W        W85276  32.147  13.291  11.971
20116W        W85277  43.434  38.410   3.424
20117W        W85278  15.855   9.889   1.986
20118W        W85279  21.478  20.077   1.367
20119W        W85280  44.330  40.991  12.812
20120W        W85281  33.122  25.403   0.631
20121W        W85282  35.901  28.968   4.701
20122W        W85283  14.325  29.990   4.900
20123W        W85284  31.455  10.948  13.537
20124W        W85285  41.795  40.699   0.692
20125W        W85286  33.188  33.688  14.276
20126W        W85287  17.226  40.547   3.110
20127W        W85288  41.172  43.966  11.746
20128W        W85289  21.980  13.772   4.364
20129W        W85290  28.553  29.097   3.097
20130W        W85291   9.590  44.478   1.371
20131W        W85292  37.324  26.134  10.595
20132W        W85293   8.348  40.445  11.750
20133W        W85294  15.582  26.049  12.101
20134W        W85295  29.963  42.450   3.686
20135W        W85296   1.353   7.754  13.667
20136W        W85297  19.350  37.303   1.474
20137W        W85298  34.873   8.593  13.256
20138W        W85299  43.338   7.320   0.918
20139W        W85300  12.723  40.199  11.130
20140W        W85301  16.563  38.007  10.682
20141W        W85302  13.351  37.890   0.352
20142W        W85303  42.802  44.469  12.488
20143W        W85304  34.982  18.988  13.466
20144W        W85305  36.666  41.826   0.408
20145W        W85306  26.567   9.918   0.469
20146W        W85307  27.746  32.540   2.587
20147W        W85308   5.699  42.861   1.924
20148W        W85309   8.691  42.417   1.047
20149W        W85310  28.074  29.471  11.506
20150W        W85311  16.794   5.163   4.593
20151W        W85312  31.778   2.349  11.118
20152W        W85313  41.434   1.651   2.487
20153W        W85314  33.646  28.568   3.337
20154W        W85315   2.040   9.969   1.916
20155W        W85316  32.968  38.781   3.227
20156W        W85317  44.689  17.065   0.340
20157W        W85318  19.528   3.350  13.559
20158W        W85319  23.626  23.042   2.305
20159W        W85320   3.272   8.344  11.094
20160W        W85321   7.386  33.664   1.773
20161W        W85322  44.819  44.120  13.407
20162W        W85323  25.729  14.738   4.211
20163W        W85324  42.777  16.255   4.438
20164W        W85325  43.106   5.410   0.501
20165W        W85326  16.706  39.933  10.221
20166W        W85327  16.276  23.543   0.287
20167W        W85328  31.582  36.642   0.961
20168W        W85329  31.592  13.743  13.907
20169W        W85330  20.180  37.081   0.480
20170W        W85331  41.937  43.381   4.608
20171W        W85332  43.581  40.062   0.426
20172W        W85333   8.281  39.210  12.512
20173W        W85334  21.050  13.670   4.137
20174W        W85335  26.685   1.321  11.094
20175W        W85336  44.391  14.339  11.549
20176W        W85337  43.259  33.416   9.817
20177W        W85338  36.347  30.729   2.324
20178W        W85339  38.801  32.179   2.814
20179W        W85340  22.905   4.755  14.742
20180W        W85341  21.091  24.415   1.742
20181W        W85342  43.096  18.982  12.117
20182W        W85343   9.605  17.127  11.898
20183W        W85344  27.599  29.118   1.345
20184W        W85345  18.431  21.121   1.510
20185W        W85346  10.545   7.844   5.321
20186W        W85347  11.743  24.769   2.289
20187W        W85348  26.464  42.937   1.572
20188W        W85349   6.821  28.229   1.314
20189W        W85350  25.463  25.126  13.431
20190W        W85351  10.935  42.381   0.402
20191W        W85352  19.246  33.065   4.154
20192W        W85353  15.322  11.550   2.842
20193W        W85354  22.056   1.329   3.499
20194W        W85355  39.349   5.611  11.912
20195W        W85356   7.903  27.555   1.842
20196W        W85357  35.245  30.019  10.740
20197W        W85358  23.034  19.773   0.909
20198W        W85359  40.566  23.887  11.775
20199W        W85360  12.790  39.744  12.024
20200W        W85361  27.533  20.027   3.403
20201W        W85362  15.962  42.479   4.602
20202W        W85363   5.158  40.129   3.517
20203W        W85364  23.658  14.005  11.974
20204W        W85365  41.595   4.350  10.742
20205W        W85366  27.620  29.599   2.946
20206W        W85367  41.341   2.123   2.696
20207W        W85368   8.408   1.728   0.134
20208W        W85369  42.331  27.554  13.994
20209W        W85370  38.889  19.487  10.414
20210W        W85371  25.506  31.639  11.128
20211W        W85372  11.346  25.036   4.083
20212W        W85373   1.417  25.588   2.874
20213W        W85374  35.864   5.727   0.426
20214W        W85375  37.082  34.448  11.580
20215W        W85376  18.293  36.816  12.563
20216W        W85377  29.066  44.006  12.414
20217W        W85378   5.955  17.074   4.027
20218W        W85379  25.361  25.439  11.651
20219W        W85380  34.031  37.393   0.911
20220W        W85381  38.555  28.435   2.867
20221W        W85382  28.289   9.312  11.138
20222W        W85383  27.075  15.731   3.067
20223W        W85384  16.532  33.995  12.696
20224W        W85385  32.867  44.436   4.601
20225W        W85386   7.462  22.470   1.357
20226W        W85387  39.292  38.289  11.868
20227W        W85388  42.583  29.158  14.968
20228W        W85389  25.419  29.095   3.136
20229W        W85390  27.042  29.059   3.757
20230W        W85391  44.396  34.653   0.757
20231W        W85392   8.165   6.312  10.963
20232W        W85393   3.937  32.615   1.248
20233W        W85394  14.817  31.683  13.929
20234W        W85395   7.943   9.774   2.937
20235W        W85396  26.048  32.987   0.727
20236W        W85397  32.842  40.812   0.112
20237W        W85398  20.491  30.655   0.381
20238W        W85399  35.375  13.806  13.859
20239W        W85400   1.306  42.618  13.621
20240W        W85401  34.109  21.296  13.361
20241W        W85402  35.132  25.179  11.582
20242W        W85403  30.791  30.846  14.385
20243W        W85404  40.031  17.520  13.405
20244W        W85405  23.685   3.455   3.248
20245W        W85406  33.833  24.272   3.793
20246W        W85407  35.981  41.524   2.411
20247W        W85408  10.437   1.850   0.839
20248W        W85409  36.263   7.498   1.662
20249W        W85410  28.621  33.558  11.425
20250W        W85411  20.242  33.813  11.917
20251W        W85412  30.688  18.576  13.959
20252W        W85413  10.303  13.287  12.390
20253W        W85414   4.931  14.016  11.251
20254W        W85415  17.844  33.974   0.780
20255W        W85416  18.600  28.294   0.254
20256W        W85417   1.778  40.991  13.537
20257W        W85418  25.417  28.389  14.421
20258W        W85419  37.065  20.508  14.430
20259W        W85420   7.084  40.373  12.612
20260W        W85421   6.264  16.699   2.328
20261W        W85422  33.067   5.704  11.529
20262W        W85423  42.641   0.530   1.627
20263W        W85424   1.046  20.769  14.760
20264W        W85425  26.161   9.683   0.717
20265W        W85426  19.513   7.865  10.700
20266W        W85427  11.864  39.399   3.771
20267W        W85428  35.027  16.379  13.407
20268W        W85429  23.166  29.682   4.117
20269W        W85430  23.236  38.305   1.902
20270W        W85431  34.780  19.997   4.036
20271W        W85432   3.359   1.478  13.962
20272W        W85433   2.888  27.180   4.118
20273W        W85434   9.708  11.018  11.021
20274W        W85435  23.580   1.558  14.988
20275W        W85436  36.945  35.914  13.658
20276W        W85437  30.100   8.888   1.340
20277W        W85438  26.043  13.318   3.534
20278W        W85439  30.904  38.372   3.298
20279W        W85440  11.125  20.782  14.355
20280W        W85441  28.904  25.425   1.608
20281W        W85442  38.613  32.574   4.214
20282W        W85443  35.043  20.042  12.471
20283W        W85444  32.903   0.264   3.412
20284W        W85445   8.246  31.453   3.674
20285W        W85446   0.910  13.446   1.654
20286W        W85447  19.204   2.850  11.964
20287W        W85448  39.280   9.455   2.293
20288W        W85449  24.298  24.693  14.915
20289W        W85450   2.593   9.150   1.843
20290W        W85451  30.674   7.680  11.645
20291W        W85452  27.862  42.466  11.179
20292W        W85453  38.923   2.187  14.018
20293W        W85454  20.733  38.472  14.522
20294W        W85455  35.156  21.086  11.679
20295W        W85456  20.226  41.308  14.344
20296W        W85457  32.572   3.928   0.320
20297W        W85458   4.914  33.503   4.550
20298W        W85459  30.732  30.510   3.615
20299W        W85460  37.312  44.962  10.475
20300W        W85461  13.241  41.980   4.823
20301W        W85462  20.222  24.310  11.977
20302W        W85463   9.803   3.858   4.732
20303W        W85464  16.297  18.220  14.306
20304W        W85465   4.941  34.253   1.469
20305W        W85466  19.074  19.097   4.964
20306W        W85467  20.067  30.403  13.116
20307W        W85468  33.399  42.625   0.970
20308W        W85469  24.826  19.221  14.549
20309W        W85470  13.047   0.419   3.736
20310W        W85471  16.218  23.268   2.683
20311W        W85472   6.724   7.397   0.427
20312W        W85473  27.694   3.291   4.160
20313W        W85474   7.947  43.011  13.909
20314W        W85475   8.412  19.244  11.734
20315W        W85476   5.612  29.693   0.305
20316W        W85477   2.504  41.957   3.114
20317W        W85478   7.265  25.272  11.643
20318W        W85479  36.318  15.624   0.483
20319W        W85480   8.869  34.257  11.669
20320W        W85481  24.436  23.170  12.941
20321W        W85482  11.817  22.115   2.339
20322W        W85483  21.299  26.014  11.709
20323W        W85484  16.553  40.711  13.759
20324W        W85485  37.330  22.949   2.711
20325W        W85486  25.698  32.606  13.071
20326W        W85487  10.361   2.104  10.269
20327W        W85488  34.643  44.880   3.774
20328W        W85489  24.674  23.228   2.262
20329W        W85490  44.925  22.650   3.416
20330W        W85491  15.802  10.763  10.865
20331W        W85492  21.763  10.389   4.134
20332W        W85493  38.873  11.840   2.787
20333W        W85494  39.392   1.303   2.400
20334W        W85495  41.743  38.080  11.636
20335W        W85496  33.339  37.447   1.720
20336W        W85497   2.858   6.522  12.011
20337W        W85498  44.904  41.879   2.700
20338W        W85499  42.877  27.086  12.507
20339W        W85500  44.021  23.071   2.029
20340W        W85501  32.364  25.770   2.301
20341W        W85502  17.347   3.716  13.650
20342W        W85503  13.956  35.107  12.389
20343W        W85504  15.794  11.345   2.681
20344W        W85505  14.015  23.694  12.810
20345W        W85506  25.139  19.698   3.250
20346W        W85507  31.866  13.473   4.512
20347W        W85508  23.046  42.983   1.614
20348W        W85509  18.301   8.381  12.545
20349W        W85510  42.943  16.258   3.597
20350W        W85511  12.448  38.333  13.762
20351W        W85512  34.416  18.173   0.207
20352W        W85513  43.085  15.267  12.415
20353W        W85514  17.618  23.329  11.643
20354W        W85515  36.335   5.294   2.162
20355W        W85516  36.765   2.074   3.441
20356W        W85517  34.121  13.195   0.776
20357W        W85518  34.514   8.608  14.570
20358W        W85519   3.241  33.397   4.145
20359W        W85520   0.931   3.014  12.485
20360W        W85521  41.125  44.390   1.897
20361W        W85522  44.856  29.618  11.807
20362W        W85523  38.420   4.718  10.530
20363W        W85524  18.447   5.531  13.603
20364W        W85525   6.878   8.869  14.455
20365W        W85526   6.880  37.300  13.590
20366W        W85527  28.650  19.499  11.063
20367W        W85528  29.535  34.731   3.599
20368W        W85529  15.088   9.291  13.248
20369W        W85530  36.956  23.530  12.201
20370W        W85531  41.392  34.876  11.487
20371W        W85532  18.884   8.605  10.963
20372W        W85533  26.297   0.732  13.946
20373W        W85534  27.849  36.903   2.861
20374W        W85535  37.918  42.451  12.832
20375W        W85536  24.961  39.398   2.941
20376W        W85537   2.661   6.687  13.783
20377W        W85538   5.149   8.371  11.920
20378W        W85539   8.232  31.717  12.027
20379W        W85540   2.043  25.493   0.907
20380W        W85541  17.684  36.273   2.737
20381W        W85542   2.076  14.751   5.012
20382W        W85543  26.451   7.860   2.184
20383W        W85544   6.302  16.973  13.217
20384W        W85545  35.931  40.721  12.928
20385W        W85546   7.261  24.402  13.387
20386W        W85547  42.862  18.323   3.645
20387W        W85548  39.747  38.940  11.545
20388W        W85549  29.042   1.757   2.788
20389W        W85550   1.428  29.666  11.201
20390W        W85551   0.981  26.548   2.897
20391W        W85552  25.591  19.628  13.926
20392W        W85553  10.240  19.781  13.116
20393W        W85554  43.945  29.234  12.804
20394W        W85555  25.541   7.359   0.439
20395W        W85556  18.599   7.783  14.066
20396W        W85557  43.141  10.328  14.373
20397W        W85558  17.222  13.512  13.396
20398W        W85559  11.731  17.888   2.635
20399W        W85560   4.401  29.057  11.765
20400W        W85561  13.441   0.675  13.327
20401W        W85562   8.803  10.918  11.606
20402W        W85563  21.682  34.531   0.953
20403W        W85564  38.223  27.996  14.841
20404W        W85565  21.056   1.527   4.460
20405W        W85566   8.655  33.342  13.892
20406W        W85567   0.859  29.695  12.054
20407W        W85568  13.187   9.790  12.008
20408W        W85569  17.799  15.255  13.241
20409W        W85570  39.547  41.377   1.243
20410W        W85571  12.610  38.729   4.454
20411W        W85572  19.156  19.739   3.028
20412W        W85573  13.218  11.822   0.436
20413W        W85574  41.473  39.759  10.726
20414W        W85575   7.187  29.670  10.374
20415W        W85576  42.299  32.176  14.433
20416W        W85577   2.691  25.328  12.360
20417W        W85578  13.282  19.722  12.089
20418W        W85579  28.614  27.806  10.702
20419W        W85580  16.314  23.320   0.757
20420W        W85581  23.507  32.234   4.205
20421W        W85582  14.218  16.095  14.397
20422W        W85583   3.314   6.349   3.101
20423W        W85584   0.930   5.317  11.564
20424W        W85585  41.661   8.289  12.053
20425W        W85586  38.812  27.062   4.989
20426W        W85587  16.255  41.064  14.500
20427W        W85588  33.500  43.542   1.146
20428W        W85589  10.352  29.870  13.953
20429W        W85590   3.181  39.512  11.405
20430W        W85591  15.712  19.630   5.036
20431W        W85592   6.758  32.904   4.526
20432W        W85593  30.298   4.925  12.964
20433W        W85594  40.907  28.918   1.382
20434W        W85595   3.674  29.550  10.485
20435W        W85596  14.121  38.949   1.306
20436W        W85597  38.765  29.467   1.789
20437W        W85598  19.076   6.714   4.028
20438W        W85599   6.583  30.027   3.777
20439W        W85600  17.796  34.989   1.435
20440W        W85601   5.972  36.073  13.418
20441W        W85602  18.272   8.199  10.489
20442W        W85603  15.197  30.470  10.737
20443W        W85604  14.215   4.338   0.382
20444W        W85605  17.199  11.888  11.184
20445W        W85606  33.580   2.813  13.225
20446W        W85607  13.414  22.545  10.809
20447W        W85608  16.260  39.940   2.310
20448W        W85609  24.876  21.763  11.499
20449W        W85610  15.087  43.850  11.537
20450W        W85611  39.764  40.773  11.078
20451W        W85612  25.451  36.718  11.048
20452W        W85613   7.902  35.555  12.042
20453W        W85614  40.276  17.237   4.030
20454W        W85615  18.727   3.749   4.570
20455W        W85616  19.675  25.442  12.954
20456W        W85617   7.124   2.212  13.492
20457W        W85618  27.524  30.647  11.099
20458W        W85619   8.287  14.790  11.194
20459W        W85620  45.000  15.111   3.267
20460W        W85621  33.475  17.201  13.842
20461W        W85622  32.618  40.563   3.454
20462W        W85623  17.193   5.893  11.553
20463W        W85624   6.717   8.769  10.719
20464W        W85625  12.873  31.560   3.768
20465W        W85626  31.074   1.804   0.728
20466W        W85627   4.680  15.387  10.701
20467W        W85628  21.687  42.991   3.673
20468W        W85629  14.353  17.941  11.236
20469W        W85630  21.777   5.457   3.729
20470W        W85631  23.945   4.378   4.212
20471W        W85632  31.514  35.888  11.537
20472W        W85633  32.256  21.567   2.435
20473W        W85634  16.164  28.527  14.288
20474W        W85635   1.769  15.065  13.596
20475W        W85636  38.497  22.163   4.534
20476W        W85637  15.679  34.881  13.403
20477W        W85638  10.026  12.065  12.252
20478W        W85639  12.723   3.475  13.055
20479W        W85640  26.986  36.185   3.158
20480W        W85641  40.431  12.835   0.240
20481W        W85642  39.836  42.951  13.096
20482W        W85643  30.815  11.887   0.417
20483W        W85644  38.822  42.863  10.129
20484W        W85645  23.065  23.970   4.054
20485W        W85646  34.079   4.961  11.712
20486W        W85647  26.686  26.470   2.907
20487W        W85648  41.186  43.538  12.590
20488W        W85649  34.568  23.082   1.151
20489W        W85650   6.856  20.530  10.536
20490W        W85651  20.146  20.041   0.814
20491W        W85652  18.802   3.717   2.725
20492W        W85653  23.605  32.622   4.525
20493W        W85654  11.232  29.711   3.608
20494W        W85655   3.372  42.186   3.085
20495W        W85656  28.043   5.744  13.154
20496W        W85657   2.469  29.250  13.601
20497W        W85658  39.362  41.956  14.570
20498W        W85659  28.506  25.113   1.046
20499W        W85660  33.408  17.748  11.125
20500W        W85661  39.933  25.551  14.566
20501W        W85662  22.738   0.547   0.546
20502W        W85663  31.590  40.788   4.399
20503W        W85664  17.768   6.630  14.025
20504W        W85665   2.238   8.180   2.820
20505W        W85666   7.219  21.676  14.200
20506W        W85667  23.246  24.789   3.687
20507W        W85668   3.120  10.843   2.582
20508W        W85669  17.784  43.894   4.176
20509W        W85670  22.258  36.405   4.952
20510W        W85671  11.729  13.774   3.875
20511W        W85672  42.971  43.481   4.519
20512W        W85673  34.593  36.163  12.437
20513W        W85674  18.549   3.715   0.735
20514W        W85675  38.496  12.206  11.397
20515W        W85676  34.708  33.020  11.639
20516W        W85677  14.154  19.081  13.446
20517W        W85678  34.865  23.046  14.417
20518W        W85679  36.392  42.551  13.902
20519W        W85680  42.499   6.405  10.873
20520W        W85681  14.886  27.629  11.736
20521W        W85682  13.273  21.386   0.440
20522W        W85683   5.913  43.046  13.613
20523W        W85684  11.733  25.914   2.824
20524W        W85685  40.942  20.605   4.614
20525W        W85686  27.333   4.481   0.368
20526W        W85687  13.427   0.895  11.176
20527W        W85688  29.652  33.587   0.245
20528W        W85689   0.384   5.131   4.042
20529W        W85690  10.658   0.570  13.307
20530W        W85691   4.159  28.633   0.916
20531W        W85692  23.017  29.453   3.301
20532W        W85693  32.331   9.819   2.548
20533W        W85694  39.936  22.537   1.745
20534W        W85695  18.534  36.884  14.990
20535W        W85696  12.386  39.420  12.931
20536W        W85697  34.241  13.683   2.843
20537W        W85698  35.784   4.394   4.287
20538W        W85699  18.758  19.027   2.335
20539W        W85700  40.361   8.653   0.456
20540W        W85701  40.321   0.340   0.480
20541W        W85702   1.519   0.468   3.132
20542W        W85703  13.573  20.121   1.169
20543W        W85704  44.229   1.966   1.250
20544W        W85705  26.580  39.203  11.174
20545W        W85706   0.438   4.783   3.113
20546W        W85707   4.743   8.550  12.618
20547W        W85708  19.999  20.119   4.573
20548W        W85709  31.315  22.539   1.805
20549W        W85710  36.558  44.276  13.643
20550W        W85711  41.014  41.249  11.051
20551W        W85712  24.181   8.286   1.134
20552W        W85713   7.903  42.276  11.205
20553W        W85714  43.249  41.315   0.018
20554W        W85715  23.167  22.173   0.823
20555W        W85716  36.349  41.335  12.446
20556W        W85717  14.780  34.898   1.288
20557W        W85718  25.104  21.135  10.742
20558W        W85719  43.328  39.259   3.684
20559W        W85720  15.781   8.081  14.493
20560W        W85721  17.322  42.401   0.440
20561W        W85722  26.298  31.294  10.838
20562W        W85723  19.064  31.546   1.576
20563W        W85724  15.141  41.811   2.808
20564W        W85725  44.275   1.799  13.614
20565W        W85726  41.481   3.154   4.044
20566W        W85727   4.480  19.793   0.062
20567W        W85728   2.028  28.247  11.549
20568W        W85729  36.442  29.029   0.828
20569W        W85730   7.918   0.688  10.264
20570W        W85731   6.183  38.394   2.758
20571W        W85732  13.743  36.005  11.614
20572W        W85733  17.836  43.367   3.577
20573W        W85734  19.715  32.625  12.956
20574W        W85735  21.557  40.573   4.077
20575W        W85736   5.797  11.121  12.317
20576W        W85737   3.370  11.266   0.058
20577W        W85738  23.969  32.117  13.895
20578W        W85739  40.863  36.948  10.784
20579W        W85740  11.304   3.850  12.452
20580W        W85741  43.489  32.946   0.448
20581W        W85742   7.210  42.754  12.665
20582W        W85743   0.843   5.817   4.555
20583W        W85744  38.905  41.027   1.880
20584W        W85745  39.373   2.337   2.050
20585W        W85746  25.806  41.525   0.055
20586W        W85747   8.584   9.497   0.853
20587W        W85748  39.553  42.518   2.274
20588W        W85749  17.507  36.888  12.851
20589W        W85750  10.828  21.976   2.624
20590W        W85751  11.584  18.724  12.884
20591W        W85752  10.124  32.931   2.757
20592W        W85753  26.599   4.241  13.565
20593W        W85754  30.440   7.822   1.010
20594W        W85755  36.330  12.977   0.788
20595W        W85756   0.945  17.839  11.086
20596W        W85757  15.877  41.108  13.002
20597W        W85758   1.363   3.896  11.583
20598W        W85759   4.219  44.564  13.618
20599W        W85760   6.709   7.208  14.868
20600W        W85761  43.535  32.996   3.855
20601W        W85762  13.533  27.975   1.247
20602W        W85763  24.960  10.155   4.014
20603W        W85764  12.230  13.745   1.810
20604W        W85765  13.847  40.398   0.452
20605W        W85766   8.695  20.509  13.836
20606W        W85767  21.026  18.723   1.900
20607W        W85768  43.523  22.988  14.899
20608W        W85769   6.384  24.532  10.627
20609W        W85770  20.376   6.765   1.868
20610W        W85771  30.239  29.176  12.411
20611W        W85772   7.892   6.612   5.002
20612W        W85773  23.994  11.284   3.946
20613W        W85774  16.073  12.614  10.428
20614W        W85775   6.374   0.816   3.750
20615W        W85776  21.214   2.340  11.165
20616W        W85777   9.862  32.898   2.324
20617W        W85778   9.077  24.735  12.430
20618W        W85779  39.944  17.318  10.929
20619W        W85780  15.285  15.680  11.108
20620W        W85781  44.404   3.228   4.752
20621W        W85782  38.329   4.373  14.427
20622W        W85783  43.591  33.908   3.726
20623W        W85784   9.884  21.773   0.760
20624W        W85785  22.688  27.214  11.826
20625W        W85786  32.484  18.048  12.470
20626W        W85787   4.416  31.241   2.384
20627W        W85788  33.668  44.845   4.658
20628W        W85789   5.629   9.253   3.192
20629W        W85790  20.089  18.343   5.164
20630W        W85791  43.757  24.985  12.579
20631W        W85792  35.843  21.335  12.240
20632W        W85793  34.368   6.413  12.629
20633W        W85794  30.217  35.491  10.767
20634W        W85795  32.125  42.973   0.002
20635W        W85796  27.709  41.973  11.227
20636W        W85797  26.811  27.031   3.572
20637W        W85798  33.601  41.789  10.254
20638W        W85799  41.707  20.796  12.941
20639W        W85800  32.098  19.523  12.913
20640W        W85801  40.802  44.747   2.846
20641W        W85802   3.241  30.051   2.266
20642W        W85803  35.069  30.301  11.177
20643W        W85804  11.680  21.518  12.682
20644W        W85805   1.350  24.923  13.393
20645W        W85806   6.474  36.633  10.084
20646W        W85807  25.768   7.758  11.615
20647W        W85808  41.928   5.148  14.472
20648W        W85809  10.161   2.189   0.496
20649W        W85810  39.388   8.411   2.411
20650W        W85811  23.473  31.984  13.096
20651W        W85812  12.247   2.020   3.154
20652W        W85813   4.304  38.903  11.690
20653W        W85814   2.672  41.550   0.502
20654W        W85815   8.330   5.222  14.502
20655W        W85816  37.940  37.272   4.914
20656W        W85817  37.498  27.085   0.263
20657W        W85818  19.097   3.456   0.077
20658W        W85819  40.307  22.426  14.356
20659W        W85820  21.638  44.124  14.474
20660W        W85821  37.218   0.252   1.837
20661W        W85822  19.077  33.783   1.701
20662W        W85823   5.181   7.241  12.086
20663W        W85824  35.114  22.715  13.488
20664W        W85825  23.655  31.197  12.620
20665W        W85826  33.421  21.635  10.410
20666W        W85827  34.059  13.067  12.401
20667W        W85828   9.498  39.053  14.852
20668W        W85829   0.599  37.114   0.868
20669W        W85830   1.979  33.750  12.858
20670W        W85831  29.456  42.910   2.174
20671W        W85832  38.755  25.492   2.343
20672W        W85833  17.007  39.856   2.763
20673W        W85834  16.519  13.779   2.334
20674W        W85835  21.025  34.074  14.519
20675W        W85836   7.334  16.179   1.755
20676W        W85837  24.376  35.356   5.111
20677W        W85838   4.904  18.718  14.356
20678W        W85839   1.836  11.120  14.308
20679W        W85840   1.575  17.626   3.681
20680W        W85841  39.474  41.221  11.067
20681W        W85842  17.577  38.430  14.539
20682W        W85843  43.080  28.526   4.175
20683W        W85844  26.189  25.175  10.733
20684W        W85845   8.141  10.336   1.517
20685W        W85846  21.338   1.323   0.302
20686W        W85847  26.259  12.937   4.183
20687W        W85848  11.087  35.460   3.681
20688W        W85849  30.626  40.276   4.160
20689W        W85850  11.131  20.343   1.274
20690W        W85851  25.973  43.370   5.581
20691W        W85852   1.953   4.340   4.193
20692W        W85853  17.729  16.115   0.686
20693W        W85854  31.504   7.492  14.470
20694W        W85855  43.789  34.368   2.477
20695W        W85856  17.711  44.319   0.911
20696W        W85857  38.009  35.972   0.494
20697W        W85858  20.311  33.034   3.318
20698W        W85859  11.089  17.231   2.650
20699W        W85860  15.915  24.008  13.801
20700W        W85861  20.964  16.542   3.675
20701W        W85862  14.450   7.690  12.310
20702W        W85863  18.676  13.617   3.523
20703W        W85864  29.552  33.346  11.934
20704W        W85865  13.010  28.110   1.312
20705W        W85866  22.125  40.606  11.111
20706W        W85867  42.387   3.007  12.654
20707W        W85868  18.148  11.749  13.064
20708W        W85869  27.148  21.566   1.907
20709W        W85870   9.876  29.573  13.521
20710W        W85871  41.025  15.108   2.269
20711W        W85872  43.972  40.423   2.265
20712W        W85873   9.120  32.631   1.928
20713W        W85874  35.009   6.051  10.688
20714W        W85875  27.373  25.046  11.044
20715W        W85876  16.291  19.773   4.147
20716W        W85877   3.489  31.027  10.691
20717W        W85878  34.443  34.767   3.286
20718W        W85879  35.404  26.391  13.037
20719W        W85880  44.898  37.137   0.282
20720W        W85881  40.224  20.065  13.394
20721W        W85882  36.821  39.458  13.974
20722W        W85883  43.969  22.505   2.499
20723W        W85884  34.200  30.765  12.061
20724W        W85885  44.521  18.566  11.982
20725W        W85886   0.653  20.170   3.709
20726W        W85887  23.381  43.286   0.978
20727W        W85888  19.256  34.082  13.984
20728W        W85889  29.194   8.298   4.654
20729W        W85890   5.077  27.806   3.828
20730W        W85891  18.571  36.593   2.282
20731W        W85892  13.814  42.871   3.405
20732W        W85893  35.208   4.609   1.587
20733W        W85894   9.044   1.600  14.444
20734W        W85895  43.326  15.516  11.163
20735W        W85896  21.573  35.621   3.755
20736W        W85897  30.088  26.105  13.867
20737W        W85898  27.860  33.996   2.409
20738W        W85899  18.337  30.884   3.164
20739W        W85900  18.984  17.576   5.008
20740W        W85901  13.877   8.429   2.924
20741W        W85902   8.437  23.189  12.454
20742W        W85903  16.331  23.106   1.225
20743W        W85904   9.945  14.232   0.491
20744W        W85905   1.515   8.106  11.537
20745W        W85906  14.225  24.962   3.093
20746W        W85907  29.839  30.403  11.426
20747W        W85908   3.397  21.652   3.818
20748W        W85909   6.834  10.252   4.786
20749W        W85910  16.694  44.854  10.300
20750W        W85911   5.682  12.326  12.887
20751W        W85912  25.907  26.596  14.936
20752W        W85913  11.375  27.816   3.171
20753W        W85914  32.570   9.762   4.634
20754W        W85915  16.795  43.431   2.672
20755W        W85916   4.168   9.312  12.942
20756W        W85917   8.955  23.680   4.605
20757W        W85918  42.444  34.424  12.359
20758W        W85919  11.795  22.158   0.493
20759W        W85920  41.424  27.128   3.783
20760W        W85921  36.535  27.074   4.789
20761W        W85922   6.332  16.952   0.472
20762W        W85923   0.838   5.828   4.034
20763W        W85924  30.343  25.571   2.409
20764W        W85925   1.224  26.925  12.416
20765W        W85926   2.656   4.351  12.398
20766W        W85927  27.131  26.717  14.916
20767W        W85928  22.280  16.624   1.736
20768W        W85929  37.456  29.215   0.753
20769W        W85930   7.903  33.326  11.859
20770W        W85931  11.189  30.993  11.495
20771W        W85932  30.336  16.156   0.660
20772W        W85933  35.924   1.367   4.116
20773W        W85934  29.044   3.709   2.106
20774W        W85935   5.445  16.233   1.540
20775W        W85936  23.117   4.156  12.348
20776W        W85937  20.195  34.857   1.820
20777W        W85938  34.119  36.114   0.358
20778W        W85939  16.651  34.795   3.818
20779W        W85940   4.269  16.559  11.837
20780W        W85941  38.542   0.554   3.458
20781W        W85942  13.862  23.081  13.907
20782W        W85943  27.636   8.962   0.793
20783W        W85944  36.001  19.100  11.895
20784W        W85945  25.483  10.069   2.321
20785W        W85946  34.438   9.409  14.209
20786W        W85947  18.063   2.424   0.779
20787W        W85948   5.855  28.686   0.267
20788W        W85949   7.286  28.951   1.227
20789W        W85950  38.081   6.802   4.576
20790W        W85951  39.065  25.862  14.599
20791W        W85952  18.356  11.212  11.157
20792W        W85953  34.061  20.859  13.915
20793W        W85954  25.247  14.834  12.640
20794W        W85955  37.437  22.446  11.721
20795W        W85956  25.712  43.462   4.582
20796W        W85957   7.797  12.338   1.376
20797W        W85958  18.775  25.521   0.822
20798W        W85959  20.064  42.356   1.256
20799W        W85960   2.734  19.956  14.722
20800W        W85961   5.644  33.125  12.060
20801W        W85962   2.216   7.489   3.666
20802W        W85963  33.596  25.172  13.384
20803W        W85964  15.328   2.892   1.517
20804W        W85965  15.890  44.004   0.344
20805W        W85966  37.112  11.388   0.427
20806W        W85967  21.486  25.148   0.829
20807W        W85968   3.264   6.331   3.605
20808W        W85969  26.004  16.742   0.879
20809W        W85970  10.531  20.531   0.117
20810W        W85971   1.873  16.064   2.732
20811W        W85972  33.864   1.510  14.355
20812W        W85973   8.611   4.969   3.165
20813W        W85974  31.039  20.296  13.019
20814W        W85975   9.626  19.210   0.479
20815W        W85976  31.570  13.897   4.585
20816W        W85977  23.514  42.267   0.795
20817W        W85978   4.641  31.651  14.452
20818W        W85979  43.802  35.134   2.070
20819W        W85980  37.849  24.988  12.987
20820W        W85981   5.697  31.528  10.181
20821W        W85982  11.362   9.956   4.177
20822W        W85983  28.694  22.689  13.777
20823W        W85984  23.273  42.971  13.841
20824W        W85985  38.607  38.973   3.629
20825W        W85986  30.824  30.634  11.712
20826W        W85987  20.170   9.448  14.298
20827W        W85988   0.077  42.494  14.986
20828W        W85989  16.891  28.047   4.100
20829W        W85990  23.705   4.664  14.440
20830W        W85991  32.393  32.236  13.024
20831W        W85992   9.092   3.163  12.812
20832W        W85993  43.216  26.651   9.879
20833W        W85994  20.804  21.722   2.340
20834W        W85995  11.130  15.773   2.606
20835W        W85996  42.023   2.214  14.941
20836W        W85997  18.655  31.622  11.965
20837W        W85998   3.313  38.279  11.535
20838W        W85999  22.910  11.153  13.923
20839W        W86000  34.277  43.955   3.654
20840W        W86001  30.495  33.587  10.621
20841W        W86002   9.602  33.057  14.811
20842W        W86003   6.928  44.463  13.720
20843W        W86004  16.820   0.733   1.733
20844W        W86005   2.970  39.918   2.700
20845W        W86006   4.773  14.272  14.061
20846W        W86007  39.982  34.752   4.543
20847W        W86008   9.748  32.975  11.716
20848W        W86009  33.489  11.476   5.208
20849W        W86010  21.750  19.088   4.726
20850W        W86011   8.929  40.101   3.154
20851W        W86012  29.206   7.236   3.802
20852W        W86013  28.036  11.201   1.627
20853W        W86014   6.188  38.099  11.578
20854W        W86015  39.577  20.969   0.579
20855W        W86016  13.424  14.750  12.567
20856W        W86017  37.245  15.150   2.785
20857W        W86018  16.094  23.647  12.390
20858W        W86019  42.023  38.465  13.594
20859W        W86020   0.932  10.102   5.008
20860W        W86021  11.194  26.163  10.770
20861W        W86022  23.030  11.424  14.374
20862W        W86023  32.921  26.768  11.533
20863W        W86024  43.642   2.392   0.761
20864W        W86025  27.115  41.423  11.109
20865W        W86026   1.406  19.555  14.295
20866W        W86027  14.490  33.500   2.641
20867W        W86028   1.556  36.902  10.240
20868W        W86029   4.589  44.280   1.343
20869W        W86030  27.178  15.606  12.138
20870W        W86031  25.961  18.542  12.893
20871W        W86032   5.390  36.469  11.394
20872W        W86033  44.935  27.412  14.201
20873W        W86034   6.482  13.510   0.756
20874W        W86035   1.301   8.149   2.618
20875W        W86036  16.313   5.382   2.759
20876W        W86037  43.985  10.989  12.395
20877W        W86038  34.670  20.207   2.296
20878W        W86039  41.039   6.854   4.333
20879W        W86040  23.604  28.903   4.375
20880W        W86041  42.463  37.331  12.050
20881W        W86042  24.151  22.586  12.369
20882W        W86043   9.645  25.736   1.431
20883W        W86044  36.497  11.310  14.927
20884W        W86045  20.124  41.754   4.714
20885W        W86046  22.202  19.292   4.592
20886W        W86047   4.818   0.111  13.469
20887W        W86048  10.836   5.908   2.676
20888W        W86049  33.421  20.091   1.906
20889W        W86050  44.496   6.240  10.952
20890W        W86051   0.252   8.234  11.649
20891W        W86052  32.106  27.829  13.148
20892W        W86053   3.222   0.903  12.531
20893W        W86054  30.753  18.312  11.465
20894W        W86055   0.782  29.421   4.307
20895W        W86056  40.648  44.006   0.885
20896W        W86057  23.021   3.803  13.507
20897W        W86058  38.642  22.862   1.857
20898W        W86059   5.426  37.340  10.924
20899W        W86060  34.319  29.985  11.784
20900W        W86061  43.081  32.653  14.314
20901W        W86062  29.473  12.213   2.682
20902W        W86063  24.037  27.205   0.420
20903W        W86064  23.592  39.869  12.028
20904W        W86065  39.743   7.096   2.301
20905W        W86066  26.613   3.241   4.096
20906W        W86067  28.140   6.205   3.168
20907W        W86068  18.153  15.339   1.261
20908W        W86069  27.015   1.955   1.471
20909W        W86070  13.361  36.466  11.155
20910W        W86071  30.617  27.788   9.449
20911W        W86072  25.512  35.061   3.198
20912W        W86073  24.750  23.974   0.464
20913W        W86074  34.358  25.540   2.695
20914W        W86075  23.440  41.446  14.543
20915W        W86076   6.795   4.395  13.114
20916W        W86077  13.030   2.200  14.454
20917W        W86078   2.530   7.124  14.408
20918W        W86079  12.372  28.043  14.514
20919W        W86080  10.795   7.519   1.328
20920W        W86081  27.465  17.757  13.210
20921W        W86082  10.947  10.770   1.675
20922W        W86083   2.531   0.246   1.820
20923W        W86084  33.070  29.191  11.612
20924W        W86085  40.204  19.173   2.009
20925W        W86086  12.085  33.577  11.551
20926W        W86087  22.292  30.178  10.132
20927W        W86088  13.596   7.207  14.739
20928W        W86089  14.635  26.926   4.161
20929W        W86090  11.759   4.597   1.275
20930W        W86091   6.927  33.700  12.053
20931W        W86092  35.885  29.892   2.746
20932W        W86093  24.695  37.303   3.202
20933W        W86094  17.032  18.426  13.648
20934W        W86095  40.763  25.162  12.114
20935W        W86096   5.399  41.033   3.210
20936W        W86097   4.402  19.579   1.550
20937W        W86098  31.121  28.252   2.723
20938W        W86099  15.149  11.069  13.369
20939W        W86100  33.489   3.165   1.219
20940W        W86101  37.050  37.127   2.243
20941W        W86102  30.693   9.788   3.697
20942W        W86103  22.641  11.917  14.086
20943W        W86104  29.474   5.714   3.641
20944W        W86105  21.113  29.984   1.529
20945W        W86106  36.572  17.802   0.037
20946W        W86107  33.179  14.560   4.337
20947W        W86108  17.056  15.134   2.819
20948W        W86109  12.325  38.521   4.880
20949W        W86110  40.782  10.694   0.853
20950W        W86111  42.934   7.935  11.963
20951W        W86112  42.907   0.611   2.332
20952W        W86113   9.836  23.243   0.199
20953W        W86114  41.243  36.558  11.934
20954W        W86115  40.531  20.929  12.438
20955W        W86116   0.435  36.321   3.182
20956W        W86117  24.786  44.774   1.166
20957W        W86118   2.299  43.444  13.913
20958W        W86119  33.012   5.478  13.310
20959W        W86120   8.991   6.614  14.594
20960W        W86121  26.656  17.039  13.351
20961W        W86122  35.146   7.252   0.926
20962W        W86123  40.406  11.199  11.276
20963W        W86124  15.866  43.912  13.389
20964W        W86125  43.776   4.609  13.488
20965W        W86126  33.574  10.180  12.470
20966W        W86127  28.024  25.115   3.287
20967W        W86128  31.188  34.484   2.345
20968W        W86129  36.047  11.113  14.776
20969W        W86130  31.869   1.368  12.960
20970W        W86131  40.841  22.208  14.958
20971W        W86132  42.785  17.083  13.956
20972W        W86133   9.798   0.346  14.605
20973W        W86134  39.564  24.812  13.513
20974W        W86135  21.689  13.078   2.669
20975W        W86136   1.663   2.510   1.779
20976W        W86137  17.827  34.411  12.384
20977W        W86138  37.682  37.983  11.457
20978W        W86139  27.556   7.281   1.710
20979W        W86140   2.081   8.062   4.498
20980W        W86141   5.352  34.931   0.871
20981W        W86142  11.478  24.114  14.462
20982W        W86143  36.565  28.070  14.360
20983W        W86144   6.258  28.625   2.275
20984W        W86145  33.533  30.156   2.311
20985W        W86146  25.547  19.771   0.322
20986W        W86147  10.548   6.573   2.175
20987W        W86148  20.568   7.226   1.720
20988W        W86149  32.500  41.002   1.264
20989W        W86150  22.151  28.691  11.096
20990W        W86151  37.968  23.374  13.404
20991W        W86152  34.866  44.775  10.974
20992W        W86153   8.588  26.916  13.039
20993W        W86154  21.462  39.496  14.451
20994W        W86155   7.600  21.399   0.710
20995W        W86156  25.487  27.497   4.011
20996W        W86157  10.353  24.488  10.593
20997W        W86158  26.221  36.436   4.640
20998W        W86159   7.420  19.850  11.803
20999W        W86160   3.424  14.094  13.606
21000W        W86161  10.101  28.179  12.420
21001W        W86162  21.048  36.007   4.588
21002W        W86163  15.798  17.731   0.338
21003W        W86164  34.123  42.763   4.059
21004W        W86165  15.409   9.851  11.220
21005W        W86166  15.614  26.202  11.596
21006W        W86167   7.192   9.952  13.636
21007W        W86168   6.371  34.022  14.525
21008W        W86169  26.043  18.065  12.019
21009W        W86170  11.883  22.961  11.943
21010W        W86171   9.597  42.812  14.050
21011W        W86172  19.148  23.256   1.866
21012W        W86173  11.617  21.576   3.814
21013W        W86174   7.299  14.740  12.658
21014W        W86175  28.734   1.566  13.305
21015W        W86176  39.618  16.776  11.016
21016W        W86177   9.987   5.831   2.872
21017W        W86178  25.484  13.694  13.894
21018W        W86179  27.987  14.309   2.805
21019W        W86180  12.469  10.714   0.827
21020W        W86181  36.439   8.848   1.811
21021W        W86182  25.590   8.733   4.385
21022W        W86183  20.643   5.837   3.656
21023W        W86184  27.521   7.363  13.463
21024W        W86185  15.532  21.194   1.676
21025W        W86186  35.421  16.219   4.125
21026W        W86187  12.094  26.109   0.431
21027W        W86188   4.408  22.257  12.946
21028W        W86189  33.966  33.980  13.335
21029W        W86190  33.543   8.124  11.546
21030W        W86191  27.865  17.936   3.806
21031W        W86192   4.930   4.001  13.390
21032W        W86193   5.355  31.330   4.537
21033W        W86194  21.719  35.035  11.195
21034W        W86195  11.254  31.285   0.911
21035W        W86196   8.173  44.487   2.308
21036W        W86197  11.396  16.214  14.949
21037W        W86198  39.317  29.517  11.526
21038W        W86199  18.163   1.919   1.711
21039W        W86200  42.517  41.986   2.891
21040W        W86201   1.831  14.978   1.422
21041W        W86202  22.165  43.747   4.588
21042W        W86203  18.015  10.112   0.326
21043W        W86204  42.211  11.600   1.483
21044W        W86205  13.342   3.761  12.340
21045W        W86206  22.904  15.884  10.419
21046W        W86207  28.448   2.799  14.786
21047W        W86208  24.776  23.856   3.706
21048W        W86209  26.504  43.766  11.234
21049W        W86210  19.713  20.316   0.751
21050W        W86211  14.685  15.387   2.189
21051W        W86212  38.620  44.275   0.734
21052W        W86213  37.364  23.452   1.291
21053W        W86214   5.869  13.743   1.727
21054W        W86215  20.305   5.834   4.581
21055W        W86216  15.142   3.360   0.961
21056W        W86217   2.130  40.378  14.809
21057W        W86218  44.760   1.882   3.715
21058W        W86219  31.038  24.073  13.363
21059W        W86220   6.202   6.173   3.504
21060W        W86221  39.762  16.788   3.578
21061W        W86222  21.007  20.286  14.415
21062W        W86223   5.740   3.878   3.049
21063W        W86224  14.955  40.912  11.764
21064W        W86225   8.885   0.842   3.181
21065W        W86226   5.832  41.404   3.339
21066W        W86227  13.019   0.892   1.343
21067W        W86228  41.164  38.140   1.824
21068W        W86229   9.912  18.876   0.783
21069W        W86230  20.520  17.859  12.979
21070W        W86231   5.797  23.688  14.527
21071W        W86232  33.933  40.038  12.523
21072W        W86233  35.461  43.348   0.028
21073W        W86234  41.853  32.277   5.083
21074W        W86235  30.402  13.349   2.733
21075W        W86236  31.062  26.725   1.436
21076W        W86237  17.189  18.212   2.211
21077W        W86238   9.871   6.781  14.940
21078W        W86239   9.849   9.268   3.572
21079W        W86240  25.055   6.844  10.793
21080W        W86241   8.422  36.225   1.965
21081W        W86242  36.428  36.825   4.524
21082W        W86243   7.062  10.889   2.725
21083W        W86244  20.131  19.099  10.143
21084W        W86245   5.709  43.445  13.343
21085W        W86246  40.106  29.376  12.990
21086W        W86247   6.032  22.514  12.981
21087W        W86248  26.959  22.531  14.855
21088W        W86249   2.876  26.171  10.258
21089W        W86250  31.893   0.772  11.393
21090W        W86251  29.174   9.266   2.904
21091W        W86252  37.683  28.684   3.756
21092W        W86253  35.084  21.731   4.811
21093W        W86254  42.486  11.354   2.475
21094W        W86255   4.053   2.737   4.067
21095W        W86256   9.877  29.343   3.430
21096W        W86257  15.164  39.315  14.065
21097W        W86258  39.919  19.115   4.288
21098W        W86259  19.298  36.124  12.536
21099W        W86260  13.703  42.014   4.088
21100W        W86261  21.116  18.689   0.324
21101W        W86262  36.592  16.166   2.761
21102W        W86263  15.801  21.229  12.823
21103W        W86264  23.529  43.776   2.742
21104W        W86265   1.248  38.920  14.750
21105W        W86266  29.655  18.504   2.180
21106W        W86267  25.642  40.970   1.217
21107W        W86268  16.592  30.626  11.120
21108W        W86269   4.427  35.976   0.188
21109W        W86270  10.369   4.732  10.608
21110W        W86271   1.395  18.656  14.540
21111W        W86272  34.029  30.387   2.391
21112W        W86273   5.143  32.220   1.916
21113W        W86274  19.149  32.659  14.245
21114W        W86275  20.851   7.357   2.652
21115W        W86276  14.733  12.844  10.686
21116W        W86277   4.273  17.130  13.553
21117W        W86278  16.383  43.594  14.486
21118W        W86279  11.663  13.146   4.379
21119W        W86280  27.391  15.404   0.683
21120W        W86281   1.411  39.781   1.817
21121W        W86282  10.838   6.715  14.900
21122W        W86283  39.257  11.670   0.848
21123W        W86284  12.735  28.639   2.171
21124W        W86285  30.120  35.192  13.567
21125W        W86286  41.493  35.354  10.723
21126W        W86287  24.571  30.537   1.445
21127W        W86288  32.490  37.268   2.699
21128W        W86289   5.100  17.865  14.969
21129W        W86290  37.199   1.484   4.585
21130W        W86291   8.749  12.260  13.032
21131W        W86292   7.755   0.525   4.761
21132W        W86293  43.925  10.701  11.404
21133W        W86294   4.302  20.941   1.773
21134W        W86295  42.294   4.018   4.125
21135W        W86296  13.144  43.845  12.075
21136W        W86297  28.461  44.464   1.942
21137W        W86298  15.599  44.781   3.173
21138W        W86299  34.461  13.334  12.595
21139W        W86300  24.856  30.606   2.065
21140W        W86301  38.202  30.072  13.778
21141W        W86302  29.201  24.668   4.584
21142W        W86303  35.290  11.388  11.631
21143W        W86304  13.210   0.511  12.884
21144W        W86305  42.493  35.488  10.604
21145W        W86306  11.524  13.686   2.590
21146W        W86307   8.725  42.041   4.158
21147W        W86308  34.554  16.280   0.335
21148W        W86309   8.825  14.403   4.047
21149W        W86310   8.792  22.796   1.392
21150W        W86311  35.421   9.176   2.147
21151W        W86312   4.780  23.482   0.507
21152W        W86313  11.763  22.711  14.570
21153W        W86314  39.529  34.603  13.437
21154W        W86315   2.817  36.527   3.299
21155W        W86316  11.595   7.743  12.172
21156W        W86317  26.757  26.658   4.989
21157W        W86318  42.025  11.839   2.154
21158W        W86319  39.784  32.435  12.294
21159W        W86320  33.715  44.308  11.162
21160W        W86321  41.487  29.411   4.391
21161W        W86322   5.455  24.988   0.227
21162W        W86323  31.955  27.590  11.058
21163W        W86324   5.685  21.653   0.605
21164W        W86325   4.803  42.996  11.986
21165W        W86326   2.436  19.548   2.767
21166W        W86327  17.747  39.064  13.366
21167W        W86328  29.009   5.363  12.863
21168W        W86329  42.460  41.538  10.992
21169W        W86330   0.335  21.052   4.146
21170W        W86331  37.527  16.527   1.234
21171W        W86332   7.601  31.132   1.635
21172W        W86333   0.162  11.282  13.857
21173W        W86334  42.296  12.251  12.061
21174W        W86335  26.606  26.087  13.865
21175W        W86336  11.410   3.259  13.528
21176W        W86337   7.209  12.119   3.235
21177W        W86338  43.300  18.316  14.428
21178W        W86339  39.365  17.313   1.763
21179W        W86340  11.242  27.732   4.730
21180W        W86341  32.533   5.636   4.331
21181W        W86342  36.426  10.474   2.310
21182W        W86343  42.352  16.591  12.773
21183W        W86344  32.051  39.032   0.708
21184W        W86345  13.280  12.646  12.442
21185W        W86346  13.656  42.766  11.512
21186W        W86347  21.560   7.383  13.039
21187W        W86348  34.473  22.680  11.246
21188W        W86349  17.227  15.363  12.051
21189W        W86350  40.789  41.093  13.382
21190W        W86351  38.451  23.617   3.099
21191W        W86352  32.979  21.481   1.747
21192W        W86353  43.395   0.282  12.501
21193W        W86354  12.664  16.027  14.240
21194W        W86355  10.159  44.449  14.858
21195W        W86356  26.689   2.968  13.800
21196W        W86357   9.747  11.661   1.763
21197W        W86358  44.809  21.518  10.315
21198W        W86359  17.719  37.008   4.633
21199W        W86360  41.351   2.081  14.422
21200W        W86361   6.984  10.626   0.776
21201W        W86362  33.352  15.131   0.927
21202W        W86363  33.966   3.960   0.341
21203W        W86364   3.342  19.000  10.862
21204W        W86365  25.327  22.423   1.491
21205W        W86366  11.400  42.052   2.282
21206W        W86367   1.316  25.125   3.881
21207W        W86368  22.283  10.763  13.110
21208W        W86369  27.590  20.500  13.752
21209W        W86370  35.410  22.574  10.825
21210W        W86371  43.529  44.229   2.114
21211W        W86372  34.822  37.887   1.821
21212W        W86373  11.723   6.384  12.648
21213W        W86374  39.256  39.669   1.845
21214W        W86375   8.686   6.334  13.594
21215W        W86376   9.300  23.543  13.032
21216W        W86377  14.771  35.590   1.889
21217W        W86378  23.744   2.861   3.283
21218W        W86379  14.104  26.892  13.001
21219W        W86380  37.419  26.448   4.680
21220W        W86381  29.944  13.677  14.842
21221W        W86382  33.386  15.870   1.390
21222W        W86383  13.312  33.234  14.370
21223W        W86384   4.448   1.939  13.199
21224W        W86385  41.119  41.641  12.691
21225W        W86386   9.803   2.175  14.692
21226W        W86387  44.458  36.961   4.897
21227W        W86388  44.040   2.823  13.434
21228W        W86389  42.736   2.725  14.771
21229W        W86390  20.181  44.915   0.497
21230W        W86391  42.715  27.719  11.992
21231W        W86392   7.731  25.165   0.823
21232W        W86393   3.999  43.481  14.105
21233W        W86394  41.777  28.473   1.959
21234W        W86395  30.984  41.123  10.491
21235W        W86396  10.940  28.983  12.052
21236W        W86397  25.681  20.241   4.523
21237W        W86398   3.557  32.960   4.985
21238W        W86399  39.010   0.697   0.727
21239W        W86400  44.902  17.776  11.886
21240W        W86401  25.089  13.120   3.751
21241W        W86402  40.418  13.656  12.964
21242W        W86403  41.932  31.068  11.137
21243W        W86404  41.325   3.407  11.777
21244W        W86405   0.737  17.542   1.292
21245W        W86406   9.238   8.155  13.561
21246W        W86407  41.809  11.761   4.114
21247W        W86408  23.806  39.513  10.344
21248W        W86409  18.514  13.794   4.952
21249W        W86410  12.596  36.074  12.561
21250W        W86411   6.998  33.487  12.853
21251W        W86412   8.903  43.335   0.439
21252W        W86413   6.640   1.693  11.615
21253W        W86414   8.136  29.570  12.350
21254W        W86415  40.844  42.066   2.225
21255W        W86416  35.058  26.898   0.234
21256W        W86417  43.493  12.140  13.932
21257W        W86418  14.317  26.988   1.301
21258W        W86419  36.849  44.372  12.789
21259W        W86420  15.339   2.657   2.292
21260W        W86421  30.455  10.333  10.248
21261W        W86422  20.944   0.256   0.910
21262W        W86423  17.415  19.499   0.297
21263W        W86424  40.325   6.340   4.129
21264W        W86425  23.912  13.525   3.183
21265W        W86426  25.561  39.074  13.550
21266W        W86427   4.820  28.160  12.465
21267W        W86428   8.635  25.436   2.705
21268W        W86429  14.348  11.448   2.813
21269W        W86430  27.573   3.028   0.397
21270W        W86431  33.956  24.229   2.373
21271W        W86432   0.240  22.752  10.560
21272W        W86433   0.347   3.418  14.897
21273W        W86434  41.565   9.768   4.648
21274W        W86435   7.315  38.580  10.772
21275W        W86436  14.323  30.569   0.873
21276W        W86437   8.320  15.891  13.061
21277W        W86438  43.489  12.351   4.192
21278W        W86439  11.755  15.031   1.851
21279W        W86440  32.940   2.364   3.654
21280W        W86441  20.156  21.568   4.668
21281W        W86442  43.018  24.283  11.036
21282W        W86443  31.076   5.123   2.188
21283W        W86444   7.340  26.256   1.652
21284W        W86445   1.745  27.604   3.291
21285W        W86446  25.287  41.981   3.228
21286W        W86447   9.343  22.273  14.213
21287W        W86448  26.176  28.532   4.482
21288W        W86449   8.938  34.803  11.570
21289W        W86450  15.320  37.377  10.734
21290W        W86451  17.398  17.282  13.453
21291W        W86452  32.164  12.793   3.906
21292W        W86453  12.409  27.244  13.400
21293W        W86454  36.593   0.451  12.492
21294W        W86455  25.885  17.184   4.109
21295W        W86456   3.560  36.493   0.893
21296W        W86457  29.199   5.472  11.099
21297W        W86458  23.193  14.885  10.120
21298W        W86459  30.216  32.157  14.934
21299W        W86460  12.457   8.545   0.870
21300W        W86461  22.456  44.845  14.128
21301W        W86462  32.439   1.624   0.052
21302W        W86463  41.467  18.765   1.301
21303W        W86464   6.966   5.990  13.071
21304W        W86465  27.600   4.191   2.607
21305W        W86466  32.473   1.314  11.988
21306W        W86467  32.057  33.079  11.434
21307W        W86468   4.620  33.801   2.900
21308W        W86469  21.557   8.843  11.194
21309W        W86470  26.373  26.573  12.332
21310W        W86471  41.084  40.586  14.899
21311W        W86472  24.774  35.717   3.014
21312W        W86473   0.135  31.081   3.402
21313W        W86474  24.698   4.175  10.674
21314W        W86475  35.189  31.605  14.942
21315W        W86476  16.292   0.368  12.990
21316W        W86477  21.596  30.479   2.824
21317W        W86478  27.901   6.290  12.521
21318W        W86479   4.368  40.092  11.153
21319W        W86480   2.958  30.986  12.970
21320W        W86481  43.532   5.846  13.460
21321W        W86482   9.583  29.652   2.332
21322W        W86483   8.637  35.497  14.676
21323W        W86484  25.969   9.230   2.249
21324W        W86485  42.048  23.117  13.589
21325W        W86486  15.128  40.784  12.245
21326W        W86487   6.761   6.087  12.092
21327W        W86488  41.376  21.847  13.761
21328W        W86489  36.380  33.961  13.880
21329W        W86490  27.024   3.394   2.742
21330W        W86491  27.767  16.139  10.713
21331W        W86492  43.280  39.571  14.267
21332W        W86493  43.839  37.795   1.869
21333W        W86494  11.351  31.243   4.571
21334W        W86495  35.048  24.720   2.309
21335W        W86496  13.538   0.749  12.533
21336W        W86497  43.340  24.923   2.249
21337W        W86498  23.183  43.503  13.876
21338W        W86499  24.076  41.561  13.483
21339W        W86500  14.650  25.439   1.696
21340W        W86501  42.840  27.062  14.476
21341W        W86502  18.027  10.762  14.048
21342W        W86503  38.180  38.387  12.927
21343W        W86504  20.980   2.523  13.432
21344W        W86505  23.941  33.078  11.007
21345W        W86506  40.076   4.792  14.215
21346W        W86507   0.855   8.163   0.916
21347W        W86508   8.408   5.933  13.122
21348W        W86509  23.501   5.109  13.058
21349W        W86510  33.395  21.851   1.199
21350W        W86511  38.708  20.706   1.826
21351W        W86512  20.103  18.703   4.611
21352W        W86513  22.225  34.119  10.726
21353W        W86514  30.184  28.479  13.116
21354W        W86515  28.301   3.001   4.522
21355W        W86516   7.149   1.586   2.170
21356W        W86517  28.614  10.850   4.584
21357W        W86518   2.440  17.293  11.820
21358W        W86519  21.938  41.483  11.921
21359W        W86520  24.748  24.001  11.598
21360W        W86521  44.216  30.637   3.572
21361W        W86522   3.191   9.772  13.801
21362W        W86523  26.920  29.726   4.313
21363W        W86524  34.410   1.474  13.014
21364W        W86525  15.276  13.111  13.581
21365W        W86526  37.566  41.742  13.810
21366W        W86527  42.316  36.363   1.640
21367W        W86528   9.758  35.531   0.945
21368W        W86529  18.800  14.142   2.307
21369W        W86530  22.989  19.259   2.818
21370W        W86531   1.210  20.634   0.289
21371W        W86532   9.733   3.168  11.584
21372W        W86533  26.595  27.062  14.849
21373W        W86534  18.192  22.141   1.038
21374W        W86535  31.551  44.889  12.608
21375W        W86536  37.501   5.095   2.963
21376W        W86537  42.674  41.988  12.503
21377W        W86538  19.473  13.810  14.333
21378W        W86539  12.503  36.429  14.169
21379W        W86540  21.046  34.749  11.609
21380W        W86541   3.076  24.658   0.922
21381W        W86542  38.992  30.057  12.206
21382W        W86543  43.227  13.852   0.425
21383W        W86544  26.772  11.562   3.141
21384W        W86545   1.691  18.803  14.949
21385W        W86546  13.893  35.324   0.779
21386W        W86547  24.579   9.410   3.689
21387W        W86548  32.178  33.844   3.015
21388W        W86549  26.148  39.427  12.178
21389W        W86550  37.944  10.697   0.477
21390W        W86551  39.129  31.267   4.529
21391W        W86552  30.420  36.304   4.554
21392W        W86553  27.233  30.894  12.064
21393W        W86554  25.114  41.562  10.237
21394W        W86555  33.087  24.839  11.187
21395W        W86556  26.309  42.740   2.047
21396W        W86557  16.642   2.093   0.463
21397W        W86558  16.123  26.710  14.971
21398W        W86559  31.965  36.679  10.701
21399W        W86560  42.685  37.987   3.716
21400W        W86561  25.596  38.998  11.240
21401W        W86562   1.402  44.935   0.235
21402W        W86563   9.685  33.467  11.480
21403W        W86564   8.846  22.449   4.312
21404W        W86565  17.243  42.501   1.810
21405W        W86566  34.989  29.908   0.335
21406W        W86567  31.116  16.805   2.258
21407W        W86568  27.487  36.637  12.526
21408W        W86569   5.376   0.298  14.319
21409W        W86570  24.622  43.010  14.078
21410W        W86571  14.150  15.938   1.704
21411W        W86572  14.704  10.844  10.754
21412W        W86573  16.367  13.588   0.412
21413W        W86574  37.623   4.177   3.746
21414W        W86575  20.521  44.720  13.011
21415W        W86576  41.524   6.339   1.305
21416W        W86577  43.912   5.838   0.395
21417W        W86578  16.347   0.852   1.911
21418W        W86579  17.339  25.096  10.638
21419W        W86580  22.970  12.905   0.716
21420W        W86581   7.822   8.318  10.660
21421W        W86582  34.460   0.514   0.744
21422W        W86583   4.702   3.396  10.222
21423W        W86584  20.635  29.236   0.127
21424W        W86585  22.843   8.293  13.921
21425W        W86586   2.362  41.524   3.346
21426W        W86587  27.511  36.025  14.356
21427W        W86588  25.670  36.276  11.046
21428W        W86589   6.274  41.440   2.219
21429W        W86590  34.467  19.476   0.374
21430W        W86591  29.464  29.867   4.243
21431W        W86592   5.299  17.083   4.603
21432W        W86593  43.286  40.361  12.967
21433W        W86594   1.345  16.058   5.432
21434W        W86595  19.171   7.760   3.121
21435W        W86596  19.824  39.796  10.637
21436W        W86597  29.182  19.609   0.626
21437W        W86598  38.411   0.365   0.509
21438W        W86599  17.306   0.991  10.974
21439W        W86600   5.907   3.119  13.742
21440W        W86601  15.175  35.541  10.637
21441W        W86602  20.722  27.262   2.668
21442W        W86603  44.092  44.876   3.729
21443W        W86604  13.377  23.175   3.325
21444W        W86605  24.359  13.348   4.594
21445W        W86606   3.608  21.487  10.656
21446W        W86607  10.688   8.200  14.289
21447W        W86608  42.764  33.360   4.957
21448W        W86609  32.400  19.764   2.297
21449W        W86610   0.828  10.548  12.936
21450W        W86611   6.294  11.658   2.691
21451W        W86612  16.650  22.485  14.783
21452W        W86613  39.048  15.848  14.419
21453W        W86614  24.508   3.228   2.319
21454W        W86615   7.842   6.117   0.348
21455W        W86616  34.048  17.636   3.172
21456W        W86617  33.697  23.967   0.964
21457W        W86618  18.065   5.009   2.348
21458W        W86619   4.836  32.071  14.203
21459W        W86620  20.993  12.135   3.080
21460W        W86621  11.721   7.806   0.943
21461W        W86622  17.186  12.727   4.920
21462W        W86623  31.967   3.561   2.724
21463W        W86624  31.804  23.213   0.805
21464W        W86625  10.339   5.230   0.486
21465W        W86626  15.794   6.218   1.800
21466W        W86627  40.812  34.416   1.373
21467W        W86628   2.974  21.259   3.123
21468W        W86629  10.392  15.210   2.870
21469W        W86630  37.831  41.381  14.758
21470W        W86631   6.938  40.338   1.783
21471W        W86632  28.611   4.136   1.097
21472W        W86633   1.426  40.646   2.698
21473W        W86634   5.395  12.283   3.846
21474W        W86635  40.832  39.588   4.075
21475W        W86636  16.729  39.347   0.658
21476W        W86637  29.551   6.208  10.782
21477W        W86638  10.574   1.458  11.304
21478W        W86639  34.780   2.979   4.077
21479W        W86640  15.767  39.962  13.928
21480W        W86641  40.736  19.125   3.320
21481W        W86642  30.993  26.088   1.999
21482W        W86643  30.906  43.458  14.080
21483W        W86644  40.299  18.120  14.367
21484W        W86645  23.950   7.885   4.704
21485W        W86646  13.319   6.851  13.438
21486W        W86647  37.306  18.687  12.918
21487W        W86648  10.652  25.597   0.009
21488W        W86649  21.797  16.539   1.142
21489W        W86650  23.475  43.734   3.632
21490W        W86651  18.673  29.418  13.449
21491W        W86652  21.092  42.938   0.462
21492W        W86653  27.945  15.205   1.865
21493W        W86654  43.253   3.647   1.341
21494W        W86655  24.819  17.484  12.532
21495W        W86656  40.135   2.890  13.013
21496W        W86657  18.284  30.322  13.463
21497W        W86658  40.201  43.476   2.455
21498W        W86659   3.063  40.331  11.062
21499W        W86660  37.316  29.220  11.969
21500W        W86661   4.662  14.935   0.233
21501W        W86662  42.497  17.625   2.207
21502W        W86663  40.953  27.999   1.958
21503W        W86664  34.198  22.279   0.635
21504W        W86665  13.695  44.758   1.477
21505W        W86666   9.090  33.206   3.594
21506W        W86667  41.400  14.692  12.507
21507W        W86668  43.691  27.273  12.977
21508W        W86669  31.104  33.066   1.209
21509W        W86670  18.981  15.333   1.737
21510W        W86671  24.379  35.814   1.781
21511W        W86672  18.693  40.617   5.201
21512W        W86673   3.885  43.803   1.899
21513W        W86674  17.919  20.420   3.288
21514W        W86675  17.271  15.381   0.346
21515W        W86676   3.592  10.098   3.208
21516W        W86677  34.796  27.739  12.465
21517W        W86678  31.807  19.752  12.538
21518W        W86679  44.843   5.344   4.663
21519W        W86680   5.358  12.606  14.238
21520W        W86681  36.680  19.062   1.995
21521W        W86682  13.471  35.980  14.963
21522W        W86683  38.475  35.632   2.377
21523W        W86684  32.196  17.780  12.931
21524W        W86685   9.993  38.912  14.920
21525W        W86686  28.560  23.057   2.728
21526W        W86687   8.217   4.761   0.243
21527W        W86688  35.977  33.933   3.168
21528W        W86689   7.631  16.380   4.160
21529W        W86690  19.932   6.386   1.203
21530W        W86691  13.340  35.205  14.280
21531W        W86692  37.430  44.423  14.407
21532W        W86693  10.263  15.581  14.358
21533W        W86694  33.672  36.768  12.486
21534W        W86695  30.595  39.897   2.639
21535W        W86696  20.288  34.087   1.477
21536W        W86697  24.952  20.647  12.031
21537W        W86698   5.967  21.315  13.950
21538W        W86699  27.484  43.369  11.970
21539W        W86700  37.487  25.500   1.162
21540W        W86701  27.777   9.528  11.939
21541W        W86702  12.973  43.937  12.557
21542W        W86703  34.717  35.917   5.018
21543W        W86704   3.318  17.465  12.056
21544W        W86705  10.295  13.571  14.376
21545W        W86706  18.776  13.378   1.589
21546W        W86707  34.129  35.014  11.080
21547W        W86708  36.306  40.592  14.004
21548W        W86709  34.839  36.002   5.518
21549W        W86710   5.409  42.007   1.729
21550W        W86711  28.196  20.486   4.893
21551W        W86712  23.209  33.040   1.758
21552W        W86713  12.178  36.919   4.840
21553W        W86714  42.446   3.321  11.141
21554W        W86715  40.379  29.689  13.406
21555W        W86716   3.477  13.592   9.972
21556W        W86717   0.187  22.176   3.340
21557W        W86718  17.894  38.357  10.699
21558W        W86719  28.411   0.509   3.598
21559W        W86720  19.614   1.832   4.280
21560W        W86721  33.954  19.138  12.764
21561W        W86722   9.437  14.778   2.733
21562W        W86723  23.843  23.628   1.248
21563W        W86724  16.623   4.805  14.252
21564W        W86725  26.974  31.177   4.063
21565W        W86726  23.152  34.974  14.054
21566W        W86727  30.366  40.457  10.680
21567W        W86728  35.289  10.782   3.391
21568W        W86729  34.924   7.457  12.460
21569W        W86730  27.641  42.327   3.072
21570W        W86731  38.168  42.687  12.011
21571W        W86732  11.093   0.889  13.407
21572W        W86733  34.276  32.944   1.880
21573W        W86734   0.718  32.485   2.225
21574W        W86735  40.441  18.656  12.139
21575W        W86736  43.393   1.778   2.906
21576W        W86737  23.629  27.548   2.414
21577W        W86738  43.963  31.136  12.049
21578W        W86739  25.493  42.732   1.802
21579W        W86740  24.567  33.593   2.917
21580W        W86741  19.999  27.551   4.458
21581W        W86742   2.101   5.245  12.471
21582W        W86743  32.668  21.652  11.622
21583W        W86744  20.222  33.454   0.257
21584W        W86745  25.221  27.826  13.739
21585W        W86746  40.835  27.026   1.002
21586W        W86747  12.370  41.263  10.753
21587W        W86748   1.879  28.592  11.971
21588W        W86749  34.129  15.084  14.220
21589W        W86750   9.903   9.558   3.132
21590W        W86751  14.911  10.204   4.698
21591W        W86752  22.740   6.624  13.444
21592W        W86753  43.855  17.775   3.897
21593W        W86754  20.999  40.827  11.847
21594W        W86755  11.952  33.407  11.030
21595W        W86756  11.422  42.104   1.367
21596W        W86757  24.513   8.995   4.899
21597W        W86758  20.994   1.228   0.691
21598W        W86759  25.261  12.093  14.670
21599W        W86760  30.596  19.082   4.486
21600W        W86761  19.785  29.055   1.555
21601W        W86762  43.932  43.096  14.756
21602W        W86763  20.556  33.189   3.748
21603W        W86764  43.682  23.033   2.408
21604W        W86765  19.315  17.092   1.637
21605W        W86766  11.171   5.829   1.095
21606W        W86767  13.693  24.129  13.906
21607W        W86768  28.822  23.678   3.575
21608W        W86769  11.520  24.598   0.950
21609W        W86770  30.467  36.993  10.670
21610W        W86771  31.877   6.280   3.570
21611W        W86772  21.243   1.788  11.063
21612W        W86773  40.023  27.053   3.732
21613W        W86774  27.441  16.055  11.606
21614W        W86775  44.200  13.048  13.354
21615W        W86776   6.842  27.534  12.010
21616W        W86777  37.277  12.777   0.469
21617W        W86778  23.075  15.977  13.886
21618W        W86779  30.407  38.843  14.721
21619W        W86780  22.050  16.188   4.028
21620W        W86781  41.566  27.131   3.262
21621W        W86782   4.300  18.642   0.812
21622W        W86783  34.878  43.504  13.969
21623W        W86784  20.108  34.291  12.039
21624W        W86785  42.589  22.601   5.221
21625W        W86786  39.736  40.361  13.052
21626W        W86787   1.204   0.045   4.173
21627W        W86788   5.357  19.012  14.277
21628W        W86789   0.809  16.263   3.692
21629W        W86790  25.970  10.738   1.394
21630W        W86791  36.843  14.769   4.470
21631W        W86792  25.543  42.798   0.851
21632W        W86793   5.989  40.521   1.154
21633W        W86794   8.950  30.115   0.370
21634W        W86795  30.411  38.937   0.243
21635W        W86796   4.286   4.360  12.211
21636W        W86797   7.145  31.269  11.390
21637W        W86798  38.620  21.279   3.556
21638W        W86799  31.467  40.800   0.997
21639W        W86800  31.602  29.574   2.182
21640W        W86801  24.469  18.233  13.075
21641W        W86802  44.323  16.097  11.965
21642W        W86803   6.376   5.688   0.324
21643W        W86804  37.043  20.571  11.537
21644W        W86805   0.115  13.149  13.406
21645W        W86806  29.537  32.896  11.624
21646W        W86807  41.520  18.268  11.674
21647W        W86808  23.695  27.343  13.325
21648W        W86809  29.589  20.103  14.817
21649W        W86810  26.394  20.046  14.803
21650W        W86811  13.258  13.637  12.687
21651W        W86812  11.141   7.960  14.206
21652W        W86813  37.310  16.091  13.790
21653W        W86814  35.789  19.832   1.655
21654W        W86815  42.032  42.853   2.290
21655W        W86816  23.443  13.892   2.374
21656W        W86817   7.315   0.874  11.545
21657W        W86818  28.233   9.780  12.857
21658W        W86819  38.940  17.690   0.084
21659W        W86820   1.009  41.468   4.155
21660W        W86821  10.371   8.882   5.047
21661W        W86822  36.086  37.282  14.954
21662W        W86823   5.433   4.251   2.577
21663W        W86824   5.210  17.297   1.928
21664W        W86825   6.058  11.628   0.382
21665W        W86826  18.381  33.731  11.740
21666W        W86827  44.795  17.436   2.448
21667W        W86828   4.804   7.788   4.638
21668W        W86829  16.866  31.985  11.825
21669W        W86830  29.710   1.084   2.301
21670W        W86831  25.185  31.522   2.271
21671W        W86832  10.216  43.817   0.041
21672W        W86833  43.403  32.542   4.760
21673W        W86834  18.081  36.632   1.363
21674W        W86835  17.011  38.525   4.087
21675W        W86836   2.605  36.105  14.343
21676W        W86837  26.777  31.149  12.910
21677W        W86838  22.654  12.693   4.964
21678W        W86839  16.868   5.588  10.216
21679W        W86840  14.536  43.322   3.340
21680W        W86841   0.671  41.354   1.840
21681W        W86842   5.907  43.865  14.636
21682W        W86843  41.524  16.162  11.077
21683W        W86844  24.060  40.599   2.182
21684W        W86845  32.359   3.260   1.909
21685W        W86846   3.250   0.524  11.853
21686W        W86847  27.237  32.187  11.524
21687W        W86848  28.381  24.653  14.758
21688W        W86849  36.436   4.405   3.634
21689W        W86850   2.120  39.433  11.078
21690W        W86851  42.488  12.164   0.711
21691W        W86852   7.329   8.267   4.268
21692W        W86853  17.018  25.076  11.466
21693W        W86854   9.563  32.199  11.096
21694W        W86855  13.886  34.533   2.351
21695W        W86856  18.392  36.664  14.519
21696W        W86857   4.820  43.748  13.522
21697W        W86858  18.602  30.948  14.701
21698W        W86859  13.063  36.531  10.721
21699W        W86860  35.287  18.181  12.157
21700W        W86861  21.225  39.982  11.846
21701W        W86862   7.846  33.558  12.844
21702W        W86863  14.890  35.824   4.580
21703W        W86864  23.995  12.240   3.666
21704W        W86865  39.288  40.354  12.798
21705W        W86866   1.675  36.310  12.899
21706W        W86867   1.614  27.738   5.074
21707W        W86868  42.668  26.558   2.723
21708W        W86869  34.718  16.291  14.525
21709W        W86870  19.236   4.724  12.359
21710W        W86871  21.646   1.580  14.921
21711W        W86872   9.589  11.695  13.660
21712W        W86873   4.736  42.998   0.873
21713W        W86874  29.587  15.555   0.919
21714W        W86875  23.392  11.609   4.557
21715W        W86876  11.847  11.736  14.717
21716W        W86877  29.873  28.936   4.295
21717W        W86878  34.839  19.252  11.218
21718W        W86879  31.835  23.825  12.373
21719W        W86880   8.790  18.142   0.312
21720W        W86881  22.967  25.185   0.935
21721W        W86882  25.406  23.157  12.989
21722W        W86883  22.838  15.638   0.922
21723W        W86884  23.622  34.787  12.909
21724W        W86885  23.747   8.112   4.253
21725W        W86886   8.295  16.678   0.249
21726W        W86887   1.168   7.442  12.074
21727W        W86888  35.475  32.343  11.530
21728W        W86889  15.620  17.082  12.137
21729W        W86890  36.610  12.238  14.864
21730W        W86891   1.997  38.296  12.972
21731W        W86892  27.531  44.576  10.489
21732W        W86893  41.088  24.626  11.722
21733W        W86894  30.866  39.554  11.061
21734W        W86895  23.548  35.691  14.048
21735W        W86896  32.160  43.014   2.307
21736W        W86897  39.564  17.764  11.556
21737W        W86898  41.884  12.339  10.760
21738W        W86899  39.200  44.675   4.027
21739W        W86900   5.698   7.838   2.409
21740W        W86901  22.006  35.088   2.004
21741W        W86902  42.239  37.499  10.260
21742W        W86903  19.486  13.155  11.626
21743W        W86904  10.171  14.476  13.618
21744W        W86905  29.930  21.174   5.531
21745W        W86906  10.330  18.582   0.629
21746W        W86907  39.382  15.081  11.184
21747W        W86908  10.669   3.220  12.456
21748W        W86909  12.503  38.956  12.427
21749W        W86910   2.684  18.981  12.100
21750W        W86911   9.737  34.108   2.938
21751W        W86912  16.741  17.714  10.535
21752W        W86913  12.868  44.869  12.969
21753W        W86914  18.124  37.819   3.251
21754W        W86915  13.283  19.446   2.318
21755W        W86916  23.794  26.970  11.048
21756W        W86917  11.361  21.014  14.861
21757W        W86918  23.339  21.015  12.017
21758W        W86919   1.704  13.750   1.886
21759W        W86920  44.886  33.978   4.005
21760W        W86921  35.894  14.088  14.539
21761W        W86922  28.993  43.802  10.444
21762W        W86923  23.926  15.477  11.134
21763W        W86924   0.537  28.843   3.303
21764W        W86925   9.197  42.612  11.974
21765W        W86926   1.330  33.516  12.470
21766W        W86927  37.188   7.533   4.182
21767W        W86928   7.815   2.377  10.679
21768W        W86929  26.440  39.525   1.806
21769W        W86930   5.140   3.358   2.713
21770W        W86931  17.929  19.111  13.237
21771W        W86932   7.179  42.874   2.986
21772W        W86933   3.011  36.328   2.860
21773W        W86934   4.156  17.291   2.625
21774W        W86935  35.042  21.665   0.589
21775W        W86936  42.422  10.820   0.464
21776W        W86937  13.109  16.159  11.604
21777W        W86938  40.542  34.943   0.946
21778W        W86939  24.472   9.895  11.596
21779W        W86940  15.613  16.013   4.186
21780W        W86941  13.117  31.009   2.291
21781W        W86942  16.674  29.599   2.473
21782W        W86943  33.130  31.873   2.005
21783W        W86944  15.346  29.560  14.518
21784W        W86945  40.794  38.019  12.200
21785W        W86946   0.403   7.155   1.332
21786W        W86947  28.335  14.072   1.351
21787W        W86948  26.995   6.360   0.115
21788W        W86949   9.392   1.857  14.847
21789W        W86950  26.644   6.868  12.454
21790W        W86951  17.692  30.474  12.913
21791W        W86952  18.081  16.865   0.249
21792W        W86953   6.427  42.407  11.113
21793W        W86954  22.547   8.309   1.756
21794W        W86955  28.238  20.018   0.969
21795W        W86956   6.453  25.012   1.198
21796W        W86957  16.197  29.123   4.378
21797W        W86958   3.401  37.780   4.096
21798W        W86959  30.378  43.706  11.961
21799W        W86960  10.336  30.435   4.579
21800W        W86961  12.712  33.349   0.206
21801W        W86962  43.807   8.721   2.304
21802W        W86963  18.986  17.483  14.391
21803W        W86964   3.450  10.375   2.794
21804W        W86965  40.941  26.227  13.015
21805W        W86966  12.761   2.709  11.071
21806W        W86967  28.106  38.335  13.478
21807W        W86968  20.096   7.431  14.039
21808W        W86969  24.136  34.576  14.867
21809W        W86970  12.645  17.291   4.016
21810W        W86971  40.479  31.613   0.054
21811W        W86972  33.643   5.681  10.608
21812W        W86973  17.771  27.336   3.708
21813W        W86974  25.431  40.746  14.784
21814W        W86975  33.138  22.554   5.033
21815W        W86976   9.917  36.992  10.710
21816W        W86977   7.274  28.952   0.379
21817W        W86978  31.458  44.398  13.560
21818W        W86979  25.697   6.627  13.338
21819W        W86980  34.888  35.120   4.483
21820W        W86981   5.050  26.217   2.709
21821W        W86982  29.433  13.140  11.609
21822W        W86983  17.058  40.771  11.104
21823W        W86984  15.346  19.726   3.149
21824W        W86985   1.139  21.834   3.304
21825W        W86986  21.528  32.982   1.252
21826W        W86987  21.216  23.236   3.146
21827W        W86988  39.931  20.462  12.933
21828W        W86989  40.935  33.509   3.615
21829W        W86990  19.079  19.155   0.811
21830W        W86991  21.310  28.919   4.797
21831W        W86992  22.143  26.184   5.006
21832W        W86993  38.040  18.255   0.625
21833W        W86994  34.044  31.731   1.339
21834W        W86995   9.505  40.035  14.467
21835W        W86996  43.942  27.381   3.027
21836W        W86997   1.741  35.336   1.294
21837W        W86998  13.368  10.324   4.590
21838W        W86999  27.547  18.227  10.755
21839W        W87000  41.658  19.240  13.042
21840W        W87001  24.069   2.485  10.934
21841W        W87002  20.566  20.903  14.924
21842W        W87003  32.940   9.744   3.324
21843W        W87004   2.585  11.665   4.294
21844W        W87005  24.224  18.253   1.628
21845W        W87006  27.369  25.610  11.526
21846W        W87007  15.901  34.005  13.194
21847W        W87008  26.221  17.016  13.975
21848W        W87009  14.076   1.493  12.010
21849W        W87010  14.222  18.267  13.086
21850W        W87011   5.711  10.073   3.434
21851W        W87012   8.684   3.537   1.167
21852W        W87013   6.274  22.427  13.428
21853W        W87014  14.821  22.958   3.376
21854W        W87015  13.222  34.681   0.871
21855W        W87016  44.430   5.664   2.308
21856W        W87017   4.419  19.762   3.655
21857W        W87018  12.399   1.922   4.112
21858W        W87019  26.077   6.712  10.662
21859W        W87020  37.879  23.611  11.121
21860W        W87021  22.368  23.263  13.317
21861W        W87022  30.857  22.632  13.523
21862W        W87023  36.504  38.825   5.002
21863W        W87024  37.453   5.487   3.281
21864W        W87025  38.594  11.373   0.295
21865W        W87026  31.005   8.336  14.774
21866W        W87027   0.510   7.214   4.253
21867W        W87028  32.008  31.577   1.400
21868W        W87029  11.300  38.426  13.871
21869W        W87030  26.733  27.622   3.099
21870W        W87031   4.487   9.143  11.212
21871W        W87032  41.640   7.388   0.433
21872W        W87033  44.873   0.819   2.791
21873W        W87034  26.202  20.184  12.483
21874W        W87035  13.598   1.691   3.360
21875W        W87036  12.146   3.221  10.667
21876W        W87037  44.700  25.993   1.820
21877W        W87038  37.055  27.614   1.721
21878W        W87039  32.579  11.092   4.947
21879W        W87040  38.434  36.101   5.191
21880W        W87041  17.948   9.407   3.615
21881W        W87042  23.666  27.747  14.883
21882W        W87043  35.279  12.008   4.202
21883W        W87044  18.676  23.309   1.660
21884W        W87045   4.682  10.282  12.027
21885W        W87046  12.403  14.224   2.817
21886W        W87047  17.227  11.265  14.772
21887W        W87048  16.005  19.710   4.591
21888W        W87049  22.102   4.283   1.293
21889W        W87050   3.725   9.101  11.547
21890W        W87051  28.948  28.732  11.987
21891W        W87052  21.252  26.165  13.483
21892W        W87053  11.777   3.713  10.691
21893W        W87054  10.860  20.314  14.492
21894W        W87055  14.104   0.508  13.579
21895W        W87056  21.005  42.368   2.269
21896W        W87057  39.807  17.847   3.674
21897W        W87058  27.163  32.562  13.706
21898W        W87059  16.609  14.836  13.550
21899W        W87060  34.752  17.467  11.048
21900W        W87061  16.199  29.474  10.627
21901W        W87062  26.578   6.005   2.445
21902W        W87063  37.569  39.015  13.441
21903W        W87064  35.994  35.149   1.388
21904W        W87065  30.435   0.481   3.690
21905W        W87066  24.163  17.984   1.154
21906W        W87067  44.930  40.527  13.882
21907W        W87068  36.039  14.673   0.381
21908W        W87069  27.749  13.545   2.363
21909W        W87070  11.144   9.158  12.388
21910W        W87071   1.862  33.139   0.899
21911W        W87072  30.592  29.218  13.992
21912W        W87073  17.555   4.747  11.938
21913W        W87074  31.469   5.220  11.581
21914W        W87075  24.568  21.086  12.534
21915W        W87076  38.423  20.024   3.887
21916W        W87077  19.204  35.103   3.372
21917W        W87078   6.577  23.066   4.614
21918W        W87079  20.491  37.825   3.120
21919W        W87080  44.526  21.127  13.506
21920W        W87081  33.689  38.339  12.496
21921W        W87082  14.252  44.110  11.155
21922W        W87083  32.663  16.220   0.835
21923W        W87084  33.577  23.282  12.914
21924W        W87085  22.107   3.984   0.827
21925W        W87086  31.283  10.858  10.452
21926W        W87087   4.263   9.796   2.245
21927W        W87088  25.731  38.160   0.601
21928W        W87089  40.987  18.236   1.787
21929W        W87090  37.908   8.674  14.036
21930W        W87091  41.038  37.482   0.313
21931W        W87092  41.515  27.477   4.242
21932W        W87093  11.798   3.397  11.943
21933W        W87094  17.222   7.319  11.161
21934W        W87095   4.174  24.189   4.227
21935W        W87096  37.893   2.236  11.984
21936W        W87097  15.603   3.446   4.569
21937W        W87098  23.168  23.715   4.491
21938W        W87099  27.788  24.648   3.205
21939W        W87100  35.555  39.823   5.090
21940W        W87101  14.093  25.019  13.522
21941W        W87102   7.288   6.701   1.761
21942W        W87103  26.161   7.836   2.851
21943W        W87104  31.002  32.358  12.977
21944W        W87105  14.663  14.750   4.355
21945W        W87106  41.843  12.662   0.298
21946W        W87107  33.158  24.992   3.905
21947W        W87108  10.584   3.579  11.140
21948W        W87109  32.554   8.731   2.285
21949W        W87110  44.915  37.890   4.136
21950W        W87111  36.425   9.154   0.156
21951W        W87112  44.476   1.493   1.211
21952W        W87113  23.789  32.600  11.690
21953W        W87114  41.763  14.180   0.443
21954W        W87115  43.962  25.673  12.067
21955W        W87116  36.918  21.871  14.066
21956W        W87117  43.005  39.740  14.702
21957W        W87118  17.131   4.913  14.396
21958W        W87119   1.462  19.179  13.940
21959W        W87120  42.302  15.434  14.167
21960W        W87121   7.503   2.150  11.526
21961W        W87122  23.652  21.564  13.922
21962W        W87123  11.488  23.272   2.321
21963W        W87124  22.004  23.093  13.646
21964W        W87125   5.475  24.792   9.761
21965W        W87126  28.015  28.740   2.429
21966W        W87127  29.881   7.797  14.995
21967W        W87128  26.441  18.340  12.855
21968W        W87129  28.484  31.842   3.724
21969W        W87130  37.546  29.914  14.034
21970W        W87131   1.717   4.828  11.642
21971W        W87132  30.727  14.667   0.964
21972W        W87133  22.117  37.674   9.842
21973W        W87134  12.071  35.063   1.354
21974W        W87135  20.084  27.219   3.419
21975W        W87136  30.000  32.344  10.798
21976W        W87137   9.921  41.702  12.009
21977W        W87138  14.158  28.051  12.127
21978W        W87139   3.710   1.372   4.692
21979W        W87140   7.260   0.853   3.662
21980W        W87141  13.303  36.432   1.216
21981W        W87142  11.932  28.055  14.255
21982W        W87143  24.491  22.106  14.306
21983W        W87144   3.914  43.188   3.672
21984W        W87145   9.837  40.062   3.086
21985W        W87146  29.478  13.369  13.437
21986W        W87147  41.928   8.623   2.294
21987W        W87148  18.323  22.742  10.701
21988W        W87149  28.132  36.670   0.818
21989W        W87150   1.143  24.061   2.731
21990W        W87151   9.900  22.718  14.092
21991W        W87152  41.953  41.679   0.377
21992W        W87153  18.824  39.011  13.410
21993W        W87154  32.544  44.377   4.015
21994W        W87155  40.939  13.663  13.102
21995W        W87156  41.155  40.573  13.155
21996W        W87157  19.939  33.917  10.695
21997W        W87158  28.243  43.955  13.501
21998W        W87159  22.696  23.758  14.907
21999W        W87160  35.040  31.109  14.899
22000W        W87161   6.009  27.945  13.566
22001W        W87162  32.910  38.033   2.860
22002W        W87163  12.397  42.283  14.986
22003W        W87164  34.290   8.105   1.291
22004W        W87165  13.756   7.188  12.383
22005W        W87166   5.428   8.863   4.556
22006W        W87167  31.358  41.390  14.503
22007W        W87168  36.839  29.382   4.906
22008W        W87169  24.470  26.975   2.259
22009W        W87170  26.320  27.744  12.334
22010W        W87171  27.527  34.586  10.642
22011W        W87172   9.989  10.811   0.648
22012W        W87173  40.743   5.950   0.997
22013W        W87174  11.398  42.060   3.066
22014W        W87175  41.258  20.544  12.909
22015W        W87176  11.327  37.935   1.707
22016W        W87177  42.393  30.904   0.857
22017W        W87178  13.203   6.727  11.474
22018W        W87179  34.689  24.493  12.874
22019W        W87180  22.198  12.782  14.539
22020W        W87181  43.291  42.515  14.528
22021W        W87182  40.071  33.421  10.542
22022W        W87183   0.353  32.906  10.709
22023W        W87184  33.751  27.060  10.370
22024W        W87185  21.035   5.759   2.287
22025W        W87186   2.463  27.188   2.854
22026W        W87187  39.096  42.843   0.322
22027W        W87188  36.524  43.290   1.324
22028W        W87189   3.492  41.943  12.444
22029W        W87190  27.808  39.899   4.544
22030W        W87191  29.055  18.506   1.476
22031W        W87192  32.685  11.796  13.940
22032W        W87193  30.738  43.223  11.621
22033W        W87194  40.384  23.254   0.778
22034W        W87195   2.689  26.238   5.239
22035W        W87196  30.967  32.595  12.506
22036W        W87197  34.057  43.958  12.011
22037W        W87198   2.460  38.468  13.976
22038W        W87199  12.043  14.618   1.730
22039W        W87200  21.166   9.293   2.182
22040W        W87201  14.376  33.144  11.580
22041W        W87202   2.629  10.859  13.962
22042W        W87203   9.628  32.006  12.059
22043W        W87204  19.773  14.207   1.640
22044W        W87205  14.698  43.397   0.742
22045W        W87206  10.457  36.311  13.044
22046W        W87207   9.542  44.747  13.083
22047W        W87208   4.266   3.180  13.462
22048W        W87209  31.499  22.250   0.358
22049W        W87210   5.764   9.217  12.102
22050W        W87211  22.085  29.129  13.069
22051W        W87212  23.671   3.558  12.852
22052W        W87213  15.820  38.348  11.665
22053W        W87214  32.431  31.261   3.194
22054W        W87215   9.438  14.209   0.415
22055W        W87216  43.310  22.723  13.063
22056W        W87217  22.587  12.088  14.913
22057W        W87218  27.552   0.239   3.151
22058W        W87219  43.774  27.876   3.189
22059W        W87220   0.889  28.909   4.261
22060W        W87221  16.558  22.672  13.344
22061W        W87222  14.603  17.138  13.506
22062W        W87223  37.036  10.694  10.362
22063W        W87224  10.554  18.355   5.011
22064W        W87225  16.314  12.491  11.885
22065W        W87226  16.663   2.253  11.981
22066W        W87227  30.043  19.235  10.681
22067W        W87228   7.509  22.604  14.198
22068W        W87229  22.478  40.282   4.382
22069W        W87230  31.892  20.275  12.448
22070W        W87231   3.684   5.908  11.282
22071W        W87232  43.550   7.194  11.058
22072W        W87233  10.604   3.451   4.114
22073W        W87234  19.026  15.618   0.954
22074W        W87235  27.472  16.568  13.795
22075W        W87236   1.130  28.935   2.106
22076W        W87237  43.015   5.467  12.137
22077W        W87238   6.816   5.171   1.169
22078W        W87239  27.989  36.333   4.957
22079W        W87240  25.948  14.518  11.548
22080W        W87241  13.663  34.137   0.034
22081W        W87242  17.233  36.606   1.915
22082W        W87243  21.459  22.873  12.280
22083W        W87244   4.194  23.916  10.764
22084W        W87245  10.252  40.977   0.459
22085W        W87246   0.192  14.706   1.733
22086W        W87247   9.886  36.120   1.233
22087W        W87248  25.009  40.021  14.926
22088W        W87249  10.319   8.431   0.034
22089W        W87250  14.372  20.298   4.117
22090W        W87251  31.450   2.770  14.918
22091W        W87252  23.969  29.963  13.871
22092W        W87253  34.981  17.771   3.670
22093W        W87254  18.767  23.055  10.986
22094W        W87255  32.509   4.468   1.371
22095W        W87256  20.828  28.200   0.830
22096W        W87257   3.213   3.504  12.465
22097W        W87258  24.248  24.372  12.340
22098W        W87259  40.442  34.994   4.439
22099W        W87260  24.410  37.079   2.831
22100W        W87261  27.601  25.680   0.258
22101W        W87262  14.092   6.809  14.654
22102W        W87263  20.228   5.691  11.112
22103W        W87264  16.155  24.782   0.777
22104W        W87265  11.176  20.878  13.832
22105W        W87266  21.072  22.716  13.878
22106W        W87267  28.708   3.764   1.673
22107W        W87268  25.611  30.785   1.375
22108W        W87269  33.062  20.139   3.314
22109W        W87270   4.225  39.733  12.075
22110W        W87271  27.976  22.623   4.216
22111W        W87272  21.336  44.783   2.155
22112W        W87273  39.143   8.826  12.448
22113W        W87274  24.718  15.601  12.376
22114W        W87275   7.967  15.473  13.501
22115W        W87276  28.211  35.180   0.772
22116W        W87277   9.335   0.243   3.597
22117W        W87278  16.538  25.876   3.731
22118W        W87279  24.614  37.346  12.489
22119W        W87280  12.899   6.196  10.871
22120W        W87281  36.333  24.821   2.576
22121W        W87282  11.639  38.958  12.048
22122W        W87283  25.333   4.285  12.035
22123W        W87284  27.268  39.922   3.268
22124W        W87285  35.005  17.689   2.606
22125W        W87286  40.839  17.215  14.024
22126W        W87287  15.759  36.827   3.337
22127W        W87288   5.787   8.196  12.767
22128W        W87289  32.476  37.619   4.219
22129W        W87290  20.856  43.717  10.235
22130W        W87291  44.668  31.619   1.780
22131W        W87292  10.783  44.246  13.962
22132W        W87293  18.646  10.190  13.801
22133W        W87294  30.649  28.461   0.882
22134W        W87295  15.856  38.842  12.374
22135W        W87296  32.987  35.142   3.947
22136W        W87297   2.166  23.417  12.574
22137W        W87298  27.353  34.093  12.527
22138W        W87299  19.615  24.537   4.733
22139W        W87300  36.628  14.713  14.486
22140W        W87301   4.260  30.956  13.419
22141W        W87302  34.596  12.325   0.467
22142W        W87303  39.896  44.269  11.017
22143W        W87304  27.032  44.876   0.449
22144W        W87305  11.828  11.560   4.607
22145W        W87306  17.205  27.612   2.446
22146W        W87307   3.839  13.745  12.520
22147W        W87308  29.608  29.682   0.533
22148W        W87309  40.194  11.304   2.661
22149W        W87310   9.028  43.218  13.285
22150W        W87311  13.726   5.710   2.757
22151W        W87312  22.360   6.569  10.821
22152W        W87313  30.861  22.754   0.774
22153W        W87314  23.632   4.437   2.282
22154W        W87315  21.979  23.995   2.935
22155W        W87316  29.954  12.200  14.893
22156W        W87317   1.941  30.666   1.840
22157W        W87318  20.586   8.129  11.403
22158W        W87319  17.112  42.949   1.609
22159W        W87320  15.372  24.151   3.591
22160W        W87321  27.860  16.212   2.625
22161W        W87322   1.319  18.286   1.662
22162W        W87323  27.415   6.141  13.849
22163W        W87324  21.498  39.954   4.691
22164W        W87325  18.552  28.560   1.697
22165W        W87326  24.255  34.487   4.577
22166W        W87327  22.644  25.872   1.860
22167W        W87328  27.399  15.752   1.428
22168W        W87329  34.149  26.038   3.570
22169W        W87330   2.298   3.648  10.687
22170W        W87331  42.742  34.042   0.564
22171W        W87332  28.068  35.325  13.384
22172W        W87333  18.625  41.030   2.617
22173W        W87334  40.057  42.720  11.061
22174W        W87335  34.922  25.736  13.120
22175W        W87336  14.807  31.622   1.701
22176W        W87337  31.505  31.639   3.737
22177W        W87338  25.519  44.335  14.063
22178W        W87339   9.271  18.300  12.917
22179W        W87340  43.832   8.675   2.833
22180W        W87341  13.048  32.619  14.909
22181W        W87342  34.037  24.293  13.388
22182W        W87343   4.138  29.963  11.924
22183W        W87344  15.631  16.052   0.726
22184W        W87345   0.547  13.834   3.247
22185W        W87346  32.921   3.061   0.383
22186W        W87347  20.796   4.700  14.952
22187W        W87348  43.543  42.412  11.195
22188W        W87349  13.888  13.286   0.789
22189W        W87350  40.356  30.367  14.525
22190W        W87351   0.245  18.022   1.819
22191W        W87352   8.642  38.433   2.142
22192W        W87353  20.669   3.497  12.217
22193W        W87354  11.332   6.207   2.400
22194W        W87355   9.321  27.123   3.062
22195W        W87356  19.173  28.016  11.601
22196W        W87357  23.258  44.774   2.909
22197W        W87358  43.407  32.508  11.814
22198W        W87359  19.268   5.163   0.462
22199W        W87360  43.796  27.064  12.353
22200W        W87361  40.791  10.426  13.398
22201W        W87362  25.521  10.563  10.379
22202W        W87363  14.739  11.916   0.235
22203W        W87364  43.533   8.819   1.156
22204W        W87365  18.545  32.670   4.171
22205W        W87366  32.739  39.989  13.149
22206W        W87367  13.536   3.212   4.024
22207W        W87368  41.281  32.898  12.330
22208W        W87369  16.790  38.735  11.954
22209W        W87370   5.010  12.297   2.928
22210W        W87371  11.715  35.102  14.255
22211W        W87372  44.630  38.136  12.539
22212W        W87373   8.086  28.055   1.467
22213W        W87374  27.121  13.322   4.038
22214W        W87375  21.262  43.287  14.741
22215W        W87376  17.615  10.750  10.511
22216W        W87377  18.878  15.319  12.427
22217W        W87378  30.566  19.552  11.211
22218W        W87379  26.238  26.658   1.317
22219W        W87380  30.875  38.758   3.612
22220W        W87381  28.388  44.749   1.234
22221W        W87382   9.368  43.539   2.427
22222W        W87383  32.638  20.237   2.217
22223W        W87384  36.813   9.236  13.302
22224W        W87385   9.930  43.292  14.362
22225W        W87386  21.135  28.039  13.893
22226W        W87387  24.579  10.654   3.147
22227W        W87388  22.798  20.489   9.908
22228W        W87389  20.232  12.167  11.003
22229W        W87390  26.486  19.714   2.712
22230W        W87391  35.609  44.892   3.681
22231W        W87392  17.662  10.529   3.342
22232W        W87393  16.637  26.220  14.035
22233W        W87394  41.553  15.810  14.794
22234W        W87395  36.818  25.940  12.123
22235W        W87396   6.218  28.527  14.039
22236W        W87397  42.960  21.679  10.945
22237W        W87398  23.985  21.754   2.825
22238W        W87399  10.193   8.646   4.631
22239W        W87400   1.769   7.736   0.423
22240W        W87401   4.839  43.707  14.485
22241W        W87402  18.060  21.212   4.329
22242W        W87403  21.142  34.113   0.034
22243W        W87404   7.733  31.083  12.823
22244W        W87405  43.995   5.651  10.682
22245W        W87406  36.053  12.472  12.228
22246W        W87407  12.904   3.282   1.822
22247W        W87408  29.122   1.712  10.646
22248W        W87409   2.806  20.662   3.968
22249W        W87410  28.923  13.471  14.032
22250W        W87411  16.839   5.248  12.323
22251W        W87412  32.751  43.960   3.799
22252W        W87413  31.528  32.172   3.741
22253W        W87414  13.382  17.851  14.759
22254W        W87415  17.270   9.826   3.908
22255W        W87416  15.385   9.021  12.489
22256W        W87417  24.053  37.786   1.448
22257W        W87418  24.755   6.121  12.460
22258W        W87419   7.695  31.760  14.545
22259W        W87420  43.450  29.180   3.860
22260W        W87421  31.827   0.347   1.277
22261W        W87422  27.380  21.197   4.084
22262W        W87423  21.258  41.423  14.375
22263W        W87424  19.328   8.913   3.605
22264W        W87425  28.874  17.493   0.374
22265W        W87426   7.368  14.254   2.345
22266W        W87427  18.747   2.437  10.501
22267W        W87428  35.842  44.241  12.484
22268W        W87429  34.969  19.356  12.069
22269W        W87430   5.911  42.779  12.178
22270W        W87431  25.056  39.059  14.855
22271W        W87432   0.297  43.578   0.125
22272W        W87433  33.895   3.971  14.395
22273W        W87434  24.213  27.882  13.941
22274W        W87435  20.716   1.579   1.898
22275W        W87436  14.887  24.716  13.845
22276W        W87437  18.559  19.101   0.803
22277W        W87438   9.094  44.795  13.345
22278W        W87439  23.168  24.834  12.822
22279W        W87440   2.959  20.686  10.702
22280W        W87441  33.595  27.599  12.988
22281W        W87442  27.623  23.640   2.414
22282W        W87443   8.577  38.459   4.703
22283W        W87444  21.030  32.328   2.268
22284W        W87445  44.709  31.562   3.823
22285W        W87446  26.422   9.250   0.781
22286W        W87447  26.475  38.748  13.978
22287W        W87448   3.766  44.323   2.764
22288W        W87449  22.213  21.319   2.695
22289W        W87450  26.638  18.570  13.937
22290W        W87451  13.164  26.311   9.842
22291W        W87452  17.607  18.655  14.286
22292W        W87453  37.962  19.707   3.274
22293W        W87454  18.681   9.136   4.288
22294W        W87455  18.614  41.672  12.136
22295W        W87456   8.113  33.980  10.746
22296W        W87457   3.735   1.672  14.780
22297W        W87458   7.491  16.627   3.717
22298W        W87459  35.763  18.039  12.967
22299W        W87460  13.278  37.796  11.058
22300W        W87461  27.741  11.421   2.391
22301W        W87462  15.883  38.381  12.650
22302W        W87463  22.327   5.066  11.902
22303W        W87464  15.260   4.256   0.450
22304W        W87465  22.526   5.138   3.261
22305W        W87466  11.301  11.625  11.595
22306W        W87467  20.571   5.451  14.027
22307W        W87468  19.634  40.830  14.780
22308W        W87469  24.640  21.033   1.310
22309W        W87470  25.666  11.438   0.829
22310W        W87471  17.609  26.213   1.593
22311W        W87472  35.742   0.045  11.471
22312W        W87473  30.012  37.613  14.480
22313W        W87474  20.752  42.286   4.565
22314W        W87475  40.842  19.294  14.921
22315W        W87476  10.916   9.223   2.395
22316W        W87477  41.354  36.644   1.966
22317W        W87478  41.388  40.125  11.162
22318W        W87479  35.909  18.234  10.494
22319W        W87480  25.170  10.652  12.427
22320W        W87481  41.934   1.974  13.140
22321W        W87482  41.627  21.137  11.618
22322W        W87483  34.971  24.949   9.832
22323W        W87484  10.031  10.710  10.755
22324W        W87485  28.252  25.207   2.030
22325W        W87486  42.031  27.518  12.505
22326W        W87487  41.846  25.051   2.312
22327W        W87488  13.026  34.866   1.477
22328W        W87489  33.565  15.450  11.505
22329W        W87490  42.969   4.145  13.509
22330W        W87491  29.788   5.192   2.627
22331W        W87492  31.835   2.327   2.206
22332W        W87493  28.698  42.935   1.795
22333W        W87494  31.437  28.105   1.268
22334W        W87495  30.537  27.523   1.857
22335W        W87496  31.691  27.080  11.671
22336W        W87497  39.216  23.768  11.958
22337W        W87498  22.509  44.701  11.252
22338W        W87499  30.103  26.117   0.826
22339W        W87500  40.562  15.972   1.192
22340W        W87501  29.876  23.547  14.795
22341W        W87502  34.024  13.312  11.080
22342W        W87503  37.062   1.266  11.150
22343W        W87504   1.766  40.277  14.445
22344W        W87505  24.597  24.245  13.026
22345W        W87506  11.631   5.399   4.927
22346W        W87507   4.591   9.669  11.632
22347W        W87508  29.802  29.146  10.996
22348W        W87509   4.780  17.709   5.026
22349W        W87510  35.356   7.919   1.764
22350W        W87511  16.505  41.630  13.699
22351W        W87512   7.306  41.081   1.893
22352W        W87513  33.420   5.228  10.681
22353W        W87514  37.790   9.411  13.511
22354W        W87515  37.796  14.639   0.772
22355W        W87516   0.637  28.894  13.750
22356W        W87517  33.618  28.440   2.830
22357W        W87518  15.596  26.607  10.606
22358W        W87519  22.599  27.001   4.629
22359W        W87520  43.815  25.495  12.530
22360W        W87521  35.484  39.128  13.644
22361W        W87522   8.290  14.360  10.539
22362W        W87523  39.662  37.313  12.881
22363W        W87524   5.760  29.171  11.577
22364W        W87525   3.330  18.573  14.066
22365W        W87526  37.066   3.967  10.630
22366W        W87527  34.442  29.390  14.576
22367W        W87528   6.025   5.218   1.799
22368W        W87529  42.399  19.260  10.447
22369W        W87530  14.749  20.297  11.194
22370W        W87531  21.984   6.702   3.402
22371W        W87532  18.624   1.322  11.926
22372W        W87533  31.475   5.895  12.194
22373W        W87534  22.704   8.414  10.092
22374W        W87535  40.491   4.375   1.282
22375W        W87536  26.940  24.921   2.371
22376W        W87537  30.650   3.287   0.946
22377W        W87538  28.643  14.150   4.166
22378W        W87539  29.887  36.925   3.099
22379W        W87540  36.005  16.108  13.127
22380W        W87541  42.339  25.736  14.722
22381W        W87542  14.310  39.827   4.570
22382W        W87543  42.309  35.549   0.793
22383W        W87544  37.166   0.862   1.281
22384W        W87545  30.017  27.796  13.603
22385W        W87546  20.071  19.478  14.925
22386W        W87547  43.095  31.931  12.526
22387W        W87548  36.924   7.241  14.133
22388W        W87549   7.854  18.173   0.489
22389W        W87550  25.948  34.968  12.901
22390W        W87551  19.648  15.362  13.067
22391W        W87552  16.727  39.057   1.132
22392W        W87553  16.738   4.912  14.745
22393W        W87554  43.761  15.219  14.020
22394W        W87555   7.528  30.444  13.354
22395W        W87556  29.954  11.405   3.210
22396W        W87557   7.629  19.746   4.785
22397W        W87558  42.849  32.199   0.750
22398W        W87559  25.228  25.488   4.555
22399W        W87560  16.089  12.453   1.372
22400W        W87561  14.239   6.711  10.756
22401W        W87562  22.574  14.364  10.146
22402W        W87563   8.689  32.390  11.243
22403W        W87564  15.803  14.747  11.325
22404W        W87565  20.494  13.197  14.014
22405W        W87566  32.452   7.014   2.668
22406W        W87567  28.252  12.426   4.887
22407W        W87568  16.169  29.106   3.876
22408W        W87569  41.444   7.359   1.291
22409W        W87570  24.240  38.347  14.508
22410W        W87571   5.669   3.420  14.621
22411W        W87572  42.919  43.504   3.838
22412W        W87573   0.632  33.707  10.477
22413W        W87574  35.944  27.733   3.273
22414W        W87575   0.410  11.836  12.603
22415W        W87576   3.737  23.771  13.811
22416W        W87577   7.904   4.488  14.883
22417W        W87578  25.529  42.452   3.129
22418W        W87579   8.210  15.089   4.186
22419W        W87580  12.574  13.869  13.410
22420W        W87581  37.083  23.461   0.847
22421W        W87582  26.967  34.346  12.331
22422W        W87583  16.613  17.582   9.678
22423W        W87584  32.994  41.218   4.410
22424W        W87585  37.774  11.410  14.395
22425W        W87586  36.935  25.466   2.810
22426W        W87587  33.489  29.674   3.784
22427W        W87588  22.169   6.034   1.979
22428W        W87589   3.982  16.193   4.117
22429W        W87590  15.543   7.618   0.384
22430W        W87591  29.019   4.322   4.807
22431W        W87592   8.721   3.287  13.161
22432W        W87593  26.532  43.830  11.725
22433W        W87594  21.988  41.710  11.041
22434W        W87595   8.441  27.308   4.537
22435W        W87596  29.946  23.365   3.442
22436W        W87597   8.837  37.243   0.295
22437W        W87598  37.919  15.975   1.873
22438W        W87599   8.936   4.153  12.969
22439W        W87600  35.047  11.213   3.211
22440W        W87601   1.390  10.886  14.334
22441W        W87602  30.211  40.921   4.503
22442W        W87603   2.095  33.663   2.388
22443W        W87604  11.605   3.435  12.889
22444W        W87605  28.233  27.476   3.369
22445W        W87606  19.975   8.284   2.366
22446W        W87607  29.047  30.377  14.431
22447W        W87608   4.199  24.273  12.069
22448W        W87609  35.486  16.268  12.536
22449W        W87610  42.589  29.014  11.709
22450W        W87611  36.453  20.505  11.922
22451W        W87612  29.086  42.485  13.306
22452W        W87613   9.727   4.754  14.824
22453W        W87614  36.320  31.984   1.868
22454W        W87615  20.592  23.126  14.367
22455W        W87616  31.936   6.427  11.896
22456W        W87617  11.216  32.585   0.479
22457W        W87618  29.087  11.670  13.552
22458W        W87619  28.688  37.346  14.320
22459W        W87620  17.661  21.454   2.217
22460W        W87621  19.213  35.979   1.205
22461W        W87622  42.232  26.248  14.792
22462W        W87623  36.976   0.941  12.466
22463W        W87624  15.953  26.907   4.244
22464W        W87625   0.810  42.396  11.966
22465W        W87626  21.220  26.578  10.628
22466W        W87627  11.765  43.572   1.354
22467W        W87628  12.332  17.104  12.390
22468W        W87629  16.038   3.193  12.581
22469W        W87630  13.043  40.599  14.777
22470W        W87631  31.365   4.919   4.155
22471W        W87632   1.247   6.143   4.158
22472W        W87633  13.567  35.532  13.486
22473W        W87634  30.964  20.921   2.625
22474W        W87635  23.413  32.922  12.919
22475W        W87636   6.805  19.137   4.082
22476W        W87637  18.417  23.787   3.647
22477W        W87638  27.623  25.847  12.744
22478W        W87639  36.428  32.390  11.598
22479W        W87640  37.233  25.139  10.751
22480W        W87641   0.923  21.990   1.703
22481W        W87642  15.223  32.345   0.190
22482W        W87643   7.840   9.274  14.422
22483W        W87644  12.859  10.391   0.518
22484W        W87645  26.388   3.709   4.963
22485W        W87646  23.553  23.934   0.856
22486W        W87647  13.640   8.610  12.807
22487W        W87648  31.640   5.797  14.009
22488W        W87649   5.679  43.199   0.413
22489W        W87650   5.375  11.313   2.940
22490W        W87651  43.559  30.736  11.135
22491W        W87652   5.190  36.069  14.052
22492W        W87653  29.439  41.502   4.079
22493W        W87654   3.142  35.154   4.490
22494W        W87655  32.121  15.165   1.753
22495W        W87656   6.384  17.027   5.056
22496W        W87657  22.094   7.600  12.372
22497W        W87658  36.476  18.021  10.627
22498W        W87659   5.774   0.038  14.527
22499W        W87660   2.407  35.429  11.494
22500W        W87661   0.760  23.442   1.850
22501W        W87662  44.138  22.482  10.276
22502W        W87663  22.600  35.051  12.240
22503W        W87664  23.013   6.861   3.231
22504W        W87665   3.930  29.659   4.695
22505W        W87666  29.137  38.396   0.219
22506W        W87667   9.202  37.997   3.694
22507W        W87668  21.494  40.982  12.039
22508W        W87669  40.189  39.487   0.014
22509W        W87670  13.158  40.519  11.171
22510W        W87671  11.296  25.615   2.819
22511W        W87672  12.140   2.392  11.700
22512W        W87673   2.382   3.162   1.780
22513W        W87674   8.693  21.037  14.925
22514W        W87675  24.002  22.416  12.848
22515W        W87676  37.104  31.800   2.594
22516W        W87677  26.241   5.829  11.884
22517W        W87678   8.352  31.675   1.142
22518W        W87679  16.543  30.996  10.775
22519W        W87680  22.124  24.609  10.755
22520W        W87681   3.779  40.122  10.475
22521W        W87682  16.367  13.584   3.200
22522W        W87683  17.376   8.127  13.480
22523W        W87684   4.800  29.723  10.185
22524W        W87685  37.904  18.792   4.545
22525W        W87686  31.396  21.947   2.294
22526W        W87687  43.221  14.746   4.968
22527W        W87688  13.098   6.925  11.022
22528W        W87689  14.871  27.679   4.577
22529W        W87690   5.288   8.648   2.653
22530W        W87691  44.751   7.615  12.111
22531W        W87692  15.159  24.713   0.759
22532W        W87693   8.462  29.887  13.683
22533W        W87694   9.848  38.903   4.473
22534W        W87695  26.661   7.835   0.892
22535W        W87696   8.238  42.494  14.350
22536W        W87697  16.132   7.364   4.036
22537W        W87698  33.998   5.931   4.088
22538W        W87699  18.619  31.102  11.089
22539W        W87700  44.574  19.376   2.793
22540W        W87701  27.063   7.696  12.442
22541W        W87702  36.854   7.698   1.737
22542W        W87703  30.034  33.686   4.140
22543W        W87704  39.412  19.126  14.018
22544W        W87705  35.230   9.842  11.162
22545W        W87706   3.878  11.116  14.935
22546W        W87707  42.966  30.927  13.598
22547W        W87708  22.556  20.329  12.100
22548W        W87709  18.738  27.699   1.249
22549W        W87710  41.592  43.438   3.657
22550W        W87711  18.688  32.334   3.330
22551W        W87712   1.754  27.650  14.476
22552W        W87713  43.177  40.769   2.162
22553W        W87714  32.086  10.135  11.192
22554W        W87715  24.517  36.501  13.551
22555W        W87716   3.867  24.043  14.935
22556W        W87717  10.952  35.502   0.224
22557W        W87718   8.850   2.811  13.350
22558W        W87719  38.814  26.040   1.408
22559W        W87720  24.522  19.826  12.053
22560W        W87721  38.033  20.969   0.151
22561W        W87722  11.734  35.562  11.888
22562W        W87723  19.545  31.572  11.107
22563W        W87724  31.008   2.419   4.927
22564W        W87725  17.832  18.457  12.846
22565W        W87726  15.506   1.312   3.285
22566W        W87727  16.316  32.500  11.177
22567W        W87728  11.824  11.769  11.688
22568W        W87729  36.497  11.247   3.204
22569W        W87730  14.471   9.212  12.015
22570W        W87731  24.164  37.003   2.003
22571W        W87732   1.770   1.659  12.531
22572W        W87733  26.508   6.412   0.311
22573W        W87734  24.341  31.354   0.280
22574W        W87735   5.946  39.957  11.135
22575W        W87736  11.755  26.175   2.342
22576W        W87737  32.945  20.825   2.684
22577W        W87738  36.642  35.600  14.745
22578W        W87739  14.865  15.154  11.535
22579W        W87740   1.132  24.656  14.321
22580W        W87741  15.129  27.591  14.236
22581W        W87742  26.929  29.416   3.376
22582W        W87743  39.636  14.170  10.438
22583W        W87744  10.786  32.702  13.836
22584W        W87745  42.260  22.940   1.224
22585W        W87746   8.743   9.014   0.749
22586W        W87747  30.972  43.989  14.134
22587W        W87748  31.047  24.271   4.143
22588W        W87749  20.160  10.867  11.443
22589W        W87750  44.098  39.843   1.896
22590W        W87751  11.615  18.504   3.760
22591W        W87752  34.001  20.448   1.226
22592W        W87753   1.433  18.218   4.106
22593W        W87754  29.578  16.114   1.956
22594W        W87755   7.296  20.172   3.721
22595W        W87756  31.153   1.790   2.229
22596W        W87757  25.471  37.943   1.447
22597W        W87758  21.097  16.773   9.915
22598W        W87759  27.636   6.890  14.498
22599W        W87760  21.429  35.310   3.180
22600W        W87761  41.898  15.259  13.884
22601W        W87762  36.002  21.880   0.945
22602W        W87763  40.413   2.657  14.319
22603W        W87764  25.001  31.134  12.538
22604W        W87765   2.797  33.347  13.887
22605W        W87766  25.678  43.517  12.178
22606W        W87767  40.289  28.885   2.669
22607W        W87768  33.658  34.523  10.542
22608W        W87769  18.126  28.856   1.638
22609W        W87770  17.643  19.319   0.776
22610W        W87771  38.834  15.683  13.834
22611W        W87772  27.208  14.524   4.062
22612W        W87773   0.896  16.552  12.888
22613W        W87774  11.556   3.591   1.361
22614W        W87775   2.888  42.005  14.075
22615W        W87776   2.260  37.361  12.185
22616W        W87777  41.278  44.667  10.675
22617W        W87778  23.795   5.424   2.328
22618W        W87779   8.980  38.421   4.375
22619W        W87780  31.577  31.941  13.967
22620W        W87781   6.252  44.998  12.896
22621W        W87782  24.246   2.412  11.393
22622W        W87783   1.026  17.750  14.050
22623W        W87784   9.826  43.568  12.017
22624W        W87785   9.846  35.946   4.761
22625W        W87786  13.845  21.988  13.089
22626W        W87787  25.180  28.298  13.061
22627W        W87788  18.266  28.457   3.256
22628W        W87789   8.384  19.737  10.978
22629W        W87790  41.372   0.667  10.771
22630W        W87791  20.192  34.505  11.580
22631W        W87792  11.951  25.244   2.360
22632W        W87793  31.682   3.277  13.978
22633W        W87794  37.933  30.144  12.480
22634W        W87795  32.722  12.186  13.399
22635W        W87796  18.218  28.966  13.400
22636W        W87797  20.074  10.758   2.230
22637W        W87798  30.053  21.685   5.421
22638W        W87799  17.151  37.470   5.055
22639W        W87800  17.024   3.258   0.958
22640W        W87801  20.186  22.945   3.974
22641W        W87802  13.542  39.299   5.501
22642W        W87803   3.367  40.023  11.392
22643W        W87804  41.958   0.401   3.788
22644W        W87805  33.886  11.033  12.533
22645W        W87806  24.969  25.772  11.721
22646W        W87807   6.925  29.280  11.483
22647W        W87808  33.416  11.116   4.849
22648W        W87809  23.016  42.650  12.330
22649W        W87810  21.356  16.194  12.163
22650W        W87811  21.821  38.862  12.614
22651W        W87812   7.897  29.082  14.081
22652W        W87813  32.401  23.815   2.582
22653W        W87814   6.681  11.218  10.867
22654W        W87815  25.066   9.730   2.183
22655W        W87816  39.897  24.311   0.273
22656W        W87817  27.575  40.416  12.016
22657W        W87818  42.105  26.021   3.809
22658W        W87819   9.789  29.554   1.834
22659W        W87820  41.106   8.877  13.378
22660W        W87821  26.078  43.993   4.326
22661W        W87822  25.398  16.504  14.023
22662W        W87823   5.334  39.663   0.730
22663W        W87824  43.774  36.908  11.820
22664W        W87825  39.614   8.843  13.332
22665W        W87826  12.242  11.116   4.937
22666W        W87827  36.996  29.967   4.684
22667W        W87828  20.638  42.463  10.629
22668W        W87829  20.682   0.822   1.371
22669W        W87830  23.976  18.130  11.601
22670W        W87831  43.678  22.674   0.303
22671W        W87832  29.690  33.129  10.641
22672W        W87833  30.086  17.043  12.486
22673W        W87834  33.387  16.801   4.944
22674W        W87835   9.092  34.385   1.190
22675W        W87836   7.470  40.051   3.343
22676W        W87837   9.635  44.549  11.967
22677W        W87838  18.127  38.326   3.331
22678W        W87839   2.805  40.000   0.299
22679W        W87840  10.242  10.654  12.519
22680W        W87841   5.793  38.214  13.835
22681W        W87842  41.334  39.123  11.120
22682W        W87843  42.309  17.756  12.524
22683W        W87844  35.471  24.228  11.911
22684W        W87845  25.060  12.918   4.818
22685W        W87846  22.027  29.649  13.008
22686W        W87847  10.233  13.878   3.332
22687W        W87848  19.088  28.464  14.001
22688W        W87849   5.263  20.011   1.450
22689W        W87850  32.599  31.497  13.369
22690W        W87851  18.160   5.008  11.473
22691W        W87852  12.799  24.497   0.378
22692W        W87853  32.661   4.604  14.627
22693W        W87854  35.411  35.842   0.212
22694W        W87855   3.918  42.101   0.909
22695W        W87856  29.495   0.947   0.346
22696W        W87857  11.072  20.178  11.778
22697W        W87858   2.900  11.679  14.086
22698W        W87859  30.245  17.755   3.336
22699W        W87860  41.730  35.039  11.116
22700W        W87861  33.474  22.671  12.530
22701W        W87862   9.215  34.881  12.930
22702W        W87863  43.487   1.506   0.271
22703W        W87864  23.539  40.038  10.724
22704W        W87865  35.105   7.826  12.115
22705W        W87866  43.202  10.169   2.848
22706W        W87867  24.099  29.237   2.320
22707W        W87868  13.365  15.119  13.011
22708W        W87869  26.087  40.953  13.988
22709W        W87870   5.773  25.422  12.208
22710W        W87871  27.117  17.002  11.182
22711W        W87872  13.219   1.593   2.881
22712W        W87873  38.518  30.137   3.959
22713W        W87874  17.563  44.586   2.337
22714W        W87875   7.876  43.548   3.784
22715W        W87876  23.225   5.701   3.695
22716W        W87877   1.017  29.399   2.666
22717W        W87878   1.993  28.026  14.733
22718W        W87879  24.719   5.231  13.433
22719W        W87880  37.125  28.589   1.718
22720W        W87881   7.820  15.140  10.471
22721W        W87882  44.272  20.208   3.187
22722W        W87883  25.395   1.858   4.473
22723W        W87884   6.281   1.447  14.544
22724W        W87885  21.777  37.955   2.832
22725W        W87886  18.020  13.734   4.698
22726W        W87887   6.725  39.237   9.953
22727W        W87888  44.961  36.882   9.627
22728W        W87889  33.911  44.375   3.854
22729W        W87890   4.855  12.055  11.776
22730W        W87891  26.007  40.472   3.702
22731W        W87892   2.073  37.378  10.700
22732W        W87893  39.531  20.125   0.760
22733W        W87894  26.169   5.385  13.431
22734W        W87895  39.499  41.218   0.278
22735W        W87896  11.104   1.958   1.422
22736W        W87897   9.830  10.268   0.555
22737W        W87898  11.086  11.755   4.064
22738W        W87899  18.891  19.339   4.551
22739W        W87900  32.007   2.223   0.865
22740W        W87901  27.889  13.746   0.690
22741W        W87902  15.261  36.147   4.778
22742W        W87903  31.544   4.776   2.745
22743W        W87904  43.125   4.416   1.964
22744W        W87905  10.349   0.464  14.891
22745W        W87906  25.441   6.386  11.153
22746W        W87907   4.115  20.489   1.955
22747W        W87908  31.112  42.994  13.954
22748W        W87909   2.902  31.441  12.212
22749W        W87910   7.382  15.894  10.715
22750W        W87911  34.224  43.703   0.781
22751W        W87912  40.313  19.201  14.971
22752W        W87913  35.802  28.947  13.133
22753W        W87914  33.123   2.530  12.121
22754W        W87915  36.405  42.615   0.678
22755W        W87916   7.519  32.206   2.140
22756W        W87917   8.477   6.876   0.243
22757W        W87918  18.640  22.039   3.243
22758W        W87919  23.143  28.906   3.275
22759W        W87920  20.728   1.713   3.642
22760W        W87921  28.943  19.006  12.938
22761W        W87922  38.794   7.778   3.598
22762W        W87923  41.334  28.280  11.042
22763W        W87924  33.342  16.003  10.735
22764W        W87925  40.022  26.576   5.082
22765W        W87926   0.212  26.210   2.630
22766W        W87927  33.131  18.283  11.579
22767W        W87928  30.640   9.817  11.997
22768W        W87929   1.382  32.463   2.853
22769W        W87930  20.097  14.058  12.545
22770W        W87931  23.740  42.927   2.361
22771W        W87932  17.618  37.987  14.791
22772W        W87933  15.598  10.799   0.023
22773W        W87934  20.336  22.154  11.603
22774W        W87935   5.788  28.870  12.009
22775W        W87936  40.892   4.776  10.656
22776W        W87937  20.206  12.219  11.977
22777W        W87938  38.627  18.003   4.256
22778W        W87939   7.377  12.722  12.552
22779W        W87940  26.892  10.046   4.473
22780W        W87941  24.622  40.250   3.657
22781W        W87942  34.450   0.453  12.088
22782W        W87943  38.355  16.816  11.491
22783W        W87944  31.172  22.805   2.569
22784W        W87945  22.994   3.287  11.259
22785W        W87946  14.649  38.579  14.942
22786W        W87947  31.405   0.472   5.003
22787W        W87948  44.973   8.675  11.945
22788W        W87949  34.663  39.294   1.887
22789W        W87950  37.406  33.510   2.304
22790W        W87951  19.611  41.371   3.625
22791W        W87952  44.201   4.239   1.909
22792W        W87953   6.221   6.970  11.180
22793W        W87954  14.757   3.489   3.676
22794W        W87955   5.197  28.464  11.423
22795W        W87956  10.202   2.944  12.587
22796W        W87957  30.080   8.657   2.230
22797W        W87958  36.365  34.158  13.375
22798W        W87959   4.986  22.369   0.446
22799W        W87960   0.722  35.502   4.123
22800W        W87961  18.510  12.182   3.228
22801W        W87962  42.790  21.530   4.545
22802W        W87963  24.417   4.862  14.792
22803W        W87964  14.147  23.089   3.716
22804W        W87965   1.136   6.168  12.427
22805W        W87966  33.560   5.670   2.287
22806W        W87967  43.184   2.226  10.684
22807W        W87968  33.237  32.484  14.093
22808W        W87969  25.983  11.649  13.967
22809W        W87970   0.711  26.252   0.972
22810W        W87971  43.913  17.068  14.463
22811W        W87972  41.475  41.088   4.324
22812W        W87973  41.949  12.630   3.344
22813W        W87974  31.143  10.436   1.987
22814W        W87975  39.064  36.472  13.891
22815W        W87976  39.649  23.421  13.841
22816W        W87977  28.126  18.738  14.500
22817W        W87978  39.574   9.152   1.946
22818W        W87979  30.619  12.687   0.755
22819W        W87980  16.012   7.402  11.988
22820W        W87981   6.200   2.871  13.044
22821W        W87982   1.863  20.758   0.785
22822W        W87983   2.019  44.878  11.661
22823W        W87984  17.153  19.493  10.201
22824W        W87985   1.882  40.001  13.602
22825W        W87986  38.931  24.731   2.712
22826W        W87987  17.562  31.283   0.749
22827W        W87988  11.283  10.454   4.016
22828W        W87989  14.746  15.283   2.691
22829W        W87990  18.964  25.952   1.548
22830W        W87991  26.005   1.704  12.157
22831W        W87992  22.966  34.547  11.480
22832W        W87993  14.397  21.893  11.647
22833W        W87994   3.741  22.039  14.471
22834W        W87995  27.446  23.033  13.273
22835W        W87996  38.506  11.772  12.333
22836W        W87997   0.721  39.779  14.544
22837W        W87998  29.448   8.687  13.001
22838W        W87999  21.721  13.578   2.911
22839W        W88000  32.094  27.759   3.614
22840W        W88001  13.139  26.962   3.722
22841W        W88002  15.357  35.985  13.151
22842W        W88003  25.201  41.484  11.939
22843W        W88004  12.925  29.339  12.585
22844W        W88005  18.177  40.873  13.736
22845W        W88006  42.413  11.784   0.248
22846W        W88007  36.484  14.297   3.368
22847W        W88008  31.145  19.275  11.786
22848W        W88009  34.884   0.890  13.809
22849W        W88010  43.447  19.701   1.216
22850W        W88011   6.939  18.775   3.665
22851W        W88012  42.837  32.404  12.608
22852W        W88013  21.269  44.765  14.912
22853W        W88014  18.846  23.402  13.435
22854W        W88015  27.969  22.150   3.175
22855W        W88016  14.634  30.502   4.466
22856W        W88017   7.188  37.843   0.308
22857W        W88018  38.020  22.126   4.306
22858W        W88019   5.309  11.850  11.859
22859W        W88020  21.068   9.634  12.816
22860W        W88021  28.257  44.609   3.670
22861W        W88022  36.978  42.405   2.709
22862W        W88023  34.896  21.107   3.384
22863W        W88024  42.363   1.738  14.419
22864W        W88025  40.413   4.657  13.415
22865W        W88026  21.482   4.475  14.228
22866W        W88027  37.871  23.961  14.369
22867W        W88028   8.962   1.684  10.480
22868W        W88029  37.587  38.745  12.083
22869W        W88030  16.253  22.539  10.794
22870W        W88031   7.122  27.245   5.339
22871W        W88032  26.884   1.462  11.545
22872W        W88033  17.098  35.450  14.934
22873W        W88034  43.935  21.471  10.370
22874W        W88035  41.832  20.595   2.857
22875W        W88036  23.642  17.665   1.144
22876W        W88037   8.576  22.963   3.668
22877W        W88038   1.282  16.541  13.501
22878W        W88039  44.385  23.044   3.545
22879W        W88040  31.098   2.559   2.729
22880W        W88041  11.616  20.900  13.544
22881W        W88042   9.914  26.649   3.633
22882W        W88043   1.305  18.917  11.861
22883W        W88044  16.716  14.480   5.033
22884W        W88045  17.639  18.110  12.464
22885W        W88046   7.131  41.926   0.850
22886W        W88047  18.627  14.604   1.400
22887W        W88048   2.020   8.922   3.373
22888W        W88049   7.084  44.994  13.399
22889W        W88050  11.813  35.803   0.271
22890W        W88051  16.253  11.169  13.956
22891W        W88052  44.892  25.028  12.834
22892W        W88053  35.033  34.084  12.920
22893W        W88054  42.830  28.204   0.323
22894W        W88055  30.188  29.997  11.371
22895W        W88056   4.181   1.489  13.085
22896W        W88057  26.580  33.932   1.893
22897W        W88058  39.114  14.737  14.808
22898W        W88059   3.978  19.830   0.822
22899W        W88060  18.743   3.279  13.036
22900W        W88061  43.203   3.688  10.872
22901W        W88062  25.550  22.492   0.719
22902W        W88063  11.047   1.016   0.332
22903W        W88064  41.875  19.085  11.674
22904W        W88065   6.652  17.127   2.753
22905W        W88066  30.173  20.774   3.286
22906W        W88067   5.687  40.121   2.770
22907W        W88068  18.768  18.888   3.848
22908W        W88069   2.414  20.787   4.798
22909W        W88070  36.049  12.171  13.890
22910W        W88071  16.643   7.360  10.960
22911W        W88072  17.420   6.887   3.155
22912W        W88073  44.581  39.813  13.893
22913W        W88074  33.475   8.861   4.005
22914W        W88075  39.081  32.091  14.976
22915W        W88076  10.826  34.391   4.283
22916W        W88077  36.583   6.517   1.001
22917W        W88078  14.151  15.371  13.667
22918W        W88079  22.628   3.752   0.458
22919W        W88080  40.093  32.852   1.285
22920W        W88081  40.891  44.024  10.835
22921W        W88082  39.792   0.232   4.065
22922W        W88083  38.079  40.804   5.031
22923W        W88084  12.250  40.941  11.176
22924W        W88085  29.314  37.843  11.504
22925W        W88086   4.885   7.698  14.719
22926W        W88087  12.666   3.286  12.555
22927W        W88088  42.404  34.383  13.824
22928W        W88089  24.614  37.314   0.363
22929W        W88090  23.366   4.741   4.594
22930W        W88091  22.160   3.197   3.163
22931W        W88092  33.338   6.863   3.600
22932W        W88093  31.033  15.924  12.414
22933W        W88094  24.063   1.235  12.042
22934W        W88095  35.829  23.174  10.713
22935W        W88096  38.910  37.811  12.972
22936W        W88097  17.219  42.903   3.681
22937W        W88098  32.454  29.403  12.496
22938W        W88099  40.121   1.748  13.567
22939W        W88100  15.574  27.274  13.160
22940W        W88101  13.064  17.842   4.641
22941W        W88102  17.998  28.560   4.595
22942W        W88103  29.644   4.003  13.965
22943W        W88104  42.364  33.302  10.961
22944W        W88105  42.425  42.018   3.416
22945W        W88106   6.760   6.644  14.185
22946W        W88107  42.944  26.631   3.168
22947W        W88108  36.507  35.520   4.897
22948W        W88109  25.518  20.621  13.898
22949W        W88110  39.081  35.093   2.369
22950W        W88111  21.236  30.477  10.782
22951W        W88112  13.550  11.761  14.400
22952W        W88113  27.076  32.104   0.372
22953W        W88114  10.142  20.791  14.780
22954W        W88115  34.440  41.889  14.000
22955W        W88116   1.128   8.282   4.166
22956W        W88117  22.566  15.205   0.927
22957W        W88118  41.493  26.682   0.296
22958W        W88119  14.129  21.594  11.024
22959W        W88120  15.883  33.064   4.555
22960W        W88121  21.769  35.856   4.197
22961W        W88122  44.549   1.815  14.830
22962W        W88123  12.301  11.272   2.983
22963W        W88124   9.864  12.785  11.293
22964W        W88125  19.702  30.046   1.112
22965W        W88126  13.251  14.642  12.095
22966W        W88127  41.933  34.400   1.359
22967W        W88128   5.285  16.249   0.214
22968W        W88129  21.995   1.493   4.942
22969W        W88130  40.253  40.931   0.883
22970W        W88131   1.608  22.814  11.608
22971W        W88132  21.581  39.915  12.556
22972W        W88133  38.368  10.764   1.434
22973W        W88134   9.625  24.584  11.426
22974W        W88135  35.732  20.091   4.074
22975W        W88136   0.721  25.897  10.622
22976W        W88137  22.675  43.548  12.982
22977W        W88138  20.788   5.766  14.402
22978W        W88139  26.533  15.330   2.716
22979W        W88140  16.826  42.389   1.430
22980W        W88141  24.537  33.648  11.484
22981W        W88142  28.625   4.656   4.093
22982W        W88143  10.481   4.653  10.078
22983W        W88144  42.542   8.507  12.611
22984W        W88145  32.000  31.964   3.800
22985W        W88146  31.038  30.403  12.596
22986W        W88147  21.674  28.828  12.942
22987W        W88148  43.577  13.861   0.978
22988W        W88149  25.550  28.204   1.242
22989W        W88150   5.633  31.930  13.705
22990W        W88151  44.002  22.684   1.697
22991W        W88152  19.315  38.462  13.082
22992W        W88153  32.595   7.354  10.390
22993W        W88154  31.361  27.093   1.247
22994W        W88155  33.117  18.001  14.068
22995W        W88156   8.333  25.687   0.260
22996W        W88157  32.118  19.307  10.781
22997W        W88158  29.946  14.414  11.598
22998W        W88159  42.429  21.431   2.856
22999W        W88160  35.376  40.616   0.796
23000W        W88161   4.966   2.053   2.490
23001W        W88162   2.385  44.955   3.595
23002W        W88163  39.997   5.905   2.848
23003W        W88164  26.711  41.480   0.346
23004W        W88165  35.631  30.710   1.854
23005W        W88166   3.838  15.724  12.811
23006W        W88167  27.754   2.378  13.529
23007W        W88168  41.525  33.035   3.671
23008W        W88169  21.626  11.319  12.550
23009W        W88170   1.853  32.954   1.784
23010W        W88171  18.128   2.246  13.126
23011W        W88172   2.763  44.375  10.687
23012W        W88173  33.417  22.328   3.379
23013W        W88174  21.775   2.786   0.477
23014W        W88175  26.932  20.671   2.376
23015W        W88176   3.786  35.044  11.586
23016W        W88177  30.094  28.512   4.524
23017W        W88178  36.585  41.887  10.247
23018W        W88179   7.349  16.602   0.339
23019W        W88180   9.580   6.187  10.989
23020W        W88181  38.321  21.877  12.215
23021W        W88182  25.723  36.717   2.861
23022W        W88183  30.742  36.617   2.630
23023W        W88184  38.789  40.510  14.383
23024W        W88185  10.820  43.203   0.458
23025W        W88186   1.772   5.454   2.009
23026W        W88187  11.803   7.986   2.729
23027W        W88188   0.666  24.213   3.449
23028W        W88189  33.349  43.455   9.875
23029W        W88190  15.173  17.653   4.299
23030W        W88191  10.424   7.729  13.927
23031W        W88192  41.866  23.203  10.451
23032W        W88193  41.026  23.156   3.786
23033W        W88194  15.709  33.330  10.716
23034W        W88195  36.833  36.092  12.976
23035W        W88196  42.552  22.624  14.544
23036W        W88197   4.257  31.854   2.659
23037W        W88198  42.982  30.493   4.798
23038W        W88199  41.567  26.553   3.422
23039W        W88200   6.138  11.640   0.910
23040W        W88201  18.242  10.584   0.932
23041W        W88202   2.429   7.361   1.368
23042W        W88203  10.309  21.428   1.496
23043W        W88204  30.007  35.895   0.744
23044W        W88205  31.555  31.452   2.556
23045W        W88206  22.651  43.257   4.737
23046W        W88207   7.731  41.248   1.303
23047W        W88208   6.690  17.569   3.020
23048W        W88209  29.278  44.498   3.327
23049W        W88210  23.755  27.003  10.540
23050W        W88211   0.057   6.908  12.365
23051W        W88212  10.177  15.734   3.732
23052W        W88213  28.230  24.253   9.809
23053W        W88214   7.317  33.614   3.578
23054W        W88215  35.959  17.256  14.619
23055W        W88216  13.094  15.681  12.885
23056W        W88217  21.057  18.724   3.360
23057W        W88218   8.067  17.478   1.793
23058W        W88219  28.733   0.905  13.916
23059W        W88220  21.559  42.966   1.599
23060W        W88221  36.122  38.046  10.545
23061W        W88222  10.263   9.115  12.849
23062W        W88223  16.284  19.736   2.750
23063W        W88224  32.993  19.837   4.336
23064W        W88225   9.309  24.105   4.357
23065W        W88226  26.697  13.496  11.707
23066W        W88227  34.646  20.545   1.861
23067W        W88228   3.859  22.579  14.570
23068W        W88229  30.188  36.435   0.034
23069W        W88230  24.728  12.001   0.089
23070W        W88231  42.783  34.949   2.673
23071W        W88232   8.741  39.861   0.770
23072W        W88233  32.677  44.874   3.729
23073W        W88234  15.870  43.459  10.740
23074W        W88235   9.145  15.059   2.419
23075W        W88236  19.117  37.767  10.565
23076W        W88237  17.192  22.535   4.526
23077W        W88238  37.718  33.603   3.630
23078W        W88239  37.962  36.047  11.087
23079W        W88240  31.037   5.140   3.126
23080W        W88241  39.543  23.310   1.714
23081W        W88242  24.278  18.182  12.586
23082W        W88243  13.309  43.309  10.792
23083W        W88244  11.214  38.318   0.641
23084W        W88245   3.170  17.613   0.527
23085W        W88246  32.215  16.685  11.576
23086W        W88247  27.408  22.452   9.897
23087W        W88248  28.695  41.555   1.280
23088W        W88249   8.496   2.429   3.739
23089W        W88250  12.546  21.535   1.735
23090W        W88251  10.615  31.386   1.967
23091W        W88252  11.680   4.988   4.610
23092W        W88253  31.692  44.913  13.512
23093W        W88254  17.847  14.515   3.595
23094W        W88255  30.846  15.166   3.036
23095W        W88256  23.643  17.607   0.618
23096W        W88257  15.378  10.193  12.439
23097W        W88258  43.536   7.862   4.242
23098W        W88259  13.635  18.278  14.959
23099W        W88260   6.345  38.838   1.617
23100W        W88261   0.505  25.299   4.056
23101W        W88262  34.450  40.312   3.165
23102W        W88263  27.689  13.168   2.843
23103W        W88264  22.970  40.561   1.628
23104W        W88265  31.944  35.058  12.900
23105W        W88266   1.922  11.291   2.290
23106W        W88267  11.436  27.061  12.483
23107W        W88268   8.590   8.217  12.595
23108W        W88269  24.395   6.182   4.150
23109W        W88270   3.768  23.337  11.690
23110W        W88271  10.740  24.557  13.530
23111W        W88272  37.612  11.590   0.479
23112W        W88273  13.930   0.818  11.266
23113W        W88274   2.239  13.342  10.226
23114W        W88275   4.263   5.014   0.320
23115W        W88276   4.324   8.346  14.289
23116W        W88277  31.255  42.616  11.979
23117W        W88278  29.033  21.228   4.309
23118W        W88279  17.713  34.998  10.692
23119W        W88280  29.197  37.585   5.457
23120W        W88281  38.977  35.670   2.989
23121W        W88282  30.347  37.466   4.123
23122W        W88283   7.744   3.677  13.974
23123W        W88284  17.802  14.050  10.962
23124W        W88285   1.495  24.681  14.856
23125W        W88286   1.796  12.199   9.926
23126W        W88287   5.797  22.061   2.351
23127W        W88288   9.091  31.600   3.221
23128W        W88289   2.601  18.658   2.700
23129W        W88290  12.896  28.657   1.327
23130W        W88291   5.642  39.119  11.498
23131W        W88292  21.511   9.935   4.202
23132W        W88293  43.847   8.589   0.324
23133W        W88294   3.676  40.940   2.393
23134W        W88295  21.535  30.653   3.726
23135W        W88296   9.529   5.362  11.106
23136W        W88297   5.202   6.221  14.391
23137W        W88298  14.751  23.886   1.879
23138W        W88299  29.880  39.740  14.920
23139W        W88300   1.323   5.631   4.140
23140W        W88301   6.618  16.347   2.206
23141W        W88302  21.130  43.027   2.901
23142W        W88303  10.658   9.952  14.867
23143W        W88304   2.201  13.829  13.979
23144W        W88305   5.949  17.217  10.388
23145W        W88306  26.830  41.493   2.610
23146W        W88307  44.716  15.630  11.568
23147W        W88308  12.887  43.760   0.872
23148W        W88309  17.350   1.500   0.273
23149W        W88310  36.043  12.592  10.757
23150W        W88311  30.144   2.487   4.528
23151W        W88312  33.903   9.867   2.979
23152W        W88313  20.634  25.445   2.376
23153W        W88314  31.683  18.716  11.593
23154W        W88315  17.818  36.943  12.440
23155W        W88316   4.738  44.736   4.632
23156W        W88317  25.730   6.595  12.459
23157W        W88318   9.898  10.865  14.873
23158W        W88319  15.289  33.495   4.897
23159W        W88320   9.327  36.023  13.310
23160W        W88321  27.127   4.744   4.203
23161W        W88322   5.537  40.258  11.122
23162W        W88323  12.760  15.383   0.864
23163W        W88324   0.602   5.196  14.521
23164W        W88325  12.734  37.595   0.853
23165W        W88326  38.738  27.379  12.886
23166W        W88327   0.281  44.425  13.383
23167W        W88328  11.917   1.508   0.466
23168W        W88329   2.701  41.389  13.462
23169W        W88330  36.905  19.148   3.457
23170W        W88331  27.550  43.532   0.161
23171W        W88332  43.965  21.380   1.058
23172W        W88333  39.978   5.193   2.257
23173W        W88334  33.115  13.614   1.363
23174W        W88335  13.109  28.195   0.218
23175W        W88336  40.436  31.694   2.315
23176W        W88337  26.272   7.486   3.762
23177W        W88338   9.712  44.414   3.666
23178W        W88339   2.012  31.977   2.224
23179W        W88340   0.259  32.706   2.253
23180W        W88341  34.653   5.430  12.471
23181W        W88342   3.777   1.928  14.311
23182W        W88343   8.210   4.456   4.649
23183W        W88344  36.669  22.664  13.478
23184W        W88345   5.963  25.071   0.286
23185W        W88346  38.565  27.146  14.048
23186W        W88347  19.030  18.210   4.202
23187W        W88348  10.954  33.132   3.064
23188W        W88349  18.273   2.758  13.060
23189W        W88350  37.061  37.573  13.790
23190W        W88351  20.013  36.770   3.582
23191W        W88352  20.046  32.122   4.598
23192W        W88353  20.286   9.142   0.734
23193W        W88354  15.057  26.543  12.755
23194W        W88355  25.072  40.394   2.376
23195W        W88356  16.807  37.356  12.353
23196W        W88357  35.235  17.139   4.092
23197W        W88358  39.567   9.256  14.821
23198W        W88359   6.986  15.026   0.632
23199W        W88360  35.419  34.619   1.700
23200W        W88361  19.219   1.399   2.910
23201W        W88362   8.137   7.157  11.119
23202W        W88363  31.462  33.490   3.180
23203W        W88364  42.893   1.740  13.534
23204W        W88365  22.700  36.009  11.472
23205W        W88366  28.498  16.799   1.436
23206W        W88367  28.022  22.972  13.505
23207W        W88368  37.238   5.318  11.534
23208W        W88369  40.869  38.911   0.027
23209W        W88370   0.862  35.864   2.137
23210W        W88371  30.558  40.749   0.823
23211W        W88372  25.244   2.366   4.044
23212W        W88373  26.397   1.334   2.120
23213W        W88374  24.795   4.246  12.844
23214W        W88375  32.444  32.411  13.789
23215W        W88376  18.271  29.542  12.137
23216W        W88377  41.989  13.428   0.840
23217W        W88378  25.665  16.292   5.663
23218W        W88379  27.658   7.379   4.907
23219W        W88380   4.538   9.886  12.609
23220W        W88381   2.448  26.425   3.619
23221W        W88382  32.643   4.748   3.087
23222W        W88383  15.598  33.371   0.880
23223W        W88384  38.835  18.890   1.372
23224W        W88385  44.849  35.848   1.508
23225W        W88386  18.146  35.217  10.485
23226W        W88387  11.640  14.116  10.676
23227W        W88388   8.876  42.530   0.048
23228W        W88389   7.733  39.040   1.820
23229W        W88390  38.511   1.630   4.721
23230W        W88391  19.115  26.244   4.071
23231W        W88392  16.853  34.302   0.780
23232W        W88393   1.347  30.178  14.586
23233W        W88394  43.450  19.341  14.253
23234W        W88395  14.243  17.495   1.359
23235W        W88396  10.597   3.843   1.894
23236W        W88397  39.550   2.404   4.510
23237W        W88398  25.934   3.108   0.554
23238W        W88399  28.670  23.092  11.830
23239W        W88400  17.453  23.001   4.634
23240W        W88401  43.422  22.604  10.605
23241W        W88402  23.361  40.202   1.730
23242W        W88403  34.430  35.471  14.219
23243W        W88404  22.183  27.264   4.500
23244W        W88405  11.679  25.946  10.685
23245W        W88406   0.356  10.436   0.819
23246W        W88407   9.735  23.120  10.459
23247W        W88408   5.909   8.992  14.901
23248W        W88409  21.595  14.986  14.492
23249W        W88410  16.582   6.985  10.620
23250W        W88411  23.174  17.632   1.381
23251W        W88412  39.330   4.773   4.575
23252W        W88413  19.235  13.794   0.756
23253W        W88414  13.117  10.694   3.246
23254W        W88415  44.831  25.988  10.636
23255W        W88416   4.932  30.688   2.017
23256W        W88417   5.243  10.961  11.840
23257W        W88418  33.080   3.801  14.836
23258W        W88419  25.317   0.246   4.100
23259W        W88420  22.904  31.473   1.225
23260W        W88421  23.825   6.185   3.285
23261W        W88422  25.705  22.938   1.682
23262W        W88423  19.303  19.539   3.925
23263W        W88424  17.771  18.567   1.149
23264W        W88425   0.908  34.448  12.321
23265W        W88426  27.499  23.257   3.664
23266W        W88427  19.320   4.911  12.837
23267W        W88428  41.305  14.078   3.174
23268W        W88429  36.948  22.299   3.495
23269W        W88430  37.120   3.173  11.562
23270W        W88431  33.981  14.100   1.575
23271W        W88432  23.677  43.358   5.015
23272W        W88433   7.538   1.318   2.445
23273W        W88434  29.997   8.115  11.491
23274W        W88435  29.264   2.136  12.047
23275W        W88436   7.737   5.925  13.586
23276W        W88437  24.812  36.333   4.098
23277W        W88438  28.048  17.456   3.749
23278W        W88439  23.658   2.097  13.837
23279W        W88440  16.568  24.674  14.119
23280W        W88441  38.972   7.876  10.770
23281W        W88442   4.979  14.771   0.598
23282W        W88443  29.514  32.568   3.686
23283W        W88444  42.068  35.594   3.600
23284W        W88445  20.173   1.541   1.453
23285W        W88446   2.010  34.515   2.769
23286W        W88447  40.813  10.026   2.462
23287W        W88448  25.545   1.180  14.862
23288W        W88449  39.802  25.639   4.145
23289W        W88450  33.786  41.686  10.729
23290W        W88451  43.045  18.119  11.822
23291W        W88452   4.641  43.357  14.157
23292W        W88453  14.365  35.252   0.952
23293W        W88454  43.511  18.973  11.824
23294W        W88455   7.159  17.505   1.303
23295W        W88456   7.891   2.812  13.002
23296W        W88457   8.117  27.905  12.545
23297W        W88458  36.116  17.381   0.096
23298W        W88459  42.926  44.985  13.285
23299W        W88460   3.881  37.242   1.427
23300W        W88461  24.064  16.246   4.123
23301W        W88462  15.357  26.496   4.736
23302W        W88463  15.728  37.348   4.693
23303W        W88464  44.983  37.741   5.169
23304W        W88465  14.161  25.586  13.751
23305W        W88466  41.625  37.966  12.535
23306W        W88467  39.844  39.591   4.103
23307W        W88468  29.530  10.127  10.709
23308W        W88469  24.317   9.241   0.798
23309W        W88470  30.408  40.983  10.636
23310W        W88471  23.859  34.811   2.419
23311W        W88472  44.280  15.033   1.738
23312W        W88473   4.480  28.041  14.560
23313W        W88474   2.912   9.370   0.512
23314W        W88475  34.158  37.133   0.337
23315W        W88476  17.357   6.648   4.165
23316W        W88477  34.899   8.329   0.483
23317W        W88478  26.924   5.336  12.384
23318W        W88479  15.070  44.004   1.144
23319W        W88480  40.113  11.249  10.844
23320W        W88481   3.395  39.012   3.695
23321W        W88482   0.805  17.988   4.214
23322W        W88483   0.707  35.277   3.655
23323W        W88484  17.492  37.923  12.910
23324W        W88485  26.822  32.636   2.496
23325W        W88486  40.102  37.144   2.385
23326W        W88487  26.970  33.833   3.509
23327W        W88488   3.484  18.260   2.112
23328W        W88489   0.420  42.187   1.108
23329W        W88490  21.477  19.726   3.142
23330W        W88491  22.959  18.942  14.974
23331W        W88492  28.131  39.548   4.749
23332W        W88493   6.968  16.084   3.631
23333W        W88494  32.637   7.828   0.258
23334W        W88495  38.524  19.012  13.076
23335W        W88496  35.612  10.499  13.391
23336W        W88497   4.235  25.481  14.238
23337W        W88498  37.719   8.455  10.668
23338W        W88499  36.445  20.846  10.474
23339W        W88500  29.840  12.820   1.260
23340W        W88501  11.244  34.565  12.629
23341W        W88502  26.086  34.684  11.988
23342W        W88503  38.288  21.171   0.537
23343W        W88504  10.885  36.611   4.632
23344W        W88505  12.790  34.907   1.021
23345W        W88506  34.819   8.670   2.792
23346W        W88507   0.996  32.624  12.361
23347W        W88508  39.931   0.382   3.596
23348W        W88509  22.545   1.853  12.191
23349W        W88510  28.630   2.792   0.698
23350W        W88511  27.045   7.912  13.842
23351W        W88512  42.110  29.159  11.588
23352W        W88513   0.746  33.217   0.700
23353W        W88514  10.086  16.076   1.898
23354W        W88515  14.878   0.791  13.421
23355W        W88516  19.637  35.311   3.667
23356W        W88517  25.382  31.796   2.756
23357W        W88518  28.897   0.225   4.923
23358W        W88519  29.887  41.714  11.888
23359W        W88520  12.754  20.474  11.919
23360W        W88521  27.844   9.969   2.870
23361W        W88522  30.412  14.862  12.444
23362W        W88523  40.262  41.559  12.961
23363W        W88524  26.725  20.055  13.837
23364W        W88525   1.767   8.871  14.829
23365W        W88526  37.060  12.862   1.392
23366W        W88527   4.748  35.399  12.439
23367W        W88528  24.580   3.943   3.327
23368W        W88529  33.169  38.308   3.194
23369W        W88530  44.445  21.826   4.136
23370W        W88531  43.703  26.562  11.584
23371W        W88532  37.319  32.311   4.824
23372W        W88533  26.011  13.891   4.209
23373W        W88534   4.351  17.099   1.049
23374W        W88535  21.060  31.517  12.197
23375W        W88536  12.682  21.075   1.865
23376W        W88537   6.354   5.309  13.230
23377W        W88538  27.341  38.977  11.749
23378W        W88539   2.898  10.134   1.865
23379W        W88540   7.494  15.868   4.159
23380W        W88541  20.228  16.092   0.741
23381W        W88542  41.844  25.652   0.325
23382W        W88543  20.103  35.014  10.703
23383W        W88544  43.078  43.657  10.885
23384W        W88545   8.179  34.905  12.913
23385W        W88546   3.041   1.417  12.584
23386W        W88547  31.700  35.239   1.970
23387W        W88548  32.214  42.519   0.415
23388W        W88549  14.643  24.426   1.640
23389W        W88550  18.908  17.425   1.558
23390W        W88551  15.858  22.419   2.385
23391W        W88552   1.423   4.648   0.357
23392W        W88553  18.185   6.583  14.363
23393W        W88554  25.456  25.292  13.918
23394W        W88555   6.601  22.293   1.285
23395W        W88556  14.311  12.543  11.220
23396W        W88557  35.413  43.534   4.140
23397W        W88558  33.669  14.950  11.524
23398W        W88559  31.227  34.002   2.604
23399W        W88560  20.160  36.106   0.399
23400W        W88561  25.208  19.569  14.518
23401W        W88562  34.189  40.935   0.469
23402W        W88563  21.246  21.709   5.423
23403W        W88564  17.440  17.432   5.052
23404W        W88565  24.163   7.003   4.568
23405W        W88566  24.152   7.921  14.273
23406W        W88567  26.663   1.633   1.224
23407W        W88568  10.320  34.395   5.115
23408W        W88569  23.912   9.430  14.327
23409W        W88570   4.286  23.077   3.752
23410W        W88571  26.319  10.215   0.076
23411W        W88572  41.773  12.715  11.616
23412W        W88573  29.543  33.496   3.576
23413W        W88574  10.750  34.016  12.125
23414W        W88575  40.989  25.108  10.980
23415W        W88576  41.586  25.016   1.844
23416W        W88577   9.364  28.441   3.138
23417W        W88578  24.909  34.120  13.455
23418W        W88579  24.172  27.608  13.312
23419W        W88580  12.021  12.463  14.458
23420W        W88581  23.331  33.633  13.920
23421W        W88582   7.253  43.746   0.922
23422W        W88583   5.864  11.343  13.957
23423W        W88584  15.895  24.698   2.784
23424W        W88585  27.316  36.786   1.864
23425W        W88586  36.967  23.933  11.054
23426W        W88587  24.174  29.592  14.910
23427W        W88588  19.669  16.538   1.413
23428W        W88589  11.881   4.278   1.979
23429W        W88590   5.113  39.680  14.786
23430W        W88591  11.705  30.036  11.034
23431W        W88592  16.089   7.744   3.664
23432W        W88593   6.850  31.420   4.663
23433W        W88594  24.090  30.051   4.391
23434W        W88595  19.671  31.729   0.349
23435W        W88596  24.580   7.680   0.844
23436W        W88597  26.994   1.210   2.364
23437W        W88598  37.041  28.043   2.438
23438W        W88599   6.210   1.755  13.926
23439W        W88600  32.656  25.237   4.030
23440W        W88601  27.735  12.050  13.041
23441W        W88602  18.418  31.818   4.401
23442W        W88603  14.442  40.999   1.445
23443W        W88604  38.407   0.025   4.163
23444W        W88605   5.887  32.648   0.424
23445W        W88606  41.138  30.251   3.361
23446W        W88607  20.604  34.919   0.771
23447W        W88608  24.101   5.669  11.226
23448W        W88609  40.009  17.664   4.124
23449W        W88610  17.313   6.659  13.018
23450W        W88611  37.671   7.131   1.784
23451W        W88612  42.290  25.949  12.938
23452W        W88613  30.408   6.342  13.805
23453W        W88614  10.837  40.565  14.348
23454W        W88615  12.703  36.747   1.536
23455W        W88616   1.325  14.148  11.785
23456W        W88617  12.726  43.069   2.258
23457W        W88618  14.260  44.690  14.584
23458W        W88619  18.309  25.053   4.803
23459W        W88620   3.315  36.851   4.517
23460W        W88621  18.509  22.937   2.618
23461W        W88622   8.087  38.926  14.205
23462W        W88623  12.226  43.765   2.108
23463W        W88624  10.934   6.224   0.844
23464W        W88625   3.372  22.143  14.840
23465W        W88626  26.795   2.093   1.021
23466W        W88627  34.798   2.217  14.604
23467W        W88628  38.087  22.232  13.967
23468W        W88629  39.055  19.524  13.822
23469W        W88630  41.143   7.408   0.292
23470W        W88631   0.339  27.418  10.818
23471W        W88632  37.681  40.957  14.302
23472W        W88633  34.454  12.355  13.951
23473W        W88634  35.171  17.072   5.041
23474W        W88635  22.699  17.526  13.442
23475W        W88636   3.983  27.359  11.106
23476W        W88637  21.263  13.524   2.659
23477W        W88638  20.604  19.212   4.066
23478W        W88639  16.592  28.459   4.858
23479W        W88640  30.072  32.048   3.741
23480W        W88641  32.154  32.157  11.175
23481W        W88642   3.948  28.037  14.819
23482W        W88643   6.490   2.016   0.387
23483W        W88644  26.112  36.846  14.779
23484W        W88645  31.890  44.371   0.515
23485W        W88646  17.760  42.446   1.848
23486W        W88647  31.118  39.501  14.291
23487W        W88648  17.175  23.464   2.891
23488W        W88649   7.286  16.625   2.389
23489W        W88650  40.060  34.060  11.883
23490W        W88651  35.469  39.817  10.343
23491W        W88652   1.386  19.851  14.980
23492W        W88653  22.472  20.261   3.276
23493W        W88654  38.402  40.538  12.305
23494W        W88655  24.902   5.296  12.057
23495W        W88656  32.102  42.888  11.505
23496W        W88657  31.561  15.251   2.778
23497W        W88658   8.553  22.132  14.560
23498W        W88659  38.443  21.529   3.112
23499W        W88660  25.633  35.568  12.033
23500W        W88661  18.500  36.171   1.924
23501W        W88662   0.580  16.120   0.293
23502W        W88663  29.704  36.939   4.472
23503W        W88664  12.426   5.418  12.075
23504W        W88665  12.655  30.309  12.491
23505W        W88666  42.142  31.124   1.915
23506W        W88667  44.275  12.152   3.986
23507W        W88668  28.470  19.203   2.321
23508W        W88669  39.603   5.828  12.826
23509W        W88670  12.251  11.133  13.316
23510W        W88671  16.271  16.416   4.706
23511W        W88672  39.829  39.031   2.020
23512W        W88673  18.658  42.781  14.070
23513W        W88674  26.248  32.521  12.051
23514W        W88675   4.028   2.959   0.439
23515W        W88676  11.784  28.912   1.912
23516W        W88677  13.451  40.906   1.866
23517W        W88678  33.127  30.289  10.133
23518W        W88679  19.094  27.988   1.520
23519W        W88680  16.178  11.740   2.818
23520W        W88681  44.973  23.920   0.961
23521W        W88682  10.786  20.612  11.420
23522W        W88683  24.254  39.917   3.302
23523W        W88684  26.534  12.637   0.990
23524W        W88685  38.905  23.749  11.204
23525W        W88686   0.462  30.603   2.610
23526W        W88687  44.040  24.570  12.540
23527W        W88688  12.464  43.369  12.973
23528W        W88689   3.799  21.171  14.914
23529W        W88690  40.168   2.013   3.786
23530W        W88691   0.226   7.860   3.021
23531W        W88692  36.997  32.883  12.045
23532W        W88693  25.036  30.280   3.895
23533W        W88694   7.649  20.163   0.101
23534W        W88695  21.096   6.382   0.790
23535W        W88696  14.535  19.201  10.306
23536W        W88697   8.440  41.021   0.983
23537W        W88698  11.085  37.935   4.776
23538W        W88699  14.955  41.723  10.717
23539W        W88700  36.292  17.839   0.993
23540W        W88701  32.655  24.167  11.466
23541W        W88702  20.138  29.877  14.421
23542W        W88703  24.258   7.273  10.810
23543W        W88704   5.755   4.187  12.489
23544W        W88705  42.923  11.733   1.980
23545W        W88706   3.188   7.921  12.425
23546W        W88707   6.722  10.475   0.337
23547W        W88708  41.058  30.084   3.840
23548W        W88709   7.912  36.536   2.670
23549W        W88710   4.770  11.269   9.696
23550W        W88711  14.252  35.908   4.029
23551W        W88712  39.381   6.100   4.298
23552W        W88713  11.183  16.655   3.696
23553W        W88714  16.169  27.907   0.291
23554W        W88715  27.048  16.527  10.923
23555W        W88716   9.304   5.524   4.461
23556W        W88717  26.196  39.588  10.179
23557W        W88718  39.610  34.051  12.118
23558W        W88719  33.282  43.310  12.902
23559W        W88720  43.522   2.974  11.548
23560W        W88721   3.675  24.521   3.846
23561W        W88722  38.466  17.071   3.342
23562W        W88723  19.128  42.824   0.338
23563W        W88724   1.306  39.922  10.702
23564W        W88725  15.870  23.900  12.805
23565W        W88726  44.253   6.735   3.217
23566W        W88727   2.214  44.468   1.470
23567W        W88728  31.229   4.128  11.217
23568W        W88729  26.213  35.391  13.000
23569W        W88730  23.671  37.801  11.205
23570W        W88731  39.619   5.383  10.383
23571W        W88732  42.313  13.692  13.605
23572W        W88733   8.284  42.120   4.863
23573W        W88734  12.676  20.152   2.101
23574W        W88735  13.226  26.116   1.267
23575W        W88736  29.560  13.315   1.350
23576W        W88737  28.342  33.150  12.594
23577W        W88738   3.580   8.647  14.501
23578W        W88739  21.451   1.837   4.183
23579W        W88740   9.061  12.930  10.476
23580W        W88741   2.825   6.356  12.977
23581W        W88742   7.488  13.634  11.174
23582W        W88743  44.802  33.099  14.033
23583W        W88744  38.079  14.948   1.484
23584W        W88745  20.523  18.175   1.695
23585W        W88746  41.466  33.400  14.230
23586W        W88747  37.013  44.618  10.897
23587W        W88748  31.678  20.031  14.626
23588W        W88749  22.807  29.402  14.698
23589W        W88750  15.699   0.278   3.290
23590W        W88751   4.923   0.443  13.855
23591W        W88752  39.536  16.616  12.895
23592W        W88753  22.247  17.870  14.858
23593W        W88754  13.408  38.106  12.542
23594W        W88755  43.699  18.833  13.517
23595W        W88756  43.050   7.727   2.804
23596W        W88757  39.851  22.847  13.018
23597W        W88758  13.478  14.573  14.399
23598W        W88759  26.107  20.082   4.278
23599W        W88760  33.111  21.799  11.850
23600W        W88761  44.900  33.370  12.324
23601W        W88762  36.293  13.405   1.079
23602W        W88763  37.966  19.179   0.946
23603W        W88764  42.452   9.810   4.130
23604W        W88765  14.356  19.815  14.727
23605W        W88766  13.098  10.081  13.355
23606W        W88767  23.040  23.471   0.225
23607W        W88768  20.402  14.932  14.926
23608W        W88769   1.705   2.908   0.609
23609W        W88770   6.114  31.209   4.192
23610W        W88771  38.966   8.119   2.281
23611W        W88772  38.526  34.825   0.031
23612W        W88773  33.489  44.018   2.062
23613W        W88774  25.041  20.812   0.043
23614W        W88775  44.138   5.449  14.884
23615W        W88776  23.237  14.098  10.818
23616W        W88777  31.707  36.426  11.550
23617W        W88778  23.237  20.249  14.285
23618W        W88779  44.395  32.585   4.904
23619W        W88780  25.479  41.499  11.111
23620W        W88781  16.564  21.064   0.517
23621W        W88782  12.915  30.022  13.670
23622W        W88783  27.122   6.972   1.927
23623W        W88784  35.552  25.586  14.851
23624W        W88785  21.391  41.599   2.653
23625W        W88786  32.334  39.790  13.421
23626W        W88787  43.922  24.204   2.869
23627W        W88788   1.989  15.067   2.916
23628W        W88789  44.723  21.232   4.545
23629W        W88790  29.213  26.089  14.097
23630W        W88791  10.473   8.260  11.059
23631W        W88792  25.498  24.049   1.851
23632W        W88793  27.373  12.805  13.339
23633W        W88794   6.283  20.685  12.910
23634W        W88795   3.922  35.159  14.355
23635W        W88796   7.183  35.436   0.957
23636W        W88797   4.042  40.676  12.791
23637W        W88798  24.044  32.492   2.798
23638W        W88799  32.947   3.186  12.932
23639W        W88800  12.253   4.989   3.185
23640W        W88801   4.008  18.328   2.801
23641W        W88802  15.187   0.947   0.725
23642W        W88803  10.087   6.805  13.105
23643W        W88804   8.645  22.919  12.033
23644W        W88805   5.234   6.249   4.135
23645W        W88806  36.486  23.695   4.564
23646W        W88807  25.226  37.851  13.218
23647W        W88808  33.019  22.058  13.386
23648W        W88809   4.110   5.943   4.482
23649W        W88810   8.882  29.005  10.750
23650W        W88811  26.041   6.511   0.500
23651W        W88812  24.004  23.467   3.997
23652W        W88813  30.703  40.512   0.376
23653W        W88814  37.033  42.899   4.975
23654W        W88815  16.782  25.131   2.459
23655W        W88816  14.674  17.086  11.174
23656W        W88817   0.024   0.657  13.774
23657W        W88818  15.191   9.918  10.741
23658W        W88819   4.962  38.860   4.538
23659W        W88820  19.514  39.885   0.235
23660W        W88821  24.874  29.904  11.081
23661W        W88822  34.081  12.217  11.114
23662W        W88823  27.262  32.410  12.072
23663W        W88824  10.750  41.608   1.608
23664W        W88825  10.858  37.357   0.518
23665W        W88826   5.391   6.883  13.182
23666W        W88827   2.612  10.718   2.669
23667W        W88828   3.896  40.918  13.728
23668W        W88829  13.047  23.701   2.134
23669W        W88830   9.342  25.665   2.109
23670W        W88831  12.589  26.515   4.540
23671W        W88832   9.283  31.939  11.658
23672W        W88833  16.816  26.103   0.980
23673W        W88834  22.140  19.933  10.918
23674W        W88835  15.169  36.080  12.268
23675W        W88836   7.701  27.631   3.269
23676W        W88837  13.923  31.576  13.527
23677W        W88838   4.334  30.476   0.304
23678W        W88839  10.278  35.315  11.015
23679W        W88840  17.851  32.844  13.189
23680W        W88841  25.974   2.181  12.326
23681W        W88842  14.797   4.863   0.983
23682W        W88843  21.196  31.955   4.056
23683W        W88844  12.209  34.383  14.878
23684W        W88845  11.368   6.224  12.990
23685W        W88846  24.662   4.032   1.439
23686W        W88847  17.235   0.656  13.955
23687W        W88848  39.465  44.368   0.592
23688W        W88849  23.996  10.074   1.738
23689W        W88850   6.759  41.706  12.503
23690W        W88851  12.354   6.406  14.915
23691W        W88852  26.047   5.086  10.446
23692W        W88853  40.074  23.757   4.132
23693W        W88854   7.420  33.575  13.127
23694W        W88855  27.542  30.047  12.823
23695W        W88856  44.884   9.125   3.675
23696W        W88857  22.744   7.345  10.728
23697W        W88858  18.428  25.629  11.597
23698W        W88859   9.271   5.614  13.451
23699W        W88860  25.402  10.964   0.811
23700W        W88861  37.361  19.805   3.794
23701W        W88862  31.593  23.039  12.418
23702W        W88863   9.547  25.463  11.878
23703W        W88864  29.925   9.376   4.980
23704W        W88865   4.067   1.507  12.005
23705W        W88866  33.749   2.906   4.286
23706W        W88867  34.209   4.358   3.317
23707W        W88868  23.350  11.678   9.915
23708W        W88869  39.427   3.196  12.306
23709W        W88870  44.839   1.889   4.575
23710W        W88871  30.551  14.620  10.747
23711W        W88872  11.888  12.390   1.981
23712W        W88873  40.851  21.235  14.350
23713W        W88874  19.966   3.706   3.114
23714W        W88875   5.402  38.716  10.671
23715W        W88876  16.131  36.531   0.400
23716W        W88877  34.001  12.034   3.505
23717W        W88878  27.768  34.243   0.739
23718W        W88879  42.886  39.514   4.196
23719W        W88880  33.107  22.866  12.222
23720W        W88881  20.204  40.491   4.064
23721W        W88882  25.015  41.887   0.846
23722W        W88883  10.271  17.309   4.544
23723W        W88884  15.450  32.752   4.543
23724W        W88885  11.072   9.655   0.201
23725W        W88886  12.624  14.634  11.429
23726W        W88887  34.357   1.214  11.584
23727W        W88888   9.810  44.048  14.834
23728W        W88889  21.506  28.210   2.428
23729W        W88890  11.093   5.629  11.534
23730W        W88891  13.601  28.289   2.134
23731W        W88892  40.300   3.142  14.373
23732W        W88893  29.002  24.433   1.315
23733W        W88894   7.382  35.013  13.576
23734W        W88895  16.414  27.896   2.836
23735W        W88896   4.798   2.437   2.169
23736W        W88897  37.225  12.086   2.449
23737W        W88898   7.625  16.298  14.380
23738W        W88899  26.468  23.220   4.968
23739W        W88900  19.072  21.850  13.570
23740W        W88901   0.329   1.889   0.752
23741W        W88902   7.308  21.726   1.662
23742W        W88903   9.432   2.362   0.013
23743W        W88904  37.537  22.311   4.284
23744W        W88905  22.075  11.845   2.923
23745W        W88906  31.955   1.291   4.590
23746W        W88907   4.292  22.709   1.837
23747W        W88908  21.552  34.884  10.736
23748W        W88909  12.729  20.609  12.963
23749W        W88910  32.384  42.372   3.266
23750W        W88911   9.263  12.664  12.393
23751W        W88912  32.716  13.717   2.835
23752W        W88913   7.316  39.088   3.887
23753W        W88914  22.562  44.774   4.296
23754W        W88915  18.489   1.484  13.478
23755W        W88916   8.128   4.446   2.889
23756W        W88917  24.154  37.850  14.646
23757W        W88918  44.008  26.571  11.179
23758W        W88919   7.299   0.853  14.438
23759W        W88920  43.769  20.859   1.754
23760W        W88921   6.264  29.162  14.378
23761W        W88922  44.454   0.891  13.318
23762W        W88923  17.836  22.759  14.250
23763W        W88924  25.375  14.421   1.240
23764W        W88925   6.341  29.575   4.477
23765W        W88926   2.277  12.626   3.206
23766W        W88927  13.698  33.314   4.631
23767W        W88928  15.691   1.502   1.293
23768W        W88929  26.120   9.015   3.642
23769W        W88930   7.731   6.728  11.562
23770W        W88931  16.167  28.121  13.931
23771W        W88932  18.263  19.769  11.544
23772W        W88933  34.524  30.029  13.949
23773W        W88934  12.278  22.626  11.596
23774W        W88935  23.573   3.972   3.070
23775W        W88936  41.559  41.407   4.718
23776W        W88937  17.299   0.244  14.839
23777W        W88938  41.833   9.365   1.589
23778W        W88939  29.317  10.073   1.723
23779W        W88940   2.431  14.215  13.206
23780W        W88941  15.990  19.961  10.582
23781W        W88942  43.807  18.202   3.604
23782W        W88943  17.719  28.200   0.498
23783W        W88944  18.093  30.526  13.924
23784W        W88945  23.075   5.744  12.085
23785W        W88946  24.998  33.444   1.737
23786W        W88947  37.760   5.572  11.095
23787W        W88948   1.419  37.074  13.960
23788W        W88949   8.363   4.174  12.937
23789W        W88950  25.609  18.667  11.585
23790W        W88951   0.273  30.714  11.188
23791W        W88952   2.734  16.626  11.072
23792W        W88953  18.678  35.477   2.152
23793W        W88954  22.665  22.484  14.476
23794W        W88955  44.232   4.700   2.610
23795W        W88956  15.268   1.410   4.578
23796W        W88957  38.292  42.424   3.222
23797W        W88958  32.165  35.089   1.791
23798W        W88959  31.155  23.508   0.378
23799W        W88960  30.381  32.552   4.597
23800W        W88961  16.511  27.496  13.544
23801W        W88962  20.572  34.164   4.917
23802W        W88963  44.577  10.202  11.477
23803W        W88964  19.213  19.099   3.667
23804W        W88965  39.583  15.082   4.296
23805W        W88966  28.036   8.277   3.176
23806W        W88967  28.428  28.553  11.156
23807W        W88968   8.994  36.556   5.069
23808W        W88969  10.139  15.965   3.281
23809W        W88970  12.375  19.459   3.351
23810W        W88971  36.962  37.783   3.967
23811W        W88972  40.897  13.773   3.475
23812W        W88973  20.855  36.270   1.513
23813W        W88974   4.958  41.549  11.119
23814W        W88975  35.260   1.410   2.862
23815W        W88976  43.433  26.390  13.239
23816W        W88977  12.156  30.531   3.300
23817W        W88978   8.346  33.846   1.097
23818W        W88979  26.052  28.710  12.553
23819W        W88980  42.504  21.416  12.167
23820W        W88981  28.010  22.798   1.277
23821W        W88982  43.228  30.545  13.840
23822W        W88983   0.729  10.203   2.725
23823W        W88984  28.452   3.693  14.311
23824W        W88985  15.578  13.410   4.977
23825W        W88986  41.857  25.436   1.880
23826W        W88987  26.498  10.750   1.452
23827W        W88988  13.701  10.822  11.088
23828W        W88989   0.816  13.898   1.348
23829W        W88990  33.105  12.933  13.423
23830W        W88991  37.486  23.904   0.384
23831W        W88992  36.040  11.492  12.067
23832W        W88993  11.735  33.456  12.336
23833W        W88994  29.641  14.612   4.900
23834W        W88995  36.039  24.597  14.066
23835W        W88996  32.128  10.652   4.346
23836W        W88997  14.149   6.425  11.214
23837W        W88998  40.274  10.406   4.548
23838W        W88999  17.153   9.806  11.065
23839W        W89000  11.689  38.294   1.873
23840W        W89001  36.318  29.866  11.585
23841W        W89002  31.057  39.530   0.689
23842W        W89003  38.860  42.477  11.122
23843W        W89004  41.993  31.144   4.572
23844W        W89005  38.392  40.759   1.026
23845W        W89006   9.084   0.362   3.129
23846W        W89007   7.450  31.703  13.544
23847W        W89008  13.357   2.953  13.274
23848W        W89009  11.871  37.810   0.922
23849W        W89010   8.875  30.701  13.478
23850W        W89011  27.395  43.308  11.078
23851W        W89012  22.297  29.727  10.882
23852W        W89013  29.263  13.778   1.329
23853W        W89014  23.198   7.971   2.018
23854W        W89015  37.332   0.777  11.654
23855W        W89016  28.942  15.109   0.869
23856W        W89017  10.081  27.959   1.330
23857W        W89018   1.049  29.188  11.975
23858W        W89019  12.150   5.474  13.818
23859W        W89020   8.745   2.870   4.281
23860W        W89021  34.931   5.322  14.040
23861W        W89022  17.780   1.183   4.577
23862W        W89023  35.203  19.237  11.603
23863W        W89024  17.932   0.860  11.629
23864W        W89025   6.735  41.197  12.465
23865W        W89026  28.704  33.411  12.320
23866W        W89027  35.604  13.311   4.497
23867W        W89028  12.560  17.738   3.281
23868W        W89029   2.878  30.828   0.957
23869W        W89030  23.159  33.424  10.325
23870W        W89031  13.579  38.582  12.533
23871W        W89032   6.710  11.609  13.762
23872W        W89033   1.331   6.864   4.747
23873W        W89034  18.208  27.893  13.854
23874W        W89035  16.524   6.166  13.913
23875W        W89036  15.132  29.888  11.531
23876W        W89037  43.916  33.026   1.408
23877W        W89038  38.840  38.497   4.507
23878W        W89039  31.497   2.197   1.411
23879W        W89040  12.668  30.656   1.465
23880W        W89041   5.540  29.667   1.106
23881W        W89042   5.853   1.102  14.578
23882W        W89043  27.621  17.530  14.536
23883W        W89044   4.455  42.546  13.969
23884W        W89045  38.075  39.535  14.012
23885W        W89046  34.644  11.586  12.469
23886W        W89047  40.610  37.509   1.104
23887W        W89048  16.220  38.303   3.788
23888W        W89049  31.602  18.789  13.131
23889W        W89050   4.153  31.640   2.170
23890W        W89051  27.719  10.548  14.745
23891W        W89052  34.398   6.794  14.954
23892W        W89053  18.858  28.690  12.907
23893W        W89054   8.289  32.281   4.569
23894W        W89055  31.857  42.887   2.733
23895W        W89056  19.294  43.878  12.132
23896W        W89057  18.599  29.120   1.688
23897W        W89058   2.052  36.618  10.246
23898W        W89059   0.264   8.326   1.786
23899W        W89060   8.681   4.906   0.422
23900W        W89061  20.025  29.505  11.185
23901W        W89062  11.381  28.181   0.702
23902W        W89063   8.195   2.910  12.491
23903W        W89064   9.819  30.524  13.488
23904W        W89065  15.749  38.842   0.368
23905W        W89066   5.133  43.856   3.446
23906W        W89067   8.103   3.770  11.468
23907W        W89068  38.597   7.632   3.137
23908W        W89069  37.503  28.712  11.115
23909W        W89070  36.320  22.014  14.166
23910W        W89071  35.618   1.298  14.997
23911W        W89072  43.370  22.047  13.399
23912W        W89073   4.504  22.059  10.923
23913W        W89074  38.523  42.460   2.196
23914W        W89075  31.664   2.234  13.290
23915W        W89076  32.875  20.917  11.678
23916W        W89077  30.338   0.416   1.443
23917W        W89078  17.837  27.462  12.984
23918W        W89079  38.301  33.021  11.537
23919W        W89080   3.971  19.514  13.919
23920W        W89081  28.724  11.348   4.561
23921W        W89082   1.308  28.345   3.467
23922W        W89083   9.861   6.403  13.996
23923W        W89084   5.226  13.275  12.150
23924W        W89085   8.350  44.796   0.941
23925W        W89086   3.244  20.209   3.793
23926W        W89087  29.133  15.204   2.568
23927W        W89088  27.812   4.022   4.506
23928W        W89089  28.953   3.499  14.278
23929W        W89090  44.776  13.873  12.154
23930W        W89091  24.397  29.972  14.195
23931W        W89092  36.608  34.441  10.685
23932W        W89093  21.337   2.141  13.345
23933W        W89094  11.235   0.092   0.254
23934W        W89095   7.670  38.378   4.381
23935W        W89096  21.356  17.226   9.821
23936W        W89097  41.603  36.492  12.270
23937W        W89098  29.579   0.562   2.169
23938W        W89099  14.415  36.029  12.102
23939W        W89100  36.010   9.877   1.728
23940W        W89101  12.276  13.616   3.954
23941W        W89102  25.260   7.253  10.501
23942W        W89103   1.365  11.242  11.298
23943W        W89104  29.749  42.872  14.330
23944W        W89105  38.010   0.879   0.975
23945W        W89106  10.721   8.594  13.870
23946W        W89107   0.996  33.467  11.871
23947W        W89108   4.632   2.382  11.107
23948W        W89109  12.118  21.190   9.759
23949W        W89110  32.830  24.090   0.682
23950W        W89111   3.339  30.687   3.184
23951W        W89112  21.446  44.029  10.491
23952W        W89113   7.824  39.913   5.023
23953W        W89114  17.433  16.845  11.731
23954W        W89115  37.359  35.052   0.291
23955W        W89116  26.535   6.649   2.818
23956W        W89117  14.655   7.111   0.451
23957W        W89118  36.935  18.142  12.462
23958W        W89119   6.747  28.909   4.696
23959W        W89120  23.545  19.265   0.387
23960W        W89121  27.231  16.307  12.564
23961W        W89122  36.663  31.045   3.443
23962W        W89123  36.165  17.948  14.243
23963W        W89124   5.566  44.844  14.090
23964W        W89125  21.149  44.511   4.148
23965W        W89126  22.998  18.051   2.162
23966W        W89127  14.799  40.903  13.514
23967W        W89128  24.200  38.288   2.720
23968W        W89129  28.973  11.053  11.174
23969W        W89130   0.540  25.610  14.679
23970W        W89131  40.013  27.070   1.648
23971W        W89132  12.923  38.711  11.151
23972W        W89133  15.744  11.164  11.670
23973W        W89134  42.068   3.335  12.025
23974W        W89135  43.232  23.497  11.122
23975W        W89136  42.869   0.199   4.908
23976W        W89137  42.560  43.362  12.446
23977W        W89138   9.754  14.018   0.039
23978W        W89139  18.748   2.483  13.962
23979W        W89140  13.249   6.769   0.260
23980W        W89141  18.068  23.414   3.806
23981W        W89142   1.749  22.413   1.811
23982W        W89143   9.634   4.332   2.302
23983W        W89144   6.968  37.908   2.114
23984W        W89145  22.554  11.317   4.631
23985W        W89146   7.684  34.422  11.139
23986W        W89147  16.873  33.096   3.798
23987W        W89148  21.029   0.517   1.732
23988W        W89149  21.244  28.749  14.515
23989W        W89150  36.098  17.562   3.195
23990W        W89151  11.681  15.100   4.147
23991W        W89152  27.489  44.052   2.599
23992W        W89153  10.637  38.616   3.624
23993W        W89154   1.921  17.551   0.989
23994W        W89155  17.199   8.737   3.274
23995W        W89156  44.832  10.310  13.956
23996W        W89157  20.338  15.571   0.831
23997W        W89158  25.975  14.019  11.618
23998W        W89159   7.756   1.179  13.866
23999W        W89160  28.209  24.744   2.306
24000W        W89161   6.749  32.553  12.969
24001W        W89162   2.709  40.113  13.642
24002W        W89163  35.315  26.805   4.894
24003W        W89164  27.983  43.130   0.463
24004W        W89165   0.185   7.686  12.908
24005W        W89166  34.612   6.713  11.143
24006W        W89167  14.526  35.346   1.421
24007W        W89168  12.415  29.409   1.762
24008W        W89169  19.047  41.253   0.355
24009W        W89170  17.119   1.767  13.038
24010W        W89171  38.391  38.668  11.543
24011W        W89172  34.870   2.797  12.392
24012W        W89173  34.887  40.272   2.029
24013W        W89174  29.975  38.736  14.964
24014W        W89175  17.000   5.671   4.357
24015W        W89176  27.126  36.919   0.733
24016W        W89177  25.192  28.932  11.215
24017W        W89178  18.300  32.059  13.851
24018W        W89179   4.714  10.643  11.590
24019W        W89180  33.876  40.304  12.025
24020W        W89181  20.440  29.985  12.229
24021W        W89182  20.310  17.678   1.740
24022W        W89183  12.868  17.242  12.854
24023W        W89184  44.185   5.847  11.143
24024W        W89185  30.471  16.135  11.603
24025W        W89186  30.174  22.148   9.815
24026W        W89187   0.143  11.670   1.693
24027W        W89188  21.823  25.517  13.547
24028W        W89189  40.390  11.655  11.031
24029W        W89190  41.085   4.796   0.379
24030W        W89191  17.754   6.902   3.949
24031W        W89192   8.705   8.361   2.629
24032W        W89193  25.202  34.658   4.290
24033W        W89194  29.993  18.220   3.247
24034W        W89195  11.836  43.129  13.339
24035W        W89196  15.914  23.411   1.069
24036W        W89197   7.676  13.669   0.350
24037W        W89198  16.626  31.975  14.911
24038W        W89199  24.025  22.197   2.198
24039W        W89200  14.247   0.452  10.086
24040W        W89201  20.173   9.334   4.253
24041W        W89202  39.774   2.918   4.244
24042W        W89203  21.964   5.754  12.921
24043W        W89204   8.390  40.412   3.972
24044W        W89205   7.366  10.857   2.301
24045W        W89206  13.315  30.184  12.461
24046W        W89207  19.856  30.564   1.832
24047W        W89208  41.497  30.277   4.591
24048W        W89209  24.342  16.823  12.010
24049W        W89210  25.127  21.569  12.448
24050W        W89211  25.584  28.205  13.611
24051W        W89212  24.089  36.193  12.029
24052W        W89213   5.733  17.310  14.841
24053W        W89214  35.653   4.386  14.818
24054W        W89215  33.301  20.651  11.609
24055W        W89216  15.096  43.447   4.598
24056W        W89217  31.130  43.267   3.585
24057W        W89218  41.565  10.615  11.261
24058W        W89219  35.461   1.409   3.815
24059W        W89220   5.418  40.054  11.574
24060W        W89221  29.535  36.060   3.277
24061W        W89222  28.079  43.513   2.357
24062W        W89223   0.637  29.182   2.167
24063W        W89224  35.973   7.698  14.465
24064W        W89225  44.212  33.492  13.078
24065W        W89226  29.990   7.701   4.863
24066W        W89227  15.069  16.654   4.798
24067W        W89228  15.066   4.460   4.575
24068W        W89229  39.039  20.529   2.667
24069W        W89230   5.029  15.748  13.441
24070W        W89231  43.503  44.130  10.161
24071W        W89232  36.961  11.908   0.391
24072W        W89233   2.957  31.936  12.104
24073W        W89234   1.139  29.137  13.767
24074W        W89235  24.312  28.010   0.790
24075W        W89236  21.953  19.174   0.399
24076W        W89237  43.677  22.008  11.048
24077W        W89238  24.357  35.971  12.403
24078W        W89239  30.419  11.810  12.897
24079W        W89240   9.625  18.288  13.411
24080W        W89241  23.548  35.302  12.947
24081W        W89242  33.092  37.680  11.149
24082W        W89243   3.884  39.812   0.547
24083W        W89244  20.941  29.499   0.751
24084W        W89245  14.184  43.726  14.248
24085W        W89246  40.378  33.328   2.535
24086W        W89247   4.489  38.817   1.728
24087W        W89248  38.475  35.430   0.795
24088W        W89249  39.485  44.007  13.299
24089W        W89250  32.924   6.980   1.294
24090W        W89251  27.505   6.720   0.729
24091W        W89252  14.692  25.030  11.563
24092W        W89253   5.654   2.969   0.952
24093W        W89254  26.961  16.309  11.699
24094W        W89255  12.865  32.958   4.276
24095W        W89256   6.686  24.877   3.140
24096W        W89257  34.635  23.196   4.226
24097W        W89258  33.961  14.536  12.774
24098W        W89259  29.642   5.208  11.106
24099W        W89260  26.516   7.240   2.924
24100W        W89261   6.992   0.228  13.844
24101W        W89262  12.537  12.375  14.405
24102W        W89263   8.494  13.171   0.659
24103W        W89264  27.641  29.401  13.046
24104W        W89265   1.997  13.686   9.909
24105W        W89266  29.500  24.239   1.307
24106W        W89267  32.711  44.381  12.143
24107W        W89268   1.754  19.517   1.323
24108W        W89269  35.632  37.875  12.883
24109W        W89270  35.045  30.576   5.035
24110W        W89271  13.891  36.381  11.272
24111W        W89272  33.503  26.013   0.414
24112W        W89273  22.590  27.011   3.224
24113W        W89274  16.718  42.827   3.621
24114W        W89275  31.598  29.118  11.520
24115W        W89276  21.594   8.317   4.540
24116W        W89277  36.205  23.342   0.837
24117W        W89278  29.956  31.556   1.441
24118W        W89279  38.154  34.572   3.324
24119W        W89280  12.201  20.226   1.845
24120W        W89281  19.596  23.903   1.408
24121W        W89282  24.392  42.931   4.605
24122W        W89283  33.751   2.282   3.174
24123W        W89284  28.234  24.000  12.000
24124W        W89285  28.427   6.181  13.763
24125W        W89286  30.419  31.105  12.416
24126W        W89287  44.744  13.541  13.904
24127W        W89288  40.043  34.239  14.384
24128W        W89289  32.726   0.944  11.643
24129W        W89290  35.634   9.979  14.300
24130W        W89291  28.607  13.206  10.902
24131W        W89292  31.708   0.274   0.388
24132W        W89293  18.868  15.864  12.417
24133W        W89294   1.912  20.733   4.925
24134W        W89295  28.655  10.286   3.317
24135W        W89296  12.048   2.231  14.937
24136W        W89297  43.695  22.620   2.086
24137W        W89298   7.773  21.503   4.284
24138W        W89299  42.051   2.699  11.510
24139W        W89300  36.752  32.901  14.872
24140W        W89301  44.329  16.558   0.659
24141W        W89302  32.427  33.099   0.751
24142W        W89303  31.240  23.668   3.045
24143W        W89304  40.847   3.373  11.593
24144W        W89305  19.846  25.961   3.379
24145W        W89306  40.744  22.180   3.933
24146W        W89307   8.050  19.565  13.823
24147W        W89308  17.750  22.214  13.369
24148W        W89309  12.668  41.976   1.167
24149W        W89310  23.893  44.047  12.640
24150W        W89311  28.715  17.718   3.298
24151W        W89312  18.902   9.211  14.936
24152W        W89313  32.404  27.927   1.480
24153W        W89314  21.617  38.594  14.421
24154W        W89315   0.898  22.669   3.159
24155W        W89316  13.080  34.529   2.686
24156W        W89317  30.165   8.170  13.361
24157W        W89318   6.287  16.616  14.526
24158W        W89319  37.051  15.619  11.173
24159W        W89320   5.873  10.301   0.436
24160W        W89321  19.255  15.094   2.123
24161W        W89322  18.116   4.902   2.845
24162W        W89323   6.544   5.163   1.645
24163W        W89324  24.009  16.738   4.835
24164W        W89325  17.162  43.048  14.579
24165W        W89326   6.168  24.964   3.105
24166W        W89327   6.918  28.221  13.635
24167W        W89328  34.911   3.953   3.723
24168W        W89329  32.215  18.731  11.551
24169W        W89330   6.800  14.364  11.211
24170W        W89331  31.495   6.873   2.798
24171W        W89332  21.652  19.091   2.974
24172W        W89333  38.403  17.794   1.762
24173W        W89334  17.537  28.889  11.054
24174W        W89335  41.565  43.796  10.812
24175W        W89336  31.521  12.240  10.803
24176W        W89337  25.949  32.037   1.643
24177W        W89338  37.111  31.575  10.707
24178W        W89339   9.923   7.293  12.460
24179W        W89340  18.552   4.431  12.015
24180W        W89341  34.828  13.081  14.810
24181W        W89342  10.786  38.157   3.407
24182W        W89343  41.313   5.544   2.671
24183W        W89344   4.245  23.384  11.981
24184W        W89345  28.408  14.120   3.670
24185W        W89346  27.737  16.272  12.494
24186W        W89347  43.404  16.732  10.539
24187W        W89348  13.702  36.564   0.605
24188W        W89349  38.865  11.026   3.120
24189W        W89350  12.287  10.314   1.791
24190W        W89351  30.588   7.935   4.101
24191W        W89352  37.922  14.093   3.284
24192W        W89353  25.200  33.411   2.212
24193W        W89354  39.353  21.526   3.156
24194W        W89355   7.615  15.298   4.912
24195W        W89356   6.810  27.205   1.400
24196W        W89357  26.763  28.162  11.649
24197W        W89358  14.196  37.039   2.229
24198W        W89359  36.965  43.789   3.246
24199W        W89360   7.267  34.624   0.897
24200W        W89361  31.126  12.197  11.958
24201W        W89362  36.955  25.144   0.312
24202W        W89363   4.423  19.595   1.031
24203W        W89364  16.274  15.909   3.401
24204W        W89365  33.286  31.553  12.477
24205W        W89366   7.600  32.109  13.052
24206W        W89367   7.184  43.739   2.722
24207W        W89368  44.382   5.240  10.696
24208W        W89369  23.841   0.066   0.801
24209W        W89370  23.713  31.161  14.828
24210W        W89371  30.219  19.097  11.848
24211W        W89372  40.995  32.077   3.221
24212W        W89373  10.359  43.295   3.175
24213W        W89374  37.211  40.997  11.331
24214W        W89375  37.025  40.008   0.643
24215W        W89376  16.820  18.563  12.919
24216W        W89377   8.137  44.967   0.488
24217W        W89378  14.145  20.197   4.580
24218W        W89379  39.951  10.880  12.057
24219W        W89380  12.653  21.460   2.872
24220W        W89381  20.529   2.341  14.841
24221W        W89382  34.733  35.450   4.831
24222W        W89383  15.642   1.970   0.571
24223W        W89384   5.677   3.437   2.716
24224W        W89385   5.569  28.001   1.743
24225W        W89386   3.889  35.061   2.203
24226W        W89387  11.836  34.011   4.777
24227W        W89388  27.986   8.893   0.409
24228W        W89389  12.750  29.433   2.655
24229W        W89390  12.401   4.270   2.876
24230W        W89391   3.829  38.357   3.653
24231W        W89392   7.749  43.599   1.041
24232W        W89393   3.776   1.156  13.846
24233W        W89394   0.033  17.345  14.914
24234W        W89395   3.354  25.471  11.165
24235W        W89396  16.053  33.633   0.732
24236W        W89397  24.842   1.717  10.855
24237W        W89398  29.363  16.510  14.895
24238W        W89399  36.838  23.132  10.735
24239W        W89400  12.872  42.012   0.184
24240W        W89401  26.425   0.650   3.788
24241W        W89402  22.110  14.759   1.382
24242W        W89403  31.078  38.608  14.417
24243W        W89404  15.699  22.759   3.222
24244W        W89405  43.061   4.947   2.335
24245W        W89406  23.867   2.024  10.846
24246W        W89407  33.025   9.284  11.667
24247W        W89408   1.967  39.845   2.798
24248W        W89409   4.436   5.173  11.536
24249W        W89410  36.906  32.331  11.995
24250W        W89411  41.880  36.152  10.605
24251W        W89412  30.732  30.506  11.229
24252W        W89413  18.078  40.353   2.359
24253W        W89414   4.950  32.425   2.745
24254W        W89415  16.957   6.344   3.358
24255W        W89416   4.430  34.496   4.657
24256W        W89417  29.257  16.899  10.736
24257W        W89418  21.332   8.638  10.323
24258W        W89419  42.817  44.872   0.006
24259W        W89420  34.860  16.550  14.950
24260W        W89421  23.762  38.373   1.760
24261W        W89422   8.754  28.047   3.764
24262W        W89423  13.907  20.189   0.733
24263W        W89424  26.552  33.145  13.967
24264W        W89425  32.169  13.276   1.140
24265W        W89426   6.682  34.412  11.207
24266W        W89427  16.908  33.146   2.806
24267W        W89428  28.993   2.235  12.939
24268W        W89429  19.812   8.389   0.634
24269W        W89430  44.858   9.175  11.075
24270W        W89431  42.447  44.199   0.531
24271W        W89432  43.554   7.332  10.546
24272W        W89433  40.105  37.890   0.958
24273W        W89434  34.017   0.520   1.981
24274W        W89435   8.867   3.653  14.918
24275W        W89436   5.706  27.751  11.134
24276W        W89437  20.347  22.203  12.453
24277W        W89438  35.285  28.544  14.336
24278W        W89439   0.484  40.505   3.289
24279W        W89440  10.493  37.952  11.978
24280W        W89441  24.410  42.431  14.233
24281W        W89442  25.405  39.364  12.828
24282W        W89443  17.193  27.464   1.942
24283W        W89444  24.602  27.699  14.862
24284W        W89445  36.551  20.004  13.740
24285W        W89446  44.430  27.362   1.819
24286W        W89447  38.050  23.782   0.727
24287W        W89448  16.504   4.891  12.136
24288W        W89449   5.992  28.109   4.670
24289W        W89450  40.326   7.345  13.000
24290W        W89451   9.833   4.132   1.277
24291W        W89452  41.080  20.991  13.952
24292W        W89453  11.658  26.445  10.770
24293W        W89454  18.818  16.166   3.160
24294W        W89455  44.697  18.036   4.023
24295W        W89456  21.417  11.313   3.163
24296W        W89457  21.134  16.615   2.703
24297W        W89458  27.097   8.601  10.685
24298W        W89459  30.529  38.789  10.162
24299W        W89460  37.584   5.711   1.868
24300W        W89461  39.752  17.549   0.720
24301W        W89462  17.179  42.894  13.193
24302W        W89463  44.686  42.007  10.661
24303W        W89464  26.688  13.231   1.818
24304W        W89465  25.591  30.418   0.515
24305W        W89466  11.605  19.475   0.294
24306W        W89467  18.293  18.512   4.503
24307W        W89468  11.531  11.296  10.252
24308W        W89469  21.899  17.607   3.840
24309W        W89470  38.400   7.443  13.530
24310W        W89471  23.796  31.577  13.058
24311W        W89472  11.960  14.077  10.058
24312W        W89473  32.951  36.437  10.803
24313W        W89474   0.991  37.308   1.178
24314W        W89475  37.523  23.505  11.462
24315W        W89476  37.441  40.136   2.511
24316W        W89477  36.894  35.410   1.963
24317W        W89478  40.600  42.174   0.203
24318W        W89479  31.128  29.359  12.520
24319W        W89480  37.388  18.688  12.113
24320W        W89481  44.004  41.627  11.174
24321W        W89482   5.204   3.372  12.526
24322W        W89483  17.235  32.594  12.863
24323W        W89484  11.262  27.777  13.025
24324W        W89485   8.088  38.488  11.995
24325W        W89486  39.801   4.176   0.493
24326W        W89487  14.048   0.764   3.599
24327W        W89488  19.727  11.882   4.666
24328W        W89489  36.207  40.500   4.193
24329W        W89490  19.279  21.151   4.098
24330W        W89491  32.839  27.881  13.919
24331W        W89492  39.010  32.060   1.496
24332W        W89493  11.308  44.773   3.195
24333W        W89494  36.963  37.455  10.733
24334W        W89495   9.712  11.316  13.311
24335W        W89496   5.551  43.650  11.936
24336W        W89497   6.053   7.821  11.222
24337W        W89498  16.749  31.232  13.886
24338W        W89499  12.729  31.880  10.761
24339W        W89500   3.799  34.402  13.875
24340W        W89501  31.754   1.744  11.584
24341W        W89502  37.086  34.037   1.745
24342W        W89503  23.984  35.303   2.519
24343W        W89504   2.468   9.883   1.622
24344W        W89505  29.002  40.360  10.847
24345W        W89506  28.201   1.802  11.510
24346W        W89507  43.654  11.258  14.293
24347W        W89508  18.241  29.176   2.073
24348W        W89509  18.578  34.499  10.846
24349W        W89510   9.326  43.875  13.293
24350W        W89511  42.957  16.965  10.383
24351W        W89512  25.421  37.960  10.807
24352W        W89513   1.443  19.050   0.408
24353W        W89514  23.238   8.290  10.963
24354W        W89515   8.813  17.626   0.361
24355W        W89516   3.877   2.972  11.397
24356W        W89517  28.356   4.837  14.504
24357W        W89518  17.035  35.110  11.073
24358W        W89519  24.973  18.370  11.368
24359W        W89520  20.034   8.914  14.350
24360W        W89521  30.089  17.186   4.748
24361W        W89522  30.573  42.882  10.742
24362W        W89523   7.082  37.560  14.884
24363W        W89524  34.093  39.482  12.482
24364W        W89525   5.478   3.227   1.349
24365W        W89526  15.266   1.161   2.456
24366W        W89527  12.361  14.651   3.123
24367W        W89528  39.831  13.760  10.707
24368W        W89529  35.101  26.235  11.491
24369W        W89530  34.811   8.028  14.458
24370W        W89531   8.756  19.367   3.688
24371W        W89532  34.022  25.187  14.455
24372W        W89533  43.547  25.480  11.197
24373W        W89534   9.435  35.058  11.593
24374W        W89535  25.405  42.558  11.852
24375W        W89536   8.174   2.568  14.083
24376W        W89537  36.832  37.779  11.646
24377W        W89538  38.382  18.725  12.081
24378W        W89539  39.232  19.214   1.459
24379W        W89540  37.728  40.425   4.915
24380W        W89541  19.038  30.009  12.344
24381W        W89542   2.831   4.902  13.825
24382W        W89543   4.323   2.763  11.612
24383W        W89544  24.988  39.882  13.320
24384W        W89545  44.136  20.541  12.942
24385W        W89546  23.109  22.583  10.771
24386W        W89547  32.458  13.027  11.644
24387W        W89548  10.889   1.605   4.359
24388W        W89549  34.822  24.018  11.197
24389W        W89550  38.418  27.786  12.672
24390W        W89551   9.185  27.583   3.294
24391W        W89552  35.197  24.697  13.727
24392W        W89553  23.045  14.811  12.526
24393W        W89554  39.980   4.878  12.051
24394W        W89555  23.778  42.563   4.136
24395W        W89556  17.319  15.211  11.549
24396W        W89557  14.765  43.520   2.432
24397W        W89558  26.973  22.821   9.859
24398W        W89559  16.303   7.340  14.249
24399W        W89560  31.629  37.022   1.939
24400W        W89561  26.553   4.006   1.376
24401W        W89562  42.806  28.125  14.431
24402W        W89563   7.959  16.698  12.097
24403W        W89564  41.494  24.734  12.554
24404W        W89565  36.586  38.104  13.416
24405W        W89566  31.846  37.792  11.601
24406W        W89567  28.275  34.417  11.714
24407W        W89568  25.877   2.770   4.087
24408W        W89569  43.748  14.044   2.323
24409W        W89570  30.614  31.427  14.314
24410W        W89571  23.094  22.274   4.030
24411W        W89572   2.745   9.393   2.301
24412W        W89573  10.515   1.081  14.410
24413W        W89574   9.437   2.408   5.065
24414W        W89575  29.925  26.966   2.877
24415W        W89576  41.897  11.243   1.277
24416W        W89577  31.662  19.580  11.662
24417W        W89578  26.388  30.437   4.250
24418W        W89579  12.825  12.064   1.667
24419W        W89580  11.965  26.115   1.867
24420W        W89581  13.872  38.037   4.861
24421W        W89582  26.937   8.322   1.047
24422W        W89583   5.447  17.884  11.182
24423W        W89584  28.493  41.104  10.533
24424W        W89585   8.113  14.275   2.877
24425W        W89586  11.332  40.513   2.336
24426W        W89587   9.025   6.576   2.224
24427W        W89588  12.762   2.084   0.914
24428W        W89589  11.724  13.342  12.152
24429W        W89590   6.211   1.826  14.969
24430W        W89591  36.192  37.557   1.198
24431W        W89592  16.264  14.009   4.077
24432W        W89593  40.100  19.804  13.849
24433W        W89594  38.482  25.485  14.674
24434W        W89595  43.303  29.751   0.863
24435W        W89596  13.797  22.242   4.147
24436W        W89597  11.107  18.268   0.290
24437W        W89598   7.432  43.467  14.339
24438W        W89599  36.468  26.440   4.643
24439W        W89600  25.951  26.281   0.370
24440W        W89601  18.653  11.857  11.234
24441W        W89602  24.744  31.523  10.666
24442W        W89603  21.917   7.311   0.212
24443W        W89604  35.830  21.156   1.922
24444W        W89605  40.239  30.497   1.735
24445W        W89606   9.277  35.277  11.130
24446W        W89607  14.138   3.763   2.547
24447W        W89608  18.820   6.194  11.849
24448W        W89609   7.935  31.610  13.417
24449W        W89610  34.048  32.993  10.599
24450W        W89611  19.368  42.964  10.731
24451W        W89612  28.587   1.500  12.810
24452W        W89613  27.312  20.788   1.965
24453W        W89614  26.186  14.058   3.260
24454W        W89615  13.887  19.692  11.226
24455W        W89616   1.881  42.450   4.904
24456W        W89617  42.830   2.412  13.017
24457W        W89618  39.120  43.636  10.689
24458W        W89619   3.439  39.934  13.557
24459W        W89620  32.405  32.199   3.570
24460W        W89621  29.463  13.253   5.525
24461W        W89622  37.548  34.422   2.267
24462W        W89623  28.656  44.392   0.980
24463W        W89624  34.909  37.489   0.671
24464W        W89625  24.287  19.984   3.660
24465W        W89626  10.492   0.895  10.673
24466W        W89627  27.251  13.135  12.424
24467W        W89628  31.192  24.128  14.942
24468W        W89629  15.285  20.652   4.170
24469W        W89630  35.148   4.153   0.593
24470W        W89631  37.897  19.237   4.816
24471W        W89632  17.757  38.732  12.048
24472W        W89633   7.453   8.693  10.693
24473W        W89634  30.876  38.594  12.154
24474W        W89635  15.136  19.454   3.688
24475W        W89636  20.598  14.926   3.487
24476W        W89637  10.229  21.404   4.687
24477W        W89638   4.138  32.465   3.127
24478W        W89639  25.185  17.771   2.289
24479W        W89640   2.863  44.518   9.959
24480W        W89641  11.580   5.781  14.857
24481W        W89642  10.386  42.602   2.434
24482W        W89643  30.160  30.712   3.599
24483W        W89644  34.894  31.421  12.796
24484W        W89645  32.683   4.121   1.716
24485W        W89646   6.892   7.755  10.550
24486W        W89647  36.034  15.350  11.664
24487W        W89648   3.585   4.272  13.485
24488W        W89649  43.935   2.302   0.317
24489W        W89650  32.519   5.445  13.476
24490W        W89651  43.845  20.045   2.925
24491W        W89652  42.858  29.168  11.297
24492W        W89653   1.424  32.178   4.535
24493W        W89654  30.535  34.049   3.131
24494W        W89655   5.521  26.591  12.113
24495W        W89656  16.563  14.838  12.519
24496W        W89657  35.699  21.507   2.314
24497W        W89658   1.865   2.862  14.693
24498W        W89659   3.399  25.770   4.152
24499W        W89660  37.989  16.199  12.041
24500W        W89661   1.489   4.707   1.189
24501W        W89662   2.844   0.764  12.067
24502W        W89663   4.687   5.305   0.454
24503W        W89664  30.055   8.335  10.487
24504W        W89665  39.755   4.897  10.145
24505W        W89666  25.849   4.381  11.985
24506W        W89667  20.104  41.323  11.732
24507W        W89668  42.590  18.096   0.824
24508W        W89669  43.312  40.096   4.082
24509W        W89670  28.509  10.750   0.967
24510W        W89671  32.942   0.353  10.834
24511W        W89672  43.421  20.749   4.693
24512W        W89673  42.767   2.398   1.490
24513W        W89674  16.339  30.717  11.938
24514W        W89675   5.706  12.648  12.435
24515W        W89676  35.566  37.610  11.612
24516W        W89677   1.287  18.919  13.527
24517W        W89678  17.487  26.359   2.844
24518W        W89679  19.925  23.061  11.463
24519W        W89680   5.793  42.809  10.363
24520W        W89681   8.952  11.427   1.387
24521W        W89682   6.548  11.643  11.146
24522W        W89683  37.362  33.341   0.194
24523W        W89684  32.080  36.985   1.688
24524W        W89685  37.989  11.412   4.575
24525W        W89686  11.417   0.397   2.753
24526W        W89687  15.355  33.406  13.385
24527W        W89688  12.623   3.418   4.481
24528W        W89689  37.124  39.892  11.005
24529W        W89690  17.556  43.852   3.684
24530W        W89691  25.783   8.182  14.545
24531W        W89692  26.462  14.528   3.850
24532W        W89693   8.504  19.859   0.106
24533W        W89694   3.849  13.355  14.455
24534W        W89695   3.190   1.040   3.681
24535W        W89696  14.157  11.264  13.051
24536W        W89697   0.216  28.742   1.056
24537W        W89698   5.086  27.414  11.828
24538W        W89699   3.705  28.804   1.045
24539W        W89700  34.890   5.768  14.278
24540W        W89701  16.619   5.686  12.453
24541W        W89702   7.369  43.053  12.012
24542W        W89703  22.744  31.689   0.769
24543W        W89704   2.526  28.028  10.695
24544W        W89705   3.823  18.999   2.160
24545W        W89706  35.911  32.069  11.586
24546W        W89707  41.036  44.944   4.524
24547W        W89708   3.297   7.222  10.810
24548W        W89709  27.190   8.709  12.495
24549W        W89710  13.087  12.518   1.410
24550W        W89711  30.594  12.687  11.548
24551W        W89712  24.976  29.342   0.848
24552W        W89713  24.692  26.432   0.365
24553W        W89714  21.189  34.767   0.922
24554W        W89715  19.074  20.886  11.168
24555W        W89716  40.313  42.760   4.720
24556W        W89717  25.696  38.581  12.966
24557W        W89718  22.247  29.795   2.165
24558W        W89719  12.615  23.592   3.116
24559W        W89720  36.205   3.686   4.282
24560W        W89721  17.896  33.032   1.748
24561W        W89722   5.873  40.780   3.227
24562W        W89723  17.583  30.444  11.093
24563W        W89724  24.713  27.619  12.986
24564W        W89725  41.249   4.879  12.855
24565W        W89726  39.047  42.793   3.151
24566W        W89727  26.838   1.906  12.791
24567W        W89728  11.761  43.168  14.172
24568W        W89729  27.555   6.962   1.190
24569W        W89730  23.044  20.707  14.043
24570W        W89731   9.075   0.513   2.294
24571W        W89732  42.810  29.512  13.895
24572W        W89733  40.003  20.736   0.335
24573W        W89734  27.048   7.328   2.561
24574W        W89735   0.912   2.962  14.395
24575W        W89736   5.682  21.532   1.106
24576W        W89737  28.028  18.321  14.824
24577W        W89738  28.510   5.166  13.043
24578W        W89739   2.879  44.356  11.555
24579W        W89740  39.315  18.656   0.446
24580W        W89741  35.898  24.182  14.353
24581W        W89742   6.655  26.934   0.736
24582W        W89743  32.552   9.375   2.585
24583W        W89744  27.530  34.824  10.103
24584W        W89745  17.978  28.986   4.104
24585W        W89746  23.462  43.771  13.535
24586W        W89747  31.573  19.591   3.832
24587W        W89748   1.887  37.781   0.089
24588W        W89749  14.121  35.526   4.337
24589W        W89750  30.699  35.127   1.914
24590W        W89751   8.291  29.914   3.538
24591W        W89752  14.162  12.889  13.649
24592W        W89753  28.863  11.239   1.001
24593W        W89754  24.029  44.234  13.103
24594W        W89755  40.659  30.607  12.341
24595W        W89756  25.966  22.154  14.812
24596W        W89757  14.571  28.137  11.856
24597W        W89758  39.608  24.164  11.108
24598W        W89759  26.156  26.710  13.121
24599W        W89760  32.964  16.999   4.102
24600W        W89761  37.823  21.744   0.815
24601W        W89762   1.733  35.075  12.201
24602W        W89763  21.706  21.166   2.792
24603W        W89764  44.516  31.528  13.851
24604W        W89765  34.550   3.431   3.887
24605W        W89766  17.254   1.902  13.505
24606W        W89767  30.622  37.559  13.375
24607W        W89768  42.744  27.492   1.661
24608W        W89769  44.008  32.698  14.424
24609W        W89770  30.586  13.414  12.533
24610W        W89771  17.117   4.312  11.373
24611W        W89772  14.364  13.891  14.338
24612W        W89773   8.162  12.401  13.034
24613W        W89774  25.042  13.502   4.093
24614W        W89775   4.942  24.886   4.690
24615W        W89776  11.947  32.429  10.415
24616W        W89777  12.384  33.899   1.893
24617W        W89778  38.973  33.700   0.618
24618W        W89779   3.892   7.021   1.947
24619W        W89780   6.714  10.366  11.429
24620W        W89781  28.616  44.209  12.296
24621W        W89782   8.204  22.429   4.921
24622W        W89783  26.064  39.155  14.696
24623W        W89784  34.052  34.005   2.474
24624W        W89785  10.749  14.556  13.570
24625W        W89786   2.914  11.077  14.862
24626W        W89787  23.996  21.284  13.146
24627W        W89788  44.275  26.270   3.371
24628W        W89789   5.972  28.168   2.784
24629W        W89790   8.116  22.427  11.021
24630W        W89791  12.129   9.353   1.503
24631W        W89792   8.115  20.250   3.787
24632W        W89793   7.210  37.865   3.461
24633W        W89794  10.257  21.453  12.011
24634W        W89795   9.250   2.756  12.513
24635W        W89796  25.182   1.225  12.945
24636W        W89797   2.454  13.818  13.544
24637W        W89798  10.596  13.353   3.854
24638W        W89799  41.127  18.848  14.845
24639W        W89800   4.488  29.543  10.556
24640W        W89801  44.831  10.101  12.663
24641W        W89802   6.794   5.789   4.955
24642W        W89803  12.929  35.838   1.718
24643W        W89804   8.765   8.632   1.717
24644W        W89805  30.267  15.367  14.457
24645W        W89806   6.833  12.485   4.246
24646W        W89807   2.434  25.041   1.818
24647W        W89808   0.988  13.814  12.603
24648W        W89809  11.850   2.719  12.584
24649W        W89810  34.075   9.297   1.828
24650W        W89811  12.729  27.856   0.316
24651W        W89812  36.349  14.290  14.343
24652W        W89813  19.319  42.591   0.817
24653W        W89814   7.707  38.966   0.005
24654W        W89815  40.615  19.449   2.283
24655W        W89816  20.095  22.806  13.189
24656W        W89817  35.354  32.290   3.732
24657W        W89818  33.664  35.288  13.630
24658W        W89819  39.842  36.528  12.952
24659W        W89820   4.230  22.159   3.687
24660W        W89821  14.845  11.545  11.217
24661W        W89822  40.356  25.762   1.822
24662W        W89823  38.158  13.475   1.375
24663W        W89824  27.168  12.847   2.033
24664W        W89825  19.702  29.497  12.802
24665W        W89826  31.472  27.542  11.679
24666W        W89827  37.514  13.686  12.084
24667W        W89828  32.231  16.649  12.445
24668W        W89829  10.765  18.051   0.940
24669W        W89830  36.551  21.764  11.936
24670W        W89831  25.035  11.402  14.013
24671W        W89832  29.010  43.684   0.780
24672W        W89833  26.356  14.063   0.452
24673W        W89834   6.165  41.210   0.903
24674W        W89835  32.892  30.945   2.506
24675W        W89836   3.256   3.438   4.291
24676W        W89837   8.793  27.343  14.482
24677W        W89838  13.145  15.156  14.424
24678W        W89839   0.573  34.863  10.658
24679W        W89840   8.130  10.210  12.081
24680W        W89841  44.324  13.613  12.055
24681W        W89842   6.150   1.777   2.415
24682W        W89843  17.098   4.755   3.865
24683W        W89844  42.019  21.660   4.060
24684W        W89845  28.715  20.612   1.266
24685W        W89846  27.601   4.723   3.520
24686W        W89847  35.517  37.125  11.748
24687W        W89848  14.253  14.602   3.109
24688W        W89849  28.165  17.075   4.096
24689W        W89850  38.443  11.186   3.824
24690W        W89851  34.398  29.886  13.016
24691W        W89852  24.934   2.805   4.259
24692W        W89853  10.395  12.856   0.598
24693W        W89854   0.323  24.496   3.702
24694W        W89855  42.504  22.155   1.584
24695W        W89856  29.010  12.901   5.091
24696W        W89857  22.249  40.950  10.740
24697W        W89858  35.545  17.840  13.856
24698W        W89859  38.886  33.304   0.289
24699W        W89860  37.995   3.006   4.428
24700W        W89861   1.663  20.380   1.731
24701W        W89862  23.028  21.231  10.221
24702W        W89863  29.619  38.560   1.761
24703W        W89864  30.499  11.449   0.498
24704W        W89865  28.944  12.345   4.965
24705W        W89866  16.818  14.722  11.046
24706W        W89867  30.430  39.448  13.962
24707W        W89868  42.749  13.840   1.255
24708W        W89869  20.260  14.155  14.506
24709W        W89870   9.724  11.583  14.412
24710W        W89871   6.171  22.162  14.987
24711W        W89872  11.810  20.364  11.129
24712W        W89873  25.110  24.627  10.870
24713W        W89874   0.607  41.548  14.480
24714W        W89875   0.441  26.520  10.711
24715W        W89876  38.790  14.820   0.930
24716W        W89877  40.903  22.531   2.920
24717W        W89878  32.453   4.660   4.095
24718W        W89879  18.574  30.017  12.110
24719W        W89880  15.085   4.493  12.081
24720W        W89881  34.969  16.277   1.532
24721W        W89882   6.500   5.326   4.471
24722W        W89883  31.615  34.457  12.555
24723W        W89884  30.882  13.783  10.398
24724W        W89885  26.086  16.524  14.981
24725W        W89886  31.949  17.426   4.766
24726W        W89887   2.244  15.351  14.772
24727W        W89888   6.736   4.923  10.203
24728W        W89889  32.705  37.296   4.598
24729W        W89890   4.485  36.876   3.266
24730W        W89891  23.586  38.068   9.989
24731W        W89892   2.973  17.621  14.543
24732W        W89893   2.218  28.183  10.243
24733W        W89894   2.783  23.900   1.325
24734W        W89895  42.954   1.199  14.948
24735W        W89896  18.148  18.465   2.781
24736W        W89897  38.301  11.848   4.614
24737W        W89898  33.831   5.354   3.259
24738W        W89899  29.128  24.144   1.760
24739W        W89900  33.548  21.711   4.819
24740W        W89901  14.692  39.729   1.507
24741W        W89902  20.949  21.144   3.420
24742W        W89903  43.948   9.887   1.740
24743W        W89904  26.457   0.314  12.656
24744W        W89905   7.778  23.550   2.669
24745W        W89906  11.202   4.261  13.360
24746W        W89907  24.908  16.158   0.199
24747W        W89908  17.252   1.253  12.945
24748W        W89909  35.174  12.501  10.344
24749W        W89910  36.670  40.006   0.263
24750W        W89911  22.209  28.095   4.315
24751W        W89912   8.358  13.868   1.732
24752W        W89913   5.850  34.776   4.148
24753W        W89914   9.883  20.164   1.987
24754W        W89915  25.512  24.010   1.009
24755W        W89916   0.204  11.103   0.317
24756W        W89917  15.179  25.740   4.082
24757W        W89918   0.821  33.535  12.344
24758W        W89919  14.630  23.672   4.283
24759W        W89920  34.673  37.992   3.515
24760W        W89921  21.734  19.639   0.328
24761W        W89922  15.045  29.115   1.106
24762W        W89923  26.673   8.165  14.141
24763W        W89924  11.447   2.187   1.720
24764W        W89925  43.973   6.141   3.611
24765W        W89926  28.696   1.013  12.590
24766W        W89927  13.645  11.300   4.615
24767W        W89928  19.234  19.959  14.754
24768W        W89929   2.949  38.762   4.719
24769W        W89930  37.156  22.472   2.842
24770W        W89931   3.891  13.448   0.362
24771W        W89932  18.696   6.096  12.372
24772W        W89933  40.401   0.638  10.740
24773W        W89934  37.601  17.981   2.200
24774W        W89935  32.821  24.109   5.332
24775W        W89936  11.004  44.210  10.193
24776W        W89937  30.521  44.023  10.524
24777W        W89938  42.354  13.824  12.004
24778W        W89939   8.120  42.283  14.814
24779W        W89940   1.932  19.063  11.571
24780W        W89941   2.782  32.414   1.825
24781W        W89942   0.262  14.287  14.476
24782W        W89943  34.888  32.929  12.118
24783W        W89944  13.227  11.675  12.326
24784W        W89945  14.228  33.289  12.984
24785W        W89946   2.336   9.187   2.625
24786W        W89947  43.287  43.431  14.644
24787W        W89948  24.759   8.973   1.321
24788W        W89949  31.075  43.474  13.563
24789W        W89950   6.156   8.190  10.904
24790W        W89951  10.330  31.013  14.267
24791W        W89952   2.432  40.830   1.720
24792W        W89953   1.212  17.615  11.513
24793W        W89954   7.927  20.612  12.565
24794W        W89955  34.939  25.606   2.770
24795W        W89956   1.350   0.526  13.812
24796W        W89957  37.136  34.844  14.868
24797W        W89958  15.226  17.573   1.358
24798W        W89959  32.468  20.529   3.534
24799W        W89960  17.957  44.735   1.971
24800W        W89961  35.506  24.804  14.139
24801W        W89962   0.958  22.416   5.203
24802W        W89963  36.845  36.121   0.664
24803W        W89964   9.255  34.124  13.440
24804W        W89965  40.352  42.872  13.374
24805W        W89966  22.592  28.200   4.666
24806W        W89967  33.642  29.113   1.477
24807W        W89968  41.083  30.379   0.400
24808W        W89969   7.160  15.415  14.301
24809W        W89970   8.540  28.252  12.023
24810W        W89971  44.314   8.342   0.262
24811W        W89972  40.228  15.873   3.691
24812W        W89973  38.999  44.423   3.632
24813W        W89974  17.136  16.897   2.865
24814W        W89975  42.051  36.891  13.815
24815W        W89976  18.746  35.871  10.699
24816W        W89977  23.443   8.785  14.872
24817W        W89978   3.576  22.505  10.244
24818W        W89979  30.010   9.274   1.781
24819W        W89980   6.531   3.273  14.803
24820W        W89981   7.804   3.452   0.451
24821W        W89982  30.941  31.163   4.772
24822W        W89983  32.308  15.329   3.149
24823W        W89984   1.789   6.634   4.626
24824W        W89985   8.163  39.893  14.474
24825W        W89986   3.414  21.593   4.335
24826W        W89987   6.414  31.778  10.708
24827W        W89988  38.628  30.223  14.029
24828W        W89989  39.511   8.227  11.017
24829W        W89990  27.081   3.492  14.202
24830W        W89991  23.010  34.389   0.439
24831W        W89992  28.768   9.785   4.839
24832W        W89993  24.534  32.938   0.875
24833W        W89994  35.512   9.338  14.819
24834W        W89995  23.475  22.445  10.423
24835W        W89996  30.596  17.367  12.598
24836W        W89997  19.185  36.986   4.050
24837W        W89998  20.573  26.304  11.927
24838W        W89999  21.236  41.110  12.512
24839W        W90000   0.728  11.936   5.089
24840W        W90001  20.017  41.889  14.554
24841W        W90002  17.789   6.739   0.054
24842W        W90003  34.440  18.169   2.303
24843W        W90004  29.425  41.984  11.959
24844W        W90005   0.163  12.140  13.061
24845W        W90006   8.240  21.722   4.159
24846W        W90007   2.347  33.621  13.851
24847W        W90008  14.509  39.092  13.993
24848W        W90009  19.721   2.921  13.296
24849W        W90010   8.180  35.643   0.787
24850W        W90011  17.465  35.995  12.333
24851W        W90012  43.757  12.323   0.300
24852W        W90013  12.378  29.527   4.239
24853W        W90014  23.601  35.627  13.521
24854W        W90015   4.009  34.916   2.696
24855W        W90016  21.504   5.383   0.790
24856W        W90017   4.130  17.599  13.763
24857W        W90018  22.794  41.028  13.904
24858W        W90019  24.872  43.754  14.429
24859W        W90020  11.425  20.989   1.709
24860W        W90021  38.754  42.964  12.916
24861W        W90022  21.156   9.433   3.612
24862W        W90023  18.867  15.780   2.795
24863W        W90024  18.868  30.437  10.860
24864W        W90025  28.055  18.872   2.269
24865W        W90026  34.815   2.282   1.034
24866W        W90027   8.972  41.180   1.775
24867W        W90028   1.793  21.314  14.785
24868W        W90029  19.325   9.407  14.722
24869W        W90030  31.670  40.478  13.364
24870W        W90031  34.614  33.004  11.132
24871W        W90032   2.870   4.827  12.420
24872W        W90033   3.477   1.307   4.162
24873W        W90034  16.710  12.621  11.121
24874W        W90035  21.110   0.312   2.202
24875W        W90036  28.708  44.559  13.045
24876W        W90037  23.972  12.347  14.411
24877W        W90038  22.629   5.221  13.542
24878W        W90039  32.175  18.197  11.586
24879W        W90040  12.588  19.409   3.847
24880W        W90041  23.603  10.359   1.042
24881W        W90042  37.599   8.749  12.644
24882W        W90043   9.240  43.682   0.638
24883W        W90044  10.258   3.815   4.393
24884W        W90045  24.033   5.643   1.904
24885W        W90046   1.337  28.037   1.765
24886W        W90047   2.844  11.754  11.152
24887W        W90048  13.622  19.427   4.572
24888W        W90049  16.834  22.159  13.320
24889W        W90050   6.281  29.448   1.684
24890W        W90051   6.819  42.815  13.094
24891W        W90052   6.630  43.347   3.197
24892W        W90053  44.068  19.160   3.727
24893W        W90054  19.597   7.890   5.157
24894W        W90055  29.022  38.894   1.340
24895W        W90056  21.077   3.227  11.989
24896W        W90057  43.715  40.627   3.297
24897W        W90058  38.508  36.139   0.447
24898W        W90059  43.176  40.557   4.984
24899W        W90060  42.070  37.361   2.362
24900W        W90061  30.554   7.558  10.838
24901W        W90062  26.765  13.814   2.436
24902W        W90063  32.124   2.115   4.511
24903W        W90064   5.632  10.519  14.113
24904W        W90065   9.242   6.998   1.410
24905W        W90066   1.524   5.743   1.210
24906W        W90067  10.584   2.396  11.145
24907W        W90068  41.274  34.044  11.730
24908W        W90069  43.364   7.311  14.905
24909W        W90070  38.410  38.474  12.455
24910W        W90071  40.822  35.678  12.897
24911W        W90072  34.546  29.570   4.635
24912W        W90073   8.764  16.808  14.085
24913W        W90074  17.357   0.951  13.528
24914W        W90075   3.712  36.218  10.777
24915W        W90076   5.702  12.247  13.781
24916W        W90077  19.770  43.202  11.076
24917W        W90078  35.460  42.006   1.759
24918W        W90079  24.738  15.200   4.630
24919W        W90080  26.203  27.538  11.518
24920W        W90081  10.620  16.308  11.411
24921W        W90082  16.628  27.281   1.802
24922W        W90083  34.965  28.923  11.469
24923W        W90084  22.582   4.414  12.287
24924W        W90085   7.709  43.857  13.712
24925W        W90086  14.636   7.628   0.483
24926W        W90087  27.261  12.757  12.794
24927W        W90088  34.486  38.039   0.324
24928W        W90089  34.042  25.486  14.002
24929W        W90090   8.188   0.754   4.626
24930W        W90091  22.121  25.035   4.461
24931W        W90092   3.528   3.987  12.494
24932W        W90093  15.915  24.769  10.698
24933W        W90094  40.798  23.901   3.302
24934W        W90095  36.176  39.348  11.890
24935W        W90096  19.501  21.638  14.463
24936W        W90097   3.231  18.076   3.163
24937W        W90098  29.158  41.218  13.570
24938W        W90099  30.548  43.359   2.884
24939W        W90100   6.010  40.918   2.389
24940W        W90101  12.736   9.615   2.661
24941W        W90102   2.408   1.345  10.901
24942W        W90103   5.098  19.647   4.262
24943W        W90104   7.645  10.656  14.957
24944W        W90105   5.666  12.234  11.797
24945W        W90106  15.040  19.259  14.976
24946W        W90107  14.622   3.476  11.081
24947W        W90108   1.227  18.021   4.936
24948W        W90109  12.710   8.322  13.790
24949W        W90110  37.239  18.633   0.834
24950W        W90111  28.952  29.763  11.862
24951W        W90112  31.448  21.677  11.406
24952W        W90113  14.668  10.464   2.384
24953W        W90114  42.917  27.643   2.691
24954W        W90115  14.242  42.322   0.403
24955W        W90116  26.629  14.266   4.971
24956W        W90117  22.252   8.875  12.022
24957W        W90118  26.110  32.844  13.301
24958W        W90119  23.095  17.429  11.118
24959W        W90120  40.505   7.418   1.246
24960W        W90121   2.321  43.979  13.866
24961W        W90122   0.051  20.486  13.824
24962W        W90123  36.666   0.732   4.152
24963W        W90124  19.262   2.886  13.528
24964W        W90125  37.480  16.165   4.123
24965W        W90126  24.775  17.630  10.758
24966W        W90127   9.776  38.944  11.440
24967W        W90128  32.091  40.774  11.651
24968W        W90129   9.636  39.923  11.664
24969W        W90130   1.758   3.514   3.725
24970W        W90131  44.803  34.115  13.952
24971W        W90132  10.798  11.180   3.242
24972W        W90133  26.165  24.182   0.749
24973W        W90134  41.279   0.721   1.162
24974W        W90135  21.107  33.605   3.267
24975W        W90136  33.836  20.640  12.602
24976W        W90137  44.247  37.826   3.080
24977W        W90138  30.981  36.130   1.731
24978W        W90139  33.571  32.091  13.989
24979W        W90140   6.785  33.126  10.695
24980W        W90141  16.592  38.546   2.434
24981W        W90142   5.381  37.811   0.148
24982W        W90143   6.438   0.921  11.152
24983W        W90144  31.720   9.002  11.985
24984W        W90145   8.655  18.971  13.946
24985W        W90146  19.551   6.318  11.139
24986W        W90147   4.741  22.751  11.466
24987W        W90148  13.095  12.357  11.501
24988W        W90149  19.011   1.521  13.473
24989W        W90150  17.818  30.225  10.671
24990W        W90151  19.190  15.553   2.437
24991W        W90152   3.262  32.360  11.941
24992W        W90153  18.387  29.986   2.653
24993W        W90154  37.030   9.467  13.756
24994W        W90155   3.866  29.111   3.588
24995W        W90156   2.811  22.619   2.880
24996W        W90157  30.389  31.201  11.513
24997W        W90158  30.902  41.655  14.414
24998W        W90159  27.530  23.097   2.408
24999W        W90160  11.665  41.978  11.665
25000W        W90161  13.133  19.209   4.611
25001W        W90162   0.366  14.921   3.636
25002W        W90163   9.288  44.896   3.186
25003W        W90164   6.628  21.521   0.929
25004W        W90165  13.589   9.173   0.420
25005W        W90166  28.530  13.756  12.976
25006W        W90167  39.519   5.021  13.516
25007W        W90168  32.618  13.512   0.226
25008W        W90169  28.487   6.989   4.200
25009W        W90170  10.676  11.677   3.174
25010W        W90171  21.768  41.537   0.254
25011W        W90172  38.975   1.797  11.992
25012W        W90173   0.780  28.178   1.738
25013W        W90174  22.621  19.741   1.823
25014W        W90175  27.195   6.356  10.817
25015W        W90176  30.750  40.875   4.627
25016W        W90177   0.915  19.551  12.558
25017W        W90178  12.974  35.339  11.278
25018W        W90179   2.505   5.950   1.425
25019W        W90180  25.514  30.720   4.129
25020W        W90181  15.528  37.034   3.753
25021W        W90182   2.928   0.453  12.573
25022W        W90183   6.715  21.011   0.924
25023W        W90184  24.129   9.888  11.118
25024W        W90185  20.272   1.554   3.899
25025W        W90186   6.238  14.312   0.309
25026W        W90187  23.047   0.287   3.739
25027W        W90188  25.421  11.423  12.085
25028W        W90189  17.317  33.882   2.681
25029W        W90190  11.706  42.830   4.949
25030W        W90191   9.392  19.285   1.957
25031W        W90192  37.945   2.469   2.586
25032W        W90193  27.785  16.604   3.828
25033W        W90194  11.286   7.892   0.158
25034W        W90195  38.649  24.207  12.559
25035W        W90196  21.372   9.820  10.108
25036W        W90197   3.524  40.162  10.921
25037W        W90198   4.526  39.871  13.302
25038W        W90199  19.380   0.966   4.147
25039W        W90200  40.421  44.730  12.528
25040W        W90201  42.012  10.316   4.132
25041W        W90202  33.992   7.912   4.653
25042W        W90203  25.821   7.514   3.132
25043W        W90204  43.060  41.609   2.265
25044W        W90205  18.638  36.460   4.584
25045W        W90206   6.748  34.139  10.690
25046W        W90207  33.431  18.821  12.014
25047W        W90208  13.658   0.531  10.856
25048W        W90209  41.260  28.580   3.910
25049W        W90210   0.943  39.473  13.253
25050W        W90211   2.700  10.655   4.238
25051W        W90212  36.351   7.610   2.148
25052W        W90213  22.921  12.276  10.639
25053W        W90214  26.172  17.028   3.690
25054W        W90215  40.587  17.321  13.570
25055W        W90216  24.468  41.532  11.174
25056W        W90217  34.989  44.407   1.204
25057W        W90218  22.768  17.154  11.583
25058W        W90219  44.002  36.532   4.037
25059W        W90220  43.203   0.949   4.997
25060W        W90221  14.145  39.007  11.247
25061W        W90222  24.265  23.069   1.780
25062W        W90223  30.830   8.758   4.110
25063W        W90224  29.379  33.914   1.531
25064W        W90225  13.340  31.223  12.968
25065W        W90226  24.990  24.919  11.808
25066W        W90227  13.627  33.419   3.727
25067W        W90228  35.925  20.167   4.551
25068W        W90229  10.234   3.903   3.905
25069W        W90230  27.012   5.335   1.468
25070W        W90231  35.897  18.493  13.138
25071W        W90232   9.733  31.867   4.465
25072W        W90233  34.728  17.993   5.176
25073W        W90234  10.819  29.361   1.534
25074W        W90235  15.774   2.806  11.364
25075W        W90236  15.628   4.070  13.543
25076W        W90237  24.276  33.336  12.962
25077W        W90238  29.044  27.161   0.053
25078W        W90239  34.388   8.279   4.578
25079W        W90240  30.635  28.157  13.047
25080W        W90241  20.612  17.299   1.172
25081W        W90242   6.421  30.461  14.966
25082W        W90243   3.535  40.605  11.197
25083W        W90244  40.857  25.654   3.195
25084W        W90245  21.956  43.299   2.390
25085W        W90246  37.939  42.043  13.606
25086W        W90247  43.407   0.554   0.540
25087W        W90248  33.298   1.251  11.173
25088W        W90249  14.304  34.942   0.183
25089W        W90250   7.754  43.408  10.610
25090W        W90251  14.165  20.867  12.904
25091W        W90252   0.789  32.062   1.320
25092W        W90253  20.286  39.661  12.467
25093W        W90254  18.283  23.083  14.072
25094W        W90255  32.318  20.611  12.458
25095W        W90256   5.822   8.120  14.178
25096W        W90257  16.337  37.842   3.128
25097W        W90258  21.271  43.234   3.855
25098W        W90259  37.092  11.635   2.266
25099W        W90260  20.524  36.764  13.975
25100W        W90261   7.257  13.922   3.147
25101W        W90262   1.954   7.363   4.137
25102W        W90263  34.715  26.642   2.398
25103W        W90264  21.170  14.102   1.789
25104W        W90265   0.253  30.092   3.266
25105W        W90266  13.681  26.380   2.202
25106W        W90267  13.189  34.430  13.867
25107W        W90268   3.845   7.782   2.585
25108W        W90269  16.620  29.920   4.405
25109W        W90270   8.532  19.843   5.121
25110W        W90271  31.402   1.753   2.717
25111W        W90272   1.909  31.823   3.750
25112W        W90273  42.880  30.564   2.386
25113W        W90274  37.880  33.321   0.252
25114W        W90275   6.918  27.902   2.675
25115W        W90276  33.368  36.930   2.334
25116W        W90277  44.423  23.103  13.750
25117W        W90278  12.354  24.944   1.445
25118W        W90279  37.455   8.257   1.276
25119W        W90280   8.787  43.412  12.300
25120W        W90281   8.017  11.734   0.133
25121W        W90282  21.755  27.479   4.240
25122W        W90283  13.527  37.092   0.701
25123W        W90284  29.520  19.746   2.792
25124W        W90285   8.785  30.538   1.283
25125W        W90286   5.451  11.854   2.755
25126W        W90287  38.846   8.474   1.318
25127W        W90288   0.233  36.406   1.828
25128W        W90289  41.383  13.801   3.621
25129W        W90290  12.047   0.879  10.744
25130W        W90291  22.445  27.665   1.827
25131W        W90292  11.715  34.434   1.024
25132W        W90293  36.262  33.135   3.208
25133W        W90294  42.128  43.339   2.758
25134W        W90295   4.913  27.293  13.463
25135W        W90296  22.624   6.862   2.839
25136W        W90297  38.672  26.667   1.308
25137W        W90298  23.455  37.081   0.450
25138W        W90299  37.987   6.663   3.663
25139W        W90300  25.406   5.174  12.118
25140W        W90301   5.256  24.321  12.240
25141W        W90302   0.618  40.615   0.175
25142W        W90303  27.730   2.817   2.775
25143W        W90304  40.940  12.271   3.989
25144W        W90305  35.044   9.857  10.682
25145W        W90306  30.598  12.703   3.499
25146W        W90307  38.539   0.173   1.441
25147W        W90308  22.002  43.415   4.208
25148W        W90309  12.549  41.775  11.190
25149W        W90310  19.261  30.223  14.823
25150W        W90311  22.574   7.600  12.579
25151W        W90312  10.332   9.135   3.691
25152W        W90313  36.668  28.653   4.673
25153W        W90314  17.698  37.453  10.791
25154W        W90315   2.760  26.159   9.726
25155W        W90316   3.991  19.216   1.703
25156W        W90317  14.346   5.222  10.518
25157W        W90318  33.417   1.451   0.824
25158W        W90319   0.269   2.697   0.242
25159W        W90320   1.511   4.958  12.083
25160W        W90321  21.724  13.151   4.513
25161W        W90322  11.467  44.157   3.985
25162W        W90323  21.843  39.813   3.610
25163W        W90324   9.852   8.389   0.225
25164W        W90325  38.329  34.966   1.372
25165W        W90326  17.158  35.700   0.823
25166W        W90327   9.338  44.228  12.512
25167W        W90328  26.644   6.394  11.524
25168W        W90329  41.648   7.716   2.232
25169W        W90330  44.967  18.522   3.294
25170W        W90331  23.961  28.382   0.859
25171W        W90332  28.889   6.584   1.826
25172W        W90333  22.693   1.332   3.438
25173W        W90334  35.582  41.006   3.624
25174W        W90335  33.054  19.964  13.498
25175W        W90336  43.344  43.004   1.830
25176W        W90337  31.497  12.165  11.315
25177W        W90338  36.317  18.665  13.381
25178W        W90339  24.666  17.987   3.200
25179W        W90340   7.376  34.669  10.793
25180W        W90341  23.773  31.425   0.303
25181W        W90342   1.428  41.432   3.842
25182W        W90343  12.853  15.243  13.020
25183W        W90344  17.606  14.556  14.362
25184W        W90345  36.820  33.307  14.442
25185W        W90346   6.302  19.749   2.138
25186W        W90347  26.643  24.699  13.572
25187W        W90348  22.519  40.505  11.426
25188W        W90349  25.517  43.553   2.765
25189W        W90350  34.527  21.447  14.337
25190W        W90351  32.375  32.607   0.878
25191W        W90352  35.907  18.222  11.401
25192W        W90353  39.986   2.937  11.634
25193W        W90354  30.336   6.256  14.764
25194W        W90355  21.053   2.447   1.564
25195W        W90356  16.107  31.578   4.547
25196W        W90357  29.168  25.151  11.195
25197W        W90358  40.599  12.321   0.158
25198W        W90359   6.423  35.926   1.724
25199W        W90360  11.822  43.369  11.933
25200W        W90361  33.447  13.232   1.873
25201W        W90362   8.102  28.010   1.979
25202W        W90363  20.251  38.770   0.966
25203W        W90364  44.992  12.969   0.129
25204W        W90365  37.367   6.348  10.689
25205W        W90366  14.339  22.344   3.080
25206W        W90367   8.364   1.940   3.615
25207W        W90368   0.238  27.641  14.974
25208W        W90369  28.865  24.568  14.878
25209W        W90370   3.888  10.967   2.773
25210W        W90371  24.582  37.483   5.496
25211W        W90372  33.504  20.887  11.184
25212W        W90373   0.480  16.149   1.318
25213W        W90374  34.483  27.456   2.125
25214W        W90375  36.512   6.382  14.492
25215W        W90376  42.736   8.482  11.753
25216W        W90377  31.605  23.565  12.786
25217W        W90378  38.659  40.677  11.032
25218W        W90379   9.151  22.586   0.035
25219W        W90380  12.353  14.742   1.348
25220W        W90381   5.875   7.793   3.347
25221W        W90382  39.050  35.386  11.661
25222W        W90383  37.903  12.399  13.465
25223W        W90384  36.115  21.420  13.852
25224W        W90385  17.507   7.908  14.442
25225W        W90386  37.771  13.444  11.721
25226W        W90387   0.472  14.724  13.888
25227W        W90388  31.908   2.426  14.506
25228W        W90389   0.666  43.152  11.715
25229W        W90390   2.694  18.233  10.696
25230W        W90391  26.497  36.459  12.933
25231W        W90392  25.490  27.899  14.616
25232W        W90393   7.511   3.230  13.883
25233W        W90394  42.942  35.873   1.971
25234W        W90395  13.275  38.674  13.465
25235W        W90396  19.592   6.784  14.391
25236W        W90397  26.764  17.847   2.248
25237W        W90398  16.559  25.386   3.904
25238W        W90399  41.778  33.825  12.461
25239W        W90400  27.040  15.586  11.226
25240W        W90401  25.643  24.377  11.604
25241W        W90402   5.806  30.402   4.486
25242W        W90403   8.521   7.710   3.273
25243W        W90404  35.569  39.040  13.089
25244W        W90405   4.935  24.519  14.671
25245W        W90406  32.176   6.223   3.979
25246W        W90407  34.621  26.783  12.123
25247W        W90408  31.855  16.162  13.105
25248W        W90409   7.399  19.129   4.402
25249W        W90410  15.062   4.963   4.351
25250W        W90411  22.750  26.094  13.953
25251W        W90412  39.343  14.719   4.579
25252W        W90413   1.616   5.988  14.550
25253W        W90414  34.551  44.915  12.680
25254W        W90415   8.916  35.308  12.938
25255W        W90416  33.514  14.471  12.452
25256W        W90417  30.430  24.632  14.776
25257W        W90418   5.449  22.743   3.349
25258W        W90419  15.892   8.218   5.043
25259W        W90420  13.205   3.442  13.242
25260W        W90421  38.812  20.106  12.567
25261W        W90422  39.067  31.003  12.613
25262W        W90423  15.387  38.476  12.572
25263W        W90424  32.527   1.379  11.465
25264W        W90425  12.304   0.470  11.629
25265W        W90426   1.938  31.960   2.747
25266W        W90427   2.493  30.671  14.759
25267W        W90428  14.341  13.823   0.407
25268W        W90429  12.250  32.407  13.988
25269W        W90430  32.013  25.249  14.531
25270W        W90431  19.605   5.582   3.604
25271W        W90432  38.838  26.614   1.825
25272W        W90433  36.345  44.463   3.711
25273W        W90434   8.786   2.623   2.170
25274W        W90435  43.461   8.162   1.887
25275W        W90436  44.673  25.950  12.797
25276W        W90437   6.614   7.184  13.382
25277W        W90438  38.206  39.126  12.571
25278W        W90439   3.467  18.143  13.425
25279W        W90440   3.397  39.596   4.436
25280W        W90441  16.812   2.643   4.036
25281W        W90442   7.109  26.937   0.990
25282W        W90443  39.770  38.142   1.775
25283W        W90444   8.074   5.918   3.412
25284W        W90445  43.236   3.119   1.316
25285W        W90446  42.100  35.212  14.085
25286W        W90447  37.549  35.159  14.822
25287W        W90448   0.588  43.635   3.548
25288W        W90449   0.820  29.670   2.104
25289W        W90450   6.399   1.225  12.426
25290W        W90451  38.562  23.070   0.414
25291W        W90452  17.575  37.046  10.518
25292W        W90453  41.347  22.675   3.735
25293W        W90454  13.328  38.434  13.001
25294W        W90455  19.505  42.371  12.150
25295W        W90456   9.826  29.679   3.860
25296W        W90457  25.894  25.287   4.057
25297W        W90458  14.084  10.808   1.749
25298W        W90459   9.761  21.543  11.987
25299W        W90460  11.194  27.522  10.907
25300W        W90461  35.195  36.553   4.036
25301W        W90462  37.495  31.590   0.787
25302W        W90463   7.841  16.696   1.456
25303W        W90464  15.123  24.436  14.353
25304W        W90465  29.215  15.640  12.900
25305W        W90466  14.702  22.295  13.510
25306W        W90467  40.456   0.385   3.383
25307W        W90468   5.018  38.873  12.376
25308W        W90469  19.680  23.274   2.602
25309W        W90470  43.835  22.901   4.213
25310W        W90471   7.353  40.441   4.613
25311W        W90472  30.989  20.808  14.410
25312W        W90473  17.782  11.659  11.849
25313W        W90474  27.307  30.102   2.187
25314W        W90475   5.339  24.951   5.461
25315W        W90476  33.371  16.669   3.971
25316W        W90477   9.543  30.924   1.831
25317W        W90478  22.370   2.991   4.708
25318W        W90479  31.579  34.097   4.172
25319W        W90480  17.483  35.308   2.766
25320W        W90481  25.632  35.392  13.510
25321W        W90482  10.786  43.396   4.121
25322W        W90483  19.166  17.742  12.906
25323W        W90484  34.920   2.344   0.540
25324W        W90485  38.928  22.663  14.544
25325W        W90486  32.713  30.572   4.079
25326W        W90487  19.476  24.240  14.862
25327W        W90488  24.567  25.372   0.409
25328W        W90489   3.347   9.932  13.039
25329W        W90490   9.328  37.632  12.461
25330W        W90491  43.008   5.986  13.971
25331W        W90492  41.372   5.559   4.610
25332W        W90493  16.660   7.883   0.894
25333W        W90494  27.718  21.548   4.242
25334W        W90495  22.093  17.396  13.078
25335W        W90496   4.925  43.441   4.250
25336W        W90497  34.119   1.949   0.287
25337W        W90498  39.593   3.121   1.345
25338W        W90499   3.978  36.082   1.746
25339W        W90500  39.516  37.571  12.476
25340W        W90501  32.928  14.701  14.236
25341W        W90502   7.732  30.209   2.407
25342W        W90503  17.184  20.052   3.166
25343W        W90504  32.489  42.980  12.608
25344W        W90505  23.564  10.107  13.393
25345W        W90506   6.221  12.453   4.548
25346W        W90507  39.403  42.448  11.858
25347W        W90508  31.076   4.894   4.588
25348W        W90509  37.853   4.268   0.779
25349W        W90510  44.803   9.740  11.037
25350W        W90511  26.221   5.152   2.274
25351W        W90512  40.455  43.844  12.336
25352W        W90513  15.591  44.974  11.840
25353W        W90514   2.810  33.666   1.220
25354W        W90515  39.079   4.809  12.113
25355W        W90516  42.003  13.893  12.815
25356W        W90517  42.992  40.271   3.734
25357W        W90518  17.206  11.074  14.266
25358W        W90519  18.733  37.552   3.596
25359W        W90520  38.117  33.159  10.540
25360W        W90521  30.852  16.151  12.913
25361W        W90522   6.921  34.481  13.991
25362W        W90523  41.607  12.141   2.290
25363W        W90524   4.122  33.384  11.494
25364W        W90525  19.044  28.195  12.047
25365W        W90526  18.441  33.573   5.011
25366W        W90527  39.469  32.256  11.881
25367W        W90528  35.890  35.884  14.500
25368W        W90529  15.613   3.729   4.138
25369W        W90530   2.020  12.015  13.288
25370W        W90531  44.904  22.936   0.943
25371W        W90532  16.360  20.257   1.734
25372W        W90533  28.902  28.186  11.120
25373W        W90534   4.448  41.872   4.287
25374W        W90535  40.552  43.356  13.766
25375W        W90536  44.019   0.736  13.026
25376W        W90537   5.145  17.154   1.396
25377W        W90538  20.110   1.458  10.939
25378W        W90539   6.720   4.275   2.710
25379W        W90540  20.005  31.660  12.088
25380W        W90541  13.115   1.633   2.340
25381W        W90542  20.564   6.431  13.974
25382W        W90543  12.674  30.612  13.884
25383W        W90544  22.012  11.445  13.797
25384W        W90545  28.127  24.691  10.727
25385W        W90546  12.377  24.951  11.086
25386W        W90547  33.465  39.571  12.302
25387W        W90548   3.920   1.863   4.968
25388W        W90549  16.008   7.874  10.650
25389W        W90550   2.599  40.542   4.446
25390W        W90551  13.695  12.847   1.018
25391W        W90552  41.878  23.838  11.167
25392W        W90553  22.712  25.024   2.118
25393W        W90554   9.658   4.399  13.608
25394W        W90555   3.138  20.692  12.021
25395W        W90556   6.462   2.871  10.968
25396W        W90557   6.747  36.934   3.675
25397W        W90558  39.293  25.261  12.114
25398W        W90559  25.335  17.507   0.529
25399W        W90560  41.772   3.217  13.412
25400W        W90561  17.514  30.978  14.423
25401W        W90562  32.435  13.998  14.337
25402W        W90563  33.665  40.023   0.483
25403W        W90564  35.854  22.763  12.521
25404W        W90565  16.456   7.174  11.945
25405W        W90566   3.114  32.567   3.211
25406W        W90567  40.403  43.413  11.007
25407W        W90568  13.512  21.300   4.172
25408W        W90569  32.375  15.169   1.183
25409W        W90570   4.698  15.945  13.831
25410W        W90571  21.026  23.799  14.565
25411W        W90572   1.012  33.464  14.708
25412W        W90573  32.320   9.791  14.692
25413W        W90574   3.225  30.180   4.887
25414W        W90575  40.583   5.483   3.630
25415W        W90576   4.045  34.857  12.933
25416W        W90577  10.241  35.546  13.903
25417W        W90578  26.493  33.002   2.275
25418W        W90579  17.274  14.375   1.887
25419W        W90580   8.690   0.161  13.019
25420W        W90581  25.209  37.500   1.322
25421W        W90582  24.949  22.034  14.551
25422W        W90583  22.441  38.167   3.332
25423W        W90584  19.761  10.630   1.590
25424W        W90585   5.949  37.943  12.904
25425W        W90586  27.164   7.099   0.848
25426W        W90587  38.519  33.409  13.104
25427W        W90588   5.836  32.578  13.355
25428W        W90589   9.686   2.719  11.878
25429W        W90590  32.680  37.137   4.108
25430W        W90591   7.106  11.841   3.672
25431W        W90592  32.075  30.914   0.280
25432W        W90593   8.165  18.224  14.846
25433W        W90594   0.362  21.960  14.368
25434W        W90595  34.629  12.834  12.615
25435W        W90596  21.541  24.924   1.271
25436W        W90597  25.503   3.239  10.711
25437W        W90598  32.852  18.813   0.288
25438W        W90599  31.454  44.540   4.618
25439W        W90600  23.654  28.390   4.358
25440W        W90601  13.523   7.935   0.470
25441W        W90602   4.425  24.058   4.649
25442W        W90603  44.686  39.508  10.994
25443W        W90604   6.303  24.936   2.609
25444W        W90605  25.241  18.051  11.051
25445W        W90606  20.632  17.870   4.416
25446W        W90607  24.962   1.688   2.333
25447W        W90608  12.190  33.963   0.746
25448W        W90609  14.147   4.342   4.593
25449W        W90610  13.092  44.212   3.371
25450W        W90611  35.650   4.498   4.801
25451W        W90612  34.078  10.285   2.699
25452W        W90613  22.804  22.417  11.622
25453W        W90614   7.073  12.214  14.557
25454W        W90615  23.777   6.652   2.083
25455W        W90616  23.748  35.879   3.233
25456W        W90617   5.667  26.252  11.155
25457W        W90618   1.549  13.804  12.609
25458W        W90619  12.133  13.674  13.578
25459W        W90620  22.850  40.065   1.832
25460W        W90621  32.592  23.759  13.091
25461W        W90622  10.579  37.128   1.297
25462W        W90623  41.808  35.610  14.296
25463W        W90624   1.902  36.139  13.653
25464W        W90625  26.529  44.780   0.326
25465W        W90626  27.215  22.806   3.735
25466W        W90627  30.050  35.039   4.086
25467W        W90628  17.205  42.137   9.681
25468W        W90629  39.903  23.053   0.864
25469W        W90630  34.901  17.101  10.697
25470W        W90631  19.833  15.698   0.882
25471W        W90632  31.905   9.134  13.776
25472W        W90633   2.328  16.815  14.945
25473W        W90634  12.524  37.647   0.222
25474W        W90635  16.448   7.675  11.685
25475W        W90636   7.394   5.288   1.916
25476W        W90637  20.667  38.451  10.351
25477W        W90638  42.003  40.402  10.764
25478W        W90639   3.290  16.486  10.457
25479W        W90640  44.816  40.994   1.505
25480W        W90641  17.601   3.481  11.093
25481W        W90642   6.435   3.638   4.523
25482W        W90643  15.835  28.627  12.852
25483W        W90644  42.927  20.670  13.440
25484W        W90645  16.161  43.793   1.369
25485W        W90646  17.948  30.176   2.840
25486W        W90647  11.747  21.268  11.698
25487W        W90648  27.954  35.621   2.702
25488W        W90649  17.430  17.285  12.013
25489W        W90650  37.612  32.129   4.435
25490W        W90651   1.622  21.211   5.059
25491W        W90652  27.679  35.845  10.296
25492W        W90653  16.973   3.854  11.148
25493W        W90654  41.249  30.960  13.965
25494W        W90655  13.147  34.241   4.112
25495W        W90656  13.223  25.143   1.640
25496W        W90657  42.942   1.331   0.443
25497W        W90658  37.101  40.263  12.464
25498W        W90659  42.309  23.102   0.332
25499W        W90660  29.937   5.363  13.866
25500W        W90661   6.032   0.465  11.972
25501W        W90662  18.566  26.165  11.586
25502W        W90663   4.186  39.404  11.657
25503W        W90664  12.266   3.223   4.793
25504W        W90665  12.383  24.931   2.363
25505W        W90666  20.560  30.973  11.991
25506W        W90667   1.736  29.352  12.465
25507W        W90668  20.727  27.295  12.128
25508W        W90669  13.407   7.263   3.993
25509W        W90670  21.962  30.525  12.398
25510W        W90671   9.868  27.591  14.658
25511W        W90672  15.629  13.109   3.283
25512W        W90673  26.122  43.580  13.442
25513W        W90674   2.688  24.653   4.049
25514W        W90675  28.671  42.591   3.128
25515W        W90676  31.046  17.536   3.629
25516W        W90677  19.330  23.060   2.926
25517W        W90678  33.983  12.253   1.802
25518W        W90679  19.169  17.856   1.300
25519W        W90680  10.765  17.836  14.410
25520W        W90681   4.908  24.323   2.031
25521W        W90682  20.700   0.354   3.883
25522W        W90683  42.031  14.381   3.826
25523W        W90684  36.325  36.325   4.667
25524W        W90685  29.662  32.181  14.063
25525W        W90686   6.497  17.747   2.487
25526W        W90687  25.963   6.248   0.945
25527W        W90688  10.929  21.178  14.608
25528W        W90689  43.064  37.504   2.416
25529W        W90690  31.568  39.347   0.864
25530W        W90691  24.704  32.894   2.784
25531W        W90692  24.124  17.968   4.644
25532W        W90693  14.924  15.852   2.245
25533W        W90694  12.750  27.066   1.380
25534W        W90695  30.019   3.230   4.891
25535W        W90696   7.120  38.988  13.910
25536W        W90697   5.718  19.219  11.201
25537W        W90698   4.514  41.899   0.169
25538W        W90699  11.012  43.942  11.123
25539W        W90700   5.118  16.087   2.716
25540W        W90701  23.624  34.961  14.324
25541W        W90702  15.840   8.511  14.121
25542W        W90703   2.830  35.483   3.201
25543W        W90704  25.335  19.901  11.732
25544W        W90705  30.431  29.960  12.157
25545W        W90706   5.280  25.583   0.735
25546W        W90707  18.019   8.212   0.692
25547W        W90708  27.086  36.801  13.737
25548W        W90709   6.244  23.481  11.960
25549W        W90710  15.659  20.096  11.570
25550W        W90711  36.080  24.731  12.402
25551W        W90712  29.086  33.264  13.103
25552W        W90713  24.809  11.847  14.594
25553W        W90714  29.569  17.076   4.622
25554W        W90715  42.740  28.008   1.826
25555W        W90716  27.744  20.587   1.730
25556W        W90717  12.239  33.950  14.129
25557W        W90718  27.642  20.505  12.746
25558W        W90719  18.778  12.893   3.705
25559W        W90720   5.224  33.090  12.980
25560W        W90721  41.038  29.121  12.081
25561W        W90722  19.846  26.428   1.776
25562W        W90723  34.829  31.498   3.360
25563W        W90724  11.207  20.515   1.767
25564W        W90725   4.341  29.676  14.951
25565W        W90726   0.982  31.131   3.678
25566W        W90727   6.676   2.425  13.624
25567W        W90728  17.584   4.737   0.351
25568W        W90729  15.497   3.993  11.498
25569W        W90730  38.520  19.211  12.145
25570W        W90731  35.881   2.946   0.892
25571W        W90732  41.349  36.842   4.234
25572W        W90733   4.238  40.621   1.997
25573W        W90734  24.751   5.276  14.868
25574W        W90735   2.049  24.668  13.449
25575W        W90736  12.819  37.021  12.349
25576W        W90737   6.627  28.819  14.187
25577W        W90738   5.352  20.281  13.135
25578W        W90739  23.121  37.379   2.088
25579W        W90740   6.625  29.606  13.828
25580W        W90741  19.562   6.808  14.906
25581W        W90742  13.529  17.178   0.441
25582W        W90743   6.301  43.344  12.949
25583W        W90744  44.309  39.083  13.423
25584W        W90745  18.523  37.403   2.112
25585W        W90746   0.846   6.203  11.381
25586W        W90747  28.532  42.582  10.947
25587W        W90748  42.095  44.011  10.752
25588W        W90749   2.391  30.162   2.847
25589W        W90750  19.559  13.687  11.980
25590W        W90751   2.415  38.382   2.267
25591W        W90752  38.002  40.901  14.708
25592W        W90753  25.588  13.426  14.893
25593W        W90754  26.468  20.089  11.553
25594W        W90755  38.521  42.838  14.316
25595W        W90756   4.414  25.138  12.698
25596W        W90757  38.022  38.050   3.818
25597W        W90758  30.496  22.260  11.047
25598W        W90759  42.434  18.701  14.779
25599W        W90760  43.723  31.773   4.159
25600W        W90761  41.267  42.386  10.728
25601W        W90762  22.814  14.816  14.315
25602W        W90763   2.722   0.976   0.525
25603W        W90764  11.811  37.843  14.656
25604W        W90765  25.120  16.235   0.655
25605W        W90766  42.750   4.531   2.339
25606W        W90767   0.970  40.008   1.971
25607W        W90768  35.996  10.615  10.816
25608W        W90769  42.428   9.130   3.630
25609W        W90770  26.945   5.480  14.014
25610W        W90771   6.839  34.201  11.909
25611W        W90772  16.740   7.451  10.450
25612W        W90773  19.170   7.867   0.232
25613W        W90774  42.819  20.944   3.727
25614W        W90775  30.546   5.413  13.122
25615W        W90776  42.841  29.178   2.638
25616W        W90777  44.888  20.129   1.422
25617W        W90778  28.134  33.528  12.895
25618W        W90779  44.735  21.704   3.716
25619W        W90780  13.784   2.680   3.272
25620W        W90781  10.233  17.899  12.849
25621W        W90782   2.097  16.212  12.426
25622W        W90783   0.461  12.073   0.408
25623W        W90784   1.521   7.188  11.510
25624W        W90785  10.955   9.865  10.943
25625W        W90786  27.485   1.464   4.204
25626W        W90787  39.921  27.845  14.119
25627W        W90788  11.851   3.814   4.366
25628W        W90789  19.998   1.673  14.344
25629W        W90790  41.220  19.175   4.935
25630W        W90791   3.521   9.192   1.504
25631W        W90792  17.682  37.434  12.402
25632W        W90793  17.916  19.562   0.380
25633W        W90794   3.831   3.910  11.823
25634W        W90795   9.995  30.403   3.195
25635W        W90796   6.093  27.771   4.064
25636W        W90797  20.129   2.484   4.452
25637W        W90798  35.367  44.770  11.684
25638W        W90799   3.235  17.312  11.085
25639W        W90800   8.591   9.247  13.979
25640W        W90801   4.769  35.863  11.624
25641W        W90802   3.798   8.755  13.105
25642W        W90803  15.653  40.399  14.817
25643W        W90804  29.584  25.582   0.298
25644W        W90805  33.927  42.931   2.742
25645W        W90806  30.349  10.855   2.163
25646W        W90807   8.492   7.244  11.504
25647W        W90808  10.826  10.959   3.711
25648W        W90809  42.285  19.606   4.138
25649W        W90810  40.537  24.004  10.223
25650W        W90811   7.157  43.327   3.269
25651W        W90812  23.851   4.984  14.844
25652W        W90813   0.839  44.000  11.146
25653W        W90814  10.407   3.166  10.435
25654W        W90815   2.550  11.705  12.476
25655W        W90816   8.397  21.371  13.973
25656W        W90817  13.635   0.362   0.022
25657W        W90818  33.880   0.514  13.882
25658W        W90819   7.249  31.434  10.908
25659W        W90820  42.238  32.614   3.297
25660W        W90821  21.004  43.943  13.161
25661W        W90822  30.370  15.920   2.531
25662W        W90823  31.730  28.665  12.423
25663W        W90824   7.843  31.594  11.098
25664W        W90825  27.788  40.902  12.611
25665W        W90826  21.054  26.041  12.572
25666W        W90827   1.442  22.011   3.708
25667W        W90828   4.916  37.094   2.323
25668W        W90829  34.861   0.180  13.003
25669W        W90830  21.054   5.529   2.906
25670W        W90831  32.939   0.698   3.099
25671W        W90832  19.210  39.962  11.463
25672W        W90833  36.707  25.038  10.616
25673W        W90834  30.974  26.242   0.261
25674W        W90835  18.522  27.861  14.287
25675W        W90836  20.534  34.667  11.941
25676W        W90837  13.359  44.641   5.155
25677W        W90838   1.136  14.138  14.509
25678W        W90839  29.807  23.261   1.491
25679W        W90840  30.264   2.388  11.186
25680W        W90841  23.110  35.953  14.088
25681W        W90842  34.045  27.907   1.665
25682W        W90843  40.110   9.789  14.833
25683W        W90844  35.437   9.449  12.285
25684W        W90845  14.107  16.805  14.848
25685W        W90846   3.273  27.786   3.267
25686W        W90847  25.193   6.919   0.680
25687W        W90848  33.366  30.476  14.180
25688W        W90849   5.316  26.290   1.263
25689W        W90850  39.400  26.771  11.388
25690W        W90851   3.809  11.761   2.139
25691W        W90852  37.940  43.184   4.204
25692W        W90853  34.985  42.432   5.086
25693W        W90854   9.396  34.378  12.779
25694W        W90855   3.251  40.436  10.578
25695W        W90856  44.239  37.002   0.812
25696W        W90857  12.208  24.707  13.376
25697W        W90858   9.252  25.475  14.385
25698W        W90859  15.105  33.900   4.540
25699W        W90860  35.579  40.422  13.297
25700W        W90861  20.868   0.793   2.150
25701W        W90862  26.031   8.365  13.381
25702W        W90863  31.220  39.996   0.882
25703W        W90864  13.230  20.212   2.747
25704W        W90865  40.346  25.613   0.864
25705W        W90866   6.760   0.793   4.974
25706W        W90867   5.196  43.433   1.371
25707W        W90868  37.888  37.507  14.795
25708W        W90869  39.585  43.179   2.682
25709W        W90870  22.613  43.429  10.927
25710W        W90871  22.251   7.835  12.936
25711W        W90872  44.770   2.602  11.525
25712W        W90873  10.146  22.964   2.651
25713W        W90874  31.653  15.243   4.268
25714W        W90875  29.041  35.280  12.453
25715W        W90876  22.303  30.565   4.183
25716W        W90877  17.963  35.070   2.786
25717W        W90878  33.896   2.513  11.654
25718W        W90879  23.110   9.094  12.560
25719W        W90880  13.576  40.005  11.561
25720W        W90881  26.728  39.459   2.226
25721W        W90882   8.310  25.220  12.528
25722W        W90883  24.564  13.704  13.515
25723W        W90884  23.411   0.222  11.854
25724W        W90885  37.887  22.542   3.607
25725W        W90886   5.306  39.162  14.867
25726W        W90887  25.797  34.543  12.647
25727W        W90888   6.690   7.890  13.973
25728W        W90889   8.817  28.557  12.593
25729W        W90890  42.909  41.075  13.985
25730W        W90891  28.213   5.457  11.947
25731W        W90892  19.334   2.179   2.493
25732W        W90893  19.265  27.879   1.024
25733W        W90894  31.353   5.822  13.058
25734W        W90895  28.032   1.049   2.217
25735W        W90896  15.600   7.185  11.815
25736W        W90897  13.190   6.145  12.344
25737W        W90898  21.245  24.146  12.069
25738W        W90899  10.765  23.698  12.511
25739W        W90900  41.483  11.917  11.423
25740W        W90901  35.357  21.210  12.123
25741W        W90902   1.928  26.892   4.432
25742W        W90903  27.740  31.366  13.580
25743W        W90904  30.483  31.596  12.955
25744W        W90905  26.155   9.443   1.782
25745W        W90906   4.850   4.393  11.139
25746W        W90907   2.867  27.581   0.407
25747W        W90908   1.846  41.364   2.635
25748W        W90909  40.304  13.228  14.674
25749W        W90910  44.014  43.344  13.503
25750W        W90911  26.645  16.177  13.774
25751W        W90912  28.517   3.943   3.277
25752W        W90913  29.940  32.370   0.346
25753W        W90914   7.815  41.404   0.195
25754W        W90915  34.924  29.490   1.876
25755W        W90916   7.352   2.988  12.972
25756W        W90917  14.245  16.082   2.676
25757W        W90918  26.594   7.729   4.079
25758W        W90919  32.039  35.661  10.679
25759W        W90920  32.325  31.907   1.670
25760W        W90921   0.074  11.550  10.684
25761W        W90922  18.863  19.597  14.415
25762W        W90923   2.018  35.854   1.886
25763W        W90924  19.287  31.417   1.121
25764W        W90925  14.927  29.694  12.004
25765W        W90926  31.908  33.850   0.316
25766W        W90927   4.805  43.996  11.547
25767W        W90928  18.337  44.353   1.622
25768W        W90929  31.039   9.911   2.295
25769W        W90930  36.106  18.527   3.209
25770W        W90931  22.700  33.065   1.685
25771W        W90932  37.419   3.295  10.141
25772W        W90933  36.315  33.977  11.551
25773W        W90934  41.869   0.854  10.722
25774W        W90935  35.881  34.110  12.597
25775W        W90936  17.841  24.284  14.356
25776W        W90937   2.440  22.207  14.243
25777W        W90938   6.263  39.778  11.497
25778W        W90939   5.529  14.897  14.799
25779W        W90940  33.189  28.983   0.300
25780W        W90941   0.373  18.302  14.816
25781W        W90942  19.098   9.632   0.663
25782W        W90943  40.297  10.990  13.835
25783W        W90944  21.096  22.547  13.386
25784W        W90945  39.433  25.167  12.999
25785W        W90946  32.968  29.175   0.745
25786W        W90947   8.513   0.339  14.240
25787W        W90948  44.515  33.663  13.494
25788W        W90949  13.781   6.852  13.718
25789W        W90950  30.915  32.019  13.402
25790W        W90951  41.024   6.212   2.234
25791W        W90952  36.816  35.581   0.858
25792W        W90953  19.656   6.663   3.527
25793W        W90954  17.132  32.102  14.929
25794W        W90955  19.359   5.724   0.826
25795W        W90956   8.345  24.378  11.997
25796W        W90957  11.532  15.058   3.284
25797W        W90958  22.214  25.425  12.120
25798W        W90959   0.122   9.802  10.277
25799W        W90960   1.225  17.687   4.083
25800W        W90961  44.901  43.560  10.967
25801W        W90962  24.467  37.199  14.072
25802W        W90963  23.574  11.788   5.004
25803W        W90964  20.962  30.043  12.060
25804W        W90965  35.542  35.961   0.701
25805W        W90966  11.716  28.503  14.090
25806W        W90967  18.657  22.530   4.631
25807W        W90968   8.867  42.264   2.831
25808W        W90969  19.206  16.584  14.001
25809W        W90970  42.377  18.148  13.507
25810W        W90971  21.523  14.592  10.766
25811W        W90972  35.476  44.562  13.048
25812W        W90973   9.014  37.818   4.150
25813W        W90974  35.274  44.600  14.439
25814W        W90975  15.657  36.154   2.487
25815W        W90976  11.395  31.077   0.082
25816W        W90977  15.819  13.090   0.789
25817W        W90978  29.361  36.033   3.776
25818W        W90979  39.929   9.143  13.029
25819W        W90980  26.525  21.996  10.851
25820W        W90981   3.968  17.269   0.303
25821W        W90982  34.267  27.798  12.469
25822W        W90983   7.369  44.199   2.858
25823W        W90984  22.214  39.980   0.976
25824W        W90985  42.605  20.317   1.804
25825W        W90986  13.576  33.530  11.453
25826W        W90987  37.338   3.290   4.834
25827W        W90988  32.935  18.094  13.081
25828W        W90989   6.152  25.456   2.887
25829W        W90990   5.880  13.064  11.634
25830W        W90991  26.638  14.859   0.054
25831W        W90992  10.343  16.157   2.839
25832W        W90993  13.107  27.182  14.476
25833W        W90994  27.037  16.492  13.004
25834W        W90995  21.771  18.787   2.153
25835W        W90996  27.635  25.651   4.507
25836W        W90997  41.916  36.014  13.963
25837W        W90998  37.051  40.847   0.033
25838W        W90999  18.779   9.931  11.360
25839W        W91000  28.572  40.299  10.219
25840W        W91001  16.515  18.874   3.682
25841W        W91002  37.464   5.593   1.033
25842W        W91003  31.051  11.083   4.685
25843W        W91004  14.166   4.273   4.044
25844W        W91005  13.866   2.859   1.415
25845W        W91006  40.955  42.666  12.404
25846W        W91007  19.743  21.488   2.326
25847W        W91008  44.925  22.113  14.053
25848W        W91009  20.601   6.815   3.681
25849W        W91010  23.963  15.582  10.189
25850W        W91011   4.358  16.702   4.743
25851W        W91012  11.657   1.354   1.751
25852W        W91013   5.922  30.965  12.764
25853W        W91014   4.127   6.091  11.514
25854W        W91015  22.188  33.660   1.722
25855W        W91016  32.827   8.382  14.369
25856W        W91017  31.771   6.240  10.679
25857W        W91018   4.841  24.496   3.240
25858W        W91019   4.390  18.593  14.475
25859W        W91020  16.804  32.385  14.616
25860W        W91021  10.289  25.318   3.723
25861W        W91022  11.311  33.114  11.512
25862W        W91023   3.975  41.227  12.821
25863W        W91024  10.710  28.674  14.375
25864W        W91025  26.249   6.037  11.407
25865W        W91026  27.258  22.607   2.476
25866W        W91027  23.288  20.581   0.419
25867W        W91028  11.286  26.786   3.825
25868W        W91029  36.155  40.914  10.716
25869W        W91030  26.673  13.059  14.566
25870W        W91031  41.361  23.512   1.183
25871W        W91032  30.241  30.642   2.660
25872W        W91033  28.448  35.294   3.525
25873W        W91034  22.302  22.605  12.088
25874W        W91035  38.316  11.375  13.255
25875W        W91036   9.117  30.368  13.879
25876W        W91037   6.255  40.786   2.878
25877W        W91038  27.739  32.878   4.804
25878W        W91039  43.859  31.866  11.140
25879W        W91040  25.637  27.781  12.155
25880W        W91041  44.674  40.965   2.336
25881W        W91042  36.745  10.853  14.921
25882W        W91043   4.264  43.264   3.256
25883W        W91044   5.753  41.350   2.348
25884W        W91045   4.764  22.042   3.641
25885W        W91046   2.682  33.487   3.248
25886W        W91047   2.509  41.187  13.030
25887W        W91048  36.715  28.080   3.847
25888W        W91049   4.585   6.405   0.308
25889W        W91050  39.443  36.437  12.115
25890W        W91051  14.223  25.625  12.240
25891W        W91052  24.461  17.263   1.634
25892W        W91053  44.345  21.631  10.074
25893W        W91054  31.451  19.958   2.135
25894W        W91055   1.617  32.565   3.363
25895W        W91056  26.094  11.771   0.856
25896W        W91057  14.756  11.893  13.412
25897W        W91058   5.249  21.747   0.892
25898W        W91059  35.507   7.130   4.267
25899W        W91060  41.957  27.762   4.128
25900W        W91061  33.109  23.497  13.006
25901W        W91062  22.581  17.997   3.771
25902W        W91063  16.071  32.394   1.649
25903W        W91064   9.142   9.179  12.561
25904W        W91065  21.700   8.986  14.239
25905W        W91066  40.075  18.630   2.538
25906W        W91067   1.586  43.204  12.498
25907W        W91068  40.578  41.338   1.314
25908W        W91069  18.990   9.872   3.654
25909W        W91070  37.877  40.868  10.083
25910W        W91071  15.407  21.560   4.297
25911W        W91072   1.881  21.598   4.834
25912W        W91073  28.514  36.873   4.583
25913W        W91074   0.775  12.488   1.310
25914W        W91075   7.450  33.170  11.620
25915W        W91076  27.407  13.340   4.461
25916W        W91077  22.219  11.664  10.984
25917W        W91078  25.217  41.093  13.431
25918W        W91079   9.689  16.483   1.921
25919W        W91080  29.379  42.993   3.555
25920W        W91081  16.809  42.422   4.968
25921W        W91082  19.757  25.709   0.522
25922W        W91083  33.472  40.905  10.665
25923W        W91084  35.378   0.406  10.834
25924W        W91085  10.820  38.975   3.935
25925W        W91086  31.122  35.897  13.361
25926W        W91087  28.691  11.431  10.855
25927W        W91088  24.516  24.671   2.229
25928W        W91089  19.196  20.337   4.640
25929W        W91090  41.541   0.196   4.532
25930W        W91091  29.123  44.194  12.935
25931W        W91092  26.763  38.460   1.278
25932W        W91093   3.020   6.636  11.036
25933W        W91094  24.798  15.223   9.873
25934W        W91095  14.615  18.765  10.561
25935W        W91096   0.842   8.599  13.960
25936W        W91097   5.224  24.961  11.150
25937W        W91098  10.902  30.488  12.561
25938W        W91099  36.403  29.115   4.743
25939W        W91100  27.553  42.766   0.871
25940W        W91101  27.778  30.065   2.405
25941W        W91102  16.730  12.160  14.094
25942W        W91103   4.437  43.472   1.789
25943W        W91104  26.959   4.639  12.118
25944W        W91105  21.595  12.381  11.039
25945W        W91106  40.937  25.616   1.712
25946W        W91107  26.123  20.983   1.244
25947W        W91108   7.228   8.587  14.203
25948W        W91109  36.840  14.139  14.822
25949W        W91110  44.273  34.629  13.443
25950W        W91111  42.902  21.588  13.464
25951W        W91112  27.958  33.042  11.168
25952W        W91113   0.322  42.831   1.773
25953W        W91114   3.406  34.646  11.165
25954W        W91115  14.094  19.167  10.604
25955W        W91116  29.529   3.285   3.667
25956W        W91117  31.918  35.589  14.371
25957W        W91118  20.701  18.848   1.134
25958W        W91119  40.645  15.061  13.566
25959W        W91120   2.964   3.044   1.211
25960W        W91121   8.797  15.117  12.561
25961W        W91122  38.090  11.912  11.140
25962W        W91123  38.415  43.942  12.414
25963W        W91124   9.646  12.939  12.142
25964W        W91125   9.889   8.265  14.740
25965W        W91126   1.053  17.208   3.155
25966W        W91127  29.403   3.774   4.328
25967W        W91128  43.925  20.051  11.189
25968W        W91129  35.597  20.650   2.805
25969W        W91130   2.201   5.938  11.540
25970W        W91131  18.293  19.188   3.235
25971W        W91132  19.211   1.289   2.389
25972W        W91133  10.194  36.541   3.876
25973W        W91134  19.747  31.895  12.485
25974W        W91135  32.473  33.275   4.959
25975W        W91136  21.792  34.322   1.408
25976W        W91137  43.533  13.912   2.807
25977W        W91138   8.259  43.055   1.667
25978W        W91139  29.433  15.220   3.584
25979W        W91140  28.583   3.564  10.715
25980W        W91141   1.229   2.217  12.553
25981W        W91142   0.041  23.311   2.403
25982W        W91143  16.368   2.230  11.542
25983W        W91144  13.785  15.607  10.200
25984W        W91145  31.641  18.908   2.183
25985W        W91146  20.392   9.067  14.026
25986W        W91147  10.352  28.952   2.295
25987W        W91148  12.312  25.699  13.589
25988W        W91149   4.784  13.210   2.085
25989W        W91150   6.879  39.067  14.341
25990W        W91151   6.577  27.991   1.703
25991W        W91152  12.823  31.184   2.693
25992W        W91153  34.923  37.001   1.451
25993W        W91154  19.461   9.936   2.107
25994W        W91155  39.491  34.791  11.242
25995W        W91156  33.766  22.483  10.521
25996W        W91157  15.818  12.373   2.734
25997W        W91158   7.444  18.710   3.676
25998W        W91159  39.361   6.811   1.379
25999W        W91160  23.617   7.085   3.746
26000W        W91161  18.323  35.817   2.308
26001W        W91162  35.371  15.439  11.299
26002W        W91163  27.391  27.580   0.261
26003W        W91164  16.000  37.297  14.557
26004W        W91165  33.824   0.107  10.596
26005W        W91166  17.611  18.349  14.791
26006W        W91167  36.108   5.746   0.895
26007W        W91168  36.571  38.943   0.951
26008W        W91169  33.837  33.623   3.762
26009W        W91170  12.384  42.500   1.840
26010W        W91171  22.284   0.805  14.329
26011W        W91172  21.242  10.566  11.078
26012W        W91173   0.767  31.592   3.871
26013W        W91174  28.229  13.800   0.279
26014W        W91175   3.016   3.315   0.760
26015W        W91176  13.761  12.338   2.670
26016W        W91177  14.646   1.759  13.423
26017W        W91178  39.921  11.974   4.024
26018W        W91179  22.482  27.463  10.604
26019W        W91180  17.229  22.633  13.955
26020W        W91181   1.600  19.186   4.034
26021W        W91182  31.816  34.392  11.143
26022W        W91183  13.006  16.578   1.975
26023W        W91184  11.158  30.200   3.735
26024W        W91185   3.876  26.467   0.244
26025W        W91186   8.808  35.156   3.191
26026W        W91187  29.988   4.931   4.401
26027W        W91188  14.697  20.598  12.983
26028W        W91189   9.961  29.995   0.218
26029W        W91190  22.227  12.986   1.693
26030W        W91191  33.960  24.239   1.843
26031W        W91192  24.245  14.326  14.373
26032W        W91193  24.966  33.331   4.680
26033W        W91194   0.508  23.163  12.971
26034W        W91195   8.357  34.024   2.662
26035W        W91196  22.078  18.141   3.692
26036W        W91197   4.237  37.566   4.693
26037W        W91198  39.407  41.881   3.235
26038W        W91199  38.912   7.601   2.314
26039W        W91200  37.625  12.298  14.018
26040W        W91201  20.257  13.162  13.503
26041W        W91202  20.181  24.205   3.117
26042W        W91203  22.904   4.181   0.343
26043W        W91204  33.361  30.556  13.227
26044W        W91205  12.249  15.332  14.522
26045W        W91206  43.594   7.019  12.922
26046W        W91207  28.551  25.228   4.104
26047W        W91208   7.362   8.722  12.248
26048W        W91209  26.524  33.763   0.951
26049W        W91210  24.151  15.955   3.225
26050W        W91211  34.950   1.936   1.414
26051W        W91212  44.884   7.632   3.344
26052W        W91213  36.602  34.643   3.813
26053W        W91214   8.523  41.501   0.808
26054W        W91215  34.817  21.931  14.368
26055W        W91216   0.671  27.557  13.061
26056W        W91217  22.223  12.885   5.212
26057W        W91218  28.162  27.411   3.854
26058W        W91219  27.016  43.816   2.566
26059W        W91220  20.225  38.952  13.599
26060W        W91221  40.034  16.685  12.977
26061W        W91222  41.193  10.380  11.583
26062W        W91223  43.984   8.561   4.136
26063W        W91224   1.716  25.999   4.254
26064W        W91225  24.929  25.201   1.177
26065W        W91226  42.724   5.770  14.354
26066W        W91227   0.489  37.852  12.422
26067W        W91228  44.277  10.244  10.504
26068W        W91229   5.948  42.458  13.876
26069W        W91230  11.513   7.027  13.568
26070W        W91231  19.084  22.708   3.197
26071W        W91232  37.957  12.689  13.039
26072W        W91233   1.808  38.674   0.444
26073W        W91234  44.546  34.872   1.858
26074W        W91235  30.508  27.688   4.195
26075W        W91236  23.653   1.058   0.835
26076W        W91237   5.413  21.075   2.932
26077W        W91238  38.312  18.604  10.764
26078W        W91239  25.425  32.669   4.392
26079W        W91240   5.192  42.398  14.533
26080W        W91241  39.933  40.370  10.788
26081W        W91242  10.122  41.416  14.920
26082W        W91243  31.882  16.185   0.367
26083W        W91244  24.087  42.967   1.331
26084W        W91245  35.380   7.346  13.490
26085W        W91246  10.916  21.773   0.350
26086W        W91247  34.302  44.770   2.209
26087W        W91248  26.202  40.451   4.756
26088W        W91249  37.058  30.867   4.856
26089W        W91250  21.532  25.068  14.301
26090W        W91251   3.827  27.876   1.290
26091W        W91252  18.190  30.215   3.735
26092W        W91253  18.783  30.615   9.882
26093W        W91254   0.442  15.054  12.640
26094W        W91255   5.887   6.191  13.870
26095W        W91256  20.474  33.962   2.247
26096W        W91257  14.797  30.874  12.176
26097W        W91258  25.077  20.283  14.012
26098W        W91259  12.752  10.137   2.716
26099W        W91260  23.458  20.185   4.292
26100W        W91261   8.248  43.832   4.086
26101W        W91262   0.414  43.346  13.625
26102W        W91263   7.482  41.845  14.325
26103W        W91264  16.567  41.357  14.850
26104W        W91265  25.632  39.744   0.051
26105W        W91266  20.978  32.463  13.747
26106W        W91267  34.983  26.415   4.744
26107W        W91268  42.197  27.656   0.926
26108W        W91269   0.201   3.927   4.468
26109W        W91270  17.002  25.604  14.295
26110W        W91271  37.298  10.279   0.960
26111W        W91272  22.020  22.228  14.294
26112W        W91273   7.882  41.772  10.699
26113W        W91274  40.936  13.356   0.846
26114W        W91275  18.078  13.226   4.761
26115W        W91276  38.120  40.740  11.117
26116W        W91277  12.731  20.770   3.182
26117W        W91278  35.342  39.777  12.039
26118W        W91279  18.221   7.843  11.180
26119W        W91280  43.886  17.417   1.312
26120W        W91281  18.867   5.687   4.152
26121W        W91282  43.088  13.668  12.520
26122W        W91283   6.147  38.889   1.147
26123W        W91284   7.519  38.789   3.169
26124W        W91285  15.155  38.524   3.331
26125W        W91286  27.928   8.909   3.809
26126W        W91287  16.807   3.068  12.185
26127W        W91288  19.015   4.183  12.104
26128W        W91289  24.008  37.425  14.306
26129W        W91290   6.261  35.750  12.498
26130W        W91291   6.922  19.309   3.623
26131W        W91292   9.155   0.435   1.203
26132W        W91293   3.196  21.974  12.993
26133W        W91294  21.897  17.351  14.263
26134W        W91295  28.678   9.662   0.161
26135W        W91296  31.024  11.550   3.557
26136W        W91297  13.287  14.647   2.212
26137W        W91298  42.784  16.866   4.925
26138W        W91299  22.219  18.395  14.944
26139W        W91300  19.642  29.454   4.613
26140W        W91301   6.402  42.327   3.741
26141W        W91302  25.537  37.746  10.342
26142W        W91303  14.753  18.689  13.540
26143W        W91304   5.160  17.087   2.783
26144W        W91305  20.046  33.532   1.288
26145W        W91306  37.612  11.336  14.911
26146W        W91307  35.156  29.515   3.237
26147W        W91308  35.508  13.705   2.781
26148W        W91309  11.614   3.859   1.818
26149W        W91310  20.523  43.286   2.437
26150W        W91311   2.465  24.707   4.504
26151W        W91312  14.654   5.830   4.235
26152W        W91313  14.629  18.627  14.032
26153W        W91314  38.028  17.605   4.358
26154W        W91315  44.442  34.910  13.844
26155W        W91316  13.489  12.481  13.355
26156W        W91317   1.281  13.273  13.497
26157W        W91318   5.373  37.701   0.826
26158W        W91319  23.785  35.527  10.606
26159W        W91320   9.259   8.926  14.047
26160W        W91321  35.464  10.916  11.502
26161W        W91322  44.368  26.268   2.146
26162W        W91323  16.519   1.199  11.072
26163W        W91324  16.711  32.605   3.720
26164W        W91325  36.741   8.972  11.194
26165W        W91326  13.974   8.875   4.673
26166W        W91327  15.648  14.623   4.359
26167W        W91328  16.927   3.457   2.461
26168W        W91329  31.928  16.761  14.320
26169W        W91330  28.457   0.281  12.460
26170W        W91331  33.629   3.231   4.666
26171W        W91332  19.413  35.781   2.394
26172W        W91333   6.230  42.876  11.622
26173W        W91334  44.762  19.100   0.937
26174W        W91335   4.797  11.612   2.310
26175W        W91336   2.700  29.826   0.981
26176W        W91337   8.844   2.759   3.383
26177W        W91338  32.547  25.508   1.697
26178W        W91339  28.688  22.366  11.183
26179W        W91340  10.663  38.587   1.987
26180W        W91341  16.878   9.318  12.501
26181W        W91342  33.397  23.267  12.408
26182W        W91343   3.289  42.684   4.021
26183W        W91344  10.515   6.158   0.561
26184W        W91345   1.691  12.061   5.459
26185W        W91346  12.067  43.577   4.420
26186W        W91347  27.557  34.445   1.583
26187W        W91348  15.869  41.895   2.370
26188W        W91349  28.981   7.738  13.018
26189W        W91350  10.315   5.109   2.378
26190W        W91351  34.952  13.648  13.589
26191W        W91352  17.330  15.658   4.124
26192W        W91353  38.878  11.933   4.082
26193W        W91354  43.820  35.977  11.387
26194W        W91355  38.136  29.322   0.193
26195W        W91356  12.032  28.213   1.327
26196W        W91357  36.284  44.955  14.332
26197W        W91358   0.859  33.253   1.594
26198W        W91359  11.105  27.818   3.693
26199W        W91360  11.950  17.536  12.547
26200W        W91361  43.219   2.827  14.571
26201W        W91362   1.130  17.108   1.276
26202W        W91363   7.556  39.031   2.703
26203W        W91364   3.552  41.993   5.056
26204W        W91365  34.495  40.620   4.462
26205W        W91366   0.690  18.827  11.051
26206W        W91367  33.852  41.048   4.920
26207W        W91368  31.473  44.025   1.269
26208W        W91369  38.423  19.600   4.531
26209W        W91370  37.824  16.515   4.324
26210W        W91371   4.331  37.366   1.183
26211W        W91372  43.254  21.138  11.650
26212W        W91373  16.183  26.641   2.250
26213W        W91374  26.680  42.498   1.204
26214W        W91375  23.560   6.917  14.529
26215W        W91376  38.173  25.252   0.520
26216W        W91377  23.991  37.992   5.073
26217W        W91378  30.695  14.917   1.437
26218W        W91379  41.805  20.229  14.428
26219W        W91380  24.022  21.622   0.017
26220W        W91381   8.749   1.308  11.899
26221W        W91382  27.391  14.055  11.610
26222W        W91383  26.205  41.945  12.993
26223W        W91384  38.651  10.025  12.821
26224W        W91385   5.803  11.732  13.023
26225W        W91386  38.345  33.086   0.334
26226W        W91387  38.425  22.650   4.355
26227W        W91388  36.442   6.178   1.359
26228W        W91389  14.678  13.375   2.610
26229W        W91390  35.531  28.616   3.141
26230W        W91391   9.176  32.687  14.744
26231W        W91392  28.703   1.354   2.849
26232W        W91393  18.184  22.789   3.125
26233W        W91394  26.265  35.389   1.959
26234W        W91395  14.104  10.443   2.567
26235W        W91396   4.698  34.371  11.533
26236W        W91397  35.931  17.821   2.760
26237W        W91398  21.576   1.474   3.682
26238W        W91399  28.158  21.020  14.831
26239W        W91400   9.950   6.796   2.858
26240W        W91401  30.979  14.810   2.679
26241W        W91402   4.259  44.516   4.595
26242W        W91403  39.897   8.668  12.827
26243W        W91404  20.808  26.590   1.031
26244W        W91405  10.808   5.218   0.777
26245W        W91406  11.612   7.781  14.131
26246W        W91407  25.078  33.638  10.624
26247W        W91408  19.118  25.007  14.445
26248W        W91409  43.384   8.459  13.898
26249W        W91410  32.089  25.720   1.849
26250W        W91411  32.824   4.709  12.954
26251W        W91412  22.237   6.392   4.907
26252W        W91413  11.590   8.805  11.934
26253W        W91414  23.175   5.949  14.553
26254W        W91415  35.534  15.599   0.902
26255W        W91416  22.155  25.697  11.688
26256W        W91417  41.014  41.401  14.239
26257W        W91418  12.584  26.670  11.542
26258W        W91419  33.590   7.703   3.220
26259W        W91420  35.923  10.099  13.537
26260W        W91421   3.511  43.139  11.540
26261W        W91422  19.152  24.121  10.789
26262W        W91423  36.406  14.642   2.995
26263W        W91424  39.354  35.297  14.650
26264W        W91425  41.957  20.507  12.538
26265W        W91426  14.333  28.218  12.566
26266W        W91427  15.663  29.955  14.830
26267W        W91428  37.007  43.872  13.618
26268W        W91429  21.942  30.003  11.121
26269W        W91430  35.303   6.665   2.160
26270W        W91431  10.105  30.856  13.833
26271W        W91432  20.206   6.408   0.236
26272W        W91433  26.240  44.244  14.488
26273W        W91434  22.001  37.750  10.680
26274W        W91435  36.565  39.987   2.622
26275W        W91436   1.860  23.237  10.745
26276W        W91437  36.008  18.590   2.355
26277W        W91438  20.172  35.300   3.630
26278W        W91439   6.382  32.794  10.727
26279W        W91440  17.344  26.834   1.327
26280W        W91441  12.717   9.069   1.715
26281W        W91442  13.274  18.774  11.839
26282W        W91443  37.510  40.897   5.014
26283W        W91444  34.914  44.017  13.884
26284W        W91445  19.869   3.197  11.180
26285W        W91446   1.155  32.560  14.867
26286W        W91447  12.578  13.239  14.497
26287W        W91448  33.292  19.470   4.132
26288W        W91449   6.275   8.147  10.410
26289W        W91450  37.217  26.675   5.094
26290W        W91451  12.753  13.379  12.197
26291W        W91452  28.173   5.525   0.513
26292W        W91453  17.849  18.607  12.342
26293W        W91454  26.741  20.668  12.587
26294W        W91455  12.181  12.211   3.802
26295W        W91456   4.429  17.230   0.547
26296W        W91457  22.178  29.358  12.229
26297W        W91458  33.667  15.609  10.624
26298W        W91459  10.376   6.383  14.360
26299W        W91460  16.836  34.097   1.779
26300W        W91461  30.062   0.304   2.283
26301W        W91462  29.557  13.798  11.115
26302W        W91463  14.013  36.063  12.433
26303W        W91464  33.870  26.888   4.741
26304W        W91465  29.349  32.217  10.291
26305W        W91466  34.485  26.426   3.685
26306W        W91467  23.486  40.804   0.373
26307W        W91468   6.647  27.634  14.009
26308W        W91469  10.184  23.830  11.624
26309W        W91470  41.918  12.378  14.858
26310W        W91471   5.651  25.945   0.928
26311W        W91472  41.482   4.982   4.131
26312W        W91473  30.264  42.189   3.367
26313W        W91474  20.668  14.528  11.597
26314W        W91475  41.020   5.510  12.498
26315W        W91476   1.369  43.387   1.693
26316W        W91477   2.486  44.742   4.569
26317W        W91478  15.451  42.612   2.744
26318W        W91479  11.760  33.395  10.529
26319W        W91480  16.079  27.686  12.559
26320W        W91481  25.495  15.607  14.089
26321W        W91482  29.886  30.369  14.412
26322W        W91483  13.273  38.598  11.558
26323W        W91484  15.158  25.741  12.109
26324W        W91485  36.720   5.968   3.086
26325W        W91486  30.559  37.843   3.893
26326W        W91487  42.814   3.443   3.546
26327W        W91488  13.240  10.706   0.427
26328W        W91489  38.946  38.456   2.120
26329W        W91490  44.757   4.883   4.392
26330W        W91491  43.665  39.606  11.000
26331W        W91492  23.043  17.596  12.065
26332W        W91493   9.311  33.113  10.944
26333W        W91494   6.187   3.527   3.661
26334W        W91495  24.220  12.570   1.176
26335W        W91496   7.441  38.295   3.251
26336W        W91497  36.436  21.722   1.790
26337W        W91498  37.064   9.077   2.898
26338W        W91499  11.313  33.554  12.668
26339W        W91500  12.588  12.406  11.588
26340W        W91501  11.829  32.656   3.287
26341W        W91502  33.018  27.476   3.841
26342W        W91503  42.040   6.204  12.122
26343W        W91504  42.282  13.134  11.187
26344W        W91505  31.901  27.567  12.062
26345W        W91506   6.197  41.257  13.394
26346W        W91507  43.969   9.493  13.367
26347W        W91508  11.190  41.985  14.771
26348W        W91509   7.123   7.798  14.286
26349W        W91510   7.384   1.766   3.176
26350W        W91511  14.583  43.705  11.560
26351W        W91512  38.635  22.261  14.426
26352W        W91513  26.936  23.512  14.040
26353W        W91514  31.495  12.669   4.143
26354W        W91515  19.688   1.285   0.256
26355W        W91516   0.765  10.419   4.084
26356W        W91517  41.812  43.314   2.347
26357W        W91518  22.803  11.137   2.109
26358W        W91519   2.590   3.692   4.667
26359W        W91520  41.847  39.996   3.254
26360W        W91521  38.140  28.049   3.761
26361W        W91522  17.132  42.436  12.912
26362W        W91523  29.454   0.361   3.508
26363W        W91524  21.195  12.445  10.715
26364W        W91525  33.411   6.490  13.576
26365W        W91526   4.596   2.338   3.263
26366W        W91527  23.245   1.205   2.790
26367W        W91528  29.710   3.248  11.280
26368W        W91529  43.201  15.612   0.321
26369W        W91530  15.562  12.516  12.033
26370W        W91531   2.440  42.182   2.666
26371W        W91532  42.328  12.326   2.168
26372W        W91533  34.356  10.314  12.102
26373W        W91534   0.952  41.925   2.219
26374W        W91535  14.377  23.034  13.927
26375W        W91536   0.093  32.556   1.210
26376W        W91537  29.225  27.638  14.895
26377W        W91538   7.903  31.022   1.215
26378W        W91539  10.577  43.268  12.524
26379W        W91540  43.417   3.507  14.138
26380W        W91541  19.279  35.590  14.099
26381W        W91542  32.575  19.803   4.020
26382W        W91543  43.861  39.350  12.447
26383W        W91544  39.000  13.182  12.911
26384W        W91545  15.821  41.805  14.779
26385W        W91546  11.284  39.342   3.688
26386W        W91547  10.651  23.616  11.499
26387W        W91548  22.467  36.685   0.507
26388W        W91549  27.721  17.730   3.126
26389W        W91550  13.619  11.531   3.277
26390W        W91551  11.633  44.442  14.900
26391W        W91552  23.837  33.675  13.854
26392W        W91553  10.253  42.002   0.270
26393W        W91554  43.265  41.014   4.739
26394W        W91555  36.360  30.998   0.350
26395W        W91556   6.970  28.769  11.462
26396W        W91557  38.064   0.948  13.403
26397W        W91558  22.604  40.855  12.162
26398W        W91559  34.980  11.236  14.298
26399W        W91560  20.750  34.391   1.500
26400W        W91561  14.254  24.491   4.879
26401W        W91562  44.879  10.402  14.890
26402W        W91563  35.949  19.200  11.402
26403W        W91564  19.409  42.905  12.074
26404W        W91565  30.940  21.429   2.762
26405W        W91566  40.290  29.698   0.408
26406W        W91567  15.772  40.812  13.409
26407W        W91568  13.255  22.356   0.208
26408W        W91569  42.898  42.227   3.335
26409W        W91570  28.981  21.755  14.022
26410W        W91571  31.811  41.695  14.496
26411W        W91572   5.969  19.605   2.934
26412W        W91573  27.197  24.510  10.565
26413W        W91574  14.568  22.335   0.185
26414W        W91575  23.673  16.569   0.412
26415W        W91576   0.918   1.234   3.192
26416W        W91577  32.676   2.721  12.929
26417W        W91578   9.388   6.596  11.203
26418W        W91579  29.920  37.122  13.800
26419W        W91580  37.965  27.892  12.938
26420W        W91581  43.279  20.102  13.806
26421W        W91582  32.990  17.453  14.915
26422W        W91583   8.398  17.635   2.636
26423W        W91584  27.998  18.997  10.696
26424W        W91585  20.923   4.224  14.095
26425W        W91586  24.758   6.776   2.894
26426W        W91587  28.925  30.441  11.570
26427W        W91588  28.586   9.130  11.523
26428W        W91589  43.805  35.434   2.887
26429W        W91590  35.042  23.851  13.439
26430W        W91591   8.832  27.004   4.282
26431W        W91592   2.804  20.823  11.579
26432W        W91593  22.495  17.283  10.129
26433W        W91594  12.617  26.149  11.595
26434W        W91595  42.223   0.772   2.800
26435W        W91596  36.116  11.174  13.912
26436W        W91597  11.609  10.275   0.690
26437W        W91598  24.283  23.204   0.912
26438W        W91599  23.061  44.297  10.242
26439W        W91600  36.005  12.277   1.902
26440W        W91601  41.770  28.429  11.279
26441W        W91602  20.235   6.598   2.777
26442W        W91603   0.375  20.115   4.130
26443W        W91604   7.249   2.738   2.286
26444W        W91605   1.277  36.125  14.331
26445W        W91606  20.301  17.344  13.463
26446W        W91607  11.344  18.139  14.844
26447W        W91608  35.731  29.220   3.815
26448W        W91609   2.707  17.475   3.129
26449W        W91610   0.164  32.908   9.474
26450W        W91611  20.306   7.119   2.840
26451W        W91612  27.043   0.272   3.296
26452W        W91613  41.187   2.728  11.193
26453W        W91614  25.360   0.289  13.151
26454W        W91615  22.962  44.497   5.124
26455W        W91616  20.753  28.218  12.043
26456W        W91617   3.829  36.552   2.313
26457W        W91618  28.951  18.007   4.987
26458W        W91619  42.818   7.387  11.219
26459W        W91620  31.112  38.631   0.356
26460W        W91621  37.461  17.692  14.509
26461W        W91622  30.635   9.923   3.197
26462W        W91623  19.153  30.994  12.883
26463W        W91624  17.801   1.364  11.904
26464W        W91625   7.166  39.533   4.613
26465W        W91626   2.335  28.698  12.189
26466W        W91627  38.975  10.014   4.413
26467W        W91628  11.649  22.879   0.356
26468W        W91629  43.756  36.495  13.123
26469W        W91630   6.822  29.902   4.599
26470W        W91631  11.872   1.987   2.786
26471W        W91632  40.646  37.564   4.613
26472W        W91633  14.043  18.703   4.650
26473W        W91634  35.667  23.100  11.462
26474W        W91635   7.604  16.824   2.764
26475W        W91636  14.522   3.475   4.291
26476W        W91637  30.445  21.335   5.509
26477W        W91638  11.999  37.774   0.139
26478W        W91639   8.405  40.336   1.910
26479W        W91640  14.947   3.885   0.250
26480W        W91641  22.946  25.596  11.233
26481W        W91642  33.570  20.278   0.026
26482W        W91643  29.878  30.521  13.512
26483W        W91644  31.158  17.479   0.247
26484W        W91645   5.920  34.304   2.670
26485W        W91646  15.007   7.430   3.124
26486W        W91647  29.179  38.882   0.052
26487W        W91648   4.994  32.150  11.982
26488W        W91649  30.438  41.659   4.028
26489W        W91650  42.997  23.293  13.286
26490W        W91651  44.707  36.889   0.998
26491W        W91652   0.286  29.436  11.594
26492W        W91653  34.659   2.714  11.567
26493W        W91654  10.124  39.000  14.033
26494W        W91655   0.764  44.442  12.066
26495W        W91656  35.282  15.607   2.805
26496W        W91657   9.259  38.904   1.226
26497W        W91658  32.359  29.057  11.122
26498W        W91659  20.280  39.577  10.634
26499W        W91660  44.805  24.439  11.029
26500W        W91661  43.218   6.455   4.147
26501W        W91662  43.282  21.049   1.795
26502W        W91663  35.536  44.793  14.852
26503W        W91664  17.199  13.240  14.259
26504W        W91665  30.535  21.160  11.137
26505W        W91666  26.244  31.650   2.937
26506W        W91667   5.021  11.449  11.034
26507W        W91668   9.764  38.549  10.773
26508W        W91669   2.942  37.642   2.354
26509W        W91670  23.331  27.023  11.243
26510W        W91671  31.983  36.275   5.075
26511W        W91672  36.907  39.019  12.965
26512W        W91673  22.688  18.152  10.348
26513W        W91674  39.783  27.541   1.375
26514W        W91675  21.540  39.112  13.993
26515W        W91676  43.747  32.827   2.479
26516W        W91677   7.195  23.460  14.410
26517W        W91678   5.923  20.984   2.729
26518W        W91679  31.102  29.186  13.519
26519W        W91680  11.068  20.850   1.358
26520W        W91681   8.906   2.791  11.129
26521W        W91682  26.647  44.005   2.237
26522W        W91683  17.694  34.127   0.272
26523W        W91684  11.746  14.137  11.574
26524W        W91685  34.359  43.781   1.310
26525W        W91686  13.253  35.054   1.902
26526W        W91687  36.708  23.058  11.649
26527W        W91688  37.910  24.594  10.466
26528W        W91689  31.338  10.369   1.481
26529W        W91690  26.810  21.253  10.399
26530W        W91691   8.817  19.550   0.392
26531W        W91692   3.468  27.069   1.895
26532W        W91693  44.847  22.792  12.298
26533W        W91694  26.070   7.437  11.965
26534W        W91695  44.462  15.097   2.388
26535W        W91696  14.333   1.045  12.846
26536W        W91697  14.651   3.919   2.661
26537W        W91698  10.411  26.020   1.259
26538W        W91699   3.860  38.889   4.606
26539W        W91700  18.353   0.954  13.493
26540W        W91701  31.173  27.648  10.396
26541W        W91702  38.777  34.383   1.849
26542W        W91703  38.160   3.466  11.661
26543W        W91704  31.172  35.338   1.255
26544W        W91705  17.701   5.432   3.529
26545W        W91706  32.412  31.090   2.232
26546W        W91707   0.159  26.147  12.899
26547W        W91708  25.595  13.850   5.420
26548W        W91709  37.922   8.320  14.410
26549W        W91710  37.608  17.522   3.584
26550W        W91711  43.930  38.942   1.247
26551W        W91712  18.623  37.747   4.422
26552W        W91713  41.823  20.677  14.687
26553W        W91714   9.421  20.717  11.197
26554W        W91715   1.982  38.989   2.839
26555W        W91716  18.207   1.258   2.969
26556W        W91717  36.628  21.994   2.230
26557W        W91718  19.630  44.044  13.031
26558W        W91719  14.328  31.062  14.136
26559W        W91720   5.205  25.782  14.778
26560W        W91721  24.312  43.708  14.424
26561W        W91722  14.067  34.948  13.818
26562W        W91723  11.045   6.376  11.067
26563W        W91724   2.734   7.197   2.647
26564W        W91725  16.654  35.947   0.889
26565W        W91726  34.710   7.321   4.381
26566W        W91727   4.855  34.976   3.123
26567W        W91728  41.790  10.930   0.878
26568W        W91729  38.423  36.837   4.073
26569W        W91730  29.970  15.730   2.821
26570W        W91731   3.433  17.654  13.055
26571W        W91732  41.056  25.095   1.819
26572W        W91733  17.456   3.879  14.271
26573W        W91734  15.268   9.418  10.750
26574W        W91735   6.122   9.724  11.524
26575W        W91736  12.301  26.023   0.902
26576W        W91737  25.114  24.632  12.803
26577W        W91738  23.121  30.436  13.399
26578W        W91739  20.585  21.849   4.597
26579W        W91740  16.020  36.518   3.686
26580W        W91741   6.206  29.208   2.236
26581W        W91742  27.693  32.897   0.508
26582W        W91743   9.723  17.127  14.340
26583W        W91744   8.171   3.372  14.452
26584W        W91745  15.640  29.942  14.295
26585W        W91746  35.936  32.913  14.395
26586W        W91747  41.335   3.922  14.294
26587W        W91748   1.863   9.738   4.640
26588W        W91749   4.877  34.129  14.351
26589W        W91750  39.179  35.620  13.710
26590W        W91751   5.198  29.597   4.218
26591W        W91752  42.987  19.977   1.259
26592W        W91753  31.493  37.050   4.581
26593W        W91754  13.918  19.919  12.968
26594W        W91755  21.280  15.256  14.184
26595W        W91756   1.063  26.280  12.422
26596W        W91757  31.585  31.124   3.722
26597W        W91758  24.962  30.153  13.848
26598W        W91759   9.712  22.239  13.549
26599W        W91760   7.641  16.622  11.173
26600W        W91761  25.478  28.475   1.679
26601W        W91762  30.065  31.417  14.393
26602W        W91763  29.479   5.687  13.389
26603W        W91764  13.665  12.755  14.274
26604W        W91765  37.653  23.791  13.492
26605W        W91766   6.736   7.913   4.731
26606W        W91767  31.030  43.039   4.978
26607W        W91768  33.615  33.451  14.464
26608W        W91769  22.065   4.485   0.777
26609W        W91770  37.991   8.788   0.084
26610W        W91771  44.056  20.608   4.089
26611W        W91772  39.407  23.534  14.269
26612W        W91773  15.834  14.068   0.960
26613W        W91774  10.644  19.170   1.883
26614W        W91775  26.176   4.129  12.312
26615W        W91776   0.120  33.167   2.407
26616W        W91777  32.384  15.314   0.162
26617W        W91778  35.440  34.123  13.385
26618W        W91779  40.432   1.653  14.257
26619W        W91780  19.182  27.235  11.171
26620W        W91781  15.160  26.085   4.465
26621W        W91782  24.601  42.901   1.376
26622W        W91783   2.963  38.222   3.187
26623W        W91784  24.662  33.574   0.237
26624W        W91785  11.422  44.685  11.998
26625W        W91786   8.181  42.787   2.115
26626W        W91787  40.724   2.937  12.484
26627W        W91788  24.037  36.910  14.010
26628W        W91789   5.421   2.939   1.763
26629W        W91790   9.350  20.774   4.378
26630W        W91791  24.775  30.627  10.558
26631W        W91792  27.518  12.899   1.635
26632W        W91793   3.857   7.446  14.082
26633W        W91794   8.778  28.574   3.773
26634W        W91795   8.104   4.288  11.547
26635W        W91796  20.174  25.538   0.240
26636W        W91797  21.938  29.943   1.158
26637W        W91798  17.576   9.820   0.711
26638W        W91799  24.658  22.761   3.821
26639W        W91800  12.181  28.378  13.807
26640W        W91801   9.987  10.169   3.746
26641W        W91802   1.705  26.676   2.474
26642W        W91803  39.733  29.492  14.880
26643W        W91804  25.481  31.679   3.614
26644W        W91805  40.660   4.553   5.140
26645W        W91806  15.723  24.323  10.528
26646W        W91807  21.519  36.287  10.640
26647W        W91808  16.267  42.479   5.055
26648W        W91809   2.626  37.512  13.971
26649W        W91810  12.646  41.943   3.126
26650W        W91811   0.069  31.129  12.092
26651W        W91812  44.783  10.843   5.487
26652W        W91813  39.009   9.796  10.430
26653W        W91814   9.896  42.082  12.982
26654W        W91815  34.422  32.048   5.056
26655W        W91816  32.076  10.290   2.505
26656W        W91817  17.725  19.065   0.317
26657W        W91818  37.968  41.398   0.865
26658W        W91819  23.085  32.261  11.395
26659W        W91820  40.933  43.712  12.185
26660W        W91821   7.469   3.696   3.088
26661W        W91822  14.293  18.263  12.188
26662W        W91823  29.657  14.629   4.375
26663W        W91824  38.947   6.285  13.337
26664W        W91825  33.029   2.772  14.942
26665W        W91826  22.870  35.220   0.725
26666W        W91827  31.384  25.659   4.939
26667W        W91828   6.848  24.397   1.781
26668W        W91829  32.140   7.897  11.001
26669W        W91830   8.350  10.387   0.504
26670W        W91831  10.555  14.824  11.953
26671W        W91832  20.785   9.260   0.911
26672W        W91833  34.092   5.377  14.007
26673W        W91834  30.871  11.837  11.402
26674W        W91835  20.744  36.507   4.470
26675W        W91836  30.548  10.929   0.625
26676W        W91837  35.407  25.192   4.496
26677W        W91838  17.032  23.649  13.976
26678W        W91839  32.445   1.920   1.020
26679W        W91840  27.595   7.324  14.877
26680W        W91841  21.717   6.605  12.419
26681W        W91842  20.055  42.746   9.840
26682W        W91843  18.893  30.029   2.716
26683W        W91844  31.543  11.101  14.045
26684W        W91845  13.092  29.032  10.452
26685W        W91846   1.588  39.272  13.951
26686W        W91847   0.267  41.612   0.297
26687W        W91848   2.811  17.102   3.652
26688W        W91849  11.715  38.770  14.972
26689W        W91850  25.582  27.436  14.842
26690W        W91851  31.369  24.377  14.515
26691W        W91852  16.782   8.660  11.713
26692W        W91853  20.871  24.599   3.731
26693W        W91854  24.736  41.121   3.981
26694W        W91855  11.690  10.378   2.259
26695W        W91856  30.515  29.268  14.517
26696W        W91857  32.318  19.556  12.449
26697W        W91858   7.481   0.353  13.665
26698W        W91859  36.302  31.167  12.650
26699W        W91860  11.351  31.932   1.041
26700W        W91861   8.301   0.001   3.516
26701W        W91862   4.036  31.953  13.947
26702W        W91863  22.302  16.647  10.444
26703W        W91864   4.651  36.459  12.416
26704W        W91865   8.411  35.374  12.850
26705W        W91866  27.898  38.100  11.662
26706W        W91867   0.691  26.482   3.339
26707W        W91868  24.277  35.509  10.334
26708W        W91869   0.775   1.214  13.622
26709W        W91870  34.803   6.980   3.762
26710W        W91871  20.768  32.800   3.473
26711W        W91872  33.899  10.967  14.912
26712W        W91873  44.494  15.546  13.427
26713W        W91874  33.188  29.926   0.255
26714W        W91875  28.413   5.124   1.349
26715W        W91876  12.224  16.622  12.618
26716W        W91877  44.942  20.605  11.432
26717W        W91878  20.095   8.173  11.205
26718W        W91879  41.295  32.218  10.707
26719W        W91880   5.671  39.860   4.206
26720W        W91881  23.614  25.502   0.866
26721W        W91882   8.841  21.312   4.627
26722W        W91883   5.375   7.795  13.508
26723W        W91884   4.372   7.708   2.788
26724W        W91885  32.920  43.156   9.814
26725W        W91886   2.257  29.338  12.436
26726W        W91887  21.446  15.691  12.169
26727W        W91888  38.466  37.765   1.749
26728W        W91889  27.899  22.280  11.560
26729W        W91890   8.285  32.121  11.683
26730W        W91891  35.762  42.392  14.857
26731W        W91892  39.391   4.540   0.320
26732W        W91893  13.044  37.991   1.010
26733W        W91894  38.241  37.382   0.825
26734W        W91895  13.873  32.178  12.427
26735W        W91896   7.449  17.074   1.260
26736W        W91897   6.651  41.453  12.003
26737W        W91898  36.529  11.714   2.397
26738W        W91899  38.418   6.720   3.298
26739W        W91900   5.412  22.089   0.532
26740W        W91901  42.304  33.029   1.500
26741W        W91902  36.799   1.722  13.993
26742W        W91903   9.281  21.532   1.981
26743W        W91904  30.350  20.848   1.249
26744W        W91905  19.185   5.779  13.157
26745W        W91906  32.510  26.044  11.706
26746W        W91907  19.999   1.506  14.844
26747W        W91908   5.834  20.753  10.428
26748W        W91909  13.610  42.338   2.779
26749W        W91910  33.117   2.461  11.228
26750W        W91911   1.421  16.838  14.830
26751W        W91912  14.597  22.964   1.894
26752W        W91913  30.631  28.722  13.001
26753W        W91914  25.779  36.654   1.233
26754W        W91915  27.060  35.789  13.377
26755W        W91916  21.022  10.681   2.811
26756W        W91917   9.936  11.878  14.014
26757W        W91918   1.437  21.667  13.382
26758W        W91919  39.398  32.485  11.387
26759W        W91920  27.463   3.854   2.212
26760W        W91921  42.245  36.147  11.497
26761W        W91922   2.514   9.701   4.013
26762W        W91923  13.901  16.305   2.985
26763W        W91924  28.004  40.532  12.878
26764W        W91925   7.916   4.997  14.764
26765W        W91926   5.322  19.649  11.401
26766W        W91927  43.542  18.678  13.061
26767W        W91928  42.163   6.402   2.852
26768W        W91929   3.306  30.856   0.305
26769W        W91930  42.460   5.735  12.712
26770W        W91931  34.262  26.571  13.376
26771W        W91932  40.735   8.312  11.038
26772W        W91933   2.130  11.892   1.625
26773W        W91934  36.154  25.865   4.035
26774W        W91935  20.608   8.174   1.941
26775W        W91936  20.489   8.381   1.456
26776W        W91937  36.090   1.246  11.579
26777W        W91938   2.462  23.039  12.377
26778W        W91939  34.091  36.047   1.853
26779W        W91940  19.323   1.761  11.387
26780W        W91941  13.040   8.379   3.894
26781W        W91942  10.775  31.186  14.037
26782W        W91943  22.466  33.197  12.067
26783W        W91944  30.663  29.488   2.671
26784W        W91945  23.358  35.548  14.906
26785W        W91946   2.695  11.575   0.805
26786W        W91947  18.210  40.876  10.499
26787W        W91948  20.579   9.913   3.256
26788W        W91949  12.249  23.201   1.902
26789W        W91950  17.009  38.818  12.988
26790W        W91951  32.019  40.324   2.859
26791W        W91952  41.030  23.747  11.196
26792W        W91953  40.087   1.389  14.540
26793W        W91954  20.634   8.753  14.351
26794W        W91955  36.062  23.044  11.157
26795W        W91956  35.629  20.692   0.387
26796W        W91957  31.028  33.622   5.036
26797W        W91958  31.840   3.314   3.160
26798W        W91959  22.334  40.651   0.385
26799W        W91960  30.647   3.253  12.051
26800W        W91961  16.299  14.785   1.903
26801W        W91962  23.898  39.828   0.782
26802W        W91963   1.182   3.513  14.344
26803W        W91964  21.549  11.659  12.134
26804W        W91965  41.876  29.070   1.320
26805W        W91966  33.550  27.929  12.597
26806W        W91967  33.426  44.355  11.592
26807W        W91968   7.035  29.022  12.488
26808W        W91969   4.903  29.536  13.025
26809W        W91970   3.913  17.751   3.745
26810W        W91971  38.907  40.652   4.996
26811W        W91972  29.438  36.058   0.313
26812W        W91973  25.743  16.770   4.867
26813W        W91974  43.768  43.335   1.300
26814W        W91975  15.292  27.976   4.617
26815W        W91976  26.711  20.965   3.022
26816W        W91977  14.386  33.863  11.085
26817W        W91978  16.167  43.812  14.910
26818W        W91979  37.240  14.814   5.149
26819W        W91980  20.098  31.970  14.975
26820W        W91981  24.591   9.190  13.929
26821W        W91982  44.139  39.877  14.694
26822W        W91983   2.052  10.848   5.540
26823W        W91984  30.985  25.427  10.869
26824W        W91985  19.061  36.445   1.388
26825W        W91986  41.517  31.446  11.045
26826W        W91987  44.531  33.873   1.224
26827W        W91988  15.096  20.459   3.715
26828W        W91989   1.254   9.872  14.289
26829W        W91990  32.509   8.117   0.886
26830W        W91991  23.432  32.142  14.995
26831W        W91992   4.743  10.303   3.204
26832W        W91993  35.974  31.046  14.966
26833W        W91994  25.454   6.803   3.688
26834W        W91995  36.905  22.119  11.739
26835W        W91996  44.450  24.490   2.670
26836W        W91997  37.601  43.218   3.833
26837W        W91998  35.029  27.576  14.010
26838W        W91999   6.244  40.350  14.418
26839W        W92000  22.125  20.612   4.944
26840W        W92001  34.388  17.776   0.821
26841W        W92002  19.970  40.859  14.350
26842W        W92003  44.256  33.807  13.908
26843W        W92004  25.419  35.842  10.963
26844W        W92005  12.729  40.602   3.012
26845W        W92006  44.033  27.953  12.529
26846W        W92007  41.721  42.890  12.121
26847W        W92008  27.456  29.502  14.441
26848W        W92009  25.240  44.697  11.602
26849W        W92010  13.858  43.415  13.313
26850W        W92011  20.440  42.245   4.043
26851W        W92012   9.840  32.616  10.392
26852W        W92013  19.531  26.039   0.859
26853W        W92014  44.490  36.359   1.579
26854W        W92015  10.719  10.667   3.292
26855W        W92016  31.921  37.392  11.185
26856W        W92017   1.053  26.179  11.925
26857W        W92018  30.921   8.260  14.269
26858W        W92019  25.645  20.421  10.436
26859W        W92020   9.192   8.396  14.030
26860W        W92021  38.445  34.163  12.577
26861W        W92022  28.979  34.305   1.431
26862W        W92023  22.512  18.001   2.416
26863W        W92024   3.247  33.105  13.991
26864W        W92025  25.497   5.503  11.225
26865W        W92026  14.093   4.276  12.030
26866W        W92027  37.059  27.768  14.950
26867W        W92028  41.976  26.104   1.286
26868W        W92029  32.576  39.067  12.054
26869W        W92030  35.656  33.255  14.110
26870W        W92031  36.116  42.980  13.011
26871W        W92032  14.760   9.145  14.143
26872W        W92033  15.567  21.262  13.291
26873W        W92034   8.019  17.110  10.506
26874W        W92035  12.112  34.254  10.765
26875W        W92036  15.987   3.230   3.175
26876W        W92037   3.101  36.839   4.997
26877W        W92038  38.459   6.261  14.252
26878W        W92039  26.667  20.016   4.626
26879W        W92040  42.905  30.563   2.892
26880W        W92041  21.528   3.916   3.171
26881W        W92042  20.902  41.254  10.338
26882W        W92043  15.735  18.187   9.744
26883W        W92044  40.329  14.072   1.376
26884W        W92045  31.036   8.175  13.318
26885W        W92046  25.153  38.390  14.505
26886W        W92047   4.782  21.610   1.532
26887W        W92048  16.160  40.432   1.955
26888W        W92049  10.652  25.621  13.514
26889W        W92050  21.734  19.536   4.466
26890W        W92051  10.470  29.720   5.001
26891W        W92052  10.253  15.751  10.526
26892W        W92053  30.385  26.649   2.765
26893W        W92054   7.588  16.008  14.906
26894W        W92055  32.066  15.339   2.665
26895W        W92056  28.165  24.260  14.082
26896W        W92057  43.303  25.620  13.497
26897W        W92058  44.736  29.300  14.498
26898W        W92059  17.226  25.717   3.266
26899W        W92060  25.395   3.410  12.559
26900W        W92061  23.962  32.832   0.560
26901W        W92062  21.597  34.958   0.663
26902W        W92063   4.533  27.458   0.365
26903W        W92064  42.536  33.887   4.638
26904W        W92065  16.869  40.155   3.163
26905W        W92066  44.835  19.306  10.655
26906W        W92067  16.061  13.393  12.434
26907W        W92068  43.693   9.691   2.180
26908W        W92069   4.320  16.553   0.958
26909W        W92070   3.442  32.370  11.452
26910W        W92071   2.905   9.132  11.100
26911W        W92072  21.612  33.446   4.339
26912W        W92073  37.573  42.914   4.951
26913W        W92074  21.276  28.333  11.987
26914W        W92075  36.083  40.310  11.274
26915W        W92076  25.433  34.025  12.788
26916W        W92077  24.204  29.111  14.260
26917W        W92078   0.923  39.035   4.189
26918W        W92079  41.828  15.823   0.820
26919W        W92080  36.845   9.464   2.414
26920W        W92081  30.268  38.367  10.268
26921W        W92082  10.172   7.935  12.034
26922W        W92083  20.800  39.976  11.524
26923W        W92084  20.697  18.259   3.639
26924W        W92085  16.636   9.698   1.348
26925W        W92086   0.292   5.063  12.152
26926W        W92087  33.086  15.333  13.966
26927W        W92088  16.177  17.727  14.428
26928W        W92089  35.776  23.716   0.173
26929W        W92090  27.746  30.101  12.046
26930W        W92091  18.458  43.192  12.935
26931W        W92092  32.573   2.784   3.628
26932W        W92093  32.948  11.227  11.565
26933W        W92094  30.139   0.406   3.246
26934W        W92095  39.177   6.413  13.858
26935W        W92096   6.895  25.217   1.374
26936W        W92097  29.627  36.458  11.566
26937W        W92098  15.159   7.247   1.150
26938W        W92099  16.206   2.716  11.604
26939W        W92100  31.799   7.519  11.078
26940W        W92101  44.059  13.607  14.362
26941W        W92102   0.720   7.330   2.728
26942W        W92103  31.683  13.241  13.238
26943W        W92104   2.168  34.942   1.903
26944W        W92105  41.887  26.980   4.626
26945W        W92106   3.685  32.690  12.003
26946W        W92107  23.578  22.966   1.017
26947W        W92108  14.505  40.664   2.680
26948W        W92109  11.926  42.507  12.746
26949W        W92110   0.880  37.558   0.320
26950W        W92111  12.384  20.122  11.774
26951W        W92112  11.225   7.349   2.134
26952W        W92113  32.668   3.190   3.336
26953W        W92114  12.548   5.670  11.652
26954W        W92115  18.361   7.446   3.770
26955W        W92116  17.435  11.742   1.321
26956W        W92117   7.491   1.758   4.627
26957W        W92118  21.532   7.738   0.396
26958W        W92119  20.566   2.533   2.629
26959W        W92120  14.136  10.097  12.645
26960W        W92121  33.517  35.353  12.358
26961W        W92122   8.914  10.377  14.475
26962W        W92123  20.008  42.854  13.885
26963W        W92124  11.230  40.427  13.805
26964W        W92125  20.218   2.026  13.949
26965W        W92126  26.185   1.245   1.344
26966W        W92127  21.532  15.424  11.748
26967W        W92128  26.784  41.905   3.347
26968W        W92129  15.277  30.897  13.864
26969W        W92130  43.988  18.872  12.008
26970W        W92131  29.452  40.433   1.929
26971W        W92132  34.371   7.659   1.054
26972W        W92133  10.769   1.422  12.118
26973W        W92134  33.723  41.889  11.543
26974W        W92135  36.024  42.454   1.599
26975W        W92136  29.931   0.224  12.738
26976W        W92137  39.556  32.545  13.505
26977W        W92138   6.237  13.458   1.196
26978W        W92139  24.737   2.281   4.084
26979W        W92140  42.730  12.373   3.747
26980W        W92141   2.743  26.665  12.022
26981W        W92142  28.563  31.426   0.271
26982W        W92143  21.622   0.408  12.389
26983W        W92144  16.193   7.104  11.034
26984W        W92145  33.334   2.389   2.293
26985W        W92146   6.196   9.311   0.983
26986W        W92147  15.294  43.203  13.502
26987W        W92148  38.810  12.053  13.545
26988W        W92149  18.239  18.755  12.986
26989W        W92150  25.852  11.627   0.383
26990W        W92151  23.022  12.182   3.755
26991W        W92152  30.721  41.857   2.817
26992W        W92153  29.262  35.966  13.991
26993W        W92154  20.046  22.194   1.903
26994W        W92155  23.973  16.357  14.403
26995W        W92156  24.124  23.714   0.834
26996W        W92157  26.090  27.099   3.336
26997W        W92158  17.029   3.488   3.185
26998W        W92159  27.283  38.991  13.631
26999W        W92160  36.304  30.933   1.382
27000W        W92161  37.345  17.505  13.481
27001W        W92162  42.994   6.654   2.753
27002W        W92163  24.052   6.585  11.990
27003W        W92164  29.493   7.776  13.053
27004W        W92165  12.213  34.508   0.857
27005W        W92166  28.076  42.828   0.951
27006W        W92167  19.612  22.002  11.661
27007W        W92168  15.807  11.251  12.576
27008W        W92169   5.434   7.492   3.409
27009W        W92170  12.174  29.380  13.814
27010W        W92171  40.560   6.804   4.143
27011W        W92172  26.182  23.078  13.432
27012W        W92173  13.144   0.402  13.733
27013W        W92174   5.847   2.698  13.418
27014W        W92175  33.526  27.176   0.538
27015W        W92176  34.766  21.235   2.437
27016W        W92177  16.046  19.080  11.475
27017W        W92178  25.549  23.966  13.660
27018W        W92179  26.484   2.776  10.472
27019W        W92180  36.523  38.804   0.434
27020W        W92181  41.223  12.701   3.900
27021W        W92182  17.822  14.918  12.841
27022W        W92183   4.116  41.796  14.208
27023W        W92184   8.946   3.690  14.419
27024W        W92185   7.178   9.652  10.814
27025W        W92186   3.229  41.459   4.590
27026W        W92187  43.966  42.852   2.196
27027W        W92188  36.559  28.116  10.452
27028W        W92189  29.116  21.269   0.395
27029W        W92190   5.187  12.388  13.063
27030W        W92191  14.567  24.462  11.147
27031W        W92192   6.757   3.955  11.392
27032W        W92193  27.031   7.864   1.298
27033W        W92194  20.566   6.749  14.384
27034W        W92195  37.038  38.259   3.753
27035W        W92196  34.489   9.113  14.639
27036W        W92197  41.565  25.032   4.630
27037W        W92198   9.215  18.370  11.024
27038W        W92199  16.099  43.139   0.321
27039W        W92200   2.775  30.590   0.492
27040W        W92201  30.885  33.536  14.734
27041W        W92202  37.447   7.913   3.700
27042W        W92203  27.996  34.486   2.884
27043W        W92204  30.003  19.496   1.698
27044W        W92205  29.408  31.153  10.592
27045W        W92206  27.614  29.506  11.267
27046W        W92207  29.049   3.904   0.191
27047W        W92208   5.324  38.355  14.312
27048W        W92209  26.441  12.976  12.577
27049W        W92210  13.123  14.145  14.380
27050W        W92211  33.381   6.973  12.068
27051W        W92212  13.588  35.016  14.761
27052W        W92213  30.510  13.569   3.200
27053W        W92214  17.132  23.222   3.802
27054W        W92215  15.127   7.779   4.037
27055W        W92216  18.689   1.288  13.049
27056W        W92217  31.075   0.711  11.589
27057W        W92218  20.924   0.351  11.019
27058W        W92219   8.415  15.583   4.145
27059W        W92220   9.954  43.562   4.167
27060W        W92221  25.559   3.871   2.294
27061W        W92222  41.849   1.067  12.995
27062W        W92223  17.762  14.219   2.130
27063W        W92224  29.247  20.274   2.633
27064W        W92225  40.390  31.591   3.191
27065W        W92226  16.617  30.738  14.725
27066W        W92227  34.026  18.596   2.809
27067W        W92228  33.989  40.131   3.653
27068W        W92229   1.979  29.897   2.665
27069W        W92230  30.298  28.928   3.625
27070W        W92231  18.705  15.563   1.358
27071W        W92232  40.041  17.046   2.602
27072W        W92233  19.114  27.192  14.615
27073W        W92234  20.539  39.809  11.060
27074W        W92235  44.189  16.943   4.945
27075W        W92236   4.597  39.335  12.990
27076W        W92237   6.076  43.451  13.918
27077W        W92238  23.730  26.380   0.616
27078W        W92239  39.164  17.122  13.906
27079W        W92240  16.193  14.324   1.307
27080W        W92241  32.496  41.776   2.701
27081W        W92242  27.512  34.569  14.877
27082W        W92243  44.353   4.980  14.930
27083W        W92244   1.275  16.348  14.818
27084W        W92245  40.467  15.962   0.340
27085W        W92246  13.762   3.870  10.610
27086W        W92247  28.022  40.806  14.425
27087W        W92248  20.836  16.510   0.419
27088W        W92249  19.803  37.807  12.032
27089W        W92250   2.455   3.865  13.823
27090W        W92251  40.506  43.726   4.612
27091W        W92252   4.392  32.976   4.332
27092W        W92253  44.387  19.303  11.480
27093W        W92254  10.357  30.992   1.020
27094W        W92255   6.280  11.375   4.667
27095W        W92256  33.574  14.845   4.604
27096W        W92257  37.555   4.195  13.832
27097W        W92258  17.282   3.938  12.142
27098W        W92259  40.339  19.581   0.823
27099W        W92260  34.258  36.068   3.741
27100W        W92261  30.871  35.062  13.909
27101W        W92262  44.456  21.320   4.119
27102W        W92263   8.761  28.134   2.848
27103W        W92264  39.606  34.320   3.710
27104W        W92265  41.401  36.430   0.984
27105W        W92266  18.128  42.105  14.370
27106W        W92267  25.760  16.304   4.076
27107W        W92268   2.339   3.318  11.429
27108W        W92269   7.342  17.524  12.838
27109W        W92270   5.156  10.937  10.449
27110W        W92271  32.495  42.921  13.128
27111W        W92272  21.595   0.184   2.363
27112W        W92273  15.222  25.887  14.518
27113W        W92274  41.172  12.293  12.710
27114W        W92275  32.440  19.325  11.995
27115W        W92276  22.586  44.258   2.794
27116W        W92277  16.440   7.200   0.048
27117W        W92278  22.646  41.402  11.466
27118W        W92279  16.282  21.609   3.975
27119W        W92280  24.041  14.116   3.177
27120W        W92281  38.961  35.536  12.667
27121W        W92282  17.736  12.805  10.631
27122W        W92283   6.670   3.185  12.388
27123W        W92284  33.569  31.144   0.862
27124W        W92285  34.605  37.791  10.247
27125W        W92286  31.171  44.001   0.826
27126W        W92287  42.735  18.947   4.613
27127W        W92288  18.200  14.341  13.513
27128W        W92289  13.644  24.380  13.435
27129W        W92290  17.235  22.608   1.337
27130W        W92291  41.163  10.568   3.131
27131W        W92292  19.578  30.589  11.218
27132W        W92293  29.220  19.191  11.638
27133W        W92294  40.172   5.318  14.945
27134W        W92295  40.273  17.575  10.627
27135W        W92296  28.644  19.141   3.810
27136W        W92297  42.560  38.489   1.845
27137W        W92298  29.528  23.196   2.718
27138W        W92299  24.248  12.734   2.511
27139W        W92300  37.645  12.855   3.176
27140W        W92301   5.190  23.537  13.255
27141W        W92302  32.853  30.060   3.112
27142W        W92303  29.597  21.141  14.064
27143W        W92304  15.806  28.210   3.372
27144W        W92305   6.541  18.198   0.437
27145W        W92306   5.169  12.986   1.841
27146W        W92307  44.019  34.462  14.491
27147W        W92308   3.706  24.199   1.327
27148W        W92309  21.799  16.209   3.589
27149W        W92310  14.209   1.383  13.279
27150W        W92311  41.276  32.717   0.912
27151W        W92312  15.598  28.650  12.402
27152W        W92313  33.997  11.550  13.910
27153W        W92314   3.454  26.231  12.204
27154W        W92315  33.061  32.500   0.099
27155W        W92316  36.985  14.373  10.590
27156W        W92317  39.456  22.295   3.654
27157W        W92318   8.868  23.720   3.727
27158W        W92319  10.735  44.539  13.541
27159W        W92320  29.239  14.687  13.148
27160W        W92321   4.406  20.546  11.581
27161W        W92322  41.771  16.217   1.807
27162W        W92323   0.670  18.724   3.697
27163W        W92324  39.487   3.431   3.402
27164W        W92325   3.237   6.619   0.200
27165W        W92326   4.556   2.570   4.126
27166W        W92327  12.788  18.614   2.305
27167W        W92328  23.258  36.922  13.627
27168W        W92329  22.769  43.368  13.505
27169W        W92330  39.122   6.809   0.398
27170W        W92331  22.288  14.054   4.063
27171W        W92332  21.255  30.946  10.591
27172W        W92333  17.768   7.194   3.430
27173W        W92334  11.360  28.188   4.005
27174W        W92335  23.302   6.747  11.056
27175W        W92336  37.444  27.135  12.979
27176W        W92337   3.462   5.425   3.708
27177W        W92338  20.619  37.357   0.641
27178W        W92339  17.737   3.815  12.334
27179W        W92340   9.815  32.757   4.212
27180W        W92341   6.374   6.246  10.555
27181W        W92342  19.674  39.409   0.131
27182W        W92343  31.141  35.908   3.159
27183W        W92344  30.005   5.194  14.363
27184W        W92345  38.107  23.974  12.980
27185W        W92346  35.812  12.269  12.649
27186W        W92347   5.298  28.952  12.367
27187W        W92348  44.438  43.735   3.334
27188W        W92349  35.542  23.801  14.319
27189W        W92350  34.256  29.708  12.233
27190W        W92351  18.290  41.008   3.411
27191W        W92352  17.736  13.780   0.690
27192W        W92353  43.635  32.570   1.347
27193W        W92354  20.081   6.256  11.124
27194W        W92355  38.441  35.534  12.342
27195W        W92356  16.743  29.081  12.801
27196W        W92357   9.810  16.982   1.013
27197W        W92358  18.531  42.979  14.547
27198W        W92359  41.413   4.167  13.376
27199W        W92360  12.383  25.438   3.214
27200W        W92361   8.166  30.656   2.255
27201W        W92362  13.741  11.746   1.267
27202W        W92363  36.344  40.463   2.669
27203W        W92364  35.568   3.192   2.392
27204W        W92365  29.750  43.194   4.816
27205W        W92366  28.103  19.046  13.716
27206W        W92367  17.766   6.572   2.958
27207W        W92368  32.864   1.069   0.853
27208W        W92369  33.899  33.333   4.599
27209W        W92370   4.786  20.099  13.883
27210W        W92371  14.339   0.972  11.919
27211W        W92372   8.278  26.641  14.504
27212W        W92373  18.326  20.564  13.443
27213W        W92374   2.415  27.693   2.703
27214W        W92375  27.982  10.433   3.782
27215W        W92376  12.808   0.764  12.007
27216W        W92377  10.296   9.730  11.468
27217W        W92378  32.420  40.506   4.427
27218W        W92379  16.421  23.312   2.192
27219W        W92380  41.000  30.211  14.126
27220W        W92381  36.086  36.413  11.668
27221W        W92382  10.072  25.043   0.278
27222W        W92383  22.864  21.818   4.169
27223W        W92384   2.544  28.135   2.166
27224W        W92385   2.906  19.743   4.459
27225W        W92386  27.425   0.707  11.603
27226W        W92387  10.343   5.218  11.238
27227W        W92388  19.365  42.063   4.805
27228W        W92389  24.067   5.494   0.849
27229W        W92390  41.265   8.394   1.365
27230W        W92391  42.061  27.980  14.849
27231W        W92392   4.386   5.381  13.087
27232W        W92393  15.642  29.135  14.411
27233W        W92394   8.368  17.767   3.479
27234W        W92395  24.175  20.502   3.610
27235W        W92396  24.715  28.243   1.238
27236W        W92397   0.350  39.271   1.626
27237W        W92398  44.400  27.770   0.998
27238W        W92399  26.835  16.902   2.912
27239W        W92400  34.488  43.349  11.568
27240W        W92401   4.547   2.234  12.507
27241W        W92402   2.805  15.749  13.899
27242W        W92403  42.497  38.997   1.772
27243W        W92404  35.291   6.167   0.022
27244W        W92405  34.171  44.960   3.622
27245W        W92406  11.169  25.474  11.186
27246W        W92407   7.870  38.483   3.483
27247W        W92408  21.661  44.186   2.386
27248W        W92409  29.795  24.447   3.045
27249W        W92410   8.508  43.703   2.077
27250W        W92411  11.796  34.029  11.596
27251W        W92412  36.526  16.304  11.563
27252W        W92413  14.839  35.264   2.291
27253W        W92414  25.459  33.038  12.914
27254W        W92415   0.211  35.046  13.316
27255W        W92416  11.323  16.204   0.442
27256W        W92417  43.395  15.208   4.001
27257W        W92418  10.571  27.410  10.305
27258W        W92419  32.462  42.015   0.391
27259W        W92420  40.237  11.428   4.682
27260W        W92421  29.861   5.748  11.166
27261W        W92422  30.423   5.447  13.647
27262W        W92423   8.377   0.308  13.435
27263W        W92424  26.895  15.268  14.840
27264W        W92425   6.769   0.250  14.311
27265W        W92426  26.549  27.179   0.356
27266W        W92427  44.808  17.563  14.486
27267W        W92428   8.667  13.388   4.062
27268W        W92429  24.779  40.863   0.471
27269W        W92430   8.451   6.949  13.398
27270W        W92431   5.158  14.880   2.245
27271W        W92432  33.026  30.423   0.123
27272W        W92433  41.989  41.361   9.855
27273W        W92434  44.384   3.874  13.028
27274W        W92435  41.382   6.379  12.732
27275W        W92436  35.338  29.998   1.474
27276W        W92437  17.147  22.228  12.037
27277W        W92438  28.116  44.402  11.280
27278W        W92439  19.251  37.522  13.490
27279W        W92440  43.381  34.302  10.713
27280W        W92441   5.553  43.367  13.860
27281W        W92442  20.611  39.804  13.090
27282W        W92443  27.603   9.090   2.585
27283W        W92444   6.902   6.219   4.692
27284W        W92445  32.848  29.380  13.868
27285W        W92446  36.888  16.802   0.869
27286W        W92447  40.009  30.924  12.888
27287W        W92448   1.715  25.768   3.598
27288W        W92449  32.622  22.370  13.129
27289W        W92450  44.107   1.214   3.758
27290W        W92451  27.017   1.846   3.695
27291W        W92452  26.465   8.811   2.317
27292W        W92453  16.653   7.170   1.427
27293W        W92454   6.074  25.995   2.800
27294W        W92455  28.760  29.987   3.065
27295W        W92456   7.265  41.973   2.399
27296W        W92457  29.536  31.914  12.190
27297W        W92458   9.729   5.765  14.834
27298W        W92459  23.076  26.860  12.455
27299W        W92460  31.967   8.238  12.212
27300W        W92461  32.903  14.247   0.681
27301W        W92462  29.289  19.665  11.837
27302W        W92463   3.245  30.683  11.019
27303W        W92464   9.932  32.475  14.241
27304W        W92465  24.112  29.066   1.839
27305W        W92466   3.334  13.870  14.522
27306W        W92467  13.315  32.588  13.464
27307W        W92468  11.629  18.003   3.892
27308W        W92469  39.690  25.938   4.561
27309W        W92470  39.938  31.506   2.345
27310W        W92471  20.035  27.468   0.897
27311W        W92472   9.724   5.410   2.708
27312W        W92473  11.652  11.302   3.641
27313W        W92474  33.501  31.696  10.693
27314W        W92475  18.169   6.679   4.174
27315W        W92476  31.591  44.176   3.690
27316W        W92477  12.597  36.314  10.558
27317W        W92478  42.480  37.679  14.358
27318W        W92479   4.755  28.625   3.475
27319W        W92480  32.647   5.662  12.299
27320W        W92481  41.474  40.780   1.344
27321W        W92482  37.301   6.211   0.141
27322W        W92483  25.236  31.184  11.073
27323W        W92484  38.100  25.599  12.752
27324W        W92485  13.754  10.708   0.495
27325W        W92486  22.191  43.438  14.225
27326W        W92487  43.400  28.547   0.358
27327W        W92488  33.470   8.059  12.871
27328W        W92489  33.030  12.132  12.078
27329W        W92490  16.304  25.231  12.447
27330W        W92491  25.753   9.870   0.965
27331W        W92492   5.772  26.983  10.559
27332W        W92493   4.192  19.079   4.826
27333W        W92494  19.843   5.910   1.594
27334W        W92495  34.574  20.531   2.721
27335W        W92496  10.824   1.521   1.470
27336W        W92497   1.614   2.281   2.365
27337W        W92498  13.753  38.262  12.156
27338W        W92499  31.508  26.404   2.008
27339W        W92500  25.954  13.120  12.880
27340W        W92501  34.516  25.265   5.004
27341W        W92502  35.863  35.093  10.641
27342W        W92503  19.512  21.748   5.431
27343W        W92504  11.586  15.698  13.839
27344W        W92505   9.071  23.210   1.522
27345W        W92506  41.574  32.969   2.721
27346W        W92507   4.280  37.120   0.218
27347W        W92508  12.045  25.160   4.498
27348W        W92509  39.364   8.596   2.887
27349W        W92510  33.906  23.906   1.443
27350W        W92511  14.498  39.672  10.229
27351W        W92512  23.039  41.040   0.201
27352W        W92513   3.915  25.110   4.470
27353W        W92514  12.802  32.926   1.926
27354W        W92515  12.609  34.573   2.893
27355W        W92516  12.982  25.436   4.652
27356W        W92517  15.076  29.560  12.573
27357W        W92518   1.986  24.328  13.051
27358W        W92519   8.654  15.255   3.790
27359W        W92520  24.456  18.188   3.670
27360W        W92521  41.308  27.648   2.158
27361W        W92522  18.483   5.107   4.965
27362W        W92523  37.665  38.831   1.810
27363W        W92524  32.350  24.511   1.499
27364W        W92525  21.615   0.883   2.866
27365W        W92526  12.779  13.134   1.525
27366W        W92527  42.543  32.078   2.916
27367W        W92528   9.305   5.256   2.195
27368W        W92529  40.335  30.578   4.919
27369W        W92530  35.067  42.970   0.028
27370W        W92531  27.473  43.365  13.802
27371W        W92532  16.312  42.463   1.469
27372W        W92533   5.511   6.156   4.575
27373W        W92534  33.923  30.367   3.774
27374W        W92535  23.114  25.061  13.317
27375W        W92536  44.511  32.707   0.516
27376W        W92537   3.289  32.376   2.763
27377W        W92538   6.702  20.648  11.006
27378W        W92539   1.301  41.000  10.561
27379W        W92540  27.882  24.204  12.450
27380W        W92541   4.225  32.228  12.474
27381W        W92542  38.881   4.994  10.671
27382W        W92543  24.095  22.751  11.850
27383W        W92544  13.682  19.939   4.554
27384W        W92545  33.980  13.278   1.850
27385W        W92546  43.291  28.051  12.430
27386W        W92547  29.966   2.217  12.929
27387W        W92548   6.401   5.710  11.677
27388W        W92549  35.041  27.224   3.758
27389W        W92550  14.322  15.618  14.546
27390W        W92551   6.061  11.319  13.491
27391W        W92552  41.876  20.989   4.597
27392W        W92553  40.281  41.292  14.893
27393W        W92554  12.447  33.578  11.187
27394W        W92555   2.937   2.758  12.872
27395W        W92556  15.321  34.554  11.171
27396W        W92557   6.681  27.111  13.897
27397W        W92558  22.463  16.560   0.915
27398W        W92559   4.160  15.831   3.762
27399W        W92560  21.001  27.367  12.668
27400W        W92561  29.140  23.218   3.062
27401W        W92562  22.012  40.885   3.316
27402W        W92563  24.438  10.174   4.126
27403W        W92564  21.895   9.465  10.436
27404W        W92565  14.387   1.706  10.689
27405W        W92566  44.337  23.703  12.923
27406W        W92567  27.169  22.034   4.755
27407W        W92568  13.760  21.161  12.546
27408W        W92569   6.232  34.895   3.807
27409W        W92570  32.154  18.224  14.888
27410W        W92571  38.538  38.850   0.558
27411W        W92572  26.003  30.474   0.205
27412W        W92573  20.747  37.407  11.764
27413W        W92574  19.313  13.106  12.579
27414W        W92575  40.742  14.133   3.155
27415W        W92576  37.062   9.300  12.872
27416W        W92577  37.281  10.315  12.020
27417W        W92578   0.363   1.273   3.457
27418W        W92579   5.450  16.825  13.857
27419W        W92580   5.617  29.048  11.075
27420W        W92581  11.837   4.223   3.486
27421W        W92582   2.254   2.792   0.670
27422W        W92583  15.795  41.015  12.102
27423W        W92584  11.263  28.415   2.302
27424W        W92585   6.542  42.398  14.837
27425W        W92586  40.367  21.491  14.378
27426W        W92587  17.733  33.164   4.376
27427W        W92588   2.847   8.619  11.197
27428W        W92589  28.563  12.115  10.239
27429W        W92590  24.763  32.565  14.003
27430W        W92591   4.191   5.234   1.605
27431W        W92592  14.271  31.952  13.637
27432W        W92593   8.854  41.886  13.798
27433W        W92594  11.598   3.158  12.392
27434W        W92595  26.535   0.952  12.941
27435W        W92596  20.094   3.699   2.313
27436W        W92597  37.554  31.227  11.240
27437W        W92598   2.183   3.762  14.344
27438W        W92599  22.583  21.482   0.277
27439W        W92600  29.567  42.608  13.464
27440W        W92601  28.244  13.114   3.189
27441W        W92602   4.394   2.999   4.373
27442W        W92603  23.686  19.022   0.850
27443W        W92604   4.244  19.143   1.238
27444W        W92605   8.329  44.845   0.004
27445W        W92606   9.873  42.783  12.459
27446W        W92607  24.301  36.173   4.131
27447W        W92608   5.932   2.886   4.248
27448W        W92609   4.974  31.860   9.726
27449W        W92610  29.596  22.706   2.843
27450W        W92611  17.106  12.659  13.980
27451W        W92612  29.385  39.951   0.283
27452W        W92613  18.694  15.009   2.663
27453W        W92614  43.623  12.672  13.998
27454W        W92615  20.666  15.544  11.591
27455W        W92616  28.129  30.096   2.040
27456W        W92617  30.659  43.323  14.522
27457W        W92618  40.863  31.342  14.843
27458W        W92619  27.596  38.232   2.539
27459W        W92620  18.685  34.700   3.129
27460W        W92621  13.168  34.920  12.928
27461W        W92622   6.178  36.480  13.197
27462W        W92623  15.792  38.852  10.964
27463W        W92624  39.875  33.584   0.286
27464W        W92625  30.973   4.343   0.426
27465W        W92626   6.131  22.085   1.375
27466W        W92627  23.511  26.927   5.018
27467W        W92628  36.157  16.581  10.581
27468W        W92629  24.132  40.413   0.668
27469W        W92630   8.819   2.938   2.597
27470W        W92631  24.231   8.790   3.874
27471W        W92632  12.767  16.804   3.826
27472W        W92633  17.223   9.762   2.927
27473W        W92634  23.594  11.225  11.304
27474W        W92635   3.200  17.828   4.015
27475W        W92636  27.494  35.878  11.178
27476W        W92637   9.281   2.008   0.345
27477W        W92638  37.534   9.405  14.452
27478W        W92639  37.657  30.081   4.064
27479W        W92640  19.647  27.726  13.345
27480W        W92641  39.265  14.785   0.356
27481W        W92642  14.564   2.220   2.942
27482W        W92643  28.579  43.005  10.590
27483W        W92644  16.513  32.108   4.461
27484W        W92645   1.447  19.647  11.219
27485W        W92646  30.481  24.081  13.380
27486W        W92647  41.847  44.422   3.563
27487W        W92648  38.588  25.556   3.659
27488W        W92649  12.202   2.796   0.345
27489W        W92650   4.230  39.997   0.206
27490W        W92651  23.447  29.210  14.991
27491W        W92652  37.210  13.222   5.094
27492W        W92653   9.775  10.371   2.363
27493W        W92654  23.301  13.562  14.319
27494W        W92655  22.636  26.190  11.036
27495W        W92656  26.506   9.455  12.410
27496W        W92657  33.618   9.340   3.848
27497W        W92658   4.863  41.817  12.625
27498W        W92659  39.108  25.683   3.655
27499W        W92660  20.476  21.104   3.654
27500W        W92661   2.958  16.864   9.732
27501W        W92662   2.620  12.779   2.789
27502W        W92663  14.577   5.620   3.381
27503W        W92664  17.264  33.934  10.686
27504W        W92665  31.540   0.388  11.493
27505W        W92666  39.130  19.741   2.274
27506W        W92667  10.296  43.813   4.452
27507W        W92668  13.549  30.595   1.807
27508W        W92669  22.644  19.784  10.754
27509W        W92670   7.129  43.844  11.429
27510W        W92671   7.445  44.737   4.764
27511W        W92672   1.274  42.261  11.219
27512W        W92673  13.802  33.633   3.243
27513W        W92674  37.637  41.418   4.438
27514W        W92675  28.523  22.680   4.494
27515W        W92676   2.483   2.160   4.570
27516W        W92677  41.839  25.134   4.213
27517W        W92678  18.032  44.543  11.108
27518W        W92679   2.207   3.425  13.950
27519W        W92680  26.177  30.433  10.859
27520W        W92681  23.947  42.441   2.267
27521W        W92682  31.795  32.395   0.184
27522W        W92683  31.698  24.103  15.000
27523W        W92684  28.272  30.029   0.264
27524W        W92685  22.590  43.194  14.451
27525W        W92686  27.667  43.480   4.065
27526W        W92687  28.568  41.479  11.987
27527W        W92688  15.838  31.518  13.362
27528W        W92689  12.675  19.726  13.837
27529W        W92690  17.773  20.431  14.339
27530W        W92691  44.430   1.755  10.728
27531W        W92692  33.639  38.527   3.053
27532W        W92693  21.644  33.353  14.489
27533W        W92694  14.729   5.200   0.578
27534W        W92695  42.086  36.474   2.173
27535W        W92696  36.398   3.873  14.910
27536W        W92697  32.074  25.196  13.550
27537W        W92698   1.013  21.315   4.081
27538W        W92699  20.804  30.400   1.758
27539W        W92700  13.146  33.178   2.612
27540W        W92701   6.773   7.962   0.809
27541W        W92702  19.648  34.830   1.135
27542W        W92703  43.293  31.992   1.933
27543W        W92704  43.753  44.347  12.062
27544W        W92705  11.979  19.319   2.410
27545W        W92706  41.316   4.413   1.897
27546W        W92707  11.217  32.065   0.411
27547W        W92708  28.924  20.679   3.192
27548W        W92709   1.724  35.782   3.781
27549W        W92710  37.779  24.682  13.423
27550W        W92711   5.292  19.163   4.169
27551W        W92712  30.550  16.198  12.505
27552W        W92713  14.118  34.847  11.983
27553W        W92714  33.033   4.359  12.372
27554W        W92715   8.734  30.912   4.310
27555W        W92716  22.560  10.270   0.270
27556W        W92717  28.693  17.679  13.067
27557W        W92718  40.701  10.729   3.291
27558W        W92719  35.856   7.791   2.290
27559W        W92720  40.006  40.061   2.392
27560W        W92721   0.874  26.784  13.236
27561W        W92722  39.445  15.846  12.458
27562W        W92723  33.251  37.886  12.896
27563W        W92724  18.512  24.578  10.899
27564W        W92725  17.490  38.477   2.268
27565W        W92726  36.107  31.808  11.173
27566W        W92727  24.480  15.079   2.775
27567W        W92728  44.488  18.806  14.945
27568W        W92729   2.477  36.018  12.519
27569W        W92730  17.822  25.530   1.035
27570W        W92731  16.110  20.661   2.799
27571W        W92732  26.430  20.521   3.164
27572W        W92733  38.631  32.891   2.118
27573W        W92734  37.896   6.425  12.899
27574W        W92735   5.322  37.894  14.069
27575W        W92736  26.568   1.758   4.617
27576W        W92737  32.171  41.815   0.847
27577W        W92738  23.267   2.306   4.191
27578W        W92739  17.207  29.504   2.278
27579W        W92740  34.322  16.582  13.908
27580W        W92741  36.626  31.181   0.992
27581W        W92742  31.553  24.874   3.599
27582W        W92743  26.998   4.983   1.875
27583W        W92744   2.917  30.224  12.554
27584W        W92745  42.339  38.812  12.987
27585W        W92746  33.991  25.691   2.295
27586W        W92747  33.324  17.135  10.794
27587W        W92748  33.654   6.268   2.916
27588W        W92749  15.029  37.217   3.658
27589W        W92750  21.968  20.223  14.451
27590W        W92751  24.559   4.156   4.827
27591W        W92752  33.292   7.655   2.727
27592W        W92753   9.694   0.430  11.456
27593W        W92754  37.998  18.197  12.481
27594W        W92755  35.525  36.654  11.945
27595W        W92756   9.310  13.858   3.127
27596W        W92757   8.078   2.039  14.221
27597W        W92758  22.334  39.172  14.464
27598W        W92759  25.005  40.808   3.175
27599W        W92760  34.717  14.562   4.603
27600W        W92761  27.943  12.407   0.807
27601W        W92762  12.895   0.398   1.999
27602W        W92763  10.373  11.151   0.751
27603W        W92764  41.509  15.382  12.508
27604W        W92765  33.929  36.483   3.743
27605W        W92766  31.174  37.068   4.180
27606W        W92767  22.474   7.292  12.176
27607W        W92768   5.729  13.414   1.301
27608W        W92769  15.858  44.981   0.038
27609W        W92770  19.251  28.433   4.144
27610W        W92771  13.327   8.882  10.782
27611W        W92772  41.611   4.286   2.313
27612W        W92773  27.742  32.611   1.340
27613W        W92774   3.130   6.083   0.284
27614W        W92775  41.999   5.757   2.283
27615W        W92776   7.772  44.741  12.086
27616W        W92777   1.165   2.172   4.884
27617W        W92778  42.725  42.263  13.014
27618W        W92779   1.133  18.818   0.985
27619W        W92780  15.171   8.215  14.822
27620W        W92781   4.867  37.747   4.111
27621W        W92782   7.918  43.092  11.457
27622W        W92783  28.887   4.030  12.491
27623W        W92784  24.449  38.896   1.298
27624W        W92785  28.125  28.002   1.360
27625W        W92786  21.498  24.060   3.221
27626W        W92787   0.390  42.912   4.509
27627W        W92788  28.637  16.342   1.196
27628W        W92789  19.994  42.523  12.306
27629W        W92790  28.039  43.853   4.103
27630W        W92791   5.832  34.976   3.213
27631W        W92792  28.537  39.551   3.395
27632W        W92793  24.342  36.993  13.609
27633W        W92794   8.147  25.060   3.661
27634W        W92795  12.308  33.993   3.629
27635W        W92796   4.009  33.217   4.583
27636W        W92797   1.378   5.515  12.910
27637W        W92798  40.959  26.925  10.680
27638W        W92799  36.614  17.776  14.487
27639W        W92800  11.250  24.208  12.047
27640W        W92801  34.301  33.421   0.918
27641W        W92802  17.205   5.444   0.325
27642W        W92803  26.135  31.263  14.427
27643W        W92804  17.147  30.900  12.416
27644W        W92805  17.520  13.377   3.292
27645W        W92806  42.948  28.165   2.786
27646W        W92807  34.352  37.049  11.858
27647W        W92808  32.470  30.536   0.243
27648W        W92809  33.923   7.943  12.009
27649W        W92810  29.038   6.319  10.646
27650W        W92811  21.823  27.585   3.363
27651W        W92812  20.539  27.697  11.363
27652W        W92813  13.392  40.454   3.846
27653W        W92814   2.511  34.507   2.592
27654W        W92815  19.342  43.438   1.807
27655W        W92816  21.456  26.061  12.218
27656W        W92817  11.329  35.014   3.747
27657W        W92818  24.173  15.209  13.121
27658W        W92819  36.807   4.357   4.227
27659W        W92820  24.206  12.922  12.334
27660W        W92821  26.829  39.799  12.946
27661W        W92822  31.091   5.648   3.193
27662W        W92823   2.148  34.142  12.455
27663W        W92824  37.635  40.212   1.325
27664W        W92825  23.706  35.449  14.483
27665W        W92826  11.597  43.368  12.402
27666W        W92827   0.852   1.203   2.171
27667W        W92828  40.564  22.469  13.430
27668W        W92829  33.057  36.772  13.218
27669W        W92830   5.653  14.815  13.063
27670W        W92831   6.231   6.359   3.010
27671W        W92832  19.315  15.398  10.602
27672W        W92833   6.712  34.756   1.317
27673W        W92834  12.748  25.960   3.729
27674W        W92835  10.156  12.208   2.794
27675W        W92836  26.187  29.578   3.338
27676W        W92837  20.625  11.344   1.800
27677W        W92838  19.088  20.307   4.145
27678W        W92839  14.941  11.290   0.790
27679W        W92840  42.081  19.396  10.832
27680W        W92841  30.556   7.886   2.445
27681W        W92842  32.124   4.712  14.416
27682W        W92843   4.382  42.267  10.851
27683W        W92844  23.075  35.872  13.557
27684W        W92845  12.476  40.021   0.864
27685W        W92846  25.455   2.213  14.974
27686W        W92847  13.369  12.752   0.063
27687W        W92848  39.953   2.478   2.804
27688W        W92849  37.660  11.439  11.543
27689W        W92850  13.390  27.759  11.196
27690W        W92851  42.916   5.979   2.377
27691W        W92852  37.110   3.578   5.224
27692W        W92853  29.627  21.280   0.520
27693W        W92854  27.142  43.442  10.626
27694W        W92855   0.374  32.927   0.926
27695W        W92856  41.499  18.329   4.344
27696W        W92857  24.764  31.595  11.600
27697W        W92858  17.524  28.822   4.512
27698W        W92859  35.878   9.693   0.815
27699W        W92860   9.924  37.861   0.831
27700W        W92861  43.828  38.865  11.557
27701W        W92862   7.083   5.934  13.605
27702W        W92863   5.320  29.012   4.793
27703W        W92864  27.437  21.673   2.358
27704W        W92865   6.331  41.532  11.221
27705W        W92866  10.381  35.020  13.206
27706W        W92867  13.403  12.756  11.475
27707W        W92868  24.707  27.231   0.976
27708W        W92869  13.619  35.463   1.193
27709W        W92870  25.841  21.392  10.036
27710W        W92871  17.652  37.971   4.382
27711W        W92872  22.973  30.844   3.354
27712W        W92873  19.183  26.382   1.311
27713W        W92874  20.826   6.258  10.691
27714W        W92875   3.674  21.100   4.647
27715W        W92876   3.921   0.783   1.718
27716W        W92877  27.176  36.560   2.301
27717W        W92878   2.881  32.182   0.465
27718W        W92879  11.328  38.615   2.227
27719W        W92880  33.135  37.435  12.161
27720W        W92881  44.469  10.719   2.854
27721W        W92882   8.287  30.700   1.392
27722W        W92883   8.916  14.273   0.358
27723W        W92884  31.627   2.918  11.137
27724W        W92885  19.265  25.271   4.281
27725W        W92886  27.653  20.967  11.262
27726W        W92887   1.922  26.658  10.524
27727W        W92888  18.494  20.253   1.274
27728W        W92889  22.704  24.504   2.272
27729W        W92890  25.165  27.225   2.459
27730W        W92891  42.704  43.346  11.164
27731W        W92892  22.535  29.288  11.071
27732W        W92893  21.203   0.776   3.331
27733W        W92894  19.162  11.853  12.129
27734W        W92895  20.721  36.342   2.006
27735W        W92896   4.173   8.759   2.866
27736W        W92897  35.570  39.949  13.520
27737W        W92898  17.615  26.389  14.892
27738W        W92899  33.327  13.840  13.359
27739W        W92900  41.044  25.113  11.517
27740W        W92901  25.710  39.424  10.291
27741W        W92902   9.214  12.119   2.946
27742W        W92903  44.328   5.486   2.818
27743W        W92904  36.857   4.402  12.076
27744W        W92905   2.828  33.857  12.988
27745W        W92906  17.625  25.414   3.450
27746W        W92907   6.918  40.507   3.684
27747W        W92908  21.134  26.896  12.377
27748W        W92909  13.707  20.212  12.600
27749W        W92910   8.470  37.892  14.885
27750W        W92911  25.773   5.921  11.131
27751W        W92912  35.059   3.334   0.708
27752W        W92913  30.812  22.439   1.796
27753W        W92914  36.423  26.723  14.023
27754W        W92915  25.539  25.568  14.373
27755W        W92916  44.629  38.060   5.003
27756W        W92917  10.099   0.333   2.260
27757W        W92918  32.979  26.612   1.632
27758W        W92919  33.599   9.670  10.304
27759W        W92920  13.520  31.300   2.387
27760W        W92921  12.882  15.622  11.640
27761W        W92922  44.277  22.026   1.804
27762W        W92923  28.381   8.458  12.691
27763W        W92924  40.461  34.881   3.756
27764W        W92925  30.757  23.162   3.275
27765W        W92926   8.298  35.064  14.591
27766W        W92927  30.662  38.113  12.030
27767W        W92928  42.856  42.769   3.229
27768W        W92929  30.871  30.342  14.351
27769W        W92930  29.319  34.464  12.628
27770W        W92931  22.712  24.968  13.014
27771W        W92932   8.723  43.305  10.413
27772W        W92933  37.475  38.910   1.329
27773W        W92934  21.819  15.166   4.619
27774W        W92935  25.920   8.252  11.584
27775W        W92936  20.496  39.741   1.406
27776W        W92937  29.506  13.015   5.065
27777W        W92938  33.120  40.702   3.470
27778W        W92939  19.291  12.797  13.566
27779W        W92940   4.317  44.412  12.532
27780W        W92941  12.037   0.960  14.431
27781W        W92942  19.168  11.594  14.955
27782W        W92943  18.641   1.683   4.687
27783W        W92944  20.029   1.963   3.237
27784W        W92945  21.979  36.672  14.305
27785W        W92946  38.720  10.251   2.198
27786W        W92947  17.302  29.727  13.044
27787W        W92948   5.415  36.279   2.836
27788W        W92949  22.491   2.262   0.485
27789W        W92950  38.078  40.936  12.935
27790W        W92951   0.274  36.510  12.526
27791W        W92952  11.873  35.980   4.003
27792W        W92953   9.673  19.280  12.456
27793W        W92954   5.673  22.271  14.954
27794W        W92955  28.958  24.036  14.889
27795W        W92956  26.171  41.768   4.987
27796W        W92957   5.677  33.411  11.644
27797W        W92958  13.789  27.448   2.668
27798W        W92959  19.145   0.293  10.902
27799W        W92960   5.493  40.269   4.504
27800W        W92961   2.316  33.217  14.384
27801W        W92962  43.901   4.358  14.276
27802W        W92963  43.293   6.895  10.660
27803W        W92964   2.769  20.469   2.545
27804W        W92965  36.305   5.273   4.180
27805W        W92966   6.793  31.530   0.311
27806W        W92967  39.313  12.759  12.826
27807W        W92968  29.985  36.039  11.963
27808W        W92969   0.699  43.330  10.433
27809W        W92970  38.938  33.092  14.201
27810W        W92971  17.815  15.441  12.089
27811W        W92972  23.898   1.835   3.982
27812W        W92973  13.143  31.583   4.190
27813W        W92974  40.977  38.217   5.603
27814W        W92975   8.480  28.066   4.191
27815W        W92976  11.387   3.381   1.869
27816W        W92977  22.315  20.592   1.888
27817W        W92978   6.208  32.575   2.270
27818W        W92979  40.195   1.461   0.395
27819W        W92980   6.365   7.247   0.774
27820W        W92981  18.120  14.121  10.508
27821W        W92982  33.831   2.022  14.437
27822W        W92983  42.551  28.040  13.986
27823W        W92984  29.533  10.970  12.312
27824W        W92985   7.333  13.186   4.129
27825W        W92986   8.677   3.424   0.317
27826W        W92987  26.072  42.247  12.097
27827W        W92988   0.855  39.549   4.254
27828W        W92989  36.711  22.338  14.072
27829W        W92990  10.953  35.560  12.514
27830W        W92991  12.178  20.610  11.581
27831W        W92992   9.262  39.542   4.416
27832W        W92993  25.258  41.013   0.523
27833W        W92994   8.907  40.544  10.963
27834W        W92995  26.021  43.384   3.287
27835W        W92996   6.307  21.453  11.227
27836W        W92997  24.500  34.029  12.724
27837W        W92998  22.555  25.001   3.136
27838W        W92999  34.950   1.917  12.402
27839W        W93000  37.733  10.016   2.205
27840W        W93001  30.572  34.638   1.765
27841W        W93002  20.700  26.442  13.415
27842W        W93003   3.156   3.352   1.592
27843W        W93004  16.742  32.572   4.504
27844W        W93005  12.643  20.201   4.610
27845W        W93006   0.154   4.945  14.355
27846W        W93007  12.438  24.499  11.290
27847W        W93008  36.896   1.004  14.908
27848W        W93009  43.583  22.989  11.973
27849W        W93010  16.848  41.417   2.766
27850W        W93011  39.818  11.616   4.924
27851W        W93012   0.575  40.822   2.883
27852W        W93013   7.616  32.849   1.821
27853W        W93014   4.530  32.633  12.512
27854W        W93015  34.872  32.317   0.175
27855W        W93016  10.283  37.862   3.084
27856W        W93017  21.737  37.404  12.007
27857W        W93018  40.548  27.054   3.713
27858W        W93019  17.651  31.169  10.625
27859W        W93020  44.489  26.054   3.785
27860W        W93021  23.571  41.452   4.135
27861W        W93022   3.922  41.959   4.217
27862W        W93023  18.146  32.388  10.448
27863W        W93024   2.779  44.862   3.892
27864W        W93025   4.601  15.986   2.768
27865W        W93026  12.386   1.377  11.557
27866W        W93027  29.601  23.557   3.083
27867W        W93028  11.908  33.950   0.294
27868W        W93029  43.837  24.197  11.740
27869W        W93030  22.704   0.122  13.783
27870W        W93031  17.895  30.719  10.767
27871W        W93032  19.353  16.099  11.584
27872W        W93033   4.904  41.429  10.092
27873W        W93034   9.264   3.972  14.798
27874W        W93035  35.973  42.310   2.760
27875W        W93036   5.802  13.599  12.446
27876W        W93037  43.822   4.820   3.558
27877W        W93038  41.949  29.114  12.076
27878W        W93039  28.392  21.554   0.223
27879W        W93040  28.585   8.468  14.579
27880W        W93041   3.447  18.583  10.522
27881W        W93042  15.367  20.585   2.361
27882W        W93043  18.976  30.445   4.248
27883W        W93044  17.702  39.347  13.974
27884W        W93045  44.837  28.395  13.843
27885W        W93046  11.599  24.276   4.588
27886W        W93047  40.834   5.265   0.419
27887W        W93048  30.587  21.739  14.747
27888W        W93049  13.743  20.670  14.501
27889W        W93050  41.300   2.236  12.317
27890W        W93051  43.414  35.826  12.183
27891W        W93052  28.918  42.163  13.702
27892W        W93053  37.508  18.322  10.441
27893W        W93054   3.311  36.489  12.079
27894W        W93055  11.933  28.704  12.416
27895W        W93056  13.568  23.681   3.291
27896W        W93057   4.310   2.607   0.759
27897W        W93058  35.508  28.995   1.174
27898W        W93059   4.644  18.107  14.402
27899W        W93060   6.640  20.180   2.698
27900W        W93061  17.356  42.095   3.114
27901W        W93062  17.794  24.784  14.418
27902W        W93063  18.608  39.949  14.519
27903W        W93064  32.458  30.620   1.957
27904W        W93065  14.703  40.380  13.677
27905W        W93066  10.648  23.737   4.979
27906W        W93067  18.903  39.817  10.253
27907W        W93068  18.452   9.030  10.926
27908W        W93069  14.122  36.106  13.311
27909W        W93070  32.585   0.264   4.223
27910W        W93071  19.360  10.823  12.455
27911W        W93072   0.365   7.864  10.964
27912W        W93073  37.985   5.850   4.417
27913W        W93074  42.983  31.429   4.700
27914W        W93075  21.225  32.040   0.961
27915W        W93076   7.623  35.631  11.608
27916W        W93077   2.684  12.281   2.382
27917W        W93078  39.203  37.400  12.081
27918W        W93079  31.437  13.859  14.837
27919W        W93080  18.419  38.976   1.685
27920W        W93081  27.014  43.716   1.685
27921W        W93082  23.648  12.156  14.046
27922W        W93083  42.815   9.034   2.828
27923W        W93084  21.165   3.876   0.831
27924W        W93085   4.745  44.525  13.841
27925W        W93086  22.338  16.064  12.550
27926W        W93087   9.299  13.203   1.924
27927W        W93088  16.608  12.289  13.605
27928W        W93089   8.822  36.332   1.244
27929W        W93090  40.962  15.768  13.008
27930W        W93091  42.404  27.983   4.886
27931W        W93092  35.153  27.465   4.327
27932W        W93093   0.318  11.662  14.688
27933W        W93094  14.676  42.233   4.174
27934W        W93095   3.694  17.742   4.561
27935W        W93096  29.730   8.254  13.109
27936W        W93097  40.038  19.947   3.995
27937W        W93098  13.137  19.123  10.670
27938W        W93099   5.809  12.145   4.384
27939W        W93100   9.395  40.310  11.014
27940W        W93101  43.030  43.205  13.094
27941W        W93102   9.163  14.132   2.313
27942W        W93103  15.623  20.738  12.662
27943W        W93104  33.308   8.206  12.413
27944W        W93105  43.940  13.196   0.214
27945W        W93106  23.193  14.112   3.714
27946W        W93107  22.074  35.447   1.173
27947W        W93108  14.187  14.966   4.439
27948W        W93109  22.309  40.298  13.568
27949W        W93110  43.949  33.196  14.483
27950W        W93111  18.292  32.295   1.420
27951W        W93112   7.793   9.317  13.574
27952W        W93113  14.697   1.304  12.595
27953W        W93114   4.520  23.475   9.973
27954W        W93115   6.454  42.905  12.064
27955W        W93116  29.103  39.776  12.613
27956W        W93117   5.781  11.659  10.500
27957W        W93118   0.797  32.017   4.182
27958W        W93119  23.754   6.257  10.488
27959W        W93120   2.879  32.379  13.731
27960W        W93121  42.660   9.720   1.285
27961W        W93122  29.095  10.113  13.955
27962W        W93123  22.174  14.577  13.535
27963W        W93124   3.203  25.569   2.175
27964W        W93125  13.089  14.158  12.038
27965W        W93126  32.895  30.905  12.510
27966W        W93127  37.939  42.219   4.053
27967W        W93128   6.411  44.564   2.744
27968W        W93129  10.949  21.965   4.312
27969W        W93130  28.405  33.430  13.837
27970W        W93131  25.481  36.124   3.550
27971W        W93132  27.031   7.853   2.749
27972W        W93133  34.675  21.763  11.014
27973W        W93134  23.710   1.445   3.655
27974W        W93135  43.045  22.932  10.736
27975W        W93136  31.463  42.265  14.122
27976W        W93137  23.419  36.027  13.210
27977W        W93138  38.220  44.889   0.317
27978W        W93139   5.719  21.792   0.121
27979W        W93140  30.081  31.898  13.335
27980W        W93141  25.033  43.342   3.445
27981W        W93142  14.694  13.874   0.017
27982W        W93143  44.147  33.654   0.368
27983W        W93144   0.896  15.231   0.521
27984W        W93145  44.343   0.920   2.948
27985W        W93146  38.963  39.952   3.883
27986W        W93147  18.831  32.543   3.776
27987W        W93148   8.873  23.802  11.150
27988W        W93149   4.174  25.992   0.294
27989W        W93150  26.277  17.713   3.179
27990W        W93151  13.115  30.953  12.137
27991W        W93152   8.799  44.658  12.941
27992W        W93153   2.686   6.099   0.007
27993W        W93154  40.306  30.188   1.303
27994W        W93155  31.965  25.445   2.306
27995W        W93156   0.401   7.925   0.814
27996W        W93157   4.618  41.562  14.317
27997W        W93158  26.934  33.585  11.320
27998W        W93159  18.339  11.866   0.443
27999W        W93160  15.795   2.707   3.256
28000W        W93161  26.418   9.434   3.571
28001W        W93162  36.653   3.791  11.997
28002W        W93163  41.591  16.292  12.448
28003W        W93164  12.367  22.270   0.736
28004W        W93165  41.592  28.325  11.907
28005W        W93166   1.925  35.273  13.454
28006W        W93167   3.808  22.283  11.566
28007W        W93168  20.703  36.076   0.254
28008W        W93169  28.319  22.588   2.737
28009W        W93170   2.442  20.650   3.610
28010W        W93171  36.364  21.139   2.822
28011W        W93172   8.383  36.352  10.800
28012W        W93173  20.048  18.847   5.084
28013W        W93174   6.468  42.467  13.946
28014W        W93175   1.949  15.658  10.961
28015W        W93176  41.305   7.163  14.859
28016W        W93177  27.106  35.546   2.128
28017W        W93178  38.550  24.236   4.432
28018W        W93179  22.156   1.793  14.884
28019W        W93180  24.250   4.857  12.706
28020W        W93181  38.941  15.709  12.854
28021W        W93182   4.491  11.524  12.431
28022W        W93183   7.308  24.247  11.611
28023W        W93184   9.734  28.965  11.178
28024W        W93185  22.727   7.844   4.289
28025W        W93186  44.339  39.342   1.913
28026W        W93187  10.747   8.699   2.360
28027W        W93188  37.389  30.176  13.176
28028W        W93189   9.675  11.207   3.698
28029W        W93190  11.597  29.916  13.640
28030W        W93191  25.215  15.550   4.116
28031W        W93192  21.284  31.902   2.387
28032W        W93193  26.630  38.574  14.504
28033W        W93194  15.224  14.628  12.116
28034W        W93195   8.256  37.760   1.921
28035W        W93196   2.480  43.031   3.131
28036W        W93197  34.380   8.381  13.241
28037W        W93198  30.899   8.356   1.770
28038W        W93199  13.330  36.077   4.534
28039W        W93200  37.971   2.926  13.176
28040W        W93201   9.854   1.434  10.656
28041W        W93202  39.997   5.412  10.846
28042W        W93203   4.753  17.778  10.826
28043W        W93204  22.658  23.214   3.139
28044W        W93205   3.665  17.518   2.408
28045W        W93206   9.825  39.417   3.713
28046W        W93207   4.382  35.464   0.087
28047W        W93208  42.554  14.071  11.578
28048W        W93209  34.901  14.830  11.666
28049W        W93210  41.482   5.858  13.888
28050W        W93211  17.603  21.712  14.908
28051W        W93212  30.306  37.695   0.816
28052W        W93213  24.111   6.542  10.729
28053W        W93214   1.741  40.917  14.051
28054W        W93215   0.265  42.013  12.885
28055W        W93216  30.856   4.766   1.830
28056W        W93217  21.552  34.830   2.084
28057W        W93218  13.003   6.652   4.153
28058W        W93219  28.162  34.422   2.403
28059W        W93220  40.443  22.568   3.168
28060W        W93221  23.790  22.093   1.675
28061W        W93222   1.757  14.083  10.753
28062W        W93223  22.578  31.826   4.227
28063W        W93224   2.065  37.562  14.615
28064W        W93225  29.058  29.259   1.885
28065W        W93226  14.008  43.747  12.439
28066W        W93227   8.806  13.177   4.509
28067W        W93228   3.111  17.466   2.306
28068W        W93229  33.037  16.403   0.054
28069W        W93230  20.778  15.214  12.450
28070W        W93231   4.313  14.177   1.827
28071W        W93232   7.533  31.915   5.070
28072W        W93233  14.526  31.408   1.278
28073W        W93234  10.246  22.975   1.312
28074W        W93235  40.339   7.868   4.984
28075W        W93236  40.031  12.128   2.244
28076W        W93237  43.460   6.410   2.849
28077W        W93238  24.641  11.910  13.030
28078W        W93239   9.234  11.780   3.348
28079W        W93240   8.189  17.120  13.834
28080W        W93241  31.975  37.836   1.701
28081W        W93242  43.980  26.843  14.075
28082W        W93243  19.783  14.839  13.020
28083W        W93244  27.041  43.331  13.488
28084W        W93245  31.852  14.313   3.615
28085W        W93246  44.353   9.130  13.265
28086W        W93247  15.944  17.699  10.989
28087W        W93248  10.161  28.241   1.809
28088W        W93249  20.251  38.265   0.796
28089W        W93250  34.052  13.408  13.542
28090W        W93251  10.914  31.662   1.670
28091W        W93252   5.105  26.692  12.361
28092W        W93253  43.280   9.074   1.773
28093W        W93254  13.795  17.627  12.998
28094W        W93255  24.631  16.720  14.268
28095W        W93256  35.782  14.881  10.655
28096W        W93257   2.089   6.402  11.327
28097W        W93258  15.673  43.754   4.043
28098W        W93259   1.393  16.284   2.424
28099W        W93260   3.387  14.071   2.215
28100W        W93261  22.519  29.989   0.389
28101W        W93262   5.266  31.877   1.551
28102W        W93263   9.859  12.641   3.832
28103W        W93264   6.689   0.777  12.474
28104W        W93265  31.194  21.473   2.302
28105W        W93266   4.498  12.286   1.929
28106W        W93267  17.953  28.543   0.867
28107W        W93268  20.518  11.625   4.318
28108W        W93269  11.095  27.203  14.346
28109W        W93270  34.149  33.973   3.518
28110W        W93271  44.844  35.838  13.115
28111W        W93272  38.533  30.052   4.488
28112W        W93273   4.149  16.684  10.943
28113W        W93274  34.675  32.169  11.115
28114W        W93275  42.430  19.286  14.247
28115W        W93276  22.803  24.456  14.388
28116W        W93277   9.458  20.913  14.470
28117W        W93278  35.626  32.354   4.155
28118W        W93279  25.674  11.222  13.820
28119W        W93280  26.627  14.729  10.787
28120W        W93281  42.108  37.331   2.890
28121W        W93282   8.268   2.037   2.169
28122W        W93283   5.353  17.773   0.564
28123W        W93284  32.835  32.873   2.991
28124W        W93285  28.243   1.583   3.027
28125W        W93286  28.465   7.881   4.910
28126W        W93287  35.571   2.936   4.636
28127W        W93288  33.227  36.018  10.670
28128W        W93289  22.344  19.647  10.115
28129W        W93290   3.883  37.487   2.872
28130W        W93291  36.476  11.812  12.053
28131W        W93292  15.906  13.573  14.475
28132W        W93293  23.468   7.269   1.334
28133W        W93294   1.020  22.190   1.236
28134W        W93295   8.660  39.499   1.799
28135W        W93296  30.811   4.941  11.620
28136W        W93297  20.618  24.706   2.851
28137W        W93298  29.436   6.000  12.417
28138W        W93299  30.023  18.071   0.261
28139W        W93300  33.934  15.505   2.846
28140W        W93301   6.371   9.582   2.781
28141W        W93302  18.563  38.760   0.023
28142W        W93303  21.919  34.275  14.649
28143W        W93304  33.493  25.663  11.419
28144W        W93305  35.174  11.594   2.897
28145W        W93306  33.875  31.737  11.997
28146W        W93307  34.969  23.015   2.759
28147W        W93308  36.326  43.495   4.754
28148W        W93309  38.223  20.897   1.846
28149W        W93310  39.625   4.786   4.137
28150W        W93311  23.010  42.263  14.306
28151W        W93312   6.795  19.501   4.502
28152W        W93313  17.634  41.549  12.053
28153W        W93314   4.798   6.182  10.727
28154W        W93315   2.907   1.768   3.424
28155W        W93316  25.949  27.885   1.433
28156W        W93317   7.732  41.934   2.655
28157W        W93318   2.262   6.867   1.261
28158W        W93319  44.780   3.732   1.768
28159W        W93320  28.463  30.387   3.315
28160W        W93321  10.752  10.311   1.795
28161W        W93322  17.570  35.571   0.176
28162W        W93323  26.253   0.428  12.218
28163W        W93324  44.535   9.643   4.762
28164W        W93325  31.989  28.669   1.177
28165W        W93326  16.633  11.299   2.426
28166W        W93327  35.338   7.751   0.804
28167W        W93328   5.501  20.549  11.564
28168W        W93329  20.305   7.222   3.491
28169W        W93330   6.184  24.571   1.366
28170W        W93331  24.695   3.322   5.402
28171W        W93332  16.189   0.516  12.088
28172W        W93333  29.158  27.899  10.772
28173W        W93334  16.086  27.497  13.852
28174W        W93335  16.719  22.315  10.742
28175W        W93336  16.110  26.981  13.768
28176W        W93337   7.918  26.484   9.850
28177W        W93338   8.706  43.901  14.473
28178W        W93339  41.346  37.467  10.228
28179W        W93340  24.521  31.692   3.459
28180W        W93341  32.539  12.995   0.325
28181W        W93342  28.765   2.613  13.595
28182W        W93343   8.880  27.133   3.797
28183W        W93344  33.655  10.816  11.911
28184W        W93345   3.201  41.481  10.709
28185W        W93346  39.370   7.413   2.179
28186W        W93347   2.526  27.112  12.172
28187W        W93348   4.332  22.411   2.795
28188W        W93349  26.640  39.431   9.956
28189W        W93350  10.571  23.529   0.870
28190W        W93351  25.174  27.623   4.407
28191W        W93352   7.202  38.420  12.161
28192W        W93353   2.759  31.215   3.774
28193W        W93354  40.770  20.563   3.334
28194W        W93355  11.759  20.057   3.615
28195W        W93356  14.631  27.959  14.782
28196W        W93357  18.741  15.601  12.005
28197W        W93358  10.681  24.057  14.976
28198W        W93359  25.097  25.086  14.712
28199W        W93360  35.915  14.907  14.916
28200W        W93361   9.284  16.744   0.498
28201W        W93362  20.161  29.962  11.417
28202W        W93363  21.642   8.213   0.769
28203W        W93364  25.613  26.175  14.750
28204W        W93365  31.862   5.817  13.012
28205W        W93366  24.082  17.554   1.406
28206W        W93367  40.405   3.846  14.075
28207W        W93368  10.265  20.068   0.238
28208W        W93369   4.253  34.962   1.781
28209W        W93370  41.179  30.037  13.669
28210W        W93371   3.388   4.201   1.224
28211W        W93372  26.689  34.579  13.152
28212W        W93373   9.684  31.979   1.157
28213W        W93374  40.458  42.658  14.372
28214W        W93375  40.607  42.406  13.930
28215W        W93376  10.594  25.641   2.361
28216W        W93377  42.402  27.764  13.520
28217W        W93378  28.234  23.063   1.710
28218W        W93379  44.400  41.952  11.959
28219W        W93380  44.969  19.012  13.405
28220W        W93381  36.940  37.381   3.592
28221W        W93382  35.100  11.196  13.801
28222W        W93383   0.734   2.953  10.679
28223W        W93384  13.468  27.841   5.269
28224W        W93385   9.191  11.108  13.060
28225W        W93386  25.729  41.705   3.690
28226W        W93387  17.435  10.770  11.873
28227W        W93388  21.303  12.917  14.468
28228W        W93389  10.142  25.582   1.271
28229W        W93390  37.375   4.412  13.392
28230W        W93391   0.236  41.484  12.930
28231W        W93392  39.722  44.738   4.084
28232W        W93393  27.714  29.659  13.917
28233W        W93394  36.870   5.249  12.065
28234W        W93395  41.836  21.189  13.871
28235W        W93396  37.485  30.914   1.950
28236W        W93397  12.108   5.019  11.193
28237W        W93398  30.687  38.376  13.441
28238W        W93399   1.820  30.995   4.149
28239W        W93400  22.989  14.294   1.943
28240W        W93401  20.637   9.547  14.025
28241W        W93402  38.510  15.682   2.868
28242W        W93403  33.411   9.021   3.507
28243W        W93404  38.928  27.968   1.144
28244W        W93405   6.133  40.705  11.651
28245W        W93406  25.891   1.994  13.593
28246W        W93407  27.706  24.736  13.433
28247W        W93408  18.486  24.191   1.936
28248W        W93409  21.467  38.837  14.864
28249W        W93410  32.264  17.569  13.796
28250W        W93411   3.709  13.989   2.898
28251W        W93412  38.924  18.040  10.773
28252W        W93413  30.696  23.794   3.067
28253W        W93414  13.240  14.341  11.552
28254W        W93415  42.852  25.439  12.464
28255W        W93416  15.805  23.208  14.328
28256W        W93417  25.199  27.692   2.253
28257W        W93418  42.919  34.197   3.394
28258W        W93419   2.748  40.111   4.125
28259W        W93420  24.202   7.303  12.159
28260W        W93421  30.574  10.093   0.285
28261W        W93422   3.450   2.769  11.193
28262W        W93423   2.256   1.013   1.428
28263W        W93424  32.602   0.744  10.820
28264W        W93425  10.607  10.751  13.928
28265W        W93426   2.432  10.329   1.896
28266W        W93427   8.331  38.260  12.859
28267W        W93428  18.647  25.585   3.321
28268W        W93429  12.417  38.512  14.705
28269W        W93430   3.396  12.124  12.307
28270W        W93431   6.017   9.854   1.481
28271W        W93432  14.135  37.525   3.668
28272W        W93433  34.182  41.378  10.918
28273W        W93434   5.264  23.550  11.077
28274W        W93435  31.669  17.488   0.245
28275W        W93436  27.124  22.492   1.730
28276W        W93437  44.797  23.489  11.937
28277W        W93438  15.987  24.097  13.270
28278W        W93439  23.923  10.743   1.227
28279W        W93440  23.756  22.255  12.414
28280W        W93441  40.534  25.549   1.352
28281W        W93442  22.261  32.981  13.509
28282W        W93443  39.623   7.852   3.276
28283W        W93444  25.203  41.093  13.944
28284W        W93445   6.856  31.787  10.084
28285W        W93446  38.080   5.960  14.466
28286W        W93447   3.221  33.884   2.480
28287W        W93448  21.305  42.711   4.558
28288W        W93449  27.610  38.585  13.535
28289W        W93450  18.105  44.740   4.535
28290W        W93451  38.196  23.396  12.129
28291W        W93452  20.239   1.820   2.795
28292W        W93453  17.217  15.352  14.443
28293W        W93454  39.308  31.500   0.908
28294W        W93455  44.904  24.987  13.867
28295W        W93456  39.888  20.206  14.509
28296W        W93457   3.781  34.334  11.012
28297W        W93458  38.377  43.329  12.993
28298W        W93459  13.759   5.403  14.504
28299W        W93460  44.826  11.360   1.377
28300W        W93461  10.204   6.303   2.844
28301W        W93462  37.119  22.898  13.318
28302W        W93463  10.595  25.226   3.262
28303W        W93464  18.204  40.647  13.264
28304W        W93465  15.568  16.582   0.747
28305W        W93466  43.508  32.910  10.942
28306W        W93467  34.539   7.641   2.069
28307W        W93468  16.553   7.288   3.127
28308W        W93469   5.465  32.472   2.725
28309W        W93470  27.431  29.007  11.236
28310W        W93471  16.303  10.121   2.885
28311W        W93472  43.922  41.722  12.039
28312W        W93473  36.996  11.630  14.071
28313W        W93474   3.472  34.355  12.589
28314W        W93475  31.750  10.434  14.800
28315W        W93476  32.597   3.172   1.434
28316W        W93477  19.234  27.016  10.716
28317W        W93478   4.756  27.908   0.211
28318W        W93479   5.899   4.274   3.361
28319W        W93480  11.939  36.706   0.828
28320W        W93481  37.632  17.805  11.551
28321W        W93482  34.382   4.494  11.333
28322W        W93483  22.061  40.960  12.086
28323W        W93484   6.395   1.963  11.147
28324W        W93485  36.937  41.304   1.379
28325W        W93486  27.017   2.878   0.235
28326W        W93487   0.848  35.309  10.668
28327W        W93488  17.659  33.144  13.568
28328W        W93489  32.732  35.358   3.461
28329W        W93490  11.492  29.970   0.314
28330W        W93491   6.028  32.097  11.142
28331W        W93492  16.121  16.830   2.346
28332W        W93493  13.581  17.804   4.540
28333W        W93494  26.773  29.130  12.412
28334W        W93495  12.889  17.168   2.305
28335W        W93496  29.299  21.591  14.407
28336W        W93497  28.584   6.111   1.960
28337W        W93498  20.217  37.345   0.986
28338W        W93499  26.398  15.107  12.477
28339W        W93500  28.451   6.513  13.330
28340W        W93501  30.745  20.451  11.454
28341W        W93502  38.802  32.984  10.295
28342W        W93503  14.745  20.160  14.618
28343W        W93504  17.309  42.596   3.230
28344W        W93505   9.555  24.826  10.088
28345W        W93506  40.023  16.527   2.651
28346W        W93507  39.789  11.216  13.916
28347W        W93508  32.547  15.611   4.934
28348W        W93509  16.586  15.355  12.537
28349W        W93510  28.644  12.349   4.528
28350W        W93511  40.902  44.313  13.908
28351W        W93512   0.966  10.218  14.666
28352W        W93513  43.045  43.003   2.310
28353W        W93514   8.590  15.811  14.862
28354W        W93515  18.737   8.803  11.827
28355W        W93516  13.947  22.499  11.498
28356W        W93517  12.682  19.115  11.567
28357W        W93518  30.700   9.516   2.374
28358W        W93519  38.376  21.471   3.993
28359W        W93520  25.731  41.948  11.244
28360W        W93521  28.138  25.845  12.856
28361W        W93522  27.972  20.068  13.060
28362W        W93523  27.436   0.996  12.014
28363W        W93524  20.522  23.113  10.694
28364W        W93525  43.308  15.097  10.611
28365W        W93526   2.150  37.079   3.688
28366W        W93527  12.995  42.862   3.835
28367W        W93528  33.691  29.704   4.271
28368W        W93529  13.762  34.150   1.347
28369W        W93530  16.761  12.161  12.013
28370W        W93531  22.719  12.154   2.886
28371W        W93532   6.459  41.947   4.067
28372W        W93533  44.785   9.328  12.359
28373W        W93534   2.271  30.346  11.049
28374W        W93535   0.500   2.043  13.068
28375W        W93536  16.331   5.923   2.764
28376W        W93537  25.655   7.348  12.503
28377W        W93538  14.891   6.688   4.724
28378W        W93539  26.368  35.821  12.439
28379W        W93540   9.098   8.208  12.649
28380W        W93541  14.718  20.978  14.860
28381W        W93542   4.691  23.673   2.671
28382W        W93543   1.174  29.547   1.725
28383W        W93544  41.943  27.982  13.397
28384W        W93545  23.978  31.054  14.381
28385W        W93546  37.468   3.677  10.820
28386W        W93547  42.761  43.485  11.660
28387W        W93548  41.285  27.623   3.802
28388W        W93549  38.395  17.034   2.331
28389W        W93550   8.222  42.513  13.407
28390W        W93551  25.656  14.224  14.506
28391W        W93552   1.405  35.501  10.634
28392W        W93553  35.200   2.380  13.629
28393W        W93554   3.622  38.798   3.239
28394W        W93555  29.447   2.771   1.756
28395W        W93556   4.953  33.125   2.344
28396W        W93557  44.239  20.114  13.530
28397W        W93558  19.814  38.675  13.087
28398W        W93559   0.472  21.634  10.895
28399W        W93560  10.358  20.613   2.237
28400W        W93561  30.086   3.806  14.603
28401W        W93562  26.013  15.529  13.964
28402W        W93563  33.982  11.680   1.411
28403W        W93564   1.279  27.200   4.590
28404W        W93565   4.666  39.548  11.901
28405W        W93566  38.752  44.212  14.852
28406W        W93567  21.604  13.768   1.907
28407W        W93568  14.104  21.870   4.558
28408W        W93569  40.353  42.653   2.876
28409W        W93570  10.358  44.902   3.220
28410W        W93571  37.994  23.038  12.974
28411W        W93572  14.295  10.768  13.326
28412W        W93573   0.891  26.184   4.920
28413W        W93574  20.533  35.342  13.957
28414W        W93575  40.181  32.320  12.007
28415W        W93576  24.632   0.775  10.442
28416W        W93577  21.075  15.992  12.970
28417W        W93578  11.053  24.299  14.240
28418W        W93579  34.831  10.652  13.515
28419W        W93580  43.450   3.297  11.143
28420W        W93581  27.953   8.397  14.254
28421W        W93582   5.182  42.301   3.104
28422W        W93583  38.955  30.959  12.080
28423W        W93584  31.048  40.477   0.768
28424W        W93585  30.772  34.887  12.564
28425W        W93586  34.978  22.256  11.239
28426W        W93587  25.363  40.252   1.685
28427W        W93588  35.341  11.208  10.711
28428W        W93589  37.817  19.118  12.599
28429W        W93590  28.833  35.419  11.187
28430W        W93591  30.095  16.263   2.821
28431W        W93592  42.901  29.877   5.019
28432W        W93593  17.540   7.470   0.631
28433W        W93594  22.968  26.562  13.918
28434W        W93595  22.878  26.520   2.599
28435W        W93596  32.148   6.511  10.923
28436W        W93597  28.345  22.059  10.942
28437W        W93598  12.096   6.421  11.969
28438W        W93599  29.902  31.879   1.868
28439W        W93600   2.273  12.399  13.894
28440W        W93601  40.913   7.642   2.756
28441W        W93602  20.260  32.805  12.158
28442W        W93603  28.653  39.861  12.900
28443W        W93604   4.293  24.632  12.517
28444W        W93605   2.774  11.816  12.977
28445W        W93606   7.758   8.937  14.814
28446W        W93607   7.165  20.263  11.620
28447W        W93608  29.526  35.258   0.981
28448W        W93609  14.743   2.840   4.703
28449W        W93610   5.114  42.188   1.332
28450W        W93611  10.628   7.758  13.438
28451W        W93612  22.927  32.979   3.340
28452W        W93613  17.180   8.602  13.377
28453W        W93614  38.962  44.623  11.584
28454W        W93615   1.478   6.732  14.864
28455W        W93616  34.977  41.014  12.907
28456W        W93617   3.372  10.653  12.057
28457W        W93618  19.327  39.801   9.958
28458W        W93619  21.804   2.969  12.497
28459W        W93620  39.264  25.606   2.472
28460W        W93621  43.787  32.545  12.156
28461W        W93622  39.272  28.626  12.966
28462W        W93623   3.743  12.303   4.310
28463W        W93624  10.881  39.470  12.954
28464W        W93625   1.352  33.970   4.136
28465W        W93626  21.678  20.065   4.419
28466W        W93627  18.164  32.498  11.476
28467W        W93628  40.004   5.402  12.114
28468W        W93629  16.953  11.696  13.836
28469W        W93630   2.041  10.346  11.961
28470W        W93631  27.268  35.113  11.651
28471W        W93632  18.566   0.008   3.811
28472W        W93633  44.272  27.742   4.086
28473W        W93634  12.094  31.301   0.830
28474W        W93635   2.952  44.855  10.790
28475W        W93636   5.770   2.402   4.136
28476W        W93637  28.912  22.715  12.431
28477W        W93638  13.685  29.960   3.734
28478W        W93639  12.798   5.293  13.440
28479W        W93640  10.685  41.557  12.936
28480W        W93641  39.964  43.765  12.477
28481W        W93642  41.923  31.638  12.572
28482W        W93643   8.617  38.935   2.684
28483W        W93644  42.386  20.115  11.010
28484W        W93645   8.995  36.063   3.171
28485W        W93646  28.709  14.697   4.589
28486W        W93647  30.550  32.569  14.743
28487W        W93648  19.390  23.362  13.557
28488W        W93649  12.563  25.484  12.644
28489W        W93650  17.258  10.915  10.895
28490W        W93651  30.271  29.646  13.972
28491W        W93652   3.638   3.902  11.124
28492W        W93653  29.133  10.581   9.875
28493W        W93654  30.622  31.905   1.520
28494W        W93655   5.945  19.604  10.731
28495W        W93656  25.621  36.851   0.043
28496W        W93657  31.554  29.421  13.346
28497W        W93658  11.341  33.060  10.622
28498W        W93659  10.633  26.256   3.939
28499W        W93660  22.007  10.347  12.972
28500W        W93661  17.828  32.070  10.728
28501W        W93662  20.191   5.152   3.305
28502W        W93663  21.166   9.855  14.873
28503W        W93664  15.702  27.385   0.023
28504W        W93665   3.255   4.324  14.816
28505W        W93666  38.891  38.356   2.613
28506W        W93667  35.980  27.446  14.384
28507W        W93668  30.427   0.897   1.222
28508W        W93669  33.907  20.070  13.264
28509W        W93670   8.742  33.120   0.393
28510W        W93671   5.328  34.591   1.426
28511W        W93672  38.895   3.920   1.372
28512W        W93673  29.195  40.302   3.236
28513W        W93674  18.307  44.243  11.948
28514W        W93675  16.220  16.897  13.933
28515W        W93676  31.551   9.409  12.243
28516W        W93677  18.577  11.103  14.444
28517W        W93678  18.341  17.793  10.113
28518W        W93679   9.761  36.595   2.246
28519W        W93680  42.849   5.415  12.616
28520W        W93681  33.381  33.466   4.636
28521W        W93682  36.187  27.032   1.652
28522W        W93683  35.116  31.894   2.616
28523W        W93684  23.696  39.126  14.552
28524W        W93685   3.540  14.335  11.096
28525W        W93686  12.750   8.290   4.701
28526W        W93687   1.572  14.823  10.717
28527W        W93688  10.424  41.433  14.488
28528W        W93689  42.903  27.082   3.472
28529W        W93690  26.864  44.921   2.389
28530W        W93691  14.083   7.319  14.874
28531W        W93692  22.323   8.603   2.896
28532W        W93693  14.253  13.100   2.598
28533W        W93694  25.096   1.570  12.559
28534W        W93695  35.036   1.175   4.646
28535W        W93696  28.536  10.693   9.800
28536W        W93697  30.174  18.093  13.385
28537W        W93698  40.407  28.133   4.969
28538W        W93699   1.426   0.932   1.235
28539W        W93700  20.666  14.309   1.496
28540W        W93701  34.583   8.807   2.283
28541W        W93702   4.454  44.208   4.236
28542W        W93703  17.974   8.574  12.180
28543W        W93704  41.426  10.363   0.423
28544W        W93705  24.214  29.605  12.508
28545W        W93706   4.025  20.371   4.204
28546W        W93707   3.221  17.222   1.289
28547W        W93708  17.800  40.741  12.925
28548W        W93709  23.146  42.050   3.211
28549W        W93710  37.527  11.325   2.298
28550W        W93711  27.942  42.350  13.412
28551W        W93712   8.200  34.467   3.343
28552W        W93713  41.839   0.993  14.212
28553W        W93714   4.097  20.619  10.731
28554W        W93715  12.948  25.706   1.079
28555W        W93716  35.024  43.946  14.894
28556W        W93717  13.813   9.427  13.043
28557W        W93718  14.909   6.737  12.897
28558W        W93719   4.248   4.216  10.494
28559W        W93720  44.691  27.670  13.277
28560W        W93721  44.320  17.864   3.693
28561W        W93722   8.909   1.568   2.858
28562W        W93723  13.781  30.045  13.396
28563W        W93724   0.862   9.695   3.678
28564W        W93725  21.385  41.261   3.884
28565W        W93726   8.709  15.548  10.095
28566W        W93727  30.646  33.428   0.196
28567W        W93728  39.068  29.974   2.734
28568W        W93729  20.768  20.242  12.400
28569W        W93730  10.555  36.292   2.881
28570W        W93731  12.627  19.310   4.616
28571W        W93732   3.702   9.933   1.398
28572W        W93733  12.228  10.274  13.850
28573W        W93734   1.025  38.876  11.245
28574W        W93735  44.753  36.819   1.498
28575W        W93736  24.568  31.178   2.694
28576W        W93737  14.423  43.183   0.003
28577W        W93738  41.855  30.654   4.717
28578W        W93739  28.731  14.591  13.274
28579W        W93740  11.943  21.308  14.459
28580W        W93741  35.177   3.653  11.687
28581W        W93742  22.707  19.228  11.624
28582W        W93743  24.002  36.522  13.443
28583W        W93744  34.994   8.979  10.566
28584W        W93745  22.173   9.964   1.367
28585W        W93746   4.790  26.166  13.038
28586W        W93747  42.296  24.160   1.245
28587W        W93748  13.363  28.169  12.484
28588W        W93749  27.227   5.922   4.085
28589W        W93750  14.342  14.206   3.464
28590W        W93751   4.683  30.254   1.825
28591W        W93752   5.701  33.869  13.940
28592W        W93753   6.142  40.177   0.769
28593W        W93754  28.702  20.619   3.662
28594W        W93755  26.850  17.123   1.533
28595W        W93756  28.536   5.543   0.867
28596W        W93757   0.622  26.604  10.246
28597W        W93758  44.880  24.759   1.314
28598W        W93759  37.327  40.017   2.004
28599W        W93760  30.225  18.251  14.805
28600W        W93761  18.801  31.992  13.801
28601W        W93762  42.782  36.678  14.551
28602W        W93763  23.613  33.336   2.737
28603W        W93764  24.610  29.203   1.670
28604W        W93765  25.716  23.629  14.727
28605W        W93766  16.582  16.069  12.019
28606W        W93767  41.512   7.873  11.742
28607W        W93768  37.636   5.816   0.050
28608W        W93769  32.113  14.346  13.410
28609W        W93770  43.521  35.343  12.215
28610W        W93771  12.213  15.643   3.738
28611W        W93772  13.604  34.813  12.039
28612W        W93773  13.572  25.070  13.996
28613W        W93774  20.563   3.353  12.949
28614W        W93775  29.599  11.849   0.045
28615W        W93776   9.857  23.016   1.639
28616W        W93777   8.017   4.833  11.632
28617W        W93778  25.004  34.071  12.483
28618W        W93779  15.802   3.296  11.108
28619W        W93780  27.128   6.444  11.736
28620W        W93781  40.007  25.166   2.787
28621W        W93782  42.905   7.847   0.432
28622W        W93783   3.382   3.932   4.142
28623W        W93784  20.026  40.805  13.442
28624W        W93785  29.703  24.203  14.768
28625W        W93786  36.836  40.008  12.117
28626W        W93787  35.742  28.651  12.690
28627W        W93788  26.932  17.709   0.970
28628W        W93789  10.230  34.451  10.766
28629W        W93790  29.896  30.613   2.268
28630W        W93791  38.453  21.665  13.032
28631W        W93792  37.367   8.365   4.356
28632W        W93793  24.949  15.059   2.047
28633W        W93794  14.807  11.833  10.791
28634W        W93795  21.366  17.510   3.664
28635W        W93796  39.029  14.275   4.762
28636W        W93797  32.920  30.949  11.646
28637W        W93798  42.466  37.963   0.707
28638W        W93799  18.736  15.076   4.583
28639W        W93800  37.900  17.945  14.398
28640W        W93801   6.496  16.908   0.984
28641W        W93802  24.891  15.887   2.376
28642W        W93803   5.386  25.447   4.544
28643W        W93804  44.606  15.837  10.694
28644W        W93805   7.692  24.684  13.263
28645W        W93806  25.573   2.739  10.905
28646W        W93807  23.675  11.059   0.463
28647W        W93808  25.176  34.313   1.904
28648W        W93809   8.104  25.134   3.122
28649W        W93810  13.402  17.158   2.321
28650W        W93811  22.418  20.155   9.965
28651W        W93812  26.193  43.323   1.773
28652W        W93813  26.024  15.907   4.675
28653W        W93814  29.976   3.623   0.452
28654W        W93815  31.239  10.893  11.975
28655W        W93816  12.376   9.071   2.466
28656W        W93817  39.546  37.009   4.035
28657W        W93818  28.169  13.322   2.736
28658W        W93819  31.174  17.199  11.947
28659W        W93820  28.610   9.275   0.886
28660W        W93821  39.460   7.436   3.567
28661W        W93822  10.797  44.874   0.431
28662W        W93823  29.140  26.167   2.270
28663W        W93824  12.624  23.194   2.676
28664W        W93825  15.362  40.250  12.372
28665W        W93826  44.964  33.924  14.398
28666W        W93827   9.676   3.681  13.917
28667W        W93828  15.058  36.401   0.377
28668W        W93829  14.617  14.264  12.646
28669W        W93830  25.815  43.847   2.147
28670W        W93831  15.649   4.238  14.066
28671W        W93832  43.414   8.135   4.767
28672W        W93833  27.953  32.525  14.757
28673W        W93834  30.861  18.713  11.985
28674W        W93835  42.279   6.735   0.570
28675W        W93836  38.009  39.287   2.999
28676W        W93837  17.763  16.213  14.274
28677W        W93838  11.891  12.526  13.566
28678W        W93839  25.968  32.326  10.827
28679W        W93840  25.939   3.876   3.246
28680W        W93841  11.270  24.731   1.387
28681W        W93842  29.678  22.776  13.822
28682W        W93843  41.303  25.990   4.301
28683W        W93844   7.406  17.370   0.834
28684W        W93845   3.146   2.227  14.570
28685W        W93846  15.256  32.829   1.806
28686W        W93847  28.874   2.397   2.382
28687W        W93848  34.026  11.762   4.407
28688W        W93849  26.726   5.892  11.500
28689W        W93850  43.430  43.897  12.075
28690W        W93851   0.183  13.813  11.217
28691W        W93852  19.728  34.964   0.184
28692W        W93853  32.948   3.890   2.980
28693W        W93854  14.951   9.679   4.119
28694W        W93855  39.144  31.344   0.422
28695W        W93856  16.251  22.506   4.208
28696W        W93857  34.939  37.472  11.161
28697W        W93858  25.769  23.063   4.092
28698W        W93859   8.396  24.504   0.181
28699W        W93860  21.733  20.557   0.387
28700W        W93861  21.071  14.126   0.853
28701W        W93862  25.464  37.947  14.332
28702W        W93863   0.068  21.148   2.652
28703W        W93864   1.744  14.804   0.479
28704W        W93865  17.333  42.004   0.832
28705W        W93866  14.621  10.297  12.649
28706W        W93867  30.367  30.149   0.606
28707W        W93868  19.072   6.445   2.289
28708W        W93869  42.258  12.548  11.629
28709W        W93870  38.030   8.145   2.537
28710W        W93871  16.396   1.674   0.664
28711W        W93872   3.966  17.221  11.625
28712W        W93873  21.630  21.370  13.380
28713W        W93874  43.804  19.740  10.782
28714W        W93875  20.784  28.147  11.148
28715W        W93876  30.594  21.198  14.432
28716W        W93877  22.191  32.864   0.005
28717W        W93878  41.860  12.895  14.841
28718W        W93879   8.752   6.759  12.597
28719W        W93880  17.978   7.444   4.586
28720W        W93881  24.736  34.990   0.924
28721W        W93882   0.504  44.895  13.397
28722W        W93883   7.300   2.038  14.299
28723W        W93884  18.320  25.540  12.480
28724W        W93885  41.048  30.682   3.607
28725W        W93886   4.799  32.435   0.504
28726W        W93887   8.869  40.483   4.212
28727W        W93888  16.546   4.938   2.342
28728W        W93889  29.578   8.857  12.512
28729W        W93890  32.967  22.262  12.010
28730W        W93891   5.853   1.235  11.567
28731W        W93892  37.899  18.443  14.376
28732W        W93893  43.351  33.584  12.875
28733W        W93894  29.054  39.822  10.823
28734W        W93895  43.277  16.335   2.352
28735W        W93896  11.296   3.463  12.105
28736W        W93897  11.651  44.911   2.826
28737W        W93898  29.274  29.033  13.460
28738W        W93899  29.680  19.860  10.911
28739W        W93900   2.381  12.878  13.576
28740W        W93901  12.500   1.547   4.483
28741W        W93902   0.414   5.303  11.681
28742W        W93903  20.720   9.845   1.751
28743W        W93904  35.179  44.770   4.557
28744W        W93905   1.867  28.533  10.967
28745W        W93906  13.123   7.027   3.362
28746W        W93907   2.795  32.118   4.212
28747W        W93908  38.436  27.886  13.577
28748W        W93909   7.708  24.022  11.270
28749W        W93910   5.765   5.726   4.742
28750W        W93911  25.750  35.277   0.335
28751W        W93912   3.203  32.116   1.847
28752W        W93913  41.659  35.138  12.443
28753W        W93914  34.672  25.942   3.540
28754W        W93915  10.286  33.034   4.199
28755W        W93916  33.287   7.583  12.982
28756W        W93917   0.407   0.504   4.627
28757W        W93918  12.540   2.343   2.835
28758W        W93919  36.545  43.486   3.242
28759W        W93920  19.664  34.594  11.953
28760W        W93921  19.574  44.926   1.519
28761W        W93922   2.368  44.535  13.286
28762W        W93923  17.216  22.885  12.954
28763W        W93924   5.853  11.272   2.168
28764W        W93925  40.713  14.269  10.409
28765W        W93926  30.057  23.899  14.476
28766W        W93927  30.706  31.895   2.131
28767W        W93928  43.955   0.782  12.136
28768W        W93929  12.078  21.685   4.827
28769W        W93930  21.298  16.361  14.530
28770W        W93931  15.107  42.619   1.634
28771W        W93932  19.726  11.616  13.488
28772W        W93933  19.174  15.312   3.364
28773W        W93934  16.843  29.156  12.258
28774W        W93935   9.645  18.087   2.709
28775W        W93936  36.541  25.648   1.670
28776W        W93937  30.529   5.076  11.193
28777W        W93938  40.769  39.388  14.238
28778W        W93939  15.296  28.160   0.874
28779W        W93940   9.909  15.090   3.514
28780W        W93941   5.494  24.718   2.755
28781W        W93942  26.881  40.387   1.851
28782W        W93943  21.020  36.278   3.690
28783W        W93944  35.850  26.029  14.782
28784W        W93945   7.302  29.627   3.321
28785W        W93946  10.297   8.616  11.415
28786W        W93947   2.244  24.792  12.985
28787W        W93948  14.562  14.605  13.432
28788W        W93949  23.540   1.826  11.198
28789W        W93950   0.967  23.428  14.865
28790W        W93951  19.684  11.524   0.313
28791W        W93952   4.997  31.215  14.447
28792W        W93953  11.366  15.233   3.757
28793W        W93954  24.527  31.884  11.212
28794W        W93955  22.575  21.632  14.785
28795W        W93956  17.845  24.883   2.426
28796W        W93957  42.806  34.503   2.431
28797W        W93958  31.541   9.291   4.426
28798W        W93959  44.390  33.846   4.714
28799W        W93960   5.780   5.413   2.857
28800W        W93961  31.869  30.888   4.544
28801W        W93962  19.034  29.132   2.492
28802W        W93963   2.996  29.449  12.029
28803W        W93964   1.206  38.914  11.820
28804W        W93965  43.267   4.584  10.295
28805W        W93966   4.255  28.047  13.139
28806W        W93967  21.982  36.151  14.411
28807W        W93968  24.907  22.953  12.813
28808W        W93969  17.219  35.602  12.570
28809W        W93970  36.380   0.205  13.910
28810W        W93971  25.148  12.844   2.901
28811W        W93972  36.247  42.621   4.691
28812W        W93973  41.059  13.719  14.438
28813W        W93974  16.708  39.443  12.578
28814W        W93975  28.954  29.625   0.971
28815W        W93976  36.652   4.962  14.291
28816W        W93977   4.931  39.564   0.425
28817W        W93978  29.557  11.690   2.634
28818W        W93979  23.245  44.976   2.425
28819W        W93980  12.844  40.489  10.728
28820W        W93981   0.108  33.979   1.844
28821W        W93982  27.267  36.348  14.005
28822W        W93983   1.751  40.608   4.122
28823W        W93984  17.626  31.013   2.746
28824W        W93985  27.619  27.070   1.388
28825W        W93986  23.135  14.749   0.301
28826W        W93987  36.356   5.258  12.153
28827W        W93988  13.384  17.174   1.384
28828W        W93989  27.673  21.672   0.920
28829W        W93990   5.334  22.243  13.009
28830W        W93991  41.455  22.738  11.578
28831W        W93992  20.901  18.320  14.812
28832W        W93993  33.318   8.330  11.111
28833W        W93994  32.414   5.852   3.299
28834W        W93995  40.974  41.749  11.181
28835W        W93996  14.811  20.245   0.569
28836W        W93997  18.248  39.031   3.579
28837W        W93998  14.025  16.265  14.838
28838W        W93999  11.401  20.143  13.981
28839W        W94000  26.346  28.373   1.845
28840W        W94001  14.465   6.709  11.463
28841W        W94002  25.947  44.841   3.759
28842W        W94003  43.406  16.035   3.706
28843W        W94004  18.107  28.114   0.069
28844W        W94005   7.988  20.763   3.814
28845W        W94006  26.194  32.546   3.333
28846W        W94007  13.809  29.715   2.333
28847W        W94008  21.891  19.100   4.213
28848W        W94009  15.139  14.690   3.110
28849W        W94010   5.163  32.416   0.887
28850W        W94011  19.724  17.721   3.323
28851W        W94012  19.326  43.948  14.925
28852W        W94013  42.483  17.689  13.363
28853W        W94014  34.372  37.057  14.849
28854W        W94015   0.424  17.568  13.535
28855W        W94016  21.329  29.558  11.621
28856W        W94017   3.830  24.063   3.679
28857W        W94018  44.707  41.574  14.745
28858W        W94019  20.919  17.744   3.528
28859W        W94020  30.491  24.280  11.172
28860W        W94021  39.113  20.146  12.152
28861W        W94022  35.954  35.436   1.894
28862W        W94023  27.484  15.821  11.135
28863W        W94024  36.849  29.371  11.104
28864W        W94025  13.722  15.541   4.881
28865W        W94026  13.628   2.416   3.704
28866W        W94027  28.511  38.649  13.481
28867W        W94028  43.962  10.808  11.905
28868W        W94029  16.318   3.334  11.543
28869W        W94030  26.882   3.052  12.617
28870W        W94031   4.026  28.489  12.971
28871W        W94032  17.799  24.093  12.078
28872W        W94033  26.415   6.888   0.514
28873W        W94034   1.965  34.478  10.083
28874W        W94035   4.634  29.284  13.991
28875W        W94036  38.126  40.464  13.830
28876W        W94037  34.294   0.312  14.864
28877W        W94038  12.808  12.554   1.840
28878W        W94039  24.922   3.268  12.819
28879W        W94040   5.730  21.053  13.590
28880W        W94041  23.748   3.379   0.693
28881W        W94042  21.986   9.825  12.169
28882W        W94043  23.482   3.322   0.249
28883W        W94044   6.164  11.078  11.603
28884W        W94045  41.201  40.838  10.752
28885W        W94046  10.630  36.898   0.412
28886W        W94047  18.734  36.406  10.792
28887W        W94048  42.306  29.487   4.675
28888W        W94049  36.083  20.507   4.160
28889W        W94050  18.167  10.812  14.547
28890W        W94051  17.763  38.434   4.608
28891W        W94052  35.050   6.954  10.765
28892W        W94053  17.345   0.207  11.598
28893W        W94054  31.557  36.158   4.208
28894W        W94055  27.450  16.533  10.582
28895W        W94056  14.421  11.178   0.797
28896W        W94057  22.036  42.837   3.343
28897W        W94058  25.784  16.305   2.552
28898W        W94059  12.802  29.014   4.480
28899W        W94060   8.851   1.980   3.837
28900W        W94061  39.091  39.574  13.785
28901W        W94062  38.374   7.141  11.680
28902W        W94063   9.573   0.125  14.202
28903W        W94064   0.303  20.757  10.714
28904W        W94065   8.788  13.299   3.152
28905W        W94066  17.359   8.901  12.972
28906W        W94067  36.228  25.951   4.554
28907W        W94068  35.722   8.078   2.697
28908W        W94069  38.688  30.146  11.043
28909W        W94070   3.456  40.356   1.714
28910W        W94071  40.353  26.812  13.578
28911W        W94072  34.858  33.610  14.285
28912W        W94073  37.891  15.338  13.864
28913W        W94074  11.910  42.333  11.406
28914W        W94075   6.250  30.895   2.849
28915W        W94076  28.016  35.556  12.933
28916W        W94077  39.934  26.601  12.256
28917W        W94078  25.014  34.083   0.185
28918W        W94079  38.268  30.917  10.791
28919W        W94080  12.139   4.305   4.797
28920W        W94081  30.372   7.868  11.220
28921W        W94082  31.545  35.626   0.999
28922W        W94083  13.047  13.296   3.312
28923W        W94084   1.810  35.427  14.739
28924W        W94085  39.081  43.756  12.445
28925W        W94086   5.161  35.811   4.053
28926W        W94087  13.079   9.658   1.198
28927W        W94088  23.549  21.738  14.399
28928W        W94089  42.798  23.073   2.258
28929W        W94090  37.745   7.294  10.682
28930W        W94091  33.342   7.237   3.211
28931W        W94092  24.339   8.645   1.449
28932W        W94093  36.678   0.404  14.292
28933W        W94094  25.319  43.776   2.252
28934W        W94095   4.074   2.447   3.235
28935W        W94096  12.749  44.921   1.857
28936W        W94097   7.001  30.291  14.276
28937W        W94098  37.864  11.626   0.935
28938W        W94099  25.344  26.573  12.432
28939W        W94100  13.470  25.585  12.782
28940W        W94101  44.790  27.681   4.165
28941W        W94102   4.213   8.773  10.694
28942W        W94103  23.770   0.873   0.318
28943W        W94104  15.024   9.223   3.843
28944W        W94105  16.765  30.011   0.209
28945W        W94106  12.358  24.920   3.248
28946W        W94107  21.954  31.233   1.360
28947W        W94108  32.057   9.656   1.217
28948W        W94109  42.068  43.633   3.785
28949W        W94110  26.741  16.887   0.360
28950W        W94111  42.924  28.008   5.109
28951W        W94112   4.582  27.610  13.169
28952W        W94113   5.924   1.002  11.100
28953W        W94114  27.050  39.900   1.958
28954W        W94115  12.261   9.876  14.576
28955W        W94116   2.630  24.001  14.823
28956W        W94117  39.565  13.468   1.233
28957W        W94118  33.512  33.051  12.563
28958W        W94119  15.642  23.523  10.086
28959W        W94120   7.898   4.709   3.760
28960W        W94121  39.353  36.875   2.699
28961W        W94122  38.906  40.849   3.674
28962W        W94123  37.552  20.329  12.882
28963W        W94124  35.096  12.164   4.678
28964W        W94125   2.046   3.254  14.414
28965W        W94126  34.164  20.534   1.712
28966W        W94127  27.780  15.059   4.536
28967W        W94128  30.455   5.144  12.111
28968W        W94129   3.313  20.732   3.755
28969W        W94130  10.133  25.408   2.302
28970W        W94131  12.505  14.728  10.396
28971W        W94132  35.314   6.687   2.665
28972W        W94133  39.438  28.467   1.746
28973W        W94134   5.710  41.917   2.278
28974W        W94135  27.464  13.140  14.767
28975W        W94136  31.505  15.778   2.829
28976W        W94137  30.002   9.618   2.593
28977W        W94138  13.616  13.721  14.982
28978W        W94139  23.265  26.190  14.089
28979W        W94140   1.496  22.476   2.366
28980W        W94141  19.268  23.648  12.214
28981W        W94142  22.167  21.646  14.190
28982W        W94143  11.631  34.455   4.614
28983W        W94144   5.589   0.491  11.117
28984W        W94145  41.067  16.822  14.774
28985W        W94146  15.720  22.267  11.551
28986W        W94147  40.617  25.672  12.193
28987W        W94148  30.699  29.433  13.326
28988W        W94149   7.181   9.587  12.126
28989W        W94150  18.787  10.734  11.654
28990W        W94151  11.766  13.048  13.649
28991W        W94152  41.047  41.410   4.674
28992W        W94153  41.779   8.403   1.327
28993W        W94154  40.406  44.213  14.027
28994W        W94155  25.896   5.192  12.313
28995W        W94156  30.580  43.084   4.206
28996W        W94157  16.830  20.641   0.212
28997W        W94158  28.953  37.089  12.798
28998W        W94159  32.550  29.032   3.079
28999W        W94160  42.407  40.727   1.313
29000W        W94161  43.514  23.029   1.825
29001W        W94162  41.010  39.964  10.799
29002W        W94163  11.206  38.340   4.048
29003W        W94164  18.152  35.908   3.213
29004W        W94165  32.594  14.200   3.175
29005W        W94166  23.402   3.916   1.861
29006W        W94167   4.782   0.261   1.965
29007W        W94168  19.295  34.176  11.591
29008W        W94169   1.958   0.890   4.508
29009W        W94170   6.182  22.540  14.493
29010W        W94171  31.616  40.923  13.114
29011W        W94172  20.160  18.209   1.331
29012W        W94173  27.904  26.338   1.734
29013W        W94174   8.592  10.505   4.686
29014W        W94175  20.592  43.049  10.615
29015W        W94176  35.572   9.866  10.779
29016W        W94177  12.986  44.825  12.033
29017W        W94178  30.613  21.996  11.461
29018W        W94179   3.287  43.016   2.697
29019W        W94180   8.065  33.379   0.300
29020W        W94181  39.213  19.547   3.756
29021W        W94182  19.565  11.859   2.654
29022W        W94183  42.030  35.805   5.047
29023W        W94184  18.757  33.893  13.806
29024W        W94185  17.470  22.524  11.130
29025W        W94186   3.768  32.420   0.804
29026W        W94187  24.133  35.083   0.945
29027W        W94188  19.482  15.503   1.234
29028W        W94189  10.198  15.448   3.306
29029W        W94190  28.789  36.171   0.026
29030W        W94191  13.814  40.972   2.234
29031W        W94192   5.613  16.814   3.679
29032W        W94193  35.583  41.016  13.799
29033W        W94194  23.361   1.822   3.906
29034W        W94195   7.692  34.103  13.573
29035W        W94196   0.378   5.375   0.985
29036W        W94197  29.030  22.196  12.485
29037W        W94198  44.038   9.889   3.119
29038W        W94199  31.539  33.118   2.629
29039W        W94200  17.584   2.711   3.344
29040W        W94201  41.188  29.433   0.002
29041W        W94202  13.739  11.864   4.587
29042W        W94203  15.657   3.956  12.526
29043W        W94204  27.300  26.804   3.452
29044W        W94205  22.027  42.810   1.440
29045W        W94206  35.096  26.062   2.626
29046W        W94207  26.059  19.193   2.218
29047W        W94208  20.991   8.129  14.839
29048W        W94209  33.408   0.349   3.613
29049W        W94210  17.153   0.476   4.845
29050W        W94211  35.311   3.439   2.833
29051W        W94212  40.073  42.047   0.359
29052W        W94213   2.920  32.625   4.135
29053W        W94214   8.210  14.052  13.344
29054W        W94215  41.510  16.755   1.655
29055W        W94216   4.136  44.425  10.731
29056W        W94217   0.667  35.938   0.374
29057W        W94218   3.364  44.405  13.310
29058W        W94219  22.729  30.848   4.282
29059W        W94220  43.307  20.268  13.323
29060W        W94221   2.571  37.492  14.498
29061W        W94222  35.821  33.073  12.427
29062W        W94223  19.188  37.984  13.247
29063W        W94224   8.196  26.559  12.466
29064W        W94225  32.913  10.669  14.347
29065W        W94226  23.671  10.667  14.105
29066W        W94227  11.399  40.895  10.992
29067W        W94228  36.469   0.960  12.568
29068W        W94229  10.820   5.948  12.435
29069W        W94230   4.272  35.673   2.928
29070W        W94231  10.113  37.474  11.157
29071W        W94232   9.400  27.990  11.074
29072W        W94233   6.924  18.207   1.387
29073W        W94234  14.245  44.765   2.759
29074W        W94235  30.681   0.874   2.110
29075W        W94236  11.720  20.823  10.353
29076W        W94237  25.024  42.841   2.800
29077W        W94238   7.732  32.102   2.735
29078W        W94239  15.040  13.071  11.033
29079W        W94240  13.232  18.030  13.833
29080W        W94241   8.306  30.528  11.567
29081W        W94242  44.028   7.522   4.293
29082W        W94243   2.255   0.969   3.738
29083W        W94244  22.994   5.382   4.609
29084W        W94245   4.373  23.683   1.813
29085W        W94246  34.463  14.097  14.722
29086W        W94247  39.499  31.482  13.602
29087W        W94248  13.159  41.921   1.423
29088W        W94249  17.836  34.558   2.600
29089W        W94250  13.200  30.020  14.669
29090W        W94251  23.656  32.683  12.518
29091W        W94252  31.028   8.624  10.095
29092W        W94253  10.135  11.515  12.145
29093W        W94254  17.737  36.019  11.528
29094W        W94255  13.259  39.212  14.541
29095W        W94256  29.692  37.409   4.930
29096W        W94257  10.919   4.764  11.811
29097W        W94258  30.610  36.666  12.171
29098W        W94259  18.805   9.531  14.489
29099W        W94260  44.271  12.180   0.317
29100W        W94261  15.993  39.333  12.149
29101W        W94262  25.719  11.643   1.788
29102W        W94263  10.772  39.500  14.769
29103W        W94264  44.696   3.370  10.006
29104W        W94265   8.874   9.645   4.572
29105W        W94266  42.431  36.946   2.804
29106W        W94267   6.727  40.745   0.255
29107W        W94268  44.449  13.340  12.468
29108W        W94269  33.558  43.887   4.828
29109W        W94270   9.919  20.563  10.965
29110W        W94271  26.293  32.487   3.839
29111W        W94272  23.977   9.404  12.007
29112W        W94273   4.874  22.498   3.913
29113W        W94274  39.030   3.743   2.336
29114W        W94275  21.997  31.118   1.928
29115W        W94276  19.043  29.613   4.613
29116W        W94277  35.493  40.295  10.591
29117W        W94278  36.409   5.127  12.996
29118W        W94279  16.329  13.090  13.692
29119W        W94280   8.740   3.269  11.025
29120W        W94281   3.447   2.934  11.697
29121W        W94282   4.267  28.050   2.006
29122W        W94283  30.434  40.723   3.250
29123W        W94284   3.005  33.572  14.308
29124W        W94285  37.875  36.546  11.088
29125W        W94286  32.533   3.644  11.979
29126W        W94287  43.802  16.231  10.174
29127W        W94288  13.755  33.530  11.941
29128W        W94289  16.216  31.246  11.069
29129W        W94290  35.994  41.255   4.500
29130W        W94291  25.140  24.537  11.446
29131W        W94292  43.550  10.631   3.712
29132W        W94293  24.105   2.891   0.692
29133W        W94294  30.414  11.291   1.001
29134W        W94295  19.175  11.160   0.905
29135W        W94296  33.551  16.460  11.628
29136W        W94297  44.863  18.524   2.805
29137W        W94298  23.947   0.333  11.807
29138W        W94299  34.806  44.372   4.504
29139W        W94300   0.997  12.172   0.931
29140W        W94301   5.676  36.121  13.847
29141W        W94302   2.575   3.936   1.279
29142W        W94303  41.937  18.645   4.323
29143W        W94304  12.175   7.367  12.012
29144W        W94305  18.150  19.453   0.818
29145W        W94306  18.358  28.577  11.141
29146W        W94307  24.121  31.487  12.655
29147W        W94308  14.113  40.873   5.442
29148W        W94309  35.903  44.356   1.690
29149W        W94310   0.316  39.268   2.724
29150W        W94311   7.362  30.100  10.672
29151W        W94312   7.788  10.087   1.203
29152W        W94313   2.858  37.899  10.717
29153W        W94314  28.068  40.790  11.941
29154W        W94315  28.020  12.794   1.745
29155W        W94316   2.035  36.510   1.326
29156W        W94317  23.032  13.130   1.279
29157W        W94318   8.055  12.525  14.739
29158W        W94319  14.704  18.204  14.862
29159W        W94320  16.312  41.812  14.914
29160W        W94321  25.132   1.984  12.225
29161W        W94322  13.015  11.877   2.751
29162W        W94323   3.237  21.005   1.821
29163W        W94324  26.748  32.065  14.014
29164W        W94325  14.042  39.667   4.989
29165W        W94326  44.550  10.137  10.080
29166W        W94327  32.434  16.231   4.191
29167W        W94328   2.596  17.526  11.355
29168W        W94329  37.954   5.244   3.137
29169W        W94330  35.457  16.369  11.629
29170W        W94331  23.167  20.665  11.081
29171W        W94332  29.634  17.770  10.772
29172W        W94333  22.156  30.036  11.626
29173W        W94334  29.188  35.054  11.098
29174W        W94335  32.705  37.265  12.388
29175W        W94336   1.772  35.923  14.592
29176W        W94337  17.508  42.482   2.748
29177W        W94338  21.456  29.091  12.421
29178W        W94339  36.473  33.174  11.954
29179W        W94340  44.419  13.841   3.662
29180W        W94341  11.380  39.382  12.948
29181W        W94342  42.804  10.246  12.550
29182W        W94343  38.581   2.057  12.293
29183W        W94344   8.211  30.329   2.647
29184W        W94345  26.836  15.593  13.379
29185W        W94346   7.810  44.227  12.409
29186W        W94347  16.812  26.413  11.908
29187W        W94348  31.597  28.743  13.805
29188W        W94349   8.143  30.609  12.075
29189W        W94350  28.090  37.145  11.671
29190W        W94351  41.401   3.864  12.006
29191W        W94352  17.245  34.796   3.283
29192W        W94353  34.598  21.236   1.242
29193W        W94354  21.777   6.154  13.411
29194W        W94355  33.459  40.898  12.427
29195W        W94356  18.227  32.953   3.130
29196W        W94357  16.218   2.272  14.280
29197W        W94358  19.028  34.478   1.280
29198W        W94359   7.744  14.564   4.043
29199W        W94360   5.380   2.389  14.973
29200W        W94361   5.720  27.977   3.201
29201W        W94362   8.458   3.269  12.178
29202W        W94363  10.584  18.831  12.881
29203W        W94364  38.337  16.259   1.757
29204W        W94365  40.630  44.736  10.988
29205W        W94366  11.380  24.742   1.903
29206W        W94367  14.941  43.856   5.407
29207W        W94368  39.287  10.318  12.998
29208W        W94369  10.915  25.912  11.140
29209W        W94370  36.500  15.944   5.017
29210W        W94371   0.225   8.239  14.108
29211W        W94372  27.440  18.375   3.824
29212W        W94373   7.051  25.626   2.730
29213W        W94374   5.893  27.690   3.593
29214W        W94375   8.673  24.113   4.708
29215W        W94376   9.559  29.437   2.999
29216W        W94377  12.851  43.775  14.465
29217W        W94378  11.867   0.013   1.436
29218W        W94379  29.121  14.031   3.300
29219W        W94380  27.034   8.548   0.276
29220W        W94381  12.354  27.411  10.405
29221W        W94382  30.723  34.014   4.838
29222W        W94383   8.633  43.431  13.574
29223W        W94384  19.971  37.045   2.256
29224W        W94385  10.287  32.625   0.021
29225W        W94386  26.656  35.744   4.148
29226W        W94387  16.180  26.139  14.341
29227W        W94388  37.905  14.863  14.731
29228W        W94389  37.789   6.273  14.886
29229W        W94390   7.176  23.381  13.511
29230W        W94391  43.665  13.650   0.215
29231W        W94392  29.647  16.320  14.490
29232W        W94393  30.356  15.098   3.308
29233W        W94394   0.942  33.882  14.370
29234W        W94395  17.604  19.103   4.068
29235W        W94396  10.711  21.243  11.148
29236W        W94397  44.738  34.834   4.043
29237W        W94398  29.222  35.693   5.047
29238W        W94399   1.794  19.225   4.549
29239W        W94400   4.413   9.209   2.800
29240W        W94401  29.432  30.453  11.785
29241W        W94402   1.243   7.786   3.376
29242W        W94403  38.138  15.353  12.594
29243W        W94404  34.150  12.608  12.625
29244W        W94405  37.084  34.489  13.566
29245W        W94406   0.572  31.853  14.977
29246W        W94407   8.591  13.303  11.529
29247W        W94408  32.466  27.823   9.937
29248W        W94409  32.069  26.101  14.486
29249W        W94410  11.239  38.783   3.718
29250W        W94411  24.200  37.155   0.661
29251W        W94412  31.116  30.632   2.166
29252W        W94413  30.056  44.739  12.013
29253W        W94414  12.551  16.662  13.026
29254W        W94415  35.597  44.904  12.476
29255W        W94416  10.700   3.266  11.560
29256W        W94417   4.242  41.365  13.406
29257W        W94418  23.075   0.529  12.134
29258W        W94419  10.608  13.573   2.122
29259W        W94420  31.714  32.699   1.690
29260W        W94421   4.955  30.175   0.046
29261W        W94422  37.077  43.159  10.396
29262W        W94423  11.390  18.626   4.626
29263W        W94424  40.229  23.459  12.548
29264W        W94425  32.646  39.017   1.887
29265W        W94426  21.729  31.403   0.408
29266W        W94427  31.165   6.153   2.266
29267W        W94428  17.634  21.016   3.674
29268W        W94429  40.006   0.959  10.620
29269W        W94430  41.456  37.359  12.831
29270W        W94431   1.552  43.726   1.319
29271W        W94432  36.754  19.796  14.832
29272W        W94433  26.555  32.258   0.884
29273W        W94434  29.904  32.298  13.621
29274W        W94435  27.442  40.517  12.495
29275W        W94436  44.171  10.172   2.667
29276W        W94437  34.042  27.681  14.780
29277W        W94438  40.938  12.283  14.768
29278W        W94439  36.814  20.579   3.708
29279W        W94440  14.200   6.872   0.192
29280W        W94441  32.515  23.807   0.334
29281W        W94442  18.070  32.358  14.812
29282W        W94443   9.158  14.843  14.465
29283W        W94444  18.787  21.284  10.858
29284W        W94445  38.783  32.927  13.712
29285W        W94446  32.615  38.160   2.478
29286W        W94447  15.559  16.108  12.594
29287W        W94448   1.315  34.248  14.365
29288W        W94449   8.095   2.396  13.262
29289W        W94450  40.353  28.876  12.205
29290W        W94451  35.079  40.015  14.455
29291W        W94452  42.933  34.980  11.821
29292W        W94453  34.546  12.700   4.333
29293W        W94454   0.015  13.242   2.341
29294W        W94455  10.135  44.418   0.760
29295W        W94456  12.213  19.176   0.026
29296W        W94457  31.136  16.535   2.705
29297W        W94458  33.874   8.283  14.028
29298W        W94459   9.045  37.208  12.467
29299W        W94460  44.573   4.805   2.979
29300W        W94461   2.496  37.302   4.179
29301W        W94462  20.285  39.197   2.026
29302W        W94463   2.936  18.733   1.400
29303W        W94464  44.361  17.076  12.692
29304W        W94465  42.554   9.307  11.984
29305W        W94466  23.207   8.182   0.899
29306W        W94467   8.395  16.848   3.391
29307W        W94468  19.489  34.421  12.445
29308W        W94469  40.472  35.158  13.458
29309W        W94470  12.084  11.854   1.734
29310W        W94471  44.390  41.280  11.025
29311W        W94472  24.514  33.623   4.740
29312W        W94473  44.375  35.937   4.531
29313W        W94474  25.250   1.517  14.005
29314W        W94475   3.154  42.201   3.959
29315W        W94476  31.459  41.186   0.007
29316W        W94477   3.977  44.457   4.166
29317W        W94478  41.180  24.710   2.919
29318W        W94479  32.559  37.805  11.116
29319W        W94480   3.722  20.774   0.854
29320W        W94481   1.982   1.048   1.884
29321W        W94482  23.493  16.729   0.904
29322W        W94483   7.374  30.930   3.901
29323W        W94484  34.606  26.917   3.809
29324W        W94485  36.574   5.704   4.023
29325W        W94486  25.579  43.944   4.469
29326W        W94487   4.788  30.662   0.092
29327W        W94488  17.069  28.422  14.723
29328W        W94489   9.810  41.596  13.984
29329W        W94490  33.346  42.578  13.541
29330W        W94491  25.752  20.764   4.516
29331W        W94492   9.795  38.527   4.130
29332W        W94493  33.391  23.961   3.731
29333W        W94494  42.001  18.131   4.208
29334W        W94495   5.404  23.630   0.715
29335W        W94496  24.909  23.011   0.268
29336W        W94497   6.562  10.400  10.471
29337W        W94498   2.536  28.172  11.547
29338W        W94499  37.838  12.729  11.116
29339W        W94500  20.766  30.734   4.207
29340W        W94501  34.584  24.582   1.305
29341W        W94502  37.651  38.347  12.835
29342W        W94503  23.262  13.804   4.141
29343W        W94504  33.973  43.827  14.947
29344W        W94505  32.406  29.749   4.218
29345W        W94506   7.729  23.437  13.439
29346W        W94507  11.627  25.658   2.378
29347W        W94508  20.189  27.260   2.110
29348W        W94509  26.810  44.888   9.984
29349W        W94510  34.003  44.073   1.059
29350W        W94511  36.759  40.377  10.082
29351W        W94512  38.523  11.180  11.429
29352W        W94513  21.151  23.768   0.957
29353W        W94514  31.326  32.473   0.415
29354W        W94515  23.540  31.933   2.006
29355W        W94516   2.456  16.956   2.276
29356W        W94517  39.361  43.978  13.814
29357W        W94518  44.288  10.628   0.626
29358W        W94519  12.008  36.069  13.174
29359W        W94520  22.111   3.749   0.346
29360W        W94521  35.970  20.786  10.754
29361W        W94522   5.635  19.273   2.712
29362W        W94523  28.558  20.451  12.597
29363W        W94524  18.638   7.610   2.296
29364W        W94525  17.090  44.799   5.368
29365W        W94526  12.565  18.574   3.638
29366W        W94527   4.707  38.398  13.578
29367W        W94528  42.240  41.615   3.122
29368W        W94529  11.970  35.710  11.048
29369W        W94530  27.657  26.071   1.365
29370W        W94531  40.876  30.899   1.277
29371W        W94532  11.405   3.009   3.963
29372W        W94533  34.632  42.371  14.181
29373W        W94534  31.751  36.977   0.322
29374W        W94535   5.956  41.832  14.390
29375W        W94536  16.473   5.399   0.964
29376W        W94537  44.365  13.038  12.870
29377W        W94538  26.114  17.702  14.522
29378W        W94539  37.632  33.826   0.910
29379W        W94540  31.105  15.107  12.025
29380W        W94541  36.859  33.875  12.229
29381W        W94542  11.281   0.600  11.581
29382W        W94543  25.469  32.115  14.033
29383W        W94544  12.607  13.323  11.691
29384W        W94545  18.292   2.126   2.852
29385W        W94546  12.172  28.241  14.947
29386W        W94547  16.249  10.275  12.360
29387W        W94548  27.673   6.360  11.013
29388W        W94549   4.254  21.123  14.603
29389W        W94550  30.185  25.600   2.999
29390W        W94551  17.292  24.304   0.294
29391W        W94552  38.716   1.966  12.789
29392W        W94553  28.509  29.570  11.182
29393W        W94554   1.743  32.506  12.196
29394W        W94555  31.116   2.708   3.248
29395W        W94556  13.364   1.208  10.741
29396W        W94557  14.334   9.812   1.791
29397W        W94558  37.293  25.541   0.202
29398W        W94559   0.771  30.359  13.826
29399W        W94560   0.735  39.022   1.871
29400W        W94561   2.702  29.561   3.252
29401W        W94562  30.435  22.323  10.221
29402W        W94563  17.629  16.261   2.821
29403W        W94564  26.190  22.063  13.539
29404W        W94565  37.651  31.995   5.056
29405W        W94566  34.317  35.430   2.608
29406W        W94567  41.522  42.801   1.369
29407W        W94568  34.907   1.762  14.406
29408W        W94569  18.499  25.762  12.897
29409W        W94570   5.687   9.317   4.577
29410W        W94571  39.995  33.865   1.516
29411W        W94572  26.609  19.671   3.931
29412W        W94573  19.328  34.836   5.146
29413W        W94574  39.870  16.191  11.643
29414W        W94575  44.049  36.328   2.420
29415W        W94576  10.507  18.732   4.048
29416W        W94577  17.830  27.232  14.636
29417W        W94578  16.794   2.595  12.919
29418W        W94579  26.463  41.469  10.321
29419W        W94580   0.680  35.363   3.146
29420W        W94581  10.121   7.789  12.528
29421W        W94582  35.835  13.160  14.775
29422W        W94583  29.871  43.335  14.098
29423W        W94584  37.942   5.890  12.904
29424W        W94585   0.718  44.201  14.507
29425W        W94586  39.388  35.823   3.733
29426W        W94587  15.186   4.144   5.006
29427W        W94588   0.422  26.647   4.671
29428W        W94589  28.033  24.004   1.628
29429W        W94590  11.882  40.291   1.447
29430W        W94591   3.495  24.329   3.018
29431W        W94592  15.844  43.373  12.147
29432W        W94593  12.080  29.576   4.683
29433W        W94594  41.584   7.873   4.936
29434W        W94595  19.578  19.232  12.429
29435W        W94596  38.521  32.096   4.457
29436W        W94597  20.100  15.358  14.918
29437W        W94598  14.030  12.201  10.962
29438W        W94599  21.064  17.146  10.277
29439W        W94600  43.849  19.373  12.049
29440W        W94601  22.643   8.436   5.072
29441W        W94602  43.625  15.681   4.035
29442W        W94603  33.854  34.575  11.047
29443W        W94604  10.157  39.474  13.442
29444W        W94605  31.430  22.193  11.468
29445W        W94606  33.541   5.868  11.422
29446W        W94607  21.030  24.534   2.601
29447W        W94608  32.469  13.150   4.122
29448W        W94609  12.665   6.657  12.927
29449W        W94610   8.377  15.166   0.454
29450W        W94611  29.865  14.202  10.928
29451W        W94612  39.901  18.172   3.233
29452W        W94613  24.118  44.455  13.536
29453W        W94614  22.615  38.127  14.013
29454W        W94615  14.364  12.603  14.858
29455W        W94616  24.685   8.687  12.904
29456W        W94617  10.634  18.655   2.160
29457W        W94618  15.698  10.284  11.147
29458W        W94619  14.134  34.495  14.426
29459W        W94620   1.981  27.592  11.264
29460W        W94621  12.553   4.541   4.527
29461W        W94622  42.436  16.255  14.442
29462W        W94623  33.897  33.314  11.412
29463W        W94624  28.941  15.161  11.840
29464W        W94625  43.474  14.423   1.953
29465W        W94626  43.377  17.222  10.704
29466W        W94627   2.281  33.969   4.337
29467W        W94628  10.637  15.869  10.185
29468W        W94629  18.001   7.698  12.597
29469W        W94630   5.350  19.281  12.908
29470W        W94631  29.837  13.367   4.812
29471W        W94632  27.977   6.421  11.482
29472W        W94633  26.903  14.350  10.043
29473W        W94634   1.826  13.450   4.501
29474W        W94635  38.575  43.359   2.367
29475W        W94636   2.405  38.182   1.794
29476W        W94637  12.159  44.791   0.665
29477W        W94638  43.573   7.335   3.463
29478W        W94639  14.232  28.906   4.268
29479W        W94640  26.717  30.214  14.853
29480W        W94641  16.446  14.266   1.825
29481W        W94642  24.099   6.903   3.757
29482W        W94643  30.856  20.567   2.212
29483W        W94644  34.946   7.259   2.199
29484W        W94645  30.190   4.564   2.858
29485W        W94646   2.912  24.175   4.138
29486W        W94647  38.945  32.043  11.156
29487W        W94648  14.574   4.470  11.961
29488W        W94649  42.527  23.030  12.139
29489W        W94650  25.863  16.563   1.405
29490W        W94651  37.170  18.755   3.267
29491W        W94652  22.434  22.605   1.986
29492W        W94653  23.916  16.995  12.926
29493W        W94654  43.752  38.021   3.099
29494W        W94655   5.764  11.751  12.053
29495W        W94656  40.607  36.349  11.189
29496W        W94657  40.940  36.067  10.204
29497W        W94658   0.790  14.409   2.182
29498W        W94659  28.090  20.275   3.179
29499W        W94660  30.458  11.727   2.395
29500W        W94661  37.047  22.634  13.822
29501W        W94662   7.808   1.206  13.040
29502W        W94663   0.052  14.122   4.675
29503W        W94664  10.231  33.570   3.833
29504W        W94665   6.419  40.420   3.898
29505W        W94666  28.981   7.875   3.235
29506W        W94667   8.027  36.703  14.396
29507W        W94668  32.065   2.186  11.504
29508W        W94669  36.676   6.406  12.911
29509W        W94670  23.675  33.104  11.579
29510W        W94671  28.477   5.303   3.611
29511W        W94672  39.359   8.367  12.647
29512W        W94673  14.272  23.073  12.554
29513W        W94674  41.873  19.110  12.595
29514W        W94675  43.541  39.868  12.905
29515W        W94676  37.095   2.301   4.859
29516W        W94677   4.778  30.684   0.642
29517W        W94678   8.281  38.359   3.173
29518W        W94679  26.305  42.284   4.081
29519W        W94680  35.017  22.837   0.967
29520W        W94681  33.168  10.230   0.156
29521W        W94682  15.188  43.220  12.069
29522W        W94683   1.394  23.475  14.527
29523W        W94684   3.343  44.244  14.130
29524W        W94685  34.980  34.351   5.419
29525W        W94686  35.626  10.743  12.913
29526W        W94687  24.718  16.481   3.205
29527W        W94688  36.944  13.667   0.859
29528W        W94689  17.231  42.948  12.692
29529W        W94690  31.678  13.747   1.894
29530W        W94691  31.613   7.869   3.201
29531W        W94692  29.266   0.623   3.060
29532W        W94693   3.963   6.963  13.404
29533W        W94694  40.239   6.841  11.993
29534W        W94695   0.309  26.147  10.361
29535W        W94696  32.414  35.886   3.838
29536W        W94697  24.623   1.276   2.167
29537W        W94698  44.620  10.792  12.856
29538W        W94699  21.958   3.284   4.579
29539W        W94700  36.235   1.619   9.980
29540W        W94701  15.247  17.145   3.535
29541W        W94702  18.768  21.912   4.124
29542W        W94703  42.566  41.055   2.763
29543W        W94704  34.908  12.412   3.000
29544W        W94705  36.412  40.096   1.707
29545W        W94706  37.310  10.388  10.666
29546W        W94707  26.070  25.969   4.667
29547W        W94708  37.404  21.601  14.012
29548W        W94709   4.294  41.307   3.617
29549W        W94710  11.250  18.772   3.483
29550W        W94711  33.009  37.067   2.689
29551W        W94712  18.794  21.261  13.896
29552W        W94713   4.353  24.812  10.245
29553W        W94714  26.000  37.931  14.984
29554W        W94715   2.199  32.854  13.378
29555W        W94716   7.624  38.087   3.687
29556W        W94717  43.702  38.378  11.460
29557W        W94718   1.739  36.654   5.301
29558W        W94719  39.407   6.660   0.853
29559W        W94720  12.482  22.756  12.399
29560W        W94721  44.707  14.757   4.088
29561W        W94722  24.514  13.713  14.054
29562W        W94723  21.368  21.379  13.843
29563W        W94724  17.210  29.416  11.756
29564W        W94725  17.254  32.400  11.459
29565W        W94726  10.162  44.957  11.454
29566W        W94727   0.976   2.560   0.927
29567W        W94728  23.691  13.594   2.009
29568W        W94729   3.232  16.616   4.089
29569W        W94730  39.729   2.010   2.808
29570W        W94731  35.238   5.206   0.976
29571W        W94732  31.267  34.478   0.484
29572W        W94733  13.340  20.168  11.790
29573W        W94734  32.914  43.804   3.320
29574W        W94735  31.870   9.340  12.938
29575W        W94736  17.802  17.710   3.570
29576W        W94737  39.223   1.077   3.680
29577W        W94738  43.461  34.112   0.904
29578W        W94739  36.096   3.273   1.621
29579W        W94740   3.926  25.005  12.838
29580W        W94741  11.772  21.549   2.295
29581W        W94742   0.991  14.825   1.342
29582W        W94743  33.968   9.518  12.467
29583W        W94744  11.238  40.363   4.685
29584W        W94745  15.868  24.434   1.337
29585W        W94746  21.053  24.906   1.008
29586W        W94747  40.541  14.882   1.999
29587W        W94748  15.550  42.569  12.976
29588W        W94749  38.543  35.512   3.202
29589W        W94750   1.070  43.242   0.354
29590W        W94751  40.546   6.915  11.591
29591W        W94752   8.811  16.209  12.357
29592W        W94753  26.032  18.902   0.355
29593W        W94754  37.401  42.037   3.217
29594W        W94755   5.185  42.314   3.654
29595W        W94756   0.270  15.690   2.138
29596W        W94757  21.415  42.772  13.280
29597W        W94758   3.468  16.976  10.633
29598W        W94759  39.031  40.449   2.688
29599W        W94760  39.758  14.762   0.530
29600W        W94761  29.368  27.555  11.161
29601W        W94762  14.486  39.726   5.249
29602W        W94763  43.884   3.314  13.379
29603W        W94764   7.346   7.704  10.297
29604W        W94765   3.588   1.888   0.808
29605W        W94766   4.543  31.389  13.536
29606W        W94767  33.786  19.597   4.085
29607W        W94768  39.591  10.120   1.583
29608W        W94769  36.267  42.317  14.830
29609W        W94770  22.042  10.090   1.902
29610W        W94771  12.750  42.299  14.327
29611W        W94772   8.404  42.416   2.428
29612W        W94773  25.487  26.923  14.996
29613W        W94774  11.065  33.120  11.054
29614W        W94775  15.436  33.532  11.116
29615W        W94776  14.789  15.678  12.415
29616W        W94777  38.640  19.583  11.591
29617W        W94778  12.832  28.502  11.144
29618W        W94779  17.217  34.806   0.520
29619W        W94780  42.913  13.422  12.947
29620W        W94781  34.184  11.826  13.409
29621W        W94782  38.840  44.854   2.270
29622W        W94783  26.821   3.500  14.656
29623W        W94784   1.199  28.502   2.471
29624W        W94785   5.826   7.033   1.968
29625W        W94786   1.971  42.003  10.736
29626W        W94787  14.943  33.346   2.850
29627W        W94788  20.710  22.137   5.010
29628W        W94789  39.318  28.524  14.324
29629W        W94790   9.595  31.433  12.665
29630W        W94791  36.792  38.396   5.100
29631W        W94792  30.497  16.648  11.580
29632W        W94793  40.856  30.989   2.740
29633W        W94794  26.497  32.382  11.642
29634W        W94795   4.845  33.118  14.278
29635W        W94796  44.903  20.794   2.279
29636W        W94797   6.077  29.169   3.548
29637W        W94798  19.149  35.044   0.378
29638W        W94799  19.204  24.282   0.905
29639W        W94800  29.830  32.802  13.402
29640W        W94801   2.449  12.538  14.365
29641W        W94802  42.488   6.070   3.667
29642W        W94803  41.060   9.337   2.305
29643W        W94804  32.557  21.349   0.348
29644W        W94805  23.257  22.172  11.544
29645W        W94806  31.308  32.080  10.710
29646W        W94807   9.838  11.473   2.270
29647W        W94808  41.453  38.792  13.145
29648W        W94809  31.601  22.050  10.990
29649W        W94810  15.005   4.745   0.510
29650W        W94811  17.313   0.661   1.880
29651W        W94812   3.303  36.262   3.288
29652W        W94813  36.818   4.825  12.424
29653W        W94814  15.763  22.664   4.117
29654W        W94815  31.588  21.937  12.942
29655W        W94816  33.625  37.182   4.559
29656W        W94817  42.784   9.654   2.247
29657W        W94818  18.237  42.386  13.317
29658W        W94819  44.290  39.638  12.587
29659W        W94820  37.884  41.281   4.902
29660W        W94821  40.368  40.360  10.465
29661W        W94822  27.362  39.177  14.100
29662W        W94823  41.113  28.551   0.675
29663W        W94824  33.446  22.206   2.484
29664W        W94825   9.073   9.901  14.251
29665W        W94826  17.492  14.234   0.862
29666W        W94827   6.613  19.979  12.605
29667W        W94828  14.922  33.963  11.456
29668W        W94829   6.607  31.380   1.955
29669W        W94830  44.431  30.133  11.064
29670W        W94831   4.950  25.830   1.772
29671W        W94832  18.128  26.460   3.177
29672W        W94833  40.433  15.630  11.674
29673W        W94834   1.951  37.531   2.235
29674W        W94835   7.065   7.716  12.058
29675W        W94836   5.188  15.131   3.661
29676W        W94837  32.544   9.792   3.012
29677W        W94838  14.369  40.421  12.493
29678W        W94839   1.052  29.951  13.101
29679W        W94840  32.936  17.030   2.675
29680W        W94841  35.507  35.459   2.189
29681W        W94842  21.477  16.650   3.575
29682W        W94843  19.993  35.926  13.043
29683W        W94844  17.548  23.570  13.831
29684W        W94845  11.625  15.018  12.486
29685W        W94846   0.410  22.229  13.925
29686W        W94847  15.649  22.128   4.147
29687W        W94848  26.696  41.791  14.563
29688W        W94849  37.033   5.973  10.835
29689W        W94850  41.820   5.902  14.691
29690W        W94851  44.504  16.283   3.368
29691W        W94852  18.187  26.862   4.181
29692W        W94853  28.578  21.774   1.084
29693W        W94854  27.905  27.703   4.783
29694W        W94855  34.942  11.576  11.991
29695W        W94856  44.611   4.860  13.026
29696W        W94857   6.668  44.740  13.046
29697W        W94858  41.218  41.460  11.511
29698W        W94859  11.828  24.525   1.804
29699W        W94860   8.702  28.496  10.750
29700W        W94861  34.480  43.461  12.491
29701W        W94862   5.651   4.213   1.531
29702W        W94863  39.892   7.693  12.835
29703W        W94864  39.338  33.069  12.499
29704W        W94865  18.269  24.625   1.746
29705W        W94866  40.273  31.594  12.426
29706W        W94867  37.173  42.151   1.281
29707W        W94868  27.886  15.271   2.838
29708W        W94869  24.041  42.781  12.922
29709W        W94870  21.549  21.079   4.620
29710W        W94871  40.505  27.033  14.018
29711W        W94872  40.075   8.880   1.828
29712W        W94873  20.666  13.170   2.779
29713W        W94874  35.402  29.037  12.815
29714W        W94875  32.264   3.237  11.057
29715W        W94876  29.187   3.162  12.117
29716W        W94877   8.435  43.727   0.793
29717W        W94878  32.433  31.475  14.026
29718W        W94879   6.097   4.751   0.525
29719W        W94880   2.549   2.371   2.205
29720W        W94881  36.852   3.926   3.114
29721W        W94882  23.040   4.363  12.837
29722W        W94883  21.171  18.250  11.230
29723W        W94884   6.355  32.425  14.025
29724W        W94885  39.864   4.436   1.237
29725W        W94886  13.786  14.938   2.187
29726W        W94887  22.359  24.953   1.714
29727W        W94888  20.784  22.103   2.704
29728W        W94889  32.050   9.731   3.358
29729W        W94890   9.475  35.906   0.273
29730W        W94891  33.204  38.369   1.272
29731W        W94892  16.195  18.561   1.439
29732W        W94893  34.563   4.349   1.994
29733W        W94894   4.757  10.888   3.002
29734W        W94895  19.510   6.953  13.540
29735W        W94896   3.855  28.667   3.887
29736W        W94897  32.472  34.009   1.674
29737W        W94898   1.515   1.763  14.711
29738W        W94899   6.673   9.580   3.564
29739W        W94900  21.286   9.491  11.821
29740W        W94901  41.899   1.306   0.034
29741W        W94902  15.096  39.119   5.560
29742W        W94903  39.092   7.283  13.357
29743W        W94904  16.319  21.181   3.633
29744W        W94905  10.356   2.318   4.437
29745W        W94906  38.623  19.629   2.692
29746W        W94907   7.274  18.966   1.376
29747W        W94908   9.221   2.306  14.039
29748W        W94909  30.396   9.119   4.966
29749W        W94910   8.595  13.157   3.604
29750W        W94911  30.432  14.831   1.876
29751W        W94912  11.199  19.386  12.497
29752W        W94913  19.093  41.736  14.349
29753W        W94914   6.455  22.145   4.253
29754W        W94915  13.709  37.934   3.192
29755W        W94916  44.778   2.176   1.864
29756W        W94917  30.563  39.020  12.155
29757W        W94918  37.516   1.840  13.339
29758W        W94919  43.442  40.363   2.332
29759W        W94920  39.225  38.958   2.268
29760W        W94921  44.658  20.017   1.875
29761W        W94922  12.833  15.831  13.347
29762W        W94923  32.854  17.140   0.359
29763W        W94924   6.830   1.716  12.955
29764W        W94925   4.316  44.509   2.676
29765W        W94926  33.086   2.626   0.891
29766W        W94927  18.725  18.560   1.332
29767W        W94928  20.058  20.496   1.072
29768W        W94929  20.084  42.091  10.107
29769W        W94930  32.253  34.076  14.332
29770W        W94931  24.484   1.882  14.521
29771W        W94932   7.195  35.495  10.694
29772W        W94933  38.355   4.231  11.250
29773W        W94934  27.549  31.670  11.117
29774W        W94935  34.634  28.657   4.552
29775W        W94936   9.763  33.909   1.920
29776W        W94937   4.909  31.481  11.590
29777W        W94938  17.227  14.593   2.789
29778W        W94939  34.036  41.801  14.344
29779W        W94940   2.805   2.000  13.393
29780W        W94941   2.020  11.651  12.442
29781W        W94942  17.598  34.526   1.601
29782W        W94943  39.837  14.316  13.272
29783W        W94944  26.012  34.094  14.781
29784W        W94945   8.358  22.435   2.497
29785W        W94946  25.718  31.893  13.351
29786W        W94947  30.903   2.162  12.931
29787W        W94948  36.408   8.022  14.471
29788W        W94949  30.397   9.168  14.994
29789W        W94950   0.752  19.371  14.311
29790W        W94951  40.772  36.475  10.530
29791W        W94952   2.228  41.716   0.225
29792W        W94953  38.542   6.628   1.238
29793W        W94954  10.264  44.960  14.884
29794W        W94955  24.094  13.730   0.240
29795W        W94956  39.993   0.950  14.845
29796W        W94957  30.979  41.798   3.256
29797W        W94958  19.641  29.488  13.316
29798W        W94959   3.082  35.302   9.856
29799W        W94960  34.454  34.256   3.205
29800W        W94961   7.204  32.995  14.114
29801W        W94962  30.615  31.185  13.447
29802W        W94963  31.285  20.582   3.317
29803W        W94964  19.608  23.576   0.991
29804W        W94965   1.221  15.805  12.136
29805W        W94966  18.579   4.367  14.606
29806W        W94967  38.875  11.730  12.708
29807W        W94968  10.952  12.350  12.537
29808W        W94969   7.702  34.890  12.685
29809W        W94970  20.261  35.445   2.634
29810W        W94971  40.582   4.325   2.343
29811W        W94972   1.217   7.176  14.948
29812W        W94973  42.244  17.762  14.850
29813W        W94974  18.212  23.003  12.863
29814W        W94975  19.958  20.708   1.972
29815W        W94976  30.863  11.254  12.443
29816W        W94977   2.518   9.315  14.716
29817W        W94978  16.482  43.593   3.294
29818W        W94979   4.213   6.468   3.224
29819W        W94980  28.641   6.050   0.719
29820W        W94981  18.175  33.205   3.594
29821W        W94982   7.397   2.883   2.789
29822W        W94983  29.471   3.504  10.412
29823W        W94984   4.754   3.693   2.585
29824W        W94985  14.607  14.366  12.118
29825W        W94986   3.435  32.114   2.327
29826W        W94987   4.386  41.018  13.052
29827W        W94988  18.583  18.645  13.821
29828W        W94989  28.162  30.352   4.112
29829W        W94990  20.896  39.042   3.645
29830W        W94991  26.212  25.679  10.692
29831W        W94992  40.449  40.270   2.622
29832W        W94993  23.995  34.999   5.096
29833W        W94994  39.581  22.822   0.047
29834W        W94995   2.866  38.279  11.168
29835W        W94996  44.893   3.983   2.637
29836W        W94997  19.572  16.511   2.710
29837W        W94998   1.374  34.096  11.592
29838W        W94999  31.302  11.779  11.704
29839W        W95000  19.323  18.644   3.468
29840W        W95001  42.079  16.998  13.460
29841W        W95002  43.767  19.356   0.311
29842W        W95003  41.404  33.493   3.880
29843W        W95004   7.499  23.935   2.293
29844W        W95005  36.047  36.991  14.311
29845W        W95006   3.486   0.896  11.130
29846W        W95007   7.833  40.750  14.258
29847W        W95008  22.168  33.134   1.729
29848W        W95009   2.715  40.815   3.543
29849W        W95010   5.587  33.377  13.246
29850W        W95011  11.285  13.317  12.423
29851W        W95012   3.026  12.337  11.989
29852W        W95013  10.313  41.882  11.721
29853W        W95014   2.369  19.671  10.091
29854W        W95015  30.863  44.112  14.770
29855W        W95016   5.825  17.787   3.060
29856W        W95017   1.431  24.484   3.516
29857W        W95018  17.716  16.700   1.515
29858W        W95019  41.616  31.774  12.973
29859W        W95020  30.970  29.702   1.774
29860W        W95021   7.721  20.687   0.719
29861W        W95022  10.224   1.654  10.051
29862W        W95023  18.252  27.133  14.935
29863W        W95024  41.975  16.699   1.893
29864W        W95025  11.892   8.592  14.466
29865W        W95026  34.455  15.084   1.803
29866W        W95027  31.069  40.363  11.584
29867W        W95028  30.586  26.097  14.253
29868W        W95029  43.389  16.543  12.072
29869W        W95030   6.806  19.659   2.254
29870W        W95031  44.979  32.338  13.764
29871W        W95032   1.765  20.049   1.296
29872W        W95033  37.556  41.010  10.934
29873W        W95034  43.545  21.542   0.805
29874W        W95035  28.780  16.699  14.858
29875W        W95036  42.248  20.434  11.944
29876W        W95037  40.266   2.421  13.886
29877W        W95038  21.173  26.856   1.327
29878W        W95039  30.247   1.781  14.148
29879W        W95040  15.359   6.356   2.100
29880W        W95041  15.742  44.499   3.576
29881W        W95042  25.663   7.849  12.602
29882W        W95043  27.908  15.772   1.476
29883W        W95044  17.676  21.296  13.125
29884W        W95045  16.136  14.316  10.574
29885W        W95046   5.426   5.021  13.475
29886W        W95047  38.380  24.442  12.126
29887W        W95048  19.698  19.014  12.963
29888W        W95049   5.231  12.762   4.769
29889W        W95050   4.357  29.887  12.860
29890W        W95051  26.689  28.236  12.659
29891W        W95052  40.942  38.656   4.643
29892W        W95053  22.808  29.709  11.136
29893W        W95054   5.368   8.378  11.474
29894W        W95055  20.209  15.203   2.185
29895W        W95056  37.960  40.542  12.559
29896W        W95057  10.690   2.752  11.545
29897W        W95058  17.892   2.599  14.523
29898W        W95059  15.830  16.143   3.299
29899W        W95060  30.666  30.550  14.830
29900W        W95061  44.297   7.036   4.632
29901W        W95062   6.971  21.315   1.299
29902W        W95063  13.176  26.107   4.685
29903W        W95064  20.986  22.662  12.057
29904W        W95065  38.029   5.050   0.626
29905W        W95066   0.855  37.929  14.092
29906W        W95067  21.055  12.124   1.657
29907W        W95068  32.475  18.293  12.918
29908W        W95069  25.574  30.838   3.092
29909W        W95070  23.042   3.232   2.208
29910W        W95071  43.900   2.373  11.571
29911W        W95072  32.604  13.026   3.647
29912W        W95073  44.159  21.042   3.814
29913W        W95074  40.572   4.212  13.200
29914W        W95075   5.637   2.502   3.272
29915W        W95076   0.523  23.115  12.081
29916W        W95077  31.139  36.329   3.469
29917W        W95078  26.701   0.953   4.125
29918W        W95079  37.297  43.333   4.714
29919W        W95080  31.465  10.687   0.521
29920W        W95081  40.241  44.800   4.062
29921W        W95082   4.910  17.337  11.649
29922W        W95083  32.505  12.200  12.029
29923W        W95084  27.941  13.023  14.947
29924W        W95085   2.154  44.353  14.234
29925W        W95086  12.206  30.182   2.663
29926W        W95087   0.275   1.941  11.197
29927W        W95088  33.573  18.062  10.719
29928W        W95089  10.367  20.749  11.169
29929W        W95090   5.318   5.837   3.811
29930W        W95091  16.757  24.556  11.861
29931W        W95092   6.379  34.365  12.054
29932W        W95093  17.674  36.951  14.458
29933W        W95094  18.528  30.190  11.640
29934W        W95095  15.794  23.589  13.459
29935W        W95096   0.924  40.651  10.665
29936W        W95097  29.388  34.426  14.489
29937W        W95098  35.007   1.845   1.960
29938W        W95099   5.029  33.299   1.226
29939W        W95100  27.045  26.991  10.501
29940W        W95101  25.812  33.561   1.847
29941W        W95102  39.994  40.493   2.686
29942W        W95103  15.814  27.030  14.686
29943W        W95104   2.596   9.833  10.784
29944W        W95105  27.629  37.999   0.512
29945W        W95106  28.979  27.149  12.080
29946W        W95107  21.603   5.039   0.387
29947W        W95108  31.852  31.908   1.880
29948W        W95109  44.997  14.214  13.580
29949W        W95110  28.315   5.217  10.173
29950W        W95111  23.770  42.860  13.885
29951W        W95112   8.804   8.571  12.904
29952W        W95113  13.990  22.567   3.765
29953W        W95114  28.200  19.134  12.435
29954W        W95115  44.841  34.922   2.295
29955W        W95116   8.889  17.141   1.796
29956W        W95117  11.318  38.544  12.035
29957W        W95118  19.853  27.684   2.124
29958W        W95119   5.669  21.054  11.613
29959W        W95120  26.686  27.541  14.543
29960W        W95121  29.670  43.359   3.787
29961W        W95122  27.474  25.114  12.073
29962W        W95123  34.819   0.224   2.950
29963W        W95124  28.969   2.696  12.084
29964W        W95125  18.052  36.945  11.707
29965W        W95126  15.809  35.202  11.675
29966W        W95127  24.923  24.623   0.006
29967W        W95128  24.498   7.012   0.315
29968W        W95129   3.476  35.463  11.522
29969W        W95130  16.316   2.880   2.349
29970W        W95131  44.476  40.487   2.259
29971W        W95132  33.837   6.386  12.591
29972W        W95133  43.873  29.463   0.091
29973W        W95134  43.257   2.141  13.249
29974W        W95135  30.537  30.966   1.112
29975W        W95136  40.758  44.277  14.407
29976W        W95137   8.167  26.148  13.780
29977W        W95138   4.859  33.082  10.159
29978W        W95139  37.201   9.664  12.480
29979W        W95140  12.185  25.875   2.271
29980W        W95141  16.402  21.685  14.394
29981W        W95142  14.470  16.138  10.741
29982W        W95143   7.443  14.644   2.785
29983W        W95144  28.670  10.921   5.427
29984W        W95145  39.316  37.808  13.514
29985W        W95146   3.267  16.816   2.714
29986W        W95147  21.607   6.335  11.075
29987W        W95148  43.924  35.138   3.775
29988W        W95149  38.779  39.720   4.998
29989W        W95150  35.619  44.437  12.052
29990W        W95151  13.853  37.338  13.574
29991W        W95152  19.095  10.885  14.353
29992W        W95153  41.126  32.199  13.923
29993W        W95154  24.091   6.153  11.069
29994W        W95155  19.099  12.787  12.238
29995W        W95156  40.002  41.486   4.633
29996W        W95157  17.595  19.550   3.798
29997W        W95158  15.599  15.577  14.276
29998W        W95159   2.933   6.682   0.888
29999W        W95160  32.586  24.537  12.042
30000W        W95161  41.510  43.248  12.859
30001W        W95162   7.672  26.236   2.194
30002W        W95163  18.074   1.794  14.907
30003W        W95164  27.858  21.354  10.414
30004W        W95165  38.452  37.965  10.433
30005W        W95166  10.993  33.474  10.670
30006W        W95167  22.243  15.100   3.738
30007W        W95168  26.585   3.848  10.544
30008W        W95169  25.793  43.849   3.193
30009W        W95170  14.440  21.150   1.498
30010W        W95171  25.046  35.121  14.270
30011W        W95172  12.794  39.220  12.015
30012W        W95173  34.008  16.152  11.521
30013W        W95174  14.311  31.834  14.652
30014W        W95175   7.333  27.449  13.286
30015W        W95176  21.948  40.485  10.648
30016W        W95177   9.855  26.503  14.846
30017W        W95178  16.132  11.362   2.250
30018W        W95179  26.095   6.398   3.051
30019W        W95180  42.779  10.378   0.431
30020W        W95181  34.368  27.911   1.237
30021W        W95182  31.202  25.917   4.470
30022W        W95183  27.068  26.205  14.730
30023W        W95184  36.972   0.683   3.722
30024W        W95185   9.037  17.856  14.923
30025W        W95186  25.310  10.091  10.294
30026W        W95187   8.168  42.401   1.074
30027W        W95188  44.418   1.159  14.247
30028W        W95189  16.983  16.117  13.946
30029W        W95190  41.821   6.987   0.698
30030W        W95191  27.962  31.589   3.668
30031W        W95192  34.680  12.552  13.514
30032W        W95193  11.450  40.826   1.765
30033W        W95194  26.905  32.608   1.124
30034W        W95195  27.941  16.039  14.979
30035W        W95196  24.815   1.264  13.940
30036W        W95197  21.094   8.094   2.110
30037W        W95198  20.625  14.523   3.880
30038W        W95199  22.340  21.323   4.588
30039W        W95200  23.042  40.227  10.767
30040W        W95201  30.683  32.669   3.729
30041W        W95202   5.847  14.572   3.272
30042W        W95203  43.424  24.391   2.223
30043W        W95204  10.765  36.998  11.353
30044W        W95205  35.056  14.277   0.859
30045W        W95206  13.681  40.270  12.008
30046W        W95207  41.073  19.502  14.272
30047W        W95208  26.673  38.243  14.098
30048W        W95209   7.401  29.563   2.788
30049W        W95210  36.108  37.932   3.208
30050W        W95211  34.159  31.695   0.494
30051W        W95212   3.270  38.543   1.402
30052W        W95213   6.468  12.517  12.048
30053W        W95214  10.915  21.232  14.114
30054W        W95215  13.825   1.031  10.822
30055W        W95216  21.145  37.899   2.261
30056W        W95217   3.368  38.436  10.237
30057W        W95218  36.607  29.990  12.009
30058W        W95219  17.864  44.357  12.882
30059W        W95220  31.736  26.438   2.474
30060W        W95221  24.536  39.018   3.057
30061W        W95222  25.090  43.321   2.946
30062W        W95223   0.371  29.499   4.013
30063W        W95224  42.935  19.261  14.072
30064W        W95225  35.898  24.570   0.770
30065W        W95226  17.331   4.690  13.955
30066W        W95227   0.104  43.046   4.064
30067W        W95228  16.886  23.127  14.074
30068W        W95229  21.287  34.031   3.477
30069W        W95230   1.991  23.532  11.158
30070W        W95231  40.054  12.714  13.359
30071W        W95232   8.588  19.635   1.810
30072W        W95233  33.955   5.292   2.387
30073W        W95234  36.255  20.150  11.576
30074W        W95235  29.462  24.702   0.273
30075W        W95236  15.329  41.613   3.707
30076W        W95237   7.820  26.471   3.485
30077W        W95238  10.422   8.263   1.378
30078W        W95239  13.348  21.996  14.340
30079W        W95240  34.611  36.414   2.872
30080W        W95241  20.363  44.358   4.752
30081W        W95242  36.693   0.225   4.052
30082W        W95243   7.470  36.267   2.801
30083W        W95244   1.735  35.669  10.996
30084W        W95245  25.763  38.996   0.531
30085W        W95246  12.644   5.433  12.539
30086W        W95247  11.918  18.609   0.643
30087W        W95248   6.574  37.027  11.444
30088W        W95249  21.615   2.323  13.768
30089W        W95250  10.236  19.128  11.400
30090W        W95251  44.856  32.059   4.875
30091W        W95252  19.637  17.974   0.679
30092W        W95253  36.528  23.743   0.831
30093W        W95254  38.169   3.475   2.800
30094W        W95255   6.426  14.849  11.505
30095W        W95256   9.846  32.412   0.256
30096W        W95257   4.193  23.469   1.383
30097W        W95258  14.100   0.425   0.254
30098W        W95259  43.819  36.916   2.099
30099W        W95260   0.863   6.173   3.650
30100W        W95261  39.479  32.819  12.928
30101W        W95262  22.212  36.470   0.934
30102W        W95263   4.374   9.263   1.192
30103W        W95264   8.280  20.595  14.506
30104W        W95265  22.549  18.681   3.156
30105W        W95266   0.282  21.757  10.439
30106W        W95267  27.567  39.068   0.493
30107W        W95268   2.373  36.971  10.564
30108W        W95269  24.861  41.852  11.388
30109W        W95270  28.957  16.846  12.512
30110W        W95271  36.796  38.350  14.660
30111W        W95272  39.402  41.290   1.873
30112W        W95273  27.027  39.958   4.147
30113W        W95274  33.494  34.027  14.518
30114W        W95275  34.460  42.125  13.165
30115W        W95276   1.055  28.220  14.451
30116W        W95277  14.434  32.649  11.658
30117W        W95278  17.342  44.177   9.778
30118W        W95279  25.009  14.100  11.653
30119W        W95280  13.290   9.771   1.737
30120W        W95281  26.530  36.598   0.523
30121W        W95282  36.033   4.203   1.448
30122W        W95283  28.758  34.463   0.439
30123W        W95284  31.310  34.133  14.578
30124W        W95285  22.966  17.621   4.500
30125W        W95286  31.337   4.367  14.005
30126W        W95287  26.726  17.034  11.543
30127W        W95288  21.342  35.445  11.204
30128W        W95289  13.779  38.687  13.604
30129W        W95290  39.545  24.232   4.894
30130W        W95291  16.636   5.231  13.944
30131W        W95292  19.543  27.722   3.923
30132W        W95293  27.490  41.076  13.374
30133W        W95294  15.718  28.656   3.120
30134W        W95295  19.306  31.966  11.690
30135W        W95296  44.318   0.155  11.279
30136W        W95297  30.189  21.174  10.764
30137W        W95298  16.024  27.504  14.373
30138W        W95299  15.722  16.845  11.166
30139W        W95300  28.963  43.866   1.773
30140W        W95301  38.401  20.187   0.567
30141W        W95302  44.369  44.724   4.202
30142W        W95303  10.306  32.529  10.703
30143W        W95304  21.244  12.183   2.644
30144W        W95305  20.080   2.383  14.496
30145W        W95306   6.678  16.869  11.902
30146W        W95307  14.563  40.407   9.783
30147W        W95308  28.837  26.547   2.076
30148W        W95309  30.945   2.735  12.847
30149W        W95310  21.633  37.271   2.651
30150W        W95311  30.876  29.492   3.181
30151W        W95312  13.914   6.460   4.974
30152W        W95313  23.689  44.211   3.623
30153W        W95314  19.776  14.657   0.761
30154W        W95315   8.137  26.039   2.255
30155W        W95316   5.840  22.551   2.109
30156W        W95317  26.733  19.733  11.800
30157W        W95318  19.292  26.556  12.538
30158W        W95319  15.182  33.369  10.698
30159W        W95320  34.605  16.966  14.109
30160W        W95321  16.003  43.837   2.747
30161W        W95322  34.352   4.071  14.672
30162W        W95323  39.981  35.543   2.278
30163W        W95324  28.177  26.209   2.746
30164W        W95325   9.788   1.252  12.135
30165W        W95326  34.192   8.897   3.199
30166W        W95327   2.894  42.192   0.107
30167W        W95328  21.729  29.186   3.204
30168W        W95329  27.449   6.468  14.829
30169W        W95330  19.149  24.133   1.414
30170W        W95331  38.307  35.079  11.469
30171W        W95332   1.834  26.236  14.959
30172W        W95333  23.600  40.004   3.168
30173W        W95334  22.499  19.330   2.103
30174W        W95335  33.724   6.409  14.109
30175W        W95336  32.646  42.791   2.270
30176W        W95337   1.442  30.951   0.488
30177W        W95338   3.961  38.326  13.816
30178W        W95339   8.208  20.285  14.953
30179W        W95340   0.295  30.985  11.625
30180W        W95341  12.359  21.759   0.899
30181W        W95342  33.590  15.747  11.109
30182W        W95343   1.480  30.627  14.268
30183W        W95344   3.374  26.438   0.907
30184W        W95345  13.903   9.135   2.825
30185W        W95346  27.427   2.898  14.879
30186W        W95347   0.385  31.096  13.359
30187W        W95348  21.966   2.933   2.738
30188W        W95349  19.098  19.853  11.134
30189W        W95350  31.970   6.776  12.354
30190W        W95351   9.964  25.751  11.945
30191W        W95352  32.909  28.927  12.047
30192W        W95353  44.924  14.134   3.693
30193W        W95354  19.468  34.043   2.882
30194W        W95355  22.289  16.291   3.493
30195W        W95356  15.526  10.121  13.098
30196W        W95357  24.637  24.776  13.026
30197W        W95358  17.591  26.636  14.009
30198W        W95359  20.093  28.739  14.748
30199W        W95360  29.145  34.250   4.120
30200W        W95361  33.448  33.800   1.805
30201W        W95362   6.871  32.411   3.222
30202W        W95363   4.664  23.043   0.260
30203W        W95364  38.441  31.605   1.234
30204W        W95365  39.793  24.593  13.945
30205W        W95366  39.465  18.695   3.658
30206W        W95367  14.760  35.927   3.151
30207W        W95368  14.734   4.344   0.324
30208W        W95369  37.331  28.486  10.678
30209W        W95370  14.229  40.932   0.983
30210W        W95371  38.869  41.169  10.989
30211W        W95372  28.970  43.241  11.915
30212W        W95373  22.760  31.175   0.713
30213W        W95374  37.344  14.972   2.103
30214W        W95375  31.511  43.988   4.501
30215W        W95376  43.396  27.531  10.989
30216W        W95377  25.491  25.327   4.971
30217W        W95378  38.084  33.173  14.380
30218W        W95379  27.104  10.330   1.563
30219W        W95380  41.498  41.947   0.340
30220W        W95381  14.782   4.986   3.640
30221W        W95382  31.999  43.816   2.551
30222W        W95383  11.278  34.839   2.793
30223W        W95384  20.567  29.375   1.980
30224W        W95385  40.793   9.910   3.833
30225W        W95386  27.115  10.321   4.081
30226W        W95387  21.265  19.600   1.312
30227W        W95388   7.730  34.511   2.240
30228W        W95389  32.546  32.055   2.560
30229W        W95390  22.683  16.653   2.704
30230W        W95391  16.689   5.802   0.239
30231W        W95392  35.113  24.463  11.065
30232W        W95393   7.477  12.226  12.492
30233W        W95394  18.107  11.958  13.588
30234W        W95395  29.945  27.851   5.652
30235W        W95396  20.237  31.157  12.354
30236W        W95397  16.849  26.660   0.365
30237W        W95398  20.803  20.091  12.929
30238W        W95399  37.468  36.835  13.932
30239W        W95400  21.779  30.907   2.520
30240W        W95401  21.757  23.643  11.818
30241W        W95402  41.800  33.037  13.117
30242W        W95403  41.623  40.369  12.105
30243W        W95404  25.024  31.046   1.835
30244W        W95405  13.515  27.454  14.754
30245W        W95406  17.208  41.434   4.980
30246W        W95407  31.099  34.529   1.810
30247W        W95408  10.441  25.672  11.736
30248W        W95409  12.645  12.907  11.985
30249W        W95410  41.859  31.074  12.107
30250W        W95411   6.267  13.742   3.614
30251W        W95412  16.231  15.150  11.395
30252W        W95413  24.546   0.020   2.771
30253W        W95414  18.204  12.595  10.724
30254W        W95415  13.596  12.077   3.308
30255W        W95416   8.830  14.661   2.396
30256W        W95417  12.908   2.438  14.972
30257W        W95418  10.274  18.553   3.606
30258W        W95419  10.713  27.453   4.740
30259W        W95420  43.870   9.298  11.119
30260W        W95421  13.495  39.939  12.402
30261W        W95422  18.473   3.299  13.507
30262W        W95423  21.775  13.657   0.815
30263W        W95424  13.468  14.170   1.547
30264W        W95425  12.147  15.138  10.440
30265W        W95426  33.538  32.570  12.371
30266W        W95427  22.036  11.623  11.890
30267W        W95428  12.151  24.242  10.537
30268W        W95429   6.763   8.660  13.990
30269W        W95430   8.910  32.754  11.540
30270W        W95431  36.944  19.516   3.813
30271W        W95432  31.668  12.162   1.917
30272W        W95433  11.745  13.939  13.359
30273W        W95434  27.184  15.208   0.254
30274W        W95435  21.040  19.194   0.193
30275W        W95436  34.986   7.539   1.777
30276W        W95437   0.212  34.522   3.128
30277W        W95438  20.620  39.318  13.945
30278W        W95439  35.614  22.106  13.006
30279W        W95440  37.830  41.952   2.336
30280W        W95441   9.536  10.328   1.876
30281W        W95442  14.578  13.666   0.853
30282W        W95443   5.252  11.651  14.692
30283W        W95444   5.568  42.450  14.890
30284W        W95445  18.439  23.377  10.728
30285W        W95446  12.137   2.906  11.639
30286W        W95447  44.092  24.937  13.491
30287W        W95448  28.494   5.974  13.291
30288W        W95449  20.849  39.611  14.977
30289W        W95450  38.372  37.038  10.708
30290W        W95451  36.889  33.570   2.434
30291W        W95452  38.061  15.399  11.564
30292W        W95453   5.435  37.415   2.610
30293W        W95454  35.980  28.290   0.383
30294W        W95455  34.264  39.361   1.087
30295W        W95456   3.791  44.943  13.040
30296W        W95457  20.137  18.687   5.569
30297W        W95458  31.463   4.586  11.231
30298W        W95459  40.790  38.950  12.484
30299W        W95460  27.790  43.114   5.027
30300W        W95461  22.374  21.580  13.570
30301W        W95462   7.363  28.481  13.594
30302W        W95463   3.122   6.699   1.475
30303W        W95464  17.014  20.035  14.217
30304W        W95465  26.103  19.296  12.652
30305W        W95466  44.011  26.047  14.043
30306W        W95467  23.867   7.339   0.886
30307W        W95468  15.685   1.202  12.849
30308W        W95469  12.521  28.168   1.247
30309W        W95470  29.373  42.356   4.356
30310W        W95471   6.135  42.988   2.866
30311W        W95472  21.488   2.447   0.198
30312W        W95473   8.879  16.144   4.763
30313W        W95474  20.249  42.354   0.779
30314W        W95475  25.936  31.009   4.254
30315W        W95476   0.036  19.603  13.885
30316W        W95477  23.169   6.626  11.790
30317W        W95478  32.476   0.891   2.953
30318W        W95479  38.073  32.047   2.146
30319W        W95480   3.993  30.892  10.705
30320W        W95481   6.676  34.457  14.461
30321W        W95482  30.697  24.517   0.249
30322W        W95483   2.321  37.699   1.679
30323W        W95484  24.197  16.125  12.639
30324W        W95485   6.505  41.787   4.922
30325W        W95486   3.877  19.785  12.943
30326W        W95487  36.454  35.921  13.799
30327W        W95488  30.688  23.625  13.590
30328W        W95489  29.936  40.418   4.575
30329W        W95490  41.837   2.021   2.790
30330W        W95491  39.899  29.530   4.836
30331W        W95492  10.835  25.162  14.791
30332W        W95493  35.399  10.356  14.552
30333W        W95494   2.419   7.123  13.881
30334W        W95495   2.437  35.394  13.481
30335W        W95496  19.577  31.004  14.874
30336W        W95497  42.587  33.892   3.726
30337W        W95498  40.240  10.074   0.305
30338W        W95499   9.644   6.653   3.266
30339W        W95500  42.193  37.865   3.124
30340W        W95501   5.735  28.138   4.195
30341W        W95502  18.734  39.923   2.784
30342W        W95503  35.870  12.905  12.001
30343W        W95504  44.791  31.070  13.906
30344W        W95505  20.469  14.753   2.205
30345W        W95506  11.879  22.957   2.202
30346W        W95507  35.640  26.225  14.314
30347W        W95508  21.194  37.314   4.778
30348W        W95509  37.235  15.131   1.154
30349W        W95510  39.150  29.762  13.865
30350W        W95511  22.456  34.396  13.348
30351W        W95512  42.084  40.826   2.839
30352W        W95513  37.350  21.522   1.752
30353W        W95514  22.457  27.242  12.946
30354W        W95515  38.506  41.538  12.414
30355W        W95516   5.152  38.289  12.575
30356W        W95517  20.968   2.943   1.753
30357W        W95518  38.184  13.132  13.988
30358W        W95519  36.320  31.549   2.872
30359W        W95520  14.681   8.025   4.002
30360W        W95521  14.717  12.187   4.135
30361W        W95522  19.261  20.585   2.363
30362W        W95523  26.739  33.882  10.416
30363W        W95524  13.846  10.884   3.583
30364W        W95525  13.844  15.877  13.429
30365W        W95526  13.140  10.323  14.245
30366W        W95527  37.371   3.718   3.020
30367W        W95528  35.128  40.273  13.559
30368W        W95529  31.496  31.684  14.453
30369W        W95530  44.278   6.826  11.671
30370W        W95531  40.581  12.615   0.987
30371W        W95532  14.816  40.963   2.290
30372W        W95533  11.288  32.069  10.394
30373W        W95534  20.500  32.890   0.017
30374W        W95535  31.153  20.505  14.032
30375W        W95536  30.451  42.818   2.755
30376W        W95537  34.573  11.639  10.819
30377W        W95538  28.879   5.266  11.440
30378W        W95539  18.937  35.455   3.102
30379W        W95540  28.244  23.177   3.126
30380W        W95541  33.845  20.732   0.357
30381W        W95542  36.575  38.665  11.958
30382W        W95543  13.960  18.704  14.799
30383W        W95544   5.094   5.704  14.342
30384W        W95545  30.433   1.341   3.206
30385W        W95546  31.420  15.061  12.521
30386W        W95547  33.706  30.069   0.260
30387W        W95548  37.949  17.343   3.207
30388W        W95549  16.333  11.244  12.610
30389W        W95550  22.490  28.111  13.532
30390W        W95551  20.912  34.544  14.337
30391W        W95552  41.147  29.682   0.479
30392W        W95553  34.036  13.619  14.014
30393W        W95554  20.576  34.190   4.372
30394W        W95555  13.600  26.705   3.680
30395W        W95556   6.350  37.887  11.097
30396W        W95557  17.308  32.054   3.171
30397W        W95558  19.024   8.366  12.032
30398W        W95559  24.271  12.717   3.544
30399W        W95560  10.113  32.441   1.809
30400W        W95561  14.364  10.640   0.734
30401W        W95562  12.658  18.106   2.317
30402W        W95563   6.176   9.999  10.662
30403W        W95564  22.996   2.317  11.703
30404W        W95565  15.980  10.400   3.185
30405W        W95566  36.991   1.957   0.756
30406W        W95567  12.689   7.938  12.400
30407W        W95568  21.899  27.662   4.701
30408W        W95569  23.657  34.800  12.023
30409W        W95570   4.834  27.555   4.633
30410W        W95571  42.543  24.232   4.666
30411W        W95572  22.140  25.021   2.629
30412W        W95573  42.857  26.502  11.623
30413W        W95574  39.811  28.867  12.122
30414W        W95575  42.947   2.260   0.457
30415W        W95576  32.813   2.237  13.876
30416W        W95577  20.152  25.030   0.449
30417W        W95578  27.267   2.313  14.354
30418W        W95579  21.451  23.651  14.301
30419W        W95580   3.215  42.435  12.374
30420W        W95581   4.511  20.974  10.770
30421W        W95582  44.372  17.218   2.733
30422W        W95583   7.215  35.397   4.153
30423W        W95584  42.362   2.848   0.910
30424W        W95585  24.568   4.447   3.442
30425W        W95586  19.924  40.423  13.099
30426W        W95587  40.597  39.058   2.725
30427W        W95588  38.114   7.982  12.769
30428W        W95589  15.871   0.022   0.934
30429W        W95590  15.689   3.711   1.762
30430W        W95591  27.943   5.299  10.569
30431W        W95592  37.282  27.528   0.404
30432W        W95593  29.033  11.145   1.996
30433W        W95594  18.215   1.641   2.156
30434W        W95595  27.384  42.918  12.963
30435W        W95596  12.986  39.889   3.233
30436W        W95597   7.321  39.392   0.501
30437W        W95598  32.430  44.971   3.280
30438W        W95599  40.975  38.231   2.806
30439W        W95600  22.252   7.271  11.429
30440W        W95601  34.289  28.957   2.840
30441W        W95602  13.985   2.043  10.757
30442W        W95603  20.201  18.227  14.415
30443W        W95604   0.292  10.828  13.627
30444W        W95605   8.134  19.485   1.667
30445W        W95606  20.759  37.773  13.933
30446W        W95607  42.365  10.085  10.858
30447W        W95608   1.147  25.075  12.949
30448W        W95609  27.715  40.367   2.158
30449W        W95610  17.415  10.808  10.018
30450W        W95611  44.460  42.771   1.985
30451W        W95612  41.057  35.887   5.129
30452W        W95613   1.235  11.448  13.556
30453W        W95614  10.571   9.691   3.300
30454W        W95615  43.567  41.324   0.884
30455W        W95616  15.670  30.860  14.255
30456W        W95617  35.036  41.623  13.539
30457W        W95618  44.140   0.175   0.962
30458W        W95619  38.913  38.025   1.759
30459W        W95620   5.646  29.412  14.019
30460W        W95621  19.569  38.977  14.841
30461W        W95622  38.853  23.152  14.977
30462W        W95623  21.129  11.825   0.413
30463W        W95624  30.004  14.487  13.503
30464W        W95625  29.528   4.291  13.424
30465W        W95626  28.361  11.654   4.919
30466W        W95627  31.894  13.050   3.144
30467W        W95628  27.178   3.162  11.107
30468W        W95629  28.574  15.503   3.744
30469W        W95630  32.644  19.255  10.784
30470W        W95631   0.974   9.221  12.039
30471W        W95632  32.346   0.256   3.762
30472W        W95633  21.673   3.505  14.366
30473W        W95634  24.109  13.839  12.499
30474W        W95635  19.849  14.103  12.086
30475W        W95636  23.066  23.560  10.862
30476W        W95637   4.714  20.152  14.757
30477W        W95638  38.432  44.268   4.791
30478W        W95639   7.859  18.368  13.600
30479W        W95640  13.833  17.306   4.539
30480W        W95641  17.312  20.577   0.404
30481W        W95642   5.100  14.264   4.580
30482W        W95643  35.538  20.450   4.858
30483W        W95644  16.848  27.749  13.837
30484W        W95645  23.630  13.161  14.032
30485W        W95646  34.278  36.575  14.112
30486W        W95647  39.779   6.236   4.635
30487W        W95648  21.035  32.467  12.068
30488W        W95649   8.292  18.636   1.350
30489W        W95650  36.224  18.247   4.009
30490W        W95651  34.893  24.934  11.150
30491W        W95652  28.084  16.593   3.227
30492W        W95653  23.574  41.990  14.043
30493W        W95654  22.626  13.177   2.844
30494W        W95655  21.099  26.847   2.519
30495W        W95656  25.974   1.882   2.805
30496W        W95657  44.231   0.209   4.113
30497W        W95658  36.169   6.255  12.014
30498W        W95659  11.635   5.025  10.984
30499W        W95660  26.588  14.789  12.041
30500W        W95661  27.634   1.437  14.212
30501W        W95662   4.923   8.068  10.635
30502W        W95663  37.984  23.788   3.404
30503W        W95664  29.700   7.390   4.540
30504W        W95665  31.961  19.423   3.270
30505W        W95666  23.180   7.340   0.092
30506W        W95667  33.866   7.887   0.941
30507W        W95668  12.306  35.662  10.653
30508W        W95669  11.239  19.666  14.113
30509W        W95670  18.199   8.388   4.772
30510W        W95671   1.906   5.858  13.564
30511W        W95672  39.596  33.605  10.655
30512W        W95673  23.672  25.754  12.938
30513W        W95674  41.876  19.304   2.249
30514W        W95675  38.093  19.838  14.742
30515W        W95676   4.831   1.701  11.769
30516W        W95677  31.917   2.281  10.627
30517W        W95678  43.499  31.653  10.350
30518W        W95679  30.483  15.840   4.667
30519W        W95680   2.869   8.795  12.046
30520W        W95681  34.042  30.670   4.754
30521W        W95682  15.608   1.708   0.111
30522W        W95683  10.627   0.298   2.292
30523W        W95684  31.533   3.234   3.909
30524W        W95685  38.134  13.642   2.067
30525W        W95686   4.314   9.833  13.079
30526W        W95687  23.307  16.065   3.677
30527W        W95688  14.866  12.261  12.521
30528W        W95689  25.531  38.078  12.006
30529W        W95690  44.483   1.695  11.501
30530W        W95691   1.028  21.614   2.236
30531W        W95692  21.968  18.490   4.182
30532W        W95693   7.776  43.894   4.274
30533W        W95694   5.238  28.349  13.463
30534W        W95695  37.899   4.818   2.814
30535W        W95696  41.427  37.417   3.550
30536W        W95697  24.199  39.135   2.328
30537W        W95698   9.869  13.063  10.858
30538W        W95699  33.629   0.898  12.079
30539W        W95700  42.536  38.394   0.968
30540W        W95701   6.756  18.844  12.886
30541W        W95702  39.748  33.068   0.297
30542W        W95703  21.090  22.931   2.726
30543W        W95704  13.792  16.027  12.103
30544W        W95705  15.850  35.455  12.104
30545W        W95706  15.842  44.025   4.450
30546W        W95707  16.470   3.998  14.434
30547W        W95708  35.963  32.123   3.184
30548W        W95709  23.780  31.530  14.444
30549W        W95710  28.880  42.707  11.690
30550W        W95711   5.504  33.873   0.721
30551W        W95712  25.834  27.407   1.319
30552W        W95713  33.232  44.293  14.067
30553W        W95714  44.848   7.871   4.355
30554W        W95715  14.308  27.246  11.201
30555W        W95716  42.242  33.099  12.829
30556W        W95717   7.813   4.681   2.142
30557W        W95718   0.631  40.377   1.277
30558W        W95719  44.077   3.275  14.941
30559W        W95720   1.548  36.254   5.600
30560W        W95721  42.598   0.827  12.538
30561W        W95722  24.620  32.476  14.931
30562W        W95723  15.644  11.759  10.689
30563W        W95724  13.108   2.456   3.645
30564W        W95725  44.524   2.714   4.721
30565W        W95726  12.715   3.577  14.285
30566W        W95727  28.996   9.329  14.380
30567W        W95728  39.954  14.203   1.711
30568W        W95729   3.248   7.602   5.443
30569W        W95730   3.352  13.147   1.315
30570W        W95731  10.434  10.649   0.905
30571W        W95732  11.740  29.974   0.787
30572W        W95733  24.022  18.986  10.527
30573W        W95734  20.286  11.807   9.863
30574W        W95735   5.926  15.088   3.204
30575W        W95736  16.832  13.356  10.836
30576W        W95737  31.193   1.724   4.522
30577W        W95738   1.053   1.336   0.389
30578W        W95739   3.899  42.034  12.061
30579W        W95740  40.977  27.995   4.776
30580W        W95741  38.063   1.512   4.494
30581W        W95742  22.009  30.070  10.571
30582W        W95743  23.665  25.296   1.427
30583W        W95744  19.409  34.842   3.755
30584W        W95745  32.907  15.451   0.487
30585W        W95746  39.810   0.534   1.879
30586W        W95747  12.796  38.951   0.879
30587W        W95748  39.380  18.664  11.939
30588W        W95749  12.470   0.471   2.715
30589W        W95750  40.905   0.079  13.052
30590W        W95751  41.591   6.276  10.892
30591W        W95752  28.422   5.929   0.256
30592W        W95753  27.407   7.476  12.037
30593W        W95754  36.993   0.321   2.304
30594W        W95755   5.853  36.843   0.957
30595W        W95756  13.180  37.935  12.986
30596W        W95757  39.332  32.522  12.520
30597W        W95758   4.423  42.246  11.368
30598W        W95759  13.341  10.097  12.402
30599W        W95760  44.003  30.869  12.506
30600W        W95761  36.461  19.523   2.227
30601W        W95762  21.341  40.912   2.604
30602W        W95763  36.415  40.824   4.941
30603W        W95764   1.901  11.894  11.107
30604W        W95765  38.250  28.628   4.609
30605W        W95766  40.734  19.335  11.554
30606W        W95767  18.148  34.398   0.227
30607W        W95768  37.286  35.782  11.476
30608W        W95769   0.437   4.709   2.146
30609W        W95770  14.087  20.053   3.086
30610W        W95771  38.606  40.047   0.519
30611W        W95772   3.350  22.609  11.377
30612W        W95773  29.453   7.876   4.140
30613W        W95774  40.781   6.393   4.385
30614W        W95775  13.783  24.969   0.963
30615W        W95776  15.565   0.830  12.463
30616W        W95777  25.500  14.135   2.668
30617W        W95778   3.053  11.812  12.522
30618W        W95779  15.784  34.772   3.974
30619W        W95780  24.077   9.282   3.625
30620W        W95781  14.548  29.020   2.851
30621W        W95782  38.789  30.596  12.882
30622W        W95783  41.095  13.288  13.986
30623W        W95784  13.952  14.190   0.628
30624W        W95785  36.415   6.967   0.783
30625W        W95786  21.247   5.251  11.789
30626W        W95787  29.273  40.803  13.309
30627W        W95788  34.552  17.552   3.896
30628W        W95789  39.148  15.063  10.686
30629W        W95790  26.416  21.581   2.275
30630W        W95791  24.529  39.000   0.786
30631W        W95792   1.272   4.853  12.529
30632W        W95793  28.972  17.313  10.654
30633W        W95794  33.299  27.798  11.387
30634W        W95795   2.900  34.585  11.227
30635W        W95796   5.988  24.702   9.799
30636W        W95797  28.318   3.415  13.597
30637W        W95798  35.794  42.906  14.321
30638W        W95799  18.105  14.429  14.274
30639W        W95800  10.807  38.505  12.919
30640W        W95801  31.941   4.662   2.018
30641W        W95802   8.006  19.276  12.050
30642W        W95803  18.700  17.977  12.890
30643W        W95804   8.820  26.189  13.471
30644W        W95805  14.079  26.681   2.924
30645W        W95806   4.941  23.679  14.263
30646W        W95807  38.067   1.374  10.852
30647W        W95808  29.456  27.235  13.246
30648W        W95809  37.051  41.865   1.897
30649W        W95810  21.666  40.289   3.655
30650W        W95811   4.661   1.002   1.365
30651W        W95812  11.432   4.315  13.830
30652W        W95813  24.954  11.702   3.672
30653W        W95814  12.110  22.063   4.216
30654W        W95815  29.690  26.447   0.348
30655W        W95816   6.415   1.163   4.148
30656W        W95817  42.684   4.730   2.830
30657W        W95818  43.053  25.591   2.796
30658W        W95819  41.968  23.140  14.096
30659W        W95820  27.584  35.814   4.346
30660W        W95821  12.679  15.051  14.597
30661W        W95822  42.416  13.659  13.065
30662W        W95823   0.025  19.452   3.051
30663W        W95824   2.451  37.628   2.919
30664W        W95825  38.781   1.314   0.073
30665W        W95826   2.023  12.402  11.192
30666W        W95827   7.226   4.754   3.134
30667W        W95828  30.921  31.472   0.485
30668W        W95829  12.882  32.116  14.792
30669W        W95830  13.627  29.972  11.457
30670W        W95831   4.275   6.210  10.715
30671W        W95832  40.254   5.186   1.815
30672W        W95833   2.479  18.296   0.452
30673W        W95834   2.676  17.718  14.964
30674W        W95835   8.972  37.834  13.778
30675W        W95836  35.560  34.172  11.014
30676W        W95837  24.506  44.265   0.423
30677W        W95838  32.454  29.033   0.772
30678W        W95839  38.103  38.294  10.652
30679W        W95840  13.276  19.621   3.153
30680W        W95841  12.360   8.608  14.695
30681W        W95842   2.008  22.099  12.417
30682W        W95843  42.029  44.496  10.938
30683W        W95844  14.857   7.533  11.241
30684W        W95845  13.894  12.445   0.664
30685W        W95846   7.960   4.335   0.365
30686W        W95847  16.240  36.973  11.867
30687W        W95848   3.623  12.800  10.202
30688W        W95849  40.993  34.994  11.970
30689W        W95850  19.011  10.823   2.191
30690W        W95851  33.434  43.220   1.832
30691W        W95852  41.388  44.538  12.500
30692W        W95853  17.932  42.462   9.808
30693W        W95854  25.937  11.798   2.655
30694W        W95855  16.776  10.925   2.753
30695W        W95856   6.737  17.083  14.902
30696W        W95857  10.313  38.729   4.647
30697W        W95858  35.761  28.141   0.896
30698W        W95859  11.072   1.240  13.014
30699W        W95860  10.108  19.409  11.803
30700W        W95861  27.937  24.467   5.233
30701W        W95862  30.490  39.897   2.144
30702W        W95863   0.111  34.578  12.989
30703W        W95864   3.631  20.590  11.945
30704W        W95865  38.729  33.857  11.591
30705W        W95866  23.232  42.100  12.396
30706W        W95867  41.935   8.448   4.559
30707W        W95868  42.867  11.286  12.108
30708W        W95869  30.688  13.147  12.967
30709W        W95870  17.140   8.240  11.074
30710W        W95871  15.120  33.860  14.276
30711W        W95872   9.984  43.709   1.835
30712W        W95873  21.237   4.213  11.538
30713W        W95874  13.653  26.475   2.695
30714W        W95875  33.996   7.380  14.003
30715W        W95876  27.895  13.972  11.622
30716W        W95877  31.979  21.057   0.090
30717W        W95878  36.202  21.065  10.085
30718W        W95879  32.627  26.527  12.991
30719W        W95880  30.720   5.294  14.428
30720W        W95881  27.032   0.763   4.635
30721W        W95882  35.582  25.994  13.387
30722W        W95883   6.229  30.561  12.812
30723W        W95884  26.016   0.232   2.842
30724W        W95885   8.854  17.116  13.077
30725W        W95886  23.656   4.155  14.803
30726W        W95887   1.923  29.492  10.181
30727W        W95888  30.463   8.868   0.977
30728W        W95889  41.697  10.190  11.545
30729W        W95890  34.866   6.345   2.042
30730W        W95891   9.852  37.817   2.814
30731W        W95892  12.925  17.674   2.364
30732W        W95893  30.981  21.145  14.795
30733W        W95894  34.881  43.520   2.440
30734W        W95895  39.287  29.521   4.885
30735W        W95896  44.435  29.201  14.897
30736W        W95897   9.587  39.979   4.537
30737W        W95898   2.780   4.721   4.770
30738W        W95899   2.857  32.901   3.617
30739W        W95900  32.474  16.267   3.689
30740W        W95901  39.457   5.319   2.104
30741W        W95902   8.924  25.015   2.714
30742W        W95903  31.961  16.098  12.167
30743W        W95904  22.539  41.313  12.463
30744W        W95905   8.941  14.635   4.502
30745W        W95906  29.895  36.128   4.546
30746W        W95907  37.464  18.678  11.264
30747W        W95908  35.334   2.978   1.962
30748W        W95909  27.137  37.426  13.619
30749W        W95910  31.886  30.121  13.680
30750W        W95911  11.398  34.955   4.634
30751W        W95912  31.231   0.244   3.050
30752W        W95913  11.951  22.013  14.372
30753W        W95914   4.134  12.812   5.586
30754W        W95915   3.391  22.137  13.986
30755W        W95916  40.796  30.638  11.216
30756W        W95917  41.241  41.938  13.573
30757W        W95918   2.640  25.885   0.353
30758W        W95919   1.331  42.828   1.767
30759W        W95920  16.220  24.678   1.728
30760W        W95921  22.941  20.780   0.761
30761W        W95922  44.794   8.352  12.847
30762W        W95923  13.411   0.463   2.717
30763W        W95924   6.711  31.910   4.669
30764W        W95925  19.294  39.533   1.787
30765W        W95926  38.897   8.388   2.764
30766W        W95927  17.149  16.415   2.669
30767W        W95928  41.562   8.648  13.264
30768W        W95929  15.727  32.594  11.964
30769W        W95930   0.003   7.328  11.593
30770W        W95931  11.995   9.130  11.921
30771W        W95932  26.381  32.086   2.707
30772W        W95933  41.207  41.929   0.905
30773W        W95934  10.744   1.146  14.871
30774W        W95935   8.803   1.839   0.448
30775W        W95936  21.210  33.436   5.132
30776W        W95937  12.694   8.685  13.424
30777W        W95938  42.936  21.514  14.010
30778W        W95939  42.784  26.621   3.670
30779W        W95940   8.702  39.339  13.578
30780W        W95941  40.379  19.440  12.591
30781W        W95942  32.107  33.030  11.927
30782W        W95943  19.148   5.392  12.824
30783W        W95944   4.223  14.715  13.600
30784W        W95945  31.923  17.238  14.527
30785W        W95946  13.772  25.871  13.508
30786W        W95947   3.193   2.207  13.095
30787W        W95948   6.259   8.086   0.176
30788W        W95949  37.666  18.843  11.715
30789W        W95950  31.444  11.587   2.762
30790W        W95951  32.598  10.766  12.983
30791W        W95952   4.294  30.359   2.747
30792W        W95953  26.019  19.674   0.955
30793W        W95954  20.235  27.444   2.617
30794W        W95955  44.656  11.864   1.679
30795W        W95956  19.625   2.269  13.084
30796W        W95957  21.294  36.999   4.046
30797W        W95958  31.124  31.929  14.772
30798W        W95959   7.237  29.424  14.334
30799W        W95960  16.079  20.142  14.256
30800W        W95961  11.305  20.173   2.886
30801W        W95962  42.416  10.213   5.058
30802W        W95963  15.239  11.578   1.832
30803W        W95964  20.845  20.202  13.430
30804W        W95965  17.744   3.267   1.286
30805W        W95966  14.796  25.953   0.754
30806W        W95967  36.094  37.766   3.692
30807W        W95968   3.202   1.558   4.549
30808W        W95969  38.565  11.683   3.735
30809W        W95970  26.911  10.862  14.749
30810W        W95971  35.799  10.750   3.556
30811W        W95972  43.312  15.629   2.637
30812W        W95973  19.361  20.314  13.382
30813W        W95974  42.234  23.584  12.546
30814W        W95975  14.729  40.068   3.059
30815W        W95976   5.667  24.630   0.495
30816W        W95977  10.350  36.782  11.561
30817W        W95978  27.562  30.616   1.405
30818W        W95979  15.805  32.960  14.870
30819W        W95980  27.642  22.609   5.010
30820W        W95981  31.620  16.727   2.396
30821W        W95982  28.627  33.992  14.407
30822W        W95983  13.353  34.957   2.838
30823W        W95984   8.996   4.904   2.773
30824W        W95985  17.106   2.964  11.228
30825W        W95986  15.753  19.448  14.399
30826W        W95987  44.386  39.131  10.742
30827W        W95988   1.041  29.917   2.845
30828W        W95989  27.497  36.945  14.477
30829W        W95990  23.667  40.870   4.276
30830W        W95991  10.667   0.726  13.787
30831W        W95992  21.228  33.681  11.554
30832W        W95993  11.532  10.412  14.932
30833W        W95994   6.587   4.406   3.638
30834W        W95995   8.282  24.329   0.682
30835W        W95996   2.872  19.024  11.625
30836W        W95997  23.094  39.426  12.775
30837W        W95998  29.066  42.499  14.469
30838W        W95999  37.104  27.980   2.958
30839W        W96000  23.349   9.667   4.499
30840W        W96001  26.012  26.604   1.802
30841W        W96002  34.445   2.361   4.498
30842W        W96003  38.248  13.816   4.655
30843W        W96004  12.386  42.011   0.412
30844W        W96005  15.036   6.221  14.024
30845W        W96006  11.286  29.376  10.937
30846W        W96007  35.975  27.601  10.998
30847W        W96008  28.943   8.921   3.236
30848W        W96009   8.236   9.129  14.932
30849W        W96010  35.932  21.157  12.742
30850W        W96011   2.919  35.966   0.389
30851W        W96012   0.850  19.031   4.099
30852W        W96013  25.356  10.104   1.801
30853W        W96014  35.373  28.489   1.044
30854W        W96015   1.027   7.278   4.551
30855W        W96016   9.032  40.729  13.361
30856W        W96017  21.771  25.410   1.302
30857W        W96018   3.372   8.768  11.850
30858W        W96019   9.412  18.988  13.283
30859W        W96020  44.332  34.310  13.837
30860W        W96021  32.899  11.212  13.092
30861W        W96022  21.242  35.312   0.916
30862W        W96023  10.903  33.532  13.955
30863W        W96024   0.065  26.684   0.433
30864W        W96025   6.833  21.118   4.233
30865W        W96026  38.504  14.380   0.880
30866W        W96027  15.144  36.501  10.661
30867W        W96028   1.892   9.555  11.608
30868W        W96029  14.648   2.991   0.246
30869W        W96030  10.896  14.403  11.879
30870W        W96031  35.774  16.256   0.859
30871W        W96032  36.061  23.051   4.103
30872W        W96033   7.862  39.678   1.320
30873W        W96034  10.775  26.526  12.815
30874W        W96035  42.326  25.981  10.740
30875W        W96036  28.628  43.677  11.424
30876W        W96037  31.457   3.866  13.862
30877W        W96038   4.672  10.802   1.838
30878W        W96039  28.177  22.227   0.261
30879W        W96040  27.092  24.775   3.696
30880W        W96041  26.151   7.144  12.486
30881W        W96042  34.332  23.248   1.986
30882W        W96043  14.981   4.294   3.742
30883W        W96044  33.872  36.922  14.134
30884W        W96045   0.679  29.354   1.668
30885W        W96046   5.043  17.551  11.198
30886W        W96047   1.857  16.485   1.773
30887W        W96048  10.364  33.191   4.689
30888W        W96049  28.749  36.843   4.109
30889W        W96050  24.271  32.538   2.338
30890W        W96051  10.767  14.139  14.834
30891W        W96052  28.575  43.484   1.719
30892W        W96053  41.034  22.060   4.797
30893W        W96054   5.874  13.932   1.210
30894W        W96055  37.521  11.116  13.468
30895W        W96056   9.411  11.725   1.338
30896W        W96057   6.417  39.736  11.005
30897W        W96058  13.635   3.455  11.981
30898W        W96059  22.652  44.891   1.222
30899W        W96060  43.518  16.775  14.345
30900W        W96061  28.640  21.270  13.003
30901W        W96062  27.021  18.385   1.717
30902W        W96063   8.458  14.716   2.822
30903W        W96064  15.827  32.139   2.014
30904W        W96065  38.574  29.081   4.708
30905W        W96066  26.478  36.098  14.239
30906W        W96067   6.420  43.856   2.253
30907W        W96068  17.063   0.344   3.785
30908W        W96069  20.966  34.599  10.235
30909W        W96070  21.131  32.209   5.081
30910W        W96071  41.098   3.350   0.442
30911W        W96072  32.380  42.805  11.962
30912W        W96073   1.749  34.028  14.664
30913W        W96074   2.698  26.691  13.783
30914W        W96075  35.479  16.775  12.593
30915W        W96076  14.813  34.931  11.650
30916W        W96077  25.401  39.629   4.522
30917W        W96078  18.371  28.635  13.033
30918W        W96079  22.526  40.486   1.901
30919W        W96080   1.294  17.801  12.631
30920W        W96081  30.661  39.054   2.791
30921W        W96082  30.156   8.270   4.222
30922W        W96083  20.593  13.392   3.327
30923W        W96084  37.422   7.445   0.493
30924W        W96085  10.696  25.595  14.492
30925W        W96086  29.913  30.714  11.838
30926W        W96087  17.118  25.521   5.076
30927W        W96088  25.893  24.440  11.170
30928W        W96089  34.647  23.587  14.373
30929W        W96090  20.103   5.018   2.801
30930W        W96091  39.979  23.251  14.283
30931W        W96092  16.543  32.136  11.463
30932W        W96093   1.397  16.270  11.966
30933W        W96094  27.358   3.494  10.765
30934W        W96095  36.028  26.704  11.997
30935W        W96096  27.611  12.837  13.790
30936W        W96097  24.024  38.365  11.675
30937W        W96098   6.465  40.333   0.377
30938W        W96099   1.843  24.357  14.257
30939W        W96100  18.225  14.050  13.941
30940W        W96101  14.534  22.172   1.583
30941W        W96102  14.442  35.290  12.024
30942W        W96103   0.934  23.635  14.242
30943W        W96104   4.345   0.290  10.616
30944W        W96105  13.479   1.369   0.344
30945W        W96106  28.592  17.049   0.273
30946W        W96107   1.341   0.288  13.346
30947W        W96108  28.407  10.686   5.034
30948W        W96109  40.646  16.174  13.714
30949W        W96110  24.014  44.407   0.362
30950W        W96111  43.426  33.812  12.013
30951W        W96112  17.480   6.298   3.295
30952W        W96113  10.190  32.149   4.486
30953W        W96114  10.838  10.042  10.479
30954W        W96115  42.761   4.454   0.384
30955W        W96116  34.031  29.621   4.648
30956W        W96117  38.418   9.605   1.745
30957W        W96118  36.888  37.991  14.032
30958W        W96119  27.724   8.721  12.467
30959W        W96120  42.544  14.582  11.610
30960W        W96121  19.119  22.213   1.953
30961W        W96122  42.067  24.564   3.360
30962W        W96123  12.659   1.689   3.122
30963W        W96124  38.892  36.979   1.831
30964W        W96125   9.528  13.245   0.430
30965W        W96126  34.412  42.231   0.467
30966W        W96127  36.820  18.959  10.937
30967W        W96128  14.419  10.138   0.858
30968W        W96129  16.715   4.327  14.050
30969W        W96130   7.473  25.361   3.348
30970W        W96131   0.644  32.472  14.859
30971W        W96132  24.642  24.377   3.742
30972W        W96133  34.143  10.081  13.391
30973W        W96134  28.448  10.114  13.222
30974W        W96135  13.858  26.386   5.021
30975W        W96136  34.508  39.784  12.464
30976W        W96137  34.606   9.818  12.010
30977W        W96138  10.193   1.373   0.869
30978W        W96139  14.317  41.431   3.723
30979W        W96140  30.899  39.837  13.434
30980W        W96141  34.637   1.086  13.351
30981W        W96142  36.041  11.312   1.863
30982W        W96143  36.003  27.964   2.319
30983W        W96144  18.694  27.243   0.323
30984W        W96145  17.231  43.334   4.677
30985W        W96146  11.200  25.224  12.961
30986W        W96147  41.797  39.072  11.872
30987W        W96148  31.580  24.947   2.684
30988W        W96149   7.405  41.772   4.425
30989W        W96150  43.727  38.610   4.206
30990W        W96151   2.233  38.882   0.010
30991W        W96152   8.375  31.327  13.410
30992W        W96153  11.562   8.851  14.777
30993W        W96154   2.689  13.490   2.306
30994W        W96155  15.215  43.782  12.636
30995W        W96156  19.185  26.239   4.988
30996W        W96157  33.049  14.725   0.810
30997W        W96158  17.845   0.048   4.944
30998W        W96159   2.292  13.680  12.021
30999W        W96160  42.309  38.389   3.178
31000W        W96161  22.658   8.220  10.715
31001W        W96162  26.680  15.711   0.008
31002W        W96163  15.838  33.185   3.696
31003W        W96164  26.228   6.346  11.847
31004W        W96165  10.630   7.801  12.561
31005W        W96166  34.593   1.254  14.000
31006W        W96167   8.793   9.696   0.186
31007W        W96168  30.857   1.246  13.056
31008W        W96169   7.716  37.157   0.092
31009W        W96170  21.083  25.472   2.805
31010W        W96171  26.191  22.099   1.213
31011W        W96172  14.118   1.880  13.491
31012W        W96173  32.627  11.558  14.828
31013W        W96174   2.187  32.520  12.961
31014W        W96175   7.219  39.079  10.666
31015W        W96176  36.100  41.282   0.852
31016W        W96177  18.054  25.133   3.357
31017W        W96178  26.691  10.109   2.776
31018W        W96179  31.856  43.429  12.869
31019W        W96180  44.407  16.051  11.124
31020W        W96181  29.945  25.087  13.912
31021W        W96182  18.605  33.088  14.400
31022W        W96183   6.822  33.732   1.309
31023W        W96184   2.867  38.018   5.461
31024W        W96185   5.320   0.750  14.099
31025W        W96186  39.268   4.725   2.663
31026W        W96187   7.796   9.792  12.091
31027W        W96188  14.639  13.726   1.787
31028W        W96189  15.584  16.844  10.306
31029W        W96190  24.089   9.609   2.910
31030W        W96191  29.517  24.307  13.873
31031W        W96192  17.278  41.277  14.272
31032W        W96193   1.423   7.279   4.204
31033W        W96194  36.435  27.339   4.321
31034W        W96195  16.653  12.452   3.124
31035W        W96196  34.542  10.988   4.141
31036W        W96197  28.927   8.664   4.405
31037W        W96198  40.913  40.507   2.393
31038W        W96199  20.989  40.332  14.831
31039W        W96200  29.167  25.494   4.203
31040W        W96201   5.280   6.755  12.201
31041W        W96202  22.191  31.571   1.721
31042W        W96203  35.598  26.678   0.879
31043W        W96204  40.837  24.124   0.469
31044W        W96205   1.293  15.221  13.816
31045W        W96206  30.553  37.852  12.454
31046W        W96207  16.805  17.700   2.736
31047W        W96208  36.151  30.608   1.833
31048W        W96209   3.508  39.899   2.670
31049W        W96210  36.160  40.009  10.596
31050W        W96211   1.835  43.074  12.042
31051W        W96212  34.404   2.514  13.929
31052W        W96213  30.724  26.264   2.916
31053W        W96214  15.998   3.990  10.962
31054W        W96215   6.381   6.624   4.532
31055W        W96216  26.485  28.477  11.950
31056W        W96217  28.860  31.140  10.984
31057W        W96218  23.220  32.520   0.453
31058W        W96219  34.050   9.133  11.371
31059W        W96220  29.165  44.855   4.105
31060W        W96221  19.757  10.281  11.098
31061W        W96222   8.284  44.239   3.700
31062W        W96223  18.334  36.600   2.744
31063W        W96224  37.355   7.492  12.637
31064W        W96225  25.854   0.373  13.126
31065W        W96226  41.830  17.076  14.364
31066W        W96227  14.190  36.306   0.741
31067W        W96228  21.077  17.173   5.577
31068W        W96229  15.980   6.929  14.977
31069W        W96230  33.817  15.678  13.515
31070W        W96231   0.844  14.071   0.664
31071W        W96232  11.659  36.427  11.612
31072W        W96233   2.489   3.028  14.738
31073W        W96234  17.859  23.765  13.400
31074W        W96235   3.334  41.259   4.115
31075W        W96236  38.872   9.326   0.800
31076W        W96237   8.895  21.626   0.790
31077W        W96238   3.928  32.966   2.281
31078W        W96239   7.057  22.687  12.760
31079W        W96240  26.592  11.529  12.232
31080W        W96241   6.865  32.071  10.538
31081W        W96242  16.103  40.472   1.386
31082W        W96243  12.966  25.014   0.317
31083W        W96244  18.948  39.838   5.743
31084W        W96245   8.227   8.400   1.744
31085W        W96246  34.479   4.571  13.858
31086W        W96247  24.758  26.390  10.732
31087W        W96248  44.306  23.520   3.733
31088W        W96249  44.384  31.153   1.714
31089W        W96250  26.442   1.708   2.784
31090W        W96251  41.496  35.110   0.861
31091W        W96252  25.435  39.804  13.086
31092W        W96253  40.403  10.475  14.077
31093W        W96254  27.726  37.920  10.256
31094W        W96255  27.708  19.233   4.581
31095W        W96256  29.997  23.950  12.584
31096W        W96257  36.314  28.925   2.890
31097W        W96258  33.435  23.277   2.340
31098W        W96259  42.008  34.376   2.366
31099W        W96260  18.615   4.632  12.612
31100W        W96261   2.464  18.254   2.439
31101W        W96262  32.079  41.473  13.368
31102W        W96263  36.490  37.356  10.508
31103W        W96264  25.860  25.935  13.434
31104W        W96265  33.329  14.597   2.143
31105W        W96266  14.737  33.744   4.177
31106W        W96267  16.685  18.113   2.385
31107W        W96268   9.209  18.919   4.696
31108W        W96269  30.160  33.087   3.237
31109W        W96270   1.217  32.399   2.349
31110W        W96271   6.691  15.673   4.662
31111W        W96272  16.698  24.144   2.866
31112W        W96273  41.282  14.809  11.174
31113W        W96274   5.443  41.241   1.508
31114W        W96275  23.344  11.188   9.704
31115W        W96276  44.952  19.021   2.766
31116W        W96277   6.447  29.710  14.388
31117W        W96278  33.470   8.981   2.190
31118W        W96279  29.042  13.409   0.496
31119W        W96280   2.436  38.517  11.069
31120W        W96281  35.159   0.585   3.242
31121W        W96282   4.386  21.127  12.152
31122W        W96283   8.133  14.701  12.167
31123W        W96284  14.963   9.314   2.924
31124W        W96285   0.989   7.242   0.423
31125W        W96286   5.315  37.535  11.915
31126W        W96287  20.627  12.820  13.715
31127W        W96288   6.184  14.070   2.309
31128W        W96289  19.518  22.981  10.590
31129W        W96290  44.286  36.579   2.788
31130W        W96291  23.600  36.788   4.528
31131W        W96292   2.879   6.751  14.286
31132W        W96293  38.255  29.123   1.021
31133W        W96294  31.319  28.580  14.188
31134W        W96295  20.518  35.913   1.291
31135W        W96296  19.644  23.712  12.563
31136W        W96297   6.446  36.549  13.620
31137W        W96298   4.762  27.921   1.702
31138W        W96299  10.729  33.813   0.111
31139W        W96300  10.258   2.190  14.451
31140W        W96301   9.574   9.584   2.244
31141W        W96302  20.798  31.510   0.812
31142W        W96303  42.405   0.744  11.760
31143W        W96304  19.338  34.457  14.780
31144W        W96305   8.244  17.523  14.428
31145W        W96306  31.805  23.580  13.751
31146W        W96307  39.928  36.619  12.193
31147W        W96308   7.817  38.337  11.435
31148W        W96309  19.016  26.535  10.681
31149W        W96310  38.913  29.072  11.993
31150W        W96311  29.897  16.658   2.161
31151W        W96312  42.510   8.822   1.253
31152W        W96313  33.123  32.387   0.619
31153W        W96314  21.067   0.467  13.048
31154W        W96315  13.784  33.063   0.280
31155W        W96316  40.716  18.071   1.347
31156W        W96317   2.180  15.707  12.130
31157W        W96318  35.070  25.629  14.614
31158W        W96319  32.940  33.281   1.182
31159W        W96320  23.318   8.488   1.307
31160W        W96321  18.545  18.082   4.347
31161W        W96322  24.395  25.577  11.124
31162W        W96323  37.128   3.950  12.068
31163W        W96324   9.129  38.366   1.917
31164W        W96325  37.279  30.403   4.808
31165W        W96326  12.766  36.978   4.880
31166W        W96327  42.974   3.155  13.412
31167W        W96328   5.833  18.335   3.081
31168W        W96329  19.839  10.585  12.547
31169W        W96330  31.777  27.704   9.679
31170W        W96331  34.715   2.183  13.683
31171W        W96332   6.589  16.002   0.840
31172W        W96333   8.445  21.600   0.490
31173W        W96334  19.140  17.849  10.693
31174W        W96335  33.007  44.773   0.971
31175W        W96336  11.831  23.017  12.920
31176W        W96337  26.575  11.151  13.909
31177W        W96338  40.899  17.108  10.811
31178W        W96339  19.144  31.587  10.750
31179W        W96340  24.013  34.117   1.261
31180W        W96341  32.987  28.683   2.987
31181W        W96342  21.208  11.304   4.144
31182W        W96343  11.150   7.183   4.495
31183W        W96344  39.609  12.670   3.632
31184W        W96345  33.298   0.172  10.493
31185W        W96346   3.724  37.614   4.697
31186W        W96347  41.248   3.159  13.443
31187W        W96348   7.328  37.716  11.086
31188W        W96349   1.171  38.975  13.685
31189W        W96350  31.420  44.664  14.436
31190W        W96351  43.099  44.379   1.841
31191W        W96352  28.640  28.481   0.795
31192W        W96353  32.891   3.872  11.032
31193W        W96354  22.037  16.862  13.440
31194W        W96355   8.392  24.842   0.563
31195W        W96356  34.476   2.899   3.203
31196W        W96357  28.155   6.395  14.535
31197W        W96358   0.029   4.991   2.813
31198W        W96359   8.972  22.633  14.031
31199W        W96360   5.300   4.695  14.478
31200W        W96361  12.178  22.620   3.010
31201W        W96362   9.117   9.818   2.206
31202W        W96363  28.600  10.852   1.900
31203W        W96364  13.477  44.979  11.965
31204W        W96365  39.330  40.803   1.698
31205W        W96366   4.962  24.492  11.174
31206W        W96367  16.427  17.825  10.929
31207W        W96368  22.930  19.529   2.333
31208W        W96369  10.864   6.127   2.222
31209W        W96370   9.885  37.019   3.240
31210W        W96371   6.691  16.023  12.855
31211W        W96372  20.938   8.765  12.480
31212W        W96373  16.210  10.446  12.833
31213W        W96374   2.425  22.679  14.456
31214W        W96375  28.997  42.398  10.826
31215W        W96376  38.738  11.166  13.961
31216W        W96377  23.133   7.208   0.928
31217W        W96378   0.491  12.102   2.686
31218W        W96379  38.326  32.324  14.332
31219W        W96380   3.266  33.701   0.986
31220W        W96381   0.789  17.488  12.705
31221W        W96382  18.084   5.665   1.805
31222W        W96383  19.642  41.793   4.469
31223W        W96384   2.403   3.846  11.536
31224W        W96385  44.970   4.438  14.442
31225W        W96386  30.257  27.563  14.902
31226W        W96387   4.934   6.842  13.443
31227W        W96388  38.886  25.942  14.111
31228W        W96389   0.903  32.156  12.123
31229W        W96390   8.486  44.305  10.348
31230W        W96391  33.130  27.461  14.800
31231W        W96392  38.886  10.827  11.526
31232W        W96393   9.941  39.427  14.756
31233W        W96394  22.608   5.846   1.755
31234W        W96395  43.280  43.816  14.978
31235W        W96396  28.133  41.601  14.818
31236W        W96397   5.678  11.542   0.741
31237W        W96398  33.981  42.253  13.396
31238W        W96399  22.036  27.179  10.594
31239W        W96400  29.063  17.323   1.909
31240W        W96401  29.274   1.821   1.727
31241W        W96402  26.077  15.679  10.936
31242W        W96403  43.535  42.552   4.598
31243W        W96404  40.910   4.216   4.816
31244W        W96405  29.486  21.462  13.369
31245W        W96406  20.065  14.733  14.304
31246W        W96407  24.786  31.516  13.008
31247W        W96408  42.466  11.383   4.140
31248W        W96409  11.260  42.010  12.428
31249W        W96410  30.394  15.931   3.086
31250W        W96411  30.442  39.246   0.986
31251W        W96412  26.842  31.930   1.845
31252W        W96413  11.272  44.726   3.723
31253W        W96414  20.134  41.468  14.836
31254W        W96415  23.450  34.218  12.419
31255W        W96416  37.064  44.861  13.556
31256W        W96417  17.266  34.364  11.051
31257W        W96418   4.630  22.194  13.464
31258W        W96419  22.949  30.299  11.361
31259W        W96420  25.161  28.621   3.082
31260W        W96421  27.418  30.427   3.403
31261W        W96422   8.127   4.661  12.909
31262W        W96423  42.383  37.569   4.554
31263W        W96424   4.040  11.414   2.426
31264W        W96425   7.428  20.862  14.376
31265W        W96426   3.576   2.683   0.397
31266W        W96427  20.663  20.639   0.370
31267W        W96428  33.424   8.435   3.738
31268W        W96429   9.776  27.481  12.812
31269W        W96430  36.954  26.203   4.593
31270W        W96431  41.950  21.306  10.836
31271W        W96432   9.342   2.584   0.501
31272W        W96433  32.179   1.913   2.170
31273W        W96434   7.209  28.894   2.244
31274W        W96435  33.661  19.571   2.752
31275W        W96436  34.134  37.018   5.441
31276W        W96437   1.659  28.177   4.637
31277W        W96438  29.433  17.788   2.779
31278W        W96439   4.469  31.002  13.888
31279W        W96440  42.604  29.566  11.018
31280W        W96441   8.715  25.990  12.928
31281W        W96442  40.814   7.471  13.746
31282W        W96443  33.007  31.394  14.836
31283W        W96444  37.581  31.916   1.247
31284W        W96445   8.763   0.180  10.323
31285W        W96446  13.705  38.569   3.660
31286W        W96447  41.876  41.041   2.383
31287W        W96448  11.898  16.648   4.265
31288W        W96449  22.176   5.032  14.776
31289W        W96450  41.759  28.128   3.127
31290W        W96451  30.596  33.632   1.791
31291W        W96452  11.117  39.329   0.852
31292W        W96453   7.064  37.055  11.518
31293W        W96454  16.057   2.317  10.667
31294W        W96455   1.899   4.957   1.374
31295W        W96456  31.540  27.820  11.243
31296W        W96457  35.958   2.290   1.403
31297W        W96458   4.116  37.537  11.674
31298W        W96459  24.293  23.651  12.862
31299W        W96460  44.034  14.798  12.035
31300W        W96461  18.114   5.130  13.466
31301W        W96462  10.716   4.342  10.435
31302W        W96463  18.317  35.128  11.903
31303W        W96464  44.427  17.772   2.641
31304W        W96465  29.260  37.686  14.014
31305W        W96466  24.360  16.879  11.255
31306W        W96467  34.097  29.368  11.857
31307W        W96468  35.193  17.727   0.308
31308W        W96469  30.000   2.610  11.959
31309W        W96470  18.160  28.912  13.949
31310W        W96471   1.328  12.855  12.493
31311W        W96472   9.740  23.213  14.197
31312W        W96473  22.562  38.525   3.691
31313W        W96474   9.338  35.387   2.375
31314W        W96475  39.964  19.303  13.975
31315W        W96476  28.722  28.092   2.203
31316W        W96477   3.595  10.719   2.433
31317W        W96478   6.761  17.154  13.352
31318W        W96479  26.560  12.033   3.223
31319W        W96480  28.571   6.115  10.578
31320W        W96481   3.626  25.532   4.583
31321W        W96482  36.972  29.903   0.665
31322W        W96483  37.035  28.171  12.470
31323W        W96484   6.044  24.117  10.659
31324W        W96485  26.197  35.516   0.413
31325W        W96486  10.059   1.301  14.482
31326W        W96487  41.393  41.154  13.978
31327W        W96488  19.112  33.772   2.209
31328W        W96489   5.664  18.747   3.392
31329W        W96490   3.953  21.284  11.375
31330W        W96491   6.733  10.152   2.206
31331W        W96492   0.176  18.877   3.591
31332W        W96493  17.524  14.795   1.180
31333W        W96494   0.392  24.684  12.595
31334W        W96495   9.153  27.802  11.569
31335W        W96496  36.833  37.632  13.310
31336W        W96497  24.557  10.914  13.533
31337W        W96498   3.718  40.692   3.185
31338W        W96499  42.562  14.163   1.871
31339W        W96500  42.319  14.519   4.377
31340W        W96501  24.736  32.409  12.040
31341W        W96502  29.510   6.376   2.918
31342W        W96503  11.798  25.818   1.471
31343W        W96504  15.864  24.982  12.477
31344W        W96505  41.600  21.987  14.743
31345W        W96506   8.974  40.213   1.050
31346W        W96507   5.216  39.011   1.227
31347W        W96508  35.629  16.779   0.308
31348W        W96509  25.504  15.007   2.835
31349W        W96510  23.017  23.938  12.529
31350W        W96511  17.161  34.737  11.415
31351W        W96512  10.584  40.783   1.416
31352W        W96513  30.181   1.711   0.167
31353W        W96514  34.586  31.831  14.538
31354W        W96515  32.465  31.041   1.137
31355W        W96516  28.457   1.863  11.064
31356W        W96517  28.411   3.890  13.372
31357W        W96518   5.190  16.571  12.250
31358W        W96519  32.475   4.323   3.681
31359W        W96520  11.486   0.752   5.072
31360W        W96521  12.423   7.702   2.236
31361W        W96522   8.242  20.636  13.001
31362W        W96523  32.999  27.916   3.558
31363W        W96524  15.301  32.571   4.069
31364W        W96525  36.364  36.878  13.796
31365W        W96526  39.579   4.999   0.503
31366W        W96527  19.678  28.935   4.688
31367W        W96528  28.179  25.608  14.277
31368W        W96529  36.742  10.075   0.980
31369W        W96530  38.303  16.349  14.958
31370W        W96531  43.183   9.067  14.916
31371W        W96532  15.843  37.317   0.747
31372W        W96533  34.168  35.059   0.519
31373W        W96534  39.359  11.254   3.878
31374W        W96535   6.193  22.654  10.828
31375W        W96536  28.128  28.653   0.008
31376W        W96537  33.541  20.696  10.254
31377W        W96538  12.135  24.180  11.912
31378W        W96539  36.408   6.837  12.996
31379W        W96540   1.350  31.352  14.179
31380W        W96541  18.208  13.339  14.445
31381W        W96542  11.177  14.038  11.620
31382W        W96543  30.984  34.670   2.826
31383W        W96544  11.272  35.328   1.003
31384W        W96545  37.061   7.884  14.944
31385W        W96546  19.116   2.225   2.021
31386W        W96547  29.753  20.494   1.852
31387W        W96548  39.291  41.033   4.554
31388W        W96549  28.508   1.345  14.110
31389W        W96550   8.313  31.146  10.741
31390W        W96551  30.753  34.138   1.727
31391W        W96552  12.585   8.081  11.566
31392W        W96553   6.330  38.282  13.035
31393W        W96554  38.866   1.102  12.477
31394W        W96555  14.829  18.203  11.522
31395W        W96556  14.850  21.291  11.670
31396W        W96557  10.714  26.487  14.680
31397W        W96558  37.470  38.148  13.253
31398W        W96559  43.662   5.164   1.798
31399W        W96560  32.133  24.371   2.281
31400W        W96561  26.147  15.370   3.934
31401W        W96562  15.263  11.645   3.823
31402W        W96563   3.899   3.891  14.266
31403W        W96564  32.867  36.464   1.688
31404W        W96565  43.783  15.438  13.127
31405W        W96566  42.486  32.893  12.409
31406W        W96567  14.724  18.558  13.033
31407W        W96568  29.074  36.708   4.828
31408W        W96569  34.525   6.030   4.091
31409W        W96570   0.772   8.653   1.212
31410W        W96571  23.586  17.842   3.846
31411W        W96572  25.182  23.225  12.473
31412W        W96573  43.884  26.518   2.731
31413W        W96574   2.411   1.913   3.552
31414W        W96575  38.922  13.314   3.849
31415W        W96576   3.862  40.139   0.979
31416W        W96577  21.177  40.390   3.797
31417W        W96578  34.034  31.183   4.896
31418W        W96579  12.242  31.805   3.638
31419W        W96580  19.171  26.121  11.938
31420W        W96581  13.046  21.592  13.462
31421W        W96582   2.391  26.054   3.970
31422W        W96583  20.225  28.637   2.394
31423W        W96584   2.412  18.247   2.945
31424W        W96585   6.233  32.082   3.677
31425W        W96586  14.872  33.651  14.735
31426W        W96587  15.413  42.511   1.145
31427W        W96588  41.695  18.733  12.992
31428W        W96589  25.078   2.413  12.508
31429W        W96590  10.690  34.500   2.014
31430W        W96591  18.315  24.654  12.620
31431W        W96592   5.891  14.347  13.075
31432W        W96593  25.984  40.130   0.021
31433W        W96594  25.708  32.966  10.777
31434W        W96595  31.578  14.368  11.943
31435W        W96596  40.294   1.467   2.850
31436W        W96597  25.114  15.945  14.315
31437W        W96598   1.820   4.603   4.628
31438W        W96599  43.329  31.913  11.089
31439W        W96600  29.013  37.409   0.511
31440W        W96601  25.020  11.889   2.219
31441W        W96602  36.081  28.588  11.530
31442W        W96603  26.432  19.719  12.628
31443W        W96604  13.115   3.476   4.618
31444W        W96605   5.408  24.559  14.932
31445W        W96606   0.374  16.064  13.346
31446W        W96607  27.044  24.982  11.453
31447W        W96608  15.670  14.809  12.332
31448W        W96609   1.178  24.140   3.241
31449W        W96610  40.117  39.405  11.641
31450W        W96611  15.180  26.596  13.258
31451W        W96612  41.030   2.506  13.172
31452W        W96613  20.717  10.995  13.784
31453W        W96614  24.622  38.383   0.262
31454W        W96615  41.876  27.900  11.824
31455W        W96616  13.796  38.157   2.693
31456W        W96617  23.229  30.985   4.357
31457W        W96618  26.709  33.584   4.606
31458W        W96619  11.782  28.405  14.604
31459W        W96620  39.511   3.447   0.920
31460W        W96621   7.666  30.441  10.302
31461W        W96622  23.070   0.816   3.712
31462W        W96623  22.220  14.643   0.418
31463W        W96624   2.116  43.121  11.579
31464W        W96625  43.255   2.815  11.130
31465W        W96626  34.507   8.240   3.643
31466W        W96627  17.470  10.351  13.092
31467W        W96628  38.258  16.260   4.520
31468W        W96629   4.717  12.309  11.362
31469W        W96630  42.965  28.067  10.715
31470W        W96631  42.344  25.033   2.592
31471W        W96632  41.976  26.055  11.588
31472W        W96633  41.359  20.281  12.483
31473W        W96634  19.545   2.453  13.548
31474W        W96635  23.758  38.030  14.374
31475W        W96636  15.345   3.660  12.234
31476W        W96637  13.284   7.345   1.406
31477W        W96638  13.696  41.331  10.202
31478W        W96639  36.951  19.904   1.700
31479W        W96640  22.110   3.455   2.716
31480W        W96641  34.568  18.773  14.280
31481W        W96642  32.892   3.846  12.403
31482W        W96643   4.776   4.289   3.816
31483W        W96644  40.400  43.708   1.249
31484W        W96645  36.583   6.420  13.971
31485W        W96646  22.176   5.949  11.566
31486W        W96647   2.871  41.818   3.764
31487W        W96648  15.293  31.280   2.853
31488W        W96649  30.425  17.405  14.461
31489W        W96650   7.877  32.567   0.376
31490W        W96651   0.560  41.374  11.582
31491W        W96652  37.466  39.773   1.566
31492W        W96653  24.649  19.067  12.581
31493W        W96654  19.212  24.225   2.362
31494W        W96655  22.203  16.819   2.753
31495W        W96656  19.465  43.529   0.436
31496W        W96657   9.553  44.330   2.247
31497W        W96658   7.642   1.094   1.316
31498W        W96659  16.548   8.325   4.239
31499W        W96660  41.103   2.604  12.638
31500W        W96661  42.794  29.915   3.520
31501W        W96662   7.873   8.809  12.384
31502W        W96663  11.687  28.523  11.983
31503W        W96664  12.307   1.305   0.769
31504W        W96665  44.927  18.263  12.112
31505W        W96666  26.573   9.215   3.126
31506W        W96667  12.405  13.801   3.096
31507W        W96668  27.534  39.938  13.520
31508W        W96669   1.487  40.808  13.153
31509W        W96670  13.762  10.770   1.354
31510W        W96671   7.302  30.689  14.371
31511W        W96672  13.668  33.991  14.510
31512W        W96673  34.447  27.645   4.605
31513W        W96674   7.232  32.906   1.323
31514W        W96675  37.140  11.086  10.730
31515W        W96676   9.246  27.089   1.987
31516W        W96677  35.935  22.687   3.190
31517W        W96678  25.385  38.819   3.577
31518W        W96679  13.026  11.856  14.555
31519W        W96680  17.855   5.615  14.203
31520W        W96681  33.184   2.721  12.913
31521W        W96682  43.457  28.700  14.834
31522W        W96683  12.889   2.119  12.075
31523W        W96684   5.949  18.971  11.584
31524W        W96685  42.811  32.458  11.709
31525W        W96686   3.730  39.482   1.798
31526W        W96687   5.761  34.645  14.447
31527W        W96688  33.633  43.636  14.502
31528W        W96689   2.975   7.040  12.000
31529W        W96690  12.104  23.972   1.389
31530W        W96691  42.062  32.940  12.116
31531W        W96692   0.893  11.884  11.157
31532W        W96693  38.134  26.697   2.280
31533W        W96694  34.846   0.321   4.033
31534W        W96695  12.072   3.540  11.067
31535W        W96696  10.223  35.910  10.256
31536W        W96697  30.056  20.564  14.030
31537W        W96698   4.651  15.686  12.068
31538W        W96699  26.255  19.720   4.607
31539W        W96700  39.023  35.621   2.392
31540W        W96701  33.096  28.688  14.839
31541W        W96702  41.324  12.363  13.552
31542W        W96703  12.600   3.833   1.244
31543W        W96704   7.847  12.975  12.546
31544W        W96705  28.127  12.215  10.728
31545W        W96706  15.201  38.139  13.404
31546W        W96707  13.634  33.202  13.970
31547W        W96708   8.211  39.237   1.785
31548W        W96709   1.648  16.192  10.218
31549W        W96710   9.722  37.100   2.338
31550W        W96711  33.874  13.722   4.914
31551W        W96712  16.362  39.421  13.895
31552W        W96713  15.207  15.838   4.825
31553W        W96714  16.355  39.480  14.422
31554W        W96715   1.826   5.249  12.934
31555W        W96716  28.101  10.403   4.697
31556W        W96717  24.510  35.476   2.640
31557W        W96718   1.401  37.375   2.078
31558W        W96719  13.781   1.665   1.300
31559W        W96720  19.713  38.355  13.502
31560W        W96721  44.899   1.060  13.499
31561W        W96722   8.122  24.387  13.391
31562W        W96723   8.691   7.620  12.855
31563W        W96724  35.747  39.141   1.010
31564W        W96725  14.700  15.831   2.701
31565W        W96726  20.721  14.218   0.483
31566W        W96727  28.676  19.662   4.613
31567W        W96728  13.368  42.365  12.198
31568W        W96729   8.737  20.748  13.318
31569W        W96730   8.813  28.147   0.316
31570W        W96731  26.041   9.348  13.781
31571W        W96732  20.058  29.176  13.307
31572W        W96733   0.774  17.470   4.247
31573W        W96734  44.584  26.872  12.026
31574W        W96735  26.413  29.521  14.346
31575W        W96736  14.730  19.018   0.343
31576W        W96737   7.287  21.601  11.436
31577W        W96738  28.329  42.992   3.167
31578W        W96739  36.124  35.933   1.953
31579W        W96740  28.581  35.036  12.622
31580W        W96741  26.850   1.425   3.950
31581W        W96742  36.963  21.464   3.871
31582W        W96743  23.167  33.446   3.407
31583W        W96744  30.501  28.580  12.360
31584W        W96745  41.390  42.610  14.779
31585W        W96746  17.164  10.215  11.351
31586W        W96747  21.085   2.985   4.316
31587W        W96748   3.863  27.640  10.683
31588W        W96749   8.873  16.205  13.398
31589W        W96750  22.036   6.825   4.697
31590W        W96751  20.126  34.059   4.660
31591W        W96752  10.132  29.477   1.425
31592W        W96753  32.091  14.579   4.926
31593W        W96754  29.526  41.017   0.054
31594W        W96755  21.634  17.250  12.837
31595W        W96756  18.523   5.246   1.675
31596W        W96757  12.166   5.737   0.998
31597W        W96758  25.550   6.926   2.293
31598W        W96759  39.937  32.426  13.852
31599W        W96760   5.144   5.543   3.149
31600W        W96761  37.387  30.445   4.299
31601W        W96762   8.185  13.892  11.613
31602W        W96763  27.386  21.704  14.833
31603W        W96764  26.611  20.830   4.221
31604W        W96765  26.191  35.943   4.066
31605W        W96766  15.136  37.865  11.885
31606W        W96767  38.666   6.078   1.170
31607W        W96768  31.090  17.016  14.796
31608W        W96769  23.237  36.086  14.940
31609W        W96770  24.483  26.506  11.139
31610W        W96771  26.541  20.358  14.417
31611W        W96772   9.788  35.217  11.227
31612W        W96773  31.521  29.526  10.456
31613W        W96774   0.818  18.429  14.555
31614W        W96775  21.771  39.975  10.628
31615W        W96776  41.804  18.319   2.206
31616W        W96777  14.282   1.456   1.402
31617W        W96778  16.219  42.805  12.870
31618W        W96779   2.187  19.076  14.396
31619W        W96780   1.984  14.919  11.699
31620W        W96781  12.213  19.726   0.906
31621W        W96782   2.446  33.545   2.774
31622W        W96783  21.158   0.451  11.581
31623W        W96784   7.284  14.362  11.547
31624W        W96785   5.718  11.775  11.538
31625W        W96786  12.327  28.358   4.076
31626W        W96787  18.731  33.327   2.955
31627W        W96788  40.995  44.529   2.411
31628W        W96789  36.298  20.011  14.823
31629W        W96790  38.075  42.052  13.120
31630W        W96791  24.072  14.719   3.480
31631W        W96792   9.330  37.280  12.917
31632W        W96793  26.406  15.283  11.993
31633W        W96794  23.731  24.143   0.435
31634W        W96795  43.876  22.351   3.501
31635W        W96796   8.230  26.482   1.563
31636W        W96797  21.666  31.894  10.774
31637W        W96798  19.585  32.410   3.147
31638W        W96799  20.454   3.442  11.730
31639W        W96800   2.245   7.238  10.792
31640W        W96801   4.380  39.333   0.938
31641W        W96802   8.313  27.865   2.820
31642W        W96803   7.281  13.247   1.235
31643W        W96804   6.939  18.922   4.541
31644W        W96805  12.522   8.330   0.384
31645W        W96806   3.479  32.476  13.588
31646W        W96807  26.074  37.044  13.751
31647W        W96808  22.488  28.153   3.857
31648W        W96809  11.625   4.686   2.186
31649W        W96810  16.757   5.577  11.552
31650W        W96811  17.616  32.424   2.645
31651W        W96812  26.049  40.706   0.416
31652W        W96813   8.458  25.464   3.562
31653W        W96814  28.099  42.395  14.425
31654W        W96815  39.046   0.315   2.183
31655W        W96816  11.705  11.782   1.380
31656W        W96817  38.871   7.825   1.834
31657W        W96818  29.433  40.404   4.604
31658W        W96819  27.456  39.706   2.793
31659W        W96820   7.006  40.997  11.119
31660W        W96821  38.897  21.564  14.971
31661W        W96822  42.212   9.489   3.282
31662W        W96823   0.569  20.616  13.857
31663W        W96824   5.800  19.506  12.184
31664W        W96825   2.604  21.519  11.805
31665W        W96826  43.691  37.450   0.925
31666W        W96827  27.517  43.309  13.289
31667W        W96828  16.762  44.047   3.249
31668W        W96829   2.511  23.002  14.050
31669W        W96830  29.574  15.076   4.653
31670W        W96831  44.523  37.820   4.494
31671W        W96832  40.983  29.067  14.045
31672W        W96833  30.904  37.121   3.413
31673W        W96834   4.286  15.609  13.903
31674W        W96835  42.178  20.588   4.068
31675W        W96836  23.182  20.380   2.035
31676W        W96837  11.020  36.241  13.032
31677W        W96838  25.112  28.034   1.498
31678W        W96839   1.855  27.616  12.187
31679W        W96840  23.146  44.738  12.963
31680W        W96841  36.927   2.159   2.909
31681W        W96842  43.070   8.393  13.480
31682W        W96843  31.353  32.869   4.509
31683W        W96844  22.008  23.065   2.818
31684W        W96845  14.221   4.610   5.029
31685W        W96846  38.975  26.468  12.444
31686W        W96847   1.858   3.818   4.175
31687W        W96848  30.426  40.653  11.566
31688W        W96849  34.474   1.529  13.545
31689W        W96850  39.372  34.780   3.702
31690W        W96851  11.742   7.168   3.311
31691W        W96852  43.538  38.026  11.129
31692W        W96853   9.882  17.181  14.912
31693W        W96854   5.358   0.766  13.071
31694W        W96855  25.801  10.147  10.477
31695W        W96856   0.557  11.513  14.083
31696W        W96857  31.142  26.482   2.431
31697W        W96858  43.531   5.842  13.966
31698W        W96859  22.769  20.538   0.335
31699W        W96860  32.583   3.051  14.950
31700W        W96861  42.714   5.838   4.598
31701W        W96862  21.511  12.310  12.385
31702W        W96863   6.888  42.667   0.131
31703W        W96864   9.100  43.822   2.799
31704W        W96865  29.754   2.325  14.389
31705W        W96866  30.543  24.742   0.708
31706W        W96867  36.384  40.512   0.567
31707W        W96868  32.642  34.041   3.204
31708W        W96869  11.417   6.294  14.962
31709W        W96870  31.388  30.362   4.171
31710W        W96871  40.392  37.996   4.542
31711W        W96872  19.193  12.352  11.993
31712W        W96873   8.822  29.969   3.313
31713W        W96874  36.854  21.380   0.913
31714W        W96875  13.659   9.718  11.084
31715W        W96876   6.279  41.604   3.102
31716W        W96877   3.852  40.314   0.363
31717W        W96878  32.399  38.073  12.435
31718W        W96879  35.295   1.439   1.865
31719W        W96880  14.060  26.591   3.844
31720W        W96881  36.719  42.339   1.477
31721W        W96882   0.005  39.479  14.759
31722W        W96883  34.050  39.050  13.872
31723W        W96884  31.317   7.524  10.902
31724W        W96885  38.320  18.546  12.961
31725W        W96886   8.311  44.012   0.372
31726W        W96887   0.025  34.119   3.498
31727W        W96888  13.094   8.676   4.690
31728W        W96889  10.751   1.754  14.876
31729W        W96890  13.548  16.043  14.628
31730W        W96891  44.069  31.138   0.302
31731W        W96892  44.012  44.862  11.906
31732W        W96893  33.406  36.776   2.881
31733W        W96894  29.827  23.263   2.268
31734W        W96895   6.222   4.697   3.407
31735W        W96896  36.931  12.130   0.852
31736W        W96897  39.438  32.068   4.490
31737W        W96898  22.771   6.854  11.031
31738W        W96899   4.514  26.256  13.492
31739W        W96900  18.676  42.874  12.572
31740W        W96901  12.428  16.506  14.354
31741W        W96902  24.154  42.544  13.347
31742W        W96903   5.231  15.209   0.260
31743W        W96904  35.977  14.157   3.837
31744W        W96905  35.574   4.250   0.864
31745W        W96906  41.303  15.418   4.471
31746W        W96907   3.966  31.609   1.134
31747W        W96908   7.986  39.385  14.891
31748W        W96909  15.581  21.640  12.105
31749W        W96910   9.211  15.070  14.943
31750W        W96911  15.272   2.170   0.265
31751W        W96912  18.504  44.761  11.175
31752W        W96913   9.251   4.415  10.804
31753W        W96914  24.837  31.414   0.719
31754W        W96915  19.439  18.762   0.930
31755W        W96916  10.210   9.623  12.479
31756W        W96917  41.954   9.233   3.796
31757W        W96918  28.538  27.422  11.976
31758W        W96919  33.035  11.879  14.844
31759W        W96920  28.227  31.192  13.362
31760W        W96921  30.524   8.670  11.652
31761W        W96922  25.031  38.532   2.355
31762W        W96923  12.249  14.279  11.536
31763W        W96924  19.774   5.662   1.158
31764W        W96925  34.025   4.263  13.772
31765W        W96926   8.930   0.617  14.042
31766W        W96927   9.947  34.354   1.703
31767W        W96928  21.742   2.095  14.912
31768W        W96929  34.556  16.993  11.063
31769W        W96930  41.437  26.191  12.523
31770W        W96931  38.110  34.441  11.646
31771W        W96932  43.883   6.110  11.972
31772W        W96933  23.315  25.301   3.777
31773W        W96934  37.776  23.490   0.398
31774W        W96935  21.331  17.677   1.842
31775W        W96936  10.546  12.836   3.243
31776W        W96937  10.416  42.429   0.546
31777W        W96938  22.794  10.147   3.971
31778W        W96939  40.139  14.573   1.998
31779W        W96940  16.560  27.888   3.718
31780W        W96941  18.650   1.030  10.569
31781W        W96942  41.603  39.373   0.099
31782W        W96943   4.417  12.052   3.648
31783W        W96944   5.438  35.413   3.887
31784W        W96945  14.896  38.354   2.901
31785W        W96946  17.827  22.554   3.891
31786W        W96947  17.974  20.255  13.892
31787W        W96948  38.387  26.634   0.270
31788W        W96949  29.162  27.459   2.956
31789W        W96950  17.635  18.493   2.103
31790W        W96951  28.912  18.691   3.817
31791W        W96952  19.581   9.729   0.794
31792W        W96953   0.992   0.655  14.537
31793W        W96954  22.236  17.608  13.946
31794W        W96955   4.952  33.549   5.082
31795W        W96956  44.001  17.454  13.481
31796W        W96957  14.972  28.063  14.371
31797W        W96958  19.678  34.906   1.670
31798W        W96959   2.177  24.753   2.159
31799W        W96960   0.310   8.149  14.619
31800W        W96961  20.939  21.103  12.379
31801W        W96962  22.127  38.040  13.502
31802W        W96963  21.145  17.823   4.966
31803W        W96964   9.906  40.901   3.359
31804W        W96965   6.985  41.711   1.716
31805W        W96966  15.262  31.578   4.070
31806W        W96967   1.301  30.813  11.545
31807W        W96968  37.233  23.858   4.081
31808W        W96969  39.684  23.692   3.237
31809W        W96970   6.663  26.701   3.643
31810W        W96971  22.994   3.874  11.095
31811W        W96972  43.674  44.535  12.564
31812W        W96973  40.995  27.052  14.271
31813W        W96974   2.836  43.406  14.146
31814W        W96975  42.840  36.820   0.882
31815W        W96976   7.658  30.583  10.843
31816W        W96977  24.858  19.271   3.198
31817W        W96978   4.844   0.945  12.353
31818W        W96979   6.459  19.105  11.530
31819W        W96980  40.043  44.435   4.398
31820W        W96981  43.245  33.489  11.044
31821W        W96982  15.272  44.365   3.321
31822W        W96983  30.495  21.641   5.114
31823W        W96984   5.377  38.857   3.615
31824W        W96985  27.521  28.565   2.352
31825W        W96986  34.019  34.983   2.645
31826W        W96987  10.673  29.467   4.427
31827W        W96988  20.336   6.404  11.548
31828W        W96989  36.631  29.022  10.731
31829W        W96990   7.402   5.715  14.831
31830W        W96991  19.722   2.693   4.883
31831W        W96992  36.582  39.040   4.538
31832W        W96993   2.341   8.304  11.783
31833W        W96994   6.236  43.527  10.374
31834W        W96995  19.686   2.777   4.355
31835W        W96996   4.480  20.383  12.942
31836W        W96997  10.434  16.183   0.056
31837W        W96998   8.594  10.137  14.025
31838W        W96999  10.486  33.601  13.159
31839W        W97000  41.505  29.366  12.000
31840W        W97001  14.735   0.451   3.918
31841W        W97002   0.600  29.707   2.580
31842W        W97003  33.694  42.824   2.277
31843W        W97004  37.695  16.099   3.661
31844W        W97005  20.790  30.792  13.638
31845W        W97006  27.624  32.073  14.036
31846W        W97007  11.594  16.655   1.468
31847W        W97008   7.312  29.976   9.971
31848W        W97009  19.789  32.925  13.895
31849W        W97010  27.749  22.723   3.745
31850W        W97011  41.085  27.536  14.130
31851W        W97012  40.358  25.509  12.614
31852W        W97013  41.992   9.739   3.894
31853W        W97014  29.449  15.638   3.270
31854W        W97015  20.711  27.042   1.303
31855W        W97016   2.735  22.725   1.901
31856W        W97017  26.345  22.512  12.334
31857W        W97018  29.242  29.030  14.334
31858W        W97019  41.046  17.282   3.723
31859W        W97020  17.699  21.233  12.621
31860W        W97021  16.196  32.055   3.257
31861W        W97022   9.046  31.395  14.056
31862W        W97023  23.069  22.201   2.224
31863W        W97024   7.748  33.874  14.034
31864W        W97025  38.400  27.078  11.130
31865W        W97026  26.710  37.486  12.390
31866W        W97027  15.812   8.769   2.870
31867W        W97028  20.248  39.077  10.783
31868W        W97029  23.862   9.652  13.315
31869W        W97030  39.525  13.109  14.949
31870W        W97031  36.874   0.828   2.826
31871W        W97032  31.139  12.574  10.976
31872W        W97033  21.285  20.289   0.784
31873W        W97034   9.031  32.488   0.209
31874W        W97035  16.121  31.851  11.653
31875W        W97036  37.601   2.230  10.614
31876W        W97037  14.286  10.218  13.966
31877W        W97038   2.267  31.132  14.656
31878W        W97039  20.243  38.915  14.496
31879W        W97040  11.305  31.689   2.027
31880W        W97041   3.372  29.608   0.914
31881W        W97042   8.801   7.281  10.303
31882W        W97043  32.783  24.716   1.297
31883W        W97044  22.622  18.552   4.916
31884W        W97045  23.176  33.519   1.970
31885W        W97046  27.669  10.012   2.354
31886W        W97047  37.053  31.988   2.120
31887W        W97048  41.260   5.462  11.568
31888W        W97049   2.382  38.847  11.635
31889W        W97050  43.496  43.373   4.617
31890W        W97051   5.868  34.132  14.417
31891W        W97052   3.300  12.897  14.098
31892W        W97053  25.600  42.842  13.758
31893W        W97054  27.073  29.662   0.717
31894W        W97055  32.169   3.806  10.341
31895W        W97056  33.322  10.374  12.015
31896W        W97057  20.600  36.485   2.477
31897W        W97058  19.129  20.663  12.041
31898W        W97059  19.698   3.669   2.672
31899W        W97060  25.013  15.259  12.805
31900W        W97061  30.841  34.232  11.998
31901W        W97062  38.181  21.949  12.683
31902W        W97063  29.936  44.669   2.690
31903W        W97064  35.856  34.405   1.898
31904W        W97065  23.165  41.787  11.977
31905W        W97066   4.210  29.197  13.601
31906W        W97067  11.880  44.366  13.624
31907W        W97068  40.875  35.454   1.265
31908W        W97069   9.894   7.059  10.974
31909W        W97070  38.011  34.912  14.027
31910W        W97071  16.342  15.213  13.036
31911W        W97072  13.848  36.683   4.235
31912W        W97073  18.272  19.569  13.376
31913W        W97074  36.741   8.904  12.906
31914W        W97075  29.534  11.865  11.154
31915W        W97076  14.185  39.555  12.075
31916W        W97077   4.733  24.458  10.207
31917W        W97078  16.690  43.395   4.688
31918W        W97079  31.351  31.727  13.544
31919W        W97080  23.811   8.078  12.828
31920W        W97081   7.792  31.671   3.979
31921W        W97082  26.831  28.202   1.763
31922W        W97083  36.340  21.595   0.246
31923W        W97084  43.108   8.720   0.817
31924W        W97085  15.649  34.037  11.945
31925W        W97086   1.835  12.498   2.736
31926W        W97087  33.582  14.148   2.900
31927W        W97088   3.564  14.611  10.660
31928W        W97089   1.485  25.108   1.946
31929W        W97090  43.479   0.357   0.066
31930W        W97091  29.411   4.815   0.429
31931W        W97092  27.452   3.344   4.598
31932W        W97093   2.495  36.343  13.510
31933W        W97094  28.969  33.900  14.790
31934W        W97095   3.477  16.162   4.140
31935W        W97096   2.280   7.965   0.961
31936W        W97097   8.583  32.081  12.976
31937W        W97098  32.622  33.566   3.442
31938W        W97099  28.308  10.876  11.983
31939W        W97100  20.500   2.001   4.634
31940W        W97101   1.638   6.141  11.414
31941W        W97102  33.637  10.375   0.290
31942W        W97103  37.434  17.649  12.103
31943W        W97104   6.186  21.633  10.714
31944W        W97105  42.072   5.327   1.373
31945W        W97106  12.601  32.422  12.100
31946W        W97107  32.460  14.296   4.445
31947W        W97108  28.566  38.079  10.825
31948W        W97109  11.092  15.349  11.905
31949W        W97110  10.376  34.944  11.357
31950W        W97111  29.220   0.999   2.163
31951W        W97112  15.434  39.781  12.627
31952W        W97113  29.077   9.695  11.776
31953W        W97114  24.587   1.377  14.388
31954W        W97115  43.729  10.138   3.853
31955W        W97116  13.064   8.650   2.594
31956W        W97117  23.632   8.099   0.631
31957W        W97118  41.507  16.172  13.393
31958W        W97119   3.935  38.482   0.799
31959W        W97120  41.757   7.978   4.449
31960W        W97121  40.839  10.633  12.926
31961W        W97122  32.471  20.898  12.870
31962W        W97123  13.128  37.386   4.240
31963W        W97124  34.998  35.605   2.259
31964W        W97125  20.863   5.902  11.929
31965W        W97126  43.362  17.681   2.108
31966W        W97127  13.394  29.144  14.347
31967W        W97128  10.935   0.747  12.916
31968W        W97129  41.995   3.946  14.031
31969W        W97130  18.189  22.285   3.127
31970W        W97131  33.929  12.089  11.604
31971W        W97132  39.893  19.137  13.449
31972W        W97133  22.814  21.046   1.423
31973W        W97134  22.155   1.831   0.421
31974W        W97135  31.131  25.195  13.524
31975W        W97136  16.393  32.109  11.984
31976W        W97137  25.710  26.854   9.930
31977W        W97138  39.929  26.659   4.166
31978W        W97139   0.376   6.136   3.180
31979W        W97140   5.458  37.197   0.882
31980W        W97141  24.679  33.923  10.448
31981W        W97142  27.900  38.670   2.567
31982W        W97143  21.061  29.962   3.351
31983W        W97144  35.353  39.834   9.816
31984W        W97145  24.407  28.070  11.466
31985W        W97146   9.863   9.229  10.667
31986W        W97147   5.654   4.742  12.908
31987W        W97148   4.409   7.452   0.429
31988W        W97149  34.341  40.373   2.638
31989W        W97150  34.448  27.568  11.192
31990W        W97151   4.193  20.808  12.907
31991W        W97152  16.346  42.822  10.344
31992W        W97153  22.056   4.762  13.499
31993W        W97154  15.659  37.452  14.200
31994W        W97155  25.617  37.396  11.553
31995W        W97156   8.187   8.616  14.985
31996W        W97157  42.758  14.877  12.591
31997W        W97158  44.406  21.911  14.311
31998W        W97159  32.830  32.933  14.840
31999W        W97160  16.615  24.046   4.823
32000W        W97161  30.853  26.515  11.548
32001W        W97162  35.298  34.140  12.495
32002W        W97163  40.005  28.922  13.947
32003W        W97164  34.844  35.093  14.918
32004W        W97165  41.075  12.595   4.383
32005W        W97166  43.046  13.156  13.809
32006W        W97167  16.718  24.807  12.730
32007W        W97168  11.881   3.797   0.979
32008W        W97169  18.439  35.311  11.381
32009W        W97170   4.778  21.543   1.025
32010W        W97171   2.537  10.514   3.145
32011W        W97172  25.117  27.521  13.324
32012W        W97173   9.711  22.871   0.910
32013W        W97174   4.938  24.257  12.818
32014W        W97175  16.838  14.727  12.930
32015W        W97176  22.033  31.383  13.425
32016W        W97177   7.696  42.984  12.815
32017W        W97178  12.623  14.826  10.967
32018W        W97179  43.192  11.034  11.441
32019W        W97180  26.329  42.935   9.610
32020W        W97181  25.240  28.461  11.563
32021W        W97182  38.116  26.124   0.446
32022W        W97183  33.422  28.049   1.316
32023W        W97184  19.107  28.735   0.466
32024W        W97185  44.754   2.487  13.416
32025W        W97186  37.458   1.225  12.574
32026W        W97187  34.069   6.403   1.752
32027W        W97188   2.143  21.178  13.777
32028W        W97189   3.187  25.121   2.782
32029W        W97190  42.967   3.964   0.422
32030W        W97191  39.284  33.717   3.156
32031W        W97192  20.946   4.206  12.959
32032W        W97193   9.373  18.322  14.279
32033W        W97194  34.685  42.822   4.127
32034W        W97195   2.430  18.061  13.933
32035W        W97196  23.015   8.611   0.675
32036W        W97197  34.600  11.455  14.556
32037W        W97198  20.255   5.259   2.277
32038W        W97199  44.735  43.842   2.695
32039W        W97200   7.997  40.759   2.260
32040W        W97201  42.610  35.058  14.983
32041W        W97202   4.287  40.926  11.262
32042W        W97203  10.907  19.092   4.090
32043W        W97204  37.622  26.893   1.496
32044W        W97205  35.069   4.128  12.006
32045W        W97206  36.859  15.670   4.607
32046W        W97207  13.516  33.860  13.032
32047W        W97208  20.326  44.968   2.400
32048W        W97209  27.660  18.612  14.292
32049W        W97210   3.980  16.216   3.247
32050W        W97211  10.135  20.135   3.334
32051W        W97212  17.808  33.649  12.065
32052W        W97213  13.195   4.278  13.960
32053W        W97214  34.575  16.758  12.464
32054W        W97215  39.095  15.432  13.446
32055W        W97216  41.054  39.454  10.702
32056W        W97217  15.250  27.937  11.593
32057W        W97218  15.294   8.890  10.713
32058W        W97219   1.540  31.620   1.423
32059W        W97220  13.147  43.630   4.104
32060W        W97221  43.503  36.122   2.584
32061W        W97222  11.073  35.596   1.526
32062W        W97223   4.272   4.996   4.782
32063W        W97224  10.621  44.944   2.709
32064W        W97225  38.080   2.205   0.793
32065W        W97226  27.512  30.444   0.904
32066W        W97227  43.823  13.793   4.627
32067W        W97228  22.487   1.369   1.003
32068W        W97229  10.841  25.518  10.787
32069W        W97230  21.249  25.546  11.972
32070W        W97231  44.611  26.116   0.785
32071W        W97232  38.913  37.806  10.292
32072W        W97233  41.304   6.811   1.419
32073W        W97234  22.189  38.053   0.305
32074W        W97235  26.227  16.013  14.034
32075W        W97236  39.957  33.016  13.015
32076W        W97237  11.901  20.989   1.531
32077W        W97238   5.828   1.503  13.683
32078W        W97239  24.654  36.241  14.007
32079W        W97240  42.034  15.348  12.516
32080W        W97241   3.348  33.199   0.852
32081W        W97242  32.709   0.751   4.423
32082W        W97243   7.569  16.660   1.932
32083W        W97244  33.981  18.215   1.901
32084W        W97245  25.293  15.626  13.050
32085W        W97246   7.675  22.001  14.920
32086W        W97247  36.622   5.404   1.728
32087W        W97248  17.624  16.777   2.745
32088W        W97249  17.853  25.148  10.958
32089W        W97250  41.121  32.890   5.051
32090W        W97251  10.568  39.241  12.572
32091W        W97252  30.448  11.105  10.684
32092W        W97253  12.648  13.168  11.207
32093W        W97254  24.658  38.609  14.758
32094W        W97255  20.613  43.049  13.877
32095W        W97256  44.725  10.128  12.163
32096W        W97257  29.052   5.816   4.360
32097W        W97258   6.754  10.598  12.913
32098W        W97259  42.013   3.846   3.337
32099W        W97260  29.358  24.200   2.266
32100W        W97261   5.409  25.005  10.670
32101W        W97262  18.203  22.153  13.622
32102W        W97263   4.278   1.372   0.940
32103W        W97264  19.715  32.124  12.949
32104W        W97265  35.820  17.060  14.157
32105W        W97266  34.097  37.888  14.453
32106W        W97267  31.118   9.801   1.436
32107W        W97268   6.973   3.291  13.899
32108W        W97269  28.568   8.149  14.984
32109W        W97270  37.516  15.256  12.136
32110W        W97271  10.390  44.241  11.546
32111W        W97272  22.272  24.541  13.461
32112W        W97273  18.615   4.263   4.388
32113W        W97274  20.787  42.344  11.984
32114W        W97275  20.888  29.484   2.361
32115W        W97276  31.099  26.029   3.967
32116W        W97277  23.497  35.794   1.723
32117W        W97278  30.095  40.648   2.071
32118W        W97279  40.328  21.505   2.138
32119W        W97280  10.644  30.390  12.025
32120W        W97281  38.606   0.246   4.643
32121W        W97282  38.539  44.022   2.900
32122W        W97283   2.714   7.639  14.473
32123W        W97284  14.085  44.508   4.402
32124W        W97285  32.336   8.128  14.892
32125W        W97286  37.667  22.099  14.226
32126W        W97287  38.478  16.189  14.498
32127W        W97288   3.716  37.862  11.490
32128W        W97289  29.217  12.917   2.147
32129W        W97290  12.639  29.375  10.757
32130W        W97291   6.542  41.432   4.549
32131W        W97292  23.903  23.135   2.723
32132W        W97293  41.124  14.911  13.506
32133W        W97294   6.895  17.102   3.229
32134W        W97295  30.585  16.691   0.437
32135W        W97296  29.453  38.172   4.800
32136W        W97297  25.895  28.162  11.947
32137W        W97298   4.889  39.986   2.958
32138W        W97299   0.756  16.179   0.773
32139W        W97300  16.198   4.457  10.974
32140W        W97301  28.810  25.171  12.528
32141W        W97302  31.652  33.711   1.772
32142W        W97303   5.682  41.969   0.802
32143W        W97304  36.550  31.343  14.988
32144W        W97305  12.039  17.772  11.197
32145W        W97306  22.015   1.211   1.250
32146W        W97307  29.935  37.806  11.968
32147W        W97308  35.542   0.328  14.921
32148W        W97309  20.289   0.824   0.739
32149W        W97310  14.188  28.402   4.155
32150W        W97311  21.566   0.895  13.966
32151W        W97312  23.617  37.012  14.929
32152W        W97313  36.345  33.089   1.726
32153W        W97314   5.912  10.440  13.609
32154W        W97315  24.355  15.232  11.025
32155W        W97316  16.803   9.345   4.312
32156W        W97317   6.697  42.110   1.339
32157W        W97318   9.835  32.481  11.910
32158W        W97319  22.453  18.344   1.169
32159W        W97320   0.078  12.179   0.007
32160W        W97321   1.877  41.137  13.043
32161W        W97322  19.010  28.829   1.590
32162W        W97323  40.506   5.458   4.646
32163W        W97324   1.863  39.130   4.311
32164W        W97325  24.905  36.765   4.828
32165W        W97326  33.958   6.341   0.901
32166W        W97327  41.015   4.680  14.096
32167W        W97328  24.724   9.042  10.834
32168W        W97329   9.164   2.659  12.022
32169W        W97330  10.900  13.071  12.042
32170W        W97331  43.814  28.188   0.324
32171W        W97332  36.094  36.569   4.163
32172W        W97333   4.717  29.823   0.903
32173W        W97334  33.981  44.962  12.972
32174W        W97335  13.392   2.004   2.033
32175W        W97336   7.364  18.490   1.211
32176W        W97337  39.471   9.660   0.651
32177W        W97338  19.788  39.119  13.349
32178W        W97339  20.046  19.261  11.450
32179W        W97340   0.960  34.047   1.320
32180W        W97341  30.902  34.914   2.352
32181W        W97342  24.210  43.139   5.079
32182W        W97343  20.213   0.962  11.016
32183W        W97344  44.092   4.638   0.229
32184W        W97345  24.262  19.633  10.054
32185W        W97346   6.875  11.756  14.257
32186W        W97347  35.374  28.704   2.079
32187W        W97348  36.418  10.660   4.804
32188W        W97349  32.433  17.469  14.484
32189W        W97350   7.047   5.535  11.060
32190W        W97351  24.395  18.634   4.210
32191W        W97352  13.808   8.359   0.671
32192W        W97353  25.007   4.535  13.997
32193W        W97354  31.362  38.364   1.452
32194W        W97355  21.219  40.843   4.508
32195W        W97356   8.405  16.821  12.355
32196W        W97357  31.495  12.622  11.622
32197W        W97358   7.268  22.125  13.969
32198W        W97359  32.341  39.947   2.718
32199W        W97360  38.132   8.947   1.296
32200W        W97361  11.089  13.917   2.775
32201W        W97362  34.633  14.619   0.869
32202W        W97363  12.267  42.700  12.231
32203W        W97364   1.534   7.635   1.436
32204W        W97365   9.306  25.311   3.693
32205W        W97366  31.591  31.961   2.442
32206W        W97367  34.001  14.417  13.521
32207W        W97368  17.504  40.238  11.157
32208W        W97369  44.436  34.882   1.251
32209W        W97370  26.087  25.967  13.915
32210W        W97371  41.141  25.549  12.183
32211W        W97372  35.892  35.522  12.934
32212W        W97373  36.974   9.229   0.395
32213W        W97374  14.622  22.580  13.929
32214W        W97375  17.297   4.431   4.655
32215W        W97376  22.713  30.961   2.454
32216W        W97377  13.660  31.475  12.643
32217W        W97378  38.510  38.042   4.663
32218W        W97379   3.462  13.819   1.775
32219W        W97380  12.364  32.904  14.216
32220W        W97381  13.248   3.969   4.578
32221W        W97382  39.550  27.980  10.810
32222W        W97383  10.777   5.154  13.823
32223W        W97384   4.966   2.992   0.488
32224W        W97385  29.232  13.735   4.616
32225W        W97386  19.124  23.288  10.680
32226W        W97387  16.075   7.201  12.453
32227W        W97388   8.637  13.832  13.113
32228W        W97389   9.216  38.400   0.254
32229W        W97390   0.383  20.837  12.522
32230W        W97391  13.136  10.792   4.614
32231W        W97392  17.084  41.975  14.527
32232W        W97393  20.998  26.335   0.581
32233W        W97394  32.571  42.075   1.754
32234W        W97395  15.154  39.306   2.807
32235W        W97396   5.760  22.109   3.951
32236W        W97397  22.681  44.478   2.348
32237W        W97398  32.831  41.377   2.219
32238W        W97399  14.312  19.402  13.839
32239W        W97400  25.006   7.292  11.486
32240W        W97401  25.205  16.017   2.799
32241W        W97402  27.717  23.043   1.655
32242W        W97403   4.109  27.198   3.080
32243W        W97404   8.200  31.952  11.213
32244W        W97405  44.211  25.305  14.476
32245W        W97406  26.204   4.357   3.113
32246W        W97407   1.386  40.417  10.562
32247W        W97408  30.042  24.748  12.155
32248W        W97409  19.777   0.864   4.467
32249W        W97410  37.996   0.485  10.885
32250W        W97411  41.007   0.480   1.522
32251W        W97412  40.908  10.319   4.596
32252W        W97413   4.328  30.404  14.408
32253W        W97414  21.660   4.313  12.355
32254W        W97415   6.631   3.213   4.766
32255W        W97416   7.517  11.629   0.183
32256W        W97417  15.520  39.035  12.939
32257W        W97418  22.009   7.608   2.144
32258W        W97419  18.419  37.014   3.870
32259W        W97420  20.220  11.107  11.010
32260W        W97421  24.453   0.916   2.498
32261W        W97422  31.546  28.418   1.690
32262W        W97423  35.424  24.620  13.250
32263W        W97424   8.734  34.103  13.485
32264W        W97425   1.301   3.008  12.853
32265W        W97426  11.011   0.221  11.387
32266W        W97427  17.718  16.569   0.033
32267W        W97428  23.492  43.130  14.650
32268W        W97429   6.129  28.449  13.551
32269W        W97430  13.365  42.865  14.369
32270W        W97431  17.613  24.617   4.689
32271W        W97432  37.379   1.867   4.913
32272W        W97433  33.901  43.427   2.862
32273W        W97434  24.536  31.887   0.707
32274W        W97435  36.556  30.439   1.500
32275W        W97436  32.325  13.751   1.046
32276W        W97437  22.656   5.915   1.242
32277W        W97438  43.839  29.801   1.829
32278W        W97439  12.153  24.314   0.013
32279W        W97440  34.665  11.360   0.327
32280W        W97441   0.788  44.957  10.861
32281W        W97442  26.273  16.105  10.712
32282W        W97443  18.082  38.715   2.616
32283W        W97444   6.329  44.241   0.883
32284W        W97445   5.862  31.049   1.447
32285W        W97446  18.769   5.745  14.899
32286W        W97447  27.619  22.050  14.362
32287W        W97448  32.084  25.736  11.137
32288W        W97449   0.048  19.016  12.606
32289W        W97450  19.260  30.619   1.108
32290W        W97451  14.358  19.273   2.095
32291W        W97452  27.424  37.152  13.998
32292W        W97453  35.885  13.121   2.351
32293W        W97454  41.611   6.500   3.717
32294W        W97455  18.277  28.589  14.882
32295W        W97456  26.490  20.761   0.360
32296W        W97457  30.166  38.372  10.781
32297W        W97458   6.892  24.650   4.051
32298W        W97459  32.504  36.014   1.699
32299W        W97460  24.705   7.315  11.052
32300W        W97461  42.953  20.765  12.460
32301W        W97462  36.585  13.394   0.595
32302W        W97463   5.811  26.901   1.869
32303W        W97464  21.976  22.107   3.134
32304W        W97465  22.902  14.066   1.487
32305W        W97466  15.626   5.846   4.581
32306W        W97467   4.360  14.371   3.249
32307W        W97468   9.765  35.340  13.794
32308W        W97469  17.220  10.809   4.785
32309W        W97470  39.216  17.624  10.666
32310W        W97471  29.445   5.477  12.512
32311W        W97472  33.867   0.770  11.544
32312W        W97473  29.394  44.995   1.267
32313W        W97474   7.171  15.656  11.116
32314W        W97475  40.321  23.732   3.664
32315W        W97476  36.430  42.699   3.688
32316W        W97477  21.741  19.973  14.046
32317W        W97478  18.645  11.895  12.351
32318W        W97479   4.421  35.670  13.883
32319W        W97480  33.355  34.138  10.668
32320W        W97481  27.784  16.522  14.862
32321W        W97482   9.304  33.147  10.415
32322W        W97483  25.708  28.658   3.160
32323W        W97484  15.211   8.806   4.075
32324W        W97485  18.131  22.582   0.795
32325W        W97486  24.207  33.024  10.573
32326W        W97487   2.934  27.262   2.133
32327W        W97488  41.585  14.326   2.725
32328W        W97489  11.728  16.083   3.212
32329W        W97490  44.876  20.744  13.425
32330W        W97491  26.319   3.430  14.865
32331W        W97492  25.609   8.334  10.753
32332W        W97493  12.136  16.153   0.950
32333W        W97494  34.664  26.969  14.128
32334W        W97495  28.057   3.704  11.944
32335W        W97496   0.265  15.229   2.813
32336W        W97497   2.869  38.611  11.545
32337W        W97498   7.933  25.199  10.593
32338W        W97499  29.765  13.829   4.607
32339W        W97500   2.873  16.980   4.164
32340W        W97501   1.866   6.104   4.657
32341W        W97502  27.193  36.166  12.474
32342W        W97503  15.747   8.320  10.818
32343W        W97504   6.391  16.734   3.876
32344W        W97505  32.316  21.606  11.242
32345W        W97506  29.957  18.516   4.602
32346W        W97507   2.872   1.967   4.291
32347W        W97508  23.526  19.427   2.230
32348W        W97509  42.564  43.699   4.193
32349W        W97510  12.659   9.156   4.236
32350W        W97511  35.639   3.000  13.050
32351W        W97512  14.492  39.175  10.292
32352W        W97513   6.924  29.903  12.041
32353W        W97514   7.242  17.553   4.732
32354W        W97515   7.761  31.069   0.218
32355W        W97516  25.515  39.721   3.633
32356W        W97517  11.265  24.094  10.799
32357W        W97518  15.139  30.000  14.790
32358W        W97519  25.681   8.559  13.741
32359W        W97520  31.800  33.398  12.099
32360W        W97521   5.507  40.826   2.312
32361W        W97522  11.665  26.467  12.949
32362W        W97523  23.164  19.268   1.417
32363W        W97524   1.558  41.337   1.567
32364W        W97525  18.626   9.892  10.888
32365W        W97526  43.078  30.912   5.134
32366W        W97527   2.951  23.596  14.796
32367W        W97528  43.406  20.753   1.255
32368W        W97529  11.526   8.130  14.624
32369W        W97530  27.691  18.766  11.047
32370W        W97531  30.091  41.457  14.989
32371W        W97532  32.658  22.518  14.114
32372W        W97533  39.742  24.504  11.909
32373W        W97534  23.251   2.503   0.938
32374W        W97535  29.941  16.801   3.303
32375W        W97536  28.064  35.823   2.135
32376W        W97537  24.095  29.088   4.411
32377W        W97538  43.611   1.345   3.633
32378W        W97539  24.618   3.585   0.459
32379W        W97540   9.846  17.596  14.493
32380W        W97541  44.043  26.157  10.898
32381W        W97542  25.728   9.642  12.008
32382W        W97543  20.214  35.909   5.019
32383W        W97544  13.649   2.610   1.879
32384W        W97545  28.135  38.971  12.141
32385W        W97546  21.978  24.100  13.347
32386W        W97547   7.655  35.583   0.771
32387W        W97548   2.331  19.678   1.504
32388W        W97549  20.669   0.323  14.309
32389W        W97550  32.516   6.313  13.069
32390W        W97551  31.542  14.218   4.162
32391W        W97552  30.010  10.606   2.860
32392W        W97553  44.510   7.611   1.372
32393W        W97554   4.858  17.580   0.357
32394W        W97555   6.623  20.775   4.598
32395W        W97556   6.229   8.556  12.651
32396W        W97557   6.185  44.399   4.284
32397W        W97558  10.855  16.467  11.004
32398W        W97559  17.833  15.202   4.098
32399W        W97560   1.767  13.998  11.590
32400W        W97561  44.576   5.774   3.180
32401W        W97562   0.781  22.344  14.280
32402W        W97563   1.560  41.318  11.517
32403W        W97564  30.607  38.564  10.619
32404W        W97565   8.067   7.055  11.763
32405W        W97566  37.854  36.566   1.904
32406W        W97567   6.429  16.685   0.030
32407W        W97568  35.572  29.587   1.072
32408W        W97569  23.874   9.934  11.998
32409W        W97570  15.979   5.519   0.919
32410W        W97571  11.862  26.752  12.503
32411W        W97572  16.685  36.554  12.692
32412W        W97573  16.577   1.740   3.656
32413W        W97574  25.436  42.953   4.657
32414W        W97575  25.935  42.850  12.737
32415W        W97576  36.445  27.038   3.330
32416W        W97577  31.522  32.648   0.867
32417W        W97578   5.698  44.468  11.461
32418W        W97579  23.546  13.161   2.971
32419W        W97580   5.391  36.067  12.223
32420W        W97581   4.880   7.735  13.686
32421W        W97582  13.228   2.978   4.533
32422W        W97583  22.082  16.200  10.258
32423W        W97584  41.857   2.323   1.413
32424W        W97585   5.978   9.768  12.910
32425W        W97586  29.608  37.811   5.231
32426W        W97587  21.589  10.712   3.768
32427W        W97588  13.210   7.762   4.589
32428W        W97589   2.876  20.164   4.141
32429W        W97590   2.189   0.932  12.600
32430W        W97591  33.754  14.230  11.940
32431W        W97592  41.043  26.746  12.950
32432W        W97593   9.269   4.984  14.746
32433W        W97594  17.636   6.183   2.648
32434W        W97595  38.367  10.361   3.270
32435W        W97596  30.909   6.825  10.823
32436W        W97597  43.826  13.321  12.062
32437W        W97598  41.958  26.440   1.703
32438W        W97599  14.379  27.696   0.816
32439W        W97600  23.444  39.518  10.719
32440W        W97601  29.951  10.769  11.400
32441W        W97602  32.908  36.050   1.354
32442W        W97603   0.815  27.452  14.029
32443W        W97604  39.641  12.089  14.925
32444W        W97605  23.181  28.800   2.168
32445W        W97606  23.137  23.950   1.932
32446W        W97607  32.453  13.372   0.690
32447W        W97608   6.165  27.424  13.943
32448W        W97609  33.608  26.189  10.185
32449W        W97610  14.269   9.387  12.825
32450W        W97611  34.289  32.985   4.473
32451W        W97612  36.539  12.541   4.952
32452W        W97613  21.725  42.790  14.258
32453W        W97614  15.713   4.502  10.754
32454W        W97615  31.933  44.199  12.321
32455W        W97616  24.628  16.617   1.231
32456W        W97617  22.069  19.721  14.386
32457W        W97618  12.261  41.868   3.467
32458W        W97619  10.267  29.752   1.875
32459W        W97620  41.066   8.851   1.539
32460W        W97621  40.592  42.952  10.188
32461W        W97622  36.552   4.082   1.274
32462W        W97623   0.801   3.879  14.779
32463W        W97624  20.011  27.205   0.207
32464W        W97625  10.919  41.525   4.771
32465W        W97626  13.486  30.691  11.922
32466W        W97627  28.140  38.270   2.764
32467W        W97628  14.524  28.001   2.566
32468W        W97629  12.375   0.975   3.277
32469W        W97630  36.566  38.385  14.161
32470W        W97631   9.600  30.868  14.947
32471W        W97632  13.249  37.397   4.784
32472W        W97633  42.323  35.052  13.133
32473W        W97634  31.449  35.380   4.665
32474W        W97635  37.728   3.705  13.876
32475W        W97636   7.384  17.489   2.436
32476W        W97637  21.089  25.145   2.391
32477W        W97638  26.115   1.788   4.336
32478W        W97639  35.371  30.142   4.649
32479W        W97640   0.119  15.990  11.573
32480W        W97641  42.288   2.458  10.751
32481W        W97642  14.838   5.896   1.896
32482W        W97643   9.362  40.144  13.936
32483W        W97644  35.842  15.719  11.024
32484W        W97645  37.611   9.672   0.423
32485W        W97646  25.441  20.742  11.863
32486W        W97647  41.628  38.450   1.858
32487W        W97648  17.320  14.161  14.508
32488W        W97649  23.139  32.440   4.731
32489W        W97650  36.350  13.616   2.342
32490W        W97651  19.063  42.300   0.462
32491W        W97652   0.226  38.933   1.992
32492W        W97653  20.980  24.145   4.029
32493W        W97654  36.399  39.022  11.569
32494W        W97655  16.606  25.637   1.673
32495W        W97656  29.994  12.418   4.166
32496W        W97657  33.071  24.180   1.944
32497W        W97658  40.684   3.153   4.186
32498W        W97659  39.507  36.222   1.832
32499W        W97660  17.053  40.596  12.905
32500W        W97661  26.785  21.037  13.881
32501W        W97662  11.238  22.794  14.689
32502W        W97663  30.448  33.614   0.641
32503W        W97664  23.902  19.097   9.980
32504W        W97665  13.377  35.156   0.697
32505W        W97666   8.605  15.638  11.179
32506W        W97667   2.014   5.013   1.887
32507W        W97668   1.831   9.210   0.774
32508W        W97669  37.015   2.694   3.750
32509W        W97670  36.643  15.593   3.994
32510W        W97671   7.378  42.438   0.182
32511W        W97672  14.263  29.942   2.414
32512W        W97673  30.608   0.037   2.344
32513W        W97674  18.751  27.480  12.158
32514W        W97675   8.850  29.960  14.028
32515W        W97676  12.789  42.668   0.894
32516W        W97677  39.245  22.924   4.205
32517W        W97678  17.047  44.267  11.527
32518W        W97679  43.933  17.108  11.412
32519W        W97680  20.150  43.293  11.523
32520W        W97681  35.797  23.041   1.693
32521W        W97682   7.801  11.371   4.560
32522W        W97683   1.370   7.567  10.715
32523W        W97684  31.065  14.131  14.576
32524W        W97685  35.318  22.712   1.403
32525W        W97686   8.435  35.622   0.318
32526W        W97687   1.805  40.483   2.175
32527W        W97688   1.585   9.125  10.763
32528W        W97689  41.984  44.826   4.560
32529W        W97690  23.541  23.122  13.401
32530W        W97691  28.887  14.226  11.574
32531W        W97692  17.157  43.867  11.242
32532W        W97693  29.477   8.830   9.955
32533W        W97694  29.646  14.599   3.867
32534W        W97695  10.228  25.617   3.292
32535W        W97696  15.482  16.115  14.889
32536W        W97697   9.195  32.080   4.527
32537W        W97698  29.965   4.419   4.289
32538W        W97699  40.945  13.171   1.832
32539W        W97700  25.150   8.371  11.993
32540W        W97701  11.127   7.558  11.093
32541W        W97702   7.545   4.282  11.084
32542W        W97703  29.932  34.076   0.070
32543W        W97704  31.014  22.425   0.407
32544W        W97705   1.304  30.015   1.489
32545W        W97706  21.749   4.883   3.681
32546W        W97707  23.237   9.668  13.993
32547W        W97708  42.511   2.472  11.214
32548W        W97709  30.940  25.912   4.947
32549W        W97710  10.725  42.011  13.580
32550W        W97711  16.759  26.509  13.607
32551W        W97712  27.886  17.791  12.408
32552W        W97713  14.649  29.426  12.349
32553W        W97714  19.730  32.909  11.439
32554W        W97715   9.161  42.721  14.508
32555W        W97716  31.474  31.599  10.618
32556W        W97717  43.058  13.292   3.641
32557W        W97718   3.740  34.958   4.052
32558W        W97719   6.267  41.126   3.236
32559W        W97720  32.472   8.399  12.120
32560W        W97721  22.269  40.404   3.414
32561W        W97722   5.884  20.582   4.664
32562W        W97723   5.645  23.331   0.331
32563W        W97724  36.556  26.691   2.418
32564W        W97725  38.407  20.957  12.341
32565W        W97726  43.486  30.934   0.841
32566W        W97727  42.407   7.287  10.934
32567W        W97728   8.623  17.698   4.415
32568W        W97729   9.767  17.125   4.332
32569W        W97730  21.134  42.432   0.258
32570W        W97731   3.348  44.995   0.907
32571W        W97732  11.883  11.901   2.239
32572W        W97733  31.495  43.355  13.239
32573W        W97734   0.812  39.857   4.670
32574W        W97735   5.436   3.236   0.571
32575W        W97736  40.768  11.804   4.126
32576W        W97737  44.813   3.724  13.257
32577W        W97738  41.610  35.939   1.169
32578W        W97739  24.202   4.530  10.804
32579W        W97740   1.414  44.893  14.686
32580W        W97741  42.325  31.417  12.350
32581W        W97742  15.085   0.392   2.114
32582W        W97743  18.793  41.003   3.607
32583W        W97744  31.578  20.167   3.490
32584W        W97745   4.797  15.221   0.809
32585W        W97746  18.278  21.154  14.802
32586W        W97747   7.591   0.853  13.400
32587W        W97748  37.941  41.397  10.885
32588W        W97749   3.012  25.610   3.597
32589W        W97750  31.542  37.872   1.399
32590W        W97751  27.090   3.474   3.673
32591W        W97752  35.014  39.108  13.915
32592W        W97753  19.090  32.347  11.427
32593W        W97754  36.090  38.841   0.767
32594W        W97755  35.887  14.810  14.401
32595W        W97756  11.408  31.696   3.798
32596W        W97757  28.456  14.517   1.594
32597W        W97758  22.994  23.426   2.784
32598W        W97759  13.453   7.957  14.232
32599W        W97760  21.339  31.534   0.794
32600W        W97761  37.340   4.630   3.662
32601W        W97762  36.202  14.659  12.381
32602W        W97763  41.685  14.702   0.364
32603W        W97764   3.957   5.834   0.295
32604W        W97765  13.298  17.376   4.556
32605W        W97766  28.207  42.465  13.874
32606W        W97767  36.785  30.861  11.167
32607W        W97768  27.119   1.150  14.884
32608W        W97769  43.443   0.039   0.481
32609W        W97770  33.588   2.068  10.251
32610W        W97771  14.243   9.665   0.883
32611W        W97772   9.073   0.992   0.493
32612W        W97773   2.646   7.317   4.603
32613W        W97774  38.903  28.217   2.544
32614W        W97775  23.494  17.137   1.963
32615W        W97776  12.213  15.161  11.004
32616W        W97777  31.421  31.852  11.162
32617W        W97778  19.716  42.244  10.735
32618W        W97779  43.382  28.434   2.908
32619W        W97780  30.052   2.720  12.891
32620W        W97781  34.575  34.377  13.239
32621W        W97782  33.432   4.803  12.407
32622W        W97783  41.304  24.624   1.725
32623W        W97784  26.602  22.694  11.198
32624W        W97785   0.904  25.616   2.705
32625W        W97786  29.233  40.867   0.938
32626W        W97787   3.098  44.567  12.073
32627W        W97788  25.674  23.036  10.494
32628W        W97789  35.954  42.640   3.863
32629W        W97790   7.809  40.624  12.814
32630W        W97791  42.898  39.499   0.559
32631W        W97792  31.523  34.408   4.570
32632W        W97793  22.114   3.722  14.480
32633W        W97794  17.257  20.483   1.759
32634W        W97795   1.408  43.386   4.887
32635W        W97796  38.534   3.816  11.901
32636W        W97797  27.116  29.266  12.038
32637W        W97798  25.173  36.895  14.729
32638W        W97799  15.081   4.976  12.233
32639W        W97800   5.287  16.151   3.216
32640W        W97801   7.454  10.450  11.068
32641W        W97802  13.703  44.805  11.508
32642W        W97803  35.442  38.784   1.273
32643W        W97804  32.501  33.447   1.439
32644W        W97805  20.699  36.900   0.868
32645W        W97806   1.514  13.102   1.345
32646W        W97807  13.334   3.016  14.676
32647W        W97808   2.671  35.167  10.980
32648W        W97809  40.448  17.812  13.540
32649W        W97810  18.515   5.914  11.529
32650W        W97811  44.922   7.538   2.308
32651W        W97812  14.777  27.251  14.021
32652W        W97813   0.615   1.601  10.455
32653W        W97814  44.375  15.670   0.551
32654W        W97815   7.139  42.829  11.117
32655W        W97816   8.200  35.505  14.305
32656W        W97817   0.086  41.816   2.215
32657W        W97818  41.951  40.491  11.732
32658W        W97819  36.951  31.503  12.828
32659W        W97820  17.558  17.785  11.956
32660W        W97821  36.489   2.225  13.953
32661W        W97822  29.717  27.997  14.519
32662W        W97823  30.055   0.062   1.756
32663W        W97824  18.534  38.226  11.521
32664W        W97825   3.839  26.145  11.837
32665W        W97826  18.997  43.861  11.161
32666W        W97827  10.155  24.744  14.867
32667W        W97828   0.348  28.623   2.338
32668W        W97829  32.205  40.050   0.879
32669W        W97830  30.460  14.946  13.943
32670W        W97831   1.677  15.790   3.175
32671W        W97832  27.142  29.439   0.278
32672W        W97833  39.484  29.242  11.928
32673W        W97834   2.467  27.466  11.229
32674W        W97835  21.183  13.319   4.509
32675W        W97836  34.704  10.268  11.709
32676W        W97837  22.158  30.983  12.530
32677W        W97838   2.439  44.380   3.760
32678W        W97839   0.729   5.203   3.316
32679W        W97840  28.981  41.492  14.468
32680W        W97841   4.728  14.410   0.330
32681W        W97842   9.738  35.859  11.959
32682W        W97843  28.073  10.188  14.895
32683W        W97844  37.469  37.963   2.111
32684W        W97845  44.073   2.483  14.306
32685W        W97846  15.685  23.422   4.803
32686W        W97847   3.432  43.460   3.647
32687W        W97848   9.559  39.371  10.939
32688W        W97849  13.304  12.820   4.561
32689W        W97850  43.215  29.004   1.757
32690W        W97851  14.632   4.316  13.550
32691W        W97852   2.198  21.069  11.426
32692W        W97853  10.653  29.627  10.641
32693W        W97854   9.318  43.011   3.185
32694W        W97855  34.942   3.338  14.866
32695W        W97856   1.572  43.563   0.356
32696W        W97857   2.672  33.080  13.444
32697W        W97858   0.210  35.931   1.152
32698W        W97859  14.673  31.006  14.507
32699W        W97860  19.763  25.474  14.294
32700W        W97861  38.599  28.393  10.168
32701W        W97862  30.365  40.279  14.182
32702W        W97863  42.506  31.382  10.733
32703W        W97864  24.162  10.199   3.654
32704W        W97865  26.637  12.450  10.384
32705W        W97866   1.586   2.810  13.238
32706W        W97867  32.944  43.195  11.210
32707W        W97868  35.256  19.684   1.657
32708W        W97869  34.023  36.670  11.056
32709W        W97870  39.463   7.074   4.052
32710W        W97871   3.393  23.461  12.010
32711W        W97872   0.941  19.832  14.320
32712W        W97873   0.742  15.490   2.875
32713W        W97874  25.293  25.131  10.843
32714W        W97875  43.963  32.320   0.358
32715W        W97876  11.743  41.958   4.786
32716W        W97877  39.545  10.459   1.170
32717W        W97878  40.867  17.812  11.260
32718W        W97879   0.013  41.921   3.196
32719W        W97880  39.214  30.345   1.964
32720W        W97881  36.353  34.662   3.315
32721W        W97882  21.064  40.860   4.024
32722W        W97883  15.210  15.173   3.332
32723W        W97884   5.715  37.178  14.102
32724W        W97885  38.495   8.585   4.341
32725W        W97886   0.701  30.036  12.422
32726W        W97887  25.014  40.365   0.545
32727W        W97888  31.473  14.258  13.135
32728W        W97889  34.350  27.586   0.733
32729W        W97890   3.556  28.076  10.720
32730W        W97891  32.825  34.298   1.364
32731W        W97892  11.650  33.981   0.767
32732W        W97893   1.607  20.001   4.493
32733W        W97894   0.849   4.868  12.838
32734W        W97895   2.373  32.331   2.139
32735W        W97896  22.929   6.684   1.902
32736W        W97897  31.236  24.720   2.058
32737W        W97898   5.968  30.853   3.275
32738W        W97899  26.268  34.492   3.122
32739W        W97900  34.975  21.558  14.054
32740W        W97901  21.156  15.731   3.833
32741W        W97902  28.124  41.748  11.465
32742W        W97903  26.407  31.691  13.885
32743W        W97904  26.504  28.474   2.707
32744W        W97905  17.332  24.795   2.370
32745W        W97906  34.055  16.214  12.586
32746W        W97907  21.475  26.485   4.060
32747W        W97908  11.258  26.417   3.401
32748W        W97909   2.269  10.715  11.614
32749W        W97910  31.543  15.575  14.364
32750W        W97911  42.451  23.784  11.637
32751W        W97912  32.368  43.233   0.955
32752W        W97913  13.365   4.825  10.518
32753W        W97914  12.582  18.265   0.956
32754W        W97915  41.273   9.275  13.675
32755W        W97916  16.982  25.177  14.957
32756W        W97917  18.038  38.297  11.429
32757W        W97918  41.282   6.322   1.797
32758W        W97919   8.624  28.560  13.917
32759W        W97920  38.862  16.370   3.278
32760W        W97921  12.524  40.704  14.807
32761W        W97922  23.979  38.852   3.203
32762W        W97923   5.445  42.356  13.741
32763W        W97924  27.102  20.136  12.122
32764W        W97925  24.659  29.716   1.760
32765W        W97926   3.494  38.569  13.903
32766W        W97927  21.453  22.110   3.035
32767W        W97928  26.892   7.883  14.913
32768W        W97929  14.632  42.519  11.699
32769W        W97930  15.246  36.527   4.411
32770W        W97931   0.091   7.115   3.119
32771W        W97932   9.283  39.816   2.888
32772W        W97933  25.409  19.006   0.794
32773W        W97934  33.363  33.447  13.838
32774W        W97935  37.952   6.549   1.745
32775W        W97936  13.418  39.419  10.278
32776W        W97937  42.492  33.924  11.981
32777W        W97938  37.313   3.450  13.365
32778W        W97939  23.521  13.711  12.424
32779W        W97940  18.790  31.478  14.731
32780W        W97941   2.959  27.364  11.223
32781W        W97942   4.177  16.820   2.911
32782W        W97943  40.083  35.756   4.837
32783W        W97944   0.036  29.950   2.802
32784W        W97945  30.500  42.457   3.728
32785W        W97946  30.167  13.419   1.148
32786W        W97947  18.592  30.693   0.602
32787W        W97948  34.179  40.922   5.320
32788W        W97949  31.408   5.749   4.227
32789W        W97950  41.014   6.180   1.374
32790W        W97951  16.454  12.300   3.961
32791W        W97952  27.434   8.481   0.923
32792W        W97953  34.005   2.856  13.810
32793W        W97954  26.048  31.631  13.000
32794W        W97955  18.369   4.760  11.056
32795W        W97956  13.407  35.774  14.020
32796W        W97957  35.338  26.701  12.582
32797W        W97958  27.303  14.149   4.410
32798W        W97959  16.089   3.986   1.594
32799W        W97960  44.369   2.280  10.656
32800W        W97961   9.784   4.337   0.793
32801W        W97962  14.277   1.892   2.163
32802W        W97963  20.874  35.409   2.317
32803W        W97964  27.883  17.562  12.881
32804W        W97965  38.973  18.124   0.971
32805W        W97966   5.617  41.558   1.888
32806W        W97967   8.645  24.178  13.037
32807W        W97968  17.330  13.138   0.991
32808W        W97969  17.731  26.618   4.112
32809W        W97970  28.414  40.425   1.814
32810W        W97971  29.500  44.003   4.589
32811W        W97972   5.777  36.204  11.913
32812W        W97973  44.847   8.461  12.375
32813W        W97974  33.161  15.634  11.774
32814W        W97975   0.756  34.374   2.260
32815W        W97976  25.743  19.273  13.558
32816W        W97977  18.675  25.299  12.949
32817W        W97978  29.685  19.706  14.485
32818W        W97979   9.924  20.028  14.384
32819W        W97980  24.978  43.393   4.330
32820W        W97981  25.077   9.414  10.813
32821W        W97982  37.445  14.077   4.627
32822W        W97983  25.902  28.120   1.887
32823W        W97984  22.230  44.210  13.725
32824W        W97985   8.049  15.704  11.884
32825W        W97986   2.738  33.963   1.651
32826W        W97987  25.000  40.542   0.054
32827W        W97988  34.812  23.981   3.648
32828W        W97989  13.703   5.455  13.597
32829W        W97990   1.642  24.603   4.342
32830W        W97991  43.282  26.247   1.746
32831W        W97992  27.088  21.133   1.636
32832W        W97993  32.850   5.895   0.679
32833W        W97994  33.092   5.427   2.310
32834W        W97995   3.432  41.549   1.681
32835W        W97996   5.879   0.256  10.755
32836W        W97997  15.117  32.362  13.508
32837W        W97998  35.842  27.152  12.213
32838W        W97999  14.523  13.148  12.865
32839W        W98000  22.962  21.165   3.184
32840W        W98001  11.639   8.430  11.522
32841W        W98002  38.962  12.942   4.219
32842W        W98003  22.572  38.098   2.133
32843W        W98004  20.236  12.356   0.509
32844W        W98005  14.748  35.430  12.574
32845W        W98006  35.378  21.824  11.523
32846W        W98007  36.019  18.619  12.064
32847W        W98008  24.269  25.433  14.465
32848W        W98009  36.264  38.517  11.558
32849W        W98010   4.979  10.604  13.214
32850W        W98011  41.738  40.813  12.588
32851W        W98012  44.552  18.557   1.581
32852W        W98013  10.794  32.897  11.519
32853W        W98014  14.495  22.713   3.782
32854W        W98015  36.792   4.028  12.435
32855W        W98016  43.891  42.316   2.131
32856W        W98017   7.441  22.543  13.701
32857W        W98018  39.116  43.373   0.431
32858W        W98019  30.797  39.789   4.709
32859W        W98020  31.599  37.641  12.064
32860W        W98021  44.945  39.959  11.035
32861W        W98022   1.506   6.813  13.259
32862W        W98023  17.338   6.265   3.818
32863W        W98024  25.659  14.111   1.818
32864W        W98025  28.995   7.738   3.843
32865W        W98026  37.566  22.598   5.069
32866W        W98027  40.392   3.778   3.265
32867W        W98028  23.817  16.754  12.035
32868W        W98029  10.238   9.680  10.642
32869W        W98030   1.035  32.040  14.804
32870W        W98031  35.661  15.745   1.822
32871W        W98032  44.800  43.781   4.406
32872W        W98033  27.049  13.911  14.736
32873W        W98034  14.256   3.885   4.391
32874W        W98035  37.107  34.538   4.903
32875W        W98036  21.699   0.027  14.799
32876W        W98037  21.280  18.746  11.094
32877W        W98038   6.741  32.034  12.936
32878W        W98039  28.923   2.397   3.356
32879W        W98040   7.417  33.519  10.735
32880W        W98041  21.102  13.291  12.915
32881W        W98042  23.736   0.896  12.469
32882W        W98043  28.063  21.895  12.518
32883W        W98044  43.735   0.861   3.773
32884W        W98045   9.158  16.619   4.693
32885W        W98046  16.592  43.839  13.808
32886W        W98047  15.649  34.551  14.230
32887W        W98048  38.869  18.150  11.273
32888W        W98049   4.305   2.035   3.804
32889W        W98050  37.426  42.892  10.730
32890W        W98051  33.194  19.408  13.388
32891W        W98052   1.982  28.640   1.436
32892W        W98053  22.049  26.931   3.091
32893W        W98054  27.531   6.746   1.663
32894W        W98055  33.974  20.146  11.855
32895W        W98056  33.510  42.896  13.942
32896W        W98057  25.414  24.279  11.078
32897W        W98058  30.903  32.608   4.555
32898W        W98059  40.371  33.837   2.481
32899W        W98060  41.318  10.536  14.843
32900W        W98061  12.502  35.874   1.981
32901W        W98062  29.529  29.429   0.980
32902W        W98063  34.495   5.094  13.874
32903W        W98064  15.833  34.581  11.098
32904W        W98065  22.303  33.635  10.587
32905W        W98066   6.515  36.987  14.477
32906W        W98067  12.926  19.176  12.906
32907W        W98068  36.850  31.357  14.428
32908W        W98069  20.661   3.051  10.839
32909W        W98070  21.182  26.250   3.345
32910W        W98071  40.737  29.309   4.052
32911W        W98072  39.920  26.244  12.748
32912W        W98073  35.140  29.506  12.855
32913W        W98074  36.343   2.773  11.570
32914W        W98075  43.609  28.365  14.425
32915W        W98076  29.576  38.403  12.355
32916W        W98077  18.284  38.911  13.371
32917W        W98078  38.052  14.089  12.893
32918W        W98079  14.300  11.219   1.959
32919W        W98080  44.503   6.783  13.228
32920W        W98081  37.802  33.911  13.318
32921W        W98082  14.776  37.437  11.613
32922W        W98083  29.528   5.325  13.003
32923W        W98084  19.029   5.341   0.890
32924W        W98085  33.684  15.782  13.003
32925W        W98086  20.413  34.622  14.492
32926W        W98087   9.927  29.268   2.260
32927W        W98088  28.853  33.989   3.729
32928W        W98089  39.032  17.186  10.474
32929W        W98090  34.023  36.555  12.874
32930W        W98091  39.757  37.781   3.632
32931W        W98092  18.034  35.529   1.018
32932W        W98093  12.874  20.933   3.660
32933W        W98094  42.069  32.226  14.898
32934W        W98095  36.442  27.600  13.627
32935W        W98096  32.406   6.858  13.166
32936W        W98097   4.814  28.768  11.623
32937W        W98098  37.784   1.552   1.680
32938W        W98099  28.104   4.985   1.893
32939W        W98100  26.058  18.558   2.974
32940W        W98101  17.613  42.457   0.878
32941W        W98102  35.103  24.583   1.368
32942W        W98103  20.538  19.080  12.310
32943W        W98104  18.543  30.803  13.364
32944W        W98105  17.473  27.927   3.576
32945W        W98106   4.210  31.128   0.086
32946W        W98107  31.571  34.465   3.213
32947W        W98108  25.235  24.102   3.618
32948W        W98109   5.761   7.585  14.268
32949W        W98110  18.143   1.923   4.179
32950W        W98111   0.997  25.994   1.393
32951W        W98112  34.378  22.246   2.518
32952W        W98113  30.661   8.201   0.125
32953W        W98114   3.402  28.679  13.708
32954W        W98115   0.252  12.296  11.773
32955W        W98116  32.872  37.000   1.317
32956W        W98117  34.319  11.166  10.750
32957W        W98118  17.161  30.838   2.929
32958W        W98119   9.180  43.845  11.432
32959W        W98120  19.346  30.637  10.754
32960W        W98121  21.927  15.670  11.976
32961W        W98122  21.194  35.431  12.765
32962W        W98123  24.922  16.581  14.904
32963W        W98124  32.593  40.201  13.585
32964W        W98125  34.128  16.746  10.833
32965W        W98126  26.154  10.689  13.059
32966W        W98127  11.850  21.805   0.874
32967W        W98128  13.752  17.730  14.386
32968W        W98129  13.222  31.159  14.971
32969W        W98130   9.472  28.646  12.020
32970W        W98131  11.815  26.152  13.710
32971W        W98132  19.593  25.201   3.862
32972W        W98133  11.572  23.268   3.678
32973W        W98134   4.218  21.071  13.582
32974W        W98135  37.331  24.099  14.880
32975W        W98136  34.009  24.810  13.361
32976W        W98137  38.525  20.459  12.276
32977W        W98138  15.721   4.915   2.699
32978W        W98139   3.463  35.336   2.183
32979W        W98140  10.630  20.048   1.214
32980W        W98141   7.639  30.083   0.969
32981W        W98142  16.652  18.654   4.114
32982W        W98143  37.336   2.469   1.130
32983W        W98144  27.633  25.043   2.815
32984W        W98145   4.451  29.494   4.715
32985W        W98146  22.551  32.178  12.238
32986W        W98147  10.333  34.603  13.526
32987W        W98148   5.181  30.717  14.372
32988W        W98149  31.567  44.994   3.353
32989W        W98150  11.710  13.273  11.168
32990W        W98151  20.467  28.439   1.650
32991W        W98152   3.708  11.801  13.610
32992W        W98153   8.614  32.013  10.427
32993W        W98154  28.008  34.712   0.768
32994W        W98155  17.038  11.980  10.382
32995W        W98156   2.612  44.902   2.891
32996W        W98157  42.694  16.088   4.919
32997W        W98158  26.214  43.952  13.772
32998W        W98159  30.041  15.557   2.352
32999W        W98160  18.006  26.475   4.526
33000W        W98161   9.931  21.910  12.846
33001W        W98162  35.872  42.920  11.657
33002W        W98163   5.453   0.907   0.990
33003W        W98164  20.173  41.952   0.035
33004W        W98165   8.205  30.899   0.514
33005W        W98166  35.179  27.592   4.842
33006W        W98167   0.809  16.366  11.123
33007W        W98168  20.856  20.617  10.617
33008W        W98169  15.743  29.984   3.638
33009W        W98170  15.390  18.214  12.549
33010W        W98171  31.950  27.007  14.560
33011W        W98172  35.825  22.706   1.303
33012W        W98173  26.514   2.877  12.941
33013W        W98174   2.760  30.857   4.706
33014W        W98175  25.485  33.407  10.286
33015W        W98176  13.816  27.409  13.438
33016W        W98177  16.111  35.234   1.962
33017W        W98178  12.720  21.413  14.226
33018W        W98179  25.988  28.132   0.980
33019W        W98180  21.714  36.053   1.327
33020W        W98181  30.140  28.759   2.294
33021W        W98182   8.437  20.850   4.074
33022W        W98183  34.794  34.833  14.027
33023W        W98184   9.749  16.652  12.107
33024W        W98185  14.619   8.432   4.377
33025W        W98186   3.425   0.427   2.778
33026W        W98187  15.300  44.441   1.934
33027W        W98188   7.974  11.635  12.102
33028W        W98189   6.020  38.686  13.754
33029W        W98190  29.335   4.710  14.494
33030W        W98191  25.629  22.472  13.493
33031W        W98192  10.843  21.333   3.285
33032W        W98193  42.318  31.403  14.850
33033W        W98194  20.481  26.462   3.762
33034W        W98195  22.359  30.486   3.261
33035W        W98196  27.026  33.662   2.824
33036W        W98197   2.455  37.399  10.223
33037W        W98198  27.805  38.724  11.775
33038W        W98199  18.625  22.118  14.386
33039W        W98200  40.563  13.128  12.951
33040W        W98201  34.370  35.092   4.632
33041W        W98202  29.543  30.866  11.472
33042W        W98203  42.575  21.974  13.510
33043W        W98204   3.634  36.541   1.822
33044W        W98205  17.271  30.067  11.248
33045W        W98206  19.554   9.664  10.461
33046W        W98207  34.417  23.944   4.626
33047W        W98208  31.003  43.857   4.492
33048W        W98209  19.145  16.858  12.520
33049W        W98210  44.218  30.280   4.011
33050W        W98211  40.921  20.457  14.065
33051W        W98212  32.378  36.190   4.275
33052W        W98213  19.287   5.548   1.310
33053W        W98214  32.719   2.353   0.320
33054W        W98215   8.295  24.971  10.846
33055W        W98216   4.623  34.711  11.129
33056W        W98217   1.414  12.216   2.791
33057W        W98218   4.971  20.534  12.894
33058W        W98219  21.809  44.305  11.104
33059W        W98220  25.440  19.554  11.068
33060W        W98221  17.834   5.530   0.759
33061W        W98222  40.492  15.867   1.686
33062W        W98223  34.343  31.958   2.794
33063W        W98224  10.786  42.339  13.987
33064W        W98225   5.565  16.561  12.608
33065W        W98226  30.897  41.186   2.087
33066W        W98227  25.484  17.020  10.628
33067W        W98228  11.048   2.414   0.066
33068W        W98229  14.501  31.164  14.994
33069W        W98230  14.215  28.704  13.480
33070W        W98231  23.587   5.346   3.388
33071W        W98232  36.114   6.255   0.926
33072W        W98233   4.035  25.014  13.927
33073W        W98234  34.925  36.937   0.935
33074W        W98235  38.821  27.959   9.963
33075W        W98236  23.141  14.882   4.266
33076W        W98237  26.105  35.062   5.139
33077W        W98238  41.135  11.252  10.728
33078W        W98239  21.676  35.060   1.154
33079W        W98240   6.687  11.223   3.698
33080W        W98241  13.359  20.340  13.502
33081W        W98242  41.284  26.800  13.498
33082W        W98243  42.868   4.865  12.817
33083W        W98244  41.627  19.827   2.318
33084W        W98245  25.747  25.425  10.792
33085W        W98246  41.858  18.045   0.184
33086W        W98247  12.947  17.471   4.996
33087W        W98248  24.155  22.273  13.338
33088W        W98249   0.986  38.983   9.588
33089W        W98250  10.104  43.886   0.554
33090W        W98251  21.690  37.562  11.505
33091W        W98252  12.876  35.112  13.463
33092W        W98253  20.697  40.214   2.364
33093W        W98254  14.836  12.456   0.242
33094W        W98255  33.547  14.371   3.374
33095W        W98256  37.462   4.750   1.336
33096W        W98257  22.337  38.404  11.043
33097W        W98258   5.426   7.676   4.199
33098W        W98259  26.060  43.584  11.054
33099W        W98260  29.095  20.207  12.050
33100W        W98261  31.553  36.596   2.854
33101W        W98262  30.991  39.924  11.898
33102W        W98263  26.161  29.668  10.882
33103W        W98264  44.316  36.691  11.172
33104W        W98265  33.006  16.858  13.336
33105W        W98266   8.771  25.195  10.955
33106W        W98267  31.657  11.664   3.619
33107W        W98268  17.084  24.679   4.279
33108W        W98269  21.616  32.670  11.261
33109W        W98270  21.915  10.349  11.522
33110W        W98271  32.119   9.702  13.431
33111W        W98272   9.825  17.554   1.809
33112W        W98273   9.796  26.605  12.554
33113W        W98274  11.066   1.806  10.734
33114W        W98275  28.947  38.867  11.124
33115W        W98276  40.294  30.210  13.407
33116W        W98277  31.967   7.235   2.548
33117W        W98278  40.379  11.387  14.727
33118W        W98279  13.750   0.586   1.933
33119W        W98280  39.428  31.721  11.927
33120W        W98281  39.619  34.974   0.703
33121W        W98282  28.523   3.742  12.211
33122W        W98283  11.610  29.973  14.521
33123W        W98284  11.757  35.101  11.568
33124W        W98285  25.121  18.513  12.798
33125W        W98286  24.110   3.211   4.608
33126W        W98287  11.777  26.362   1.413
33127W        W98288  37.083  40.318   3.720
33128W        W98289  20.527  39.267  14.779
33129W        W98290  26.572  33.512   3.678
33130W        W98291  16.071   8.142   1.827
33131W        W98292  18.550   7.780   1.381
33132W        W98293   8.203  18.284  10.556
33133W        W98294  24.757   4.385  11.984
33134W        W98295  38.636   3.215   0.930
33135W        W98296   1.334   1.989  13.813
33136W        W98297  11.807  19.434   0.779
33137W        W98298  33.774   5.511  14.806
33138W        W98299  15.187  36.580  12.409
33139W        W98300   6.982  17.810   2.663
33140W        W98301  40.235  13.605   1.857
33141W        W98302   9.911   4.767   4.526
33142W        W98303  24.445  34.864   4.281
33143W        W98304  26.070   3.887  13.762
33144W        W98305   9.095  12.439   3.323
33145W        W98306  27.452   0.503   0.924
33146W        W98307  34.385  34.367  11.557
33147W        W98308  21.511  30.232   1.199
33148W        W98309   9.277  10.195   4.225
33149W        W98310  22.715  31.667   9.935
33150W        W98311   0.345  17.586   2.744
33151W        W98312  24.458  35.442  12.455
33152W        W98313  28.528  44.281   3.365
33153W        W98314  27.836  34.640  11.582
33154W        W98315  23.997  39.282   2.781
33155W        W98316  31.650   3.880   2.473
33156W        W98317  36.570  20.181  13.258
33157W        W98318  18.166  43.954   2.373
33158W        W98319   9.946  22.165   4.471
33159W        W98320  27.681  35.017   4.681
33160W        W98321   3.440  18.629   4.484
33161W        W98322  35.514  26.355   4.688
33162W        W98323  38.910  41.837  12.598
33163W        W98324   1.824  16.583   3.585
33164W        W98325  40.545  17.219   3.584
33165W        W98326  37.226  34.140   0.415
33166W        W98327  17.098  21.794   0.043
33167W        W98328  19.494  14.568   2.409
33168W        W98329  21.549  22.093  14.545
33169W        W98330   1.370  40.460   1.219
33170W        W98331   0.606  31.935  11.338
33171W        W98332   8.027  22.110  13.173
33172W        W98333  42.245  13.769  14.898
33173W        W98334  26.561  15.802   4.221
33174W        W98335  41.420   4.422  14.295
33175W        W98336  39.298  31.312   3.222
33176W        W98337  34.950  30.595  11.590
33177W        W98338  28.524  35.930   0.393
33178W        W98339  28.667  33.427   0.384
33179W        W98340  33.428  15.287   2.931
33180W        W98341  25.098  33.858  14.307
33181W        W98342  26.014   0.281  14.024
33182W        W98343   8.671   2.367   4.213
33183W        W98344  20.224  40.895   4.629
33184W        W98345  35.626  15.630   4.140
33185W        W98346   9.162  24.544   2.842
33186W        W98347   3.248  35.046   0.967
33187W        W98348  29.880  35.088   2.242
33188W        W98349   3.971  34.165   0.604
33189W        W98350   2.802   9.667   1.291
33190W        W98351   9.596   6.919  13.184
33191W        W98352   0.286  20.566  14.286
33192W        W98353   2.510   0.964  13.610
33193W        W98354  20.476  24.608   0.865
33194W        W98355  33.164  21.759  10.842
33195W        W98356   4.977  41.409   3.184
33196W        W98357  27.935   2.344   2.848
33197W        W98358  40.341  43.492  11.499
33198W        W98359  40.441  32.773   3.756
33199W        W98360  33.441  20.714   4.615
33200W        W98361  30.493  34.585   2.659
33201W        W98362  20.620   7.918  13.325
33202W        W98363  42.324  43.293   2.159
33203W        W98364  38.228  33.723   2.342
33204W        W98365  37.518  15.075   0.741
33205W        W98366  10.900   0.394   2.721
33206W        W98367  18.338  18.223  11.086
33207W        W98368   7.309  32.040  13.934
33208W        W98369   8.900  37.317   1.398
33209W        W98370  13.215  27.965  10.739
33210W        W98371  13.565  21.594  14.029
33211W        W98372  36.930  42.124  12.463
33212W        W98373  12.178   4.589  14.799
33213W        W98374  27.895  14.213   0.424
33214W        W98375  23.475  10.854  10.497
33215W        W98376  26.465  34.005  12.756
33216W        W98377   4.918  35.787   0.868
33217W        W98378  19.661  25.726   2.953
33218W        W98379   9.617   2.221  12.113
33219W        W98380   7.460  13.338  12.541
33220W        W98381  21.861  23.751   4.445
33221W        W98382  33.047  40.916  11.656
33222W        W98383   6.633  41.829   0.824
33223W        W98384  23.361   2.024  10.754
33224W        W98385  32.034  20.304  13.393
33225W        W98386  40.570  42.849   3.366
33226W        W98387   8.660   0.740  13.295
33227W        W98388  17.190  26.418   0.851
33228W        W98389  40.843  25.363  12.583
33229W        W98390  17.679  13.143  14.516
33230W        W98391  35.370  42.343  11.927
33231W        W98392  42.895  15.320   3.295
33232W        W98393  13.681   8.871   0.824
33233W        W98394  19.140  30.869   2.445
33234W        W98395  12.538  17.139  13.267
33235W        W98396   6.794  19.547   3.203
33236W        W98397   5.512  38.386   2.412
33237W        W98398  16.609   7.783   3.681
33238W        W98399  26.041  18.322  10.689
33239W        W98400  17.510   3.319  14.911
33240W        W98401  43.060  31.437  13.001
33241W        W98402  37.490  20.239  14.390
33242W        W98403  22.536  18.845   1.277
33243W        W98404  36.938  34.755   1.211
33244W        W98405  26.577  40.789   4.952
33245W        W98406  43.139  20.513  12.893
33246W        W98407  13.663  23.020  10.619
33247W        W98408   6.132   4.711  13.131
33248W        W98409  22.154  11.827  14.754
33249W        W98410  43.519  17.583  12.044
33250W        W98411  33.094  15.682  11.275
33251W        W98412  44.314  33.140  10.666
33252W        W98413  26.571  39.467   3.532
33253W        W98414  37.391   6.844   3.067
33254W        W98415  26.470   6.954   4.621
33255W        W98416  13.139  38.009  12.085
33256W        W98417   6.195  10.893  12.083
33257W        W98418  23.034  39.918  11.883
33258W        W98419  35.560  34.453   4.653
33259W        W98420  41.493  40.815  14.409
33260W        W98421  30.611  13.698  11.357
33261W        W98422   6.404  19.832   3.091
33262W        W98423   2.493   3.888   2.173
33263W        W98424  36.890  32.499   4.584
33264W        W98425  36.439   5.833  11.482
33265W        W98426   3.650  12.230  11.074
33266W        W98427  23.789  24.042  14.179
33267W        W98428  43.786  30.708   2.345
33268W        W98429  26.408  16.291   0.814
33269W        W98430   1.574  34.688   3.686
33270W        W98431  21.305   3.841  10.670
33271W        W98432  23.660  42.872   0.438
33272W        W98433  14.200  17.765  12.181
33273W        W98434  32.452  26.634   1.698
33274W        W98435  17.143   7.182   0.761
33275W        W98436  23.989  10.654  10.694
33276W        W98437   0.681  31.653   4.581
33277W        W98438  44.899   4.056  12.869
33278W        W98439  19.887  15.030  11.256
33279W        W98440   9.851   4.451  11.091
33280W        W98441  44.390  31.542   3.414
33281W        W98442  17.805   3.826  13.897
33282W        W98443   2.814  34.944   0.670
33283W        W98444  28.599  37.532   4.170
33284W        W98445  37.015   3.706   2.631
33285W        W98446  24.062  22.256  11.990
33286W        W98447   7.138  16.600   4.605
33287W        W98448   6.824  42.214   1.867
33288W        W98449   1.555   8.193  12.940
33289W        W98450   1.584  10.906   9.736
33290W        W98451   8.648  41.120   0.301
33291W        W98452   3.008  36.243   3.720
33292W        W98453  16.267   9.462  14.515
33293W        W98454   3.659  12.072  14.051
33294W        W98455  28.561  20.129   3.348
33295W        W98456  14.405  33.886  13.858
33296W        W98457   9.286  19.638   2.407
33297W        W98458  39.306  22.067  10.605
33298W        W98459   3.457  13.629  13.369
33299W        W98460  34.848  15.845   0.444
33300W        W98461  23.542  36.112   0.392
33301W        W98462  35.608  21.999   2.144
33302W        W98463  19.099  22.048  12.053
33303W        W98464  34.414  30.040   1.494
33304W        W98465  29.155  30.559  12.440
33305W        W98466  11.187  27.935  13.524
33306W        W98467  40.514  40.109   3.682
33307W        W98468  37.812  11.831   4.876
33308W        W98469  19.653  29.039  12.575
33309W        W98470  24.480  18.234  11.529
33310W        W98471  40.246   3.364  14.966
33311W        W98472  34.040  40.149  14.831
33312W        W98473  18.091  20.346  12.992
33313W        W98474  24.691   1.999   3.287
33314W        W98475  40.689  22.023  11.549
33315W        W98476  32.487  32.549  11.080
33316W        W98477  44.583   3.146  10.664
33317W        W98478  19.246  23.745  10.460
33318W        W98479  38.254  14.439   4.098
33319W        W98480  38.136  16.879  10.625
33320W        W98481  18.235  19.143   0.396
33321W        W98482   9.435  44.262  11.586
33322W        W98483  12.144  17.439   3.290
33323W        W98484  21.089  43.393  12.025
33324W        W98485   8.413  25.395  11.261
33325W        W98486  12.002  23.434   2.332
33326W        W98487  14.676  31.500  10.661
33327W        W98488  24.183  36.040  12.872
33328W        W98489  18.150  42.998   3.377
33329W        W98490  13.697  22.494   0.938
33330W        W98491  21.528  32.705  12.098
33331W        W98492  24.097   9.131  11.552
33332W        W98493  22.300  16.438   0.404
33333W        W98494   1.924  41.068   3.314
33334W        W98495  20.183  11.514   0.813
33335W        W98496  38.946  42.346  14.092
33336W        W98497  36.901  17.697   4.194
33337W        W98498   1.344  18.979   2.829
33338W        W98499  26.642  21.187  12.517
33339W        W98500  19.423   2.940  10.715
33340W        W98501  13.463   8.181  11.188
33341W        W98502  41.913  23.030  11.580
33342W        W98503   4.949  19.236  14.546
33343W        W98504  28.714  25.745   4.117
33344W        W98505  39.458   0.524   3.741
33345W        W98506   5.227   3.704   0.930
33346W        W98507  21.651  33.581   4.859
33347W        W98508  20.832   1.328  14.441
33348W        W98509  16.681   9.912  12.553
33349W        W98510  36.520  14.763   0.563
33350W        W98511  23.440   4.835   4.076
33351W        W98512  16.853  41.032  13.124
33352W        W98513  16.355  22.505  12.909
33353W        W98514  39.411  44.872  11.518
33354W        W98515  15.446   3.480  11.433
33355W        W98516   1.027  28.089  12.460
33356W        W98517  36.508  41.570   1.014
33357W        W98518  34.366  18.832  12.024
33358W        W98519  27.897   6.399   4.850
33359W        W98520  30.570  32.049   4.526
33360W        W98521  25.349  33.467   1.358
33361W        W98522  31.905  24.311  12.163
33362W        W98523   9.744  28.592  12.850
33363W        W98524  35.964  31.429  14.262
33364W        W98525   3.439   3.680  12.897
33365W        W98526  44.889  27.058  13.836
33366W        W98527  18.172  22.130  13.094
33367W        W98528  26.882  21.016  13.357
33368W        W98529  37.923   6.884   3.188
33369W        W98530   4.011  12.660   4.070
33370W        W98531  13.837  13.698   0.441
33371W        W98532  38.535  31.747  10.467
33372W        W98533  32.855  11.274  13.637
33373W        W98534   9.204  28.556  11.592
33374W        W98535  25.558  23.392  10.870
33375W        W98536  24.083   7.891   0.791
33376W        W98537  12.376  12.784   3.659
33377W        W98538  40.972   4.428   1.512
33378W        W98539  25.552  26.266  11.175
33379W        W98540   0.093   2.822   2.532
33380W        W98541  24.195  16.745  10.774
33381W        W98542  10.767  40.927   0.263
33382W        W98543  39.085  12.666   0.773
33383W        W98544  10.013  10.224   4.988
33384W        W98545  41.342   5.882  14.395
33385W        W98546  11.874  44.367   2.726
33386W        W98547  16.713  18.855  14.930
33387W        W98548   1.055  17.884   0.872
33388W        W98549  15.666  14.169   0.043
33389W        W98550  13.789  21.241  11.141
33390W        W98551  16.218  14.577   5.131
33391W        W98552  30.670   8.255  12.972
33392W        W98553  11.601  44.352   3.153
33393W        W98554  44.684   6.953  10.688
33394W        W98555   2.256  23.217   1.449
33395W        W98556   9.172  32.044   3.628
33396W        W98557   7.729  32.841  13.945
33397W        W98558   9.375  26.247  14.822
33398W        W98559  10.466  30.835   4.253
33399W        W98560  43.264  42.841   0.920
33400W        W98561  33.222   0.795   4.552
33401W        W98562   2.932  19.507  11.454
33402W        W98563   1.728  12.789  11.982
33403W        W98564  37.827  16.196  11.119
33404W        W98565  36.596  25.273   0.714
33405W        W98566   7.856  40.896  12.360
33406W        W98567   9.482   3.214  13.750
33407W        W98568  42.838  30.644   0.897
33408W        W98569  22.705  43.940   3.193
33409W        W98570  37.893  25.557  14.239
33410W        W98571   5.763  18.080  11.531
33411W        W98572  40.606  38.340  10.782
33412W        W98573  35.321  36.353  13.837
33413W        W98574  22.431  42.984  13.508
33414W        W98575  38.415  35.591  11.438
33415W        W98576  27.544  38.470  14.557
33416W        W98577   9.901   4.354   4.129
33417W        W98578  38.089   0.399  11.373
33418W        W98579  27.744  29.819   4.660
33419W        W98580   7.415  38.203  11.125
33420W        W98581   0.231   6.370  14.565
33421W        W98582  23.623  28.640  13.569
33422W        W98583  37.910  40.552   1.032
33423W        W98584  25.388  21.584   2.267
33424W        W98585  41.822  42.433  10.623
33425W        W98586  14.305   3.229   2.349
33426W        W98587  39.884  27.076   1.156
33427W        W98588  34.947   2.659   3.250
33428W        W98589   6.408  37.322  12.151
33429W        W98590   6.393   3.399   0.354
33430W        W98591  25.067  18.385   0.271
33431W        W98592   2.202  37.500   0.417
33432W        W98593  41.791  27.679   1.288
33433W        W98594  14.687  36.877  10.794
33434W        W98595   2.022   0.476   0.910
33435W        W98596   2.346   6.337  13.561
33436W        W98597  43.687  10.073   4.373
33437W        W98598   3.009  12.740   1.291
33438W        W98599   0.498   4.903   0.766
33439W        W98600  21.048  38.108  10.440
33440W        W98601  21.463  14.752  14.949
33441W        W98602  23.768  10.940   5.260
33442W        W98603  22.236  34.401   2.343
33443W        W98604  18.742  25.767   2.856
33444W        W98605  25.554   2.195  12.647
33445W        W98606   6.882   0.693   1.890
33446W        W98607  11.357  23.683  11.994
33447W        W98608  35.158  24.933   1.819
33448W        W98609   2.780  29.765   2.275
33449W        W98610  44.449  22.263  13.925
33450W        W98611  32.384   3.246   2.453
33451W        W98612  41.692   7.714  10.713
33452W        W98613  24.412  15.770   2.528
33453W        W98614   8.590   6.313  11.684
33454W        W98615   3.233  17.546   4.444
33455W        W98616  19.666   4.192   3.101
33456W        W98617  44.200  24.552   1.821
33457W        W98618   5.981  27.516   0.873
33458W        W98619  36.347  11.350  13.006
33459W        W98620  40.089  14.895   3.436
33460W        W98621  18.037  28.986   0.259
33461W        W98622  42.415  26.734  14.579
33462W        W98623  43.377  21.566   1.696
33463W        W98624  34.044  26.084  12.372
33464W        W98625  29.321  33.979  13.840
33465W        W98626  29.604  15.248   2.294
33466W        W98627  13.285  35.342   4.630
33467W        W98628  18.077  39.885  12.087
33468W        W98629  31.077   6.448  11.175
33469W        W98630  42.456  32.132  11.536
33470W        W98631  31.312  33.436  11.932
33471W        W98632  26.134  29.516   3.895
33472W        W98633   4.389  33.835  14.298
33473W        W98634  24.431   9.868   1.485
33474W        W98635  30.450  22.074  12.874
33475W        W98636  35.017  15.647   0.895
33476W        W98637  31.088  15.685  12.884
33477W        W98638  21.119  35.148   4.868
33478W        W98639   2.048  11.297  14.742
33479W        W98640   3.756  16.522  10.673
33480W        W98641  34.892  43.652   3.363
33481W        W98642  26.179  14.720  13.281
33482W        W98643  11.926   3.443   1.902
33483W        W98644   0.923   5.746  10.073
33484W        W98645   3.264   6.332   1.165
33485W        W98646  35.701  15.144   3.883
33486W        W98647  25.821  12.111  13.677
33487W        W98648  21.327   0.113   5.045
33488W        W98649  28.610  27.124  12.900
33489W        W98650  17.504  20.005  14.475
33490W        W98651  13.314  42.285   0.202
33491W        W98652  37.038   5.703   3.772
33492W        W98653  33.766  43.587   1.992
33493W        W98654  25.527  23.579   3.295
33494W        W98655  40.658  15.887  11.052
33495W        W98656  28.208  32.996   4.589
33496W        W98657   2.796  44.402   4.803
33497W        W98658  21.521  10.751  12.081
33498W        W98659  35.087  16.818   0.329
33499W        W98660   3.300   4.847   4.704
33500W        W98661  29.874   1.775  12.384
33501W        W98662  43.405  33.223  14.166
33502W        W98663  18.313   9.313   2.218
33503W        W98664  44.085   3.170   0.450
33504W        W98665   4.698  20.020   1.761
33505W        W98666  15.090  39.852  14.894
33506W        W98667  22.187  11.419   4.982
33507W        W98668   0.447  42.626   4.091
33508W        W98669  24.696  16.086  12.531
33509W        W98670   0.966  39.477   1.986
33510W        W98671   5.811   4.497  12.036
33511W        W98672  40.342  27.684  10.722
33512W        W98673  29.911  19.188  13.812
33513W        W98674   3.363  22.634  13.856
33514W        W98675  21.184  39.910  14.199
33515W        W98676  15.203  34.049   1.179
33516W        W98677   3.622  25.718  12.648
33517W        W98678  12.705  13.614   1.293
33518W        W98679  35.435  37.815  14.992
33519W        W98680  10.582  31.566  14.774
33520W        W98681  40.199  11.187  13.020
33521W        W98682  37.067  36.576   2.989
33522W        W98683  25.805  10.334  13.805
33523W        W98684  17.492  15.127  13.632
33524W        W98685   6.376  37.518   1.374
33525W        W98686   9.257  34.514   3.397
33526W        W98687   7.331  42.058  11.950
33527W        W98688  42.102   2.385   0.971
33528W        W98689  40.861   3.006   2.667
33529W        W98690  28.994  10.107   0.087
33530W        W98691  38.937  17.373   0.509
33531W        W98692  27.204  19.971  12.590
33532W        W98693  15.708  28.632  14.518
33533W        W98694  20.332  13.166   4.593
33534W        W98695  31.534   4.207  14.864
33535W        W98696  13.337  37.244  13.542
33536W        W98697  32.355  13.097  14.832
33537W        W98698  14.709  27.160   2.438
33538W        W98699   4.852  44.689   1.143
33539W        W98700   2.367   3.191  10.923
33540W        W98701  37.548  44.246  13.912
33541W        W98702  18.554  17.646   4.652
33542W        W98703  39.592  13.244  10.690
33543W        W98704   5.431  41.417  11.690
33544W        W98705  18.408   9.320  14.916
33545W        W98706  31.873  10.912  14.893
33546W        W98707  10.830  14.287   1.805
33547W        W98708  40.849  13.849   3.980
33548W        W98709  11.193   5.206  12.843
33549W        W98710  20.615  39.252   3.220
33550W        W98711  44.853  22.586   4.295
33551W        W98712  15.556  37.917   3.633
33552W        W98713   6.858  19.692  14.625
33553W        W98714   8.686  24.650   3.000
33554W        W98715   7.214   7.621   2.696
33555W        W98716  19.863  42.519  10.296
33556W        W98717   6.202  36.013  14.468
33557W        W98718  31.858  12.480   2.946
33558W        W98719  42.765   5.962   0.582
33559W        W98720  22.720  30.400  13.900
33560W        W98721   4.196  22.143   4.198
33561W        W98722  34.559  39.597   1.453
33562W        W98723  18.216  24.035  14.064
33563W        W98724  15.591  31.391  14.378
33564W        W98725  10.053  32.891  13.138
33565W        W98726  20.035   2.256   0.010
33566W        W98727   4.864   9.874  11.122
33567W        W98728  31.317   8.837  10.559
33568W        W98729   2.161   1.981   2.261
33569W        W98730  17.602  37.920  10.625
33570W        W98731  37.161  18.680  10.656
33571W        W98732  11.881  40.446  12.013
33572W        W98733  24.182   3.990   4.442
33573W        W98734  39.333  14.436  13.471
33574W        W98735  17.389  18.631   4.533
33575W        W98736   5.748   0.029   0.834
33576W        W98737  27.796  37.356   2.107
33577W        W98738  28.275  15.412   1.488
33578W        W98739   6.228  43.443  10.936
33579W        W98740  44.396   1.494   2.432
33580W        W98741  19.114  10.382  14.479
33581W        W98742  22.139   4.361  12.571
33582W        W98743   5.897   3.755  10.611
33583W        W98744   8.803  33.111  14.344
33584W        W98745  13.088  40.629   4.474
33585W        W98746  23.080  14.550   5.108
33586W        W98747  42.975   3.491  13.833
33587W        W98748   3.567  39.944  12.623
33588W        W98749  25.500  26.864   5.057
33589W        W98750  26.905  12.286   0.881
33590W        W98751  31.973  30.185  12.880
33591W        W98752  24.510   5.808   0.035
33592W        W98753   2.512  35.558  13.959
33593W        W98754  15.123  42.067  11.096
33594W        W98755  30.665   1.967   0.424
33595W        W98756  39.938  12.825  10.724
33596W        W98757  22.261   8.266  14.295
33597W        W98758  11.315  34.486   0.432
33598W        W98759  25.140  32.932   0.870
33599W        W98760  11.693  40.858   2.239
33600W        W98761  17.740  18.295   0.690
33601W        W98762  19.665  38.594   1.863
33602W        W98763  22.482  20.305   4.140
33603W        W98764  34.447  36.330   3.346
33604W        W98765  22.802   7.865   1.682
33605W        W98766  17.254  17.800  10.633
33606W        W98767  37.317  21.400  11.548
33607W        W98768  21.724  40.934  12.529
33608W        W98769  13.535  26.518  14.769
33609W        W98770  43.174  24.690   1.832
33610W        W98771  25.070  25.068  13.115
33611W        W98772  33.418   7.078  10.780
33612W        W98773  44.318   0.591   1.340
33613W        W98774  13.788  41.350  11.925
33614W        W98775  20.069   7.282  11.137
33615W        W98776  23.224  43.283   3.619
33616W        W98777   8.146  22.049   1.279
33617W        W98778  38.585  34.529  13.328
33618W        W98779  18.226  34.913   3.315
33619W        W98780  38.499  44.732   4.591
33620W        W98781   6.216  44.339  11.544
33621W        W98782  26.138  18.346   1.932
33622W        W98783  28.425  11.321  12.868
33623W        W98784  34.438   4.023   1.184
33624W        W98785  17.309   1.864   2.086
33625W        W98786  37.148   4.818  11.994
33626W        W98787   0.819  44.064  13.120
33627W        W98788  13.785  42.608   4.779
33628W        W98789  19.677  39.619  13.430
33629W        W98790   1.412  41.956   0.736
33630W        W98791  27.451  19.608   1.330
33631W        W98792  29.476   4.777   1.827
33632W        W98793  14.035  37.537  11.262
33633W        W98794   3.443   1.892  10.638
33634W        W98795  21.206  37.072   1.626
33635W        W98796   7.262  37.341  13.084
33636W        W98797  17.040   4.808  12.147
33637W        W98798  10.276  41.430   2.788
33638W        W98799  34.371  44.695   0.422
33639W        W98800  33.424  36.595  14.171
33640W        W98801  44.641  23.485  14.717
33641W        W98802  20.572  41.941   0.893
33642W        W98803  13.521  10.221   4.110
33643W        W98804  18.301  15.387   3.490
33644W        W98805   8.232  41.324   3.558
33645W        W98806  16.880   3.003   3.335
33646W        W98807  16.755  36.431   1.797
33647W        W98808  29.501  10.443  13.112
33648W        W98809  29.190  11.623   1.816
33649W        W98810  22.275  25.405  14.374
33650W        W98811   4.683   6.304   3.032
33651W        W98812  44.052  43.791   0.349
33652W        W98813  12.491  36.637  12.467
33653W        W98814   5.134  21.261  14.449
33654W        W98815  16.721   6.085  11.555
33655W        W98816  24.758   1.493   1.392
33656W        W98817  43.488   5.738   4.527
33657W        W98818  38.358  31.297   0.796
33658W        W98819  25.012  15.146   0.007
33659W        W98820   1.237   2.272   1.963
33660W        W98821  42.914  12.041  11.511
33661W        W98822   3.430  35.459   4.799
33662W        W98823  24.126  14.610  11.593
33663W        W98824   5.693  40.997   3.653
33664W        W98825   3.696  32.124   3.807
33665W        W98826  10.433  40.350  12.117
33666W        W98827   5.735  35.110   0.472
33667W        W98828  32.588  43.896  14.739
33668W        W98829   9.934  38.090   1.861
33669W        W98830   4.257   2.037  11.189
33670W        W98831  15.772  16.335   0.289
33671W        W98832   5.910  44.538   0.885
33672W        W98833  41.463  29.091  13.770
33673W        W98834  30.634  24.651  12.517
33674W        W98835  29.354  33.577  14.605
33675W        W98836  17.574  11.901  10.406
33676W        W98837  39.906   9.734   4.365
33677W        W98838  32.904  28.544   1.368
33678W        W98839  19.747  43.936   0.219
33679W        W98840  19.587  26.159  11.633
33680W        W98841  30.105  14.447   2.083
33681W        W98842  21.269  21.750   0.825
33682W        W98843  24.682  33.850   4.087
33683W        W98844  24.759  40.108  10.945
33684W        W98845  12.099  43.495  12.432
33685W        W98846  33.034  13.841  10.649
33686W        W98847   6.274   2.368  13.276
33687W        W98848   9.098  34.088  14.858
33688W        W98849   6.410  40.548  14.891
33689W        W98850   3.714  16.191   1.420
33690W        W98851  25.737   6.544  11.942
33691W        W98852  24.614  33.836  12.263
33692W        W98853   0.582  38.603   3.283
33693W        W98854  17.105  12.267   4.648
33694W        W98855  41.916  25.207  13.830
33695W        W98856  13.857  32.763   2.306
33696W        W98857  22.100  17.554  11.707
33697W        W98858  31.478  23.669   3.513
33698W        W98859  13.537  19.489   1.867
33699W        W98860   9.294  28.058  12.003
33700W        W98861  10.902  24.737  12.531
33701W        W98862  41.814   0.566  12.847
33702W        W98863  11.850  32.144   3.263
33703W        W98864  17.878  17.560  14.807
33704W        W98865  18.549  36.363  11.265
33705W        W98866  34.578  22.804   3.597
33706W        W98867  21.312  21.425  12.491
33707W        W98868  19.530   6.322   3.170
33708W        W98869  13.056   5.461  14.323
33709W        W98870  37.409  40.998   3.476
33710W        W98871  15.718  31.575   2.814
33711W        W98872   6.500  19.618  10.783
33712W        W98873   5.245  10.217  10.933
33713W        W98874  30.897  23.305  12.073
33714W        W98875  14.687  33.453  12.716
33715W        W98876   7.923  13.434  12.319
33716W        W98877  42.048  41.457  14.370
33717W        W98878  24.261  22.496   1.344
33718W        W98879   4.865  27.604   3.153
33719W        W98880  39.657  42.191   0.998
33720W        W98881   7.431  41.268  13.498
33721W        W98882  22.943  41.797   2.795
33722W        W98883  23.752   2.742   2.403
33723W        W98884  33.895  19.198   4.533
33724W        W98885  27.349  12.500   9.857
33725W        W98886  24.559  24.704  12.110
33726W        W98887   0.282  23.528   1.188
33727W        W98888  13.614  28.102   4.806
33728W        W98889  37.606  10.923   3.813
33729W        W98890  15.555  21.167  11.869
33730W        W98891  35.622  32.709   0.826
33731W        W98892   7.669  18.899  11.980
33732W        W98893   1.386  44.314   2.167
33733W        W98894  33.289  39.472   1.226
33734W        W98895  34.561  26.121   0.276
33735W        W98896   5.197   0.859  10.650
33736W        W98897  28.235  41.327  11.166
33737W        W98898  33.905  16.726   3.208
33738W        W98899  34.930   8.782   9.995
33739W        W98900  31.470   9.172   1.798
33740W        W98901  32.826  36.350  10.313
33741W        W98902  25.225   5.290   1.636
33742W        W98903   9.366  23.769  12.573
33743W        W98904  13.535  24.690  13.002
33744W        W98905  28.006  39.659   2.762
33745W        W98906  24.025  41.412   3.208
33746W        W98907  39.820  14.784  12.025
33747W        W98908  38.002  35.542  12.644
33748W        W98909  11.365  10.790  10.652
33749W        W98910  14.166   8.836   3.180
33750W        W98911  23.182  27.170   3.961
33751W        W98912  34.672   8.332   4.130
33752W        W98913  16.799  23.680  13.432
33753W        W98914   9.655   3.833   2.159
33754W        W98915  39.129   0.600  14.396
33755W        W98916  35.019  13.196   1.868
33756W        W98917   8.913  17.119   3.204
33757W        W98918   2.763  38.044  13.896
33758W        W98919  40.416   1.630  12.261
33759W        W98920  21.984  17.352  13.584
33760W        W98921  10.605   6.252   3.170
33761W        W98922  23.027  42.519   0.809
33762W        W98923  15.608  41.458   3.274
33763W        W98924   8.083  30.122   4.539
33764W        W98925   8.649  20.227  10.944
33765W        W98926   7.866   4.006   4.204
33766W        W98927  30.467  34.858  14.858
33767W        W98928  31.318  25.222  14.002
33768W        W98929  24.062  43.707   2.675
33769W        W98930  27.042  40.953  13.074
33770W        W98931   2.860   4.846   1.351
33771W        W98932  31.956   5.198  14.820
33772W        W98933  34.830   7.670  13.109
33773W        W98934   6.672  18.626  13.898
33774W        W98935  38.402   7.157   1.325
33775W        W98936  24.132  17.778  14.924
33776W        W98937   8.792  40.459  12.686
33777W        W98938  34.402   2.581   1.225
33778W        W98939   9.104   1.464  12.919
33779W        W98940  15.022   4.443  13.989
33780W        W98941  25.078  10.635  14.909
33781W        W98942  25.217  20.634  12.934
33782W        W98943  43.459   2.837   2.416
33783W        W98944  25.761  35.961  14.834
33784W        W98945  40.939  42.477   3.108
33785W        W98946  44.688  10.509   9.733
33786W        W98947   8.925   8.363   2.149
33787W        W98948  33.149  18.234   2.853
33788W        W98949   5.319  34.038   2.254
33789W        W98950   4.293   8.816   3.374
33790W        W98951  18.226  18.279   1.245
33791W        W98952  20.460  44.933  14.643
33792W        W98953  37.561  39.448   4.350
33793W        W98954  27.700  22.867   4.571
33794W        W98955  37.383  14.648   0.380
33795W        W98956   2.557  29.579   4.513
33796W        W98957  31.488  15.892  12.147
33797W        W98958   4.986  35.030   1.283
33798W        W98959  26.540  34.660   1.194
33799W        W98960  41.142  30.634  12.098
33800W        W98961  30.306  32.716  13.709
33801W        W98962  15.780   3.340  12.172
33802W        W98963   7.818  24.832  13.744
33803W        W98964  35.584   9.223   0.813
33804W        W98965  37.433  10.819   2.351
33805W        W98966  44.263  44.096   4.663
33806W        W98967  36.715   3.941  13.939
33807W        W98968  41.385   6.924  13.962
33808W        W98969  13.203  28.961   4.143
33809W        W98970  30.611  38.717   4.035
33810W        W98971  11.521  13.945  12.005
33811W        W98972   9.258   7.447   3.355
33812W        W98973   8.764  36.328   0.726
33813W        W98974   3.422  26.891  13.118
33814W        W98975  21.169  35.955  11.584
33815W        W98976  28.708   1.853  11.533
33816W        W98977   6.746  44.926   0.457
33817W        W98978  18.762  18.516  11.120
33818W        W98979   4.443  41.652  13.812
33819W        W98980  25.133  11.077  14.534
33820W        W98981  38.932  32.856   3.094
33821W        W98982  33.055   1.244  14.820
33822W        W98983  41.242  27.570  13.093
33823W        W98984  29.109  14.813   2.217
33824W        W98985  37.466  41.476  11.126
33825W        W98986  18.276  35.928   1.301
33826W        W98987   8.837  41.009   3.331
33827W        W98988  38.374   8.774  14.735
33828W        W98989   5.323  43.926   0.733
33829W        W98990   9.900   1.783   0.790
33830W        W98991  23.689  27.487  11.222
33831W        W98992   4.857  29.320  14.859
33832W        W98993  20.071  22.743   1.933
33833W        W98994  35.083  25.651  10.644
33834W        W98995   1.564  27.175   3.038
33835W        W98996  31.564  18.125   3.938
33836W        W98997  21.262   0.666  12.092
33837W        W98998  16.822   2.251   2.799
33838W        W98999  33.815   7.666  11.581
33839W        W99000  13.116  28.429   0.901
33840W        W99001  22.773  22.722   1.211
33841W        W99002   7.777  28.444  11.578
33842W        W99003  21.949   1.995   4.984
33843W        W99004   4.422  14.332  13.302
33844W        W99005  26.274  29.913   4.532
33845W        W99006  42.980  18.220   1.138
33846W        W99007  33.843  30.114   4.600
33847W        W99008   9.846  44.420   2.676
33848W        W99009  35.054  35.577   1.308
33849W        W99010  22.749  38.834   4.164
33850W        W99011  37.191  20.001   0.723
33851W        W99012  11.685  24.800   4.382
33852W        W99013  38.096  27.487   0.822
33853W        W99014   0.399  42.531   2.196
33854W        W99015  37.875   3.099  11.455
33855W        W99016  11.902  42.321  14.784
33856W        W99017   8.494  42.001   0.145
33857W        W99018  36.314  23.188  13.783
33858W        W99019  33.044  11.568  12.529
33859W        W99020  11.328   8.897  14.291
33860W        W99021   2.733   4.900   3.177
33861W        W99022  34.302   5.099   0.917
33862W        W99023   0.854  44.509  13.369
33863W        W99024  14.095  36.308  10.822
33864W        W99025  42.281   6.816   3.314
33865W        W99026  38.327  27.868  14.363
33866W        W99027   6.575  10.911   2.493
33867W        W99028  22.108  35.143  12.151
33868W        W99029  10.920  37.855   3.808
33869W        W99030  44.802  11.407   0.348
33870W        W99031  26.618  25.108  13.895
33871W        W99032  32.389  17.045   1.289
33872W        W99033  26.278   6.504   4.794
33873W        W99034  13.745  23.621   2.791
33874W        W99035   8.754  29.819  13.096
33875W        W99036  15.876  44.226   1.410
33876W        W99037   2.827  30.897  10.786
33877W        W99038  35.206  16.204  14.377
33878W        W99039   3.045  20.903   2.746
33879W        W99040  33.524  18.362  14.735
33880W        W99041  39.532   0.995   2.806
33881W        W99042  38.857  42.409   0.656
33882W        W99043  19.462  15.324   0.740
33883W        W99044  38.304  20.056  12.592
33884W        W99045  34.345  39.385   2.305
33885W        W99046   7.427  39.533  12.799
33886W        W99047   5.046  22.049   2.250
33887W        W99048  39.750  38.856  12.420
33888W        W99049  34.976  27.515  11.165
33889W        W99050   8.455  17.250  14.817
33890W        W99051  21.021  13.187  14.898
33891W        W99052  10.666   3.725   3.680
33892W        W99053  18.247  30.017  13.888
33893W        W99054  32.156   3.293  12.349
33894W        W99055   6.890   3.723  11.873
33895W        W99056   4.501  11.385  14.037
33896W        W99057  16.668  23.548  14.340
33897W        W99058   2.957  19.620   2.696
33898W        W99059  25.999  26.017   3.310
33899W        W99060  21.777  18.097  14.791
33900W        W99061  24.555  10.428  13.394
33901W        W99062  28.390  30.838   4.102
33902W        W99063   4.370   7.132  12.617
33903W        W99064  42.364  37.777  13.851
33904W        W99065  23.917  36.340   3.348
33905W        W99066   6.673  37.038   2.361
33906W        W99067  10.430  34.527   2.632
33907W        W99068  19.811   8.045   3.793
33908W        W99069   9.770   1.211  14.909
33909W        W99070  17.497  42.460   4.434
33910W        W99071   0.710  26.661  12.435
33911W        W99072  40.119   8.877   1.196
33912W        W99073  22.036   2.904  12.032
33913W        W99074  12.423   3.258   2.703
33914W        W99075  22.335  42.838   4.991
33915W        W99076  17.695  22.798  11.636
33916W        W99077  24.464   5.377   0.321
33917W        W99078   7.305  19.141   3.901
33918W        W99079  33.528  26.022   2.728
33919W        W99080   9.339  36.946  13.748
33920W        W99081  41.175  15.792   0.138
33921W        W99082  22.039  31.989  12.109
33922W        W99083   6.815   9.242  13.394
33923W        W99084  39.124   8.770   1.004
33924W        W99085   4.748  24.298   0.669
33925W        W99086   7.377  43.706   3.698
33926W        W99087  43.857  11.301  13.829
33927W        W99088  31.599  42.336   3.713
33928W        W99089  31.125  34.794  11.235
33929W        W99090  36.568  14.659  11.140
33930W        W99091  11.170  44.592  13.900
33931W        W99092  41.030  28.149  11.771
33932W        W99093  15.304  23.084   1.332
33933W        W99094  30.002  12.332   3.257
33934W        W99095  19.795  37.525   2.220
33935W        W99096  27.545  35.499   1.318
33936W        W99097   9.592   9.650  11.241
33937W        W99098  18.707  29.960   3.615
33938W        W99099  39.247  32.680  10.309
33939W        W99100  24.544  43.280   2.184
33940W        W99101  19.867  20.155  12.445
33941W        W99102  22.564  43.955   2.256
33942W        W99103   9.262  18.354   0.342
33943W        W99104  35.793   3.356   1.211
33944W        W99105  11.016  33.417   2.620
33945W        W99106  33.068  13.044  12.182
33946W        W99107  36.553  17.253   1.741
33947W        W99108  15.540  22.138   0.233
33948W        W99109   1.675   5.892   1.781
33949W        W99110  31.518  15.568  12.573
33950W        W99111   3.809  42.479   3.220
33951W        W99112  39.096  21.654   0.445
33952W        W99113  23.958  42.985  14.897
33953W        W99114  16.005   1.909   2.553
33954W        W99115  11.415  35.303   0.103
33955W        W99116   6.868   6.963  13.795
33956W        W99117  44.746  24.514   1.795
33957W        W99118  33.345   3.547   2.891
33958W        W99119  28.626  38.201   0.264
33959W        W99120  26.683   4.173   4.057
33960W        W99121  11.372  29.161   2.789
33961W        W99122  39.004  26.002   3.236
33962W        W99123  11.462  42.366   0.424
33963W        W99124  31.885  40.785   3.655
33964W        W99125  17.403  14.253  12.489
33965W        W99126   2.418  42.867   3.605
33966W        W99127  27.635  10.752   3.593
33967W        W99128  27.500  12.596  11.197
33968W        W99129  19.585  20.918  14.357
33969W        W99130  19.724  22.911  11.928
33970W        W99131  25.563  31.718   0.853
33971W        W99132  18.039   2.492  12.689
33972W        W99133  11.817  25.143  13.867
33973W        W99134   7.159  44.104  10.972
33974W        W99135  30.669  20.672   0.272
33975W        W99136  33.033  24.247   1.435
33976W        W99137  17.090  30.192   1.952
33977W        W99138  26.525  14.612   4.601
33978W        W99139  33.353  36.085   3.471
33979W        W99140   3.408   2.377   0.786
33980W        W99141  29.861  42.363  14.891
33981W        W99142  10.413   6.854   1.747
33982W        W99143  21.682  28.685   3.173
33983W        W99144  13.667   9.408   4.338
33984W        W99145   2.389  10.884  14.883
33985W        W99146  27.704  24.128   4.425
33986W        W99147  10.436   8.768   1.457
33987W        W99148  30.351  36.652   5.056
33988W        W99149   1.795  12.590  14.758
33989W        W99150  26.323   0.922   2.937
33990W        W99151  28.600  25.594   0.769
33991W        W99152  17.819   2.932  12.852
33992W        W99153  24.775  23.848   1.332
33993W        W99154  23.575  36.279  14.211
33994W        W99155   6.170  37.681  12.488
33995W        W99156  19.268  31.829   2.371
33996W        W99157   4.614  19.506   4.093
33997W        W99158  19.253  33.629  14.303
33998W        W99159   6.308  27.797   2.890
33999W        W99160   8.583  17.015  11.345
34000W        W99161  13.142  36.332  13.317
34001W        W99162   7.943  20.935  14.304
34002W        W99163   9.054   7.425  10.727
34003W        W99164   9.748  22.599   1.920
34004W        W99165   2.282  28.376  14.966
34005W        W99166   2.638  22.124   2.197
34006W        W99167  34.617  16.708   1.344
34007W        W99168  36.327  32.359   0.380
34008W        W99169   8.416  21.238   4.952
34009W        W99170  26.780   0.590  14.030
34010W        W99171  21.316  37.016  12.057
34011W        W99172  15.036  27.015  13.015
34012W        W99173  21.451  24.626   0.817
34013W        W99174  16.847  16.843  11.715
34014W        W99175  30.969  11.488  13.326
34015W        W99176  38.797  28.479  14.355
34016W        W99177  10.280  37.092   4.115
34017W        W99178   4.481  19.334  12.067
34018W        W99179  16.885  15.816  12.487
34019W        W99180  28.627  25.051   0.002
34020W        W99181  41.757  38.895  14.911
34021W        W99182  24.412  17.192   2.414
34022W        W99183  15.237   9.312  14.305
34023W        W99184   6.922   9.469   1.497
34024W        W99185  19.346  32.671  14.775
34025W        W99186  23.123  44.367  12.609
34026W        W99187  17.055  37.609  11.057
34027W        W99188  13.564  24.511  14.851
34028W        W99189  40.294  21.704  12.640
34029W        W99190  20.181  36.833   1.780
34030W        W99191  23.499  16.708  13.685
34031W        W99192  32.556  41.282   2.933
34032W        W99193  18.150  13.072   2.915
34033W        W99194   6.932  20.546  12.392
34034W        W99195  38.958  22.418  10.310
34035W        W99196  17.847   2.866  11.881
34036W        W99197  10.330   8.239  13.916
34037W        W99198  23.284   7.295   2.701
34038W        W99199  41.839  14.545  12.234
34039W        W99200   6.424  39.266  12.606
34040W        W99201  15.374  29.950  13.316
34041W        W99202  39.384  39.792  11.106
34042W        W99203   8.562  30.922   1.783
34043W        W99204  24.139  18.824   0.730
34044W        W99205   0.589  31.113  14.418
34045W        W99206  44.351  25.140  10.743
34046W        W99207  19.358  24.577  10.923
34047W        W99208  34.355  37.566  11.955
34048W        W99209  30.927  34.525  14.463
34049W        W99210  27.202  23.507   1.536
34050W        W99211  38.325  16.594  11.948
34051W        W99212  24.717  41.553   1.132
34052W        W99213  29.216  18.583  12.857
34053W        W99214  41.348   0.841  13.843
34054W        W99215  12.313  16.182  12.957
34055W        W99216   4.344   5.351  12.015
34056W        W99217   3.727  14.997   4.552
34057W        W99218  16.510  40.769  12.855
34058W        W99219   6.147  16.318  11.620
34059W        W99220  30.954  20.115  13.500
34060W        W99221   2.285  16.869   2.747
34061W        W99222  30.985  21.274  11.930
34062W        W99223  22.320   9.359   0.761
34063W        W99224  18.681  22.077  13.859
34064W        W99225  37.802  26.288  11.141
34065W        W99226  18.682  31.011   0.220
34066W        W99227  39.384  34.003   2.739
34067W        W99228  32.482   5.858   0.228
34068W        W99229  22.657   5.203  14.636
34069W        W99230  27.201  17.777  10.722
34070W        W99231  25.167  29.617   2.326
34071W        W99232  18.498  35.441   1.267
34072W        W99233  29.453  31.993  13.623
34073W        W99234  19.273   0.262  14.334
34074W        W99235  21.163  28.064   4.535
34075W        W99236   4.501   5.355   3.138
34076W        W99237  39.781  24.240  14.430
34077W        W99238  28.147  35.289  12.489
34078W        W99239  28.516  16.252   3.230
34079W        W99240  31.778  31.716   2.919
34080W        W99241  24.458   0.985   3.943
34081W        W99242   1.647  18.380  14.197
34082W        W99243  27.887  36.426   4.060
34083W        W99244  40.957   1.727  13.698
34084W        W99245  35.174  37.784   3.587
34085W        W99246  24.492   6.501  12.276
34086W        W99247  15.901   7.016  14.387
34087W        W99248  10.336  20.172   4.138
34088W        W99249  38.363   3.434   3.687
34089W        W99250  26.522  28.924  11.135
34090W        W99251   0.993  43.746   1.796
34091W        W99252  33.305   9.423   3.141
34092W        W99253  18.657  39.674  14.966
34093W        W99254  35.648  19.257  14.089
34094W        W99255  43.790  13.136   3.059
34095W        W99256   9.725  27.129  10.676
34096W        W99257  41.951  35.613  10.629
34097W        W99258  37.907  16.007   2.813
34098W        W99259  32.490  16.907  13.198
34099W        W99260  33.918  17.977  13.540
34100W        W99261  26.627  19.244  12.504
34101W        W99262  15.112   6.798   0.915
34102W        W99263   8.286  17.461   4.718
34103W        W99264   3.734  34.023   3.934
34104W        W99265   0.732   7.008  12.895
34105W        W99266   8.328   8.820   0.992
34106W        W99267  41.439  23.872  14.830
34107W        W99268  33.109  23.466   2.821
34108W        W99269   8.921  28.323  14.278
34109W        W99270  37.767  26.858  12.015
34110W        W99271  19.208  23.142   2.408
34111W        W99272  33.902   0.788   1.139
34112W        W99273   7.244  32.556  14.814
34113W        W99274  12.092  41.735  12.408
34114W        W99275  37.062   3.135   1.143
34115W        W99276  23.636  10.174   2.831
34116W        W99277   2.413   2.655   1.780
34117W        W99278  29.428  27.058  11.037
34118W        W99279   4.078  27.382   5.015
34119W        W99280  42.778   6.826  10.707
34120W        W99281   7.805  19.196   0.522
34121W        W99282  25.664  17.085   0.653
34122W        W99283  44.811   0.051  11.388
34123W        W99284  41.816   1.015   1.834
34124W        W99285  25.802  43.171  14.928
34125W        W99286   6.719  24.260  14.473
34126W        W99287   9.338  32.456  11.666
34127W        W99288  20.820  16.687  14.051
34128W        W99289  34.812  43.433  14.892
34129W        W99290  39.470  44.336  10.269
34130W        W99291  36.459  32.773  13.617
34131W        W99292  41.550  29.704  13.518
34132W        W99293  11.189  40.648  14.968
34133W        W99294  41.774   7.343   3.851
34134W        W99295  44.333  24.090  11.505
34135W        W99296   9.234  34.915   2.607
34136W        W99297  27.186   5.785   2.361
34137W        W99298  34.428  20.735   1.240
34138W        W99299  13.439  19.027  12.910
34139W        W99300  29.242  11.395   0.032
34140W        W99301  11.360  27.085  13.898
34141W        W99302  30.850  18.373   1.236
34142W        W99303  29.112   9.782   2.181
34143W        W99304   5.679  34.392  13.982
34144W        W99305  26.275  31.236  11.550
34145W        W99306  38.034  30.219   2.684
34146W        W99307  34.276  17.077  13.129
34147W        W99308  31.239   9.081  14.426
34148W        W99309   3.224   8.349  14.755
34149W        W99310  36.599  37.798   2.352
34150W        W99311   8.430  10.056   2.911
34151W        W99312  40.713  10.779   4.363
34152W        W99313  32.289  37.690   0.194
34153W        W99314  19.756  18.371   2.588
34154W        W99315  37.646  41.816  12.948
34155W        W99316   3.593  34.013  12.244
34156W        W99317  26.425   0.911  13.462
34157W        W99318  39.387  29.725   0.632
34158W        W99319  15.715   8.411  13.627
34159W        W99320   2.087  32.875   1.308
34160W        W99321  13.405  15.687   5.225
34161W        W99322  31.437   5.978  14.622
34162W        W99323   2.297  26.002   9.528
34163W        W99324   6.148   1.473  11.130
34164W        W99325  10.794   3.659   4.559
34165W        W99326  24.707  28.925   4.762
34166W        W99327  25.567  38.474   0.239
34167W        W99328  29.117  29.597  12.802
34168W        W99329  28.185  22.491   2.236
34169W        W99330  28.567  38.212   4.319
34170W        W99331   9.016  30.196  14.540
34171W        W99332   9.658  22.647  14.939
34172W        W99333  43.079  20.214   4.158
34173W        W99334  25.177  31.072   2.863
34174W        W99335  39.842  34.418  11.140
34175W        W99336  32.693  21.259  12.483
34176W        W99337  35.900  24.470  11.503
34177W        W99338  16.073   9.709  12.566
34178W        W99339  18.774  28.571   3.237
34179W        W99340  33.885  16.039  14.532
34180W        W99341  35.063   5.739  11.078
34181W        W99342  22.825  41.558   0.403
34182W        W99343  27.246   1.875   1.961
34183W        W99344   9.778   5.301  13.897
34184W        W99345  19.880  30.633   3.399
34185W        W99346  41.339  21.314   2.946
34186W        W99347   0.815  15.072  13.011
34187W        W99348  37.867   2.907  12.619
34188W        W99349  29.984   8.842  13.899
34189W        W99350  31.921  13.872   4.167
34190W        W99351   3.037  28.677   1.497
34191W        W99352  13.862   0.518   2.956
34192W        W99353  30.139  14.711   0.209
34193W        W99354   0.248  28.568  13.566
34194W        W99355  30.016  41.913   0.671
34195W        W99356   9.385  24.498   4.681
34196W        W99357   7.228   4.971  10.404
34197W        W99358  39.097  40.564  10.266
34198W        W99359  27.081  43.336  12.973
34199W        W99360  19.639  41.822  12.838
34200W        W99361  37.091  25.491   3.699
34201W        W99362  25.751  18.547   3.652
34202W        W99363  35.470  16.269   1.709
34203W        W99364  36.867  23.780   1.211
34204W        W99365  40.601  34.043  14.311
34205W        W99366  26.579   3.847   4.478
34206W        W99367   0.476  44.524   0.467
34207W        W99368  11.314  37.984  13.608
34208W        W99369  23.151   8.468   5.040
34209W        W99370   0.007  25.998   0.471
34210W        W99371  14.139  14.131  12.492
34211W        W99372  21.740  20.758  13.395
34212W        W99373  21.773   9.603   0.489
34213W        W99374  17.285   0.211  12.963
34214W        W99375   6.384  32.826  11.617
34215W        W99376   7.921  18.148  13.119
34216W        W99377  11.705  24.460  12.087
34217W        W99378  24.670  30.575  12.921
34218W        W99379  35.975   0.476  10.555
34219W        W99380  41.310  10.725   2.164
34220W        W99381  37.858  43.914   2.240
34221W        W99382  29.098  37.255   2.496
34222W        W99383  18.306   8.619  13.007
34223W        W99384  28.244  10.485  10.256
34224W        W99385  19.743  33.083   1.846
34225W        W99386  41.325  19.160   3.440
34226W        W99387   8.797  32.616  12.680
34227W        W99388  36.798   4.221   1.734
34228W        W99389  44.041  44.394   1.971
34229W        W99390   7.175  38.377   4.229
34230W        W99391  38.502  13.474  13.771
34231W        W99392  15.814  37.466  12.547
34232W        W99393  27.879  27.876   1.878
34233W        W99394  40.418   4.854   2.207
34234W        W99395  12.818   0.741   4.369
34235W        W99396  42.349  38.296  12.942
34236W        W99397  38.933  40.281   1.325
34237W        W99398  28.547   1.991  12.951
34238W        W99399  38.085  14.771  14.239
34239W        W99400   8.919  27.023   4.770
34240W        W99401   7.305   3.882   1.294
34241W        W99402  41.948  10.628   0.502
34242W        W99403   6.530  44.071   0.433
34243W        W99404   8.881  22.305   0.368
34244W        W99405  10.759  17.791   3.223
34245W        W99406   4.533  28.689  14.775
34246W        W99407   1.411   5.178   3.123
34247W        W99408  14.260  20.350  12.871
34248W        W99409  43.302  11.416   2.160
34249W        W99410   8.301  40.717  13.983
34250W        W99411  23.681  13.130   1.755
34251W        W99412  15.320  23.283  14.095
34252W        W99413  38.422  43.506   2.837
34253W        W99414  29.379  24.114   2.851
34254W        W99415  10.879  42.559  13.077
34255W        W99416   0.343  27.567   4.205
34256W        W99417   2.858  39.341   0.414
34257W        W99418  10.154  19.575   4.979
34258W        W99419  44.429  43.994  12.788
34259W        W99420  32.825  18.268  14.424
34260W        W99421  19.974  24.116  13.914
34261W        W99422  10.298  25.368   1.772
34262W        W99423  37.872   9.128   2.199
34263W        W99424  26.650  19.864  14.341
34264W        W99425  31.480   1.794  13.442
34265W        W99426  19.434  15.522   4.219
34266W        W99427  11.384  24.648  14.490
34267W        W99428  28.470  24.178  10.662
34268W        W99429  11.869  36.449   2.259
34269W        W99430   0.747  26.760   2.478
34270W        W99431  20.179  25.781   2.310
34271W        W99432  35.375  23.044  10.497
34272W        W99433  28.959  13.170  10.002
34273W        W99434  33.595   9.615   0.804
34274W        W99435  27.444  33.252   0.853
34275W        W99436   6.261  43.216   3.738
34276W        W99437  16.186  29.729   3.642
34277W        W99438   9.432  26.683  13.972
34278W        W99439   6.728  31.580  14.339
34279W        W99440  37.291  38.026   3.085
34280W        W99441   6.632  11.836   0.877
34281W        W99442   8.959   7.863   1.356
34282W        W99443  18.000  10.281   4.143
34283W        W99444   8.118   1.257   4.043
34284W        W99445  22.943  27.320   1.967
34285W        W99446  31.953  42.109   4.056
34286W        W99447  40.572  15.726  10.251
34287W        W99448  10.890  19.133   3.204
34288W        W99449  15.834  14.711   4.837
34289W        W99450  21.897  33.901   2.233
34290W        W99451  30.706  10.627   3.246
34291W        W99452  30.730  21.250  12.493
34292W        W99453  41.336  18.035  11.265
34293W        W99454  18.614  15.072  12.046
34294W        W99455  43.303   3.128  10.299
34295W        W99456   0.512  43.955   3.962
34296W        W99457  10.783  10.209  13.049
34297W        W99458   5.166  18.074  14.470
34298W        W99459  15.635  42.363   2.338
34299W        W99460  42.771  18.473  13.446
34300W        W99461  27.054   3.198   3.238
34301W        W99462  12.245  43.183  14.854
34302W        W99463  12.410   5.286   0.933
34303W        W99464  10.006  41.470   3.697
34304W        W99465  40.982  33.918   2.295
34305W        W99466  18.119  13.704   2.244
34306W        W99467  22.292  20.599  14.501
34307W        W99468  12.598  39.472  12.459
34308W        W99469  32.322  35.382  13.957
34309W        W99470  41.834  27.508   1.897
34310W        W99471  36.548   4.644  12.950
34311W        W99472  21.375  41.944  12.408
34312W        W99473  42.893  23.631   2.683
34313W        W99474  35.225  25.151  10.691
34314W        W99475  42.699  42.069  11.615
34315W        W99476  10.763   6.376  11.609
34316W        W99477  16.232  35.048   4.675
34317W        W99478  41.907  21.565  13.421
34318W        W99479  20.759  19.647   3.748
34319W        W99480   7.745   7.827   4.527
34320W        W99481  16.283   7.326   4.530
34321W        W99482   4.027   0.271  13.796
34322W        W99483  27.748  18.601   2.715
34323W        W99484  18.672  24.110   3.286
34324W        W99485  43.927  44.892   2.732
34325W        W99486   8.317  38.387  14.748
34326W        W99487   9.602  25.597  11.362
34327W        W99488  36.032  35.926  13.463
34328W        W99489  41.871  12.914   0.742
34329W        W99490  30.607  21.761   1.150
34330W        W99491  28.955  15.628  11.559
34331W        W99492  14.321   0.946  10.941
34332W        W99493  38.443  14.741  10.858
34333W        W99494  11.312  17.793   0.235
34334W        W99495  30.136   2.738  14.304
34335W        W99496  42.313  15.193   0.139
34336W        W99497  24.099  33.583  13.412
34337W        W99498  42.558  34.995   3.341
34338W        W99499  37.965  12.721  14.936
34339W        W99500  40.804  25.731  13.737
34340W        W99501  39.775   4.560  11.108
34341W        W99502   4.431   6.244   1.248
34342W        W99503  14.969  16.794   0.713
34343W        W99504  44.271  14.517  14.320
34344W        W99505   8.347  33.998   3.604
34345W        W99506  37.882  25.100   1.898
34346W        W99507   5.799  11.317  11.333
34347W        W99508  36.119  22.061  14.654
34348W        W99509  24.218  39.518  12.490
34349W        W99510  28.182  37.494  10.465
34350W        W99511   9.261  36.143  10.852
34351W        W99512   3.337  35.767   3.139
34352W        W99513  38.352  28.562  11.545
34353W        W99514  21.452  25.036  11.267
34354W        W99515   1.414  16.819  13.914
34355W        W99516  18.311   8.851   2.770
34356W        W99517   4.667   1.448  10.900
34357W        W99518  39.095  44.206   0.943
34358W        W99519  31.062  13.032   2.818
34359W        W99520  18.976  31.530   4.585
34360W        W99521  42.479  23.045  13.967
34361W        W99522  41.927  39.646   0.862
34362W        W99523   6.432  35.546  13.040
34363W        W99524  19.146  22.589   3.687
34364W        W99525   6.949  36.296   2.834
34365W        W99526  36.477   0.838   1.367
34366W        W99527  38.585  11.883   3.241
34367W        W99528  40.092  26.440  14.023
34368W        W99529  11.381  15.297   0.072
34369W        W99530  25.646  22.423  11.759
34370W        W99531  35.583  31.544  13.338
34371W        W99532  34.069  18.848  13.868
34372W        W99533  13.464  25.985   2.675
34373W        W99534  13.653  44.475   4.739
34374W        W99535   8.459  20.619  11.345
34375W        W99536  28.511   0.878  14.369
34376W        W99537  10.338  12.977   1.542
34377W        W99538   6.198  25.475   1.169
34378W        W99539  33.688  11.135   0.658
34379W        W99540  16.058  30.939  12.533
34380W        W99541  42.139   0.470   0.845
34381W        W99542  29.532   4.682  11.126
34382W        W99543   0.953  36.359  13.449
34383W        W99544  28.038  31.480   1.867
34384W        W99545  13.552   4.140  14.571
34385W        W99546  37.570  26.057  11.532
34386W        W99547  31.551  21.645   0.660
34387W        W99548  35.002  39.612  12.435
34388W        W99549   5.796  22.403   2.742
34389W        W99550  36.337   1.738   4.679
34390W        W99551  19.283  10.044  11.186
34391W        W99552  42.787  41.053  11.574
34392W        W99553  12.073  25.991  12.399
34393W        W99554  10.598  25.527  11.250
34394W        W99555   5.740  16.644   4.186
34395W        W99556  39.501  24.220   4.339
34396W        W99557   7.530  43.968  10.636
34397W        W99558  15.869  29.343   3.557
34398W        W99559   6.424   8.333   4.638
34399W        W99560  12.557   5.249   2.856
34400W        W99561  29.630  31.580  13.368
34401W        W99562  22.678  14.899   0.516
34402W        W99563  39.611  37.177   2.280
34403W        W99564  16.294  28.558   3.161
34404W        W99565  10.427  10.870   2.922
34405W        W99566  24.014  26.438  14.983
34406W        W99567  10.782  37.129   3.256
34407W        W99568  37.827   9.185  12.503
34408W        W99569  13.056  15.273  14.961
34409W        W99570  26.745  34.905   4.590
34410W        W99571  41.410  24.696  14.567
34411W        W99572  36.296   4.792   0.874
34412W        W99573  26.626  12.177  14.252
34413W        W99574  25.615  35.433   2.781
34414W        W99575  18.502   3.075  14.050
34415W        W99576   0.936  14.321   1.647
34416W        W99577   5.789  36.257  12.895
34417W        W99578  22.510  18.902   3.635
34418W        W99579  30.949  16.999   3.582
34419W        W99580  30.532  33.063  14.508
34420W        W99581  24.673   2.329  14.302
34421W        W99582   8.842   5.341  12.398
34422W        W99583  25.282  19.151   2.854
34423W        W99584  27.975  30.385   0.571
34424W        W99585  14.436  36.236   2.293
34425W        W99586  18.096   5.672   3.282
34426W        W99587  24.626  18.780  12.147
34427W        W99588  30.889  10.220   3.946
34428W        W99589  16.337  22.522   2.814
34429W        W99590  25.233  41.946  11.062
34430W        W99591  35.970  38.390  13.495
34431W        W99592  23.679  31.125   0.741
34432W        W99593  30.094   0.930   3.379
34433W        W99594   4.937  20.346  14.330
34434W        W99595  43.418  35.048   5.109
34435W        W99596  36.494   0.716  13.073
34436W        W99597  39.110  38.934   4.373
34437W        W99598  30.102  43.337  13.129
34438W        W99599  19.008  35.804   4.622
34439W        W99600  42.068   6.953   1.652
34440W        W99601  13.224  42.448   3.121
34441W        W99602  37.311  16.429   4.532
34442W        W99603  34.865  43.533   1.248
34443W        W99604   9.975   7.811  14.988
34444W        W99605  15.612   8.517  11.789
34445W        W99606  17.095   0.237  12.049
34446W        W99607  12.350  38.009  11.540
34447W        W99608  25.608  35.794   0.337
34448W        W99609   0.719  10.315   1.161
34449W        W99610  28.428   5.832   3.732
34450W        W99611   3.288  19.719   3.653
34451W        W99612   4.697   1.335  11.407
34452W        W99613   6.757  13.159  13.881
34453W        W99614  31.329  24.152   0.461
34454W        W99615  42.029  24.144   2.167
34455W        W99616   9.975  29.344  14.668
34456W        W99617  41.797  37.091   4.209
34457W        W99618  21.395  19.564  11.514
34458W        W99619  22.638  15.290  11.604
34459W        W99620  37.391   7.856  11.512
34460W        W99621   6.415   8.889  14.830
34461W        W99622  42.852  24.137  14.864
34462W        W99623  16.252  39.168  12.566
34463W        W99624   8.948  27.201   0.374
34464W        W99625  27.100  10.482  13.481
34465W        W99626  20.094  43.038   1.473
34466W        W99627  35.818   0.842  13.960
34467W        W99628   3.650   5.473   1.213
34468W        W99629  10.063  26.917   1.691
34469W        W99630  33.060   7.868   3.276
34470W        W99631  30.053  30.935   4.500
34471W        W99632  35.039  18.226  10.169
34472W        W99633   3.268  17.489   3.225
34473W        W99634   0.040  40.839  10.540
34474W        W99635   6.639  11.043   2.002
34475W        W99636   7.808   9.465  14.901
34476W        W99637  20.718  25.236  13.920
34477W        W99638   2.777  43.201   4.239
34478W        W99639   7.488  39.304   1.440
34479W        W99640  31.499  20.209   4.602
34480W        W99641  42.344  19.103   3.127
34481W        W99642  42.022  10.607   3.669
34482W        W99643  28.387  38.342  10.406
34483W        W99644   9.883  43.884   2.315
34484W        W99645  42.630  12.857  12.522
34485W        W99646  13.571  43.692   2.337
34486W        W99647  13.584  20.465  12.183
34487W        W99648  30.065  32.951  12.451
34488W        W99649   0.447  37.908   1.353
34489W        W99650  26.453  31.163  13.970
34490W        W99651  36.274  41.993   2.320
34491W        W99652   0.547  15.298   2.378
34492W        W99653  43.835  44.932  11.418
34493W        W99654  17.765  15.086   1.525
34494W        W99655  35.686  41.053  14.651
34495W        W99656  16.864   8.709  12.986
34496W        W99657  42.781  29.562   1.085
34497W        W99658  18.190  42.041   2.489
34498W        W99659   8.811  35.976  13.282
34499W        W99660  25.479  29.292   2.069
34500W        W99661  40.429  30.802   4.101
34501W        W99662  24.622  15.869  11.500
34502W        W99663  22.783   9.750   2.287
34503W        W99664   1.846  12.781  12.932
34504W        W99665  20.242  13.703   2.088
34505W        W99666  39.641   4.862  14.493
34506W        W99667  28.015   4.453   3.700
34507W        W99668  31.782  29.974   4.017
34508W        W99669   1.008  14.116  13.058
34509W        W99670  33.115   2.904  10.581
34510W        W99671  31.569  27.212   3.311
34511W        W99672  30.913   5.399  11.953
34512W        W99673   3.621  35.845  11.124
34513W        W99674  32.666  15.278   4.197
34514W        W99675  14.045  43.318   3.221
34515W        W99676  23.307  34.003   4.551
34516W        W99677   9.908  34.853  11.560
34517W        W99678   6.047   8.621   1.506
34518W        W99679  36.311   3.910   0.850
34519W        W99680  14.241  40.316  14.517
34520W        W99681   4.484   1.278   4.239
34521W        W99682  35.176  10.681   4.786
34522W        W99683  42.084  34.451   0.445
34523W        W99684   4.885  23.842  13.785
34524W        W99685  25.020  17.015   1.778
34525W        W99686  28.882  37.842   3.302
34526W        W99687  17.265  33.176   4.123
34527W        W99688  22.249  24.755  12.984
34528W        W99689   1.058  27.476  11.551
34529W        W99690  13.315   7.403   0.911
34530W        W99691  20.464  37.355   2.853
34531W        W99692  30.381  18.746   4.806
34532W        W99693  11.709   1.935   0.229
34533W        W99694  24.887  41.344  12.332
34534W        W99695  24.876   9.951   1.726
34535W        W99696  22.208   9.425  13.419
34536W        W99697  30.724   4.618   0.965
34537W        W99698   8.190   9.649   4.277
34538W        W99699  40.989  41.469  13.699
34539W        W99700   7.357  23.178  12.602
34540W        W99701  44.369  10.608   1.134
34541W        W99702  12.232  30.639   2.351
34542W        W99703   9.644  12.352   1.814
34543W        W99704  28.177  26.589   3.126
34544W        W99705  34.444  16.501  11.158
34545W        W99706  30.551  24.148  14.383
34546W        W99707  42.042  38.249   2.738
34547W        W99708  12.105  29.408  10.927
34548W        W99709  15.110  44.360  11.561
34549W        W99710  42.978  36.764   1.929
34550W        W99711  12.792  35.909  11.390
34551W        W99712  41.779  20.317   3.843
34552W        W99713  34.067  13.812  11.175
34553W        W99714   5.083   4.492  11.625
34554W        W99715  38.800   0.323  14.044
34555W        W99716  32.125  27.927   1.903
34556W        W99717   1.451  34.505   0.943
34557W        W99718  23.838  21.111  13.775
34558W        W99719  27.835  26.650  12.813
34559W        W99720  31.107  14.586  12.874
34560W        W99721  41.565   6.192   0.800
34561W        W99722  26.648  44.679  10.760
34562W        W99723  43.175  13.641  13.938
34563W        W99724  30.605  27.218  14.123
34564W        W99725  12.717  27.662  12.956
34565W        W99726   1.861   9.678  14.470
34566W        W99727  14.773  29.495  14.352
34567W        W99728   3.543  20.113   0.835
34568W        W99729   1.005   4.697   3.919
34569W        W99730  21.803  25.263   0.458
34570W        W99731  31.898  21.438  11.498
34571W        W99732  38.277   5.709   2.412
34572W        W99733  23.774   0.324  11.006
34573W        W99734  39.654  18.296  13.918
34574W        W99735  40.511   8.914  10.584
34575W        W99736  14.098   2.028  11.621
34576W        W99737  25.691  17.202  12.433
34577W        W99738  31.609  39.522  14.456
34578W        W99739  10.831  10.454  13.531
34579W        W99740  39.024  14.086  11.610
34580W        W99741   1.913  10.561  14.277
34581W        W99742  20.137   3.363   2.747
34582W        W99743  31.047  19.120   1.246
34583W        W99744  10.326  30.508  14.410
34584W        W99745   4.135  31.129   1.958
34585W        W99746  21.624  14.242  14.961
34586W        W99747  13.676   0.359  14.477
34587W        W99748  31.681  26.026   2.789
34588W        W99749  22.465  34.134   2.712
34589W        W99750  37.821  17.800   0.867
34590W        W99751  41.611  18.990  11.235
34591W        W99752  24.495  26.885   5.041
34592W        W99753  39.398   7.396  12.936
34593W        W99754   7.360  31.944   9.959
34594W        W99755  43.225  23.249  14.481
34595W        W99756   5.713   3.025  14.253
34596W        W99757  16.861  36.097   3.498
34597W        W99758   3.591   7.624  11.539
34598W        W99759  11.503  14.079   4.237
34599W        W99760  20.578  27.330  10.991
34600W        W99761  33.927  21.280   1.786
34601W        W99762  32.526  20.196   4.351
34602W        W99763  36.889  19.645  12.049
34603W        W99764  41.322  39.819   4.137
34604W        W99765  31.537  10.095   1.865
34605W        W99766   0.431  12.426   2.200
34606W        W99767  33.405  32.646  11.178
34607W        W99768  13.534  10.566  11.531
34608W        W99769  41.782  29.444  14.915
34609W        W99770   4.784   2.263   3.770
34610W        W99771  18.484  39.239   0.239
34611W        W99772  34.188  30.880  13.034
34612W        W99773   4.833  19.111  11.171
34613W        W99774  13.607   7.412   2.701
34614W        W99775  22.048  17.098  10.297
34615W        W99776  41.317  25.086   4.182
34616W        W99777  24.482   1.967   1.407
34617W        W99778  30.041  38.784   1.546
34618W        W99779  17.277  42.954   4.329
34619W        W99780  41.031  37.725   2.759
34620W        W99781  23.368  40.151  11.562
34621W        W99782   7.995  36.108   0.959
34622W        W99783  12.862   3.699  13.518
34623W        W99784  14.625  33.317  10.716
34624W        W99785  23.037  37.383  11.617
34625W        W99786  33.411  36.308   0.182
34626W        W99787  32.074  31.908   4.319
34627W        W99788  44.896  13.952  14.233
34628W        W99789  12.302  31.082   2.615
34629W        W99790  10.294  35.791  13.148
34630W        W99791  11.649  19.949   0.074
34631W        W99792  43.739  28.528   2.389
34632W        W99793  11.275  42.768  10.625
34633W        W99794  37.588  30.314   0.008
34634W        W99795  37.912  43.400  13.894
34635W        W99796  37.893   1.223   2.621
34636W        W99797  40.245   8.475   1.471
34637W        W99798  17.130  24.911   2.848
34638W        W99799  33.015  16.082  14.588
34639W        W99800  38.525  15.418  11.747
34640W        W99801  28.391  39.068   0.246
34641W        W99802  28.109  39.537  13.960
34642W        W99803  21.015  15.092   2.599
34643W        W99804  14.758  15.218  10.710
34644W        W99805  15.711  29.351  10.471
34645W        W99806  23.190  16.035   5.549
34646W        W99807   8.969  27.720  14.905
34647W        W99808   1.015  18.725   0.488
34648W        W99809  26.994  26.341  13.000
34649W        W99810   4.106  35.420   1.480
34650W        W99811  38.501  41.441   0.269
34651W        W99812  37.863   2.478   1.203
34652W        W99813  30.329  18.740   3.850
34653W        W99814  29.735  15.326  13.577
34654W        W99815  33.189  31.402   1.730
34655W        W99816   7.613  12.733  10.677
34656W        W99817  29.026  30.227  12.035
34657W        W99818   2.181  15.519  10.504
34658W        W99819  26.751  19.567   3.325
34659W        W99820  20.024  23.133   0.015
34660W        W99821  20.697  19.164   3.559
34661W        W99822  34.571   6.322  11.468
34662W        W99823  13.078  17.683   3.229
34663W        W99824  35.518  31.010   4.369
34664W        W99825   6.438  28.089  13.829
34665W        W99826  44.010  30.951  11.121
34666W        W99827  37.888   6.287   4.686
34667W        W99828  42.385  20.200   0.221
34668W        W99829  12.587  43.922   1.284
34669W        W99830  39.471  30.829   3.318
34670W        W99831   6.761   9.715  14.912
34671W        W99832  11.635  35.978   2.295
34672W        W99833   9.296  24.408   1.898
34673W        W99834  42.383  16.513   4.789
34674W        W99835  12.784  37.842   2.348
34675W        W99836  28.056  33.513   3.865
34676W        W99837  35.848  11.115  10.741
34677W        W99838  11.132  32.358   2.749
34678W        W99839  24.015   3.487  12.473
34679W        W99840   4.809  36.127   0.486
34680W        W99841  16.014   9.244   2.840
34681W        W99842  24.948  39.887   0.829
34682W        W99843  17.904  33.314  10.917
34683W        W99844   8.306  32.451  12.732
34684W        W99845   6.266  36.790  14.887
34685W        W99846  34.863  20.707   2.304
34686W        W99847  43.835   2.011   3.058
34687W        W99848  40.835  40.771   1.727
34688W        W99849   9.261   9.688   1.130
34689W        W99850   0.455  40.837  11.820
34690W        W99851  22.200  40.825   2.386
34691W        W99852  30.644  28.662   2.823
34692W        W99853  35.030  37.989   3.130
34693W        W99854  27.206  31.755  12.428
34694W        W99855  10.871  37.548   0.034
34695W        W99856  42.318  13.296  12.040
34696W        W99857  33.410  39.296   0.256
34697W        W99858  42.091  27.000  11.460
34698W        W99859  19.725  13.797   0.950
34699W        W99860   7.569   2.520  11.124
34700W        W99861  30.115  10.686   0.801
34701W        W99862   4.885  33.914   0.262
34702W        W99863  44.677  17.749  14.957
34703W        W99864  27.734   0.342  12.031
34704W        W99865  42.846  18.245   3.128
34705W        W99866  39.504  16.843  13.657
34706W        W99867  17.518   1.888   3.898
34707W        W99868  30.446  25.720   0.917
34708W        W99869  22.801  41.957  12.856
34709W        W99870   2.145  38.520   2.675
34710W        W99871  20.029  41.544  12.639
34711W        W99872   8.875   6.481  12.060
34712W        W99873  44.053  16.043   3.186
34713W        W99874  16.559  15.513  14.337
34714W        W99875  25.222  13.797   2.974
34715W        W99876  17.046   4.307  10.854
34716W        W99877   9.300  35.385   0.345
34717W        W99878  35.898  39.796  14.894
34718W        W99879   4.768  35.331  14.807
34719W        W99880  36.815  27.305  13.441
34720W        W99881  40.658  31.197  11.155
34721W        W99882  24.561  36.072   2.194
34722W        W99883  17.761  23.743   1.767
34723W        W99884  43.986   0.186  13.003
34724W        W99885   3.674  39.203   4.249
34725W        W99886   4.754  44.173  12.435
34726W        W99887  36.988  41.249  10.724
34727W        W99888  19.287   3.315   0.992
34728W        W99889  42.362  19.503  12.048
34729W        W99890   5.098   1.442   2.830
34730W        W99891  33.261  27.600   3.150
34731W        W99892  12.190  38.431   3.826
34732W        W99893  38.290  16.068  10.899
34733W        W99894  21.224  27.356  12.209
34734W        W99895  18.554  30.509   4.551
34735W        W99896  16.025  36.471  14.056
34736W        W99897  20.706   5.288  11.692
34737W        W99898  25.518   4.408   4.630
34738W        W99899  42.279  16.867  11.776
34739W        W99900  44.421   3.397   0.897
34740W        W99901  10.045   0.301  11.094
34741W        W99902  43.301  40.724  13.850
34742W        W99903  38.335  29.577   4.630
34743W        W99904   3.274  22.643  12.411
34744W        W99905   2.273   5.470   2.865
34745W        W99906  23.589  42.088   1.969
34746W        W99907   6.318  12.270  10.718
34747W        W99908  31.757  34.889  11.924
34748W        W99909  35.909   5.015   2.253
34749W        W99910   4.937   6.758   0.279
34750W        W99911  21.522   5.968  13.003
34751W        W99912  19.770   6.515   0.526
34752W        W99913  19.092  41.455   3.610
34753W        W99914  10.826  29.027   1.122
34754W        W99915   8.810   4.437   0.213
34755W        W99916  32.820  39.039  13.572
34756W        W99917  16.481  18.219  13.683
34757W        W99918  29.566  29.148  13.959
34758W        W99919  20.544  12.420  14.919
34759W        W99920  38.464  19.022   3.119
34760W        W99921  11.694  10.349   4.274
34761W        W99922  42.472  26.867   3.280
34762W        W99923  15.236  14.475  13.126
34763W        W99924   5.999  44.852  11.588
34764W        W99925  44.312  35.131   0.369
34765W        W99926  33.118  11.188  14.432
34766W        W99927   2.877  37.811  12.130
34767W        W99928  35.817   9.379   4.351
34768W        W99929  42.505  37.953   4.205
34769W        W99930  44.269  32.411  12.965
34770W        W99931  29.981  19.778   3.063
34771W        W99932  34.978  33.500   0.348
34772W        W99933  26.462  32.960   1.732
34773W        W99934  32.899  34.014  11.543
34774W        W99935  25.190  43.393   1.945
34775W        W99936   6.041  18.720   2.198
34776W        W99937  40.922  31.879   2.263
34777W        W99938  28.454  22.084   2.424
34778W        W99939  21.353  14.602   0.884
34779W        W99940  23.175   3.369   3.238
34780W        W99941  37.794  24.756   4.295
34781W        W99942  35.357  23.993   0.008
34782W        W99943  14.657   1.509   2.184
34783W        W99944  36.142   8.800   0.411
34784W        W99945  39.141  30.710   1.059
34785W        W99946  42.852  29.450   3.221
34786W        W99947   7.731  40.261   4.321
34787W        W99948   3.695  38.552  13.428
34788W        W99949  17.283  31.830   2.248
34789W        W99950  41.738  42.936   2.731
34790W        W99951  34.855  16.012  14.946
34791W        W99952  10.887   6.235   3.680
34792W        W99953  24.945  28.746  13.951
34793W        W99954  30.698  39.825   3.160
34794W        W99955  35.774  29.896  14.360
34795W        W99956   8.669   9.275  13.012
34796W        W99957  14.066  30.103   0.790
34797W        W99958  34.365  32.961   2.776
34798W        W99959   4.980   6.390  14.879
34799W        W99960  21.151  11.154  14.093
34800W        W99961  16.227  12.167   1.788
34801W        W99962  44.973  36.358   1.367
34802W        W99963   6.176  24.611   0.471
34803W        W99964  36.442  39.332   2.254
34804W        W99965  23.164   1.212  14.904
34805W        W99966   1.781  36.493   2.235
34806W        W99967  25.157   9.348   2.668
34807W        W99968  13.076  22.661   4.111
34808W        W99969  37.234  11.852  13.684
34809W        W99970   3.645  27.168  10.754
34810W        W99971  10.439  37.437   2.797
34811W        W99972  22.489  26.674  13.992
34812W        W99973   6.444  30.125   0.385
34813W        W99974   1.628  21.287  13.684
34814W        W99975  41.568  24.610  13.036
34815W        W99976  19.144   8.319   4.419
34816W        W99977  18.822  11.188  14.928
34817W        W99978  33.581   4.910   4.718
34818W        W99979  34.532  22.315   3.752
34819W        W99980  33.836  32.442   2.232
34820W        W99981  41.708  14.192  14.076
34821W        W99982  38.094  41.439  12.816
34822W        W99983   4.116  23.650  14.147
34823W        W99984   0.239  27.713   2.469
34824W        W99985   4.640  40.424  11.942
34825W        W99986  23.560  24.457   0.852
34826W        W99987  10.858  33.975  10.600
34827W        W99988  35.975  36.312   3.693
34828W        W99989  26.422   2.602  10.964
34829W        W99990  13.845  25.146  11.402
34830W        W99991   6.180  39.826   4.089
34831W        W99992  10.382  14.302  11.206
34832W        W99993  41.307  20.813   0.761
34833W        W99994  16.804  19.563  11.624
34834W        W99995   3.935  44.180  14.861
34835W        W99996  43.858  15.032  11.512
34836W        W99997  23.827  41.219   0.326
34837W        W99998   9.724  13.865   3.485
34838W        W99999  27.017  11.321  13.763
34839W        W    0  42.324  36.913   2.288
34840W        W    1  43.262   3.347  12.528
34841W        W    2   4.478  36.068   2.707
34842W        W    3  36.527  43.212   3.675
34843W        W    4  21.102  21.984  13.269
34844W        W    5   2.317  17.614   4.226
34845W        W    6   2.950  11.353   1.372
34846W        W    7   4.484  20.688  12.484
34847W        W    8   7.735  20.998   4.204
34848W        W    9   8.403  30.190   1.327
34849W        W   10  11.897   1.448  14.547
34850W        W   11   8.264  19.117   3.776
34851W        W   12   9.953  36.484  12.142
34852W        W   13  41.867  41.840   4.808
34853W        W   14  26.689   4.500   2.223
34854W        W   15   4.934  44.390   3.131
34855W        W   16  21.138  13.016   3.523
34856W        W   17  43.653  13.335  10.214
34857W        W   18   9.885  20.728  11.438
34858W        W   19   2.434   4.553   1.401
34859W        W   20  10.837  26.628   3.610
34860W        W   21  43.497  36.918  14.482
34861W        W   22   2.402  12.053  11.186
34862W        W   23  27.057   9.363   1.761
34863W        W   24  12.730  13.414   2.420
34864W        W   25   4.909   5.625  13.840
34865W        W   26  44.001   8.057   4.237
34866W        W   27  30.395  24.519   1.600
34867W        W   28  40.926  28.703  13.671
34868W        W   29  27.695  28.639   2.836
34869W        W   30  34.144  25.133  12.454
34870W        W   31  31.216  21.178  13.458
34871W        W   32  10.615  21.236   3.746
34872W        W   33  15.380  14.886   4.707
34873W        W   34   9.400   3.146   3.269
34874W        W   35  43.807  32.408  13.493
34875W        W   36  22.219  15.944  11.650
34876W        W   37  23.059  16.645   3.745
34877W        W   38  16.234  25.256  10.689
34878W        W   39  38.946  29.992   3.687
34879W        W   40  30.766  22.980  12.886
34880W        W   41  23.169  31.009  12.021
34881W        W   42  12.678   6.624  11.067
34882W        W   43  22.268   1.578   2.602
34883W        W   44  20.075  44.856   4.610
34884W        W   45   9.118  36.820  12.778
34885W        W   46  41.288  28.689   2.115
34886W        W   47  30.688  42.633  10.304
34887W        W   48  32.025  14.659  11.913
34888W        W   49  15.746   8.936   1.177
34889W        W   50   7.150  43.366  11.221
34890W        W   51   8.275   6.319   0.518
34891W        W   52  43.493  17.832   3.152
34892W        W   53  27.618  28.789   4.516
34893W        W   54  14.409  27.473  11.645
34894W        W   55  23.584  20.689  14.983
34895W        W   56  42.150  18.489   0.210
34896W        W   57  30.543  42.448   4.581
34897W        W   58  17.074  39.298   3.658
34898W        W   59  22.678  26.882   1.836
34899W        W   60  35.887   3.735   1.601
34900W        W   61  29.725  15.306  14.452
34901W        W   62  15.314  41.257   4.448
34902W        W   63  34.692  12.694   2.606
34903W        W   64  30.846  34.455   0.829
34904W        W   65  43.907  42.906  12.613
34905W        W   66  41.247  29.809   4.667
34906W        W   67  23.690  28.744   1.374
34907W        W   68   7.879  37.164  14.575
34908W        W   69  31.543  36.561  13.329
34909W        W   70  27.575   3.674   3.787
34910W        W   71  35.009  15.202   4.715
34911W        W   72  33.916  14.568   2.812
34912W        W   73   1.384   1.330   2.337
34913W        W   74  12.686  18.544   5.132
34914W        W   75  25.046  16.102   1.633
34915W        W   76  30.908  15.513   0.748
34916W        W   77  24.656  35.383  11.128
34917W        W   78  31.095  11.090   3.755
34918W        W   79  11.879   1.804   4.129
34919W        W   80  10.128  34.453  11.799
34920W        W   81  15.333   8.654   1.206
34921W        W   82  22.658  21.596  11.940
34922W        W   83   0.498   1.303   4.056
34923W        W   84  36.146  43.158  10.454
34924W        W   85   9.341  30.008   3.164
34925W        W   86  12.108   3.835  12.065
34926W        W   87  31.615  26.683  12.031
34927W        W   88  38.496  23.325  13.519
34928W        W   89  25.558  17.746   2.894
34929W        W   90  17.665  38.359   0.937
34930W        W   91  22.431  42.608  13.871
34931W        W   92  44.877  11.331  11.984
34932W        W   93   4.169   3.494  14.038
34933W        W   94  44.428   9.198  13.758
34934W        W   95  12.852   5.909   1.784
34935W        W   96  39.110  34.978  11.991
34936W        W   97  36.784  13.631  13.113
34937W        W   98  37.362  33.979  13.048
34938W        W   99  39.181   7.297   0.510
34939W        W  100  30.521  10.249  14.233
34940W        W  101   5.987  17.673  11.234
34941W        W  102  16.865  31.399  13.373
34942W        W  103  18.748  37.579   0.707
34943W        W  104   0.525  18.324   1.469
34944W        W  105  37.025  32.847   3.565
34945W        W  106  28.095  34.285  13.529
34946W        W  107  28.181  13.368  13.404
34947W        W  108  11.622  34.902  12.542
34948W        W  109  30.023  13.539  11.140
34949W        W  110  16.077  34.525  14.523
34950W        W  111   1.749  22.512  11.233
34951W        W  112   4.764  37.010  13.847
34952W        W  113  42.235  43.283   1.134
34953W        W  114  14.001  42.218   0.846
34954W        W  115   2.899   8.738   1.959
34955W        W  116   2.400  41.608   3.866
34956W        W  117   2.297  41.406  12.355
34957W        W  118  39.509  29.052  14.728
34958W        W  119   9.738   7.318  14.958
34959W        W  120  23.471  27.946   4.587
34960W        W  121  33.935  43.417  11.596
34961W        W  122  17.181  30.927   2.411
34962W        W  123   5.919  14.854  10.899
34963W        W  124  31.698  44.893  11.613
34964W        W  125   2.730  11.745   2.252
34965W        W  126  24.264   4.343   1.619
34966W        W  127  13.646   4.224  12.394
34967W        W  128  42.052  31.676   4.853
34968W        W  129   6.633  40.194  12.388
34969W        W  130  10.657  42.778   0.237
34970W        W  131  26.412   1.494  13.880
34971W        W  132  12.409   2.850  12.467
34972W        W  133  38.812  11.337   2.705
34973W        W  134  30.616   5.412   2.230
34974W        W  135  40.387   9.412  13.868
34975W        W  136  21.474  20.500   2.175
34976W        W  137   5.378   0.443   4.578
34977W        W  138  20.955  22.328   3.141
34978W        W  139   4.777  10.253   3.737
34979W        W  140  22.435  35.158   0.433
34980W        W  141  30.607  14.085  14.807
34981W        W  142  28.772  27.773  13.943
34982W        W  143  38.370  20.069   2.851
34983W        W  144   6.384  17.449   0.971
34984W        W  145  18.065  24.548  13.932
34985W        W  146  37.384  20.639  11.167
34986W        W  147  13.854  28.067   1.663
34987W        W  148  28.596  36.766  11.074
34988W        W  149  25.887  21.171   0.760
34989W        W  150   5.376  11.091  11.176
34990W        W  151  34.327   5.022   2.677
34991W        W  152  12.487   8.175  13.307
34992W        W  153  44.232   3.782   1.667
34993W        W  154  33.858   3.458  10.720
34994W        W  155  27.009   3.568  10.325
34995W        W  156  20.078  32.639  11.190
34996W        W  157  11.838   7.641   3.576
34997W        W  158  28.015  23.267   3.643
34998W        W  159   3.984  35.299  12.094
34999W        W  160  42.764  13.069   0.008
35000W        W  161  27.254  15.270   2.209
35001W        W  162  17.348  23.472   4.916
35002W        W  163  26.044  38.931  10.586
35003W        W  164  15.237   7.570   4.521
35004W        W  165   8.964  40.957  10.643
35005W        W  166  15.646  10.684  12.630
35006W        W  167  31.074   6.399   1.338
35007W        W  168  41.448  43.750   1.236
35008W        W  169  27.016  12.941  11.952
35009W        W  170  18.188  10.727  11.078
35010W        W  171   5.214  37.562   2.168
35011W        W  172  41.481  25.744  14.449
35012W        W  173  25.105  30.169   1.261
35013W        W  174  27.930   5.400  12.356
35014W        W  175   2.372  44.224  11.581
35015W        W  176   9.812  17.956  13.808
35016W        W  177  20.561  15.681  14.508
35017W        W  178   5.168  41.876   2.153
35018W        W  179   9.904  34.617   0.853
35019W        W  180  13.541  18.940  14.970
35020W        W  181  15.535  22.116   1.268
35021W        W  182  22.070  25.496   2.844
35022W        W  183   3.856  40.985  10.996
35023W        W  184  31.793  22.273  12.580
35024W        W  185  10.403  40.841   3.270
35025W        W  186  16.382  29.553   1.589
35026W        W  187  20.967  36.456   0.835
35027W        W  188  25.992  35.481  14.911
35028W        W  189  27.109  27.961   4.584
35029W        W  190  41.990  32.461   0.354
35030W        W  191  22.740  15.901   1.380
35031W        W  192  43.365  28.572   4.621
35032W        W  193  38.319  39.072  13.894
35033W        W  194  43.843  10.666  10.901
35034W        W  195  40.064   7.149  14.520
35035W        W  196  10.293  44.529   1.758
35036W        W  197   8.500  34.875   5.094
35037W        W  198  16.131  19.265   3.041
35038W        W  199  29.577  43.237  11.541
35039W        W  200   9.107  33.057  13.886
35040W        W  201  11.169  23.552   0.314
35041W        W  202  44.845  26.442  10.055
35042W        W  203  24.603  40.409  14.755
35043W        W  204   1.619  37.160   5.406
35044W        W  205  11.200  42.832  11.531
35045W        W  206  22.384  24.941  12.087
35046W        W  207  42.882  26.550   0.479
35047W        W  208  18.008  13.736   1.428
35048W        W  209  30.644  35.473  11.675
35049W        W  210  15.808  29.514  11.617
35050W        W  211  42.498   0.297   0.123
35051W        W  212  10.301  16.005   0.529
35052W        W  213  24.762   2.971  14.807
35053W        W  214   0.002  44.069   1.812
35054W        W  215  18.751  19.229  13.093
35055W        W  216  42.423  11.646  14.743
35056W        W  217  29.080  19.841   1.912
35057W        W  218  37.013   6.879   1.501
35058W        W  219  23.529  28.500   0.374
35059W        W  220  13.169  28.938   3.242
35060W        W  221  33.949  31.495   2.436
35061W        W  222  28.458  30.586   0.837
35062W        W  223  33.528  36.498  10.992
35063W        W  224   7.709  19.438  10.354
35064W        W  225  44.463  27.172  12.430
35065W        W  226  41.315   9.363  11.562
35066W        W  227  13.792   3.773   4.866
35067W        W  228  31.135   8.774  14.013
35068W        W  229  44.855   7.625  11.168
35069W        W  230  24.572   8.780   0.845
35070W        W  231  29.198  23.426   1.304
35071W        W  232   5.957  26.346  11.999
35072W        W  233  20.695  32.991   2.979
35073W        W  234  31.045   5.837   1.746
35074W        W  235  27.476  10.615   5.382
35075W        W  236  17.584  28.960  12.789
35076W        W  237  41.081   7.217  12.045
35077W        W  238  42.250   2.290   4.841
35078W        W  239  35.271  12.666  11.130
35079W        W  240   1.956   5.259  10.735
35080W        W  241  42.361  39.823   3.339
35081W        W  242   7.138   9.126  10.914
35082W        W  243   1.870  10.290  13.740
35083W        W  244  41.293  15.790   0.671
35084W        W  245  34.043  42.989   4.523
35085W        W  246   0.378  43.582  13.155
35086W        W  247  20.748  14.553   2.584
35087W        W  248   0.714  29.402  13.794
35088W        W  249   3.163  12.553   3.685
35089W        W  250  24.105  25.203   1.167
35090W        W  251  26.610  35.933  12.883
35091W        W  252   6.976   8.818  12.986
35092W        W  253  15.786  11.779   0.329
35093W        W  254  42.015   8.733  10.624
35094W        W  255  27.615  26.996   2.249
35095W        W  256  17.385   4.630  12.977
35096W        W  257  12.161  24.499  13.844
35097W        W  258  43.306   8.337   1.223
35098W        W  259  25.484  17.821   0.149
35099W        W  260  20.979  14.890   3.849
35100W        W  261  26.634  16.819  14.266
35101W        W  262  20.064  18.199  12.655
35102W        W  263   5.064   6.117   1.593
35103W        W  264  17.578  13.649  14.690
35104W        W  265  21.534  20.638  11.031
35105W        W  266   0.767  32.700  12.821
35106W        W  267  36.857   1.822   4.838
35107W        W  268  25.403  26.108   4.116
35108W        W  269  40.975  21.392   3.760
35109W        W  270  17.016  38.114   4.756
35110W        W  271  22.182  39.402   4.522
35111W        W  272  35.030  44.239  10.255
35112W        W  273  41.390  27.112   2.698
35113W        W  274  39.231  34.018  11.622
35114W        W  275   0.161  15.395   3.658
35115W        W  276  29.925  42.155   2.227
35116W        W  277  18.738  35.812  13.440
35117W        W  278  22.299   4.230   0.373
35118W        W  279  18.638   4.352   3.376
35119W        W  280   7.538  28.184   4.475
35120W        W  281  38.012  37.435   2.903
35121W        W  282  42.368  23.136  14.462
35122W        W  283  15.181  16.549   1.115
35123W        W  284  31.179  30.554   1.222
35124W        W  285  43.016  44.312   0.724
35125W        W  286  17.141  23.105   3.284
35126W        W  287  24.820  16.385  13.403
35127W        W  288  10.043  16.374   1.028
35128W        W  289  14.542  41.748   4.099
35129W        W  290  40.791  43.451   2.439
35130W        W  291   6.450  17.462  13.065
35131W        W  292  17.527  13.761  13.748
35132W        W  293   3.703  18.902   4.886
35133W        W  294  26.914  19.117  11.978
35134W        W  295  39.243  41.745   1.516
35135W        W  296  38.006  25.696   0.755
35136W        W  297  15.995  30.237   0.802
35137W        W  298   3.292  39.788  11.847
35138W        W  299  25.187  21.089  12.179
35139W        W  300  39.410  26.136  12.896
35140W        W  301   7.564   9.744  14.505
35141W        W  302  12.218   6.467  14.404
35142W        W  303  38.961   7.309   3.362
35143W        W  304  40.415  23.524  14.368
35144W        W  305   4.633  15.883  10.720
35145W        W  306  32.573  36.340   0.282
35146W        W  307  15.133   1.972   3.712
35147W        W  308   6.171  32.813  14.324
35148W        W  309  44.987  17.170  13.504
35149W        W  310   2.976   3.337   4.736
35150W        W  311  38.364  44.682   2.232
35151W        W  312   0.392  19.859  12.413
35152W        W  313  10.870   5.469  13.384
35153W        W  314  33.248   5.800  10.198
35154W        W  315   5.197  33.075  13.901
35155W        W  316  14.952  12.959  13.939
35156W        W  317  15.696   6.353  11.427
35157W        W  318  11.771  24.350   1.336
35158W        W  319   4.727  35.596   0.437
35159W        W  320  22.420  36.011  11.917
35160W        W  321  19.030  32.410  10.429
35161W        W  322  31.925  38.562   5.047
35162W        W  323   8.420   3.663   4.444
35163W        W  324   6.365  17.502  12.552
35164W        W  325  12.815  33.949   3.827
35165W        W  326  40.012  38.680  14.243
35166W        W  327  39.491  29.975  14.786
35167W        W  328  39.572  22.594  13.387
35168W        W  329  11.382  30.724   4.588
35169W        W  330   7.445   8.710   4.530
35170W        W  331   7.669   8.249   0.970
35171W        W  332   8.084  21.782  14.014
35172W        W  333  36.138  29.429   2.824
35173W        W  334  29.007  22.272  10.768
35174W        W  335  16.068  22.270  14.377
35175W        W  336   2.546  31.976  11.170
35176W        W  337   5.957  23.631   3.226
35177W        W  338  38.978  11.653  14.043
35178W        W  339  29.637  18.857   4.386
35179W        W  340  15.319  17.667   0.515
35180W        W  341  33.683  34.411   0.260
35181W        W  342   0.906  26.474   0.446
35182W        W  343   1.976  15.294   4.156
35183W        W  344   6.218  18.001  12.581
35184W        W  345  28.692  18.785  12.009
35185W        W  346  44.940   9.610   0.525
35186W        W  347  34.027  28.644  10.671
35187W        W  348  31.272  17.766   3.173
35188W        W  349  18.081  40.228  12.931
35189W        W  350  41.492  35.178  13.451
35190W        W  351  37.921  19.736   4.623
35191W        W  352  20.914   6.995  13.415
35192W        W  353  29.010  19.789   2.817
35193W        W  354  18.823  34.755   1.716
35194W        W  355   4.710  23.303   3.058
35195W        W  356  37.080  12.243  13.121
35196W        W  357  40.358  21.557   4.418
35197W        W  358   3.189  44.259   1.484
35198W        W  359  19.628  36.641   2.241
35199W        W  360  23.968  12.633  11.952
35200W        W  361  17.108  11.327   3.611
35201W        W  362  43.937  18.241   1.069
35202W        W  363   7.657   2.330   4.634
35203W        W  364  19.160  31.736  14.505
35204W        W  365  29.478  26.017   1.919
35205W        W  366  20.191  18.184   3.471
35206W        W  367  19.951  41.310  10.489
35207W        W  368  36.080   6.453  13.862
35208W        W  369  15.540  19.411   1.979
35209W        W  370  37.915  24.791  10.957
35210W        W  371  33.680  35.794   1.630
35211W        W  372  26.163  12.555   1.353
35212W        W  373  15.341  22.578  10.643
35213W        W  374  12.879  25.183   4.198
35214W        W  375  29.943  36.807   1.169
35215W        W  376  36.427  33.488   4.695
35216W        W  377  24.581  36.991  11.527
35217W        W  378  28.851  11.139  13.555
35218W        W  379  38.010  29.946  14.254
35219W        W  380   0.277   8.002   4.631
35220W        W  381  38.921  25.542  13.350
35221W        W  382  13.775  17.801  12.489
35222W        W  383  31.046  26.643   1.950
35223W        W  384   7.871  16.156  12.899
35224W        W  385  36.571  19.611   4.148
35225W        W  386  25.952  37.255   0.667
35226W        W  387  18.999  25.174  14.931
35227W        W  388  13.151   9.541  13.430
35228W        W  389   8.282  26.206  11.609
35229W        W  390  32.153   2.989   1.212
35230W        W  391   6.279  26.670   1.911
35231W        W  392  10.452   5.279   4.217
35232W        W  393   5.971  16.035  13.464
35233W        W  394  42.395   5.714   1.370
35234W        W  395  41.994  32.002  11.733
35235W        W  396  17.593  31.007  13.590
35236W        W  397  23.451  15.579   3.533
35237W        W  398  12.573   6.136   0.436
35238W        W  399   4.832  24.578  10.703
35239W        W  400  31.610   1.273  11.525
35240W        W  401  38.821  17.639   4.970
35241W        W  402   6.029  26.569   9.709
35242W        W  403  40.310  42.772   3.789
35243W        W  404  15.080  35.223  14.767
35244W        W  405   7.445  22.433   0.038
35245W        W  406  15.185   4.778  13.597
35246W        W  407  16.277  19.695  14.031
35247W        W  408  28.160  33.753  13.516
35248W        W  409  19.763  33.405   4.270
35249W        W  410   6.983  30.640   5.079
35250W        W  411   8.040  42.322  12.489
35251W        W  412  27.771  33.010  12.067
35252W        W  413  11.690  28.040  10.872
35253W        W  414  33.956   6.589  14.688
35254W        W  415  35.051  29.796  11.155
35255W        W  416  38.132  41.563   4.523
35256W        W  417  35.943   1.872  13.866
35257W        W  418  36.824  14.786   1.022
35258W        W  419   8.579  18.750  12.995
35259W        W  420  40.490  10.867   1.246
35260W        W  421   6.932  38.074  12.953
35261W        W  422  15.739   2.287  14.037
35262W        W  423  36.266  38.350   4.987
35263W        W  424  23.318  15.784   3.038
35264W        W  425  33.092  28.657  11.647
35265W        W  426   2.431   8.609   1.767
35266W        W  427  33.269   6.151   4.864
35267W        W  428  10.202  11.107   0.258
35268W        W  429  25.621  13.362   5.209
35269W        W  430  10.987  19.049   2.247
35270W        W  431  26.419  33.150   4.504
35271W        W  432   5.861  32.395  13.840
35272W        W  433  14.545   0.460  14.325
35273W        W  434  32.964  25.729  11.635
35274W        W  435  36.552  23.102   4.336
35275W        W  436  35.505   1.097  14.303
35276W        W  437  41.787   5.324   4.406
35277W        W  438  27.362  44.072  10.378
35278W        W  439  37.018  42.028   4.097
35279W        W  440  27.414   9.623  12.500
35280W        W  441  29.883   8.753   4.497
35281W        W  442  22.115  35.836  11.550
35282W        W  443   4.310  23.908   3.817
35283W        W  444   4.040  30.903  12.883
35284W        W  445  10.341   1.462  14.072
35285W        W  446   0.677  35.453   1.229
35286W        W  447  30.443   1.025  12.801
35287W        W  448  41.337  39.836   0.208
35288W        W  449  41.493  34.113   2.223
35289W        W  450  35.394   2.206   0.354
35290W        W  451  12.548  20.055   0.672
35291W        W  452   2.843  21.090  14.476
35292W        W  453   8.452  28.417  11.191
35293W        W  454  21.743   8.768  13.743
35294W        W  455  42.884  20.199  11.660
35295W        W  456  19.804  27.012   1.016
35296W        W  457   3.058  40.995   0.469
35297W        W  458  11.164  11.391  11.144
35298W        W  459  33.591   8.696   0.507
35299W        W  460   6.717  32.851  11.121
35300W        W  461  25.274   9.407  12.095
35301W        W  462  30.090  27.663   0.788
35302W        W  463  16.451  23.357   4.825
35303W        W  464   7.427  37.448  10.638
35304W        W  465   4.318  25.975   0.805
35305W        W  466  19.735   0.371  13.073
35306W        W  467  34.121  16.936  14.310
35307W        W  468  33.177   6.261   4.284
35308W        W  469   0.839  22.653  12.072
35309W        W  470   6.149  42.484   2.248
35310W        W  471  20.988  11.087   1.257
35311W        W  472  29.475  39.119   1.468
35312W        W  473   0.742  37.243  14.914
35313W        W  474  23.921  33.095   2.381
35314W        W  475  20.165  14.341   1.313
35315W        W  476   2.394  43.281  14.392
35316W        W  477   1.793  23.140   1.221
35317W        W  478  33.144  23.665  12.165
35318W        W  479  12.624  15.183  10.606
35319W        W  480  35.494  11.655  13.096
35320W        W  481  13.120   2.180  10.709
35321W        W  482  16.756  23.253  12.475
35322W        W  483  19.791  22.241   2.778
35323W        W  484  39.254  35.394   1.451
35324W        W  485  13.428  18.926   3.715
35325W        W  486  20.010  26.933   1.688
35326W        W  487  10.350  30.551  13.513
35327W        W  488  36.612  26.643   0.957
35328W        W  489  32.901  25.164   3.495
35329W        W  490  40.511  38.808   4.026
35330W        W  491  31.238  18.075  11.448
35331W        W  492   7.498  23.532  11.213
35332W        W  493  17.479  22.054   0.303
35333W        W  494  14.171  35.441   2.904
35334W        W  495  24.445   1.860  11.459
35335W        W  496   7.267  34.864   1.377
35336W        W  497   6.874  10.436   1.258
35337W        W  498   2.353  14.840   2.612
35338W        W  499  44.085  40.977   5.110
35339W        W  500  23.212  21.017  10.664
35340W        W  501  27.229  28.592   0.833
35341W        W  502  28.293  10.249   1.326
35342W        W  503   9.099   8.725   0.484
35343W        W  504  34.922  43.083  11.691
35344W        W  505  24.332  42.714  11.243
35345W        W  506  40.442  11.058  14.326
35346W        W  507  16.304  21.039   4.527
35347W        W  508  25.971  25.575   2.500
35348W        W  509  16.476  37.494  14.488
35349W        W  510  41.234  18.478  13.211
35350W        W  511   1.534  10.374  11.914
35351W        W  512  13.038  42.414   2.645
35352W        W  513  19.453  13.874   0.254
35353W        W  514  21.729  34.454   4.571
35354W        W  515   7.919  41.494  11.484
35355W        W  516  12.102  20.727  14.225
35356W        W  517  28.428  20.535   0.364
35357W        W  518   6.526   7.614   1.460
35358W        W  519  14.795   7.145   4.491
35359W        W  520  13.995  38.380  11.143
35360W        W  521  22.522  16.762  11.333
35361W        W  522  16.831  29.002  13.310
35362W        W  523  37.603  40.090  12.496
35363W        W  524  22.003   2.383  11.567
35364W        W  525  29.708  41.495   0.502
35365W        W  526   5.032  18.014   3.174
35366W        W  527  21.718  40.628   2.365
35367W        W  528  18.839  39.256   4.073
35368W        W  529   4.729  10.045  14.818
35369W        W  530  23.236   2.230   3.177
35370W        W  531  35.864   3.458  10.664
35371W        W  532  17.110  36.374  14.629
35372W        W  533  25.067  38.876   3.169
35373W        W  534  15.591  25.713   1.711
35374W        W  535  27.193  34.071   1.413
35375W        W  536  29.121  31.423  14.287
35376W        W  537  43.791  31.776  14.611
35377W        W  538  24.490  36.784   5.110
35378W        W  539  44.007  44.549  10.489
35379W        W  540  39.445   3.764   4.176
35380W        W  541  19.161  32.128   3.215
35381W        W  542  13.307   2.523   2.317
35382W        W  543  31.437  43.572   1.815
35383W        W  544  43.412  18.341  11.541
35384W        W  545  36.523  12.169   4.141
35385W        W  546  21.058  27.401  10.055
35386W        W  547  14.581  14.711  10.671
35387W        W  548  21.757  35.354  13.932
35388W        W  549  10.893   6.875  10.943
35389W        W  550   9.420   3.306  14.247
35390W        W  551  10.735  22.931   2.681
35391W        W  552   3.503  40.263   5.140
35392W        W  553  10.811  21.102   4.221
35393W        W  554  28.112  43.597  14.524
35394W        W  555  11.869  32.354   4.250
35395W        W  556  27.892  14.214   3.616
35396W        W  557   6.874  17.826   2.155
35397W        W  558   0.933  19.141  13.880
35398W        W  559  21.461  33.196  11.327
35399W        W  560   8.689   9.695  11.633
35400W        W  561   1.165   6.595  10.670
35401W        W  562  41.824   6.611   3.204
35402W        W  563   5.479  28.058   2.738
35403W        W  564   9.240  16.733   3.150
35404W        W  565  37.960  31.183   2.719
35405W        W  566  25.991  42.999  11.511
35406W        W  567   3.559   1.445  11.892
35407W        W  568  44.456  31.992   3.662
35408W        W  569  15.668  16.117  10.683
35409W        W  570   1.991  28.891  12.530
35410W        W  571  11.386  19.216  12.966
35411W        W  572   1.656   9.946  12.943
35412W        W  573   1.904  14.559   5.462
35413W        W  574  22.895  36.467   2.227
35414W        W  575  20.762  37.791   1.401
35415W        W  576  18.497  31.842  13.403
35416W        W  577   7.419  40.932  14.495
35417W        W  578  43.541   7.270   0.405
35418W        W  579  16.712  19.258   0.252
35419W        W  580  42.531  34.126  12.889
35420W        W  581  26.647  16.166   1.300
35421W        W  582   4.542   6.823   1.325
35422W        W  583  29.027  18.196   4.100
35423W        W  584  12.203  35.335  11.992
35424W        W  585   7.176   8.235  10.638
35425W        W  586  23.732   3.006   1.466
35426W        W  587  19.501   4.916  10.234
35427W        W  588  39.348   0.827  12.886
35428W        W  589  44.418  10.265   3.657
35429W        W  590   9.790  30.123  11.867
35430W        W  591  43.032  16.473  10.208
35431W        W  592  18.088   0.149   0.540
35432W        W  593   6.846  25.411   1.861
35433W        W  594  44.201  38.856  12.068
35434W        W  595  34.465  30.133   2.513
35435W        W  596   3.817  38.974  11.859
35436W        W  597  17.285  29.124  13.554
35437W        W  598  24.732  28.511  11.465
35438W        W  599  15.275  26.747  11.828
35439W        W  600  30.837  30.965  12.639
35440W        W  601  22.485   2.481   1.957
35441W        W  602  36.878  38.873  11.601
35442W        W  603  22.761  20.230  14.886
35443W        W  604  36.445  42.309  12.595
35444W        W  605  37.977  10.748  13.036
35445W        W  606  22.277  42.361   1.395
35446W        W  607  40.618  13.292  10.730
35447W        W  608  34.337   4.566   0.820
35448W        W  609  15.790   6.245  11.923
35449W        W  610   9.018  44.235   4.180
35450W        W  611  12.757  13.873   2.674
35451W        W  612  40.318  29.675  11.692
35452W        W  613  17.082  27.543   0.273
35453W        W  614  31.368  13.596  13.445
35454W        W  615  31.890  31.760  13.497
35455W        W  616  26.286  37.026  10.572
35456W        W  617  39.517  37.003   0.031
35457W        W  618  25.677  23.161  12.532
35458W        W  619  41.234  23.036   1.293
35459W        W  620  37.746  17.538  11.112
35460W        W  621  16.803   8.348  12.594
35461W        W  622  15.855  41.614  12.801
35462W        W  623  22.745  19.363  13.806
35463W        W  624  36.335  28.581   1.106
35464W        W  625   2.319  36.959  12.931
35465W        W  626  23.339  43.439  11.690
35466W        W  627  44.892  26.145   3.499
35467W        W  628  24.588  35.206   9.476
35468W        W  629   2.470  15.828   5.026
35469W        W  630  20.037  38.079   3.264
35470W        W  631  27.750  22.232   3.933
35471W        W  632  22.633  26.908   0.388
35472W        W  633  11.392  29.520   4.058
35473W        W  634  15.256   2.230  13.845
35474W        W  635  30.889  18.699   3.105
35475W        W  636  23.795   9.079   0.671
35476W        W  637  40.317   8.798   2.781
35477W        W  638   8.872   4.555   2.390
35478W        W  639  14.534  37.516   0.444
35479W        W  640   5.973  32.514   2.719
35480W        W  641  32.161  15.166   4.154
35481W        W  642  35.145  41.078   3.330
35482W        W  643  43.347  30.315   3.093
35483W        W  644   0.017  38.598   4.536
35484W        W  645   6.443  34.894  12.508
35485W        W  646  30.003  25.917  14.350
35486W        W  647   0.300  18.734   4.066
35487W        W  648  14.494   3.388  13.448
35488W        W  649   8.254  34.420   4.329
35489W        W  650   5.960  17.197  10.916
35490W        W  651  40.388  30.316  11.142
35491W        W  652  30.667   9.261   3.807
35492W        W  653  29.222  31.563   3.027
35493W        W  654  22.652  41.983  11.957
35494W        W  655   9.682  16.770   3.400
35495W        W  656  31.443  35.038  11.554
35496W        W  657   0.180   7.351  12.108
35497W        W  658   6.231  40.754  10.834
35498W        W  659   2.633  41.553   2.776
35499W        W  660   1.375  41.256  13.998
35500W        W  661  14.226  29.583  12.126
35501W        W  662  17.536  14.739   3.176
35502W        W  663  29.204   6.423  11.107
35503W        W  664  31.646  36.094   0.024
35504W        W  665   2.154  12.183   1.163
35505W        W  666  29.938  18.731  10.669
35506W        W  667  20.144   6.027  14.325
35507W        W  668  16.590  22.951   0.569
35508W        W  669  21.006  27.494  11.211
35509W        W  670  17.757  11.714  10.866
35510W        W  671   2.456  17.566  13.743
35511W        W  672  23.525  11.296   3.747
35512W        W  673  27.942  29.502  13.468
35513W        W  674  33.806  16.591  11.201
35514W        W  675  27.776   2.946   4.544
35515W        W  676  42.529  28.366  10.636
35516W        W  677  12.429   6.956   4.935
35517W        W  678  21.646  42.407   0.566
35518W        W  679  10.090  22.858  11.271
35519W        W  680   5.556  26.153   2.807
35520W        W  681  29.622  25.996   0.599
35521W        W  682  41.788  19.755  14.725
35522W        W  683   3.450  25.747  10.126
35523W        W  684  11.354  18.261  13.814
35524W        W  685   5.505  18.702  11.472
35525W        W  686  40.515  41.474   4.621
35526W        W  687  34.081   7.918   3.146
35527W        W  688  26.264  38.903   0.423
35528W        W  689  18.193  44.370  13.442
35529W        W  690   8.570   3.965   0.382
35530W        W  691  26.401  22.048  12.125
35531W        W  692  42.950  40.540   1.219
35532W        W  693   3.744  17.839   1.945
35533W        W  694   8.155  31.476  11.527
35534W        W  695   0.491  13.133   0.303
35535W        W  696  18.724   5.578  12.459
35536W        W  697  33.829  38.329  14.266
35537W        W  698  31.019   6.317   0.335
35538W        W  699  19.208  32.119  14.110
35539W        W  700  25.432  11.811   2.810
35540W        W  701  29.377  19.680  13.081
35541W        W  702  19.374  36.894  11.072
35542W        W  703  16.742  12.712   4.130
35543W        W  704   2.379  32.699  14.373
35544W        W  705  13.682  25.781   3.883
35545W        W  706   9.244  19.971  13.413
35546W        W  707   8.420  35.426   4.368
35547W        W  708  36.297   7.265   1.215
35548W        W  709  37.001  27.583  11.627
35549W        W  710  39.493  42.372  13.739
35550W        W  711   5.089  27.155  12.588
35551W        W  712  12.154   5.525   1.912
35552W        W  713   6.396  17.230  11.193
35553W        W  714  43.294  42.507   3.194
35554W        W  715   4.336  20.487  13.869
35555W        W  716  20.694  10.846   3.455
35556W        W  717  43.882   4.692   1.789
35557W        W  718   5.329  20.043   0.938
35558W        W  719  26.249  33.420   3.245
35559W        W  720  29.156  10.247   2.436
35560W        W  721   8.650   0.222   2.402
35561W        W  722  14.230  39.586  13.671
35562W        W  723  10.753   6.648   0.507
35563W        W  724  14.334  11.594  11.071
35564W        W  725   5.430  31.253  12.193
35565W        W  726   6.095  28.037   0.803
35566W        W  727  33.222  26.542  10.170
35567W        W  728   6.979  39.549   3.765
35568W        W  729  43.471  30.597   4.992
35569W        W  730  28.046  44.404   3.229
35570W        W  731  39.457  44.533  13.815
35571W        W  732  11.199   2.249  12.083
35572W        W  733  38.009  21.640   1.301
35573W        W  734  18.321  12.628   1.763
35574W        W  735  34.917  42.279   4.129
35575W        W  736  18.615  40.528   3.515
35576W        W  737  36.109  38.450  10.859
35577W        W  738  13.844  21.456  12.979
35578W        W  739  18.050  19.271   2.276
35579W        W  740  18.158  35.293   2.028
35580W        W  741  33.934  40.584  12.442
35581W        W  742  23.012  41.689   5.437
35582W        W  743  13.600  35.357   3.758
35583W        W  744  41.689  19.080   4.496
35584W        W  745  31.048  41.049   4.234
35585W        W  746  26.698  32.607  12.952
35586W        W  747  17.250   9.293  10.255
35587W        W  748  27.151  41.527   3.370
35588W        W  749   8.796  25.679   0.460
35589W        W  750  21.640  29.965   0.739
35590W        W  751   5.714   0.745  10.697
35591W        W  752   6.403   0.720   1.006
35592W        W  753   3.950  36.528   2.824
35593W        W  754   1.125  25.652   0.628
35594W        W  755  12.234  18.660   3.015
35595W        W  756  37.464   3.853   2.039
35596W        W  757   7.618  23.142  14.343
35597W        W  758  36.969  29.887  11.114
35598W        W  759  12.373  39.333   3.852
35599W        W  760  21.578  17.121  13.344
35600W        W  761  44.081  43.593   1.670
35601W        W  762  21.469  42.184   0.996
35602W        W  763  19.895   3.142   5.185
35603W        W  764  15.282   0.670   0.298
35604W        W  765   7.752  23.518  12.506
35605W        W  766  24.557   4.545  12.437
35606W        W  767  11.646  39.474   3.307
35607W        W  768  17.236  35.333   3.264
35608W        W  769  26.198   0.490  11.248
35609W        W  770  21.292   3.870   4.475
35610W        W  771  36.258  24.324   1.778
35611W        W  772  29.044  20.201   3.125
35612W        W  773  42.463  33.059   3.209
35613W        W  774   0.380  27.209  13.923
35614W        W  775  24.609   9.724   0.042
35615W        W  776  39.305  42.481  11.350
35616W        W  777  20.536  28.598   4.427
35617W        W  778  43.368  30.476   3.992
35618W        W  779   5.683  23.030   0.821
35619W        W  780   3.789  32.262   4.769
35620W        W  781  24.995  26.790   2.962
35621W        W  782  33.346  34.482  14.244
35622W        W  783  11.981   7.753  10.796
35623W        W  784  19.182  21.576  12.281
35624W        W  785  31.394   3.427   4.396
35625W        W  786  21.472   3.196   0.336
35626W        W  787  37.810   4.253   1.964
35627W        W  788  38.043  20.971  14.307
35628W        W  789  21.931  35.921   0.886
35629W        W  790   3.270   5.422   4.177
35630W        W  791  34.144  34.960   4.187
35631W        W  792   2.872  41.092  10.629
35632W        W  793   7.728   4.395  14.404
35633W        W  794  18.761   1.966  13.450
35634W        W  795   1.715  40.076  14.918
35635W        W  796  28.567  16.743  11.507
35636W        W  797  41.376  26.571   4.912
35637W        W  798  19.890   8.915  10.161
35638W        W  799  31.978  30.198   3.579
35639W        W  800   0.725  33.455   3.648
35640W        W  801   9.709  18.684   0.310
35641W        W  802  21.044   7.485  13.403
35642W        W  803   0.790   9.898   0.025
35643W        W  804   2.376  13.853   2.068
35644W        W  805  17.593  25.539  12.078
35645W        W  806  28.665  44.873   0.776
35646W        W  807  26.630   0.209   3.613
35647W        W  808   0.269  32.507  14.489
35648W        W  809  32.347   5.253  13.918
35649W        W  810  22.586  35.032   2.552
35650W        W  811  26.390  36.908   3.331
35651W        W  812   7.934  19.758   0.783
35652W        W  813  10.767  11.422   0.500
35653W        W  814  25.068  32.644  13.423
35654W        W  815   4.758  28.088   1.187
35655W        W  816  26.255  18.405  13.322
35656W        W  817  37.090  42.954  12.816
35657W        W  818  10.551  19.163   3.735
35658W        W  819  21.638  20.767   3.117
35659W        W  820  43.552  35.473   2.378
35660W        W  821  11.239  10.641  14.546
35661W        W  822   7.309  32.009  10.823
35662W        W  823   9.297  31.585   0.929
35663W        W  824  17.790   7.842   2.135
35664W        W  825  27.925  30.383  13.094
35665W        W  826  16.569  20.319  11.729
35666W        W  827  10.062  39.200  12.630
35667W        W  828  14.738  26.457  11.201
35668W        W  829  20.355  18.248   4.684
35669W        W  830  41.908   2.069  10.715
35670W        W  831  33.412  23.026  14.426
35671W        W  832  10.100  30.080  13.532
35672W        W  833  15.886  24.622  11.180
35673W        W  834  34.204  28.928   2.323
35674W        W  835   1.308  25.006   1.440
35675W        W  836  38.355  15.995   1.284
35676W        W  837  10.208   3.335  11.389
35677W        W  838   3.839  43.440  10.638
35678W        W  839  38.103  21.034   2.711
35679W        W  840  43.585   3.385  10.650
35680W        W  841  35.616  44.257   0.516
35681W        W  842  38.076  26.117  13.479
35682W        W  843  37.523  37.585   2.813
35683W        W  844  11.661  33.948  14.841
35684W        W  845   7.320  39.121  13.479
35685W        W  846   2.286   8.897   2.176
35686W        W  847   0.766  43.191  13.254
35687W        W  848  16.622  18.639  13.405
35688W        W  849  18.929  38.979   0.326
35689W        W  850  18.610   0.671   4.487
35690W        W  851  21.331   5.247   2.349
35691W        W  852  24.121  26.657  14.503
35692W        W  853  41.363  29.544   2.461
35693W        W  854  23.272  41.087   1.349
35694W        W  855  32.829  43.067   3.767
35695W        W  856  34.000  18.333  14.935
35696W        W  857   2.923  13.921  11.321
35697W        W  858   7.781   5.758   4.431
35698W        W  859  12.256   5.203  13.398
35699W        W  860   2.443  38.804  13.186
35700W        W  861  30.477   6.685   0.003
35701W        W  862   5.215  15.145   2.717
35702W        W  863  44.721  26.944  10.644
35703W        W  864  35.972   5.989   4.592
35704W        W  865   0.815   0.300  13.423
35705W        W  866  31.828  20.619   3.384
35706W        W  867  24.188  29.966   3.878
35707W        W  868  42.496   9.617   2.869
35708W        W  869  22.690  43.422  14.929
35709W        W  870   6.882  33.967  14.660
35710W        W  871  28.623  15.772   2.169
35711W        W  872  30.527  44.724  14.198
35712W        W  873   8.903   0.302  13.476
35713W        W  874   5.702  16.075   2.918
35714W        W  875  43.239  39.922  11.041
35715W        W  876  20.438  41.763   3.865
35716W        W  877  39.082  13.870   3.775
35717W        W  878  38.366  43.313  11.670
35718W        W  879  35.312  18.293  13.908
35719W        W  880  28.064   4.740   1.427
35720W        W  881   3.661   8.307  13.876
35721W        W  882  10.913  43.937   1.919
35722W        W  883  30.777  27.164  12.748
35723W        W  884  34.498  37.475  10.659
35724W        W  885  28.234  43.406   4.677
35725W        W  886  41.486   0.785   2.185
35726W        W  887  20.045   3.731  13.791
35727W        W  888   8.640  36.639  12.912
35728W        W  889  36.845  41.981  10.681
35729W        W  890  29.998  12.231  14.047
35730W        W  891  21.621  39.489   3.924
35731W        W  892  13.113  32.202   2.750
35732W        W  893  39.974  35.307   0.909
35733W        W  894  19.586  19.138   5.075
35734W        W  895  20.373  28.390  13.397
35735W        W  896  14.436   2.236   4.015
35736W        W  897   6.935  34.383   2.718
35737W        W  898   9.457  19.061  12.034
35738W        W  899  29.643  14.798  14.329
35739W        W  900  21.649  37.384  10.577
35740W        W  901   2.340  20.080  10.456
35741W        W  902  10.161  34.618  12.278
35742W        W  903  31.969   5.795   3.732
35743W        W  904  29.460  15.056   0.851
35744W        W  905  36.534  15.085  14.853
35745W        W  906  40.331  36.422  12.983
35746W        W  907  41.968  29.547  13.252
35747W        W  908  23.498  27.678   1.168
35748W        W  909  30.589  41.417   2.587
35749W        W  910  16.196  12.238   3.142
35750W        W  911  11.704  32.323  13.250
35751W        W  912  25.597  23.514   0.805
35752W        W  913  43.359  11.975   0.279
35753W        W  914  31.909  29.365   5.388
35754W        W  915  16.681  19.268  10.261
35755W        W  916  22.795  16.222   3.618
35756W        W  917  32.293  14.474   1.383
35757W        W  918  15.533  42.455  13.920
35758W        W  919  34.847  44.231   3.701
35759W        W  920  33.277  30.453  10.952
35760W        W  921  25.751  34.458   4.434
35761W        W  922  42.231  38.920   4.858
35762W        W  923  16.309  40.689   3.729
35763W        W  924  28.120  41.287   3.702
35764W        W  925  35.092  22.559   0.513
35765W        W  926  44.519  30.146   2.714
35766W        W  927   0.268   8.274  12.659
35767W        W  928  20.061   1.273   4.796
35768W        W  929  13.156  39.497  14.111
35769W        W  930  14.901  40.150  14.121
35770W        W  931  34.899  40.313   0.534
35771W        W  932  33.401  23.684   4.174
35772W        W  933  42.530  17.303  11.636
35773W        W  934  17.172   1.874  14.486
35774W        W  935  33.902   1.476  13.013
35775W        W  936  18.031  14.357  11.434
35776W        W  937  30.444  16.884   3.450
35777W        W  938   7.963  39.161   1.331
35778W        W  939  40.525   0.367  12.049
35779W        W  940  33.527   7.249  13.810
35780W        W  941  19.078  13.346   2.004
35781W        W  942  33.687  26.506   0.530
35782W        W  943  33.111  34.934  14.906
35783W        W  944   3.239  30.975   4.552
35784W        W  945   4.162   7.352  13.095
35785W        W  946  12.553  17.083  11.492
35786W        W  947  37.494   9.165   0.359
35787W        W  948  13.714  26.124  11.639
35788W        W  949  15.196   7.716  13.920
35789W        W  950  43.864  39.391  11.422
35790W        W  951  43.698  10.117   2.816
35791W        W  952  29.631  23.750   2.191
35792W        W  953  15.131  21.831   2.367
35793W        W  954   7.085  19.794  11.409
35794W        W  955  44.785  38.847  14.116
35795W        W  956  32.269  29.895   2.815
35796W        W  957  29.426  16.655   1.891
35797W        W  958   9.163  16.230   3.286
35798W        W  959   4.328  25.496   2.778
35799W        W  960   2.813  21.274   0.931
35800W        W  961   1.867   1.525  14.342
35801W        W  962  15.703   5.666  14.036
35802W        W  963  31.729  14.697  14.260
35803W        W  964   6.630  16.147  11.530
35804W        W  965   8.176  14.829  10.693
35805W        W  966  29.935  40.365   2.822
35806W        W  967   7.449  39.378  11.023
35807W        W  968   9.104  26.613   9.990
35808W        W  969  20.046  20.006  14.856
35809W        W  970  22.589  25.554   0.250
35810W        W  971  14.473  12.314  13.354
35811W        W  972  21.035   4.298   3.788
35812W        W  973  13.679   4.186  13.334
35813W        W  974  39.878  32.124  11.540
35814W        W  975   4.383  35.442  10.697
35815W        W  976   6.151   1.481   1.198
35816W        W  977  10.732  41.242   1.233
35817W        W  978   2.764   6.989   1.261
35818W        W  979  35.908  44.416   1.168
35819W        W  980   4.338  37.697  12.701
35820W        W  981  18.818  20.795  11.633
35821W        W  982  16.661   9.249   2.262
35822W        W  983  21.010  25.421   0.866
35823W        W  984  30.520  27.617   2.830
35824W        W  985   5.294   2.207   1.030
35825W        W  986  19.637  40.062  14.380
35826W        W  987   9.302  36.311   1.437
35827W        W  988   4.345  37.574  11.193
35828W        W  989  38.380  37.876  12.828
35829W        W  990  44.482  31.670  12.591
35830W        W  991  15.539   0.479   2.377
35831W        W  992  16.353   2.032   2.165
35832W        W  993  40.267  42.158   0.867
35833W        W  994   0.881  40.663  11.564
35834W        W  995   5.784  25.938   2.391
35835W        W  996  29.417   0.571   1.319
35836W        W  997  12.155  21.117  10.874
35837W        W  998  30.451  26.525   3.754
35838W        W  999  44.751  17.311  12.445
35839W        W 1000  41.198  42.502  11.512
35840W        W 1001   9.134  27.434   1.377
35841W        W 1002  32.440  24.509   3.938
35842W        W 1003  23.185  14.191  11.840
35843W        W 1004  10.190  37.545  12.026
35844W        W 1005  21.933  33.183  12.935
35845W        W 1006  30.017  28.999  11.449
35846W        W 1007  11.212   3.460   0.479
35847W        W 1008  37.366   3.324   2.351
35848W        W 1009  13.219   8.331  12.874
35849W        W 1010   0.469   5.834  13.881
35850W        W 1011   9.414  32.477  12.174
35851W        W 1012   7.732  26.958  10.730
35852W        W 1013  23.665   8.468   0.266
35853W        W 1014  36.944  22.994  12.199
35854W        W 1015  16.846  23.657   1.674
35855W        W 1016  25.726  15.229   2.449
35856W        W 1017   2.406   1.082   0.003
35857W        W 1018   9.321  12.692  14.760
35858W        W 1019  39.438  22.654  14.486
35859W        W 1020  25.717  25.391   0.397
35860W        W 1021  23.156  14.637   3.802
35861W        W 1022  14.790  28.720   1.317
35862W        W 1023  22.389  25.562  12.586
35863W        W 1024  38.092  25.958  11.536
35864W        W 1025  27.495  15.118   3.648
35865W        W 1026  33.216  26.936  10.561
35866W        W 1027  40.772  19.144  13.438
35867W        W 1028  15.638  41.573   0.787
35868W        W 1029  33.134  37.276   5.318
35869W        W 1030  44.750  16.861  12.178
35870W        W 1031  18.666  18.870   4.728
35871W        W 1032  10.607  15.637  13.989
35872W        W 1033   5.984  14.879   2.719
35873W        W 1034  10.669  37.041  12.834
35874W        W 1035  14.112   1.517  12.786
35875W        W 1036  25.206  38.390   3.354
35876W        W 1037   0.635  25.937  11.733
35877W        W 1038  22.176  27.553   0.680
35878W        W 1039  18.639  38.460   1.241
35879W        W 1040   8.274   7.637  11.202
35880W        W 1041  34.533  25.162   4.039
35881W        W 1042   0.796  43.043   1.215
35882W        W 1043  30.670   2.040  14.034
35883W        W 1044  15.808  22.158  13.427
35884W        W 1045  34.922  32.263   4.872
35885W        W 1046  39.894  13.833  13.030
35886W        W 1047  35.351  20.414  11.543
35887W        W 1048  11.447  22.131  14.314
35888W        W 1049  39.516  11.637  14.089
35889W        W 1050  37.958   9.796  10.475
35890W        W 1051  13.956  44.942  11.006
35891W        W 1052   8.740  23.313  11.148
35892W        W 1053  14.169   5.411  11.054
35893W        W 1054   8.342  23.601  13.175
35894W        W 1055  29.494  39.046   3.645
35895W        W 1056  19.812   1.961  13.438
35896W        W 1057  14.661  34.578   0.334
35897W        W 1058  33.837  11.138   3.778
35898W        W 1059   8.177  38.265   4.442
35899W        W 1060  28.225   7.601  13.452
35900W        W 1061  12.397  27.859   4.055
35901W        W 1062  38.841  23.416   3.370
35902W        W 1063  29.369  24.297   4.905
35903W        W 1064  16.110  14.289  12.882
35904W        W 1065  35.024  38.911  12.951
35905W        W 1066  24.623   6.232   2.209
35906W        W 1067  25.471   5.200   2.782
35907W        W 1068   4.155  30.871  11.580
35908W        W 1069  43.174  18.816  13.435
35909W        W 1070   6.675   7.076   4.378
35910W        W 1071  38.675  27.061   0.248
35911W        W 1072  18.135  20.385   4.024
35912W        W 1073   2.625  27.511   0.898
35913W        W 1074   4.060  16.301  14.973
35914W        W 1075   9.617  38.527   1.881
35915W        W 1076   9.135  36.049  12.457
35916W        W 1077  38.489   8.205   3.966
35917W        W 1078   2.534  14.589   2.187
35918W        W 1079  20.038  38.288   1.695
35919W        W 1080   8.469  25.925   2.666
35920W        W 1081  39.655  36.002   4.155
35921W        W 1082   9.818  25.003  11.966
35922W        W 1083  30.859   8.730  14.462
35923W        W 1084  31.946  28.720   0.362
35924W        W 1085  29.375   7.732  11.156
35925W        W 1086  19.015  31.029   1.304
35926W        W 1087  24.115   8.902  12.924
35927W        W 1088  30.383  12.849   0.301
35928W        W 1089  29.577  22.589   1.495
35929W        W 1090  10.276   5.099  13.988
35930W        W 1091  27.805  23.067  14.287
35931W        W 1092  34.368  37.344   3.409
35932W        W 1093  18.684  23.732   5.019
35933W        W 1094  29.687  21.293  10.750
35934W        W 1095   4.886  23.933  12.403
35935W        W 1096  10.850  12.753   5.233
35936W        W 1097  28.094  32.139  12.116
35937W        W 1098  44.375  20.908  12.671
35938W        W 1099  42.921  17.067  12.318
35939W        W 1100  44.032  17.772   0.853
35940W        W 1101   6.014   4.819  10.702
35941W        W 1102   2.002  30.128   1.811
35942W        W 1103  44.820  42.258  12.968
35943W        W 1104   4.346   6.151  12.413
35944W        W 1105  12.390  27.452  12.571
35945W        W 1106  19.732  23.453  13.935
35946W        W 1107  29.082  27.315   2.284
35947W        W 1108   7.299  29.975  14.571
35948W        W 1109  15.567  24.243   0.830
35949W        W 1110  14.558  17.247  14.508
35950W        W 1111   8.482  10.548   2.786
35951W        W 1112  20.592  40.822  12.145
35952W        W 1113  12.325   6.641  12.393
35953W        W 1114  11.410  37.978   4.378
35954W        W 1115  14.322  39.873   0.994
35955W        W 1116  32.351  40.476  11.987
35956W        W 1117  16.722  35.287   4.651
35957W        W 1118  32.067   7.018  11.008
35958W        W 1119  11.827  34.420   0.498
35959W        W 1120   9.785  21.151  14.812
35960W        W 1121  34.785  43.081  14.257
35961W        W 1122  42.574   1.150   1.439
35962W        W 1123  22.558  29.616   3.122
35963W        W 1124  44.769   3.585   2.293
35964W        W 1125  24.974   1.314   3.182
35965W        W 1126  17.285  33.932   0.762
35966W        W 1127  44.762  20.561  14.264
35967W        W 1128  23.598  10.212  12.853
35968W        W 1129  15.429  10.177   4.801
35969W        W 1130  42.883  39.729   2.861
35970W        W 1131  13.720  19.180  12.489
35971W        W 1132   7.548  30.833  12.419
35972W        W 1133  18.087  38.789  11.619
35973W        W 1134   5.675  44.786  13.576
35974W        W 1135  33.937  26.026   4.048
35975W        W 1136   6.158  12.705  13.342
35976W        W 1137  17.726  37.766   2.630
35977W        W 1138  13.551   0.194  13.465
35978W        W 1139   9.144  33.327  12.216
35979W        W 1140   0.847  35.444   1.735
35980W        W 1141  36.793   2.225  14.477
35981W        W 1142   3.547   0.316  14.423
35982W        W 1143  31.540   9.917  11.976
35983W        W 1144  19.353  16.955  13.382
35984W        W 1145  12.256  43.361   1.279
35985W        W 1146  14.880  11.646   4.600
35986W        W 1147  17.888  34.855   1.915
35987W        W 1148  31.797  13.384  12.318
35988W        W 1149  39.029  43.463  11.171
35989W        W 1150  36.159  19.260  14.286
35990W        W 1151   6.305  10.431  13.952
35991W        W 1152  16.657  13.754  14.993
35992W        W 1153  26.722  23.259  12.572
35993W        W 1154  33.611  40.389  13.984
35994W        W 1155   9.059  31.557   4.647
35995W        W 1156   8.801  25.683   3.125
35996W        W 1157  17.200  25.667   0.221
35997W        W 1158  25.193  37.554  11.241
35998W        W 1159  25.356  20.145   3.169
35999W        W 1160   0.081  20.281  13.019
36000W        W 1161  21.211  40.459   2.319
36001W        W 1162  36.620  19.243   0.517
36002W        W 1163  38.162   6.284  13.810
36003W        W 1164   5.150  10.185   0.514
36004W        W 1165   5.191  20.501  11.142
36005W        W 1166  17.817  19.871   0.791
36006W        W 1167  25.986  28.534   2.728
36007W        W 1168  23.214   5.248  10.666
36008W        W 1169  36.268   2.272  14.434
36009W        W 1170  13.075  12.736   0.917
36010W        W 1171   4.300   2.557   4.646
36011W        W 1172   5.422  19.698   2.373
36012W        W 1173  17.557   1.411   3.176
36013W        W 1174  16.742  33.013  13.929
36014W        W 1175  23.452  42.506   3.206
36015W        W 1176  23.082   9.279   2.811
36016W        W 1177  44.715   0.011   0.808
36017W        W 1178  18.488   3.198   0.900
36018W        W 1179   7.781  39.013   4.142
36019W        W 1180  10.287  24.992  12.986
36020W        W 1181  34.976  39.311   1.487
36021W        W 1182   5.267  38.633   0.704
36022W        W 1183  40.768  32.417   0.114
36023W        W 1184  34.632  11.915   1.465
36024W        W 1185  17.142  27.888  11.111
36025W        W 1186  14.371  25.069   4.089
36026W        W 1187  12.616  22.678   2.714
36027W        W 1188  19.071   4.422   3.706
36028W        W 1189   4.389   0.525   1.742
36029W        W 1190   2.029  14.708   2.207
36030W        W 1191  34.803  17.483   0.876
36031W        W 1192   7.330   2.221   0.666
36032W        W 1193  13.983   0.239  12.501
36033W        W 1194  19.737  40.139   4.596
36034W        W 1195  23.688  24.480   3.737
36035W        W 1196  42.963  38.278  14.332
36036W        W 1197  11.998  21.629  13.090
36037W        W 1198  42.912  39.068  12.629
36038W        W 1199  14.940   5.378  11.643
36039W        W 1200   1.018  10.387  11.829
36040W        W 1201  36.656   7.616   4.110
36041W        W 1202  19.707   2.418   0.363
36042W        W 1203  18.884   7.462   4.146
36043W        W 1204  30.134   3.327   2.328
36044W        W 1205  33.198   0.868  13.002
36045W        W 1206  44.086  29.909   2.253
36046W        W 1207   7.196  38.381   2.000
36047W        W 1208  22.730  30.453  14.423
36048W        W 1209  14.103  36.382  13.830
36049W        W 1210  23.726  15.772  11.552
36050W        W 1211  34.985  31.417   1.270
36051W        W 1212  17.905  22.152   0.595
36052W        W 1213  42.354   7.211  11.443
36053W        W 1214  30.329  29.135  13.073
36054W        W 1215  37.234   9.160  11.630
36055W        W 1216  18.983   3.032   3.723
36056W        W 1217   9.396  21.607   3.006
36057W        W 1218  34.092  42.321  12.884
36058W        W 1219  27.719  25.112  13.928
36059W        W 1220  40.013  16.540   1.687
36060W        W 1221  18.674  27.243  11.702
36061W        W 1222  37.018  11.087   3.157
36062W        W 1223  10.694  30.028   0.852
36063W        W 1224  21.052  11.682  11.980
36064W        W 1225  25.845  38.507   2.210
36065W        W 1226  18.409  23.461  12.080
36066W        W 1227  43.324   4.663  11.151
36067W        W 1228   7.346  25.244   1.868
36068W        W 1229   2.764  14.684   1.233
36069W        W 1230  36.534  39.274  14.368
36070W        W 1231  13.263  37.441   2.398
36071W        W 1232  30.990   7.897  13.888
36072W        W 1233  17.678  38.071   3.363
36073W        W 1234  22.963  31.900  13.117
36074W        W 1235  43.333   7.879  12.295
36075W        W 1236  42.472  11.257   3.296
36076W        W 1237   0.416  17.996   4.641
36077W        W 1238  44.037  30.358  13.433
36078W        W 1239  22.517  29.980   3.909
36079W        W 1240  23.421  20.494  12.040
36080W        W 1241  29.012  21.007   1.400
36081W        W 1242   7.119  22.237  10.828
36082W        W 1243  25.769  18.624   0.741
36083W        W 1244   4.555  18.791   0.371
36084W        W 1245  13.370   3.427   3.591
36085W        W 1246  30.910  15.011   0.631
36086W        W 1247   9.935  23.286   4.617
36087W        W 1248  18.782  28.140   4.967
36088W        W 1249  16.039   2.865   0.194
36089W        W 1250  38.974  33.590  12.906
36090W        W 1251  22.809  29.655   5.047
36091W        W 1252  26.911  15.167  12.077
36092W        W 1253  16.351  28.627  12.812
36093W        W 1254   8.927   2.699   0.798
36094W        W 1255   3.922  29.409   0.061
36095W        W 1256  23.270  31.568  14.408
36096W        W 1257   0.491   6.819  13.309
36097W        W 1258  19.698  20.767  14.844
36098W        W 1259  21.703  44.921   1.202
36099W        W 1260  41.588   3.419  12.216
36100W        W 1261   6.576  33.660  11.546
36101W        W 1262  40.175  41.090   5.108
36102W        W 1263  20.628  15.772   2.729
36103W        W 1264  35.381  19.667  12.109
36104W        W 1265  26.601  41.911  13.521
36105W        W 1266   8.821  18.440  12.617
36106W        W 1267  11.030  41.710  13.279
36107W        W 1268  44.435   4.061  13.521
36108W        W 1269  39.408  29.778   3.605
36109W        W 1270  20.808  26.093  13.765
36110W        W 1271  23.549   1.558   0.858
36111W        W 1272  25.460  13.655  12.129
36112W        W 1273  21.214   2.947   1.288
36113W        W 1274  37.843  10.553   2.227
36114W        W 1275  33.485   4.108   3.719
36115W        W 1276  23.104  40.400   3.674
36116W        W 1277  23.403  25.510  12.521
36117W        W 1278  16.112   0.407   1.820
36118W        W 1279  10.590  44.404   1.281
36119W        W 1280  35.912  35.334   3.796
36120W        W 1281  37.128  18.373  13.289
36121W        W 1282  19.142  20.798   0.419
36122W        W 1283  21.237  14.261   0.382
36123W        W 1284  39.379  24.456   3.834
36124W        W 1285  17.816  34.364  12.920
36125W        W 1286   4.022   7.856  13.626
36126W        W 1287   3.667  14.993   3.758
36127W        W 1288  37.930  30.604   1.250
36128W        W 1289  27.154  24.224  11.977
36129W        W 1290  15.895  16.844   3.852
36130W        W 1291   9.348  25.493  13.141
36131W        W 1292   9.809  43.828  14.341
36132W        W 1293  36.506  11.262  11.455
36133W        W 1294  29.333  32.094   0.885
36134W        W 1295  26.999  14.839  13.805
36135W        W 1296  44.047  39.517   2.317
36136W        W 1297  38.595   8.883  13.475
36137W        W 1298   8.503  22.568  13.819
36138W        W 1299  41.792  25.702  11.256
36139W        W 1300  34.613  18.970   4.186
36140W        W 1301  23.823  44.860  13.558
36141W        W 1302  39.242   7.554  14.485
36142W        W 1303   5.900   3.445   0.462
36143W        W 1304  28.908  11.049   1.501
36144W        W 1305   7.252  26.528  14.292
36145W        W 1306   6.445  29.540   3.667
36146W        W 1307   0.804   1.987  13.996
36147W        W 1308  44.666  36.692   1.984
36148W        W 1309  19.072  42.524  11.947
36149W        W 1310  19.463  40.264  11.832
36150W        W 1311  41.073   2.480   0.928
36151W        W 1312  40.726  33.422  14.988
36152W        W 1313  32.641  22.834  12.924
36153W        W 1314  22.530   7.780   1.194
36154W        W 1315  15.256  18.932   0.321
36155W        W 1316  41.589  29.525  14.085
36156W        W 1317  21.697   3.437   3.078
36157W        W 1318  43.026  38.243   1.871
36158W        W 1319  31.720  19.203  14.836
36159W        W 1320  14.358  32.353  11.060
36160W        W 1321  19.258   3.945   2.840
36161W        W 1322  17.270  32.139   1.308
36162W        W 1323  22.726  30.450  10.245
36163W        W 1324   9.815  25.051   1.026
36164W        W 1325  25.772  33.609   3.236
36165W        W 1326  18.698  13.864   1.824
36166W        W 1327  22.208  26.646  13.439
36167W        W 1328  26.069  39.443  10.665
36168W        W 1329   4.153  14.580  14.490
36169W        W 1330   0.255  34.101  12.723
36170W        W 1331  43.832   0.415   1.357
36171W        W 1332  14.596  33.105   3.774
36172W        W 1333  15.762  19.780   4.136
36173W        W 1334  42.809  25.453  11.615
36174W        W 1335  19.266  26.432  14.390
36175W        W 1336   8.271  18.744   3.308
36176W        W 1337  15.352  30.383   0.702
36177W        W 1338  18.109  23.293  11.553
36178W        W 1339  35.957  41.865  14.860
36179W        W 1340  43.417  25.621   4.529
36180W        W 1341  22.608  41.317  13.529
36181W        W 1342  39.907  29.993   3.145
36182W        W 1343  31.478   0.774   3.836
36183W        W 1344  31.332  38.565   2.710
36184W        W 1345  16.404  31.662  11.285
36185W        W 1346  23.302   6.362   3.284
36186W        W 1347  13.050  40.456  13.008
36187W        W 1348  29.015  35.808  11.453
36188W        W 1349   4.515   7.293   2.376
36189W        W 1350   0.799  10.850  13.556
36190W        W 1351  32.763  32.398  14.282
36191W        W 1352  14.168  27.122   4.720
36192W        W 1353  41.384  28.447  12.356
36193W        W 1354  26.357   2.264  10.489
36194W        W 1355  33.588   8.370  11.999
36195W        W 1356   4.449  17.053   3.282
36196W        W 1357  31.899  27.135   2.308
36197W        W 1358  17.690  11.689  12.836
36198W        W 1359  11.421  44.970  11.149
36199W        W 1360  14.772   1.324  11.588
36200W        W 1361  34.063   8.279   0.602
36201W        W 1362   4.896  34.104   3.290
36202W        W 1363  31.175   1.699  10.796
36203W        W 1364  15.166  38.476  13.822
36204W        W 1365   8.261  41.491   1.252
36205W        W 1366  39.468  23.372   0.858
36206W        W 1367   6.185  31.011  13.348
36207W        W 1368   5.474  14.663  11.639
36208W        W 1369   3.686  12.531   3.669
36209W        W 1370  34.973   1.399  13.642
36210W        W 1371  25.781  18.203  13.397
36211W        W 1372  27.772   1.751   1.034
36212W        W 1373  24.214   9.811   4.438
36213W        W 1374  30.137  44.875   3.137
36214W        W 1375   5.033  22.028   9.890
36215W        W 1376  26.534  43.358   3.270
36216W        W 1377  15.681  34.157   1.422
36217W        W 1378  27.003   8.459  12.962
36218W        W 1379  37.056  30.054  12.368
36219W        W 1380   7.407  41.555  10.787
36220W        W 1381  29.936   5.914   1.762
36221W        W 1382  19.034  13.820  14.662
36222W        W 1383  26.030  12.026   3.183
36223W        W 1384  43.953   6.632  14.452
36224W        W 1385  25.993   9.355  12.375
36225W        W 1386   7.246  18.637  11.992
36226W        W 1387  41.602  21.750   3.142
36227W        W 1388  43.370  38.968   2.903
36228W        W 1389  14.448   5.817   2.900
36229W        W 1390  10.083  20.041   1.131
36230W        W 1391   1.228  15.368  11.830
36231W        W 1392   9.684  30.072   0.899
36232W        W 1393   4.091  11.257  10.866
36233W        W 1394  15.408  14.352   1.874
36234W        W 1395  16.395   6.939  14.569
36235W        W 1396  40.078  36.270  12.559
36236W        W 1397  39.083  34.635  10.993
36237W        W 1398  39.573  13.483  11.921
36238W        W 1399  21.242  22.724   2.256
36239W        W 1400  19.987  32.446  14.003
36240W        W 1401  41.550  39.940   2.817
36241W        W 1402  19.735  11.023   3.603
36242W        W 1403  32.140  44.934   4.720
36243W        W 1404  15.449  36.431  11.988
36244W        W 1405  41.435   1.175  10.688
36245W        W 1406  18.834  39.206  12.013
36246W        W 1407   6.465   0.236  13.877
36247W        W 1408  14.747  10.134   4.208
36248W        W 1409   0.884  35.963   3.910
36249W        W 1410  21.982  38.834  14.883
36250W        W 1411   1.908  26.007   9.887
36251W        W 1412   2.989  13.169   2.606
36252W        W 1413  20.350  23.490   0.397
36253W        W 1414  39.946  40.550  12.045
36254W        W 1415  37.645  16.587  14.382
36255W        W 1416  33.527   0.165   0.379
36256W        W 1417  22.449  11.914   0.446
36257W        W 1418  42.592  34.914   1.682
36258W        W 1419  28.943  36.405   1.450
36259W        W 1420   1.981  20.166  12.796
36260W        W 1421  41.380  24.144   0.290
36261W        W 1422  21.716  26.430  10.671
36262W        W 1423   3.512  27.979  12.441
36263W        W 1424  30.084  11.633   2.769
36264W        W 1425  40.891   9.996  11.837
36265W        W 1426  28.737  27.389   2.676
36266W        W 1427  29.390  38.675  13.250
36267W        W 1428  34.845  11.725  14.967
36268W        W 1429  20.550  29.696   4.221
36269W        W 1430   2.506  36.310   3.621
36270W        W 1431   5.552  24.205  10.538
36271W        W 1432  13.719  39.758  11.980
36272W        W 1433   9.280   9.938   0.249
36273W        W 1434  26.110  25.167   1.776
36274W        W 1435   6.383  20.693   0.650
36275W        W 1436  42.664  21.943  10.622
36276W        W 1437  36.065  27.112   2.633
36277W        W 1438  33.695  19.236  13.930
36278W        W 1439  27.915  30.126   1.026
36279W        W 1440  21.442   4.840  12.103
36280W        W 1441   1.949  44.776  10.773
36281W        W 1442   2.005  31.847   1.306
36282W        W 1443  10.822   5.217   3.841
36283W        W 1444  32.404  29.010   2.551
36284W        W 1445   0.025  42.448   3.271
36285W        W 1446  23.681  39.891  11.243
36286W        W 1447  28.094   4.994   4.545
36287W        W 1448  13.342  13.304  14.892
36288W        W 1449  23.989  41.918   3.666
36289W        W 1450  14.349   7.403  13.059
36290W        W 1451  34.168  35.877   0.818
36291W        W 1452  14.046  20.603  12.446
36292W        W 1453  23.559  19.015   4.483
36293W        W 1454  39.970  23.558   2.849
36294W        W 1455  20.670  26.996  12.561
36295W        W 1456  27.314  13.851  12.291
36296W        W 1457  18.143  18.780   0.022
36297W        W 1458   8.780  21.843  12.891
36298W        W 1459   1.779   5.588   4.565
36299W        W 1460   9.801  18.027  11.416
36300W        W 1461  38.560  20.317   1.054
36301W        W 1462  38.237   5.029  13.345
36302W        W 1463   8.718  10.746  11.083
36303W        W 1464  34.311  35.895   2.339
36304W        W 1465  34.338  10.664  10.508
36305W        W 1466  29.505   4.266   4.584
36306W        W 1467  22.104  18.845  12.129
36307W        W 1468  27.909  37.053  12.135
36308W        W 1469   3.671  16.529  11.182
36309W        W 1470  25.524  11.745  12.956
36310W        W 1471  43.154   1.216  11.862
36311W        W 1472  41.058  10.398   1.187
36312W        W 1473   1.486  32.665  14.463
36313W        W 1474   7.804   0.955   4.320
36314W        W 1475  15.362  20.112   2.693
36315W        W 1476  44.838  31.179  14.747
36316W        W 1477  23.580  39.621  14.742
36317W        W 1478  40.944  35.283   1.805
36318W        W 1479  12.615  22.159   4.515
36319W        W 1480  11.251   5.185  14.402
36320W        W 1481   7.831  35.994   4.558
36321W        W 1482   4.728  29.001   1.226
36322W        W 1483  34.472   3.061   0.703
36323W        W 1484  13.205   0.914  13.816
36324W        W 1485  19.646   5.721  14.833
36325W        W 1486  27.579  20.997  14.371
36326W        W 1487  18.469  14.582  11.994
36327W        W 1488  39.052  10.628   2.145
36328W        W 1489   9.575  33.873  12.237
36329W        W 1490  23.149  27.073  12.009
36330W        W 1491  15.088  41.231  10.807
36331W        W 1492   6.715  15.892  11.106
36332W        W 1493  33.872  32.051  10.669
36333W        W 1494  14.234   3.943   1.705
36334W        W 1495   9.734  18.144   0.325
36335W        W 1496  11.421  44.651   4.215
36336W        W 1497  41.031   1.705   2.792
36337W        W 1498   0.918  13.479   2.514
36338W        W 1499  29.675  33.474   1.647
36339W        W 1500  42.531   3.510  14.643
36340W        W 1501  23.967  25.359  13.129
36341W        W 1502   4.917  30.908   4.684
36342W        W 1503  38.109   9.661  11.443
36343W        W 1504  17.146  34.795   4.608
36344W        W 1505  15.502  20.625  11.679
36345W        W 1506  43.675  33.456  13.300
36346W        W 1507  24.011  30.116  14.904
36347W        W 1508   8.079  36.562   4.626
36348W        W 1509  37.153   8.122   1.729
36349W        W 1510  23.879  17.426   3.585
36350W        W 1511  33.568  14.699  11.981
36351W        W 1512  18.971  22.182   2.499
36352W        W 1513  42.333  44.158  12.139
36353W        W 1514  20.575  16.530  12.436
36354W        W 1515  41.894   1.549  12.861
36355W        W 1516  14.811   1.423  14.040
36356W        W 1517  40.966   2.373  10.537
36357W        W 1518  19.769  12.560   0.721
36358W        W 1519  33.971  25.062  10.233
36359W        W 1520  33.571   4.812  11.851
36360W        W 1521  41.890  16.257   2.385
36361W        W 1522   9.195  16.476   0.059
36362W        W 1523   3.932  40.798  11.613
36363W        W 1524  16.744  21.108  12.999
36364W        W 1525  40.836  13.713  14.897
36365W        W 1526  14.627   6.951  10.508
36366W        W 1527  39.217   1.837   2.777
36367W        W 1528  34.613  22.526   2.134
36368W        W 1529  18.578   5.728   4.584
36369W        W 1530  25.539  36.509  12.813
36370W        W 1531   7.731  32.459   4.493
36371W        W 1532  32.535   0.324  14.939
36372W        W 1533  40.877  13.040   2.723
36373W        W 1534  23.287  16.682   4.233
36374W        W 1535   6.513   0.456   2.983
36375W        W 1536  10.558  32.971  11.976
36376W        W 1537  13.663  15.271  11.442
36377W        W 1538   7.243   1.273   4.502
36378W        W 1539  26.511  24.061  13.296
36379W        W 1540  31.481  34.610   2.740
36380W        W 1541  38.776  30.814   4.702
36381W        W 1542  19.658  22.565  12.995
36382W        W 1543  33.353  40.755   1.718
36383W        W 1544  22.837  23.515  12.744
36384W        W 1545  15.235  40.622   3.407
36385W        W 1546  24.483  14.299   3.349
36386W        W 1547  35.534  28.892   0.635
36387W        W 1548  31.497   1.377  11.026
36388W        W 1549  21.673  43.933   4.594
36389W        W 1550  13.563  20.703  12.636
36390W        W 1551  39.551   8.369   3.715
36391W        W 1552  20.760  43.439   3.743
36392W        W 1553  32.112  22.553   1.391
36393W        W 1554  21.904  39.425   1.433
36394W        W 1555  39.869  34.656  14.115
36395W        W 1556  11.764   2.647  13.965
36396W        W 1557  31.995  18.211  13.138
36397W        W 1558  39.247  21.213  11.971
36398W        W 1559  24.169  44.486  14.421
36399W        W 1560  39.008  19.223  12.335
36400W        W 1561   1.003  17.583  10.650
36401W        W 1562  29.984   0.024   0.564
36402W        W 1563   5.796   1.073   4.566
36403W        W 1564  17.694  13.334   1.469
36404W        W 1565   9.355  39.452   0.224
36405W        W 1566   7.310  18.018  14.271
36406W        W 1567  13.670  13.389   2.717
36407W        W 1568  17.878   3.679   2.792
36408W        W 1569  31.773   4.017   1.992
36409W        W 1570   0.794  25.124  14.659
36410W        W 1571   0.496  28.740  11.189
36411W        W 1572  27.487  32.327  13.388
36412W        W 1573  31.686   3.256  13.436
36413W        W 1574  35.096   6.644  12.110
36414W        W 1575  41.101  35.416  13.238
36415W        W 1576  12.117   9.944  11.771
36416W        W 1577   5.811   2.087   4.739
36417W        W 1578  12.011  44.333  14.545
36418W        W 1579  34.145  12.245  12.032
36419W        W 1580  20.718  17.845   2.537
36420W        W 1581  19.524   5.234   4.457
36421W        W 1582  17.578  37.289   0.446
36422W        W 1583   1.064  35.129   4.231
36423W        W 1584  25.324   6.804  14.388
36424W        W 1585  39.973  19.261  11.989
36425W        W 1586   3.260  44.860  14.920
36426W        W 1587  34.006  17.533  11.439
36427W        W 1588   9.290   9.177  13.585
36428W        W 1589   5.671  10.408  11.206
36429W        W 1590   0.391  38.334   2.739
36430W        W 1591  15.067  19.460   4.586
36431W        W 1592   0.229  11.659   0.191
36432W        W 1593  28.014  32.198  13.367
36433W        W 1594  14.621  33.641  14.280
36434W        W 1595  22.613  17.626  10.526
36435W        W 1596  27.965  24.213  10.708
36436W        W 1597  34.473  20.847  12.028
36437W        W 1598   4.416  34.673   2.935
36438W        W 1599  29.506  27.662  13.553
36439W        W 1600  18.909   8.743   0.214
36440W        W 1601  40.782  29.603   4.796
36441W        W 1602  35.386  25.906  12.896
36442W        W 1603   2.476  10.526  10.282
36443W        W 1604  14.906  24.355  14.852
36444W        W 1605  24.163  12.126   2.130
36445W        W 1606  11.381   0.791   2.416
36446W        W 1607  15.628   8.695   4.970
36447W        W 1608  19.191  29.908   2.302
36448W        W 1609   8.796  19.954   2.822
36449W        W 1610   4.892  32.321  13.336
36450W        W 1611  10.369   5.902  12.923
36451W        W 1612  30.067  16.139  14.761
36452W        W 1613  14.839  23.182  11.926
36453W        W 1614  16.290  18.416   3.654
36454W        W 1615  42.972  14.307   0.473
36455W        W 1616  38.369   9.085   4.389
36456W        W 1617  27.607  43.027   3.811
36457W        W 1618   1.339  15.397   0.751
36458W        W 1619   3.471  42.556   0.751
36459W        W 1620  39.369  25.261   4.160
36460W        W 1621   3.680   8.707   2.740
36461W        W 1622  15.308  37.984  10.945
36462W        W 1623  19.091  44.950   4.599
36463W        W 1624   1.464   7.702  13.153
36464W        W 1625  44.865  24.174   2.751
36465W        W 1626  42.824  44.774   2.023
36466W        W 1627  38.050   9.675   0.137
36467W        W 1628  24.484  14.912   2.265
36468W        W 1629   5.490  18.336   3.838
36469W        W 1630  32.835   4.413  10.515
36470W        W 1631  42.238  29.840  11.766
36471W        W 1632   7.828  29.986  14.446
36472W        W 1633  22.913   2.390   2.240
36473W        W 1634  22.033  19.536   0.744
36474W        W 1635  36.108  17.174  11.957
36475W        W 1636  17.210  38.847   2.835
36476W        W 1637  11.885   2.449  12.125
36477W        W 1638  42.843  44.183  12.042
36478W        W 1639  20.719   3.913   3.593
36479W        W 1640  17.726  11.907   2.671
36480W        W 1641  22.648  11.332  10.265
36481W        W 1642   1.851  20.463  11.678
36482W        W 1643  31.946   4.339   3.280
36483W        W 1644  38.845   6.781  13.517
36484W        W 1645  21.798   6.353   2.139
36485W        W 1646   1.215  19.806   1.813
36486W        W 1647  39.331   2.296  11.311
36487W        W 1648  11.235  10.130   0.345
36488W        W 1649  43.087  33.628  12.396
36489W        W 1650  14.508  41.945   3.638
36490W        W 1651  37.533   1.004   0.486
36491W        W 1652  18.250  27.160   3.771
36492W        W 1653  31.979  30.709   2.814
36493W        W 1654  38.490  37.328   2.706
36494W        W 1655   6.834  29.418  12.813
36495W        W 1656   1.907   0.218  14.052
36496W        W 1657  34.589   3.725  13.291
36497W        W 1658  31.554   7.052  12.592
36498W        W 1659  36.956  40.915  11.837
36499W        W 1660  38.521  15.800   4.413
36500W        W 1661   7.410  38.026   0.738
36501W        W 1662  27.259  41.413  13.785
36502W        W 1663  41.062  29.523   3.705
36503W        W 1664  38.410  13.771   2.641
36504W        W 1665  28.632  30.115  11.328
36505W        W 1666  32.977  23.070  13.263
36506W        W 1667  14.034   5.813  14.384
36507W        W 1668  20.224   2.376   4.947
36508W        W 1669  16.342  37.417   0.783
36509W        W 1670  23.729  27.558   4.856
36510W        W 1671  24.028  37.509   2.053
36511W        W 1672  35.344  43.943  10.561
36512W        W 1673  29.860  31.565   3.788
36513W        W 1674   4.609  16.278   4.954
36514W        W 1675  15.400  15.114  11.986
36515W        W 1676   6.318  27.570  12.044
36516W        W 1677   3.190  24.256   1.294
36517W        W 1678  23.183  26.577   4.781
36518W        W 1679  10.797  33.438  12.613
36519W        W 1680  29.031  22.137  13.162
36520W        W 1681  22.646  42.319   4.940
36521W        W 1682  15.831  27.713  13.032
36522W        W 1683  27.665  25.488  13.092
36523W        W 1684   7.948  42.397   2.690
36524W        W 1685  41.311  19.201   1.553
36525W        W 1686   2.340  39.816  10.757
36526W        W 1687   1.135  40.856   3.150
36527W        W 1688  30.952   3.652  12.765
36528W        W 1689  40.441  35.609  11.527
36529W        W 1690  30.901   0.440   4.607
36530W        W 1691  43.502  19.235   4.350
36531W        W 1692  15.523  22.482  12.586
36532W        W 1693   3.452   0.427   2.231
36533W        W 1694  39.111  38.513  10.422
36534W        W 1695  16.540  39.827  14.769
36535W        W 1696  29.901  36.654  13.538
36536W        W 1697  39.911  42.264  11.898
36537W        W 1698  37.476  16.107   2.159
36538W        W 1699   5.796  37.212  11.790
36539W        W 1700   5.506  12.118   1.444
36540W        W 1701  10.034  26.398   4.085
36541W        W 1702  13.241  26.698   2.437
36542W        W 1703  30.756  13.996   9.894
36543W        W 1704  35.596  28.633   0.170
36544W        W 1705  44.551  41.747  12.405
36545W        W 1706   9.831  24.663  14.044
36546W        W 1707   1.837  17.418  14.479
36547W        W 1708   8.128  36.108  12.171
36548W        W 1709  31.899  37.095  12.921
36549W        W 1710   0.399  26.500   1.748
36550W        W 1711  29.996   7.121  11.213
36551W        W 1712  43.365  21.635  13.714
36552W        W 1713  10.152  23.497   2.607
36553W        W 1714  28.992   7.843   4.363
36554W        W 1715  35.897  38.407   3.094
36555W        W 1716  37.032  23.114   4.611
36556W        W 1717   1.454  25.402   3.343
36557W        W 1718  35.122  35.407   1.799
36558W        W 1719  41.950  22.737   0.343
36559W        W 1720  18.178  43.980  13.063
36560W        W 1721  10.706  30.813   2.500
36561W        W 1722  39.521  31.341   0.058
36562W        W 1723  10.807  27.591   0.286
36563W        W 1724  28.963  44.890   0.296
36564W        W 1725  41.268  15.799   3.654
36565W        W 1726  43.735  23.095  14.437
36566W        W 1727  11.420  38.355   0.133
36567W        W 1728  18.062  37.398  12.041
36568W        W 1729  33.893  16.808  12.097
36569W        W 1730  20.331   1.862  11.204
36570W        W 1731  36.969  10.460   4.186
36571W        W 1732  16.235   5.722   0.008
36572W        W 1733  43.012  44.511  13.787
36573W        W 1734  43.848  19.531   4.047
36574W        W 1735   7.991  10.237   0.155
36575W        W 1736  44.169  10.103   4.098
36576W        W 1737   6.689  39.720   4.171
36577W        W 1738  43.334   9.824   4.088
36578W        W 1739   6.290  20.066   4.859
36579W        W 1740   6.651  21.249   3.108
36580W        W 1741  13.273  10.621   1.306
36581W        W 1742   9.767  39.425   4.561
36582W        W 1743  42.258  35.331  12.316
36583W        W 1744  11.119  16.204   1.803
36584W        W 1745  33.893  12.623  13.095
36585W        W 1746   2.494   1.440   0.376
36586W        W 1747  26.657  35.155  14.476
36587W        W 1748  44.191  11.151  11.587
36588W        W 1749   7.728  30.552   2.012
36589W        W 1750   2.974  31.502  11.712
36590W        W 1751  23.353  41.383   0.418
36591W        W 1752   1.525  14.257   2.773
36592W        W 1753  37.260   4.880   2.212
36593W        W 1754  28.718  41.532  14.033
36594W        W 1755   6.610  11.797   3.784
36595W        W 1756  31.121  19.062   4.301
36596W        W 1757  42.076  32.924   2.392
36597W        W 1758   1.946  13.758   3.318
36598W        W 1759  29.143  18.269  14.250
36599W        W 1760   7.536  43.456   4.157
36600W        W 1761  14.349  29.733  14.074
36601W        W 1762   9.943  35.347  14.305
36602W        W 1763  21.643   6.243   2.709
36603W        W 1764   6.769   2.209  13.114
36604W        W 1765  24.230  24.668  11.422
36605W        W 1766   5.611  42.270  13.008
36606W        W 1767  43.770  32.651   2.954
36607W        W 1768  36.842  44.010   0.039
36608W        W 1769  22.473   9.320  11.316
36609W        W 1770  10.168   2.056   3.460
36610W        W 1771  14.285  32.908  13.356
36611W        W 1772  15.350  34.677   4.702
36612W        W 1773  21.966  43.032   2.861
36613W        W 1774  32.080  40.917   4.538
36614W        W 1775  43.428   3.837  14.539
36615W        W 1776  33.330   2.216  14.487
36616W        W 1777  35.416  31.718   1.245
36617W        W 1778  35.577  34.592  11.793
36618W        W 1779  35.942  37.389   0.792
36619W        W 1780  13.976  23.857   1.878
36620W        W 1781  32.044  28.610   4.710
36621W        W 1782  15.107  27.705   3.167
36622W        W 1783  38.414  27.360  12.387
36623W        W 1784  22.560  32.682   3.134
36624W        W 1785   5.485   5.479  14.879
36625W        W 1786  23.141  15.319  12.508
36626W        W 1787  18.051  42.468   3.685
36627W        W 1788  19.514  10.089  14.393
36628W        W 1789   8.894   2.370   0.371
36629W        W 1790   2.890  34.102   2.129
36630W        W 1791  28.273  13.131  12.416
36631W        W 1792  42.813  41.003  12.454
36632W        W 1793  25.845  31.975   4.134
36633W        W 1794   8.662  19.342  10.692
36634W        W 1795   3.243  23.220   0.439
36635W        W 1796   3.539  26.817   0.496
36636W        W 1797  22.451  42.904   2.767
36637W        W 1798  27.540  11.218  11.630
36638W        W 1799  15.751  16.229   4.658
36639W        W 1800   4.912  16.786  10.499
36640W        W 1801  28.182   6.912  14.475
36641W        W 1802   7.673  19.058  10.718
36642W        W 1803  33.483  40.077  12.233
36643W        W 1804  23.316  26.553   0.896
36644W        W 1805  31.884  22.091  12.040
36645W        W 1806  26.693   7.759   0.378
36646W        W 1807  33.588  36.923  11.248
36647W        W 1808  43.368  25.729  14.539
36648W        W 1809  39.973  44.956   4.489
36649W        W 1810  37.010  22.712  11.014
36650W        W 1811  25.593  30.805   4.665
36651W        W 1812  25.080  14.649   0.812
36652W        W 1813  11.460  37.439   3.705
36653W        W 1814  38.185  20.452   0.030
36654W        W 1815  26.394   9.856   2.428
36655W        W 1816   1.316  15.253  12.321
36656W        W 1817  33.888   3.870   3.436
36657W        W 1818   6.442  32.057  10.246
36658W        W 1819  35.423  34.608  12.291
36659W        W 1820   2.354   6.660  12.054
36660W        W 1821  19.355  29.214   0.050
36661W        W 1822  13.740   4.291   0.158
36662W        W 1823  34.040   8.742   0.297
36663W        W 1824   4.919  17.794   3.850
36664W        W 1825   6.927  29.799  14.213
36665W        W 1826  34.935  37.872  14.674
36666W        W 1827  26.244  37.370   3.573
36667W        W 1828  11.756  20.798  10.876
36668W        W 1829   6.191   3.122  11.594
36669W        W 1830  32.232  34.466   2.266
36670W        W 1831  35.534  30.626   4.749
36671W        W 1832  25.317  35.866   0.955
36672W        W 1833  26.706  28.064  12.174
36673W        W 1834  35.998  41.550  12.062
36674W        W 1835  41.532  25.281   2.674
36675W        W 1836  37.832  22.849   3.183
36676W        W 1837  18.354  10.135   0.700
36677W        W 1838   6.649  25.269   2.795
36678W        W 1839  20.078  28.503  13.884
36679W        W 1840  24.259  10.295  12.023
36680W        W 1841  35.010  35.510   0.361
36681W        W 1842  35.577   1.151   1.191
36682W        W 1843  12.124  18.538   1.185
36683W        W 1844   3.747  42.314   4.703
36684W        W 1845   6.162  44.455   4.790
36685W        W 1846   0.265  27.965   4.523
36686W        W 1847  17.301  40.087   1.344
36687W        W 1848  17.558  12.855   1.371
36688W        W 1849  39.334  10.249   3.201
36689W        W 1850   9.525   5.353  12.290
36690W        W 1851  27.505  18.631   3.349
36691W        W 1852  18.249  22.402   3.643
36692W        W 1853  15.919  17.847   1.780
36693W        W 1854  11.124   6.377   3.253
36694W        W 1855  13.304  10.922  10.728
36695W        W 1856  24.153   3.758   0.342
36696W        W 1857  13.456  31.474  12.004
36697W        W 1858   8.448  10.999   3.073
36698W        W 1859  22.402  11.458  11.507
36699W        W 1860  23.315  37.288  12.045
36700W        W 1861   5.934  20.934   3.780
36701W        W 1862  17.527  17.001  13.037
36702W        W 1863  16.627  27.624   4.167
36703W        W 1864  37.923  27.776   2.781
36704W        W 1865  23.050  14.968   2.798
36705W        W 1866  19.286   7.698  11.140
36706W        W 1867  31.562  16.804   2.923
36707W        W 1868  37.242   9.744  12.997
36708W        W 1869  15.110   1.770  14.950
36709W        W 1870  27.196  22.330   1.172
36710W        W 1871  26.381  15.098  12.989
36711W        W 1872  21.494   2.962   3.006
36712W        W 1873  18.175  40.934   1.258
36713W        W 1874   2.895   4.273  12.869
36714W        W 1875   3.444  31.086  13.893
36715W        W 1876  18.123  43.869   1.350
36716W        W 1877   9.219  16.816  10.363
36717W        W 1878  27.449  17.381   3.399
36718W        W 1879  34.364   6.744   2.541
36719W        W 1880  17.267   8.248   1.466
36720W        W 1881   2.730  29.406  14.492
36721W        W 1882  41.650  29.604   0.376
36722W        W 1883  30.077  43.855  13.188
36723W        W 1884  29.872  25.478   2.612
36724W        W 1885  17.314  27.155  14.543
36725W        W 1886   8.663  19.102   0.715
36726W        W 1887  18.060  24.261  11.674
36727W        W 1888   3.787  32.084  13.495
36728W        W 1889  25.419  13.317   2.228
36729W        W 1890  30.770  33.382  11.043
36730W        W 1891  20.848  10.426   5.087
36731W        W 1892  42.839  39.035   2.347
36732W        W 1893   3.666  25.952  11.289
36733W        W 1894  19.705   9.633  13.417
36734W        W 1895  36.372   1.363   3.641
36735W        W 1896  11.954  40.095   0.881
36736W        W 1897   2.271   5.567  12.872
36737W        W 1898  43.799  34.308   1.385
36738W        W 1899  20.087   7.910  14.521
36739W        W 1900  44.198  27.905   0.534
36740W        W 1901  22.426   3.972   3.674
36741W        W 1902  19.073  14.210   2.788
36742W        W 1903  17.197  12.409   1.864
36743W        W 1904  17.848  19.435   3.249
36744W        W 1905  36.486  10.580   1.811
36745W        W 1906  13.377  13.223   3.708
36746W        W 1907  27.028  14.908   3.745
36747W        W 1908  25.369  33.802   1.874
36748W        W 1909   4.250  20.196  13.448
36749W        W 1910  31.603  24.978   0.318
36750W        W 1911  19.189  22.372   4.894
36751W        W 1912  37.299  22.426  13.419
36752W        W 1913  27.159  20.574   2.860
36753W        W 1914  16.089  35.990   3.715
36754W        W 1915  20.973  13.619  11.575
36755W        W 1916  25.213  30.021  14.787
36756W        W 1917  15.637  19.268   2.902
36757W        W 1918  36.543  39.389  13.101
36758W        W 1919   5.207  31.471   0.316
36759W        W 1920   0.979  43.357   4.596
36760W        W 1921  24.025  24.955  14.467
36761W        W 1922  44.254  15.584  12.550
36762W        W 1923  11.734  22.857  11.463
36763W        W 1924  37.853  34.604   1.718
36764W        W 1925   7.136  16.266   4.100
36765W        W 1926  25.507  30.210   4.185
36766W        W 1927  39.033  10.585  10.272
36767W        W 1928  28.209  14.785   4.620
36768W        W 1929  15.439  20.780  13.508
36769W        W 1930  39.034  44.244   0.323
36770W        W 1931   4.490   4.267   3.008
36771W        W 1932  15.793  31.571   0.855
36772W        W 1933  13.679  29.647  14.432
36773W        W 1934  39.886  43.339  12.078
36774W        W 1935  26.735   1.684   2.359
36775W        W 1936   3.119  36.582  13.020
36776W        W 1937   2.004  43.880  13.449
36777W        W 1938   6.037  28.232  13.097
36778W        W 1939  27.943  43.846  14.948
36779W        W 1940  43.955  34.877   3.332
36780W        W 1941  14.130  27.528  10.762
36781W        W 1942   1.346   8.588   2.351
36782W        W 1943   0.353  36.402  13.833
36783W        W 1944  42.757  29.825   4.029
36784W        W 1945  20.621  23.050   4.273
36785W        W 1946  25.976  25.481   4.789
36786W        W 1947   8.481  25.943  12.024
36787W        W 1948   3.064   5.699  14.935
36788W        W 1949  23.323  24.195  14.480
36789W        W 1950  27.393   1.059  10.667
36790W        W 1951  21.754  15.166  12.112
36791W        W 1952   8.707   6.454   4.284
36792W        W 1953  28.019   7.870  11.513
36793W        W 1954   1.964  38.841   1.450
36794W        W 1955   3.393   5.068   1.767
36795W        W 1956  13.430   4.945   2.797
36796W        W 1957  39.351   6.198   2.261
36797W        W 1958  28.042  20.500  12.408
36798W        W 1959  37.991  25.578   3.808
36799W        W 1960  19.645  39.901  13.877
36800W        W 1961  40.018  21.147   3.850
36801W        W 1962  25.047  20.856  11.550
36802W        W 1963  10.684  14.647  11.461
36803W        W 1964  36.669   7.505  12.100
36804W        W 1965  29.837  43.793  11.939
36805W        W 1966  38.477  16.542   3.667
36806W        W 1967  22.495  38.641   2.314
36807W        W 1968  42.052  36.020   1.949
36808W        W 1969  16.756  24.278  12.855
36809W        W 1970   8.758  19.082   0.201
36810W        W 1971   7.907  41.841   0.448
36811W        W 1972  25.708  22.251   1.167
36812W        W 1973  10.195  44.734  12.470
36813W        W 1974  25.381  22.720  12.697
36814W        W 1975  19.917  23.748  10.996
36815W        W 1976  17.787  28.661   3.191
36816W        W 1977  31.394  21.523   4.683
36817W        W 1978  33.182  29.582   0.991
36818W        W 1979  19.643   6.182  12.010
36819W        W 1980  33.112   8.414  11.555
36820W        W 1981  30.519   3.031   2.701
36821W        W 1982  37.727  37.962   4.229
36822W        W 1983   0.588  23.691  13.666
36823W        W 1984  42.586  43.353   0.237
36824W        W 1985  34.861  11.378  12.874
36825W        W 1986  38.957   9.200  13.809
36826W        W 1987  33.684  32.088   4.889
36827W        W 1988   0.381  41.709  11.981
36828W        W 1989  23.037  30.546   4.620
36829W        W 1990   7.723  19.213   1.018
36830W        W 1991  41.005  17.758   2.711
36831W        W 1992  30.544   8.352  11.252
36832W        W 1993  16.707  37.765   4.995
36833W        W 1994  15.527  31.597  12.932
36834W        W 1995  13.859  41.312   1.423
36835W        W 1996   1.256   9.586   3.142
36836W        W 1997  28.150  34.068  10.445
36837W        W 1998  30.942   7.304  10.591
36838W        W 1999   6.745  39.920   0.223
36839W        W 2000  25.433   3.918   4.437
36840W        W 2001  22.768  25.091  10.643
36841W        W 2002  21.789  31.985  12.597
36842W        W 2003  16.049  32.069  11.195
36843W        W 2004  34.557  36.859   3.336
36844W        W 2005   3.406  32.967   2.233
36845W        W 2006   3.882  12.760   4.569
36846W        W 2007  42.421  18.993   0.242
36847W        W 2008  12.252  22.127  13.951
36848W        W 2009  39.139   2.844   2.094
36849W        W 2010  15.717  12.054  14.160
36850W        W 2011  31.330  38.272  13.787
36851W        W 2012  19.178  33.213   3.230
36852W        W 2013  38.475   5.982  13.378
36853W        W 2014   8.773  16.108  10.837
36854W        W 2015  25.554   7.201   4.540
36855W        W 2016  18.829   6.847  11.042
36856W        W 2017  32.368   6.130   4.443
36857W        W 2018   4.012  41.897  10.828
36858W        W 2019  19.058   0.906   2.856
36859W        W 2020  43.809  30.657   0.458
36860W        W 2021  32.485  39.476   3.130
36861W        W 2022  34.899  32.805   2.617
36862W        W 2023  33.102  44.008  13.027
36863W        W 2024  42.229  36.552   3.556
36864W        W 2025  10.103  24.193  12.850
36865W        W 2026  31.352  20.472   2.129
36866W        W 2027   1.029   3.045  11.479
36867W        W 2028  11.613  21.604  14.064
36868W        W 2029  25.173  14.201   1.688
36869W        W 2030  17.044  20.170   0.252
36870W        W 2031   4.663  13.768  13.898
36871W        W 2032  35.165  15.249  11.811
36872W        W 2033  13.389  18.979   2.053
36873W        W 2034  30.162  39.283   1.624
36874W        W 2035  12.235   1.545   3.352
36875W        W 2036   1.264  39.552  11.067
36876W        W 2037  17.036  20.692  12.851
36877W        W 2038  20.556   1.073   1.824
36878W        W 2039   3.479  35.498   0.756
36879W        W 2040   3.823   1.129   1.328
36880W        W 2041   5.820  13.537  13.518
36881W        W 2042  15.241  37.615  12.550
36882W        W 2043  16.669  25.124   2.978
36883W        W 2044  39.506  31.622   4.764
36884W        W 2045  29.425  27.057   4.125
36885W        W 2046  16.799  30.586  12.133
36886W        W 2047  15.194  41.130   3.596
36887W        W 2048  35.638  44.449  10.718
36888W        W 2049  13.821  33.629  14.945
36889W        W 2050  36.703   6.741  13.413
36890W        W 2051  38.744  21.543  14.071
36891W        W 2052  32.460  41.852   4.030
36892W        W 2053  30.888   9.821  10.631
36893W        W 2054   7.407  20.091   3.210
36894W        W 2055  24.322  22.823  14.296
36895W        W 2056   0.864   7.721  13.880
36896W        W 2057  13.311  21.209   3.699
36897W        W 2058   3.866  10.762  14.551
36898W        W 2059  23.486  20.538   3.219
36899W        W 2060   9.663  19.606   5.150
36900W        W 2061  18.817  25.579  12.524
36901W        W 2062  27.669  41.260   2.283
36902W        W 2063  32.471  22.406   3.292
36903W        W 2064  38.856  12.462   4.060
36904W        W 2065   5.253  31.483  11.188
36905W        W 2066   5.344  24.600   3.247
36906W        W 2067  40.538  31.152  12.468
36907W        W 2068  41.851  32.633  13.465
36908W        W 2069   1.127  18.310  11.166
36909W        W 2070  25.293  32.413   1.565
36910W        W 2071  43.842  40.209  10.329
36911W        W 2072  13.581  34.695  10.784
36912W        W 2073  10.023  34.849  10.991
36913W        W 2074  40.944  28.702   4.605
36914W        W 2075  31.023   9.271  13.892
36915W        W 2076  42.006  44.516  12.990
36916W        W 2077  26.565  12.354  10.886
36917W        W 2078  19.575   0.374   2.265
36918W        W 2079  28.542  22.627   5.046
36919W        W 2080  25.553  19.205   2.411
36920W        W 2081  43.946  26.063   2.426
36921W        W 2082  11.616   9.490   4.619
36922W        W 2083  27.942  19.553  13.867
36923W        W 2084  35.455  31.264   0.971
36924W        W 2085   6.846   9.955  11.991
36925W        W 2086  34.867  15.781   1.379
36926W        W 2087  19.408  32.258   1.717
36927W        W 2088  32.938  34.138   4.227
36928W        W 2089   0.943  33.127  10.873
36929W        W 2090  15.837  28.013   1.725
36930W        W 2091  27.186  31.705   2.758
36931W        W 2092  37.856  32.033  11.844
36932W        W 2093  18.128  10.927  13.573
36933W        W 2094  39.959  23.037   1.923
36934W        W 2095  16.304   5.243  12.491
36935W        W 2096  12.199  30.367  13.855
36936W        W 2097  15.347  16.743   0.296
36937W        W 2098  33.859  37.127  14.923
36938W        W 2099   4.551  32.034  14.925
36939W        W 2100   0.409  25.762  13.873
36940W        W 2101   4.340  37.233  12.465
36941W        W 2102  18.623   3.242  10.345
36942W        W 2103  11.530   0.830  14.410
36943W        W 2104  26.986  30.533  12.920
36944W        W 2105  10.715   5.590   0.306
36945W        W 2106  18.836  32.830  13.417
36946W        W 2107  39.478   3.194   2.947
36947W        W 2108  14.819  12.279   2.820
36948W        W 2109  24.038   0.189  13.896
36949W        W 2110   8.243   4.289  14.525
36950W        W 2111   4.862  16.111  14.464
36951W        W 2112  33.900  29.928  13.078
36952W        W 2113  38.884   5.432   3.280
36953W        W 2114  24.619  32.375   4.667
36954W        W 2115  16.184  28.856   1.254
36955W        W 2116  43.379  29.677  13.829
36956W        W 2117  43.448  33.161  11.393
36957W        W 2118  41.425  43.173   3.186
36958W        W 2119   4.062  28.548   1.883
36959W        W 2120  23.513  44.422   1.274
36960W        W 2121  18.104  25.520   1.474
36961W        W 2122   8.243  28.063  14.468
36962W        W 2123  32.107  38.929  12.272
36963W        W 2124   7.262  34.457  12.060
36964W        W 2125  11.111   6.374   4.133
36965W        W 2126   5.091  36.101  14.568
36966W        W 2127  27.952   1.855  11.064
36967W        W 2128  26.381  13.086   3.188
36968W        W 2129  32.491  11.226  11.828
36969W        W 2130   6.161  21.745   0.785
36970W        W 2131   3.329  37.982   0.081
36971W        W 2132  16.556  33.904   4.366
36972W        W 2133  10.361   5.658  12.029
36973W        W 2134  44.956  29.566  14.108
36974W        W 2135  19.022  44.771   0.226
36975W        W 2136  31.944   0.987  14.362
36976W        W 2137  41.426   0.531  12.509
36977W        W 2138  38.098   9.328  12.993
36978W        W 2139  21.486  20.730  14.964
36979W        W 2140  11.944   6.258   3.635
36980W        W 2141  25.368   8.712   0.505
36981W        W 2142  41.914   5.477  11.096
36982W        W 2143  10.976  18.241   4.677
36983W        W 2144  43.498   4.789   3.160
36984W        W 2145  32.399   1.379  12.924
36985W        W 2146  20.238  19.983   1.791
36986W        W 2147  42.935  19.614  14.904
36987W        W 2148  10.106   7.290   2.835
36988W        W 2149  15.095  35.300  13.837
36989W        W 2150  44.696  34.830   4.554
36990W        W 2151  29.897  31.958  10.429
36991W        W 2152  28.293  10.680   3.347
36992W        W 2153  36.612  32.368  12.939
36993W        W 2154  19.742  13.794   1.941
36994W        W 2155   4.720   2.440   2.710
36995W        W 2156  19.080   6.998   0.082
36996W        W 2157  31.709  40.052  12.883
36997W        W 2158   9.774   8.808   4.939
36998W        W 2159  18.985  24.166  11.664
36999W        W 2160   1.217  43.906   0.571
37000W        W 2161  30.589  11.536  14.026
37001W        W 2162  39.195  18.776   5.115
37002W        W 2163  11.148  24.049   4.442
37003W        W 2164   3.241  43.537   1.885
37004W        W 2165  44.236   4.099   0.217
37005W        W 2166   7.176  24.216  13.861
37006W        W 2167   3.330  10.896  12.918
37007W        W 2168  15.083  23.792  14.086
37008W        W 2169   1.833  18.179  11.379
37009W        W 2170  43.784  33.299  12.815
37010W        W 2171   0.889  33.469   2.049
37011W        W 2172  37.364  44.277  12.974
37012W        W 2173  22.697  29.241   0.834
37013W        W 2174   7.405  10.268   0.874
37014W        W 2175  23.445  29.604  11.976
37015W        W 2176  25.662   3.142  14.558
37016W        W 2177   5.841   9.697  11.941
37017W        W 2178   4.698  16.613  14.526
37018W        W 2179  33.931  41.150   3.464
37019W        W 2180   2.645  13.834   1.456
37020W        W 2181  13.714  35.886  14.526
37021W        W 2182  14.347   7.911   2.219
37022W        W 2183   0.934   8.707  12.135
37023W        W 2184  44.917  29.435   2.740
37024W        W 2185  15.213   0.055  14.543
37025W        W 2186  17.349   9.698  10.599
37026W        W 2187  44.878  19.224  11.656
37027W        W 2188  26.496  14.236  14.877
37028W        W 2189  17.021   4.409  10.337
37029W        W 2190  21.174   3.679  11.702
37030W        W 2191  36.981  16.260  10.774
37031W        W 2192  43.009  40.901   0.326
37032W        W 2193   4.344   5.310   3.950
37033W        W 2194  17.671  16.570  13.577
37034W        W 2195  39.805  11.089   3.542
37035W        W 2196  44.344  12.774   0.907
37036W        W 2197  40.708  30.004   0.416
37037W        W 2198  37.969  15.765  12.875
37038W        W 2199   0.984  41.929   4.384
37039W        W 2200  29.579  26.610   1.330
37040W        W 2201  31.649  21.451  14.328
37041W        W 2202  16.230   2.670   0.661
37042W        W 2203  20.528  38.600  13.351
37043W        W 2204  34.359  42.262  11.973
37044W        W 2205  41.894  43.393   3.240
37045W        W 2206   3.288  33.163   1.764
37046W        W 2207  32.380  11.360  13.808
37047W        W 2208   8.807  26.212   3.150
37048W        W 2209  13.654  36.946   3.670
37049W        W 2210  31.841  42.088  13.182
37050W        W 2211  40.923   5.534   4.337
37051W        W 2212   5.452  26.623  10.857
37052W        W 2213  21.308  19.531  13.786
37053W        W 2214  20.023  39.056   3.373
37054W        W 2215  26.181  24.057  11.450
37055W        W 2216   9.763  15.129  11.597
37056W        W 2217   3.432  40.903  13.396
37057W        W 2218  38.905  22.643   4.544
37058W        W 2219  14.593  15.807  12.889
37059W        W 2220  23.164  25.189  10.958
37060W        W 2221  22.479   7.386  13.051
37061W        W 2222  36.006  21.267   4.711
37062W        W 2223  21.459   0.336   0.951
37063W        W 2224  15.547  30.901  12.607
37064W        W 2225   6.257   1.241  13.822
37065W        W 2226  31.670  33.887  12.167
37066W        W 2227   6.004  26.625  10.237
37067W        W 2228  37.953  29.594   1.673
37068W        W 2229   6.260   0.494   1.462
37069W        W 2230   7.774  15.346  12.122
37070W        W 2231  31.323  21.161   1.732
37071W        W 2232  21.512  25.481  13.965
37072W        W 2233  42.335  35.169  13.625
37073W        W 2234  41.083  12.618   1.820
37074W        W 2235  13.197  28.592   1.840
37075W        W 2236   6.291  45.000   3.095
37076W        W 2237  36.280  36.466   2.318
37077W        W 2238   0.782  26.933  10.669
37078W        W 2239   1.386  24.716  12.074
37079W        W 2240  21.577  14.080   1.476
37080W        W 2241  14.727   1.218  13.129
37081W        W 2242   2.506  37.482   1.240
37082W        W 2243  34.958  33.140  14.508
37083W        W 2244   9.334   0.391  13.828
37084W        W 2245   2.026  22.262   1.386
37085W        W 2246   1.343  36.096   9.761
37086W        W 2247  34.517   7.913  13.450
37087W        W 2248  42.463   6.513  10.374
37088W        W 2249  33.562  26.763   3.906
37089W        W 2250  33.627  25.393   4.558
37090W        W 2251  23.079  18.762   1.267
37091W        W 2252  35.375  27.411  13.070
37092W        W 2253  28.374   6.803  11.970
37093W        W 2254  29.343  31.559   3.821
37094W        W 2255   9.635  32.262  13.858
37095W        W 2256  26.219  27.325  14.506
37096W        W 2257  11.713  17.263  12.963
37097W        W 2258  20.322  44.395   1.166
37098W        W 2259  43.485   6.918   3.807
37099W        W 2260  10.680  10.507   2.607
37100W        W 2261  11.699  43.433  10.987
37101W        W 2262  12.963  20.653  11.046
37102W        W 2263  38.525  32.500   3.140
37103W        W 2264  15.047  36.714   3.551
37104W        W 2265  32.340  15.757  13.681
37105W        W 2266  39.568  10.313  12.427
37106W        W 2267  23.507  43.993  10.635
37107W        W 2268  14.226  31.802  10.206
37108W        W 2269  32.591  28.290  14.131
37109W        W 2270  21.564  39.939  13.491
37110W        W 2271  31.286   4.212  13.507
37111W        W 2272  18.697  33.572   2.503
37112W        W 2273  21.424  19.078   0.539
37113W        W 2274  24.253   3.947  12.524
37114W        W 2275  18.301  34.306  14.746
37115W        W 2276  30.305  38.540   1.159
37116W        W 2277  11.100   5.499   2.901
37117W        W 2278  17.866   4.302  10.705
37118W        W 2279   4.971  29.545  14.328
37119W        W 2280  37.379  40.553   0.342
37120W        W 2281  20.102  11.668  14.833
37121W        W 2282   6.852  30.715  14.021
37122W        W 2283  13.100  17.427  10.224
37123W        W 2284   1.885  40.675   4.636
37124W        W 2285  21.350  29.708   2.386
37125W        W 2286  14.543  24.422  12.955
37126W        W 2287  29.478   1.339  11.550
37127W        W 2288  38.944  33.844  10.769
37128W        W 2289  14.725  41.505   0.945
37129W        W 2290  19.131   1.222  14.524
37130W        W 2291  16.186  42.816   0.720
37131W        W 2292  41.981   1.200   4.673
37132W        W 2293  24.703   0.372  14.471
37133W        W 2294  30.110  28.097  14.868
37134W        W 2295  16.168  24.023   3.153
37135W        W 2296  11.875  32.422  10.929
37136W        W 2297  16.201  36.977   2.423
37137W        W 2298   8.423  20.721  12.519
37138W        W 2299  34.889  43.886   0.428
37139W        W 2300  16.144  42.117  12.099
37140W        W 2301  37.431  18.015  13.561
37141W        W 2302   5.217  35.851   0.362
37142W        W 2303   8.439  17.068  10.812
37143W        W 2304  23.643  33.899   0.954
37144W        W 2305   9.649  33.421  11.991
37145W        W 2306  36.802   9.187  12.458
37146W        W 2307  26.470  40.193  13.409
37147W        W 2308  18.164  15.349   0.184
37148W        W 2309  38.033   3.884  13.104
37149W        W 2310  33.995   8.889   4.077
37150W        W 2311  29.188   3.407  13.823
37151W        W 2312   1.241  20.126   0.398
37152W        W 2313  35.568   8.218  11.578
37153W        W 2314  28.512  36.896  13.854
37154W        W 2315  18.974  28.120  14.379
37155W        W 2316   4.944   5.067   3.113
37156W        W 2317  38.051  36.578  12.556
37157W        W 2318  42.978   1.718  10.693
37158W        W 2319  17.623  35.585   4.863
37159W        W 2320  37.269  11.904   3.529
37160W        W 2321  24.051  22.411  14.200
37161W        W 2322   9.118  26.495   0.223
37162W        W 2323  12.620  15.752   1.228
37163W        W 2324  13.402  23.402   2.416
37164W        W 2325  36.046   6.411   2.748
37165W        W 2326  29.541   8.098   1.972
37166W        W 2327  36.791  10.918   4.472
37167W        W 2328  32.031  37.495   3.963
37168W        W 2329  32.408  34.819  10.558
37169W        W 2330  12.821  25.116  14.825
37170W        W 2331  24.409  16.135   0.328
37171W        W 2332  33.851   6.227  13.494
37172W        W 2333  16.260  44.829   2.044
37173W        W 2334  44.474  23.943   0.228
37174W        W 2335  24.521   0.874  13.358
37175W        W 2336  32.213  22.514   4.779
37176W        W 2337  41.861  13.742  11.953
37177W        W 2338  21.045  42.755  11.414
37178W        W 2339  25.066   2.458   0.958
37179W        W 2340  29.398  35.594  11.142
37180W        W 2341  39.579  29.162  13.776
37181W        W 2342   3.812   8.743   5.027
37182W        W 2343  43.807  43.422  12.483
37183W        W 2344  12.299  12.194  13.467
37184W        W 2345   4.637  23.371  13.906
37185W        W 2346   1.983  24.662  14.675
37186W        W 2347  11.196  41.582   1.296
37187W        W 2348  33.416   4.948   4.224
37188W        W 2349  26.925   9.299   0.863
37189W        W 2350  26.341  34.907   2.190
37190W        W 2351  37.061  17.032  14.883
37191W        W 2352  25.993   0.600   0.608
37192W        W 2353  14.996  31.065  14.904
37193W        W 2354  32.732   1.586  13.788
37194W        W 2355  14.429  44.847   4.656
37195W        W 2356   1.344  28.662   4.333
37196W        W 2357  41.007  38.117   1.012
37197W        W 2358  34.943   6.874   4.241
37198W        W 2359  38.087  42.282  10.513
37199W        W 2360  32.851  20.706   2.201
37200W        W 2361  42.321   3.910  11.938
37201W        W 2362  37.440  43.276   0.919
37202W        W 2363  26.965   6.405  14.085
37203W        W 2364  32.441  32.625   3.845
37204W        W 2365  14.314   0.928   1.375
37205W        W 2366   6.956  31.842  13.517
37206W        W 2367  42.561  33.396   1.764
37207W        W 2368   8.784  18.595   3.417
37208W        W 2369   5.029   1.428  14.808
37209W        W 2370  21.984   0.467  13.425
37210W        W 2371  36.331  17.580  10.897
37211W        W 2372  14.051  31.597   1.510
37212W        W 2373  12.655   2.804  11.591
37213W        W 2374  19.604  30.199   3.275
37214W        W 2375  41.004  40.070   4.585
37215W        W 2376  15.853  10.814   1.528
37216W        W 2377   7.800  26.717  14.692
37217W        W 2378   9.070  20.754  11.993
37218W        W 2379  21.939  29.081  12.573
37219W        W 2380   9.456  26.412   3.245
37220W        W 2381  16.537   1.592   2.370
37221W        W 2382   1.353   9.409   0.862
37222W        W 2383  11.763  11.754   0.358
37223W        W 2384   9.902   2.831  10.899
37224W        W 2385  39.975  13.903  13.568
37225W        W 2386  16.698  37.190  11.894
37226W        W 2387  11.031  25.216  14.310
37227W        W 2388  44.180  29.062  11.101
37228W        W 2389  26.975   5.939   2.812
37229W        W 2390  19.026  44.761   3.747
37230W        W 2391  36.502  15.437   4.919
37231W        W 2392   2.313  36.940   0.414
37232W        W 2393  13.342   0.964   2.190
37233W        W 2394   1.517  12.854  14.338
37234W        W 2395   2.875  34.728  12.914
37235W        W 2396   1.319  29.579   0.357
37236W        W 2397  34.876   7.069  13.787
37237W        W 2398  11.004  36.433   2.677
37238W        W 2399  14.580   4.560  14.862
37239W        W 2400   2.822  27.954   0.760
37240W        W 2401   9.229   7.168   3.786
37241W        W 2402  37.905  31.112  13.427
37242W        W 2403  23.090   1.912   2.180
37243W        W 2404  14.878  44.026   2.436
37244W        W 2405   0.784  17.863   2.672
37245W        W 2406  33.012   1.295   3.662
37246W        W 2407   5.337  20.236   0.420
37247W        W 2408   7.060  39.988  13.852
37248W        W 2409   2.064   7.077   2.281
37249W        W 2410  35.454   3.359  14.734
37250W        W 2411  33.123  44.523   2.787
37251W        W 2412  11.305  42.723  13.314
37252W        W 2413  10.770  20.755  10.442
37253W        W 2414  26.478  37.811   3.307
37254W        W 2415  30.478  18.718  11.618
37255W        W 2416   9.612  10.300  13.071
37256W        W 2417  10.469   6.959   0.957
37257W        W 2418  42.074  35.274   4.070
37258W        W 2419  10.398  30.752   3.241
37259W        W 2420  30.663  33.642  13.351
37260W        W 2421  30.924   3.673  12.233
37261W        W 2422   0.402   4.275   1.397
37262W        W 2423  13.188  37.553   3.253
37263W        W 2424   3.198  29.676   3.304
37264W        W 2425  34.405  42.706   2.799
37265W        W 2426  34.025  19.840  10.567
37266W        W 2427  11.887  28.084   4.021
37267W        W 2428   8.786   9.641  10.833
37268W        W 2429  32.895  43.495   4.536
37269W        W 2430  28.560  43.317   1.230
37270W        W 2431  12.071  12.361  11.511
37271W        W 2432  35.068  23.090   0.480
37272W        W 2433   0.352  25.507  13.429
37273W        W 2434  16.966  15.621  11.657
37274W        W 2435  44.367   6.133  10.466
37275W        W 2436   4.714  31.464  12.188
37276W        W 2437  26.202   4.736   0.161
37277W        W 2438  28.245  40.078  13.966
37278W        W 2439  21.220  17.008   2.359
37279W        W 2440   1.520  28.167  11.584
37280W        W 2441  26.593  11.596  12.748
37281W        W 2442  18.268  18.731  10.897
37282W        W 2443  36.599  22.200  10.431
37283W        W 2444  23.686  13.015  13.547
37284W        W 2445  18.347   6.432   0.379
37285W        W 2446  37.560  28.717  14.983
37286W        W 2447  37.471  42.501  11.597
37287W        W 2448  43.349  42.057   4.597
37288W        W 2449  37.149   0.011   4.511
37289W        W 2450  26.897   4.818  12.921
37290W        W 2451   0.372  12.436  13.937
37291W        W 2452  14.636  42.701  14.977
37292W        W 2453  11.986  19.739   1.801
37293W        W 2454  36.583  41.515  13.778
37294W        W 2455  37.034  33.597  11.721
37295W        W 2456  10.767  32.572  14.825
37296W        W 2457  34.811  28.246  12.512
37297W        W 2458  19.044  28.588   3.677
37298W        W 2459  26.016  37.200   5.008
37299W        W 2460  18.289  38.546   3.769
37300W        W 2461   9.854  12.118  13.545
37301W        W 2462  37.389  17.200  14.363
37302W        W 2463  16.608  18.712   1.719
37303W        W 2464  34.838  21.827  13.187
37304W        W 2465  35.449  18.248  12.630
37305W        W 2466   3.182  21.164   4.533
37306W        W 2467  27.424   7.789   4.324
37307W        W 2468  24.567  37.646   2.324
37308W        W 2469   1.905  37.386   5.039
37309W        W 2470  35.338  40.455   0.291
37310W        W 2471  41.717  28.605  10.759
37311W        W 2472  17.234  42.849  10.500
37312W        W 2473   8.017   5.894   2.490
37313W        W 2474  16.774  29.808  11.077
37314W        W 2475  36.033  22.960  12.045
37315W        W 2476  16.561  27.614   3.264
37316W        W 2477   9.783   6.424  11.970
37317W        W 2478   0.318  31.700   3.262
37318W        W 2479  11.947   2.365  13.418
37319W        W 2480  18.874  36.940  11.999
37320W        W 2481  38.656  20.113  11.928
37321W        W 2482   6.200  12.278  14.672
37322W        W 2483  44.017  42.105  13.921
37323W        W 2484   8.286  10.525   3.260
37324W        W 2485  36.915   8.453  14.071
37325W        W 2486  44.280   2.286   2.968
37326W        W 2487  22.787   0.938  12.651
37327W        W 2488   3.216  14.536   1.416
37328W        W 2489  22.291  37.075   0.811
37329W        W 2490  28.090  36.253  10.384
37330W        W 2491  26.267  33.002   3.681
37331W        W 2492  10.683  33.952   1.446
37332W        W 2493   5.794  40.811   0.188
37333W        W 2494  35.327  17.401  11.582
37334W        W 2495  30.681  32.952   2.305
37335W        W 2496  14.777  29.213  12.845
37336W        W 2497  11.691  41.968  13.964
37337W        W 2498   6.454  23.680   3.245
37338W        W 2499   6.146  16.505  13.320
37339W        W 2500  34.127  16.092   1.725
37340W        W 2501  11.352  38.810  12.482
37341W        W 2502   2.404  14.305   1.223
37342W        W 2503   5.964  29.469  10.760
37343W        W 2504  29.161   3.709   0.742
37344W        W 2505  42.163  14.804  11.910
37345W        W 2506  37.587  34.703   5.021
37346W        W 2507  15.649   6.746  12.103
37347W        W 2508  11.046  13.801  11.029
37348W        W 2509  21.307  13.608  14.770
37349W        W 2510  18.141  44.435   3.188
37350W        W 2511   7.883  10.416  14.519
37351W        W 2512  42.436  32.944   2.018
37352W        W 2513  18.346   0.186  11.608
37353W        W 2514  36.471  23.064  14.888
37354W        W 2515   5.852   5.421  14.503
37355W        W 2516  20.722  27.561   1.300
37356W        W 2517  15.372  12.224  12.441
37357W        W 2518   3.804  21.117   2.632
37358W        W 2519  26.896  29.541  13.396
37359W        W 2520  40.589  19.221   2.828
37360W        W 2521  39.809   5.762   4.326
37361W        W 2522  12.394  38.065  14.961
37362W        W 2523  19.613   0.803   0.469
37363W        W 2524  40.939  22.710   0.058
37364W        W 2525  43.812  37.624   0.034
37365W        W 2526  14.302  43.387   2.274
37366W        W 2527  40.860  23.019   1.961
37367W        W 2528  35.626   5.000   4.964
37368W        W 2529   4.972  28.957   2.715
37369W        W 2530   8.797  19.694   4.655
37370W        W 2531  13.678  27.743   0.770
37371W        W 2532  36.884  19.081   2.929
37372W        W 2533  35.150  11.896  11.656
37373W        W 2534  31.392  37.386   0.283
37374W        W 2535   8.317  29.646  11.855
37375W        W 2536  19.109   6.624  14.346
37376W        W 2537  11.185   6.352   0.418
37377W        W 2538  24.287   3.870   2.331
37378W        W 2539  44.568  42.719   3.220
37379W        W 2540   1.548  36.392   3.721
37380W        W 2541  38.241  41.743  14.340
37381W        W 2542  18.618  15.784   2.270
37382W        W 2543  42.834  44.910   1.106
37383W        W 2544  21.300  19.982  13.068
37384W        W 2545   0.883  19.721   0.164
37385W        W 2546   8.096  32.129  13.090
37386W        W 2547  24.808   4.217   0.967
37387W        W 2548   2.426  29.466  11.192
37388W        W 2549  21.464   7.675  14.002
37389W        W 2550  37.943   7.754  10.660
37390W        W 2551  17.498   7.779  12.509
37391W        W 2552  22.994  35.383  12.307
37392W        W 2553  15.053  39.128  12.019
37393W        W 2554  12.646  19.668   0.340
37394W        W 2555  43.438  23.657   2.745
37395W        W 2556  23.837  16.299   4.589
37396W        W 2557  38.604  19.186   3.598
37397W        W 2558  28.627   4.591  10.941
37398W        W 2559  21.724  42.574   1.887
37399W        W 2560   0.543  14.735  14.901
37400W        W 2561  23.541  28.650  14.086
37401W        W 2562   7.962  26.641  13.724
37402W        W 2563  36.501  27.760  11.699
37403W        W 2564   2.777   2.380  14.995
37404W        W 2565  29.033  40.447  10.359
37405W        W 2566  34.176  13.242  14.322
37406W        W 2567  27.155  37.055   3.461
37407W        W 2568  18.529   7.284   4.493
37408W        W 2569  44.733   1.762  10.299
37409W        W 2570  19.340  19.200  13.348
37410W        W 2571   6.364  34.934   2.373
37411W        W 2572  34.809  11.093   1.704
37412W        W 2573  20.212   7.576  11.989
37413W        W 2574  14.273  27.182   2.776
37414W        W 2575   5.151  34.879  13.079
37415W        W 2576  23.803  35.132   0.525
37416W        W 2577  27.165  32.457   3.257
37417W        W 2578  24.668  30.645  11.440
37418W        W 2579   6.840  39.197  12.221
37419W        W 2580  30.446  43.278   1.823
37420W        W 2581  32.970  18.027  11.120
37421W        W 2582   7.946   5.681  13.129
37422W        W 2583  19.936  29.998  12.242
37423W        W 2584  18.654  20.313   1.797
37424W        W 2585  39.899   7.813   2.819
37425W        W 2586  18.231   0.544  11.262
37426W        W 2587  19.831  40.057   3.661
37427W        W 2588   6.889  39.578   2.856
37428W        W 2589  21.792  16.314   5.419
37429W        W 2590  37.841  34.956   0.418
37430W        W 2591  13.354  26.137  12.055
37431W        W 2592   6.335  32.890  13.793
37432W        W 2593  11.746  14.390  12.246
37433W        W 2594   3.531  41.502  12.944
37434W        W 2595  23.173   9.169  10.610
37435W        W 2596  13.314  39.461   3.675
37436W        W 2597  26.642  39.421   1.319
37437W        W 2598   7.266  13.294  13.891
37438W        W 2599   8.580  21.504  11.147
37439W        W 2600   6.429  25.048   4.108
37440W        W 2601   9.168  26.525  14.382
37441W        W 2602  14.699  29.698   2.294
37442W        W 2603   1.897  32.064  13.101
37443W        W 2604  30.416  25.508   4.508
37444W        W 2605  26.946  26.215  14.227
37445W        W 2606  28.970  11.428  12.005
37446W        W 2607  13.649  13.178   1.775
37447W        W 2608  20.014  16.178   0.255
37448W        W 2609  12.696  29.901  14.530
37449W        W 2610  26.066  15.483  12.809
37450W        W 2611  10.335   4.746   0.268
37451W        W 2612  17.861   7.283   0.264
37452W        W 2613   5.224   8.777   1.767
37453W        W 2614  43.393   5.856   0.442
37454W        W 2615   2.234  38.758  13.631
37455W        W 2616  24.012  22.504  14.818
37456W        W 2617   7.799  35.237  14.506
37457W        W 2618  44.658  29.204  11.079
37458W        W 2619  43.984  31.024   4.443
37459W        W 2620  25.832  15.061  14.039
37460W        W 2621  25.240   6.411  12.419
37461W        W 2622   1.053   0.512   3.331
37462W        W 2623  10.050  24.857  11.503
37463W        W 2624  14.042  44.686   3.709
37464W        W 2625  16.676   6.977   2.177
37465W        W 2626  12.304  25.749  10.904
37466W        W 2627  23.234  21.387   1.492
37467W        W 2628  14.900  30.470   9.858
37468W        W 2629  26.606  15.520   3.223
37469W        W 2630  33.314   0.951   2.333
37470W        W 2631  33.434   4.987   0.988
37471W        W 2632  10.215  22.691   0.884
37472W        W 2633  13.092   8.642  11.161
37473W        W 2634  38.930   8.292   3.653
37474W        W 2635   5.408  20.708   3.297
37475W        W 2636  41.897  38.021  13.907
37476W        W 2637   6.040   3.729   1.711
37477W        W 2638  24.337  12.763   3.028
37478W        W 2639  34.769  41.359   2.808
37479W        W 2640  11.790   8.921  10.558
37480W        W 2641  21.506  42.393  14.503
37481W        W 2642  18.506  40.606   2.183
37482W        W 2643  30.666  18.175   4.625
37483W        W 2644   5.767  39.879   0.957
37484W        W 2645  11.866  10.997   4.590
37485W        W 2646  35.550  25.073  13.038
37486W        W 2647  20.076  28.128  10.690
37487W        W 2648   4.675  38.503  12.562
37488W        W 2649   5.444   3.144   5.136
37489W        W 2650  19.016  14.645   2.234
37490W        W 2651  43.210  37.901   4.776
37491W        W 2652  39.806  38.974  10.676
37492W        W 2653  43.147  29.699  14.299
37493W        W 2654   5.876  30.705  10.564
37494W        W 2655  16.348  26.294  14.793
37495W        W 2656  37.851   9.419   1.247
37496W        W 2657  44.568   9.141  12.803
37497W        W 2658  37.345  23.365  13.478
37498W        W 2659   8.095  12.261   0.180
37499W        W 2660  14.017  32.843   1.360
37500W        W 2661  22.829  23.169  12.180
37501W        W 2662  36.445   6.332   0.524
37502W        W 2663  23.098   1.169   4.677
37503W        W 2664  25.207  12.920  14.289
37504W        W 2665   9.667  29.588  14.328
37505W        W 2666  14.370   7.388  11.274
37506W        W 2667  36.400  37.848  13.955
37507W        W 2668   9.810  22.560   1.337
37508W        W 2669  34.581  19.668   3.647
37509W        W 2670  23.799   3.615  14.906
37510W        W 2671  28.453  22.942  10.476
37511W        W 2672  33.981  39.024   2.360
37512W        W 2673  25.327  26.865   1.673
37513W        W 2674  18.573  28.206  10.765
37514W        W 2675   0.951  25.573  14.985
37515W        W 2676   2.708  21.234   1.844
37516W        W 2677  39.851  44.060  12.906
37517W        W 2678   6.083  12.850   3.704
37518W        W 2679  42.686  15.705   0.320
37519W        W 2680   3.328   2.026  14.074
37520W        W 2681   2.586  37.415   1.994
37521W        W 2682  16.403  21.024   1.389
37522W        W 2683   7.690  12.653  12.145
37523W        W 2684  44.078  34.454  13.012
37524W        W 2685  39.441  40.773  13.175
37525W        W 2686   8.115  12.927  13.011
37526W        W 2687  21.415  22.782  13.049
37527W        W 2688  36.396  38.940  12.794
37528W        W 2689   9.077  36.329  12.944
37529W        W 2690  17.199  10.350  13.894
37530W        W 2691  22.164  15.192   1.902
37531W        W 2692  44.420  15.722   0.041
37532W        W 2693  24.127  11.579  13.894
37533W        W 2694  42.777   1.330  12.771
37534W        W 2695  44.893  37.486  12.084
37535W        W 2696  44.023  18.665   2.412
37536W        W 2697  15.079   3.617  12.678
37537W        W 2698  10.158  30.119   1.184
37538W        W 2699   4.994  41.061   4.239
37539W        W 2700  15.597   6.990   2.477
37540W        W 2701   1.445  44.932   3.735
37541W        W 2702  34.388   3.547   1.409
37542W        W 2703   9.194  19.771   4.275
37543W        W 2704  40.351   7.422   2.752
37544W        W 2705  35.667  16.092  14.576
37545W        W 2706  41.757  10.167   3.697
37546W        W 2707  33.639   6.253  11.724
37547W        W 2708  18.740  10.406  12.949
37548W        W 2709  15.726  18.747  10.242
37549W        W 2710  41.489  30.074   0.445
37550W        W 2711  28.562  37.034  11.518
37551W        W 2712  15.774   1.284  13.868
37552W        W 2713  20.481  12.640   2.096
37553W        W 2714   3.011  31.181   2.334
37554W        W 2715  26.056  33.990  11.019
37555W        W 2716  39.317  39.544   3.838
37556W        W 2717  10.237  28.243   0.743
37557W        W 2718  40.488  32.425   2.838
37558W        W 2719  36.791   4.341  11.139
37559W        W 2720  34.016   8.156   2.420
37560W        W 2721  15.424   2.405   3.584
37561W        W 2722  37.658  28.198   3.987
37562W        W 2723  36.176  40.088   3.362
37563W        W 2724  38.386  35.443  13.359
37564W        W 2725  29.889  10.738   4.171
37565W        W 2726  28.197  31.314   1.398
37566W        W 2727  20.546   2.413  13.199
37567W        W 2728  36.920   9.613   1.359
37568W        W 2729   9.533  41.403   4.901
37569W        W 2730  15.935  43.360  11.636
37570W        W 2731   7.705  22.065  12.230
37571W        W 2732  21.242  33.492  12.471
37572W        W 2733  21.659  14.500  13.551
37573W        W 2734   8.955  30.022  12.627
37574W        W 2735  14.557   2.037   0.795
37575W        W 2736  44.944  25.745  11.090
37576W        W 2737  22.053  15.772   4.346
37577W        W 2738  25.421   7.330   1.358
37578W        W 2739   4.020   5.321   3.380
37579W        W 2740   2.461  29.379  14.949
37580W        W 2741  32.347  25.659   0.307
37581W        W 2742  23.143  14.131  11.315
37582W        W 2743  28.122  23.346  13.955
37583W        W 2744  12.615  19.156   0.377
37584W        W 2745  24.144  13.720   3.630
37585W        W 2746  20.514  32.404  11.994
37586W        W 2747  19.346   5.440  11.360
37587W        W 2748  20.534  32.665   0.503
37588W        W 2749  26.523   0.691   4.559
37589W        W 2750  29.952  16.979   4.282
37590W        W 2751   7.617  20.744   4.642
37591W        W 2752  42.961   6.808   3.884
37592W        W 2753  37.179  18.093   4.411
37593W        W 2754   8.455  23.563   2.151
37594W        W 2755  17.620  24.617   4.165
37595W        W 2756  17.667  14.063   1.656
37596W        W 2757   0.810  25.526  11.452
37597W        W 2758  15.370  12.595   0.302
37598W        W 2759  23.278   8.275   2.433
37599W        W 2760  41.043   8.273   3.792
37600W        W 2761   6.214  41.571  10.360
37601W        W 2762  27.672  41.460   1.348
37602W        W 2763  13.769  38.070   2.148
37603W        W 2764  37.893  25.786  11.080
37604W        W 2765  31.649   7.007   0.651
37605W        W 2766  23.560   7.049   2.328
37606W        W 2767   2.895  23.277   4.255
37607W        W 2768   0.127  19.679  11.601
37608W        W 2769   9.127   1.512   1.385
37609W        W 2770  28.469  20.183   3.871
37610W        W 2771   1.419  42.722   4.122
37611W        W 2772  14.281  28.513   0.463
37612W        W 2773  39.312   4.968  10.408
37613W        W 2774  35.055   9.296   0.897
37614W        W 2775   6.180   3.543   2.776
37615W        W 2776  43.691  20.490   2.579
37616W        W 2777  32.769  27.671   3.118
37617W        W 2778   9.005  41.361  14.517
37618W        W 2779  10.864   0.433   0.406
37619W        W 2780  34.620   7.824  12.608
37620W        W 2781   0.785  24.284   1.500
37621W        W 2782  18.799  11.664   3.298
37622W        W 2783  38.255   8.015   3.237
37623W        W 2784  12.637  18.154   3.917
37624W        W 2785  40.495  11.993  14.043
37625W        W 2786   1.229  43.754  13.206
37626W        W 2787  35.182  40.985   0.462
37627W        W 2788  12.027  15.036   4.527
37628W        W 2789  34.982   4.597  12.187
37629W        W 2790  13.716  20.549  11.703
37630W        W 2791  19.242  38.612  11.063
37631W        W 2792   9.795  24.557   1.883
37632W        W 2793  40.317  12.842  13.791
37633W        W 2794   1.333  44.762  14.178
37634W        W 2795   2.282  42.283  11.990
37635W        W 2796   1.333  15.732  13.979
37636W        W 2797  37.035   8.869   1.871
37637W        W 2798  33.664  13.192  14.351
37638W        W 2799  36.636   7.059   3.251
37639W        W 2800  18.590  26.621   2.233
37640W        W 2801  22.559   3.236  10.722
37641W        W 2802  30.422  31.794  11.143
37642W        W 2803  23.158  22.240  13.269
37643W        W 2804   6.367  12.548   0.662
37644W        W 2805   8.834  20.519   4.231
37645W        W 2806  44.510  43.778   1.386
37646W        W 2807   5.768  37.896   3.305
37647W        W 2808  21.787   2.730  12.958
37648W        W 2809  35.450   1.762   2.236
37649W        W 2810   8.394  35.834  10.814
37650W        W 2811  42.277  19.769   2.656
37651W        W 2812  15.608  16.570  12.814
37652W        W 2813   8.925  36.772   0.511
37653W        W 2814  41.895  30.930   1.209
37654W        W 2815  43.315  24.647   0.711
37655W        W 2816  17.108   5.816   1.448
37656W        W 2817  20.163   3.981  14.763
37657W        W 2818   9.728  19.889   2.410
37658W        W 2819  24.257  12.208  12.119
37659W        W 2820   1.439  28.771  10.774
37660W        W 2821  38.961  29.955   4.208
37661W        W 2822  17.815  26.489  13.574
37662W        W 2823  19.788  18.103  14.698
37663W        W 2824  44.904   5.894   1.331
37664W        W 2825  33.794  37.890  12.737
37665W        W 2826  38.396   4.184   4.127
37666W        W 2827  11.818  43.043   1.414
37667W        W 2828   5.822   1.939  12.813
37668W        W 2829  17.671  31.601  10.916
37669W        W 2830  36.990  17.599   3.233
37670W        W 2831  20.169  28.596   0.264
37671W        W 2832  11.743   8.627  13.401
37672W        W 2833  42.013  15.797  13.929
37673W        W 2834  12.108  13.260   3.581
37674W        W 2835  21.802  18.714  14.233
37675W        W 2836  18.759   6.928  13.014
37676W        W 2837   7.833   7.168  12.803
37677W        W 2838  41.743  34.889   1.298
37678W        W 2839   9.158  19.421  10.918
37679W        W 2840   0.915  21.838  11.091
37680W        W 2841  30.012  12.703  14.893
37681W        W 2842  14.982  36.959  11.450
37682W        W 2843  33.301  38.056  14.102
37683W        W 2844  44.282  16.857   3.585
37684W        W 2845   7.751  42.205   2.231
37685W        W 2846  25.600   9.113   0.230
37686W        W 2847  19.276  22.601   2.309
37687W        W 2848  29.032  20.743   2.676
37688W        W 2849  42.618  14.802   1.312
37689W        W 2850  42.455  20.680  12.534
37690W        W 2851  37.819   3.442  13.356
37691W        W 2852  14.354  11.955  11.959
37692W        W 2853  43.992  28.969  14.876
37693W        W 2854  37.250  21.201   3.188
37694W        W 2855   1.808  17.776   4.121
37695W        W 2856  12.902  23.491  10.757
37696W        W 2857  26.062  16.522  14.075
37697W        W 2858  40.221  41.682  14.442
37698W        W 2859  40.830  12.727  11.507
37699W        W 2860  37.857  26.079   4.086
37700W        W 2861   8.303  17.741  11.948
37701W        W 2862  15.705  23.210   4.088
37702W        W 2863  20.049  37.924  14.514
37703W        W 2864  42.794  38.527  12.923
37704W        W 2865  14.826  44.541  13.801
37705W        W 2866   8.687   6.524   3.763
37706W        W 2867  44.804  15.890  11.983
37707W        W 2868  30.341  11.247  12.563
37708W        W 2869  29.165  14.079  11.967
37709W        W 2870  20.217  34.463  12.540
37710W        W 2871  37.979  21.268   0.927
37711W        W 2872  36.555  26.529   3.319
37712W        W 2873   4.251  25.976  12.164
37713W        W 2874  17.852  30.682   0.328
37714W        W 2875  16.457  16.190   0.206
37715W        W 2876   8.929  42.317  10.662
37716W        W 2877  28.613  27.192  11.522
37717W        W 2878  37.955   6.909  10.973
37718W        W 2879   1.279   8.446   1.831
37719W        W 2880  12.790   9.552   0.291
37720W        W 2881   5.295  29.625  10.293
37721W        W 2882  12.705   3.782  14.869
37722W        W 2883  20.429  13.708   0.282
37723W        W 2884  32.204  39.961  13.883
37724W        W 2885  10.352  11.024   3.480
37725W        W 2886  27.158  22.010   9.731
37726W        W 2887  28.252  32.935   3.604
37727W        W 2888  42.554  32.155   0.309
37728W        W 2889  41.014  30.059   2.905
37729W        W 2890   6.664  35.129  10.730
37730W        W 2891  36.739  34.560   2.139
37731W        W 2892  34.486  32.251  14.841
37732W        W 2893   5.755  43.378   2.216
37733W        W 2894  35.571  17.091  13.010
37734W        W 2895   6.399  13.234   4.353
37735W        W 2896  37.849  25.467   2.281
37736W        W 2897   6.457  36.321   2.586
37737W        W 2898  15.463   3.831  14.352
37738W        W 2899   0.501  33.012  14.408
37739W        W 2900  32.710   9.184  13.385
37740W        W 2901  38.053  17.364   1.036
37741W        W 2902  31.921  14.343  11.523
37742W        W 2903  16.817  35.595   4.169
37743W        W 2904  11.851   1.204   3.235
37744W        W 2905  44.509  15.052  11.169
37745W        W 2906  10.139  39.468   3.310
37746W        W 2907   8.891   3.700   0.692
37747W        W 2908  18.557  20.593   2.743
37748W        W 2909  23.363   3.142   4.737
37749W        W 2910  20.732  37.038  12.616
37750W        W 2911  24.062  39.844  14.019
37751W        W 2912  34.989  33.579  14.801
37752W        W 2913   9.080  27.507   2.249
37753W        W 2914  35.913  42.038  13.895
37754W        W 2915  15.635  36.116   3.472
37755W        W 2916  14.815  30.375  13.603
37756W        W 2917  26.466   1.856  14.446
37757W        W 2918  11.203  22.854  12.433
37758W        W 2919   8.386  40.446  11.027
37759W        W 2920  43.893   1.934   1.653
37760W        W 2921  12.060   4.458   0.380
37761W        W 2922  18.664   0.544  13.560
37762W        W 2923  37.415  40.467   1.730
37763W        W 2924   1.856  37.025  11.560
37764W        W 2925  12.136  26.231  10.696
37765W        W 2926  28.007  32.964  13.811
37766W        W 2927  27.182  41.406   1.177
37767W        W 2928  26.623  17.766  14.476
37768W        W 2929  29.151  22.964  12.044
37769W        W 2930  29.858  30.198   4.116
37770W        W 2931   7.327  12.572   1.870
37771W        W 2932  21.909  17.689   1.513
37772W        W 2933   0.711  27.906   5.156
37773W        W 2934  38.943  30.387   4.473
37774W        W 2935  41.417  10.259   4.548
37775W        W 2936  42.349  20.214  12.401
37776W        W 2937  23.709  40.336   0.352
37777W        W 2938  10.799  35.057   2.775
37778W        W 2939  15.264  20.113  14.741
37779W        W 2940  14.725  37.146   9.761
37780W        W 2941  25.007  38.284  13.574
37781W        W 2942  28.971  31.067  12.394
37782W        W 2943  36.199  38.548  10.341
37783W        W 2944  37.605  25.423  13.834
37784W        W 2945  24.865  36.026  12.369
37785W        W 2946  22.505  37.899  14.898
37786W        W 2947  33.683   8.193   3.374
37787W        W 2948  11.368  18.714   2.129
37788W        W 2949  32.748  42.480   0.434
37789W        W 2950   1.095  17.695  13.116
37790W        W 2951  20.001  30.395   0.330
37791W        W 2952  14.355  36.647  11.141
37792W        W 2953  30.394   1.475  13.060
37793W        W 2954  12.678  12.642   4.064
37794W        W 2955  24.181  35.690   4.254
37795W        W 2956  21.724  16.820  14.092
37796W        W 2957  28.675  21.806  14.802
37797W        W 2958  33.189   6.890   1.735
37798W        W 2959  32.804  35.617  13.133
37799W        W 2960  44.675  15.568  12.850
37800W        W 2961  41.328  44.370   1.397
37801W        W 2962  35.777  22.948   5.239
37802W        W 2963  35.896  30.491   4.211
37803W        W 2964  10.791  23.979  12.071
37804W        W 2965  32.334   8.780   1.813
37805W        W 2966  44.835   7.129  13.463
37806W        W 2967  35.090  40.575   2.409
37807W        W 2968  43.898  33.578   4.667
37808W        W 2969  18.105   6.133  11.786
37809W        W 2970  36.911  19.166  11.824
37810W        W 2971  26.220  20.995  11.525
37811W        W 2972  40.923   6.860  14.653
37812W        W 2973  35.309  23.753  12.810
37813W        W 2974   7.588  29.661  12.360
37814W        W 2975  35.120  16.667   4.302
37815W        W 2976  38.172  19.968  11.070
37816W        W 2977  15.233  32.119   3.225
37817W        W 2978  12.364  43.067  13.402
37818W        W 2979   8.359  38.079   0.770
37819W        W 2980  34.435  21.311  11.192
37820W        W 2981  15.700   1.506  10.457
37821W        W 2982  12.712  42.471   3.085
37822W        W 2983  36.836   4.761   3.544
37823W        W 2984  40.443   5.342   3.143
37824W        W 2985   0.251  16.646  12.285
37825W        W 2986  35.073  34.419  14.200
37826W        W 2987  25.489   1.724   2.648
37827W        W 2988  44.515  30.434  11.839
37828W        W 2989  31.897  19.770   2.248
37829W        W 2990  38.808  24.298   1.284
37830W        W 2991  11.406  42.803  14.181
37831W        W 2992  40.864  21.132   4.713
37832W        W 2993   1.509  38.937  12.704
37833W        W 2994   1.446  12.315   3.636
37834W        W 2995  23.496  43.904  14.034
37835W        W 2996  41.864  20.034   2.936
37836W        W 2997  34.466   0.180   0.330
37837W        W 2998  14.022  44.521  10.239
37838W        W 2999  32.454  36.346  10.694
37839W        W 3000  15.136  30.073   4.942
37840W        W 3001  21.005  15.933  11.883
37841W        W 3002  13.324   0.909  12.072
37842W        W 3003   4.812   6.521   4.001
37843W        W 3004  44.511  28.718   3.189
37844W        W 3005  17.117  22.307   0.001
37845W        W 3006   7.350  30.855   1.298
37846W        W 3007  39.448  33.954   0.736
37847W        W 3008  33.530   8.129  10.684
37848W        W 3009  11.701  30.675   4.182
37849W        W 3010  18.146   5.140   4.131
37850W        W 3011  37.868   4.629  13.933
37851W        W 3012  28.175  21.038  13.070
37852W        W 3013  22.628  42.135  13.944
37853W        W 3014  17.650  27.751   4.019
37854W        W 3015   0.980  26.691  12.001
37855W        W 3016  23.628  29.615   1.167
37856W        W 3017  17.702  38.987   2.830
37857W        W 3018  35.060  37.575   2.777
37858W        W 3019  27.860  11.379   0.623
37859W        W 3020  33.505  21.109  14.030
37860W        W 3021  38.731  11.540  13.574
37861W        W 3022  16.631  20.160   3.151
37862W        W 3023  42.204   5.870  11.703
37863W        W 3024  33.701  30.233  13.461
37864W        W 3025  24.698   5.787  12.048
37865W        W 3026  28.186  39.106   4.500
37866W        W 3027  37.251  19.993  14.832
37867W        W 3028  34.005  37.954  11.741
37868W        W 3029   9.856  14.463   2.711
37869W        W 3030  34.304   7.194   1.315
37870W        W 3031  27.663  13.242   4.026
37871W        W 3032   6.071  27.518  11.534
37872W        W 3033  21.771  36.951  14.932
37873W        W 3034  16.227  37.465  12.963
37874W        W 3035  27.419  23.371   1.984
37875W        W 3036  30.833  24.989  13.974
37876W        W 3037  38.120  13.980  10.223
37877W        W 3038  19.729  12.171   4.240
37878W        W 3039  35.376  41.026  12.474
37879W        W 3040  34.382  40.294  12.533
37880W        W 3041  38.956  21.803   1.363
37881W        W 3042  23.121   5.443   0.476
37882W        W 3043  20.064   2.019   3.734
37883W        W 3044  13.147  32.036   0.221
37884W        W 3045  11.758   6.288  14.593
37885W        W 3046  38.926  17.843   1.434
37886W        W 3047  17.136   7.055   1.744
37887W        W 3048  43.919  17.716   4.907
37888W        W 3049  33.932  26.214   1.766
37889W        W 3050   6.861  37.499   1.162
37890W        W 3051  15.220   0.244   3.109
37891W        W 3052  33.243  35.105   0.436
37892W        W 3053  44.320   6.927  13.669
37893W        W 3054  27.760   8.271   1.276
37894W        W 3055  23.975  18.962   0.259
37895W        W 3056  21.244  37.260   5.295
37896W        W 3057  17.910  23.235   4.430
37897W        W 3058  12.215  19.533  13.563
37898W        W 3059   1.347  25.112   4.392
37899W        W 3060  43.744  15.316   1.855
37900W        W 3061  34.272  16.554  12.974
37901W        W 3062  30.722  25.259   4.077
37902W        W 3063  29.004  37.283   3.985
37903W        W 3064  27.474  19.556   2.242
37904W        W 3065  17.719  40.317   0.965
37905W        W 3066  15.628   7.198  13.447
37906W        W 3067  33.097  38.862  13.998
37907W        W 3068  29.358  43.799  14.827
37908W        W 3069  32.424   1.345  14.159
37909W        W 3070  39.431  11.174  12.527
37910W        W 3071   0.776  15.549  12.112
37911W        W 3072  25.742  37.559  12.021
37912W        W 3073  15.147  40.723  12.761
37913W        W 3074  16.183  38.520   9.807
37914W        W 3075  23.370   4.107   2.605
37915W        W 3076  24.822  24.561  14.502
37916W        W 3077  11.212  14.593  11.223
37917W        W 3078  15.886  43.330   2.287
37918W        W 3079  29.242  18.011  13.319
37919W        W 3080  13.724   2.848   4.341
37920W        W 3081  26.442   8.578  14.391
37921W        W 3082  33.056  14.630   1.699
37922W        W 3083   3.546  13.240  11.890
37923W        W 3084   2.379  32.147  14.381
37924W        W 3085  43.385   3.252   4.965
37925W        W 3086  26.537  24.632  14.611
37926W        W 3087  15.293  21.557  11.655
37927W        W 3088  16.125  16.819  11.978
37928W        W 3089  44.806  28.375   2.933
37929W        W 3090  16.291   0.913  10.701
37930W        W 3091  43.479  14.568  14.299
37931W        W 3092  10.943  31.693  13.044
37932W        W 3093  26.698  11.846  13.660
37933W        W 3094  24.757   6.261   4.552
37934W        W 3095   2.850  11.236  12.390
37935W        W 3096  27.699  40.297   4.094
37936W        W 3097  21.078  29.528  13.089
37937W        W 3098  10.395  18.325  13.088
37938W        W 3099  24.524  23.730   2.351
37939W        W 3100  33.508  12.513   4.762
37940W        W 3101  21.800  37.080  13.537
37941W        W 3102  19.070  26.744  12.972
37942W        W 3103  42.716  28.877  12.551
37943W        W 3104  30.712  38.897   0.688
37944W        W 3105   4.207  32.557   4.571
37945W        W 3106  38.081   7.221   2.726
37946W        W 3107  31.036   7.331   5.132
37947W        W 3108  27.709  36.496  14.288
37948W        W 3109  19.289  21.539  12.766
37949W        W 3110   7.858   3.800   2.706
37950W        W 3111  12.288   8.632   2.174
37951W        W 3112  11.261  40.287  12.759
37952W        W 3113  38.462  36.436  14.287
37953W        W 3114  28.135  13.604   1.433
37954W        W 3115  34.523  32.859  14.381
37955W        W 3116   3.173  23.969  14.488
37956W        W 3117   4.993  25.089  11.648
37957W        W 3118  33.501  12.093   1.743
37958W        W 3119  40.575  37.285  10.200
37959W        W 3120  39.457   1.270   3.232
37960W        W 3121  43.910   1.284  12.413
37961W        W 3122  24.713  42.466   3.595
37962W        W 3123   1.213  30.133   4.462
37963W        W 3124  34.885  19.771  14.418
37964W        W 3125  17.084   8.832  10.454
37965W        W 3126  31.644  36.459   0.418
37966W        W 3127  36.089   2.681   4.436
37967W        W 3128  12.422  35.941   2.822
37968W        W 3129  12.817   3.599   2.222
37969W        W 3130  17.089  39.385   1.325
37970W        W 3131  36.529  14.183   1.753
37971W        W 3132   2.308   6.986  14.944
37972W        W 3133   2.624  25.144   3.524
37973W        W 3134  13.987  38.765  10.815
37974W        W 3135  19.094  27.242   2.690
37975W        W 3136  38.618  36.892   3.544
37976W        W 3137  16.255  41.324  11.564
37977W        W 3138  36.940  19.104  10.438
37978W        W 3139   9.608  30.771   4.865
37979W        W 3140  18.617  39.015   1.214
37980W        W 3141  27.006  26.645   3.856
37981W        W 3142  19.488  16.745  12.899
37982W        W 3143   9.752  38.225  14.003
37983W        W 3144  19.209  33.161  14.105
37984W        W 3145   9.805  32.258   4.135
37985W        W 3146  17.251  34.148  14.762
37986W        W 3147  16.067  22.706  13.537
37987W        W 3148  26.063  27.220  13.056
37988W        W 3149  29.624   2.873   2.263
37989W        W 3150  24.719   2.518   3.273
37990W        W 3151   5.404  13.661   3.716
37991W        W 3152  33.971  14.329   2.029
37992W        W 3153  41.626  12.202   0.287
37993W        W 3154  27.424  10.697   9.841
37994W        W 3155  33.574   2.204  10.740
37995W        W 3156   4.147  23.606   4.452
37996W        W 3157  22.266  36.988   1.791
37997W        W 3158  43.062  25.681  12.877
37998W        W 3159  23.701  10.682  11.480
37999W        W 3160  25.073  19.886  11.242
38000W        W 3161   4.223   3.291  11.632
38001W        W 3162  35.013  13.355   4.248
38002W        W 3163  18.517  13.387   0.037
38003W        W 3164  43.370  44.769  11.576
38004W        W 3165  22.522  41.055   0.924
38005W        W 3166  40.894   3.477   3.482
38006W        W 3167  29.455  18.762  11.532
38007W        W 3168   3.377  18.738   2.290
38008W        W 3169   7.836  44.195   3.079
38009W        W 3170  20.091  17.906   4.395
38010W        W 3171  12.566  15.356   2.170
38011W        W 3172  16.540  38.411   1.921
38012W        W 3173   6.185  27.411  13.063
38013W        W 3174  42.881   8.023   4.968
38014W        W 3175  22.106  44.685  13.795
38015W        W 3176  15.336   2.274   4.072
38016W        W 3177  36.429  15.590   5.399
38017W        W 3178  10.801  30.872  12.182
38018W        W 3179  32.549   7.763   3.194
38019W        W 3180  20.486  43.850  13.581
38020W        W 3181  35.202  20.184   1.403
38021W        W 3182  44.139  12.606   3.737
38022W        W 3183  27.511  24.090   3.939
38023W        W 3184   7.939  39.637   0.375
38024W        W 3185  28.097  25.926   3.646
38025W        W 3186  28.164   6.597   4.137
38026W        W 3187  10.320   4.718  11.122
38027W        W 3188  13.988   7.907  11.229
38028W        W 3189  11.181  19.112   4.532
38029W        W 3190  11.318  11.733  14.660
38030W        W 3191  31.211  43.815   0.317
38031W        W 3192  22.498  30.231  12.545
38032W        W 3193  25.713  28.918  14.519
38033W        W 3194  27.862  33.560   0.989
38034W        W 3195  29.074  38.514  12.001
38035W        W 3196  20.283  40.201   2.046
38036W        W 3197   1.115   0.304   4.620
38037W        W 3198  18.827  36.456   0.044
38038W        W 3199  26.093  29.088   4.215
38039W        W 3200   4.821   7.462   1.993
38040W        W 3201  16.198  19.065  12.902
38041W        W 3202  41.266  28.260  14.356
38042W        W 3203  13.734  43.328  12.275
38043W        W 3204  43.952   2.520  14.833
38044W        W 3205   3.857  27.214  14.610
38045W        W 3206   5.396  14.668  14.366
38046W        W 3207  17.042  37.470  13.618
38047W        W 3208  23.646  42.437  10.769
38048W        W 3209  38.076  37.998   0.397
38049W        W 3210   6.061  10.413  10.354
38050W        W 3211  43.574  10.262  13.283
38051W        W 3212  40.240  26.094  10.692
38052W        W 3213   1.427  36.881  11.805
38053W        W 3214  39.059  27.430   4.732
38054W        W 3215  13.579   2.395   2.850
38055W        W 3216  11.712  28.655   3.203
38056W        W 3217  16.458   1.874   4.130
38057W        W 3218  14.842  43.496   3.734
38058W        W 3219  43.808  29.397  11.110
38059W        W 3220  39.513  33.533  13.523
38060W        W 3221  26.114  29.680   1.836
38061W        W 3222  22.470   0.965   1.341
38062W        W 3223  33.729  39.152   3.722
38063W        W 3224   6.006  10.847  14.071
38064W        W 3225  29.793  24.906  11.703
38065W        W 3226  25.222  36.420  12.254
38066W        W 3227  33.185  16.038   1.829
38067W        W 3228  38.182   6.362   0.319
38068W        W 3229  15.662  30.222  12.899
38069W        W 3230   5.487  11.751   4.215
38070W        W 3231  37.498  39.281   3.133
38071W        W 3232  16.850  15.243  12.985
38072W        W 3233   6.174  14.841   0.333
38073W        W 3234   3.688  33.415   1.163
38074W        W 3235  29.719  43.977   0.471
38075W        W 3236  30.526  37.313  11.152
38076W        W 3237  22.120   0.911   0.322
38077W        W 3238  21.943  29.068  14.997
38078W        W 3239  28.440  32.534  14.416
38079W        W 3240  20.195  11.345   0.251
38080W        W 3241  18.265   6.828   1.303
38081W        W 3242  23.565   3.772  13.415
38082W        W 3243  16.574  37.937   4.523
38083W        W 3244  18.917  37.819  11.933
38084W        W 3245   6.397   4.295   3.146
38085W        W 3246  26.594  26.519  11.074
38086W        W 3247  19.501   1.690   2.513
38087W        W 3248  38.546  20.954  11.480
38088W        W 3249  36.052   3.474   3.091
38089W        W 3250  40.939   5.934   1.813
38090W        W 3251  34.906  41.215   1.049
38091W        W 3252   1.474  40.979  14.500
38092W        W 3253  15.084  14.226  12.418
38093W        W 3254  27.641  40.298  13.181
38094W        W 3255  36.895  33.372  12.156
38095W        W 3256  38.500  42.894   4.424
38096W        W 3257   1.138  38.278  11.297
38097W        W 3258  44.974  35.337  12.492
38098W        W 3259   7.169  14.214   1.830
38099W        W 3260  22.576  32.463   2.282
38100W        W 3261  20.373  20.009  12.644
38101W        W 3262  30.888  20.818  12.196
38102W        W 3263   2.545  22.737   3.761
38103W        W 3264  12.187  18.594  10.755
38104W        W 3265  13.236  18.098  10.752
38105W        W 3266   4.838  12.859  12.675
38106W        W 3267  14.809  14.850  11.109
38107W        W 3268  42.455  37.568  12.502
38108W        W 3269   8.648   6.334  10.686
38109W        W 3270  44.430   1.932   2.160
38110W        W 3271   2.737  33.164   0.301
38111W        W 3272  24.064  41.283   4.045
38112W        W 3273  24.760  16.822   4.055
38113W        W 3274   8.521   3.922  14.291
38114W        W 3275  17.250  34.776  10.746
38115W        W 3276  43.811   6.769  13.665
38116W        W 3277  33.502   5.320   1.412
38117W        W 3278  13.443   8.137  13.577
38118W        W 3279  44.730  15.078  13.024
38119W        W 3280  10.794  12.582  10.847
38120W        W 3281  38.317  37.492  13.363
38121W        W 3282  19.010  43.304   0.461
38122W        W 3283  27.099   9.815   0.812
38123W        W 3284  41.158  35.320  11.596
38124W        W 3285  27.989  38.828  12.606
38125W        W 3286  22.799  20.722  10.753
38126W        W 3287  34.342  44.944  14.478
38127W        W 3288  36.115  31.454   0.275
38128W        W 3289  19.230  33.587  13.775
38129W        W 3290  36.071  15.602  12.987
38130W        W 3291  17.185   6.886  12.450
38131W        W 3292   9.116  15.697   3.304
38132W        W 3293  30.479   9.425   0.917
38133W        W 3294  38.696   9.694   9.990
38134W        W 3295  33.260  34.606   1.200
38135W        W 3296  18.070   9.275   1.190
38136W        W 3297   7.188  14.116   3.640
38137W        W 3298  35.259  39.988   3.100
38138W        W 3299  44.304  42.674   4.440
38139W        W 3300  37.887  30.399   4.514
38140W        W 3301  16.131  19.839   0.871
38141W        W 3302   3.936   1.800   1.673
38142W        W 3303  41.554  20.678   2.253
38143W        W 3304  11.702  21.849   1.389
38144W        W 3305  41.719  12.566  10.315
38145W        W 3306  26.590   3.738   2.656
38146W        W 3307   6.566  34.411   4.538
38147W        W 3308  21.984   0.938   1.682
38148W        W 3309  31.512   7.561  12.641
38149W        W 3310  23.087  37.374   3.585
38150W        W 3311  15.792  40.757  14.257
38151W        W 3312  19.710  22.200   1.449
38152W        W 3313  27.441  23.729  11.058
38153W        W 3314  15.706  32.755  14.047
38154W        W 3315  28.915  40.058   0.527
38155W        W 3316   5.870  12.469   1.372
38156W        W 3317  38.062  33.496   4.453
38157W        W 3318  22.427  21.503   1.221
38158W        W 3319  25.228   1.859   3.897
38159W        W 3320  23.835  22.909  14.069
38160W        W 3321  18.737  10.836   0.890
38161W        W 3322   5.137  19.881  13.412
38162W        W 3323  32.448  42.711  14.170
38163W        W 3324  35.070   1.875  13.426
38164W        W 3325  16.171  19.217   4.691
38165W        W 3326  40.761   3.297  14.545
38166W        W 3327  29.017  22.093   1.043
38167W        W 3328  41.562  22.216  11.522
38168W        W 3329   7.279  13.769   4.481
38169W        W 3330  39.496   6.306   1.247
38170W        W 3331   9.707  17.060   3.822
38171W        W 3332  30.007  41.412  11.486
38172W        W 3333  42.851  35.892   3.380
38173W        W 3334  39.456  13.959  13.324
38174W        W 3335  19.174  29.609  13.537
38175W        W 3336  40.859  10.249  13.879
38176W        W 3337  36.665  22.757   1.903
38177W        W 3338  31.063  19.824  10.920
38178W        W 3339  35.332  38.023   2.717
38179W        W 3340  23.174  28.259   2.165
38180W        W 3341  44.986  43.413  10.475
38181W        W 3342  33.458   4.605   2.958
38182W        W 3343  31.415   1.280  11.989
38183W        W 3344  23.206   6.478  13.217
38184W        W 3345  42.325  41.090   3.241
38185W        W 3346  23.175  24.286  12.915
38186W        W 3347  14.688  17.580  11.039
38187W        W 3348   8.227  24.892  13.408
38188W        W 3349  16.366  36.493  13.579
38189W        W 3350  13.614  38.844   1.301
38190W        W 3351  23.539  22.669  12.622
38191W        W 3352  26.892  31.532  13.901
38192W        W 3353  28.287  19.147  11.100
38193W        W 3354  20.469  13.710  12.409
38194W        W 3355   3.198  20.102  13.505
38195W        W 3356   9.249   1.236  11.392
38196W        W 3357  40.668  21.714  14.805
38197W        W 3358  29.889  16.699  12.062
38198W        W 3359  32.513  42.604   1.801
38199W        W 3360  27.478  32.932  13.550
38200W        W 3361  34.521  32.464   2.742
38201W        W 3362  43.423  14.125  14.582
38202W        W 3363  33.735  13.726  11.563
38203W        W 3364   6.343   2.723   2.177
38204W        W 3365   1.036  32.901  14.368
38205W        W 3366  17.996  25.122  11.453
38206W        W 3367  18.217  37.148  14.411
38207W        W 3368   3.323  19.197  11.331
38208W        W 3369   1.837   8.196  11.923
38209W        W 3370  22.147  18.312  13.386
38210W        W 3371  16.279  32.001   2.261
38211W        W 3372  20.050   2.837  12.405
38212W        W 3373  16.593  15.217   4.493
38213W        W 3374  36.783  40.787  13.371
38214W        W 3375  39.314  14.759   0.886
38215W        W 3376  35.849   4.984  13.927
38216W        W 3377  24.191   7.121  14.900
38217W        W 3378  22.455   1.797   2.182
38218W        W 3379  30.992   9.173   3.159
38219W        W 3380  42.826   8.927   0.311
38220W        W 3381  12.021  40.034  13.666
38221W        W 3382  19.305  26.158   0.001
38222W        W 3383  25.672  14.238   4.065
38223W        W 3384   4.417   6.910   0.319
38224W        W 3385   5.738  25.755  14.942
38225W        W 3386  17.074  30.706   1.918
38226W        W 3387   9.394  21.101   2.982
38227W        W 3388  39.870  33.512  13.144
38228W        W 3389  26.650  23.987   0.890
38229W        W 3390  18.127   7.661  13.092
38230W        W 3391  36.933   8.924   2.388
38231W        W 3392  11.921  42.981  12.497
38232W        W 3393   3.761  22.821  11.600
38233W        W 3394  34.217  30.197  13.420
38234W        W 3395  23.157  29.036   0.658
38235W        W 3396  36.917  40.401  14.824
38236W        W 3397  38.038  39.779   3.675
38237W        W 3398  25.765   9.217   4.653
38238W        W 3399   3.878  17.641  11.906
38239W        W 3400  23.018  43.128   4.046
38240W        W 3401  43.486  17.289  11.609
38241W        W 3402  11.647  40.509  12.482
38242W        W 3403  37.751  20.210  14.837
38243W        W 3404  20.110  26.554  13.003
38244W        W 3405   8.301  32.376   0.822
38245W        W 3406  12.740   3.019  12.096
38246W        W 3407   8.370  26.677   1.072
38247W        W 3408   8.346   0.261   4.583
38248W        W 3409   1.016   4.821  14.394
38249W        W 3410  10.094   8.202  12.850
38250W        W 3411  34.372  13.788  12.347
38251W        W 3412  40.314   8.973   4.653
38252W        W 3413  31.337  15.601  13.908
38253W        W 3414   7.861  33.171  13.560
38254W        W 3415  43.005  38.319   0.091
38255W        W 3416   3.432  28.922  12.501
38256W        W 3417   0.279  39.569  10.957
38257W        W 3418  41.451  11.177  12.064
38258W        W 3419  31.640   3.319  12.209
38259W        W 3420  36.000  10.795   1.146
38260W        W 3421  31.590  42.566  11.546
38261W        W 3422  24.118   0.911   0.699
38262W        W 3423  16.138  11.285   3.071
38263W        W 3424  14.222  14.020  11.332
38264W        W 3425  22.211  41.343  12.891
38265W        W 3426  41.348  32.604   3.900
38266W        W 3427  38.035  29.105   4.649
38267W        W 3428   6.423  31.264   0.523
38268W        W 3429  37.391  12.731   4.597
38269W        W 3430  21.476  23.106  13.598
38270W        W 3431   4.458  22.992   1.278
38271W        W 3432  38.116  38.515  13.867
38272W        W 3433  23.784  20.737   1.312
38273W        W 3434   3.758  26.600  14.773
38274W        W 3435  38.458  43.797  14.295
38275W        W 3436  37.817   4.865   4.903
38276W        W 3437  39.336  43.769  14.299
38277W        W 3438  11.269  13.120  13.814
38278W        W 3439  43.543  38.990  11.136
38279W        W 3440  31.496  33.730  14.851
38280W        W 3441  40.990  16.280  13.345
38281W        W 3442  28.938  43.835  10.992
38282W        W 3443   6.380  31.614   4.985
38283W        W 3444  14.629  39.314  13.469
38284W        W 3445  37.040  39.558   3.178
38285W        W 3446  44.876  44.721   2.686
38286W        W 3447  10.494  14.762  12.745
38287W        W 3448   4.231  25.481   2.263
38288W        W 3449   2.327   5.828  10.724
38289W        W 3450   6.700  11.548   1.989
38290W        W 3451  44.930  17.786  12.374
38291W        W 3452  17.725   5.728  12.449
38292W        W 3453  43.662  37.947  12.395
38293W        W 3454  33.423  35.036   0.941
38294W        W 3455  43.428  29.474   1.833
38295W        W 3456  28.256  38.905  10.711
38296W        W 3457   9.223   3.446   4.707
38297W        W 3458  23.542  19.526   4.552
38298W        W 3459  41.107  42.320   4.571
38299W        W 3460  39.550  26.813   3.368
38300W        W 3461  34.333  29.855  10.656
38301W        W 3462  23.310  16.587   1.902
38302W        W 3463  18.931  40.447   9.474
38303W        W 3464  40.586  13.311  13.871
38304W        W 3465  26.269  25.471   5.211
38305W        W 3466  31.236  19.830  14.434
38306W        W 3467  31.967  24.243   9.542
38307W        W 3468  20.945  35.222  12.375
38308W        W 3469  36.473  13.660  14.316
38309W        W 3470  37.072  34.970   2.205
38310W        W 3471   8.361  36.681   2.883
38311W        W 3472   8.739   5.730   1.787
38312W        W 3473   8.366  37.553   0.870
38313W        W 3474  19.067  22.192   0.829
38314W        W 3475  43.170  40.114  10.347
38315W        W 3476  26.081  34.000   1.750
38316W        W 3477   3.585  11.676  12.628
38317W        W 3478   6.281   2.376  14.824
38318W        W 3479  13.355   5.404  11.681
38319W        W 3480  34.055  43.241  12.689
38320W        W 3481  25.480  20.846  14.375
38321W        W 3482   0.715   8.193  14.286
38322W        W 3483   8.063  14.838   3.741
38323W        W 3484  32.923   2.257  12.966
38324W        W 3485  20.604  38.154  11.155
38325W        W 3486  40.271  25.055   3.245
38326W        W 3487   4.700   2.883   0.962
38327W        W 3488  15.724  24.970  13.051
38328W        W 3489  36.097  37.601   2.216
38329W        W 3490  39.848  22.587  12.179
38330W        W 3491   1.165  37.262  10.204
38331W        W 3492  20.306  26.725   4.627
38332W        W 3493  13.675  31.379   0.030
38333W        W 3494  32.725   8.851   4.650
38334W        W 3495  12.637   7.903   0.666
38335W        W 3496  19.299  38.417   3.692
38336W        W 3497   8.409   1.431   2.745
38337W        W 3498   8.723   7.757   0.439
38338W        W 3499  19.211  15.212   3.866
38339W        W 3500   9.712  28.149  10.688
38340W        W 3501  40.321  19.891  10.357
38341W        W 3502  21.061  22.183  13.755
38342W        W 3503  41.500  23.369  14.823
38343W        W 3504   5.976  36.102   2.868
38344W        W 3505  39.958  16.417  11.183
38345W        W 3506  13.685  37.438   3.439
38346W        W 3507  17.470  27.280   4.113
38347W        W 3508  39.116  22.605   2.738
38348W        W 3509   2.278   1.226   2.786
38349W        W 3510   9.329   4.454  12.578
38350W        W 3511  22.749  19.447  11.167
38351W        W 3512  37.096   7.257  11.860
38352W        W 3513  40.150   0.210  10.281
38353W        W 3514  26.678  35.968  11.594
38354W        W 3515  10.257   3.040   3.145
38355W        W 3516  32.933   7.864   0.688
38356W        W 3517  38.356  44.113   4.281
38357W        W 3518  35.673  43.690  13.329
38358W        W 3519  28.953  44.449   4.844
38359W        W 3520  29.973   7.278   2.137
38360W        W 3521  16.742  23.215  11.466
38361W        W 3522  11.999  14.216  11.071
38362W        W 3523  42.892  17.514  13.111
38363W        W 3524  38.579  33.441  11.331
38364W        W 3525   4.943  24.824   9.880
38365W        W 3526   9.373  35.400   1.365
38366W        W 3527  42.956  42.695  14.892
38367W        W 3528   5.428  10.699  10.851
38368W        W 3529  15.584  26.411   3.535
38369W        W 3530   4.272   4.873   3.294
38370W        W 3531  43.985   0.486  14.981
38371W        W 3532   0.345  25.248  14.021
38372W        W 3533  20.698  12.848   0.160
38373W        W 3534  15.222   9.253   3.355
38374W        W 3535  13.307  11.797  13.848
38375W        W 3536  38.673  17.231  13.837
38376W        W 3537  40.080  19.329   1.227
38377W        W 3538  35.319   4.484  11.332
38378W        W 3539  35.947  34.539  14.947
38379W        W 3540  41.904  24.076   0.270
38380W        W 3541  32.494  28.572   2.811
38381W        W 3542  31.192  31.844  10.249
38382W        W 3543  21.203  36.284  12.422
38383W        W 3544  12.255  31.617  10.762
38384W        W 3545  16.463   0.720  12.514
38385W        W 3546   8.309  42.891  11.675
38386W        W 3547  21.182   0.313   3.612
38387W        W 3548  20.562  22.636   5.176
38388W        W 3549  20.740  19.043   1.604
38389W        W 3550  11.864   9.797   4.217
38390W        W 3551   3.054  33.207   1.275
38391W        W 3552   3.401  40.412   3.883
38392W        W 3553   9.852  41.253   0.324
38393W        W 3554  28.034   8.542   1.625
38394W        W 3555  21.798  22.502  12.169
38395W        W 3556  30.898  30.234  12.107
38396W        W 3557   9.797   5.056   2.323
38397W        W 3558  12.925   0.774  13.365
38398W        W 3559   0.439  16.107  12.428
38399W        W 3560  27.709  25.581  11.978
38400W        W 3561   8.579   8.936   3.935
38401W        W 3562  18.603  43.795  13.842
38402W        W 3563   8.821   9.893   1.330
38403W        W 3564   5.471  30.675  13.916
38404W        W 3565   5.686  14.013   0.198
38405W        W 3566  17.835  21.760  11.545
38406W        W 3567  25.589   1.247   3.777
38407W        W 3568  30.930  34.710  10.770
38408W        W 3569  23.699  32.976   1.919
38409W        W 3570   2.116  12.917   2.776
38410W        W 3571  44.535  30.197  13.419
38411W        W 3572   0.243  20.447  12.178
38412W        W 3573  19.070  18.070  10.234
38413W        W 3574  20.291  29.161   0.934
38414W        W 3575   9.675  44.406   4.513
38415W        W 3576   1.538  25.642   0.950
38416W        W 3577  13.817  22.552  10.490
38417W        W 3578   9.403   5.714   1.271
38418W        W 3579   1.257  23.995   1.383
38419W        W 3580  21.539  38.847  12.189
38420W        W 3581  34.694  41.109   5.435
38421W        W 3582  16.139  17.253   5.065
38422W        W 3583   4.189  27.689  13.523
38423W        W 3584  24.216  12.702   0.318
38424W        W 3585   0.743   7.925   3.177
38425W        W 3586  39.890  39.890  14.814
38426W        W 3587  22.547  39.532  10.706
38427W        W 3588   7.449  16.390  10.744
38428W        W 3589  21.966  14.075  11.518
38429W        W 3590  19.752  26.734  13.488
38430W        W 3591  12.841  23.703   1.257
38431W        W 3592  21.240  10.402   4.155
38432W        W 3593  30.173  14.578  12.058
38433W        W 3594  23.976  15.815   2.242
38434W        W 3595   9.796  27.205  13.277
38435W        W 3596   2.364  43.719   2.845
38436W        W 3597   9.121  27.593   3.824
38437W        W 3598   6.697  19.218   2.747
38438W        W 3599  30.514  17.680   4.572
38439W        W 3600   0.297  25.482  11.481
38440W        W 3601  11.254  17.241  12.122
38441W        W 3602  25.157  36.988   3.920
38442W        W 3603  29.101   6.740   2.320
38443W        W 3604   1.767  32.351  12.684
38444W        W 3605  20.544  43.043  12.288
38445W        W 3606  13.012  21.127  10.863
38446W        W 3607  20.652   9.244   3.696
38447W        W 3608  42.859  28.122   1.328
38448W        W 3609  33.752  21.322   5.063
38449W        W 3610  38.801  29.687  12.499
38450W        W 3611  16.230  16.676  11.144
38451W        W 3612  19.962  10.327  10.615
38452W        W 3613  12.851  26.196   3.256
38453W        W 3614  19.161  34.489   2.739
38454W        W 3615  27.976  29.672   0.814
38455W        W 3616  31.764  14.145   4.997
38456W        W 3617  40.889  28.089  10.779
38457W        W 3618   7.460  31.635   1.670
38458W        W 3619  18.539   1.451   0.704
38459W        W 3620   3.343   1.356  14.867
38460W        W 3621  35.972  13.349  13.340
38461W        W 3622  12.087   2.839   0.870
38462W        W 3623  40.079  15.337   3.121
38463W        W 3624  33.648   6.300   0.472
38464W        W 3625  39.415  12.989   1.313
38465W        W 3626  16.735  42.697   1.846
38466W        W 3627  22.492  44.459   3.278
38467W        W 3628  17.164   5.475   1.860
38468W        W 3629   6.751  12.777   2.815
38469W        W 3630  24.093  34.937   2.882
38470W        W 3631  36.552   1.361  10.318
38471W        W 3632  15.186  14.137  10.870
38472W        W 3633  24.007   3.837   0.845
38473W        W 3634  32.795  20.653   3.164
38474W        W 3635  32.919  37.877   1.432
38475W        W 3636  33.444  15.293   3.912
38476W        W 3637   0.580  22.216   4.066
38477W        W 3638   9.130   8.370   2.933
38478W        W 3639  17.201  36.605   4.658
38479W        W 3640  39.283  38.549   3.874
38480W        W 3641   4.905   9.210   1.864
38481W        W 3642  36.380  43.418   4.133
38482W        W 3643   6.114   1.337  12.004
38483W        W 3644  24.615   9.918   3.719
38484W        W 3645  41.150  34.954  12.483
38485W        W 3646  42.901  22.748  11.952
38486W        W 3647  14.597  32.525   1.637
38487W        W 3648  38.981  29.132   2.668
38488W        W 3649  17.523  35.800   2.823
38489W        W 3650  43.914  35.488  11.194
38490W        W 3651  24.168  28.488   3.160
38491W        W 3652  43.739  33.590  14.005
38492W        W 3653  23.646  18.750   1.324
38493W        W 3654  17.030  43.846   3.665
38494W        W 3655   6.216  41.036  12.534
38495W        W 3656  28.454  37.058  13.369
38496W        W 3657  17.277  38.167   1.902
38497W        W 3658  13.085  15.840   3.269
38498W        W 3659  17.968  41.973   1.942
38499W        W 3660  34.211   2.269  13.471
38500W        W 3661  14.324   3.472   3.391
38501W        W 3662  43.908  12.682   2.812
38502W        W 3663  16.143  33.991  14.477
38503W        W 3664  43.748  36.170  14.050
38504W        W 3665   5.962  30.723   4.095
38505W        W 3666   9.889  21.026   3.105
38506W        W 3667  19.245   1.909   2.919
38507W        W 3668   7.290  44.992   2.197
38508W        W 3669  18.848   3.761  14.701
38509W        W 3670   6.362  22.068  14.494
38510W        W 3671  21.658  35.420  10.791
38511W        W 3672  29.973   2.190  13.919
38512W        W 3673   9.494  23.100   3.341
38513W        W 3674  21.144  13.856   4.604
38514W        W 3675  36.002  25.728  11.628
38515W        W 3676  11.221  10.174   2.011
38516W        W 3677   2.912  37.261  14.814
38517W        W 3678   9.567  30.395   4.038
38518W        W 3679  19.130   4.228  13.885
38519W        W 3680   8.856  19.812  10.738
38520W        W 3681  41.615   0.837  13.390
38521W        W 3682  12.927   1.251   4.554
38522W        W 3683  10.094  24.049  10.703
38523W        W 3684   2.711  43.221  13.616
38524W        W 3685  35.413  29.716  12.415
38525W        W 3686  19.275  28.552  14.493
38526W        W 3687  19.587  12.360   1.406
38527W        W 3688   5.919  42.921   2.400
38528W        W 3689  29.552   5.027  14.093
38529W        W 3690  21.604  37.056  11.614
38530W        W 3691  29.503  10.530  12.601
38531W        W 3692  28.167   8.635  13.857
38532W        W 3693   3.371   4.462   2.197
38533W        W 3694  27.979  19.650  13.355
38534W        W 3695  32.206  25.551  12.813
38535W        W 3696  28.954   5.534   3.553
38536W        W 3697  25.410   0.614   2.618
38537W        W 3698   8.256   8.813   0.477
38538W        W 3699  21.826  30.532   3.293
38539W        W 3700  41.091  28.051  13.155
38540W        W 3701  31.020  28.658  12.230
38541W        W 3702  27.587  31.383   2.856
38542W        W 3703   2.895   4.846   0.435
38543W        W 3704  30.151  43.910  14.160
38544W        W 3705  43.411  36.332  12.264
38545W        W 3706  19.276  26.972   0.953
38546W        W 3707  17.753   5.263  12.691
38547W        W 3708  17.017  31.938   4.490
38548W        W 3709   6.860   7.659  11.055
38549W        W 3710  41.522  35.677  13.337
38550W        W 3711  37.087  39.514   1.854
38551W        W 3712   0.224  18.786  13.797
38552W        W 3713  31.707  21.969  14.314
38553W        W 3714   9.610  12.371  12.136
38554W        W 3715  14.306  42.985  11.176
38555W        W 3716  21.526   2.275  12.903
38556W        W 3717  36.282   9.937  11.297
38557W        W 3718  33.891  13.340  11.996
38558W        W 3719  24.024  23.063  12.255
38559W        W 3720  33.362  32.028  13.517
38560W        W 3721  22.606  16.086  14.546
38561W        W 3722  25.945  23.292   4.982
38562W        W 3723  15.797  21.223  12.324
38563W        W 3724  31.427  39.253  10.181
38564W        W 3725   2.343   6.201   0.427
38565W        W 3726  25.204  16.704   0.334
38566W        W 3727  11.834   3.824   2.286
38567W        W 3728  44.775  24.207  13.483
38568W        W 3729   1.174  24.266   1.825
38569W        W 3730  16.522   1.446   3.169
38570W        W 3731  29.417  31.461   2.149
38571W        W 3732   7.784  18.782   2.750
38572W        W 3733   6.182  20.193  11.545
38573W        W 3734  35.476  27.554   3.098
38574W        W 3735  25.427  44.292   5.282
38575W        W 3736  34.418   6.769  12.994
38576W        W 3737  29.343  32.984  13.448
38577W        W 3738  14.578  14.765   2.732
38578W        W 3739  34.164  13.250   4.272
38579W        W 3740  10.380  17.621  12.104
38580W        W 3741  22.035  35.531   1.716
38581W        W 3742  24.511  16.293   0.828
38582W        W 3743   5.924  10.720   1.318
38583W        W 3744   2.209  15.025   0.665
38584W        W 3745  10.802  33.931   1.940
38585W        W 3746  44.879  38.071  11.741
38586W        W 3747  31.146  41.067  13.317
38587W        W 3748  34.709  17.169   3.195
38588W        W 3749  15.565  32.326   1.003
38589W        W 3750  15.209  24.953  14.298
38590W        W 3751  19.167   6.216   0.978
38591W        W 3752   6.132  33.471   2.321
38592W        W 3753  23.869   8.221  11.736
38593W        W 3754  42.438   4.637  14.716
38594W        W 3755  37.586  31.180  14.049
38595W        W 3756  44.512  16.235   2.324
38596W        W 3757  25.463  29.367  12.289
38597W        W 3758  40.685  37.889   1.918
38598W        W 3759  12.375  11.901   2.393
38599W        W 3760   0.417  20.323  12.631
38600W        W 3761  10.299   8.899   4.177
38601W        W 3762   7.513   4.943  11.717
38602W        W 3763  16.252  44.322  14.782
38603W        W 3764  41.776  14.603  11.087
38604W        W 3765  23.031  17.135   1.193
38605W        W 3766   7.468  44.394   3.429
38606W        W 3767  11.634  15.701   0.288
38607W        W 3768  18.285   9.803   4.907
38608W        W 3769  37.618  24.035   3.131
38609W        W 3770  33.067  20.132  14.919
38610W        W 3771   9.115   1.618   4.166
38611W        W 3772  24.754   1.877  11.866
38612W        W 3773  37.940  40.339  11.394
38613W        W 3774  19.791  32.700   3.610
38614W        W 3775  24.116  30.871   0.968
38615W        W 3776  43.363   9.270  13.342
38616W        W 3777  10.092  12.043   0.852
38617W        W 3778   3.369   5.464   2.107
38618W        W 3779  43.490  25.027  14.829
38619W        W 3780  29.542  38.925  12.264
38620W        W 3781  35.592  35.649  13.392
38621W        W 3782  43.880  26.866  13.573
38622W        W 3783  15.351  15.244   0.359
38623W        W 3784  40.517  32.225   2.358
38624W        W 3785  28.904  32.673  13.447
38625W        W 3786  11.225  33.420   4.190
38626W        W 3787  11.721  35.896  14.756
38627W        W 3788  36.881  37.695  12.184
38628W        W 3789   1.939  13.302   1.715
38629W        W 3790  31.032  26.549  14.022
38630W        W 3791  22.792   5.658  12.604
38631W        W 3792  14.845  31.506   2.715
38632W        W 3793  16.189  31.330   2.789
38633W        W 3794  21.947  16.085  12.912
38634W        W 3795  25.137  36.348   2.657
38635W        W 3796  38.310  43.848  12.907
38636W        W 3797   3.406  25.905  14.078
38637W        W 3798  18.497   8.781   4.615
38638W        W 3799  15.606  25.506  12.210
38639W        W 3800  19.804  20.658  12.564
38640W        W 3801  26.557  43.005   1.054
38641W        W 3802  36.459  11.709   3.474
38642W        W 3803  31.357  26.618  14.438
38643W        W 3804  40.296   3.257  12.447
38644W        W 3805  34.350  15.768   0.339
38645W        W 3806  38.293  19.567   2.268
38646W        W 3807  26.633  16.790  11.089
38647W        W 3808  36.853   3.328  11.968
38648W        W 3809  39.917  44.308  13.358
38649W        W 3810  38.293  37.429  14.273
38650W        W 3811  30.371  37.033   3.242
38651W        W 3812   9.627  39.052  12.983
38652W        W 3813  38.272  29.727  12.429
38653W        W 3814   9.589  19.195  10.718
38654W        W 3815  28.222  34.030   2.771
38655W        W 3816  37.135  35.467  13.875
38656W        W 3817   9.245  34.183   0.689
38657W        W 3818  36.404  28.596   2.492
38658W        W 3819  19.138  15.824   1.481
38659W        W 3820  32.882  29.880  10.410
38660W        W 3821  35.964  11.256   4.941
38661W        W 3822  33.478   1.957  13.524
38662W        W 3823  41.491  10.147   3.250
38663W        W 3824  41.791  31.454   3.239
38664W        W 3825  14.119  40.928   3.622
38665W        W 3826  13.146  13.072  11.087
38666W        W 3827  44.725  44.255   1.421
38667W        W 3828  30.416   7.864   3.323
38668W        W 3829  38.910  18.038  12.511
38669W        W 3830  14.897  26.445   4.934
38670W        W 3831   9.145  23.948   1.754
38671W        W 3832  14.715  29.173   2.335
38672W        W 3833  23.150  30.502  10.575
38673W        W 3834  34.507  43.291   0.329
38674W        W 3835  16.912  11.345   1.001
38675W        W 3836  22.219   5.327  12.872
38676W        W 3837  30.211  13.165  13.868
38677W        W 3838  41.920  40.178   0.753
38678W        W 3839  15.619  27.537  10.718
38679W        W 3840  35.618  35.378   4.343
38680W        W 3841  19.517   8.353   1.057
38681W        W 3842  44.437   8.641  14.503
38682W        W 3843   3.430  41.871  13.397
38683W        W 3844   6.669  21.387   2.313
38684W        W 3845   7.656  39.902  14.010
38685W        W 3846  34.609  17.927   1.266
38686W        W 3847  25.562  34.371   0.265
38687W        W 3848  18.724  27.769  11.708
38688W        W 3849  19.756  19.084   3.079
38689W        W 3850  36.770  10.470  13.491
38690W        W 3851   0.031  40.934   4.167
38691W        W 3852  37.923  39.741  11.372
38692W        W 3853   0.234  34.101  14.884
38693W        W 3854  14.365  10.422  11.927
38694W        W 3855  17.730  12.316  13.773
38695W        W 3856   5.996   6.883   1.476
38696W        W 3857  44.256   6.819  12.198
38697W        W 3858  23.543   0.446   3.707
38698W        W 3859  32.681  44.002  14.244
38699W        W 3860  10.333  12.951  11.976
38700W        W 3861   8.893  38.806   3.579
38701W        W 3862  21.621  29.357  12.902
38702W        W 3863  22.633  18.036   0.819
38703W        W 3864   7.308  38.932  12.040
38704W        W 3865  12.738   0.725  13.910
38705W        W 3866  27.610  29.138   4.134
38706W        W 3867  37.459  21.982  10.698
38707W        W 3868   8.190  14.612   1.197
38708W        W 3869  13.222  29.083  14.822
38709W        W 3870  20.613  33.504  11.192
38710W        W 3871  37.735  27.664   2.325
38711W        W 3872  33.221  28.352  14.428
38712W        W 3873  43.150  19.971  12.067
38713W        W 3874   4.466  21.444  14.985
38714W        W 3875  13.826   1.947  12.075
38715W        W 3876  21.777  13.875   3.895
38716W        W 3877  16.088  26.639   0.807
38717W        W 3878  12.367  21.179   1.426
38718W        W 3879  22.086  34.312  12.490
38719W        W 3880  19.527   2.160   1.715
38720W        W 3881  39.887   4.738   4.585
38721W        W 3882  30.900  35.838  12.016
38722W        W 3883  42.060  34.961  12.009
38723W        W 3884   6.076  10.441  10.896
38724W        W 3885  12.821   6.340   4.626
38725W        W 3886  14.384  32.673  14.933
38726W        W 3887  35.365  41.856  14.314
38727W        W 3888   1.899  32.982   3.177
38728W        W 3889  43.485  22.291   2.418
38729W        W 3890  12.150   3.325   3.130
38730W        W 3891  37.065  40.889   0.577
38731W        W 3892  29.584  43.818  12.397
38732W        W 3893  33.316   0.163   1.198
38733W        W 3894  29.272  12.427   3.721
38734W        W 3895  37.014  43.393  11.412
38735W        W 3896   2.754  33.640  11.658
38736W        W 3897   5.348  36.526   2.377
38737W        W 3898   0.534   4.253   1.906
38738W        W 3899   2.352  34.106  12.952
38739W        W 3900   0.341  25.149  10.672
38740W        W 3901  26.245  31.993  12.114
38741W        W 3902   7.240  15.626  14.879
38742W        W 3903  16.071  21.733  11.189
38743W        W 3904  12.651  23.704  14.937
38744W        W 3905  29.431  16.707   3.314
38745W        W 3906  34.591   7.903  11.212
38746W        W 3907  39.777   8.364   3.238
38747W        W 3908  17.154  28.072  13.569
38748W        W 3909   1.923  19.362  11.159
38749W        W 3910   4.940  42.943   4.136
38750W        W 3911  21.647  39.782  14.870
38751W        W 3912  43.322   4.699   1.167
38752W        W 3913  40.821  19.933  14.102
38753W        W 3914  31.891  37.956   3.697
38754W        W 3915  25.497  33.366  14.999
38755W        W 3916  13.656  38.992  11.527
38756W        W 3917   3.434  26.433   2.589
38757W        W 3918  43.775  44.437   3.815
38758W        W 3919  21.513  12.877  10.984
38759W        W 3920  43.218   7.610  14.494
38760W        W 3921  17.218   0.734  12.156
38761W        W 3922  31.631  27.656   5.774
38762W        W 3923  35.947  27.038  13.186
38763W        W 3924  18.242   4.762  14.632
38764W        W 3925  44.612  40.627  12.595
38765W        W 3926  39.345  38.581  11.448
38766W        W 3927  39.554  44.231   0.094
38767W        W 3928   8.259  32.916   0.392
38768W        W 3929  23.916  29.637  12.920
38769W        W 3930  34.090  21.712   3.231
38770W        W 3931  27.986   9.463  13.560
38771W        W 3932  33.623  11.365   0.203
38772W        W 3933  15.496  24.196  14.082
38773W        W 3934  24.074  35.033  14.607
38774W        W 3935  11.093  40.148   4.252
38775W        W 3936  28.078  38.626  13.060
38776W        W 3937  10.401   2.733  10.756
38777W        W 3938  33.899  40.368   1.320
38778W        W 3939   9.278  39.805   1.947
38779W        W 3940  29.111  11.734  14.056
38780W        W 3941  10.321  41.200  10.626
38781W        W 3942  31.877  39.856  14.830
38782W        W 3943   3.716  10.329   4.064
38783W        W 3944  36.891  23.117  14.590
38784W        W 3945  16.781   8.874   1.685
38785W        W 3946  25.018  42.276  10.733
38786W        W 3947  33.859  16.307  12.012
38787W        W 3948   2.784  29.716  12.445
38788W        W 3949  30.962  44.923  10.984
38789W        W 3950  31.634   9.479  11.228
38790W        W 3951  24.803  23.217  10.309
38791W        W 3952  26.998  26.028  10.699
38792W        W 3953  33.258  17.836   3.631
38793W        W 3954  26.357  27.865   1.803
38794W        W 3955  41.377  25.568  10.989
38795W        W 3956  19.982   0.533  11.855
38796W        W 3957  44.483  18.766   0.661
38797W        W 3958  20.525  10.717  14.720
38798W        W 3959  39.556  17.232  11.698
38799W        W 3960  20.903  22.183   0.892
38800W        W 3961  26.074  12.458   4.044
38801W        W 3962  15.140  16.015  11.498
38802W        W 3963  33.170  15.870  13.083
38803W        W 3964  25.658  30.853   0.182
38804W        W 3965   5.521  30.021  11.645
38805W        W 3966   6.471  24.139   1.448
38806W        W 3967  13.893  27.569  11.234
38807W        W 3968  19.857  44.969   3.348
38808W        W 3969   8.790  29.325  14.449
38809W        W 3970  25.296  36.071   2.229
38810W        W 3971  37.536  39.611  14.313
38811W        W 3972  32.662   1.705   1.906
38812W        W 3973  29.801  33.020   3.648
38813W        W 3974   6.381  26.481   0.836
38814W        W 3975  13.778  39.337   1.402
38815W        W 3976  35.250  35.461   4.704
38816W        W 3977  20.599  41.792  12.064
38817W        W 3978  19.591  18.716  12.064
38818W        W 3979  35.127  34.253   3.725
38819W        W 3980  31.211  33.049   0.359
38820W        W 3981  11.457   4.443   1.700
38821W        W 3982   8.980  28.164  10.029
38822W        W 3983   5.224  37.444  12.821
38823W        W 3984   9.488  23.627  12.080
38824W        W 3985  24.534  38.830  12.229
38825W        W 3986  30.946  39.105   0.257
38826W        W 3987  16.417  34.860  13.930
38827W        W 3988   6.760  42.994  13.597
38828W        W 3989   5.557  27.628   3.969
38829W        W 3990   8.213  42.261   1.981
38830W        W 3991  33.405  19.386  11.193
38831W        W 3992  32.428  10.639   2.096
38832W        W 3993  22.151  36.401  12.566
38833W        W 3994   0.246  44.348  11.962
38834W        W 3995   3.420  19.986  13.977
38835W        W 3996  27.932  18.726  13.325
38836W        W 3997  16.283  38.885  14.356
38837W        W 3998  32.314  29.612   1.949
38838W        W 3999   8.162  41.893   0.912
38839W        W 4000   9.460  27.439  10.346
38840W        W 4001  32.917   2.251  11.724
38841W        W 4002  34.390  44.888  11.190
38842W        W 4003  42.832   5.442   1.503
38843W        W 4004  13.206  27.061   0.492
38844W        W 4005  19.007  21.339   9.850
38845W        W 4006   3.767  31.559  11.111
38846W        W 4007  29.544  14.245   1.274
38847W        W 4008  13.518  42.067   0.883
38848W        W 4009  19.527  13.423  11.077
38849W        W 4010  39.347  14.692  12.955
38850W        W 4011  43.986  36.857  14.827
38851W        W 4012   5.156  33.932   3.721
38852W        W 4013  29.266  41.064   4.278
38853W        W 4014   8.458   8.984  10.655
38854W        W 4015  23.837  16.501  14.896
38855W        W 4016  17.742  31.550  11.941
38856W        W 4017  38.975  38.651  13.349
38857W        W 4018  21.879  12.071  12.092
38858W        W 4019  22.252  38.369   1.369
38859W        W 4020  18.342  37.811  11.264
38860W        W 4021  35.967  17.052   1.394
38861W        W 4022  19.631   1.838   0.017
38862W        W 4023  43.535   5.135  11.122
38863W        W 4024  10.367  17.101   1.764
38864W        W 4025  21.991  34.016  12.077
38865W        W 4026   9.101   3.937  11.634
38866W        W 4027  44.388   7.732   0.877
38867W        W 4028   1.797  10.909   2.892
38868W        W 4029  43.999  35.676   9.942
38869W        W 4030  42.079  17.121   3.545
38870W        W 4031   4.508  44.420   0.841
38871W        W 4032  22.757  38.225   2.916
38872W        W 4033  21.591  25.157  12.561
38873W        W 4034  38.061  32.254   4.890
38874W        W 4035  30.833  16.594  14.967
38875W        W 4036  42.998  41.289  11.154
38876W        W 4037  32.403  42.841   2.734
38877W        W 4038  27.885  31.925  12.929
38878W        W 4039  13.162  35.652   0.803
38879W        W 4040  44.002  38.613   9.945
38880W        W 4041  15.799  10.564  13.117
38881W        W 4042  36.265  18.150  13.086
38882W        W 4043   8.859  11.880  13.392
38883W        W 4044  27.764  42.809  12.568
38884W        W 4045  11.502  30.085   1.225
38885W        W 4046  23.499  12.152  13.541
38886W        W 4047   9.193  38.001   4.613
38887W        W 4048  40.345  36.415   3.805
38888W        W 4049   2.861   9.310  12.001
38889W        W 4050  18.303  10.340  14.175
38890W        W 4051  26.914  18.609  11.996
38891W        W 4052  28.620   6.518   4.364
38892W        W 4053   4.189  30.364  13.045
38893W        W 4054  26.762  33.003  11.940
38894W        W 4055  28.036  12.865  12.014
38895W        W 4056  42.492  19.253  12.482
38896W        W 4057  26.708   7.863  11.610
38897W        W 4058   2.706  38.936  13.800
38898W        W 4059  10.545  15.512  13.103
38899W        W 4060  30.909  37.077  14.460
38900W        W 4061   2.584  21.601   2.258
38901W        W 4062  27.142  26.430   5.240
38902W        W 4063  22.006  12.292   3.222
38903W        W 4064   0.788  39.135  11.612
38904W        W 4065   2.969  41.506  13.893
38905W        W 4066  44.685  12.075  12.814
38906W        W 4067  30.443  22.062   2.808
38907W        W 4068   1.826   9.180  12.003
38908W        W 4069  41.599  13.338  10.798
38909W        W 4070  13.842   7.053  10.670
38910W        W 4071  41.310   7.366   4.805
38911W        W 4072  42.501  11.226  13.413
38912W        W 4073  23.741  18.146   1.423
38913W        W 4074  16.074   7.644  10.158
38914W        W 4075  29.455  10.929  12.933
38915W        W 4076  26.707  31.336  13.433
38916W        W 4077  22.315  30.605  12.822
38917W        W 4078  37.373  27.597   2.718
38918W        W 4079   8.780  16.561   0.422
38919W        W 4080   3.224  13.540   2.249
38920W        W 4081  34.830  28.752   4.091
38921W        W 4082   2.618  39.325  12.521
38922W        W 4083   3.749  32.924   1.801
38923W        W 4084  29.737  40.605  13.411
38924W        W 4085  31.062  12.356  11.459
38925W        W 4086  19.848  35.434  12.298
38926W        W 4087  21.568  35.610  12.443
38927W        W 4088  37.783  24.924   0.363
38928W        W 4089  42.376  38.845  13.905
38929W        W 4090  21.099   4.704  13.919
38930W        W 4091  11.664  32.494  12.293
38931W        W 4092  31.997  42.786   1.844
38932W        W 4093   8.887  44.573  13.857
38933W        W 4094   9.782   2.689  14.789
38934W        W 4095  36.586  15.758   3.082
38935W        W 4096  39.943   8.841   0.707
38936W        W 4097  14.796  40.808   9.512
38937W        W 4098  34.831   4.180   4.553
38938W        W 4099  36.972  24.629   2.384
38939W        W 4100  43.429  35.877  14.419
38940W        W 4101  41.757  22.749   0.834
38941W        W 4102  38.360  15.937   2.187
38942W        W 4103  22.533  30.048   2.847
38943W        W 4104  10.315  27.443   0.378
38944W        W 4105  43.643  12.760   3.918
38945W        W 4106  36.357  27.027  12.217
38946W        W 4107  42.508  41.492   3.538
38947W        W 4108  21.533   1.747   1.853
38948W        W 4109  20.582  11.829  14.110
38949W        W 4110  17.790  10.784   3.800
38950W        W 4111  33.524  40.378   3.497
38951W        W 4112  36.739  33.841  11.296
38952W        W 4113  27.271   5.335  14.991
38953W        W 4114  17.657  26.314  12.990
38954W        W 4115  44.332  14.835  11.598
38955W        W 4116  38.893  36.348   0.177
38956W        W 4117  36.434  12.976   3.058
38957W        W 4118  28.540  33.351   3.703
38958W        W 4119  13.367   5.297   1.184
38959W        W 4120  24.686  32.508  12.948
38960W        W 4121   8.452  43.323   2.808
38961W        W 4122   4.841  44.513   2.653
38962W        W 4123  38.784  41.655  10.750
38963W        W 4124  41.827   5.599   3.301
38964W        W 4125  10.318   9.613   1.876
38965W        W 4126  23.053  21.043   0.317
38966W        W 4127  34.803   1.687   5.051
38967W        W 4128  34.380   2.960  12.911
38968W        W 4129  16.073  22.041   2.651
38969W        W 4130  35.002  22.230   2.364
38970W        W 4131  39.728  20.993   5.239
38971W        W 4132  15.222   6.010   4.085
38972W        W 4133  17.845  38.569  13.391
38973W        W 4134  29.226   3.143   5.203
38974W        W 4135  19.196  19.300  11.110
38975W        W 4136   7.381   0.233   4.582
38976W        W 4137  32.899  37.824   1.950
38977W        W 4138  36.418  35.474   2.205
38978W        W 4139   3.686  27.818  11.153
38979W        W 4140  44.418  18.432   4.606
38980W        W 4141   2.517   9.852   2.123
38981W        W 4142   1.360  18.404   4.591
38982W        W 4143  29.056  43.856  14.397
38983W        W 4144  29.381  26.201  14.593
38984W        W 4145   8.783  30.109   2.731
38985W        W 4146   5.425   5.447  13.817
38986W        W 4147  16.169  14.756  11.694
38987W        W 4148   2.506  33.279  10.745
38988W        W 4149  21.365  27.565   3.133
38989W        W 4150  17.956   3.360   1.748
38990W        W 4151  19.533  37.220   3.077
38991W        W 4152  29.129  30.112   3.396
38992W        W 4153  21.482   7.794   1.297
38993W        W 4154   7.616   9.091   4.214
38994W        W 4155  32.049   6.088   1.456
38995W        W 4156   9.388  21.729  14.873
38996W        W 4157  27.907  29.604   2.199
38997W        W 4158  34.302  35.447  13.704
38998W        W 4159  38.482  28.691  13.990
38999W        W 4160  31.095   8.646  13.089
39000W        W 4161  23.140  21.766  11.218
39001W        W 4162   2.218  41.541  10.649
39002W        W 4163  35.534  15.195   4.769
39003W        W 4164   5.652  16.511   3.227
39004W        W 4165  38.950  13.903   1.477
39005W        W 4166  21.070  17.635   0.290
39006W        W 4167   5.572  10.616   2.745
39007W        W 4168  18.306   7.806  12.142
39008W        W 4169   4.213  39.375   3.021
39009W        W 4170  10.575  33.657   4.603
39010W        W 4171  21.024  42.008   1.188
39011W        W 4172  18.011  38.948  13.821
39012W        W 4173  12.107  23.089  10.705
39013W        W 4174  19.337  13.088   4.126
39014W        W 4175   4.680  30.825   1.222
39015W        W 4176  12.457  39.987  13.362
39016W        W 4177  12.444  12.346   1.459
39017W        W 4178  14.584  42.983   2.452
39018W        W 4179  18.317  16.267   2.253
39019W        W 4180  25.174  44.394   3.855
39020W        W 4181  41.802   2.751   4.147
39021W        W 4182  38.084  27.172  11.555
39022W        W 4183  41.589   7.892  14.005
39023W        W 4184  10.705  23.707   4.481
39024W        W 4185  39.882   0.857  13.853
39025W        W 4186  22.155   0.332  12.080
39026W        W 4187  20.941  29.644   4.585
39027W        W 4188  10.650  19.714   4.943
39028W        W 4189   5.091  39.369  11.153
39029W        W 4190  21.269  13.396  14.288
39030W        W 4191   0.828   1.700  11.733
39031W        W 4192   4.163  25.007   0.241
39032W        W 4193   8.143  14.350   1.638
39033W        W 4194  39.472   4.403  14.281
39034W        W 4195  16.158   8.938  10.650
39035W        W 4196  31.461   8.398   4.437
39036W        W 4197   5.947  44.210   3.121
39037W        W 4198  28.893   8.650  12.948
39038W        W 4199  19.147  19.426  13.865
39039W        W 4200  39.488  35.359  11.251
39040W        W 4201  18.783   9.958   0.425
39041W        W 4202  44.294  44.550   1.543
39042W        W 4203  38.345  15.731   1.713
39043W        W 4204   7.295   0.910  12.399
39044W        W 4205   4.435  20.177  14.308
39045W        W 4206  31.614  16.429  13.507
39046W        W 4207  19.060   8.464   2.373
39047W        W 4208  27.042  37.381  11.132
39048W        W 4209  36.010  22.461  12.122
39049W        W 4210  39.256  16.165   0.856
39050W        W 4211  36.314  25.996  11.983
39051W        W 4212  17.318  28.864   3.310
39052W        W 4213  18.750  38.910  14.314
39053W        W 4214  38.799  32.429  13.384
39054W        W 4215   5.308  34.455   0.568
39055W        W 4216  20.532  21.672   2.826
39056W        W 4217  23.402  11.933  11.760
39057W        W 4218  42.476   2.415   4.373
39058W        W 4219  14.689  39.664  11.888
39059W        W 4220  36.382  38.376   3.278
39060W        W 4221  17.401  30.091   0.973
39061W        W 4222   3.353  37.958  11.935
39062W        W 4223   9.436  36.265   4.889
39063W        W 4224   6.056  16.607   0.984
39064W        W 4225  20.923  43.683   3.289
39065W        W 4226  37.641  17.776  13.151
39066W        W 4227  18.277  26.084   4.771
39067W        W 4228  44.422  35.511  14.981
39068W        W 4229  44.956  42.293   2.354
39069W        W 4230  32.494  44.867  12.423
39070W        W 4231   0.539  13.976   4.758
39071W        W 4232  42.463  32.227  13.004
39072W        W 4233  26.637  35.542  13.517
39073W        W 4234  30.231  20.100   2.722
39074W        W 4235  30.318  24.926   1.234
39075W        W 4236  35.563   6.284   1.353
39076W        W 4237  30.478  41.639  11.213
39077W        W 4238   5.251  40.919  13.504
39078W        W 4239  27.183   8.196   4.803
39079W        W 4240  31.589  31.556  13.064
39080W        W 4241  17.170  35.552   4.547
39081W        W 4242  34.120  39.801  13.440
39082W        W 4243  15.777  18.259  11.130
39083W        W 4244   9.872  43.507  10.511
39084W        W 4245  38.895  25.446   4.074
39085W        W 4246  14.844  16.466   4.255
39086W        W 4247  27.619  21.211   0.695
39087W        W 4248  15.056  16.123  12.577
39088W        W 4249   3.875  28.616  12.448
39089W        W 4250  34.820  38.378  14.538
39090W        W 4251   6.203  11.445  10.070
39091W        W 4252  40.865  14.376  11.293
39092W        W 4253  12.111  32.961  14.664
39093W        W 4254   4.933  31.142   2.347
39094W        W 4255  14.778  30.168   4.113
39095W        W 4256  33.937  14.921  13.649
39096W        W 4257  28.847  31.525   3.967
39097W        W 4258  20.111  35.618  13.730
39098W        W 4259   5.389  39.959   2.123
39099W        W 4260  41.988   8.711  11.543
39100W        W 4261  35.176   1.013   4.028
39101W        W 4262  30.677  18.423  14.517
39102W        W 4263   3.873   4.985   1.911
39103W        W 4264  14.979   1.946   2.769
39104W        W 4265  10.804  18.888  11.537
39105W        W 4266  44.277  44.897  14.997
39106W        W 4267  21.270  16.398  11.687
39107W        W 4268   4.724  13.900   5.316
39108W        W 4269  17.880   9.929  11.846
39109W        W 4270  21.420  41.915  14.330
39110W        W 4271  19.617   9.718   2.877
39111W        W 4272  13.911  15.363   3.249
39112W        W 4273   7.861  29.554  13.331
39113W        W 4274  23.969  41.367  12.074
39114W        W 4275  25.157   3.507  13.868
39115W        W 4276   9.411  36.477  12.545
39116W        W 4277  16.266  19.644  12.383
39117W        W 4278  16.841   0.991  10.638
39118W        W 4279   4.037   3.874  12.284
39119W        W 4280  17.678  29.300   4.389
39120W        W 4281  28.575   4.959   3.160
39121W        W 4282   6.682  17.230   1.378
39122W        W 4283  27.628  44.813  11.957
39123W        W 4284  11.926   4.428  13.874
39124W        W 4285  16.963   6.689  13.390
39125W        W 4286  38.967   5.836   4.552
39126W        W 4287  13.147  27.706   0.012
39127W        W 4288  38.654  18.124  12.952
39128W        W 4289  36.142  42.966   4.212
39129W        W 4290  29.048  21.134   0.897
39130W        W 4291  34.382  43.833   0.302
39131W        W 4292  32.762   5.396  14.332
39132W        W 4293   8.332  33.143  11.581
39133W        W 4294  39.750   9.141  12.531
39134W        W 4295   1.530  34.367  11.161
39135W        W 4296  28.773  30.985   2.536
39136W        W 4297  21.220  42.753   1.921
39137W        W 4298  10.313  12.670   4.771
39138W        W 4299   5.922  17.086   2.223
39139W        W 4300  44.426   8.513   1.596
39140W        W 4301  15.510  38.969   4.111
39141W        W 4302  30.230  27.883   2.515
39142W        W 4303  11.788   4.726  12.319
39143W        W 4304  25.470   0.644   3.771
39144W        W 4305  36.104  23.347   4.531
39145W        W 4306   1.852  29.025   4.009
39146W        W 4307  21.780  27.843   3.857
39147W        W 4308  20.964  28.377   4.170
39148W        W 4309  27.347  42.288  11.066
39149W        W 4310   6.077   3.441  14.962
39150W        W 4311  13.258  19.621  13.953
39151W        W 4312  23.433  12.619  13.311
39152W        W 4313   7.911   9.338  11.781
39153W        W 4314  40.398  32.388   4.165
39154W        W 4315  30.922  20.326   0.781
39155W        W 4316  36.469   4.220   2.171
39156W        W 4317  19.500  17.717   5.071
39157W        W 4318  17.624  37.937   3.869
39158W        W 4319   9.960  20.061  12.792
39159W        W 4320  39.378  26.379  10.518
39160W        W 4321  28.111  27.081  13.085
39161W        W 4322  24.142   2.159  12.397
39162W        W 4323  28.468  19.718   2.303
39163W        W 4324   2.755   2.754   0.847
39164W        W 4325   5.879   1.410  14.175
39165W        W 4326  41.856  43.018   9.794
39166W        W 4327  16.153  17.669  10.492
39167W        W 4328   8.208  31.451  12.513
39168W        W 4329   9.972   5.673  12.414
39169W        W 4330   3.216  43.794   2.349
39170W        W 4331  13.334  29.680  12.503
39171W        W 4332  22.613  11.030   4.205
39172W        W 4333  14.652  24.348   4.075
39173W        W 4334  18.672  40.654  13.044
39174W        W 4335  31.443  10.405  10.691
39175W        W 4336  12.410  39.296   2.754
39176W        W 4337  44.388  21.672   2.329
39177W        W 4338  44.817  11.699  11.109
39178W        W 4339  43.976  16.211  12.859
39179W        W 4340  20.750  36.955  10.759
39180W        W 4341  19.555  42.091   0.343
39181W        W 4342  26.777  10.636  12.536
39182W        W 4343  20.383  22.205   5.410
39183W        W 4344  44.322   5.407  12.035
39184W        W 4345  42.460  16.690   0.755
39185W        W 4346  35.428   3.171  10.606
39186W        W 4347  16.286  20.148   4.501
39187W        W 4348  30.861  28.613  10.661
39188W        W 4349  22.721  32.476  11.031
39189W        W 4350  43.491  19.696   4.612
39190W        W 4351  34.502  43.879  14.806
39191W        W 4352  20.838   5.266   1.407
39192W        W 4353  35.507  31.908   3.421
39193W        W 4354  41.594  18.163  13.002
39194W        W 4355   9.698   9.266   4.640
39195W        W 4356  28.642  35.486   0.984
39196W        W 4357  30.916  18.869  14.347
39197W        W 4358  42.592  36.432   2.081
39198W        W 4359   6.617  28.618   4.263
39199W        W 4360  32.024  28.016  10.183
39200W        W 4361  29.183  31.145  13.298
39201W        W 4362  25.535  16.852   1.136
39202W        W 4363   0.306  37.510  14.559
39203W        W 4364  12.694  11.567   3.296
39204W        W 4365  41.538  14.182  12.550
39205W        W 4366  16.572  10.314   3.860
39206W        W 4367  36.555  18.277  14.473
39207W        W 4368   6.390  21.275   4.486
39208W        W 4369  27.062  29.817  14.849
39209W        W 4370  34.256   5.626   1.033
39210W        W 4371  38.046   1.951  12.988
39211W        W 4372  39.552  24.667   1.542
39212W        W 4373  37.694   8.253  11.953
39213W        W 4374  18.638   6.702   0.046
39214W        W 4375  17.208   4.793  14.939
39215W        W 4376  37.947  18.703  10.385
39216W        W 4377  39.896  12.843  14.098
39217W        W 4378  30.376  18.189  10.510
39218W        W 4379  14.973   3.235  13.581
39219W        W 4380   7.278  14.594   4.913
39220W        W 4381  39.278   8.244   3.276
39221W        W 4382  36.246   9.799   4.874
39222W        W 4383  15.412  21.473   2.886
39223W        W 4384  18.506  20.029   2.412
39224W        W 4385  42.200   5.084   4.602
39225W        W 4386  36.839  35.744   2.439
39226W        W 4387  17.027  38.275   9.793
39227W        W 4388  22.832  21.099  11.959
39228W        W 4389  15.838  38.003   0.421
39229W        W 4390   2.020   0.402   1.816
39230W        W 4391  44.521  23.193   0.650
39231W        W 4392   3.407  10.053  10.248
39232W        W 4393  24.571  32.058   3.874
39233W        W 4394   1.904  43.377   4.691
39234W        W 4395  18.608  38.893  12.918
39235W        W 4396   8.150  34.875  11.962
39236W        W 4397   9.621  11.811   0.829
39237W        W 4398  34.096  34.614  11.916
39238W        W 4399  32.991   6.645   0.396
39239W        W 4400  18.817   9.290   3.798
39240W        W 4401   3.395  28.359   2.121
39241W        W 4402  26.612  15.282   4.181
39242W        W 4403   9.719  36.303   2.676
39243W        W 4404  32.708  44.483  12.952
39244W        W 4405  10.066  42.756  14.244
39245W        W 4406  23.228  33.481   1.450
39246W        W 4407   7.953  40.483  11.367
39247W        W 4408  29.900  23.692   1.743
39248W        W 4409  41.992  29.878  13.993
39249W        W 4410  23.650  27.126   1.617
39250W        W 4411   7.725   8.085   3.940
39251W        W 4412  24.745  41.404   1.791
39252W        W 4413  34.991  31.082   4.276
39253W        W 4414  21.785  42.918   4.546
39254W        W 4415   8.483  21.485  13.445
39255W        W 4416  43.465  12.963   2.647
39256W        W 4417  32.558  39.861   5.579
39257W        W 4418  10.616   3.406   1.206
39258W        W 4419   0.432  19.214   2.825
39259W        W 4420  24.942   1.463  14.808
39260W        W 4421  13.279  13.321  10.629
39261W        W 4422  16.798   1.934   1.435
39262W        W 4423   7.133  25.062   2.824
39263W        W 4424  24.245  16.307  13.413
39264W        W 4425  33.869  14.264  11.011
39265W        W 4426  21.698  11.234  13.446
39266W        W 4427  13.058  11.198  12.930
39267W        W 4428  16.305  26.636   3.969
39268W        W 4429  42.272  30.289  13.817
39269W        W 4430   3.863  30.163   3.366
39270W        W 4431   1.433   7.893  12.072
39271W        W 4432  19.593   7.594   3.956
39272W        W 4433  34.752   0.274   3.463
39273W        W 4434   1.241  12.247   1.423
39274W        W 4435  34.176  38.870   0.481
39275W        W 4436  29.411  37.218  13.814
39276W        W 4437  10.123  12.345  12.793
39277W        W 4438  31.630  36.311   3.286
39278W        W 4439  37.470   5.964  13.647
39279W        W 4440  16.216  35.562   4.649
39280W        W 4441  28.569  19.223  10.643
39281W        W 4442  21.440  18.324  12.073
39282W        W 4443  43.596  28.531   4.163
39283W        W 4444   7.587   1.819   9.999
39284W        W 4445   9.911  15.593   1.721
39285W        W 4446  27.901   5.605  14.107
39286W        W 4447  10.546  34.974   1.405
39287W        W 4448   8.446  26.459  12.033
39288W        W 4449  28.188  11.729   1.837
39289W        W 4450  32.428  40.412   1.493
39290W        W 4451   9.408  22.257  14.717
39291W        W 4452  20.574  29.093   3.770
39292W        W 4453  35.650  12.152   4.539
39293W        W 4454  10.320  30.243  11.169
39294W        W 4455  14.230  26.143  13.632
39295W        W 4456  11.149  42.067  11.134
39296W        W 4457  39.928  32.201  13.335
39297W        W 4458  39.319  16.984  13.197
39298W        W 4459  41.789  16.272  11.534
39299W        W 4460  29.145  33.063   4.588
39300W        W 4461  13.567  23.138   4.586
39301W        W 4462   0.207  28.494  10.844
39302W        W 4463  38.538  13.633  11.993
39303W        W 4464   0.714  22.855   2.719
39304W        W 4465  41.712  10.833   1.784
39305W        W 4466   0.361  11.943  11.398
39306W        W 4467  35.094  36.002  12.470
39307W        W 4468   5.232  21.250  13.486
39308W        W 4469  41.426  21.458  11.946
39309W        W 4470  37.299   4.192  12.607
39310W        W 4471   0.513  12.662   1.759
39311W        W 4472  35.103  36.384   2.714
39312W        W 4473  28.376   8.280  10.499
39313W        W 4474   4.306  13.629   5.437
39314W        W 4475  38.920  27.580  12.454
39315W        W 4476  20.169   0.549   4.239
39316W        W 4477  26.125  23.633  10.671
39317W        W 4478  20.107   2.825  10.887
39318W        W 4479  14.796  42.055  11.513
39319W        W 4480  17.841  13.061  11.083
39320W        W 4481   6.519   2.524  12.746
39321W        W 4482  39.491   9.412  12.893
39322W        W 4483  10.136  38.594  10.129
39323W        W 4484  40.421  18.720   3.472
39324W        W 4485  29.438  13.281   3.828
39325W        W 4486  24.262  15.142   3.263
39326W        W 4487   4.194  39.317  10.652
39327W        W 4488   5.265  25.800   2.407
39328W        W 4489  26.034  41.913   0.801
39329W        W 4490  34.404  32.141   0.364
39330W        W 4491  15.819  16.556  14.316
39331W        W 4492  22.477  16.512  12.355
39332W        W 4493  27.251  19.629   3.229
39333W        W 4494   1.911  18.039   1.838
39334W        W 4495  12.690   1.436   1.764
39335W        W 4496  10.705  29.431  12.121
39336W        W 4497  15.269  35.723   3.279
39337W        W 4498  25.439  25.484  14.916
39338W        W 4499  18.162  43.116  14.184
39339W        W 4500  34.043  10.768  14.435
39340W        W 4501   8.331  17.032  14.319
39341W        W 4502  13.180   1.200   1.746
39342W        W 4503  12.269   3.751   4.680
39343W        W 4504  20.562  31.155   1.499
39344W        W 4505   4.245  17.521  12.252
39345W        W 4506  17.490   2.456  12.020
39346W        W 4507   9.045   5.175  11.098
39347W        W 4508   8.176  13.714   2.320
39348W        W 4509  11.805   0.566   0.821
39349W        W 4510  23.711   1.163   2.177
39350W        W 4511   7.979  37.871  12.004
39351W        W 4512   3.015  11.379  11.478
39352W        W 4513  13.859  25.598  10.685
39353W        W 4514  12.432  18.081  12.096
39354W        W 4515  30.780  24.594  10.444
39355W        W 4516  14.916  33.018  12.538
39356W        W 4517   0.285   2.431  10.633
39357W        W 4518  28.953  21.361  11.152
39358W        W 4519  34.964  11.090   3.713
39359W        W 4520   9.413   5.778   3.988
39360W        W 4521  42.786  21.509   2.494
39361W        W 4522  35.268   8.267  13.067
39362W        W 4523  31.185   2.432   0.438
39363W        W 4524   9.256  17.644   2.209
39364W        W 4525  18.366  43.753  12.249
39365W        W 4526  43.636   6.198  11.186
39366W        W 4527  23.043  35.120   4.014
39367W        W 4528  39.814  36.703   2.285
39368W        W 4529  29.133  38.822  10.612
39369W        W 4530   5.804  16.731  11.636
39370W        W 4531  19.202  39.473   5.440
39371W        W 4532  40.079  35.496  13.432
39372W        W 4533   3.291  38.034  11.040
39373W        W 4534  14.429  13.713  10.464
39374W        W 4535  19.305  12.692  11.430
39375W        W 4536  40.267  29.476   4.017
39376W        W 4537  20.117  28.488  11.570
39377W        W 4538   0.667  26.068   2.852
39378W        W 4539  20.839  34.520   3.613
39379W        W 4540   9.900  43.301   0.434
39380W        W 4541  17.447   0.721  11.678
39381W        W 4542  21.521  34.566  11.646
39382W        W 4543  36.007  29.184   1.684
39383W        W 4544  14.096   6.957  11.177
39384W        W 4545  25.919  16.576   3.665
39385W        W 4546   6.185  43.843   0.127
39386W        W 4547  19.266  14.833  14.724
39387W        W 4548  26.175  18.298   4.406
39388W        W 4549   2.878   6.286  14.028
39389W        W 4550   8.881  19.551   3.227
39390W        W 4551  23.082   3.730   2.386
39391W        W 4552  24.556   4.348  14.715
39392W        W 4553  30.484  41.444  12.225
39393W        W 4554   8.062  27.181   2.202
39394W        W 4555   1.166   7.790   4.397
39395W        W 4556  14.442   2.849  10.479
39396W        W 4557  37.092  16.746  12.618
39397W        W 4558  43.567  43.836  14.112
39398W        W 4559   3.731  38.301  11.207
39399W        W 4560  44.422  37.286   2.231
39400W        W 4561  35.374  21.010   3.185
39401W        W 4562  26.148  22.133   2.176
39402W        W 4563  24.062  24.951   1.619
39403W        W 4564  10.578  36.665   4.201
39404W        W 4565  44.778  11.293   2.256
39405W        W 4566  20.341   9.796   2.609
39406W        W 4567  16.507  38.106   1.408
39407W        W 4568  35.898  20.190   2.803
39408W        W 4569  20.008  38.270  12.577
39409W        W 4570  23.187  20.267  13.775
39410W        W 4571   2.468   8.691   0.423
39411W        W 4572  21.691   3.716  10.985
39412W        W 4573  15.376  44.886   0.939
39413W        W 4574  18.308  32.325   4.475
39414W        W 4575  32.982  24.657   2.727
39415W        W 4576  29.043  21.680  13.420
39416W        W 4577   3.721  35.485   0.296
39417W        W 4578  17.271   1.735   2.584
39418W        W 4579  16.616   7.700  14.042
39419W        W 4580  18.231  14.415   0.478
39420W        W 4581  32.437   8.730  13.326
39421W        W 4582   5.486   5.162   3.218
39422W        W 4583  30.754  17.812   2.394
39423W        W 4584  42.247  15.101   1.533
39424W        W 4585  30.108  16.744   3.834
39425W        W 4586  41.821  19.548   0.692
39426W        W 4587  23.650  30.729   2.768
39427W        W 4588  29.626  14.813  12.823
39428W        W 4589  34.517  14.815   1.333
39429W        W 4590  41.000  23.272   4.735
39430W        W 4591  25.434  25.042  12.134
39431W        W 4592  25.107   6.193   0.495
39432W        W 4593   8.837  32.119  13.425
39433W        W 4594   4.075  22.611  10.391
39434W        W 4595  20.157  44.871  10.606
39435W        W 4596  40.454  21.262   0.749
39436W        W 4597  37.793  20.745  10.844
39437W        W 4598  26.645   2.373  12.978
39438W        W 4599  33.768  31.078  11.201
39439W        W 4600   0.880   8.747   2.203
39440W        W 4601  44.009  24.697  13.996
39441W        W 4602  18.325  43.943   3.314
39442W        W 4603  26.856  25.464  11.508
39443W        W 4604   3.911  36.665   0.502
39444W        W 4605  44.031   9.174  14.070
39445W        W 4606  39.472  32.752  12.067
39446W        W 4607   2.259   2.535  13.902
39447W        W 4608  36.046  24.586   4.676
39448W        W 4609  42.970  17.461  13.637
39449W        W 4610  37.575  14.148   1.694
39450W        W 4611  39.032  44.806   0.362
39451W        W 4612   7.257  19.328  10.589
39452W        W 4613  31.875  31.197   2.220
39453W        W 4614  38.898  25.161  12.954
39454W        W 4615   8.878  26.699   1.927
39455W        W 4616  12.830  18.673  10.596
39456W        W 4617  19.808  14.244  14.265
39457W        W 4618  32.410   3.416   0.336
39458W        W 4619  39.432   2.036  10.730
39459W        W 4620  19.577  19.994   3.739
39460W        W 4621  25.226   5.807  13.434
39461W        W 4622  15.333  42.074   4.149
39462W        W 4623  16.317  25.767  10.727
39463W        W 4624  33.655  41.630   1.897
39464W        W 4625  14.916  14.782   4.818
39465W        W 4626  41.822  37.640  14.953
39466W        W 4627  21.528  10.585   2.441
39467W        W 4628  40.566  23.997  11.269
39468W        W 4629  29.534  44.440   1.393
39469W        W 4630   4.375  11.321  13.536
39470W        W 4631  23.724  13.118  13.048
39471W        W 4632   7.249  34.048  13.312
39472W        W 4633   1.201   3.799  13.339
39473W        W 4634  29.397  14.204   0.117
39474W        W 4635   5.386  17.583   1.543
39475W        W 4636   7.778  44.199   2.544
39476W        W 4637   8.698   1.818   1.445
39477W        W 4638   1.270  17.599   1.285
39478W        W 4639   3.868  18.713   3.164
39479W        W 4640   4.858  29.128   2.236
39480W        W 4641  28.921   9.709   1.691
39481W        W 4642  15.692  26.092  14.510
39482W        W 4643  15.848  31.603  11.268
39483W        W 4644   8.510  14.191  14.348
39484W        W 4645  23.067  38.852   3.136
39485W        W 4646   2.825  18.980   4.432
39486W        W 4647  18.633  33.621  10.262
39487W        W 4648  37.370  25.042   3.690
39488W        W 4649   7.231  20.195  11.122
39489W        W 4650  24.315  19.177  14.551
39490W        W 4651  21.695   5.056   1.975
39491W        W 4652   2.359  40.946   4.674
39492W        W 4653  28.094  33.146   0.737
39493W        W 4654   7.887  40.238   3.084
39494W        W 4655  31.514  43.200  13.713
39495W        W 4656   5.214  32.832  10.462
39496W        W 4657  22.875  27.369   4.876
39497W        W 4658  21.409  27.361  14.377
39498W        W 4659   4.746  22.563   0.035
39499W        W 4660  21.326  14.967  11.871
39500W        W 4661  40.494  19.172   3.788
39501W        W 4662  17.692   7.342  10.714
39502W        W 4663   2.282  31.136   2.810
39503W        W 4664  14.299   7.265  10.776
39504W        W 4665  29.069  15.330   2.055
39505W        W 4666  19.047  35.432  11.962
39506W        W 4667  39.942  24.795   2.292
39507W        W 4668   5.179  35.298   2.527
39508W        W 4669  13.058  17.247  13.338
39509W        W 4670  11.036   6.624  12.917
39510W        W 4671  44.502   5.801   0.572
39511W        W 4672  44.047   9.195   4.260
39512W        W 4673   5.958  32.254   3.183
39513W        W 4674  41.119  21.485  12.985
39514W        W 4675  36.138  37.052   2.192
39515W        W 4676  41.442  19.222  13.877
39516W        W 4677  15.731  35.483  11.246
39517W        W 4678  12.000   0.794   1.248
39518W        W 4679  22.986  38.771  10.329
39519W        W 4680   4.323  30.927   0.544
39520W        W 4681  13.695   5.647  10.959
39521W        W 4682   1.276  14.598  14.387
39522W        W 4683  26.881  35.054   1.330
39523W        W 4684   0.125   9.174   1.929
39524W        W 4685  11.144  30.446   1.232
39525W        W 4686  35.692  37.840  14.120
39526W        W 4687  38.984  27.051  12.532
39527W        W 4688  18.734  22.131  12.861
39528W        W 4689  11.886  17.078   1.369
39529W        W 4690  22.513   4.212  13.843
39530W        W 4691  10.197  33.286   2.353
39531W        W 4692  43.754   1.889  11.187
39532W        W 4693  29.681  43.100  13.315
39533W        W 4694  39.833  11.342  12.254
39534W        W 4695   6.836  10.357  14.367
39535W        W 4696  27.607  42.614   0.380
39536W        W 4697  22.568   8.200  11.549
39537W        W 4698  44.300  36.928   3.872
39538W        W 4699  11.186  20.535  12.149
39539W        W 4700  34.660   9.806  13.875
39540W        W 4701  17.175  26.040   1.813
39541W        W 4702   9.780  18.935   2.030
39542W        W 4703  36.461  21.528  14.219
39543W        W 4704  31.234  16.893  12.390
39544W        W 4705   8.228  20.039  13.656
39545W        W 4706   9.238  26.664   2.339
39546W        W 4707  25.309  19.648   4.756
39547W        W 4708  38.519   9.293   2.935
39548W        W 4709  42.791  42.320  10.959
39549W        W 4710   4.362  27.947  14.014
39550W        W 4711  21.488  37.244   0.257
39551W        W 4712  33.955  17.316  12.780
39552W        W 4713  26.216  31.537   0.389
39553W        W 4714  41.543  29.069  12.930
39554W        W 4715   8.884  28.991  11.629
39555W        W 4716  30.548  36.178   2.822
39556W        W 4717  22.101  21.183  13.379
39557W        W 4718   9.394   7.975   4.843
39558W        W 4719  11.977   6.207   0.843
39559W        W 4720   2.992   7.508  11.715
39560W        W 4721  18.285   3.760   3.654
39561W        W 4722   0.742   7.416   1.787
39562W        W 4723  18.136  27.000  10.658
39563W        W 4724  30.041   3.230   2.832
39564W        W 4725  13.753   5.595   3.298
39565W        W 4726  23.596  21.268  12.421
39566W        W 4727   0.412  34.614  14.429
39567W        W 4728   2.648  24.749   2.319
39568W        W 4729  15.600  20.181   3.131
39569W        W 4730  19.161  22.159  10.414
39570W        W 4731  21.577  25.564   3.726
39571W        W 4732  43.312  35.776  11.681
39572W        W 4733   1.053  38.804   3.202
39573W        W 4734  16.156  29.595   2.254
39574W        W 4735  41.400  40.287   2.289
39575W        W 4736   9.306  28.939   1.980
39576W        W 4737  40.048  13.294  12.969
39577W        W 4738  26.976  40.364   3.238
39578W        W 4739  15.725  14.610  10.848
39579W        W 4740  43.032  30.541  12.874
39580W        W 4741  29.526  27.426  12.784
39581W        W 4742  13.386  33.055  11.449
39582W        W 4743  38.873  36.416  10.987
39583W        W 4744  38.850  13.687  12.934
39584W        W 4745  28.052   0.231   4.316
39585W        W 4746   3.982  24.222  14.016
39586W        W 4747  16.254  44.663   5.312
39587W        W 4748  23.471  12.653  14.916
39588W        W 4749  14.512  41.502  13.140
39589W        W 4750  17.550  24.619  13.049
39590W        W 4751   9.146  31.160  14.998
39591W        W 4752  14.136  44.504   3.179
39592W        W 4753  12.823  12.380   2.720
39593W        W 4754   9.576   1.345   2.253
39594W        W 4755  14.385  15.884  14.989
39595W        W 4756   7.034  21.745  13.190
39596W        W 4757   1.650  32.120   1.555
39597W        W 4758  17.925  29.494   3.390
39598W        W 4759  17.796  36.941  11.012
39599W        W 4760  34.126  14.686  14.968
39600W        W 4761  41.437  18.268   0.934
39601W        W 4762  22.002  19.554   2.318
39602W        W 4763   6.201  19.278  11.944
39603W        W 4764  16.315  20.669   4.167
39604W        W 4765   0.222   4.480  11.017
39605W        W 4766   5.337  36.018  13.013
39606W        W 4767  20.093  14.510   4.544
39607W        W 4768  28.101  33.114   5.109
39608W        W 4769  24.021  44.377   1.367
39609W        W 4770   8.436  17.882  13.102
39610W        W 4771  24.470  36.006   2.721
39611W        W 4772  18.584  29.119  11.961
39612W        W 4773  14.437   4.275  12.895
39613W        W 4774  20.515   2.547  12.257
39614W        W 4775   0.836   1.141  14.496
39615W        W 4776  29.036  13.807  12.611
39616W        W 4777  41.701  43.718  12.597
39617W        W 4778  22.564  39.313   0.360
39618W        W 4779  10.704   6.964   4.404
39619W        W 4780  37.119  26.996  14.063
39620W        W 4781   4.097   1.229   0.459
39621W        W 4782  29.062  15.830  10.523
39622W        W 4783   1.302  10.933  13.515
39623W        W 4784  22.683  28.577  12.166
39624W        W 4785   5.225   3.386   4.141
39625W        W 4786  41.739  27.507  13.219
39626W        W 4787  15.075  40.999  11.267
39627W        W 4788  37.858  36.470   0.269
39628W        W 4789   4.950  19.209   3.749
39629W        W 4790  27.642  22.168  12.224
39630W        W 4791  36.093  19.028   3.304
39631W        W 4792   2.812   2.141   3.802
39632W        W 4793  16.107  25.154  14.442
39633W        W 4794  27.477  24.652  13.915
39634W        W 4795  43.804  15.722   2.816
39635W        W 4796   0.135  34.902   4.830
39636W        W 4797  33.767  35.039  12.039
39637W        W 4798  30.650  44.164   0.766
39638W        W 4799  16.795  24.358   3.984
39639W        W 4800  31.357  17.882   0.019
39640W        W 4801  21.351   8.708  11.661
39641W        W 4802  13.632  35.113  12.887
39642W        W 4803   4.796  30.453  14.609
39643W        W 4804  33.861  23.227   4.840
39644W        W 4805  19.960   3.948  14.279
39645W        W 4806  19.497   4.365  12.079
39646W        W 4807  36.480  29.714  11.113
39647W        W 4808  14.595   9.410   2.119
39648W        W 4809  22.539  19.172  14.750
39649W        W 4810  38.025  43.485   3.737
39650W        W 4811   1.512  25.958   1.369
39651W        W 4812  38.968   7.371   2.829
39652W        W 4813  21.706   9.299  10.911
39653W        W 4814  29.550  17.198  13.232
39654W        W 4815  23.005   5.924  13.041
39655W        W 4816  18.183  31.795   1.278
39656W        W 4817  26.578  15.787   0.960
39657W        W 4818  12.286  17.269  13.735
39658W        W 4819  21.658  16.059  13.598
39659W        W 4820  37.164  43.946   2.791
39660W        W 4821  22.030   9.069  11.216
39661W        W 4822  18.787  38.385   3.734
39662W        W 4823  24.006  28.014   4.266
39663W        W 4824  17.109   6.934  13.856
39664W        W 4825   5.592  31.486  13.432
39665W        W 4826  36.018  16.868  14.952
39666W        W 4827  24.599  40.904  14.998
39667W        W 4828  12.911  20.111   4.170
39668W        W 4829   8.607   0.901   5.002
39669W        W 4830   6.273   8.874   4.279
39670W        W 4831  18.097  21.763   2.210
39671W        W 4832   1.003  39.333   0.418
39672W        W 4833  30.437   9.377  11.160
39673W        W 4834  40.970   0.540   3.265
39674W        W 4835  24.800  31.345   3.166
39675W        W 4836   5.405   9.731  13.345
39676W        W 4837   0.874  17.566  12.171
39677W        W 4838  15.606  13.635   4.524
39678W        W 4839  17.307  23.745  13.410
39679W        W 4840  33.320  43.377  10.889
39680W        W 4841   5.458  42.634  12.418
39681W        W 4842  15.975  17.458   4.196
39682W        W 4843  20.074  32.207   3.230
39683W        W 4844   0.292   5.389  14.110
39684W        W 4845  31.017  18.899   0.288
39685W        W 4846  36.446  31.048   2.929
39686W        W 4847   7.581  27.248  11.153
39687W        W 4848  43.104  37.412   0.286
39688W        W 4849  20.091  19.627   4.565
39689W        W 4850  37.814  28.952  11.991
39690W        W 4851  21.533  16.294  13.159
39691W        W 4852  34.671  39.894   0.343
39692W        W 4853  35.801  14.019   1.517
39693W        W 4854  41.079  11.521  12.110
39694W        W 4855  15.596   9.583   3.199
39695W        W 4856   3.709  16.123  13.107
39696W        W 4857  11.193  21.882  13.941
39697W        W 4858  30.146  42.599  11.064
39698W        W 4859   1.752   4.836   4.180
39699W        W 4860  11.608  35.567  11.380
39700W        W 4861   4.761  34.893  13.887
39701W        W 4862   7.670  41.856  12.610
39702W        W 4863  20.414  17.430   0.394
39703W        W 4864   7.837   7.246  14.442
39704W        W 4865  44.229   3.335   1.410
39705W        W 4866  30.494  27.027  13.260
39706W        W 4867  37.806  32.625  11.671
39707W        W 4868  44.465  20.112  12.934
39708W        W 4869   6.823  20.536  11.894
39709W        W 4870  13.579  19.669  11.658
39710W        W 4871  37.009   7.650   3.688
39711W        W 4872  18.277  23.225   1.970
39712W        W 4873   2.211  39.417   2.627
39713W        W 4874   9.330  30.693   9.835
39714W        W 4875  40.842   6.905   1.648
39715W        W 4876   7.405  13.355  13.059
39716W        W 4877  22.010  12.294  11.441
39717W        W 4878  35.168  23.470   3.651
39718W        W 4879  36.119   5.251   0.810
39719W        W 4880   2.948  35.119   0.188
39720W        W 4881  31.099  42.287   4.497
39721W        W 4882   1.156   6.931   3.348
39722W        W 4883  31.308  26.483  12.433
39723W        W 4884  16.356  18.154   5.494
39724W        W 4885  24.611  30.679   3.676
39725W        W 4886  20.293  16.397   2.072
39726W        W 4887  19.669  40.763  11.677
39727W        W 4888   4.260  27.048  12.987
39728W        W 4889  26.484  32.961   3.208
39729W        W 4890  20.075  32.210  12.212
39730W        W 4891  14.002  14.350  14.485
39731W        W 4892  35.838  27.446   2.291
39732W        W 4893   6.335   3.351  11.135
39733W        W 4894  42.034  23.145   1.757
39734W        W 4895  19.998   7.456  10.283
39735W        W 4896  42.448   3.605   2.212
39736W        W 4897   7.204  33.640   3.084
39737W        W 4898  29.168   2.869  12.560
39738W        W 4899   2.543   2.810   0.227
39739W        W 4900   4.317  41.029   4.312
39740W        W 4901  41.379  20.890  11.211
39741W        W 4902  19.797  31.383   4.663
39742W        W 4903  18.145  33.589   1.716
39743W        W 4904  44.037   1.289   0.389
39744W        W 4905  15.262  26.203   3.185
39745W        W 4906  41.863  36.526  14.174
39746W        W 4907   2.638   8.024   1.902
39747W        W 4908  38.273  31.664  12.415
39748W        W 4909  34.370  17.089   4.574
39749W        W 4910  22.396  19.135  10.276
39750W        W 4911  26.931   2.417  11.585
39751W        W 4912  35.846  24.050   3.775
39752W        W 4913  14.341   8.439   1.288
39753W        W 4914  21.564  40.340   0.879
39754W        W 4915  24.005  12.491  10.531
39755W        W 4916  35.018  23.738  14.696
39756W        W 4917   8.234  28.234  10.778
39757W        W 4918  19.084  35.936   3.241
39758W        W 4919  25.864   1.738  11.043
39759W        W 4920  28.485   2.143   3.614
39760W        W 4921  19.305  24.509  14.425
39761W        W 4922   1.099  28.252  10.431
39762W        W 4923  37.641  22.885  13.472
39763W        W 4924  27.730  28.031  14.411
39764W        W 4925   6.761  16.627  11.463
39765W        W 4926  20.608  20.988   2.254
39766W        W 4927   7.163   6.900  12.457
39767W        W 4928  40.820  44.206  11.446
39768W        W 4929   1.057  16.597   4.294
39769W        W 4930  18.468  42.754   2.480
39770W        W 4931  27.138  31.004   4.509
39771W        W 4932  39.959  35.389  11.601
39772W        W 4933  21.968  20.365  10.736
39773W        W 4934   0.215  36.866   1.232
39774W        W 4935  14.714  32.183  13.903
39775W        W 4936  43.920  16.062  14.426
39776W        W 4937  24.109  25.474   1.694
39777W        W 4938  38.387   3.139   4.136
39778W        W 4939  40.405  44.951  12.996
39779W        W 4940  12.634  44.886  11.513
39780W        W 4941   2.729  31.601  14.218
39781W        W 4942  38.473  23.503   0.712
39782W        W 4943   7.736   5.681   3.773
39783W        W 4944  41.476  37.485   4.973
39784W        W 4945  33.731   2.014  11.627
39785W        W 4946  22.940  42.555  13.897
39786W        W 4947  24.958  37.952   1.293
39787W        W 4948  20.551  27.734  11.892
39788W        W 4949  11.702  34.481  14.935
39789W        W 4950  34.903  42.697  14.603
39790W        W 4951  15.466   9.701   4.099
39791W        W 4952  16.996  28.596  11.416
39792W        W 4953  44.123  31.149   3.630
39793W        W 4954  22.206  15.597  10.672
39794W        W 4955  43.468  27.146  11.355
39795W        W 4956  39.017  21.548   1.800
39796W        W 4957  33.460   6.884   1.304
39797W        W 4958   7.222  41.110  10.644
39798W        W 4959   6.026  13.624   2.932
39799W        W 4960  25.479  41.034   3.229
39800W        W 4961  35.428  23.484  12.382
39801W        W 4962  12.181   9.344   0.990
39802W        W 4963   3.856  27.671   3.702
39803W        W 4964   8.870  39.776  12.023
39804W        W 4965   2.330  26.792   5.016
39805W        W 4966  17.509  22.667  14.965
39806W        W 4967  41.091   5.701   2.235
39807W        W 4968  26.124  23.969   3.259
39808W        W 4969  22.605   0.250   2.487
39809W        W 4970  26.297  14.289  10.647
39810W        W 4971  14.756  43.967  11.153
39811W        W 4972  23.574  44.758   4.484
39812W        W 4973  26.422  37.311   4.100
39813W        W 4974  33.306  25.492   2.824
39814W        W 4975  38.131   5.984  11.008
39815W        W 4976  28.075   4.686   2.325
39816W        W 4977  13.670  39.531   9.838
39817W        W 4978  18.641  32.061   1.117
39818W        W 4979  27.981  35.934   3.134
39819W        W 4980  12.851  20.127  14.175
39820W        W 4981  39.614   7.709  11.959
39821W        W 4982  40.960  41.010   3.643
39822W        W 4983   7.600   8.068  11.730
39823W        W 4984  19.614  41.770   0.780
39824W        W 4985  26.153  38.408  14.787
39825W        W 4986  34.895   6.227  13.470
39826W        W 4987  41.428  11.147   1.480
39827W        W 4988  11.300  32.614  13.106
39828W        W 4989  24.288  30.899  11.149
39829W        W 4990  30.728  23.985  11.520
39830W        W 4991  14.654  27.215   4.587
39831W        W 4992  39.484  44.479   2.715
39832W        W 4993   8.670  10.982   4.465
39833W        W 4994  19.336  31.123   4.628
39834W        W 4995  36.072  41.323  14.871
39835W        W 4996   4.231  44.334   0.397
39836W        W 4997  41.480  18.881   0.227
39837W        W 4998   3.722   7.379  13.594
39838W        W 4999  34.556  11.268  11.207
39839W        W 5000   9.804  18.069   4.079
39840W        W 5001  34.904  29.417  14.369
39841W        W 5002  36.921  28.673   4.229
39842W        W 5003   6.923   8.583  12.007
39843W        W 5004  17.022  25.193  12.478
39844W        W 5005  30.831   7.774   4.919
39845W        W 5006  36.866  33.767   1.327
39846W        W 5007  29.968  25.654  12.574
39847W        W 5008  23.439  19.027  14.792
39848W        W 5009  26.068   2.717   2.230
39849W        W 5010  25.528  31.835   4.607
39850W        W 5011   1.538  33.619  10.704
39851W        W 5012  36.185  24.688  13.414
39852W        W 5013  34.058  36.784   2.258
39853W        W 5014  12.583   9.773   3.158
39854W        W 5015  33.402   2.310  13.145
39855W        W 5016  27.324  19.026   4.294
39856W        W 5017   2.351  43.324   0.962
39857W        W 5018   9.620  43.292  10.918
39858W        W 5019   2.036  13.636   0.252
39859W        W 5020  14.263  15.063   1.468
39860W        W 5021  13.632   3.253   0.877
39861W        W 5022  30.127  43.497  13.634
39862W        W 5023  39.027   5.700  14.570
39863W        W 5024  10.616  37.465  11.128
39864W        W 5025  25.728  44.375  12.557
39865W        W 5026  34.765   4.868   0.782
39866W        W 5027   1.536  31.973  10.951
39867W        W 5028  20.222  24.464  13.616
39868W        W 5029  19.037  22.584  11.225
39869W        W 5030  11.717  36.524  12.629
39870W        W 5031  16.264  17.347  10.038
39871W        W 5032  42.322  19.893   4.602
39872W        W 5033  26.540  35.865   1.166
39873W        W 5034   4.818  10.005   1.377
39874W        W 5035  37.074  40.384  13.299
39875W        W 5036  33.071  44.439   1.885
39876W        W 5037  22.224  33.154   0.845
39877W        W 5038   8.325  36.043  11.281
39878W        W 5039  27.416  21.902  13.047
39879W        W 5040   0.148   3.363  11.099
39880W        W 5041   1.657   7.646   4.538
39881W        W 5042  36.286  44.888  10.753
39882W        W 5043   5.201  40.408   2.316
39883W        W 5044  35.111  19.697   0.296
39884W        W 5045  29.484  37.659   1.323
39885W        W 5046  17.563  20.887  14.451
39886W        W 5047  32.447  30.159   1.701
39887W        W 5048  44.414  33.596  10.459
39888W        W 5049  30.862  15.313  11.632
39889W        W 5050  21.619  42.695   1.144
39890W        W 5051  26.758   1.472  14.264
39891W        W 5052  26.145   5.719  12.393
39892W        W 5053  33.355  25.732  14.463
39893W        W 5054  43.485   4.755   2.143
39894W        W 5055  12.330  43.833   3.465
39895W        W 5056  24.255   0.256  10.806
39896W        W 5057   6.155  11.760  12.427
39897W        W 5058  24.245  40.199  10.728
39898W        W 5059  31.225  18.987   2.817
39899W        W 5060  28.368  17.588  11.571
39900W        W 5061  18.259   6.140   1.966
39901W        W 5062  23.235   0.269  14.971
39902W        W 5063  40.342  30.351  12.047
39903W        W 5064  37.266  25.073   2.764
39904W        W 5065  14.204   4.462   1.778
39905W        W 5066   2.481  29.610  12.039
39906W        W 5067  38.314  34.955  13.572
39907W        W 5068   2.363   9.723  11.683
39908W        W 5069  32.696  31.342   0.775
39909W        W 5070  40.049   0.143   1.389
39910W        W 5071  41.758  11.821   1.706
39911W        W 5072  26.057  40.983  12.971
39912W        W 5073  31.356   7.096   1.921
39913W        W 5074  23.731  24.700   5.053
39914W        W 5075  39.998  14.230   4.117
39915W        W 5076  21.262  33.273   0.872
39916W        W 5077  19.398  29.430   2.291
39917W        W 5078  36.663   5.811  13.474
39918W        W 5079   1.492  38.987   2.992
39919W        W 5080   3.155  34.141  12.013
39920W        W 5081  26.660  35.663  12.023
39921W        W 5082  15.739  26.359   5.037
39922W        W 5083  12.348  13.210  14.963
39923W        W 5084  41.543  31.040  14.407
39924W        W 5085  14.617  42.529  13.573
39925W        W 5086   6.954  35.896  13.237
39926W        W 5087   5.473  38.343   3.360
39927W        W 5088   8.376  28.569  13.390
39928W        W 5089  13.225   0.428  11.147
39929W        W 5090  39.553  14.001   4.030
39930W        W 5091  18.128  15.535  12.961
39931W        W 5092  13.864  12.777  11.170
39932W        W 5093  25.694   7.177   2.721
39933W        W 5094   4.826  32.492  10.411
39934W        W 5095  29.880  25.231  12.322
39935W        W 5096  26.176  38.234   1.863
39936W        W 5097   9.219  17.030   1.376
39937W        W 5098  25.711  16.545  10.624
39938W        W 5099  33.844  44.763  14.443
39939W        W 5100  11.907  25.180   3.284
39940W        W 5101  33.980   0.717  12.435
39941W        W 5102   0.914  16.292   2.195
39942W        W 5103   7.211  24.810   4.744
39943W        W 5104  24.574  27.684  11.129
39944W        W 5105  43.434   2.291  13.749
39945W        W 5106  30.106  35.507   3.372
39946W        W 5107  28.933   0.530  12.508
39947W        W 5108  19.751   7.223   1.360
39948W        W 5109  22.192   2.321  14.752
39949W        W 5110  16.875  10.354   0.765
39950W        W 5111  23.159  22.710   0.860
39951W        W 5112  10.543   3.966  12.111
39952W        W 5113  38.887  40.787   1.352
39953W        W 5114  33.700  18.109   3.735
39954W        W 5115  18.669   7.481  12.325
39955W        W 5116   9.503   2.564   3.970
39956W        W 5117  21.002   6.109  13.900
39957W        W 5118  21.481   9.138  10.473
39958W        W 5119  35.904   8.856   1.960
39959W        W 5120  31.567  22.552  12.197
39960W        W 5121  31.047   9.312  10.604
39961W        W 5122  25.629  25.008  14.836
39962W        W 5123   2.722  42.378  13.347
39963W        W 5124  27.217  27.861  11.506
39964W        W 5125  39.304  37.993   2.533
39965W        W 5126  38.647   4.699  13.506
39966W        W 5127   0.177  10.053   4.075
39967W        W 5128   1.174  31.571   2.398
39968W        W 5129   9.676  11.282   2.754
39969W        W 5130  43.049  14.025  11.771
39970W        W 5131   7.236  38.910   0.233
39971W        W 5132  33.225  13.199   3.222
39972W        W 5133   7.073  31.327  13.556
39973W        W 5134  26.582  43.551  13.761
39974W        W 5135  27.080  31.054   3.577
39975W        W 5136  31.060  35.324  12.592
39976W        W 5137  11.037  17.137   1.990
39977W        W 5138  13.948  19.175  12.945
39978W        W 5139  26.372  23.443   0.334
39979W        W 5140  29.944  30.092  13.928
39980W        W 5141  32.909  36.559  14.059
39981W        W 5142  42.845  33.825   0.100
39982W        W 5143  36.009  25.507  11.148
39983W        W 5144  43.868  13.129   4.207
39984W        W 5145  25.864  14.360   1.400
39985W        W 5146  36.063  22.651   3.704
39986W        W 5147  19.229  30.136   0.908
39987W        W 5148  43.745  43.575  14.889
39988W        W 5149  43.783   7.404   1.182
39989W        W 5150  23.739  35.056  11.589
39990W        W 5151  11.846  43.912   2.439
39991W        W 5152   6.390  27.205   1.087
39992W        W 5153  44.829  14.164  11.744
39993W        W 5154  19.067  20.809  13.909
39994W        W 5155  11.225   8.482   4.161
39995W        W 5156  15.386  18.148  10.585
39996W        W 5157  38.781  35.330   0.378
39997W        W 5158  32.879  35.805   5.129
39998W        W 5159   1.293  31.446   1.010
39999W        W 5160  41.866   8.456  14.929
40000W        W 5161  42.570  12.899   1.966
40001W        W 5162  39.850  30.905  11.951
40002W        W 5163  41.994  17.836   2.177
40003W        W 5164  32.928  32.203  13.803
40004W        W 5165   9.271  16.025   1.457
40005W        W 5166  30.631   9.536  13.707
40006W        W 5167  29.105  15.560   1.177
40007W        W 5168  42.764   9.647  14.820
40008W        W 5169  34.293  43.482  11.131
40009W        W 5170  19.834  27.257  13.466
40010W        W 5171  10.847   2.481   1.308
40011W        W 5172  33.347  17.335   1.394
40012W        W 5173  35.828  18.307   1.803
40013W        W 5174  19.709  12.134   0.413
40014W        W 5175   5.432  15.512  10.964
40015W        W 5176  30.053  32.564  12.126
40016W        W 5177  31.692  13.880   2.809
40017W        W 5178  29.560  16.736   0.323
40018W        W 5179  34.932  24.048   1.690
40019W        W 5180  37.904   6.336   4.179
40020W        W 5181  43.974  14.800   2.779
40021W        W 5182  38.856  25.738   2.811
40022W        W 5183   7.315  25.615  12.980
40023W        W 5184  26.862  27.176   1.733
40024W        W 5185  38.400  13.299  10.490
40025W        W 5186  20.672  16.447   3.244
40026W        W 5187  24.245  20.490   2.701
40027W        W 5188   9.627  18.100  10.921
40028W        W 5189  31.989  33.557  11.642
40029W        W 5190  44.761   1.962  14.346
40030W        W 5191   3.316  15.256  12.353
40031W        W 5192  22.908  21.145   2.262
40032W        W 5193  36.063  26.688  11.077
40033W        W 5194  39.261  28.996   1.809
40034W        W 5195  14.415  16.319  13.972
40035W        W 5196  36.074  42.017  11.152
40036W        W 5197  23.200  29.481  12.403
40037W        W 5198  32.216  34.608  12.667
40038W        W 5199  15.344  29.010  14.818
40039W        W 5200  36.936  17.292  11.612
40040W        W 5201   2.545  30.344   3.752
40041W        W 5202   0.273  43.177   1.299
40042W        W 5203  41.877  12.201  11.622
40043W        W 5204  33.298  41.014  14.946
40044W        W 5205  15.809  42.524  12.055
40045W        W 5206  33.164  28.290   1.723
40046W        W 5207  16.442  19.312  14.801
40047W        W 5208  16.516  24.195  11.544
40048W        W 5209  11.610  31.915   4.234
40049W        W 5210  19.474  24.947  12.006
40050W        W 5211   9.797  15.257  13.827
40051W        W 5212  26.260  10.753  13.931
40052W        W 5213  30.580  17.071  14.835
40053W        W 5214   3.636  43.467   0.451
40054W        W 5215  18.996  39.305  13.012
40055W        W 5216  29.134  21.269   2.587
40056W        W 5217  28.470   6.827   3.723
40057W        W 5218  13.523   1.476   2.056
40058W        W 5219  15.475  41.454  13.973
40059W        W 5220  25.127   0.683  14.486
40060W        W 5221  22.272  22.945   0.551
40061W        W 5222  24.031  31.104  12.996
40062W        W 5223  18.625   4.930  11.718
40063W        W 5224  18.640  35.521   3.843
40064W        W 5225  43.492   3.404  12.993
40065W        W 5226  39.232  43.251  14.287
40066W        W 5227   6.778   1.149   3.793
40067W        W 5228  11.584   3.774   0.041
40068W        W 5229  41.413  24.160  14.414
40069W        W 5230   3.699  36.694  12.325
40070W        W 5231  29.013  32.352   2.251
40071W        W 5232  12.696  38.030   0.574
40072W        W 5233   3.211  15.742  11.059
40073W        W 5234  28.700   3.645   1.006
40074W        W 5235   0.790  24.919   0.248
40075W        W 5236  40.003   1.950  14.039
40076W        W 5237  13.540  39.096  14.089
40077W        W 5238   0.175  32.655  11.123
40078W        W 5239  21.954  34.796  14.749
40079W        W 5240   1.831   3.665   2.930
40080W        W 5241  19.674  23.948  12.090
40081W        W 5242  35.905  26.348   0.502
40082W        W 5243  40.759   6.743  12.022
40083W        W 5244  23.747  43.285   2.761
40084W        W 5245   0.149  12.214   3.491
40085W        W 5246   6.820   2.159  12.561
40086W        W 5247  10.880   5.796   1.707
40087W        W 5248  42.787   5.236  14.362
40088W        W 5249  12.219  32.662   4.056
40089W        W 5250   0.793  37.951   2.710
40090W        W 5251   8.946  15.738  11.985
40091W        W 5252  28.273  19.704  11.958
40092W        W 5253  16.289  34.883  11.738
40093W        W 5254   2.353  39.385   0.083
40094W        W 5255  19.478  32.220  12.090
40095W        W 5256  30.126   3.728  14.036
40096W        W 5257  37.295  44.210  11.074
40097W        W 5258  18.689  23.214   0.271
40098W        W 5259   2.495   4.744   1.875
40099W        W 5260  30.234  25.506  13.471
40100W        W 5261  16.532  20.501  10.653
40101W        W 5262  39.967  37.290  11.424
40102W        W 5263  35.612   7.148  11.404
40103W        W 5264  26.518  42.267  11.276
40104W        W 5265  30.066  13.025   1.671
40105W        W 5266  22.220  32.619   4.298
40106W        W 5267  38.861   4.236  13.630
40107W        W 5268  42.481  11.759   3.369
40108W        W 5269  12.734  26.122   1.400
40109W        W 5270  13.259  22.497   1.238
40110W        W 5271  18.274   8.850   4.154
40111W        W 5272  10.871  25.182   0.749
40112W        W 5273  19.621   2.194  12.578
40113W        W 5274  36.963  24.721   4.513
40114W        W 5275  18.695  42.844   3.776
40115W        W 5276  24.704  19.026   4.112
40116W        W 5277  42.681   8.765   4.368
40117W        W 5278  16.762  10.799  10.719
40118W        W 5279  43.321  25.717   1.865
40119W        W 5280  34.018   8.447   1.998
40120W        W 5281  44.715  44.826  12.691
40121W        W 5282  28.122  17.877   2.195
40122W        W 5283  43.910  26.160  11.876
40123W        W 5284   2.851  16.309   0.345
40124W        W 5285  16.802  34.415  13.963
40125W        W 5286   7.744  19.439  14.635
40126W        W 5287  17.073  18.200  13.169
40127W        W 5288  21.594  37.134  12.456
40128W        W 5289  12.369  13.783  11.564
40129W        W 5290   0.343  25.027   1.231
40130W        W 5291  17.067  29.896  12.620
40131W        W 5292  18.951   8.773   0.727
40132W        W 5293  41.441  37.958   4.769
40133W        W 5294  31.547   4.830  13.494
40134W        W 5295  20.419  16.783   1.280
40135W        W 5296  35.071  34.515  13.205
40136W        W 5297  41.510  32.137   3.102
40137W        W 5298  42.885  23.777  13.313
40138W        W 5299  23.912  19.741   1.361
40139W        W 5300  37.766  44.483  11.479
40140W        W 5301   7.146  30.233  11.672
40141W        W 5302  31.693  20.027   5.031
40142W        W 5303   9.331  16.523   3.689
40143W        W 5304  12.235   4.660   4.131
40144W        W 5305  22.197  20.745  13.646
40145W        W 5306   5.309   8.460   3.174
40146W        W 5307  11.570   5.762  11.325
40147W        W 5308  24.558  36.522  11.730
40148W        W 5309  30.138  44.218  11.912
40149W        W 5310  39.780   0.815  11.952
40150W        W 5311  31.370  38.505  12.058
40151W        W 5312   7.669  36.013  11.952
40152W        W 5313  19.444   2.318  14.908
40153W        W 5314   2.885  30.409   0.006
40154W        W 5315  25.397   1.264   0.721
40155W        W 5316   5.952  37.351   0.927
40156W        W 5317  40.931  33.125  11.607
40157W        W 5318  36.438  34.375   4.248
40158W        W 5319  37.745  33.344  12.417
40159W        W 5320  16.706  22.675   4.672
40160W        W 5321   2.438  11.013   3.075
40161W        W 5322  28.126  28.988   3.419
40162W        W 5323  38.621  26.065   4.214
40163W        W 5324  33.937  18.321   2.393
40164W        W 5325  38.492  34.581  13.859
40165W        W 5326  39.525  27.336  14.638
40166W        W 5327  17.558  24.069   2.738
40167W        W 5328  26.072   2.473  13.740
40168W        W 5329  22.648   9.151  11.777
40169W        W 5330  43.265   1.057   2.784
40170W        W 5331   0.370  25.273   2.320
40171W        W 5332  31.116  24.591   3.623
40172W        W 5333  22.826  24.932   5.343
40173W        W 5334   1.769  29.321   0.381
40174W        W 5335   9.257   1.234  11.949
40175W        W 5336  10.131   6.662  10.746
40176W        W 5337  42.907  24.265  13.399
40177W        W 5338  19.000  43.513  14.047
40178W        W 5339  14.739   0.471  12.008
40179W        W 5340   8.877  10.154  10.660
40180W        W 5341   3.756  25.989  13.079
40181W        W 5342  30.059  42.461  13.457
40182W        W 5343  40.526  34.305  13.072
40183W        W 5344   6.562   4.828  11.555
40184W        W 5345  17.787  43.058   9.861
40185W        W 5346   9.758  23.703   2.865
40186W        W 5347  12.384  39.352   1.296
40187W        W 5348  11.624  31.297  13.413
40188W        W 5349  15.827   4.657   1.813
40189W        W 5350  12.572  22.854  13.397
40190W        W 5351  28.375  42.825   0.496
40191W        W 5352  24.924  25.553  12.561
40192W        W 5353  37.472  19.634   0.479
40193W        W 5354   6.284  30.026   2.786
40194W        W 5355  19.068  44.311  11.420
40195W        W 5356  16.546  25.550   2.702
40196W        W 5357  28.399  42.400  11.832
40197W        W 5358  12.839   0.363   1.484
40198W        W 5359   2.392  34.344   9.381
40199W        W 5360  37.746  16.340  13.945
40200W        W 5361  26.474  33.425  14.983
40201W        W 5362  20.941  39.747   2.718
40202W        W 5363  15.352   0.845   2.049
40203W        W 5364   2.419  41.804   4.356
40204W        W 5365  10.230  15.341   4.545
40205W        W 5366  23.414  39.039   3.486
40206W        W 5367  14.075  41.363  12.355
40207W        W 5368  29.215   2.972   1.340
40208W        W 5369  19.042  20.680   1.904
40209W        W 5370  19.968   0.886  10.550
40210W        W 5371  19.076  13.483  11.647
40211W        W 5372  21.172  18.051   2.407
40212W        W 5373  23.913  23.750   4.913
40213W        W 5374  24.815  34.538  12.644
40214W        W 5375  44.899  27.202   1.730
40215W        W 5376  23.112  32.589   4.228
40216W        W 5377  10.351  43.279   4.361
40217W        W 5378  33.403  27.188   2.360
40218W        W 5379  25.348  17.195   4.135
40219W        W 5380  22.115  29.664   3.755
40220W        W 5381  33.883  39.461   2.089
40221W        W 5382  33.432  27.698   2.324
40222W        W 5383  18.712  38.886   3.736
40223W        W 5384  40.378  15.291  13.937
40224W        W 5385   7.191  43.880  12.963
40225W        W 5386   5.863  32.877  14.928
40226W        W 5387  12.583  31.740   1.461
40227W        W 5388   1.659  26.359  11.324
40228W        W 5389   3.389   8.850   3.540
40229W        W 5390  28.815  24.937   4.840
40230W        W 5391  17.655   6.802  12.671
40231W        W 5392  31.309   5.700  11.710
40232W        W 5393  37.764   8.214   4.655
40233W        W 5394  37.990  37.038  14.586
40234W        W 5395  26.191  27.633   4.503
40235W        W 5396  35.412  42.475  14.485
40236W        W 5397  23.070  37.976   4.216
40237W        W 5398   7.923  39.516   4.120
40238W        W 5399  35.668   0.749   3.188
40239W        W 5400  37.457  40.612  12.515
40240W        W 5401   3.805  26.667   1.787
40241W        W 5402  10.484   5.754   3.005
40242W        W 5403  37.364  10.740  11.049
40243W        W 5404  31.654   1.702   0.498
40244W        W 5405  24.455  11.803   2.454
40245W        W 5406  24.713  40.600   4.030
40246W        W 5407  39.343   0.001  10.695
40247W        W 5408   7.349  15.647  12.030
40248W        W 5409  44.069  15.120   0.404
40249W        W 5410  16.753  42.923   4.483
40250W        W 5411  16.048  32.882   1.448
40251W        W 5412  10.141  15.006  13.527
40252W        W 5413  42.806  33.381  13.824
40253W        W 5414  21.543  30.349  11.165
40254W        W 5415  24.634  20.550   0.242
40255W        W 5416   8.718   3.192   0.764
40256W        W 5417  28.147  23.216  11.650
40257W        W 5418  38.936   0.337   0.352
40258W        W 5419  34.999  40.794   2.895
40259W        W 5420   3.425  29.744  11.186
40260W        W 5421  34.302  33.499   2.783
40261W        W 5422  33.521  37.677   2.160
40262W        W 5423  42.365  37.607  14.897
40263W        W 5424   3.845  44.311  14.329
40264W        W 5425   2.186   8.147   1.718
40265W        W 5426   1.448  38.434   4.521
40266W        W 5427  27.440   1.757   4.621
40267W        W 5428  12.134  30.556  10.786
40268W        W 5429  38.486   6.453  12.447
40269W        W 5430  43.459   8.028  14.246
40270W        W 5431  37.016  28.708  12.447
40271W        W 5432  18.012  10.270  10.824
40272W        W 5433  20.625  12.303  13.790
40273W        W 5434   4.878  21.116   3.726
40274W        W 5435   0.657  16.977   4.411
40275W        W 5436  19.143  27.918  13.916
40276W        W 5437  41.815  16.036   1.311
40277W        W 5438  16.997  17.781  14.188
40278W        W 5439   7.954   4.960  12.501
40279W        W 5440  16.170   4.953  14.033
40280W        W 5441  44.363  42.448   1.326
40281W        W 5442   4.316  27.563   3.948
40282W        W 5443  35.050  16.416   2.035
40283W        W 5444  31.935  32.571   1.216
40284W        W 5445  33.074  16.532   2.628
40285W        W 5446  26.164  11.271  13.644
40286W        W 5447  15.334   4.783   0.912
40287W        W 5448  27.435  13.631  14.960
40288W        W 5449  30.551  30.097   0.122
40289W        W 5450   8.235   1.426   1.885
40290W        W 5451  32.848   7.793  12.129
40291W        W 5452  32.369   5.794  13.048
40292W        W 5453  34.519   3.376   1.869
40293W        W 5454  44.280  38.835  13.887
40294W        W 5455  20.907  10.700  13.394
40295W        W 5456   7.360  18.603   4.580
40296W        W 5457  19.480  39.450  14.661
40297W        W 5458  22.611  32.204  14.853
40298W        W 5459   8.286  42.540   1.564
40299W        W 5460   1.191  35.428   3.312
40300W        W 5461  20.123  23.114  14.050
40301W        W 5462   8.319   9.192  13.525
40302W        W 5463  12.899  33.730  10.974
40303W        W 5464  29.603  36.894   4.962
40304W        W 5465   9.736  26.235   1.238
40305W        W 5466  27.156  10.253   9.985
40306W        W 5467  10.924  10.758   4.208
40307W        W 5468  17.600  12.159   1.587
40308W        W 5469  17.590   0.499  13.408
40309W        W 5470   9.296  34.625  14.024
40310W        W 5471  32.050   3.325   0.824
40311W        W 5472  10.627  27.426  14.402
40312W        W 5473   7.356   2.014   1.137
40313W        W 5474  42.338  15.350  13.636
40314W        W 5475  17.622  33.809  14.860
40315W        W 5476  40.399  31.052  13.274
40316W        W 5477  18.740  22.996   0.748
40317W        W 5478  34.083  11.371  12.853
40318W        W 5479   4.920  17.271   3.225
40319W        W 5480  10.585   1.225   3.201
40320W        W 5481   9.721   2.270  12.611
40321W        W 5482   1.768  25.232   3.693
40322W        W 5483   9.692   1.807  13.391
40323W        W 5484  14.770   0.452   2.936
40324W        W 5485   8.500   4.753   2.692
40325W        W 5486  37.509  24.646  12.148
40326W        W 5487  20.157  25.610  11.083
40327W        W 5488  20.632  40.304  11.011
40328W        W 5489   9.307   9.835   2.663
40329W        W 5490  27.058  41.800   3.794
40330W        W 5491  16.826  37.424  11.468
40331W        W 5492  32.090  39.995  12.053
40332W        W 5493   0.477  38.818   4.476
40333W        W 5494  44.902  20.672   1.333
40334W        W 5495  28.595   4.943  13.506
40335W        W 5496  43.969  43.756  12.841
40336W        W 5497   2.914  30.515  14.482
40337W        W 5498  19.763   5.116   2.114
40338W        W 5499  12.891  25.024  11.047
40339W        W 5500  27.581  30.981   0.213
40340W        W 5501  38.556  10.947  13.463
40341W        W 5502  43.794  30.800   3.818
40342W        W 5503  18.760  31.707   2.367
40343W        W 5504  44.038  39.834   5.102
40344W        W 5505  41.951  16.614   2.827
40345W        W 5506  29.455  23.936   0.816
40346W        W 5507  44.267  17.774  11.632
40347W        W 5508  41.230   8.157  11.172
40348W        W 5509  31.818  44.313  14.382
40349W        W 5510   4.650  30.735  10.297
40350W        W 5511  39.861  11.627   2.218
40351W        W 5512   0.867  30.214  11.961
40352W        W 5513  27.522   1.443   2.861
40353W        W 5514  19.230  14.219  13.411
40354W        W 5515   4.837  40.815  13.780
40355W        W 5516  39.917  36.651   1.310
40356W        W 5517   9.463   7.203  11.857
40357W        W 5518  35.833  10.635  13.856
40358W        W 5519  42.230   5.258  13.837
40359W        W 5520  43.356   7.237   1.441
40360W        W 5521   3.951  12.641  11.179
40361W        W 5522  35.394   5.220  13.846
40362W        W 5523  30.929  16.225  10.674
40363W        W 5524  36.086  37.246   3.730
40364W        W 5525  19.080  44.532   3.286
40365W        W 5526  26.749  10.664  13.810
40366W        W 5527  36.804  14.826  12.966
40367W        W 5528   8.631  31.409   4.404
40368W        W 5529  31.491  30.866   4.189
40369W        W 5530  40.457  28.438  12.460
40370W        W 5531  24.438  10.184  14.845
40371W        W 5532  25.015  43.864   1.774
40372W        W 5533  22.437  23.804  11.120
40373W        W 5534  14.660  39.402   1.914
40374W        W 5535  34.623  18.504   1.665
40375W        W 5536  30.667  36.272  12.506
40376W        W 5537  18.026   2.677  10.902
40377W        W 5538  19.969  26.382  10.747
40378W        W 5539  16.340  35.293  12.101
40379W        W 5540   5.808  16.772  10.644
40380W        W 5541  26.052  24.094  10.405
40381W        W 5542  42.850  32.191  14.420
40382W        W 5543  19.287  37.151  14.384
40383W        W 5544  36.087  42.538   0.254
40384W        W 5545  40.308   4.712  12.901
40385W        W 5546  26.614  25.942  12.401
40386W        W 5547   0.306   0.483   2.788
40387W        W 5548  11.962  19.438   1.291
40388W        W 5549  32.822   8.666  12.408
40389W        W 5550   2.980   0.022   0.335
40390W        W 5551   4.406  23.648   0.032
40391W        W 5552  34.477  16.219   1.350
40392W        W 5553  24.995  31.956   2.074
40393W        W 5554  17.660   1.846   2.878
40394W        W 5555  39.449  23.018   2.812
40395W        W 5556   5.752   7.295   3.796
40396W        W 5557   8.691   7.114  12.983
40397W        W 5558  26.931   4.808  11.187
40398W        W 5559   8.221  20.356  14.047
40399W        W 5560  13.677  14.798  11.732
40400W        W 5561   6.381  39.378  13.488
40401W        W 5562  20.184  32.465   1.372
40402W        W 5563  35.974  40.224   4.569
40403W        W 5564  11.317  36.928   1.822
40404W        W 5565  26.309  15.523  13.260
40405W        W 5566  16.182  34.578   3.724
40406W        W 5567   5.385  13.980   4.148
40407W        W 5568   5.567  36.388  13.332
40408W        W 5569  40.064  17.144  14.967
40409W        W 5570  17.066  23.920   5.113
40410W        W 5571  30.652  11.020  13.891
40411W        W 5572  25.732  28.087   2.746
40412W        W 5573  22.457  31.341  12.319
40413W        W 5574  41.997  44.208  13.443
40414W        W 5575  30.939   3.701  14.395
40415W        W 5576  39.618   2.906  13.917
40416W        W 5577  23.929  11.681   2.154
40417W        W 5578  29.691  14.777   1.267
40418W        W 5579  22.620  15.218  12.560
40419W        W 5580  27.172  23.590  10.624
40420W        W 5581   7.640  11.895   4.470
40421W        W 5582  29.682  15.231  11.249
40422W        W 5583  25.503  12.069  11.505
40423W        W 5584  36.595  43.284  10.700
40424W        W 5585  40.750  40.104   4.147
40425W        W 5586   9.900   6.576  11.190
40426W        W 5587   9.546  33.395   0.250
40427W        W 5588   2.317  33.074   3.918
40428W        W 5589   3.254  10.858   2.065
40429W        W 5590  25.476  19.017   3.726
40430W        W 5591  36.793  24.037  14.977
40431W        W 5592  15.007  12.944   0.252
40432W        W 5593  42.882  11.885   0.471
40433W        W 5594  39.491  42.311   2.758
40434W        W 5595   9.746  13.371   1.709
40435W        W 5596   6.431  24.760  12.932
40436W        W 5597  24.124   1.289   1.833
40437W        W 5598  15.027  30.887  12.629
40438W        W 5599   1.010  21.023   3.383
40439W        W 5600  21.095   9.900   3.874
40440W        W 5601  32.516   3.542  10.672
40441W        W 5602  37.481  36.008   1.399
40442W        W 5603  24.031  35.952   0.407
40443W        W 5604  15.616   7.632   3.855
40444W        W 5605  15.244  20.993  14.717
40445W        W 5606  27.990  23.551   4.981
40446W        W 5607  11.276   5.154  13.364
40447W        W 5608   7.768   2.213  11.968
40448W        W 5609  32.469  13.600  12.552
40449W        W 5610  27.919   6.799  11.154
40450W        W 5611  28.624   6.366  11.956
40451W        W 5612  40.084   3.093   3.670
40452W        W 5613  13.519  30.186  11.949
40453W        W 5614   5.845  30.088   1.295
40454W        W 5615  11.535  14.858   4.622
40455W        W 5616  17.835  15.239  11.618
40456W        W 5617  44.370  26.662  13.337
40457W        W 5618  20.291  32.227  10.380
40458W        W 5619  10.909   3.734  11.546
40459W        W 5620  23.971  12.791   0.769
40460W        W 5621   5.389   1.275  14.435
40461W        W 5622  13.835  23.493   1.541
40462W        W 5623   1.851  22.685  10.762
40463W        W 5624  16.079  12.124  11.115
40464W        W 5625  34.577   1.928  13.253
40465W        W 5626   4.949   4.718  13.446
40466W        W 5627  35.723  32.332  10.694
40467W        W 5628   3.969  31.490  12.662
40468W        W 5629  19.884  24.977   3.475
40469W        W 5630  29.061  18.891   1.012
40470W        W 5631  23.638  39.522   1.151
40471W        W 5632  10.551  33.530   2.090
40472W        W 5633   3.867  30.167  14.355
40473W        W 5634  25.453  28.008  11.716
40474W        W 5635  11.890  40.438   2.976
40475W        W 5636   8.450   9.630   1.668
40476W        W 5637  16.671  36.224  14.000
40477W        W 5638  38.809  24.111  12.071
40478W        W 5639  24.307  16.239   2.322
40479W        W 5640   2.340  37.083   2.880
40480W        W 5641   9.278  18.861   1.664
40481W        W 5642  17.789  35.850   1.428
40482W        W 5643  32.478   5.240  11.338
40483W        W 5644  32.192   9.204  13.351
40484W        W 5645  33.445   4.522   0.762
40485W        W 5646   2.519  27.929  14.857
40486W        W 5647  36.134  17.719  12.707
40487W        W 5648   2.226   3.904   5.061
40488W        W 5649  21.692  12.877  13.796
40489W        W 5650  20.824   8.570  11.549
40490W        W 5651  32.287   6.440   1.814
40491W        W 5652  23.917  36.539   2.084
40492W        W 5653  36.782   4.884   0.748
40493W        W 5654  44.010  22.122   4.209
40494W        W 5655   7.608  35.991  13.926
40495W        W 5656  37.136  11.589  10.765
40496W        W 5657  34.297  22.839   2.771
40497W        W 5658  25.483  13.845  11.657
40498W        W 5659  17.757  32.107  14.473
40499W        W 5660  17.608  43.507  10.190
40500W        W 5661  28.031  40.626   0.888
40501W        W 5662  24.189  19.161  12.313
40502W        W 5663  33.039   0.324   4.438
40503W        W 5664  23.543   6.897   0.918
40504W        W 5665  18.208   0.755  14.804
40505W        W 5666  38.526   0.961   3.148
40506W        W 5667   8.546  23.469  14.097
40507W        W 5668  37.669  24.123  11.674
40508W        W 5669  10.867  26.701   4.105
40509W        W 5670  41.612  40.623  14.880
40510W        W 5671   3.038  37.381   1.191
40511W        W 5672   2.305  26.694  10.869
40512W        W 5673  18.811  12.086  14.290
40513W        W 5674  13.161   9.273   4.285
40514W        W 5675   6.716   9.839  14.374
40515W        W 5676  39.144  17.233  12.069
40516W        W 5677  42.333  10.221  12.292
40517W        W 5678   0.390   1.844   2.657
40518W        W 5679  32.540  39.899  10.089
40519W        W 5680  25.933  28.066   4.548
40520W        W 5681   7.645  25.740   4.598
40521W        W 5682   5.743  16.355  10.949
40522W        W 5683  12.211  42.080  13.904
40523W        W 5684   2.413   7.677   2.729
40524W        W 5685  40.621  21.679  13.047
40525W        W 5686  32.361   0.934  11.247
40526W        W 5687  10.346  14.066  14.536
40527W        W 5688  22.978  14.153   2.425
40528W        W 5689  16.555  33.893   3.856
40529W        W 5690   9.682  43.813  11.597
40530W        W 5691  12.265  24.955  14.082
40531W        W 5692  13.188  30.738   1.426
40532W        W 5693  22.785  44.306   1.890
40533W        W 5694   0.871   5.734   1.549
40534W        W 5695  38.456  41.065  11.337
40535W        W 5696   5.699   5.751  11.121
40536W        W 5697  18.048  32.436   3.185
40537W        W 5698  36.413  28.105   4.729
40538W        W 5699  33.605  40.654   2.169
40539W        W 5700  36.531  32.662  12.048
40540W        W 5701  44.028  39.736  12.120
40541W        W 5702   9.266   8.593   2.494
40542W        W 5703  22.953  29.213   0.206
40543W        W 5704  33.360   9.342   1.298
40544W        W 5705  10.088  13.146   2.970
40545W        W 5706  28.928  20.101  10.681
40546W        W 5707  38.366  19.450  11.171
40547W        W 5708  37.236   5.477   2.217
40548W        W 5709  32.921  32.817   0.895
40549W        W 5710  35.120  35.542   3.237
40550W        W 5711  26.907  25.251  11.044
40551W        W 5712  22.014   0.224   0.876
40552W        W 5713  14.930  40.022   2.268
40553W        W 5714   2.769   8.160  14.932
40554W        W 5715  27.124  17.195   3.856
40555W        W 5716  40.725  41.343  12.936
40556W        W 5717  44.314  33.855   2.982
40557W        W 5718  33.883  19.610  12.970
40558W        W 5719   0.780  27.964   4.639
40559W        W 5720  17.192  16.133   3.530
40560W        W 5721  33.842  22.113  12.462
40561W        W 5722   3.472  32.401   1.354
40562W        W 5723  20.728  24.988  10.776
40563W        W 5724   1.131  25.961  14.479
40564W        W 5725  24.216   1.425  13.962
40565W        W 5726  41.014  22.891  10.652
40566W        W 5727  26.652  41.961   4.300
40567W        W 5728   5.932   5.184  14.021
40568W        W 5729   2.863  22.585  11.182
40569W        W 5730  19.267  10.381   2.290
40570W        W 5731  28.028   3.244  13.181
40571W        W 5732  43.535  22.524  11.095
40572W        W 5733  44.787  41.425   0.234
40573W        W 5734  32.724  34.903   2.669
40574W        W 5735  15.211  37.181   2.169
40575W        W 5736  21.496  21.572   1.257
40576W        W 5737  35.833   6.756  14.600
40577W        W 5738  24.816  28.550  12.788
40578W        W 5739  11.645  38.050  11.831
40579W        W 5740   9.675  35.727  14.561
40580W        W 5741  43.742  40.373  13.860
40581W        W 5742  44.842   5.817  14.238
40582W        W 5743  44.895  17.056  11.428
40583W        W 5744  16.766  25.084  10.762
40584W        W 5745  34.179  40.714  12.008
40585W        W 5746  21.609  38.426  13.922
40586W        W 5747  31.460   7.934   4.222
40587W        W 5748  44.408  21.140  10.251
40588W        W 5749  26.522  25.399   0.789
40589W        W 5750  33.126  19.319  11.612
40590W        W 5751  26.045  22.614   1.386
40591W        W 5752  16.017   4.662  10.200
40592W        W 5753  20.917  22.888  13.015
40593W        W 5754  29.140   6.000   3.369
40594W        W 5755  12.939  13.918  10.919
40595W        W 5756  21.289  20.539  11.484
40596W        W 5757  17.983  35.893  13.767
40597W        W 5758  15.745  33.642   5.179
40598W        W 5759  41.274  43.782   0.335
40599W        W 5760  18.911  16.635  13.524
40600W        W 5761  25.349  18.348  14.408
40601W        W 5762   5.210  35.136  12.598
40602W        W 5763  34.947  41.584   3.239
40603W        W 5764  14.659  14.740   1.318
40604W        W 5765  13.730   6.965   1.450
40605W        W 5766  25.805  15.100   4.594
40606W        W 5767  18.246  24.177  13.528
40607W        W 5768  40.019  16.338   3.626
40608W        W 5769  30.385   6.155   1.838
40609W        W 5770  42.093  13.295  10.711
40610W        W 5771   9.250  37.995   0.665
40611W        W 5772  21.776  36.831   4.115
40612W        W 5773  27.992   9.921   3.806
40613W        W 5774  42.951  34.698   3.504
40614W        W 5775  29.972   3.188  14.090
40615W        W 5776   1.869  20.945  11.826
40616W        W 5777  22.482  39.038   3.521
40617W        W 5778  37.399  39.015  14.898
40618W        W 5779  22.215  27.177   1.707
40619W        W 5780   9.395  15.240   0.474
40620W        W 5781  19.808  16.105  14.272
40621W        W 5782  29.405  41.485  10.221
40622W        W 5783  42.816  43.460   0.717
40623W        W 5784  32.044  36.901   0.762
40624W        W 5785   0.769  17.645   2.202
40625W        W 5786  36.370  25.489  11.902
40626W        W 5787  25.715  41.434  11.621
40627W        W 5788  28.513   0.858   1.442
40628W        W 5789  29.945  40.843   3.583
40629W        W 5790  32.668  15.975  11.498
40630W        W 5791   3.982  20.555  12.485
40631W        W 5792  22.365   5.322   2.370
40632W        W 5793  20.620  25.224   2.840
40633W        W 5794   4.692  43.561   3.377
40634W        W 5795   7.829   1.053  11.569
40635W        W 5796  41.475   1.878   2.039
40636W        W 5797  38.838  25.160  13.886
40637W        W 5798   6.001   9.603   1.940
40638W        W 5799  20.788  30.527  14.969
40639W        W 5800  35.412   6.233  13.396
40640W        W 5801  39.922  39.233  14.191
40641W        W 5802  26.989  38.994  12.606
40642W        W 5803  35.279  28.899  13.565
40643W        W 5804  22.512  20.950   4.920
40644W        W 5805  33.515   6.480  14.994
40645W        W 5806  16.275  12.825   4.870
40646W        W 5807  12.830  31.385   4.571
40647W        W 5808  31.028  33.977  14.981
40648W        W 5809  19.553  39.262   1.405
40649W        W 5810   1.338  40.752  13.759
40650W        W 5811  20.809  32.933   0.866
40651W        W 5812  39.794  42.751  12.043
40652W        W 5813   0.365  34.265  11.306
40653W        W 5814  18.098  11.171  10.712
40654W        W 5815  11.864   3.921  13.564
40655W        W 5816  17.438   3.835  14.796
40656W        W 5817  15.039   6.222  12.989
40657W        W 5818  22.181   5.478   2.850
40658W        W 5819  29.333  21.140   4.762
40659W        W 5820  16.799   9.906   1.837
40660W        W 5821  13.904  15.734  14.856
40661W        W 5822  14.980  39.174   4.604
40662W        W 5823  38.074  29.851   3.830
40663W        W 5824  41.719  11.170  11.643
40664W        W 5825  32.817  37.018  12.828
40665W        W 5826  19.982   1.731   2.343
40666W        W 5827  42.738  32.540   3.393
40667W        W 5828  28.226  21.976   4.010
40668W        W 5829   4.302  29.544  13.233
40669W        W 5830  24.145   0.002   2.407
40670W        W 5831  18.305   1.266  14.820
40671W        W 5832  29.131  33.419   2.302
40672W        W 5833  26.536  41.325  14.274
40673W        W 5834  26.754  34.134  11.336
40674W        W 5835  16.036   1.270   1.711
40675W        W 5836  28.483  17.355   0.678
40676W        W 5837  43.918   9.931  14.313
40677W        W 5838  21.596  13.056  12.791
40678W        W 5839  35.066   2.356  12.179
40679W        W 5840  28.865  14.130   1.405
40680W        W 5841  33.639   4.521  13.963
40681W        W 5842  13.599  38.236  13.403
40682W        W 5843  30.775   7.222  13.938
40683W        W 5844  25.619  43.773   0.793
40684W        W 5845  37.931   4.486   1.509
40685W        W 5846  39.868  15.990  13.986
40686W        W 5847   0.470  22.449   0.185
40687W        W 5848  28.665   5.959   1.247
40688W        W 5849   3.901  34.596  12.467
40689W        W 5850  31.695  22.953  13.039
40690W        W 5851  36.430  20.224   0.283
40691W        W 5852  43.969  17.835  10.959
40692W        W 5853  27.755  40.812   3.214
40693W        W 5854  27.743  16.093   3.745
40694W        W 5855  32.351   7.359   5.017
40695W        W 5856  30.401   8.366   1.879
40696W        W 5857  43.506  44.825  12.077
40697W        W 5858  11.309   5.868   2.033
40698W        W 5859   1.578  38.438  11.005
40699W        W 5860   8.873  31.154   2.412
40700W        W 5861   0.736   2.194  11.492
40701W        W 5862  27.668  25.653  14.342
40702W        W 5863  23.644  21.232  11.562
40703W        W 5864  27.903   5.982   2.709
40704W        W 5865  18.284  34.105  13.988
40705W        W 5866   6.243  33.043  11.157
40706W        W 5867   8.841  32.501   2.370
40707W        W 5868  28.393  42.433   0.829
40708W        W 5869  28.198  16.949  13.896
40709W        W 5870  25.002  20.578   3.862
40710W        W 5871  37.112  24.479   0.830
40711W        W 5872  14.713  25.971   1.685
40712W        W 5873  24.589  27.710   4.933
40713W        W 5874  44.751  27.566   2.341
40714W        W 5875   4.653  12.366   3.301
40715W        W 5876  42.451  41.055   1.719
40716W        W 5877  36.199  28.429  13.520
40717W        W 5878  18.615  13.354  10.525
40718W        W 5879  27.487  37.328   0.764
40719W        W 5880  16.533   3.290   1.250
40720W        W 5881  38.081   2.959   2.782
40721W        W 5882  43.512  40.233  10.734
40722W        W 5883  22.402  33.006  14.020
40723W        W 5884  39.234  31.064  14.737
40724W        W 5885  25.897  31.885   2.638
40725W        W 5886  10.736  31.787   0.291
40726W        W 5887  11.285  10.350  10.360
40727W        W 5888  17.007   7.700  10.854
40728W        W 5889   2.369   7.232  11.273
40729W        W 5890  39.750  39.742   4.610
40730W        W 5891  13.859   7.440  13.905
40731W        W 5892  19.967  20.369   5.038
40732W        W 5893  28.373   5.120   4.089
40733W        W 5894  18.479   3.815  11.463
40734W        W 5895  11.166  44.213   4.403
40735W        W 5896   0.342  31.804   4.202
40736W        W 5897  36.100  43.483   3.580
40737W        W 5898   2.526   6.331  10.684
40738W        W 5899  23.488  32.162  11.095
40739W        W 5900   2.874   0.995   1.795
40740W        W 5901   3.368  35.709  13.863
40741W        W 5902   5.352   0.903   3.800
40742W        W 5903  18.231  25.962  13.819
40743W        W 5904  23.407  12.625  12.316
40744W        W 5905  23.292  17.616   3.489
40745W        W 5906  20.565  35.392   3.310
40746W        W 5907  23.927  10.909  10.241
40747W        W 5908  27.541  34.792  12.911
40748W        W 5909   2.759  27.515  14.234
40749W        W 5910   7.034  11.417  11.195
40750W        W 5911  18.977   2.886  10.460
40751W        W 5912  42.426  26.058  11.250
40752W        W 5913  39.805  37.488   3.187
40753W        W 5914  44.513  23.229   2.223
40754W        W 5915  35.289  36.895  14.698
40755W        W 5916   5.342  21.993  10.578
40756W        W 5917  34.448  26.488  13.872
40757W        W 5918  40.456  39.101   3.603
40758W        W 5919   6.621   3.689  12.447
40759W        W 5920  34.460   0.683   4.109
40760W        W 5921  22.517  12.952  13.155
40761W        W 5922  44.818  28.990   4.516
40762W        W 5923  24.479   7.175  11.492
40763W        W 5924  18.769  35.869   1.433
40764W        W 5925  16.236  39.925  12.966
40765W        W 5926  43.866  35.926   0.886
40766W        W 5927   5.723  10.886   4.621
40767W        W 5928  16.167  31.279  10.548
40768W        W 5929  35.583  32.791  12.779
40769W        W 5930  36.972  26.916  13.098
40770W        W 5931   4.788  34.473  10.691
40771W        W 5932  19.225   1.272  13.082
40772W        W 5933  28.130  32.313   1.191
40773W        W 5934  29.402  17.540  14.921
40774W        W 5935  44.860  23.067   3.115
40775W        W 5936  42.462  26.797  11.752
40776W        W 5937  27.130  26.697   2.946
40777W        W 5938   8.870   3.357   4.069
40778W        W 5939  31.536  41.742  11.933
40779W        W 5940  11.090  33.625   4.733
40780W        W 5941  34.929  13.829  10.565
40781W        W 5942  42.210  41.435  14.909
40782W        W 5943  15.720  33.441  11.527
40783W        W 5944  15.765  22.671  14.520
40784W        W 5945  36.299   9.148  13.347
40785W        W 5946  40.521  21.130   3.046
40786W        W 5947   5.636  16.560  14.520
40787W        W 5948  12.429  23.246  11.164
40788W        W 5949   5.156  10.889   2.640
40789W        W 5950  18.833  39.368   0.664
40790W        W 5951   5.854   9.938  11.107
40791W        W 5952   9.635  27.126  13.778
40792W        W 5953  37.648  40.480  13.400
40793W        W 5954  12.387   9.336  13.439
40794W        W 5955   2.072   7.184   0.418
40795W        W 5956  10.045  30.509   5.008
40796W        W 5957  43.513  23.166  10.719
40797W        W 5958  33.911  27.784   3.887
40798W        W 5959  25.456  15.401   0.005
40799W        W 5960  43.644   8.017   0.957
40800W        W 5961  41.333  20.460  14.378
40801W        W 5962   0.031  23.928  13.872
40802W        W 5963  21.281   4.895   0.834
40803W        W 5964   5.933  44.855   1.304
40804W        W 5965  35.016   6.782   0.776
40805W        W 5966  42.105  24.604   2.403
40806W        W 5967  24.800  43.709   3.145
40807W        W 5968  42.380  18.295  12.569
40808W        W 5969  13.281  43.995  12.968
40809W        W 5970  35.032  32.357   2.862
40810W        W 5971   3.784   0.149  12.573
40811W        W 5972  17.230  11.780  13.392
40812W        W 5973  32.107  40.262  11.584
40813W        W 5974  25.657  21.888   5.343
40814W        W 5975   4.266  34.833  11.520
40815W        W 5976  31.930  18.879  14.333
40816W        W 5977  43.497  17.542   0.660
40817W        W 5978  41.869  10.635  13.459
40818W        W 5979  21.325  44.962  12.304
40819W        W 5980  38.019  14.166   0.817
40820W        W 5981  41.753   2.822   2.291
40821W        W 5982   3.195  24.669   2.193
40822W        W 5983  22.310  20.722  10.648
40823W        W 5984   1.010  27.677   0.950
40824W        W 5985  33.940   3.780   0.852
40825W        W 5986   9.103  32.640   4.814
40826W        W 5987  14.540   6.665   2.352
40827W        W 5988   8.532   2.993  11.458
40828W        W 5989  13.819  33.159   4.173
40829W        W 5990  16.344  34.674  11.143
40830W        W 5991  14.306  32.436   1.214
40831W        W 5992  35.476  39.269   1.438
40832W        W 5993  12.926  26.978  13.974
40833W        W 5994   6.748  25.729   2.287
40834W        W 5995  25.951  21.756  12.072
40835W        W 5996  39.461   0.015  13.560
40836W        W 5997  40.399   1.461  11.249
40837W        W 5998  42.551   6.228  11.882
40838W        W 5999   7.870  38.471  14.992
40839W        W 6000  13.983  38.485   1.156
40840W        W 6001   6.772  36.652  11.134
40841W        W 6002   2.834  11.091  13.106
40842W        W 6003  43.886   2.351   4.539
40843W        W 6004  18.747  26.572  12.550
40844W        W 6005  34.525   1.627   0.318
40845W        W 6006  29.127  24.282  14.449
40846W        W 6007  31.401  13.887  10.757
40847W        W 6008  31.845  40.472  12.004
40848W        W 6009  17.104  28.669   4.208
40849W        W 6010   2.077  10.682  10.652
40850W        W 6011  22.120   7.840  14.583
40851W        W 6012   2.799  15.203   1.379
40852W        W 6013  20.009  10.762  14.712
40853W        W 6014   7.466  19.678  13.831
40854W        W 6015  20.386  22.277   0.632
40855W        W 6016  19.818  18.005   3.793
40856W        W 6017   4.542  41.000   1.205
40857W        W 6018   4.912   9.829  14.374
40858W        W 6019   9.685  34.131  13.137
40859W        W 6020  43.776   3.871  14.097
40860W        W 6021  44.281   9.229  12.409
40861W        W 6022  37.104  12.816  14.539
40862W        W 6023  30.376  43.440  14.103
40863W        W 6024  16.712   1.379  11.502
40864W        W 6025  24.548  17.520  11.215
40865W        W 6026  16.738  21.204  10.920
40866W        W 6027  19.437  32.341   4.728
40867W        W 6028  33.355  27.128  14.339
40868W        W 6029  11.657  26.717   3.221
40869W        W 6030   5.507  23.539   2.297
40870W        W 6031  24.437  34.922   1.354
40871W        W 6032  41.406  25.779   1.945
40872W        W 6033  28.118  14.003   4.071
40873W        W 6034  33.941   1.782   3.395
40874W        W 6035  28.763  43.400  12.793
40875W        W 6036  27.905  23.175  13.025
40876W        W 6037  38.029  27.046   0.234
40877W        W 6038  38.094  26.438  13.076
40878W        W 6039   8.620  22.059   3.550
40879W        W 6040  31.511  42.979   4.292
40880W        W 6041  34.394  33.002  12.668
40881W        W 6042  42.944  10.316   1.885
40882W        W 6043  14.406  19.826  12.918
40883W        W 6044  39.895  15.484  13.852
40884W        W 6045  39.733  23.778   0.211
40885W        W 6046   4.425  28.495   0.493
40886W        W 6047  29.623  33.892  10.793
40887W        W 6048  32.019  27.707   4.962
40888W        W 6049  35.491  32.601  11.085
40889W        W 6050  23.099   5.390   3.201
40890W        W 6051  13.120  32.427  11.912
40891W        W 6052   1.891  39.091  11.535
40892W        W 6053  24.545  21.526   1.289
40893W        W 6054  29.976   6.408   1.625
40894W        W 6055   3.670  37.455   3.349
40895W        W 6056  35.925   4.483   3.788
40896W        W 6057  19.764  31.369  12.441
40897W        W 6058   3.386  30.490  13.404
40898W        W 6059   0.542  12.122  14.807
40899W        W 6060  10.779   4.998  14.327
40900W        W 6061   6.221  39.381   1.247
40901W        W 6062  15.749  16.283   1.180
40902W        W 6063  40.122  21.074  10.273
40903W        W 6064  21.238  30.221   3.745
40904W        W 6065  15.743   2.693  14.778
40905W        W 6066   1.413  24.714  13.860
40906W        W 6067  16.107   5.756  12.358
40907W        W 6068  30.493  31.356   3.119
40908W        W 6069   0.547   3.541   3.163
40909W        W 6070   9.604   2.265   2.716
40910W        W 6071  43.837  39.291  14.362
40911W        W 6072  25.593  18.260   0.422
40912W        W 6073   5.902   8.171   1.701
40913W        W 6074  44.592  16.617   1.976
40914W        W 6075   8.629  23.395   3.366
40915W        W 6076   8.826  18.213  12.138
40916W        W 6077  22.512  15.938   0.418
40917W        W 6078  32.873  33.327   0.629
40918W        W 6079  23.288   5.210  11.416
40919W        W 6080  12.834   8.784  14.041
40920W        W 6081  23.925   4.223  11.686
40921W        W 6082  33.722  23.669   5.536
40922W        W 6083   6.734  14.355   3.643
40923W        W 6084  44.720  31.548  11.219
40924W        W 6085   6.372  35.375  11.195
40925W        W 6086   6.677  25.901  14.596
40926W        W 6087  22.959  15.725   3.409
40927W        W 6088   0.414  23.277   4.181
40928W        W 6089  42.902  22.964  11.465
40929W        W 6090  22.572  39.480   3.760
40930W        W 6091  14.588  43.162   4.976
40931W        W 6092  19.857  21.172   2.707
40932W        W 6093   1.379  10.378  14.360
40933W        W 6094   1.537   8.083  10.766
40934W        W 6095  29.993   4.398  11.356
40935W        W 6096   5.673  28.641  13.343
40936W        W 6097  37.152  13.218   4.162
40937W        W 6098  19.117  11.112   2.595
40938W        W 6099   1.512   4.002  12.954
40939W        W 6100   7.469  42.356  13.888
40940W        W 6101   1.318  44.863  12.101
40941W        W 6102  36.060  22.387   0.972
40942W        W 6103  10.642  25.037  10.702
40943W        W 6104  36.487  42.217   2.757
40944W        W 6105  38.760  10.182   3.577
40945W        W 6106  24.166  36.977   3.815
40946W        W 6107  27.995  23.054   5.074
40947W        W 6108  31.447  17.234   2.344
40948W        W 6109  10.028  35.117   2.118
40949W        W 6110  15.327  16.545  13.983
40950W        W 6111   4.247  24.566   4.668
40951W        W 6112  16.112  27.121   3.781
40952W        W 6113  44.949  37.170  11.681
40953W        W 6114  31.299   2.470  11.190
40954W        W 6115  14.085  12.168  14.858
40955W        W 6116  12.023   3.929   0.361
40956W        W 6117  35.082  37.831   2.303
40957W        W 6118  35.997  10.210   2.853
40958W        W 6119  19.757   0.003  14.504
40959W        W 6120  22.250  29.663  10.368
40960W        W 6121  39.361  38.056  10.373
40961W        W 6122  28.655  23.019  14.549
40962W        W 6123  40.353  11.728   2.378
40963W        W 6124  43.883   7.212   2.687
40964W        W 6125  38.067   0.048   1.779
40965W        W 6126   4.080  44.802  14.048
40966W        W 6127  17.172  42.556   4.041
40967W        W 6128  14.551  30.003   0.933
40968W        W 6129  38.082  27.824   3.266
40969W        W 6130  44.875  23.174   3.604
40970W        W 6131  17.348   0.882   4.597
40971W        W 6132  12.795  33.640   0.629
40972W        W 6133   6.829  12.211   0.013
40973W        W 6134  37.746   0.963  12.977
40974W        W 6135   7.368  29.412  13.284
40975W        W 6136  28.370  20.739   2.208
40976W        W 6137   4.770  29.816  14.725
40977W        W 6138  44.843   4.363   4.248
40978W        W 6139   8.229  20.830   0.847
40979W        W 6140  16.626   7.136  13.850
40980W        W 6141  44.721  12.108   4.281
40981W        W 6142  14.729  18.795   4.163
40982W        W 6143   1.517  33.172  14.317
40983W        W 6144  42.834  19.073   2.301
40984W        W 6145  37.446  39.295   0.360
40985W        W 6146  15.022  37.163   4.890
40986W        W 6147   9.101  27.614  12.497
40987W        W 6148  29.616  44.678  10.211
40988W        W 6149  42.360  39.722   0.558
40989W        W 6150  20.027  28.645   3.709
40990W        W 6151  41.082  36.553  10.116
40991W        W 6152  14.364   6.660   4.768
40992W        W 6153  33.654  29.696   5.010
40993W        W 6154  30.959  20.561  14.856
40994W        W 6155  28.949  28.705  11.082
40995W        W 6156   2.331  37.419  12.684
40996W        W 6157  19.351  30.389   2.410
40997W        W 6158  35.294  36.153   3.176
40998W        W 6159  10.537  15.336  13.579
40999W        W 6160  28.230   8.857  12.413
41000W        W 6161   3.005  15.236   3.294
41001W        W 6162   2.039   3.237   0.831
41002W        W 6163  40.014   3.269   0.886
41003W        W 6164  21.905  18.971  10.294
41004W        W 6165  40.406  12.529  10.838
41005W        W 6166  16.459  27.338   2.822
41006W        W 6167  19.272  20.633  12.543
41007W        W 6168  28.926  24.190   3.620
41008W        W 6169  17.887   0.349   1.512
41009W        W 6170  34.412  31.244   2.217
41010W        W 6171  32.943  19.098   4.874
41011W        W 6172  30.686  21.158   0.988
41012W        W 6173  32.129  34.110   4.660
41013W        W 6174  32.138  16.085   0.818
41014W        W 6175  30.852  36.990  12.485
41015W        W 6176  13.267  27.576   0.486
41016W        W 6177  26.848   8.367   3.931
41017W        W 6178  14.036  42.607   3.020
41018W        W 6179  32.945  37.411   9.729
41019W        W 6180  30.351  28.552  10.610
41020W        W 6181  28.597  30.934  14.495
41021W        W 6182  37.327  24.237   1.744
41022W        W 6183  44.950  27.030  11.696
41023W        W 6184  39.258   6.128  10.632
41024W        W 6185  38.698  43.437   1.846
41025W        W 6186  40.507  15.483  12.982
41026W        W 6187   0.315  39.990   1.399
41027W        W 6188  20.608  11.823  13.596
41028W        W 6189  27.052  18.198   0.793
41029W        W 6190  14.339  15.202   3.467
41030W        W 6191  16.859  11.535  11.222
41031W        W 6192   1.023  44.628   3.585
41032W        W 6193  36.290  11.392  14.421
41033W        W 6194  40.097  24.254  11.226
41034W        W 6195  12.532  43.273   3.107
41035W        W 6196  21.739  17.581  14.743
41036W        W 6197  36.207   6.622   2.274
41037W        W 6198   3.428   3.747   1.437
41038W        W 6199  17.381  41.540   1.255
41039W        W 6200  22.100  41.946   3.910
41040W        W 6201  42.504   5.612   2.382
41041W        W 6202  19.258  14.139   4.243
41042W        W 6203  34.903  23.486   3.216
41043W        W 6204  21.945  10.423   1.517
41044W        W 6205   8.516  10.892  12.532
41045W        W 6206   7.420  16.104  13.533
41046W        W 6207  32.982  38.802  12.283
41047W        W 6208  32.092   2.201   5.041
41048W        W 6209  25.272  26.735  11.549
41049W        W 6210  21.529  11.559  11.616
41050W        W 6211   7.917  12.469  12.586
41051W        W 6212  38.032  14.438  13.812
41052W        W 6213  19.511  31.063  11.009
41053W        W 6214  33.329  27.022   4.732
41054W        W 6215  35.837  31.769  10.711
41055W        W 6216   5.673  42.609   0.386
41056W        W 6217  44.680  25.519   3.688
41057W        W 6218  41.865  26.730  13.052
41058W        W 6219  41.768  37.236  10.445
41059W        W 6220   7.309  44.803  13.838
41060W        W 6221  41.921  44.998   0.971
41061W        W 6222  37.043  29.416   1.482
41062W        W 6223  40.826  27.970   0.471
41063W        W 6224  39.994  39.145   1.486
41064W        W 6225  36.613  17.108   4.495
41065W        W 6226  16.697  43.773  11.033
41066W        W 6227   9.286  18.176   2.273
41067W        W 6228  26.008   3.709  14.240
41068W        W 6229  30.681   5.161   3.993
41069W        W 6230   8.449   3.421   2.070
41070W        W 6231  10.051  12.892   3.423
41071W        W 6232  17.105  29.861   5.042
41072W        W 6233   4.884  26.732   2.862
41073W        W 6234   3.844   8.849  12.113
41074W        W 6235  40.930  38.610  12.854
41075W        W 6236  18.060  26.403  14.055
41076W        W 6237  28.991  26.032  13.624
41077W        W 6238  19.788   4.914   4.798
41078W        W 6239  23.091  37.058   0.094
41079W        W 6240   6.425  35.931   0.917
41080W        W 6241  33.861  43.432   1.508
41081W        W 6242  44.019  14.828   1.291
41082W        W 6243  12.288  34.826   0.427
41083W        W 6244  15.325   9.548   0.980
41084W        W 6245  19.273  38.872  14.344
41085W        W 6246  15.770  16.368  10.269
41086W        W 6247   8.323   8.091  14.091
41087W        W 6248   2.290  42.793  10.277
41088W        W 6249  23.604  19.826   2.647
41089W        W 6250   7.952  42.489  13.909
41090W        W 6251  30.985   6.793  14.990
41091W        W 6252  11.868  10.174  12.171
41092W        W 6253  43.181  23.023  12.279
41093W        W 6254  20.502   2.966   2.924
41094W        W 6255   4.863  24.844  13.680
41095W        W 6256  30.615   1.989  14.910
41096W        W 6257   4.166  18.249   4.110
41097W        W 6258  40.246  24.800  12.077
41098W        W 6259  27.008   7.009   4.582
41099W        W 6260  41.372  13.936   1.773
41100W        W 6261  12.174  40.614   1.707
41101W        W 6262   0.793   5.332   0.672
41102W        W 6263  42.271  25.037  10.861
41103W        W 6264  18.525  33.167  11.058
41104W        W 6265   4.906   1.984  10.288
41105W        W 6266  33.456  38.237   5.426
41106W        W 6267  20.454  41.374   4.204
41107W        W 6268   4.530   0.020  13.893
41108W        W 6269  18.765   6.318   2.707
41109W        W 6270  20.592   2.630   0.820
41110W        W 6271  29.932  28.974   3.248
41111W        W 6272  20.571  29.635  12.944
41112W        W 6273  20.790  19.078  11.874
41113W        W 6274  42.475  42.406   2.585
41114W        W 6275  38.962  42.370   2.825
41115W        W 6276   9.596  30.024  13.497
41116W        W 6277  12.573  40.531  12.485
41117W        W 6278  29.420  32.108   4.559
41118W        W 6279  26.059   1.260  11.897
41119W        W 6280  19.123   8.331  13.772
41120W        W 6281  12.903  44.977   4.683
41121W        W 6282   3.363  14.780  12.160
41122W        W 6283  17.651   0.273  10.975
41123W        W 6284   4.235  35.433  12.548
41124W        W 6285  23.073  39.598   3.896
41125W        W 6286  44.045   6.366  12.376
41126W        W 6287  35.650   5.667  12.439
41127W        W 6288   4.310  18.941  12.347
41128W        W 6289  38.511  34.120   2.185
41129W        W 6290  26.434  30.009  12.541
41130W        W 6291   3.156  36.493   4.148
41131W        W 6292   9.645  21.808  13.262
41132W        W 6293  30.601   6.424  10.960
41133W        W 6294  12.575  29.887  10.798
41134W        W 6295  22.760  41.351   3.758
41135W        W 6296  16.319  24.093   2.260
41136W        W 6297  10.260  28.278   3.068
41137W        W 6298  30.561  31.891   3.173
41138W        W 6299   0.005  28.124  12.516
41139W        W 6300   3.575  23.614   3.786
41140W        W 6301  35.077   8.171   0.930
41141W        W 6302   3.981  43.940   4.180
41142W        W 6303  37.252  22.262  10.304
41143W        W 6304  24.462  12.343  13.309
41144W        W 6305  30.655   4.856   2.300
41145W        W 6306  40.986  11.703  13.928
41146W        W 6307  10.083   8.708   0.543
41147W        W 6308  21.732  21.251  14.949
41148W        W 6309  34.555  12.306   0.974
41149W        W 6310  28.983   7.854   4.879
41150W        W 6311  39.638   4.013  13.399
41151W        W 6312   5.431  29.724  12.063
41152W        W 6313  12.671  23.703  11.157
41153W        W 6314  17.189  44.475  11.061
41154W        W 6315  37.782  25.138   5.106
41155W        W 6316  19.810  30.855  10.625
41156W        W 6317  36.795  40.692   2.412
41157W        W 6318  23.302  42.567   1.386
41158W        W 6319  28.597   4.545  14.866
41159W        W 6320  30.515  32.938  11.114
41160W        W 6321   3.369   6.127  13.885
41161W        W 6322  19.792  31.092   4.197
41162W        W 6323   6.191  14.633  11.914
41163W        W 6324  35.708   6.676   3.058
41164W        W 6325  22.321   9.077  12.563
41165W        W 6326  14.126   8.188   1.746
41166W        W 6327  31.383  22.074  10.516
41167W        W 6328  14.195  42.704   3.903
41168W        W 6329  36.884  37.285  11.843
41169W        W 6330  13.995  25.201   0.514
41170W        W 6331  27.654  44.168  10.787
41171W        W 6332  37.124  33.902   0.865
41172W        W 6333  32.414  22.999  12.487
41173W        W 6334  21.005  24.072  11.604
41174W        W 6335  25.132   9.702  14.271
41175W        W 6336  41.296  44.397  14.441
41176W        W 6337  41.573  26.011   0.922
41177W        W 6338   7.309  21.492   3.569
41178W        W 6339  38.059   4.140  13.923
41179W        W 6340   8.708  21.993   4.071
41180W        W 6341  13.815  19.269   3.868
41181W        W 6342  35.997   4.475  13.855
41182W        W 6343  18.231  28.955   0.726
41183W        W 6344  18.185   9.314   4.448
41184W        W 6345   0.499  20.574  14.754
41185W        W 6346  22.178  30.952   3.334
41186W        W 6347  42.223   1.183  12.648
41187W        W 6348  44.695   1.913   1.435
41188W        W 6349   6.019   6.174   4.490
41189W        W 6350  37.330  12.628   1.908
41190W        W 6351  41.982  30.372   2.434
41191W        W 6352  19.769   3.738  12.678
41192W        W 6353  44.893  28.715  11.782
41193W        W 6354  31.625  16.719   1.433
41194W        W 6355  31.160   7.186   3.145
41195W        W 6356  16.550  34.620   3.104
41196W        W 6357  37.924   6.546  13.387
41197W        W 6358  21.005   6.721   2.268
41198W        W 6359   7.069  24.089   3.526
41199W        W 6360  40.984  18.164   0.711
41200W        W 6361  27.311  44.809   3.274
41201W        W 6362  34.052  17.638  10.522
41202W        W 6363  30.094  11.013   3.655
41203W        W 6364  22.672   9.777  11.471
41204W        W 6365   1.775   9.821  12.049
41205W        W 6366  10.736   5.995  11.270
41206W        W 6367  40.011  30.962   5.026
41207W        W 6368  28.790  19.762  11.885
41208W        W 6369   3.263   8.850   1.169
41209W        W 6370  35.325  35.364   3.912
41210W        W 6371  25.233   0.475   3.143
41211W        W 6372  29.695  30.569  14.961
41212W        W 6373  35.666  28.624  14.019
41213W        W 6374  25.486  18.671   1.187
41214W        W 6375  28.254  29.901   3.187
41215W        W 6376  11.685  29.441  12.049
41216W        W 6377  13.058   7.768   0.313
41217W        W 6378  28.552   7.526   2.329
41218W        W 6379   5.765  19.243  14.021
41219W        W 6380  29.756  29.201  13.475
41220W        W 6381  35.208  40.221  10.144
41221W        W 6382  20.834  21.377  12.872
41222W        W 6383   5.309  17.303   0.192
41223W        W 6384  12.638   9.101   1.191
41224W        W 6385   2.489  22.048  14.763
41225W        W 6386   2.185  33.525   0.973
41226W        W 6387  38.753  10.314  11.502
41227W        W 6388  14.171  15.663  12.072
41228W        W 6389  37.792  37.075   1.985
41229W        W 6390  33.775  23.301   4.093
41230W        W 6391   9.135  18.422   4.551
41231W        W 6392  11.997  24.776  11.415
41232W        W 6393  15.542  42.537  11.625
41233W        W 6394   5.665  30.100   2.767
41234W        W 6395  18.595  44.028   2.858
41235W        W 6396  20.366  17.472  14.072
41236W        W 6397  23.969  24.458   4.179
41237W        W 6398  32.825  38.769  14.448
41238W        W 6399   2.279  33.518  11.516
41239W        W 6400  17.816  20.496   4.640
41240W        W 6401  31.166  23.633  13.054
41241W        W 6402  26.917  21.473  14.687
41242W        W 6403   8.781  23.260   2.461
41243W        W 6404  25.622  19.252  13.051
41244W        W 6405   4.321  24.979   2.625
41245W        W 6406  26.171  22.605  11.482
41246W        W 6407  39.953  32.941   3.130
41247W        W 6408   2.044   6.827  12.436
41248W        W 6409  23.869  37.306   3.557
41249W        W 6410   6.197  25.053   5.138
41250W        W 6411  34.468  28.404   0.282
41251W        W 6412  39.792   7.188  11.640
41252W        W 6413  27.702  26.327  10.238
41253W        W 6414  39.333  27.069  12.918
41254W        W 6415  18.346  36.032  12.068
41255W        W 6416  11.423  28.791  14.744
41256W        W 6417  25.241  14.215  12.103
41257W        W 6418   2.999   2.396   2.467
41258W        W 6419   2.489   2.989  14.022
41259W        W 6420  34.047  28.533  13.967
41260W        W 6421   1.798  43.681  12.441
41261W        W 6422  20.611   3.156   0.818
41262W        W 6423   6.700   0.372  13.404
41263W        W 6424  30.687  16.691  10.712
41264W        W 6425  20.353  39.450  13.429
41265W        W 6426  44.067  23.213   0.903
41266W        W 6427  15.730  26.204   1.737
41267W        W 6428  28.466  30.836  10.759
41268W        W 6429   0.298  25.378   0.851
41269W        W 6430  18.294  25.480   2.902
41270W        W 6431  19.102  20.105  14.284
41271W        W 6432  16.260  24.426  11.950
41272W        W 6433  23.042  27.632   2.615
41273W        W 6434  26.692   1.920  13.941
41274W        W 6435  38.805  24.649  13.428
41275W        W 6436  24.531   1.068  14.796
41276W        W 6437  40.912  39.959  12.401
41277W        W 6438  17.738  30.709   4.120
41278W        W 6439  10.054  39.570  10.971
41279W        W 6440  25.110  24.987   3.227
41280W        W 6441   3.613  18.819   2.743
41281W        W 6442  18.464  41.320  13.853
41282W        W 6443   6.331  18.512  10.393
41283W        W 6444  35.276   7.046   3.577
41284W        W 6445  23.394  28.849  11.142
41285W        W 6446  39.714   4.530  13.508
41286W        W 6447  21.232  32.569  12.551
41287W        W 6448  23.083  25.667   0.787
41288W        W 6449  22.782  21.053   4.494
41289W        W 6450  40.923  35.174   0.214
41290W        W 6451  32.402   4.548  10.800
41291W        W 6452  36.394  37.207  12.013
41292W        W 6453  43.979  40.488   2.772
41293W        W 6454   3.287  41.417   3.594
41294W        W 6455   4.444  32.346  13.931
41295W        W 6456  18.253  10.921  12.438
41296W        W 6457  10.471  43.925  11.077
41297W        W 6458  31.431  27.889  13.575
41298W        W 6459  32.839  19.068   1.858
41299W        W 6460  30.143   6.149   0.674
41300W        W 6461   6.402  17.012  12.713
41301W        W 6462  31.557  34.609  13.491
41302W        W 6463  15.536   5.018  12.453
41303W        W 6464  23.716  23.442  14.900
41304W        W 6465   2.665   8.349  12.202
41305W        W 6466  14.916  34.641  14.882
41306W        W 6467  10.331  43.634  14.383
41307W        W 6468  44.838  28.052  12.004
41308W        W 6469   7.785  33.335   1.762
41309W        W 6470  26.022  19.596  13.094
41310W        W 6471  16.683  16.680   2.727
41311W        W 6472   6.683   4.170  14.435
41312W        W 6473  34.971  14.153   1.940
41313W        W 6474   1.256  39.647   2.883
41314W        W 6475  11.374  14.363   2.879
41315W        W 6476  22.967  19.162   1.895
41316W        W 6477  37.546  40.867   0.765
41317W        W 6478   1.986  13.369  14.099
41318W        W 6479  21.674   4.200   4.360
41319W        W 6480  39.754  26.130  12.254
41320W        W 6481   8.154  21.176  12.562
41321W        W 6482  39.902   0.440  14.201
41322W        W 6483  12.890  14.446   0.929
41323W        W 6484   7.348   2.992  10.774
41324W        W 6485  28.604  10.701  14.605
41325W        W 6486   4.011  33.450  10.589
41326W        W 6487  26.639  16.324   4.207
41327W        W 6488  35.012   8.554  12.728
41328W        W 6489  26.954   2.825   1.797
41329W        W 6490  35.497  14.823  12.048
41330W        W 6491  35.928  36.605   1.947
41331W        W 6492  26.257  41.480  11.649
41332W        W 6493  28.379  12.669  10.716
41333W        W 6494  36.564  39.945  10.258
41334W        W 6495   9.377  25.329  10.160
41335W        W 6496  32.881  15.079   1.912
41336W        W 6497  42.799  35.471  12.959
41337W        W 6498   5.939   9.089   1.914
41338W        W 6499  33.908  26.201  13.326
41339W        W 6500   3.681  19.914   0.372
41340W        W 6501   9.348   2.778  13.035
41341W        W 6502  33.820  15.047   2.657
41342W        W 6503  36.085  36.092  14.085
41343W        W 6504  34.003  16.459   1.301
41344W        W 6505  40.049  12.873  11.607
41345W        W 6506  34.833  26.202  14.818
41346W        W 6507   9.424  16.002   0.065
41347W        W 6508  13.078  11.155   2.307
41348W        W 6509  14.185  17.120   1.006
41349W        W 6510  12.345  31.888  11.205
41350W        W 6511  17.540   6.439   2.196
41351W        W 6512  28.047  11.991  10.268
41352W        W 6513  20.786  28.618   1.286
41353W        W 6514  25.285  36.961  10.631
41354W        W 6515  34.605  24.175   0.677
41355W        W 6516  43.906  16.492  14.165
41356W        W 6517  13.576  28.338  10.720
41357W        W 6518  10.363  18.799   1.658
41358W        W 6519  19.787  26.948  13.028
41359W        W 6520  33.947   2.258   3.637
41360W        W 6521  26.654  12.890  13.915
41361W        W 6522  17.045  30.130  12.172
41362W        W 6523  28.587  12.740   3.266
41363W        W 6524  32.615  28.552   3.328
41364W        W 6525   8.080  20.027   0.368
41365W        W 6526   0.378  18.515  11.976
41366W        W 6527  30.382  24.106   0.422
41367W        W 6528  13.680  43.664  11.527
41368W        W 6529  23.416   5.832   3.197
41369W        W 6530   7.003   6.686   4.510
41370W        W 6531  28.701  22.171   3.730
41371W        W 6532  40.026   5.328   4.515
41372W        W 6533  37.497   2.807  13.971
41373W        W 6534  40.955  35.507  12.026
41374W        W 6535  23.127  14.735  12.007
41375W        W 6536   9.724   0.624  13.478
41376W        W 6537  20.157  11.593   1.829
41377W        W 6538  17.232   1.241   2.746
41378W        W 6539  32.010  12.354   1.525
41379W        W 6540   5.648  27.355   5.222
41380W        W 6541   6.624  41.937  11.024
41381W        W 6542  41.562  17.185  12.447
41382W        W 6543  35.837  34.643  12.627
41383W        W 6544  34.448  33.201  12.162
41384W        W 6545  10.036  21.512  12.484
41385W        W 6546  26.023   7.742  10.593
41386W        W 6547  10.198  11.743  14.477
41387W        W 6548   3.958   6.892  12.890
41388W        W 6549  11.833  30.828   0.250
41389W        W 6550   1.378  32.937   3.080
41390W        W 6551  44.960  25.774   2.726
41391W        W 6552  33.946  25.738  10.698
41392W        W 6553   2.346   6.229   2.405
41393W        W 6554  42.300   4.563  11.223
41394W        W 6555  18.672  31.500   1.929
41395W        W 6556  17.790  22.532   3.367
41396W        W 6557  19.469  26.920  14.365
41397W        W 6558  21.141  38.437   4.223
41398W        W 6559   8.921  16.249   3.823
41399W        W 6560  25.963  23.534  11.146
41400W        W 6561   1.844  16.851   4.014
41401W        W 6562  15.996  28.758   3.540
41402W        W 6563  18.368  23.657  13.476
41403W        W 6564  16.023  19.654  13.481
41404W        W 6565  35.956   3.142  12.167
41405W        W 6566  31.094  29.086  10.627
41406W        W 6567  16.504  44.884  12.909
41407W        W 6568   0.327  21.554   2.904
41408W        W 6569  13.523  37.063   4.159
41409W        W 6570   1.533  42.792   2.287
41410W        W 6571  21.791  18.620  14.753
41411W        W 6572  30.497   1.031   0.738
41412W        W 6573  33.416   7.893   3.691
41413W        W 6574  22.032  19.327  12.450
41414W        W 6575  21.490   4.906   3.216
41415W        W 6576  21.108  42.251  10.700
41416W        W 6577  32.125  22.513  12.215
41417W        W 6578   5.369  41.633   2.541
41418W        W 6579  39.121  36.834  11.219
41419W        W 6580  37.507  19.507  10.719
41420W        W 6581  33.370   9.696  11.614
41421W        W 6582   9.693  26.858   2.086
41422W        W 6583  42.921  16.510   0.069
41423W        W 6584  30.213  34.184  12.639
41424W        W 6585   8.988   3.137   0.012
41425W        W 6586  31.516  44.080   1.801
41426W        W 6587  10.286  22.992  11.967
41427W        W 6588  10.580  20.191  11.685
41428W        W 6589  42.768  12.552  11.578
41429W        W 6590  32.408  16.206   0.378
41430W        W 6591   3.033  21.268  11.508
41431W        W 6592  37.893   4.272   3.243
41432W        W 6593  31.068  41.123   2.588
41433W        W 6594  11.817   8.313  12.032
41434W        W 6595  32.070   0.767   1.093
41435W        W 6596  31.961   1.970  14.227
41436W        W 6597   6.618  19.061  12.454
41437W        W 6598  20.517   0.562   1.813
41438W        W 6599  15.728  35.855  13.495
41439W        W 6600  38.173  10.670  12.291
41440W        W 6601  34.273  15.017  12.058
41441W        W 6602   2.499   9.221   1.340
41442W        W 6603   8.402   0.887  12.010
41443W        W 6604   2.462  22.054   0.830
41444W        W 6605  40.552   3.198  12.903
41445W        W 6606  33.329  29.379   1.787
41446W        W 6607   9.342  32.152   1.798
41447W        W 6608   5.329  43.803  14.804
41448W        W 6609  26.515  16.415   0.305
41449W        W 6610  20.980  17.208  14.101
41450W        W 6611  30.268  38.799  11.559
41451W        W 6612  41.450  30.881  13.483
41452W        W 6613  31.609   0.223  13.974
41453W        W 6614  24.149  15.402   4.621
41454W        W 6615  26.657  29.253  11.519
41455W        W 6616   8.227  43.639   4.572
41456W        W 6617  13.603  11.619   4.154
41457W        W 6618   1.151  19.600  10.772
41458W        W 6619   8.119   3.279   3.741
41459W        W 6620   9.392  38.006   2.639
41460W        W 6621  32.363  18.003  14.472
41461W        W 6622  17.590  25.027   1.249
41462W        W 6623  42.977   8.392   4.613
41463W        W 6624   1.315  11.706   1.470
41464W        W 6625   0.980  14.254  13.569
41465W        W 6626   0.855  44.982  11.902
41466W        W 6627  43.387  13.681   3.694
41467W        W 6628  18.769   9.248  14.031
41468W        W 6629  16.269   8.134  11.053
41469W        W 6630  12.037  23.675   0.952
41470W        W 6631  33.165  13.389  10.860
41471W        W 6632  44.670  15.635   4.347
41472W        W 6633  35.325  21.192   3.678
41473W        W 6634   6.872  15.882  12.005
41474W        W 6635  17.059  34.548   1.581
41475W        W 6636  27.494  32.642   0.030
41476W        W 6637  24.442  23.528   0.415
41477W        W 6638  32.644   2.620  11.985
41478W        W 6639  40.553  19.609   3.204
41479W        W 6640  20.919   7.671  13.940
41480W        W 6641   2.836  13.150  13.557
41481W        W 6642  26.667  20.598  13.129
41482W        W 6643  14.343  42.735  12.509
41483W        W 6644  13.163   7.498   3.607
41484W        W 6645   9.414  18.661   0.762
41485W        W 6646  35.073   0.452  13.573
41486W        W 6647   5.024   4.287  12.535
41487W        W 6648  27.747  14.319  14.245
41488W        W 6649   9.351  36.495  13.509
41489W        W 6650   6.217  15.830  11.526
41490W        W 6651   6.352  12.927  12.917
41491W        W 6652  27.884  37.569  13.928
41492W        W 6653  38.842  15.221  13.049
41493W        W 6654  17.220   1.168  13.980
41494W        W 6655  37.943  13.032   1.201
41495W        W 6656  15.555  34.051  14.073
41496W        W 6657  31.095  29.067  11.526
41497W        W 6658  22.949  11.093  12.904
41498W        W 6659  31.114  43.677  14.527
41499W        W 6660  43.744  12.541  11.688
41500W        W 6661  20.694  37.280   4.599
41501W        W 6662  18.688  41.863   3.590
41502W        W 6663  11.997  30.520  12.128
41503W        W 6664  44.759  10.887   0.116
41504W        W 6665  36.090  26.085  13.423
41505W        W 6666  24.503  42.004   3.648
41506W        W 6667  42.850  35.809  13.374
41507W        W 6668  35.591   0.049   0.950
41508W        W 6669  41.719  30.136   1.861
41509W        W 6670  19.144   0.917   4.611
41510W        W 6671  22.577  39.283  12.686
41511W        W 6672   7.901   5.227   0.917
41512W        W 6673  33.966  44.428   2.392
41513W        W 6674  35.067  36.043  14.176
41514W        W 6675  42.430  43.946  11.638
41515W        W 6676  40.126   8.378  14.903
41516W        W 6677   0.955   6.954   4.138
41517W        W 6678  40.295  25.236   0.508
41518W        W 6679  20.554  20.512  13.090
41519W        W 6680  17.452  36.362   0.028
41520W        W 6681  29.994  21.108   4.206
41521W        W 6682   9.290  24.578  14.666
41522W        W 6683  23.958  35.889  13.831
41523W        W 6684   9.127  19.766  12.903
41524W        W 6685  41.527  42.656  13.904
41525W        W 6686  29.585  34.347  11.640
41526W        W 6687  38.518   8.782  14.241
41527W        W 6688   8.759   0.665   4.023
41528W        W 6689  23.977   1.923  14.694
41529W        W 6690  39.634  25.100  14.437
41530W        W 6691  32.175  16.187  11.672
41531W        W 6692  40.389  31.289   3.644
41532W        W 6693  23.618   2.603   1.809
41533W        W 6694  26.939  44.787   3.651
41534W        W 6695   2.789  33.142   2.626
41535W        W 6696  13.581  16.928   2.751
41536W        W 6697  18.001  17.813  12.975
41537W        W 6698  32.141  22.115  12.947
41538W        W 6699  25.202   9.007   1.622
41539W        W 6700  42.237  29.925   2.325
41540W        W 6701  28.530   7.315  13.802
41541W        W 6702  19.977  26.455   3.660
41542W        W 6703  39.899  34.163  13.886
41543W        W 6704  16.246   6.247  11.677
41544W        W 6705   5.734  29.179   1.144
41545W        W 6706  32.969  16.629   0.907
41546W        W 6707  28.444  12.251   3.480
41547W        W 6708  43.065   7.538  13.636
41548W        W 6709   8.170  37.791  12.538
41549W        W 6710   7.683  21.057  12.386
41550W        W 6711   0.909  23.857   0.149
41551W        W 6712  27.966  27.085  14.452
41552W        W 6713  31.757   1.051  14.858
41553W        W 6714  18.683  35.433  14.834
41554W        W 6715  34.551  38.790  14.015
41555W        W 6716   5.984  38.379   0.995
41556W        W 6717  26.756  34.019  13.791
41557W        W 6718  16.381   8.933  11.978
41558W        W 6719  32.934  24.076  14.302
41559W        W 6720  31.884  10.359   2.984
41560W        W 6721  35.699  11.421  12.556
41561W        W 6722  37.533  15.636  14.153
41562W        W 6723  20.198  33.325  12.106
41563W        W 6724  16.092  11.680  12.491
41564W        W 6725  30.284   0.943   1.749
41565W        W 6726  22.789  39.559  13.830
41566W        W 6727   3.439  27.587   3.994
41567W        W 6728  33.145  11.931  13.690
41568W        W 6729  35.057   3.670  13.072
41569W        W 6730  37.005  37.309   1.105
41570W        W 6731  27.733  19.479   3.201
41571W        W 6732  25.460   0.784  13.025
41572W        W 6733   8.300   4.262  13.998
41573W        W 6734  11.349  13.569   1.869
41574W        W 6735  11.069   5.025   2.664
41575W        W 6736  34.558  11.548  11.653
41576W        W 6737   7.683  37.293   0.651
41577W        W 6738  10.884  16.193   3.726
41578W        W 6739  16.157   3.473   1.762
41579W        W 6740  27.577  16.344   4.232
41580W        W 6741  30.520   3.445   4.660
41581W        W 6742  14.221  20.499   0.387
41582W        W 6743  42.417   4.315   2.695
41583W        W 6744  25.114   0.883   3.438
41584W        W 6745  38.310  37.748   0.015
41585W        W 6746  28.259  13.562   2.291
41586W        W 6747  12.763  23.186  12.486
41587W        W 6748  17.864  18.723   4.300
41588W        W 6749   8.417  18.251   4.166
41589W        W 6750   5.943  36.486  14.568
41590W        W 6751  24.062  40.793  11.107
41591W        W 6752  23.706  33.489  11.180
41592W        W 6753  43.492  32.010  14.981
41593W        W 6754  27.379   3.383   1.379
41594W        W 6755   9.726   0.818   2.947
41595W        W 6756  24.607  12.198  14.279
41596W        W 6757   6.417  44.885   4.563
41597W        W 6758  37.323   4.392   4.127
41598W        W 6759  32.561  34.346  13.024
41599W        W 6760  24.429  25.262   4.233
41600W        W 6761  26.034  12.681  14.688
41601W        W 6762  19.094  41.860  12.060
41602W        W 6763  16.565   9.759   3.199
41603W        W 6764   0.577  26.482  12.916
41604W        W 6765  16.665   0.400   0.511
41605W        W 6766  36.233  23.581  11.164
41606W        W 6767  36.179  22.475  14.337
41607W        W 6768  16.268  15.665  13.850
41608W        W 6769   8.401  12.112  13.393
41609W        W 6770  44.620  12.530   3.594
41610W        W 6771   6.694  24.605   0.451
41611W        W 6772  15.597  42.914   4.007
41612W        W 6773  41.893  15.429  12.998
41613W        W 6774  18.387  35.081   3.871
41614W        W 6775  26.859  13.256  12.720
41615W        W 6776   4.797  42.213   4.504
41616W        W 6777  15.168  25.603   2.362
41617W        W 6778   3.482   1.894   1.342
41618W        W 6779   0.474  26.570   2.876
41619W        W 6780   3.340  26.992   0.927
41620W        W 6781  39.290  19.104  14.554
41621W        W 6782  44.394  42.482  13.894
41622W        W 6783  43.499  43.323  13.320
41623W        W 6784  37.999   4.576  14.788
41624W        W 6785   2.963  23.024  12.655
41625W        W 6786   5.209  12.232   9.573
41626W        W 6787  43.062  35.007   0.855
41627W        W 6788  11.768  24.488  13.106
41628W        W 6789   2.837   6.294  14.550
41629W        W 6790  28.010  27.077   3.084
41630W        W 6791  31.795  35.427  13.908
41631W        W 6792   8.690   0.844   4.492
41632W        W 6793   1.657  24.043   2.670
41633W        W 6794  10.194  31.655   4.303
41634W        W 6795  40.309  30.826  11.164
41635W        W 6796   1.334  11.068  10.338
41636W        W 6797   3.787  32.977  11.593
41637W        W 6798  35.713   6.357   2.318
41638W        W 6799  30.026  13.720   3.105
41639W        W 6800  22.532  42.827  11.658
41640W        W 6801  13.883  24.954   4.152
41641W        W 6802  17.302  39.694  14.341
41642W        W 6803   9.279  20.770   1.484
41643W        W 6804  12.761  39.315  14.413
41644W        W 6805  18.187  22.052   2.664
41645W        W 6806  17.069  44.511   3.255
41646W        W 6807  15.838   9.727  13.058
41647W        W 6808  32.008  12.452  12.016
41648W        W 6809   1.628  32.638   1.426
41649W        W 6810  24.083  20.521   0.947
41650W        W 6811   8.812  37.642   4.837
41651W        W 6812  16.647   2.402   0.885
41652W        W 6813  20.678  44.297  12.063
41653W        W 6814  17.194  13.177   1.503
41654W        W 6815  38.293  34.859  11.947
41655W        W 6816  28.437   2.811  11.128
41656W        W 6817   3.657  12.862   5.352
41657W        W 6818  44.498  28.194  12.491
41658W        W 6819  36.915  26.045  13.011
41659W        W 6820  15.548   0.185  13.474
41660W        W 6821  39.470  14.480   1.343
41661W        W 6822   2.645   8.774  13.501
41662W        W 6823   4.412  35.476   2.476
41663W        W 6824  30.444  27.682   0.405
41664W        W 6825  33.084  14.272  10.361
41665W        W 6826  41.018  20.731  12.478
41666W        W 6827  42.867  36.304   0.877
41667W        W 6828  36.038   4.198  12.476
41668W        W 6829  37.339  16.582  11.193
41669W        W 6830  36.546  33.914  10.639
41670W        W 6831   8.324  40.732  12.632
41671W        W 6832  28.094  21.018   0.726
41672W        W 6833   7.236   8.924  13.408
41673W        W 6834  27.922  41.733   2.410
41674W        W 6835  12.173  30.344  11.677
41675W        W 6836   1.506   9.332  14.871
41676W        W 6837  14.307   1.251  14.280
41677W        W 6838   3.689  36.926  11.319
41678W        W 6839   1.749  28.056   2.718
41679W        W 6840  36.911   8.334  13.518
41680W        W 6841  15.904  26.671   1.795
41681W        W 6842  19.193  37.516   3.349
41682W        W 6843  14.630  37.943  11.682
41683W        W 6844   0.217   2.637   4.087
41684W        W 6845  29.060  44.197   0.716
41685W        W 6846  26.518  27.477  11.105
41686W        W 6847   4.431  41.873  10.509
41687W        W 6848  42.834  41.300  12.876
41688W        W 6849  22.071   0.943  10.675
41689W        W 6850  14.356  10.930  12.058
41690W        W 6851  42.289   5.424  11.459
41691W        W 6852  10.244  28.681   4.611
41692W        W 6853  35.334  37.866  13.753
41693W        W 6854   6.330  28.931   5.030
41694W        W 6855  32.555  14.040   1.428
41695W        W 6856  21.333  40.494   0.276
41696W        W 6857   6.407  17.653   1.987
41697W        W 6858  27.099  13.638   2.766
41698W        W 6859  35.328  33.210  12.344
41699W        W 6860  32.224  33.607  13.600
41700W        W 6861  15.867   8.889  13.745
41701W        W 6862  27.116  24.821   5.403
41702W        W 6863  32.042  28.476  14.881
41703W        W 6864  11.738  35.351   1.604
41704W        W 6865  38.002  27.838   4.238
41705W        W 6866   2.057  41.767  14.147
41706W        W 6867  12.139  34.711   3.198
41707W        W 6868   5.708  43.260   4.720
41708W        W 6869   6.795  26.599   3.155
41709W        W 6870   4.580  34.813  13.129
41710W        W 6871  14.807  16.629  12.377
41711W        W 6872  14.658  34.078   0.475
41712W        W 6873  33.027  36.086  11.622
41713W        W 6874  42.179  29.502   0.258
41714W        W 6875  29.271  26.840   9.958
41715W        W 6876   7.443   5.700  12.238
41716W        W 6877  14.868  36.502   3.117
41717W        W 6878  11.409  14.203   0.968
41718W        W 6879  27.598  27.854  10.257
41719W        W 6880  43.649  30.727  11.983
41720W        W 6881  35.048  31.521  10.401
41721W        W 6882  28.067  21.790  14.333
41722W        W 6883   4.585   0.561   9.936
41723W        W 6884   6.987  28.898   2.720
41724W        W 6885   3.995  26.513   1.352
41725W        W 6886   7.699   9.449   1.783
41726W        W 6887  44.963  22.464   1.924
41727W        W 6888  43.168  21.538   2.152
41728W        W 6889  38.914   5.273  11.837
41729W        W 6890  10.662  18.558   1.184
41730W        W 6891   2.338  23.506  11.566
41731W        W 6892   2.163  41.761   2.780
41732W        W 6893  34.997  32.168  12.473
41733W        W 6894  17.070   2.469  14.967
41734W        W 6895   0.717  29.145   0.345
41735W        W 6896  32.403  30.038   4.856
41736W        W 6897   9.232  16.616  13.892
41737W        W 6898  10.590  17.053   2.691
41738W        W 6899  20.578  18.198   3.119
41739W        W 6900  18.382  39.452  12.126
41740W        W 6901  20.495   9.276  13.578
41741W        W 6902  29.603  23.898  12.259
41742W        W 6903  16.065  30.532   4.284
41743W        W 6904  13.663   2.926   0.450
41744W        W 6905   7.427  14.553  13.546
41745W        W 6906  31.171  28.883   0.403
41746W        W 6907  30.982  15.467  14.320
41747W        W 6908  31.977  26.599   3.382
41748W        W 6909  28.906  12.688  11.571
41749W        W 6910  31.169  22.598  14.531
41750W        W 6911   9.885  40.280  12.828
41751W        W 6912  18.826  29.821   0.923
41752W        W 6913  18.770  14.774  13.803
41753W        W 6914  43.459  34.960   1.167
41754W        W 6915   1.618   3.339   4.191
41755W        W 6916  26.792  33.051   3.626
41756W        W 6917  12.421   4.799   3.665
41757W        W 6918  44.200  23.525   0.390
41758W        W 6919   5.379  12.058  13.417
41759W        W 6920   6.860  16.231   0.448
41760W        W 6921  41.344  14.601  13.845
41761W        W 6922  30.080  29.668  12.524
41762W        W 6923  39.008  14.336   1.091
41763W        W 6924  30.264  34.822  12.626
41764W        W 6925   8.633  23.463  12.071
41765W        W 6926  11.829  18.254  12.879
41766W        W 6927  40.764  16.744  13.462
41767W        W 6928   7.777  43.221   2.418
41768W        W 6929  20.636  15.645   0.400
41769W        W 6930  34.483  16.223   2.679
41770W        W 6931  15.361   1.765  12.146
41771W        W 6932   7.487  10.773   0.756
41772W        W 6933   5.195  24.385   9.923
41773W        W 6934   0.675  23.680  10.836
41774W        W 6935   2.858  28.908   2.858
41775W        W 6936   9.185  41.021  14.128
41776W        W 6937  23.240  31.668   0.305
41777W        W 6938  36.992   4.473  10.681
41778W        W 6939  43.213  16.091  14.910
41779W        W 6940   1.548  14.595  11.611
41780W        W 6941  20.123  39.667   3.787
41781W        W 6942  17.234   4.740   2.376
41782W        W 6943   8.364  43.246   2.301
41783W        W 6944  14.000  30.971   0.741
41784W        W 6945   4.286  17.282   1.755
41785W        W 6946  42.911  27.201   4.427
41786W        W 6947  17.578   3.574   0.777
41787W        W 6948  25.738   4.244  13.564
41788W        W 6949  27.531  13.711  13.072
41789W        W 6950  36.123  12.186  13.034
41790W        W 6951  31.059  18.256  11.890
41791W        W 6952   0.283   4.370   3.419
41792W        W 6953  29.989  38.300  11.778
41793W        W 6954  40.457  14.840   0.077
41794W        W 6955  10.415   9.402  14.437
41795W        W 6956  21.216  17.809  13.510
41796W        W 6957  14.120  39.806  14.291
41797W        W 6958   9.421   6.747  14.275
41798W        W 6959  18.035   3.328  14.919
41799W        W 6960  14.362   9.855   0.414
41800W        W 6961  26.084   4.655  12.414
41801W        W 6962  16.030  17.722  13.085
41802W        W 6963   6.889  39.392  13.598
41803W        W 6964  24.074  16.680   3.830
41804W        W 6965  44.146  32.336  11.197
41805W        W 6966  43.732  33.643  11.142
41806W        W 6967  29.020  34.377   0.908
41807W        W 6968  29.471   1.552   3.099
41808W        W 6969  20.204  29.512   2.928
41809W        W 6970  14.349  15.736  14.031
41810W        W 6971  18.333   4.021  10.662
41811W        W 6972  17.165  21.694   2.428
41812W        W 6973   4.393  19.268  13.343
41813W        W 6974  36.757  17.657   2.321
41814W        W 6975  25.276   6.332  13.579
41815W        W 6976  27.881  17.501  11.645
41816W        W 6977   0.445  14.136   2.840
41817W        W 6978  15.993  15.204  13.972
41818W        W 6979   9.454  15.542   5.081
41819W        W 6980  17.766  19.792  14.024
41820W        W 6981  32.394  35.304   0.283
41821W        W 6982  15.546   3.202   5.022
41822W        W 6983   2.961   9.645  11.082
41823W        W 6984  26.662  24.543   4.608
41824W        W 6985  24.912  10.110   0.817
41825W        W 6986   1.017   3.431  10.540
41826W        W 6987  21.985   1.483   1.715
41827W        W 6988  34.287  15.209   0.481
41828W        W 6989  36.129  18.591   1.432
41829W        W 6990  27.968   9.890  13.268
41830W        W 6991   6.228  16.766  10.353
41831W        W 6992   1.688  18.718   2.420
41832W        W 6993  28.740  30.146   0.423
41833W        W 6994  10.749  42.735   2.773
41834W        W 6995  33.004  39.381  12.106
41835W        W 6996  21.921   5.356  11.034
41836W        W 6997  32.686  40.875   2.210
41837W        W 6998  20.101   7.611   4.085
41838W        W 6999  18.215  20.123   3.571
41839W        W 7000  37.916  40.596   1.551
41840W        W 7001  40.559  39.122  11.596
41841W        W 7002  19.701  14.591  12.563
41842W        W 7003  31.704   1.773  10.711
41843W        W 7004  24.290  31.458   0.873
41844W        W 7005  38.561  14.617  11.362
41845W        W 7006  25.032  36.071   1.343
41846W        W 7007  43.451  21.476   4.166
41847W        W 7008  38.589  41.189   1.224
41848W        W 7009  19.691  34.008   4.277
41849W        W 7010  35.927  35.609  10.759
41850W        W 7011  15.801   7.914  11.120
41851W        W 7012  19.035   6.777  11.511
41852W        W 7013  28.830  36.288  11.174
41853W        W 7014  42.977  38.817   1.893
41854W        W 7015  36.292  12.682   3.496
41855W        W 7016  10.051   2.657   2.779
41856W        W 7017  37.351  38.775   0.417
41857W        W 7018   7.738  19.222   3.641
41858W        W 7019  26.197  10.292   1.477
41859W        W 7020  21.426  16.807  14.822
41860W        W 7021  41.213  11.142   0.012
41861W        W 7022  14.326  32.899   3.342
41862W        W 7023  38.875   3.982   2.776
41863W        W 7024  42.178  24.537   1.851
41864W        W 7025  38.278  32.131   3.440
41865W        W 7026  38.357  39.994  13.834
41866W        W 7027   1.725  41.500  12.012
41867W        W 7028  37.318  30.692   0.972
41868W        W 7029  16.652  34.655   1.294
41869W        W 7030  36.126  22.055  12.884
41870W        W 7031  35.134   2.356   1.921
41871W        W 7032   8.662  42.275  14.093
41872W        W 7033  11.714  36.886  10.465
41873W        W 7034   2.880  42.648  12.911
41874W        W 7035  38.124  16.751   4.694
41875W        W 7036  38.958  15.580  14.882
41876W        W 7037   8.227   7.876   1.918
41877W        W 7038  42.021  15.659  10.751
41878W        W 7039   7.777  17.839  13.529
41879W        W 7040   0.260  44.199   1.384
41880W        W 7041  29.638  42.574  10.862
41881W        W 7042  16.011  36.488   2.289
41882W        W 7043  14.142  42.785   0.221
41883W        W 7044  44.248  27.636   2.232
41884W        W 7045   4.640  33.869  14.783
41885W        W 7046  10.625   4.684   2.363
41886W        W 7047  25.406   1.710   0.949
41887W        W 7048  16.578  14.634  14.445
41888W        W 7049   9.287   8.658  13.596
41889W        W 7050  19.321  44.753  12.599
41890W        W 7051  25.711  32.706   3.582
41891W        W 7052  11.392  43.404  12.859
41892W        W 7053  40.133   8.207  12.090
41893W        W 7054  16.791  26.704   1.345
41894W        W 7055  19.177  42.072   1.712
41895W        W 7056  29.153  18.174  14.822
41896W        W 7057   7.316  39.345  14.246
41897W        W 7058  24.716  36.546   1.286
41898W        W 7059  44.393   6.288  13.151
41899W        W 7060   9.708  37.336   0.157
41900W        W 7061   6.331  40.249  10.952
41901W        W 7062  21.842   1.390   0.366
41902W        W 7063  16.715   9.104  14.352
41903W        W 7064   8.262   7.502  11.883
41904W        W 7065  38.143  43.887   1.191
41905W        W 7066  19.574  21.301   0.758
41906W        W 7067  29.208  17.297  12.593
41907W        W 7068  40.719  10.625   1.629
41908W        W 7069  30.093  12.687  12.328
41909W        W 7070   7.799  24.817   0.420
41910W        W 7071  19.647  29.958   0.613
41911W        W 7072  33.114   9.539  10.425
41912W        W 7073  43.890  18.184   0.552
41913W        W 7074  10.790  25.487  12.139
41914W        W 7075  19.716  22.681  14.300
41915W        W 7076  32.863  38.085   4.861
41916W        W 7077  13.055   5.293  12.866
41917W        W 7078  33.643  34.091   2.803
41918W        W 7079  31.218   4.471  12.170
41919W        W 7080   2.968  16.846  10.633
41920W        W 7081  13.020  22.807   0.249
41921W        W 7082  18.097  12.776   1.296
41922W        W 7083   0.193  42.342   4.481
41923W        W 7084  35.524  38.138  13.336
41924W        W 7085  13.027   5.794  11.522
41925W        W 7086  25.682  26.824   0.477
41926W        W 7087  19.416  25.912   1.332
41927W        W 7088  20.029  12.013   2.777
41928W        W 7089  36.816  16.827  13.093
41929W        W 7090  44.919   0.756   2.274
41930W        W 7091  19.185   4.671  10.830
41931W        W 7092  28.860  43.589  13.932
41932W        W 7093  27.112  44.491  10.160
41933W        W 7094  24.400  12.260   3.288
41934W        W 7095  37.826  41.231  11.864
41935W        W 7096  38.936  36.212  14.347
41936W        W 7097  44.622  42.832   4.055
41937W        W 7098  27.641  19.090   1.979
41938W        W 7099  24.992  10.244   2.167
41939W        W 7100  35.574  37.415  13.876
41940W        W 7101  42.055  36.625  11.582
41941W        W 7102  13.053  19.674  12.994
41942W        W 7103  16.834  29.111   2.450
41943W        W 7104   1.002  30.423  14.274
41944W        W 7105  28.912  12.648  10.724
41945W        W 7106  10.633  38.418  11.134
41946W        W 7107  22.126  33.279  14.706
41947W        W 7108   2.546  36.903  14.938
41948W        W 7109  38.583  30.966   1.468
41949W        W 7110   2.193   4.714  11.575
41950W        W 7111  30.298  42.436   2.440
41951W        W 7112  27.453  44.333   1.190
41952W        W 7113  10.236   5.722   0.541
41953W        W 7114  43.272  35.371   4.698
41954W        W 7115   1.019  31.585   1.445
41955W        W 7116  28.986  41.998   1.265
41956W        W 7117   0.660   7.943   1.768
41957W        W 7118  23.140   7.324  13.956
41958W        W 7119  36.059  12.707  14.613
41959W        W 7120  12.134  14.061  14.762
41960W        W 7121  23.799  42.537   1.264
41961W        W 7122   6.218  27.068  11.310
41962W        W 7123  13.115  39.465   4.494
41963W        W 7124  36.350   1.440  12.329
41964W        W 7125  44.045  19.505   1.172
41965W        W 7126  23.779   0.509   4.179
41966W        W 7127  29.478  43.304  12.079
41967W        W 7128  13.231  20.725  11.914
41968W        W 7129  14.565  32.175  11.490
41969W        W 7130   4.399  34.341  14.374
41970W        W 7131  32.115   5.748  14.820
41971W        W 7132  16.869   1.027  11.924
41972W        W 7133  42.822  33.950  13.316
41973W        W 7134   5.279  30.425   2.333
41974W        W 7135   0.092  13.443  14.370
41975W        W 7136  31.649  15.443  10.720
41976W        W 7137  37.585  33.980  12.531
41977W        W 7138  25.271  41.456  14.743
41978W        W 7139   0.280   3.790   1.624
41979W        W 7140  29.563  23.792  13.823
41980W        W 7141   2.194  27.462   4.220
41981W        W 7142  18.709  40.123   2.311
41982W        W 7143  41.242   1.791  11.102
41983W        W 7144  40.744  34.094   2.786
41984W        W 7145  41.094  17.991  10.824
41985W        W 7146  35.052   1.897  12.908
41986W        W 7147  17.693   1.203   0.521
41987W        W 7148  19.696   3.267   3.149
41988W        W 7149   0.002  33.825  13.551
41989W        W 7150  30.888   7.581   0.727
41990W        W 7151   6.183  17.267  14.062
41991W        W 7152   5.216  21.231   1.028
41992W        W 7153  44.081  10.244  11.655
41993W        W 7154   8.922  26.554  13.917
41994W        W 7155  15.007  13.776  12.684
41995W        W 7156  21.835  10.359  14.752
41996W        W 7157   9.595   1.786   4.376
41997W        W 7158  23.567  19.789  10.718
41998W        W 7159  15.216   2.737  13.726
41999W        W 7160  17.734  33.657   2.928
42000W        W 7161  39.397  12.205   0.811
42001W        W 7162  18.586  23.463  13.898
42002W        W 7163  25.376  40.533   5.384
42003W        W 7164  38.897  31.980  13.610
42004W        W 7165  37.027  42.296   4.980
42005W        W 7166  28.927   3.199   0.908
42006W        W 7167   4.760  26.333   3.144
42007W        W 7168   8.861   7.350   1.326
42008W        W 7169   9.569  15.979   1.879
42009W        W 7170  25.574  43.627  14.925
42010W        W 7171  25.923  33.833   0.439
42011W        W 7172   5.944  24.135   1.221
42012W        W 7173  32.074   6.917   4.927
42013W        W 7174  35.554  18.109  11.023
42014W        W 7175  28.138  21.743   4.480
42015W        W 7176  44.302  25.955   0.313
42016W        W 7177   9.147  44.426   1.113
42017W        W 7178  43.852  34.677  12.093
42018W        W 7179  38.442  10.401  11.046
42019W        W 7180  18.067  21.096  12.304
42020W        W 7181  33.479   4.625   3.686
42021W        W 7182  42.003   0.831   2.315
42022W        W 7183  15.243  42.685  12.064
42023W        W 7184  17.760  20.582  11.460
42024W        W 7185   2.647  34.382  14.785
42025W        W 7186  34.700  34.676  10.692
42026W        W 7187  14.141  39.394   1.032
42027W        W 7188  14.216  43.250  12.506
42028W        W 7189  36.102  12.600   1.066
42029W        W 7190  20.585  37.838  13.186
42030W        W 7191  24.471  42.900   3.724
42031W        W 7192   3.808  27.224   3.978
42032W        W 7193  43.131  21.920  14.596
42033W        W 7194  41.492   1.342  13.310
42034W        W 7195  31.340   9.661  13.715
42035W        W 7196  30.652   4.417  12.607
42036W        W 7197  32.573  25.059  11.616
42037W        W 7198  38.289  11.848  13.575
42038W        W 7199  37.535   2.626   3.709
42039W        W 7200  13.151  43.321   0.504
42040W        W 7201  19.620  44.492   2.529
42041W        W 7202  26.410  18.253   5.128
42042W        W 7203  37.662   0.983  14.426
42043W        W 7204  38.942  25.238   2.752
42044W        W 7205  21.251   4.866  10.702
42045W        W 7206  39.487  37.761  14.042
42046W        W 7207   8.651  22.240   4.734
42047W        W 7208  37.952   3.764   1.869
42048W        W 7209  34.968  37.556  14.252
42049W        W 7210  24.749   8.696  13.823
42050W        W 7211  10.852   4.240   2.809
42051W        W 7212  20.409  39.239   3.718
42052W        W 7213  42.595  16.099   3.950
42053W        W 7214  17.625   4.212   3.300
42054W        W 7215  39.915  21.203  14.417
42055W        W 7216  16.002  25.036   0.353
42056W        W 7217  30.619  37.032   1.833
42057W        W 7218  27.544  20.514   4.664
42058W        W 7219  15.264  37.059   3.203
42059W        W 7220   3.335   4.166   1.762
42060W        W 7221   1.128  23.477  12.788
42061W        W 7222  22.226  17.383  14.664
42062W        W 7223  36.809  16.300   0.912
42063W        W 7224  27.743  41.840   1.774
42064W        W 7225  37.145  44.935   2.746
42065W        W 7226  37.413  37.511  10.062
42066W        W 7227  11.204  14.882   2.012
42067W        W 7228  23.194  19.835   5.391
42068W        W 7229  14.216  22.546   4.230
42069W        W 7230   8.250  38.498  10.599
42070W        W 7231  30.014  19.473   4.863
42071W        W 7232  30.987  43.330   0.401
42072W        W 7233   3.449   5.580  11.643
42073W        W 7234  11.645  30.890  14.369
42074W        W 7235  25.613   8.401   2.285
42075W        W 7236  21.680   9.558  14.070
42076W        W 7237   3.797  19.994  10.966
42077W        W 7238  37.462  31.093   3.520
42078W        W 7239  16.274  10.256  13.714
42079W        W 7240  33.016   4.183   0.740
42080W        W 7241  43.919  27.059   1.550
42081W        W 7242  39.337  36.013  14.052
42082W        W 7243  19.707  36.662   0.971
42083W        W 7244  14.831  18.799  12.528
42084W        W 7245   3.714  31.134  11.673
42085W        W 7246  16.759  38.478  10.550
42086W        W 7247  32.021  34.365   1.057
42087W        W 7248   0.553  30.443   4.114
42088W        W 7249  34.984  21.494  14.585
42089W        W 7250  42.466  31.887  14.835
42090W        W 7251   0.226  37.378  12.463
42091W        W 7252  32.089  22.517   2.789
42092W        W 7253   6.153  35.019   2.825
42093W        W 7254  32.876  33.571   4.751
42094W        W 7255  35.807  32.045   1.984
42095W        W 7256   3.831  43.655   4.581
42096W        W 7257  24.750  18.183   4.138
42097W        W 7258  18.332  23.324   0.863
42098W        W 7259  11.880  38.459  12.893
42099W        W 7260   4.713   7.252   0.037
42100W        W 7261  33.868  42.181  10.713
42101W        W 7262  18.190  21.226  12.889
42102W        W 7263   4.880  31.559  14.914
42103W        W 7264   7.850  20.307  13.381
42104W        W 7265  12.565  35.051  11.136
42105W        W 7266   6.309  43.954   4.037
42106W        W 7267   6.793   2.980   2.404
42107W        W 7268  40.402  38.005  13.757
42108W        W 7269  33.138  31.875  11.057
42109W        W 7270  38.771  31.799  12.491
42110W        W 7271  40.932   5.662   1.380
42111W        W 7272  20.685  26.028  14.779
42112W        W 7273  41.389  12.367  11.716
42113W        W 7274   1.989  30.525  13.423
42114W        W 7275   4.278  20.042   1.237
42115W        W 7276   3.716  22.260  13.607
42116W        W 7277   1.877  40.638  10.700
42117W        W 7278  10.619   1.996  13.504
42118W        W 7279  23.332  33.090  14.852
42119W        W 7280  13.428   4.433  12.970
42120W        W 7281   8.312  26.253   0.792
42121W        W 7282  29.839  25.674  14.811
42122W        W 7283  36.698  17.272   0.758
42123W        W 7284  37.393  26.988   4.663
42124W        W 7285  10.693  36.134  10.900
42125W        W 7286  33.945  29.913   2.132
42126W        W 7287   7.034  39.050   2.865
42127W        W 7288   6.347  20.159   0.488
42128W        W 7289  14.571  42.087  11.973
42129W        W 7290  25.537  21.081  13.588
42130W        W 7291  43.808  32.407   2.182
42131W        W 7292  34.917  14.477   1.388
42132W        W 7293  23.438  10.218  13.905
42133W        W 7294  30.655  37.490  11.610
42134W        W 7295   9.910   8.345  12.376
42135W        W 7296  23.922  31.440  11.075
42136W        W 7297   0.269  44.901  11.202
42137W        W 7298  14.369  37.457   4.168
42138W        W 7299  30.551  35.276   4.573
42139W        W 7300  17.581  23.416   3.623
42140W        W 7301  44.720   1.833  12.853
42141W        W 7302   9.107  38.499  11.165
42142W        W 7303   4.205  33.699   3.213
42143W        W 7304  19.859   9.009   2.425
42144W        W 7305  19.962  44.969   1.882
42145W        W 7306  13.525  27.082   1.868
42146W        W 7307  38.593  13.124   2.671
42147W        W 7308  42.778   1.432   1.821
42148W        W 7309  36.983  25.694  10.775
42149W        W 7310  38.608  14.268   2.730
42150W        W 7311  28.111  29.085  10.691
42151W        W 7312   6.371  10.270  12.786
42152W        W 7313  17.836  32.098  11.570
42153W        W 7314  30.464  37.353  14.458
42154W        W 7315  44.968  33.959   0.821
42155W        W 7316  36.926  38.975  10.693
42156W        W 7317  21.165   3.773  12.779
42157W        W 7318   6.203  26.899  13.987
42158W        W 7319  15.676  33.538   0.347
42159W        W 7320  21.097  17.359  12.075
42160W        W 7321  35.839  20.307  12.573
42161W        W 7322  18.659   3.758   1.252
42162W        W 7323   9.722  17.870   2.208
42163W        W 7324  21.578  17.669   4.687
42164W        W 7325  38.946  41.547   1.892
42165W        W 7326  22.708  10.594   2.436
42166W        W 7327   3.721   0.620   1.248
42167W        W 7328   8.706  22.412  12.184
42168W        W 7329   3.874  41.404   3.296
42169W        W 7330  24.810  21.780  10.964
42170W        W 7331   0.661  33.047  12.187
42171W        W 7332   4.749  28.559  11.167
42172W        W 7333   7.175  15.739  13.833
42173W        W 7334  31.430  43.321  11.064
42174W        W 7335  24.179  32.374  11.409
42175W        W 7336  16.830  39.375   9.692
42176W        W 7337  15.514  44.975   3.645
42177W        W 7338  12.565   1.240  12.035
42178W        W 7339  43.032   0.975   1.276
42179W        W 7340  32.866  40.019   2.754
42180W        W 7341  26.175  16.596  10.894
42181W        W 7342  32.166   3.814   0.012
42182W        W 7343  29.540  29.613   2.314
42183W        W 7344  15.377  30.991  10.708
42184W        W 7345  43.015   2.886   3.346
42185W        W 7346  23.191  23.245  11.775
42186W        W 7347  40.896  12.845  10.629
42187W        W 7348  11.758   2.931   1.974
42188W        W 7349  30.177  25.117   0.731
42189W        W 7350  13.214   5.820  10.613
42190W        W 7351   5.502  32.925  13.507
42191W        W 7352   5.817  43.040  11.372
42192W        W 7353  41.944  36.120  12.522
42193W        W 7354  16.887  24.512   1.212
42194W        W 7355  40.809  25.053  10.431
42195W        W 7356  41.938  39.852   1.712
42196W        W 7357  40.542   7.856  14.039
42197W        W 7358  13.111  29.456   0.707
42198W        W 7359  11.121   8.170  12.844
42199W        W 7360   6.374   4.699   0.944
42200W        W 7361   3.948  11.465   2.917
42201W        W 7362  11.505  36.320   2.711
42202W        W 7363   2.161   6.694  10.810
42203W        W 7364  21.549  14.553   3.254
42204W        W 7365  12.066  22.194   1.159
42205W        W 7366  20.649  16.255  12.894
42206W        W 7367   0.006  24.028   4.530
42207W        W 7368  38.358  17.943   3.788
42208W        W 7369  39.540  31.191  12.623
42209W        W 7370  21.000  26.462  11.587
42210W        W 7371  23.536  39.752  12.921
42211W        W 7372  30.607  20.778   4.003
42212W        W 7373  16.158   3.169   0.862
42213W        W 7374  27.510  37.084  13.482
42214W        W 7375  15.505  20.612   4.644
42215W        W 7376  10.255   9.127  12.329
42216W        W 7377   8.343  32.911  13.510
42217W        W 7378  26.723   5.494   0.748
42218W        W 7379  15.000  33.027   1.381
42219W        W 7380  19.648   5.246  12.628
42220W        W 7381  12.744  24.574   3.165
42221W        W 7382   3.178   9.757  11.643
42222W        W 7383  20.456  40.392  14.727
42223W        W 7384   1.525  14.777  13.962
42224W        W 7385  13.921  27.240  11.638
42225W        W 7386   6.463  16.345   1.194
42226W        W 7387  39.057  32.554   1.353
42227W        W 7388  24.091  21.235   0.406
42228W        W 7389  20.049  31.316   2.771
42229W        W 7390   2.824  40.609   3.098
42230W        W 7391  26.853  19.774  12.952
42231W        W 7392   9.107  19.107  10.516
42232W        W 7393  20.707  39.108  11.530
42233W        W 7394  25.210  22.766   5.097
42234W        W 7395  18.253  26.479   0.398
42235W        W 7396  32.944   9.854  11.912
42236W        W 7397  32.045  22.718  14.269
42237W        W 7398  31.681  42.318  11.098
42238W        W 7399  18.206  41.511   2.493
42239W        W 7400  44.713  40.237   3.181
42240W        W 7401  41.044  12.066   4.481
42241W        W 7402   5.023  26.341  13.483
42242W        W 7403  34.128   7.787  12.478
42243W        W 7404  21.511   2.891   4.042
42244W        W 7405  33.705  11.550  12.549
42245W        W 7406  26.926  20.102  14.725
42246W        W 7407  43.872   9.209   1.301
42247W        W 7408  40.241  15.133   4.880
42248W        W 7409   2.198  41.519   4.725
42249W        W 7410  14.813   8.746  10.869
42250W        W 7411  40.108   0.270   2.242
42251W        W 7412  26.119  44.088  11.131
42252W        W 7413  23.127   5.070   1.891
42253W        W 7414  35.085  12.292  13.306
42254W        W 7415   1.356   4.838  14.869
42255W        W 7416   0.605  35.196   4.541
42256W        W 7417  25.186  17.509  12.158
42257W        W 7418   7.358  25.144   0.468
42258W        W 7419  19.262  24.555  11.443
42259W        W 7420  21.824  15.929  12.427
42260W        W 7421  36.728  21.118   2.401
42261W        W 7422  30.009  23.010   2.694
42262W        W 7423   9.901  12.553  10.839
42263W        W 7424  39.226  19.259   0.082
42264W        W 7425   6.600   4.874  13.015
42265W        W 7426  12.306   7.688   4.490
42266W        W 7427  24.111  21.171   1.315
42267W        W 7428  14.304   4.692  11.589
42268W        W 7429  40.986  40.849  11.889
42269W        W 7430  39.988  44.501   0.275
42270W        W 7431  42.734  41.430   3.094
42271W        W 7432  32.006  34.518   3.739
42272W        W 7433  32.460   5.249  12.566
42273W        W 7434  10.794   2.269   2.283
42274W        W 7435  39.591  35.815   4.632
42275W        W 7436  29.205  37.811  12.637
42276W        W 7437  37.332   1.448   1.992
42277W        W 7438  20.263   5.170  11.060
42278W        W 7439   3.426  14.269  12.118
42279W        W 7440  31.519  15.415  13.464
42280W        W 7441  23.501  39.502   3.272
42281W        W 7442  24.263  22.267   2.654
42282W        W 7443  31.616  40.677   0.106
42283W        W 7444  14.884   2.455   2.483
42284W        W 7445  34.049  26.230  10.714
42285W        W 7446  16.506  39.079   3.089
42286W        W 7447  40.431  20.151  12.932
42287W        W 7448  27.013  36.066   1.207
42288W        W 7449  20.441  18.136  12.275
42289W        W 7450  16.066  18.182  10.154
42290W        W 7451  31.397  32.886  14.475
42291W        W 7452  24.740  25.688   4.617
42292W        W 7453  44.802  39.580   0.221
42293W        W 7454  23.438  27.148   1.150
42294W        W 7455  11.348  32.275   3.219
42295W        W 7456   1.563  12.116   1.847
42296W        W 7457  30.750   6.876   3.153
42297W        W 7458  17.784  19.691   4.313
42298W        W 7459  21.125  21.228   1.206
42299W        W 7460   9.912  40.787   4.158
42300W        W 7461  34.081  10.795   1.461
42301W        W 7462   0.209  23.560   4.595
42302W        W 7463   6.168  44.910   3.582
42303W        W 7464  18.871   5.611  11.117
42304W        W 7465   6.782   2.374   3.252
42305W        W 7466   2.765   4.751   2.313
42306W        W 7467  13.765  15.127  10.482
42307W        W 7468  38.881  44.072  14.358
42308W        W 7469  32.085  17.024   4.088
42309W        W 7470  37.487  27.951   4.477
42310W        W 7471  33.910  10.857  10.726
42311W        W 7472  43.455   3.841   0.347
42312W        W 7473  36.594   8.722  13.348
42313W        W 7474   1.404  11.637   5.361
42314W        W 7475  42.864  11.761  11.918
42315W        W 7476  41.838  36.884   2.776
42316W        W 7477   7.479  16.123   3.717
42317W        W 7478   7.573   7.658  12.046
42318W        W 7479  14.906   7.912  12.367
42319W        W 7480  24.611   7.954  14.546
42320W        W 7481   3.672   8.304  12.026
42321W        W 7482  14.318  30.490   3.273
42322W        W 7483  14.009   3.321  10.164
42323W        W 7484  41.500  40.457   4.946
42324W        W 7485  10.117  40.934  13.816
42325W        W 7486  39.512  42.163   3.706
42326W        W 7487   7.799  38.807   4.627
42327W        W 7488  10.743  17.886   0.423
42328W        W 7489  15.947   0.471  12.546
42329W        W 7490  36.561  18.828   3.225
42330W        W 7491  33.474  36.505  13.445
42331W        W 7492  12.486  24.137   5.053
42332W        W 7493  35.935  19.082  10.429
42333W        W 7494   6.442  19.735  12.043
42334W        W 7495  11.713   7.286  12.386
42335W        W 7496   2.724  21.050   4.373
42336W        W 7497  21.719   5.722   2.728
42337W        W 7498  19.479  41.561  10.510
42338W        W 7499  13.870  34.213  11.006
42339W        W 7500  41.362  28.777  13.332
42340W        W 7501  32.663  21.827   2.674
42341W        W 7502  29.905   0.037  11.028
42342W        W 7503   4.362  15.512   0.984
42343W        W 7504  32.895   5.183   3.295
42344W        W 7505  14.099  15.123   0.998
42345W        W 7506  38.771   4.807   2.444
42346W        W 7507   9.874  42.879   2.656
42347W        W 7508  18.499  39.472   1.462
42348W        W 7509  27.287  23.837   4.409
42349W        W 7510  37.460   9.201   3.724
42350W        W 7511  24.169  39.799   2.002
42351W        W 7512  35.054   3.164   4.499
42352W        W 7513  38.569  13.926   2.173
42353W        W 7514  37.145  29.575  14.062
42354W        W 7515  32.975  15.546   3.867
42355W        W 7516  14.711  25.561  13.858
42356W        W 7517  14.411  41.743  11.483
42357W        W 7518   6.616  30.029   5.060
42358W        W 7519  24.097  18.985   4.527
42359W        W 7520   2.312  30.237  14.545
42360W        W 7521  40.338  39.435  13.938
42361W        W 7522   6.804  40.075  11.074
42362W        W 7523  41.279  31.504   1.716
42363W        W 7524  16.875   3.123   0.458
42364W        W 7525  42.711  41.273  14.983
42365W        W 7526  35.989   3.254   4.039
42366W        W 7527  11.729  38.996   2.226
42367W        W 7528  24.424  37.839  12.819
42368W        W 7529  19.014  16.524  11.641
42369W        W 7530   3.215  34.861  14.795
42370W        W 7531   9.818   0.370   2.695
42371W        W 7532  10.972   5.423  12.410
42372W        W 7533   4.938   3.226   3.193
42373W        W 7534  29.167  10.282  11.101
42374W        W 7535  12.840  13.344   3.774
42375W        W 7536  43.285  10.204   3.623
42376W        W 7537  24.259  42.413  11.664
42377W        W 7538  35.034  43.354   3.798
42378W        W 7539  22.629  28.488   4.246
42379W        W 7540  14.375   8.883  11.587
42380W        W 7541  23.069   9.444  13.542
42381W        W 7542  16.060  12.959   1.325
42382W        W 7543  21.580   0.005  10.716
42383W        W 7544  42.753  33.585  11.113
42384W        W 7545  19.307  44.437  10.991
42385W        W 7546  35.992  33.149  11.622
42386W        W 7547   7.914  44.501   4.680
42387W        W 7548  27.517  18.283   1.012
42388W        W 7549  16.080  28.358   1.109
42389W        W 7550  39.056   8.178  11.211
42390W        W 7551  21.764  37.958   4.634
42391W        W 7552  33.598  16.992  12.495
42392W        W 7553  10.175  32.724  12.240
42393W        W 7554   6.757  36.658  14.828
42394W        W 7555  25.011  38.090  14.070
42395W        W 7556   6.240  12.802   0.218
42396W        W 7557  31.514  18.192   3.404
42397W        W 7558   0.557  25.554  12.511
42398W        W 7559  25.272   6.346   4.693
42399W        W 7560  27.183   4.414   2.824
42400W        W 7561  39.791  13.321   1.844
42401W        W 7562  36.014  18.383  14.484
42402W        W 7563  39.659  30.511  11.633
42403W        W 7564  30.075  35.980   2.646
42404W        W 7565  38.290  42.901  10.152
42405W        W 7566  39.329   6.779  11.205
42406W        W 7567  40.511  16.577  10.493
42407W        W 7568  11.717  16.508  12.533
42408W        W 7569   2.992  25.567   0.635
42409W        W 7570  43.442   1.068  11.438
42410W        W 7571  13.866   2.756  12.529
42411W        W 7572  14.694   7.616   4.307
42412W        W 7573  32.096  11.332   3.741
42413W        W 7574  41.054  10.587  12.452
42414W        W 7575  31.181  19.180  14.851
42415W        W 7576   5.679  36.989  13.619
42416W        W 7577  27.005  41.560  14.220
42417W        W 7578  21.729  13.475  14.474
42418W        W 7579   5.028  40.344   4.695
42419W        W 7580  15.254   6.454  12.579
42420W        W 7581  38.037  23.750  11.620
42421W        W 7582   9.766  28.237  12.024
42422W        W 7583  22.611   6.891  10.523
42423W        W 7584  26.152  40.560  13.631
42424W        W 7585  36.381   4.212  12.035
42425W        W 7586  43.269  16.847   2.372
42426W        W 7587  42.429  37.686   2.168
42427W        W 7588  20.617   8.244   4.602
42428W        W 7589  43.855   5.862  11.521
42429W        W 7590  11.887  37.952  12.782
42430W        W 7591   8.497   3.831  11.105
42431W        W 7592  26.753  41.446  13.732
42432W        W 7593   6.490  12.112   2.839
42433W        W 7594   9.456  30.513  12.928
42434W        W 7595   4.683  16.632  10.034
42435W        W 7596  34.300  44.324   4.579
42436W        W 7597  12.349  38.601  10.596
42437W        W 7598  21.088  12.663  11.180
42438W        W 7599  22.790  24.558   3.317
42439W        W 7600  10.156  26.465  13.513
42440W        W 7601  42.514  41.052  11.114
42441W        W 7602   0.682  28.644  13.308
42442W        W 7603  19.561  22.045   0.646
42443W        W 7604  37.084  36.432   4.016
42444W        W 7605   6.383   2.184   2.222
42445W        W 7606  33.886   4.819   0.688
42446W        W 7607   7.825  39.740   3.109
42447W        W 7608  16.992  40.261  11.185
42448W        W 7609  33.837  23.567  13.952
42449W        W 7610  23.290  30.175   3.934
42450W        W 7611   0.414  15.575  13.476
42451W        W 7612  22.226   0.325  12.998
42452W        W 7613   5.138  39.131  11.604
42453W        W 7614  29.507  40.889   3.241
42454W        W 7615  28.200  40.028  12.581
42455W        W 7616   0.899  38.139   1.607
42456W        W 7617  32.409  25.983  13.016
42457W        W 7618   2.179  20.043  13.445
42458W        W 7619  41.549  15.814  11.689
42459W        W 7620   5.910  36.408  11.331
42460W        W 7621  15.551   3.780  11.042
42461W        W 7622   7.709   4.862   0.205
42462W        W 7623  40.855  12.875  13.772
42463W        W 7624  21.741   2.890   1.320
42464W        W 7625   5.885  24.944  12.019
42465W        W 7626  41.597  13.171  13.091
42466W        W 7627  12.257   5.253  10.760
42467W        W 7628  25.809  16.067   5.134
42468W        W 7629  40.431  24.632   2.228
42469W        W 7630   2.843   1.238   2.627
42470W        W 7631  25.659  40.339  13.947
42471W        W 7632  31.373  38.922  14.992
42472W        W 7633  32.582  26.903  14.065
42473W        W 7634  30.517  35.886   2.399
42474W        W 7635  12.196  27.422  14.050
42475W        W 7636  36.327   1.938  12.121
42476W        W 7637   3.647  13.199   0.739
42477W        W 7638  35.241  32.923   3.161
42478W        W 7639  41.684  17.794  11.001
42479W        W 7640  39.343   9.922   2.024
42480W        W 7641   0.205  44.933  12.563
42481W        W 7642  35.070  10.713   1.422
42482W        W 7643  37.825  20.563   1.848
42483W        W 7644  24.196  26.027  11.254
42484W        W 7645  43.878  23.632   1.209
42485W        W 7646   7.600  17.386  13.292
42486W        W 7647   1.316  22.087  13.089
42487W        W 7648  44.104   2.102   3.498
42488W        W 7649  23.106   7.017  11.432
42489W        W 7650  27.094  31.186   2.236
42490W        W 7651   8.092   7.676   4.175
42491W        W 7652  26.084  39.671  14.814
42492W        W 7653  27.176  40.412   1.261
42493W        W 7654   9.854  28.368  11.146
42494W        W 7655  20.524  14.736   1.225
42495W        W 7656   8.703  31.954   3.094
42496W        W 7657   4.252  33.943   3.998
42497W        W 7658  23.292   5.285   2.330
42498W        W 7659  40.604  23.103  11.113
42499W        W 7660  34.000  29.238  12.377
42500W        W 7661  34.051   0.562  10.589
42501W        W 7662  35.805  38.541  11.343
42502W        W 7663   5.229   3.635  14.398
42503W        W 7664  34.488  35.797  12.913
42504W        W 7665  34.086   5.974   3.088
42505W        W 7666   1.310  38.006   4.260
42506W        W 7667  10.830  12.880   0.302
42507W        W 7668   6.326  11.894   2.237
42508W        W 7669  22.206  28.422  12.353
42509W        W 7670   9.640  18.983   3.987
42510W        W 7671  26.310  29.960  12.012
42511W        W 7672  31.958  44.224  13.482
42512W        W 7673   1.686  36.450   9.526
42513W        W 7674   6.003  11.653  10.981
42514W        W 7675  13.896  23.666  10.638
42515W        W 7676  41.374  38.891  12.135
42516W        W 7677  13.670  44.279   3.196
42517W        W 7678  39.870  43.046   3.707
42518W        W 7679  31.863  34.678  10.719
42519W        W 7680   6.888  26.050  12.123
42520W        W 7681  16.241  35.537  11.039
42521W        W 7682   1.261  38.915  13.181
42522W        W 7683   1.923  38.562  11.610
42523W        W 7684  27.629  17.751  13.709
42524W        W 7685  11.313  21.132  11.419
42525W        W 7686  29.599  17.617   4.535
42526W        W 7687  33.532  36.346  11.573
42527W        W 7688   9.565  22.843   3.782
42528W        W 7689  10.082  11.397  12.965
42529W        W 7690  43.398  19.135   1.418
42530W        W 7691   0.394  33.485  13.482
42531W        W 7692  13.670   7.418   1.738
42532W        W 7693  31.373  24.679   4.115
42533W        W 7694  19.542  24.234  12.507
42534W        W 7695   4.266  14.639   0.448
42535W        W 7696  26.572  32.074   4.581
42536W        W 7697  40.786  15.017  14.710
42537W        W 7698  16.185  27.678  11.343
42538W        W 7699  36.376  44.779   0.062
42539W        W 7700  13.943  40.547   3.969
42540W        W 7701  18.777   6.958   1.203
42541W        W 7702   8.859  16.535  11.126
42542W        W 7703  13.153  23.042  10.673
42543W        W 7704  25.566   9.250  10.270
42544W        W 7705  24.047   1.446   4.474
42545W        W 7706  32.513  18.135   2.111
42546W        W 7707  19.213   9.152   0.479
42547W        W 7708  30.889  41.363   3.014
42548W        W 7709  24.239  12.678  10.950
42549W        W 7710   1.980  27.688  13.081
42550W        W 7711  37.536  28.899  13.805
42551W        W 7712  40.075  25.771  12.006
42552W        W 7713  17.684  27.581   4.519
42553W        W 7714  14.334   8.721  11.100
42554W        W 7715  38.807   9.251  12.450
42555W        W 7716   4.358  15.397  14.753
42556W        W 7717  39.008  30.195  13.663
42557W        W 7718  26.035  20.149   3.143
42558W        W 7719   5.690  20.295  11.155
42559W        W 7720  21.255   6.745  12.577
42560W        W 7721  12.193  28.550  11.930
42561W        W 7722  10.272  32.558  11.238
42562W        W 7723  24.951   1.760   2.905
42563W        W 7724   1.143  16.373  10.272
42564W        W 7725  23.524  32.330  12.100
42565W        W 7726  31.309  15.073  14.289
42566W        W 7727  11.256  43.288   4.976
42567W        W 7728  18.840  32.951   1.852
42568W        W 7729  28.549  10.445  10.672
42569W        W 7730  39.213   9.891  10.973
42570W        W 7731  22.069  41.881   1.266
42571W        W 7732   8.666  44.713  11.501
42572W        W 7733  20.341  31.010  11.516
42573W        W 7734  20.128  44.093   4.110
42574W        W 7735   5.395  26.178  13.794
42575W        W 7736  11.150  40.941  13.942
42576W        W 7737  18.104  21.470  14.392
42577W        W 7738  31.021  14.233   3.555
42578W        W 7739  27.251  21.062  14.759
42579W        W 7740  27.090  24.013   1.733
42580W        W 7741   2.282   0.042   4.122
42581W        W 7742  35.246  39.208   0.943
42582W        W 7743  23.183   6.757  12.302
42583W        W 7744  32.534  43.329  13.477
42584W        W 7745  32.212  19.230  14.960
42585W        W 7746  34.588  43.035   0.919
42586W        W 7747  40.957  24.367   2.436
42587W        W 7748  26.686   2.596   5.066
42588W        W 7749  14.779   6.563   1.286
42589W        W 7750  23.214  32.562   1.495
42590W        W 7751  29.444   5.339  10.652
42591W        W 7752  44.869  21.478  11.292
42592W        W 7753  19.360  38.084  11.925
42593W        W 7754  12.760  40.476   2.450
42594W        W 7755  28.883  28.868   0.316
42595W        W 7756  31.054  17.715  10.690
42596W        W 7757  27.452  20.481   1.264
42597W        W 7758  12.521  11.324   0.172
42598W        W 7759  28.423  18.688   3.657
42599W        W 7760  36.510  29.939  12.973
42600W        W 7761  27.102  16.183   3.321
42601W        W 7762  25.055  13.727   1.850
42602W        W 7763  41.420  25.437   1.567
42603W        W 7764  11.852   6.634  15.000
42604W        W 7765  10.828   8.168   4.337
42605W        W 7766   3.178  31.075  12.478
42606W        W 7767  32.491  19.023  14.597
42607W        W 7768  28.968   9.357   2.428
42608W        W 7769  41.024  28.902  14.985
42609W        W 7770   6.363  10.342   4.071
42610W        W 7771  28.133   5.832  12.662
42611W        W 7772  20.287  24.731  12.628
42612W        W 7773  29.459  34.566   2.621
42613W        W 7774  22.284  16.444  11.651
42614W        W 7775  36.486  40.320  13.481
42615W        W 7776  10.342   2.940  14.104
42616W        W 7777  21.138   9.010   4.417
42617W        W 7778  33.443   1.337   1.729
42618W        W 7779  19.288  38.974  11.944
42619W        W 7780  40.220  27.541  12.052
42620W        W 7781  33.125  19.110   0.905
42621W        W 7782  37.515  14.206   0.639
42622W        W 7783  22.867  25.624  14.831
42623W        W 7784  31.954  25.192   3.666
42624W        W 7785   9.762  22.371  13.055
42625W        W 7786  24.224  22.228   0.757
42626W        W 7787   3.281  43.014   0.484
42627W        W 7788  25.308  20.296   4.167
42628W        W 7789  37.583  23.073   2.220
42629W        W 7790  13.372  41.906  12.459
42630W        W 7791  35.096  29.085  10.559
42631W        W 7792  13.821  17.494   3.683
42632W        W 7793  13.748   4.007   4.392
42633W        W 7794  41.665  11.907  10.942
42634W        W 7795  43.732  25.456   3.488
42635W        W 7796  41.673  40.665   4.030
42636W        W 7797  23.537  22.042   2.118
42637W        W 7798  34.153  26.640   0.326
42638W        W 7799   8.428   5.712  12.182
42639W        W 7800   8.485  17.264  12.114
42640W        W 7801  14.158  35.470  10.601
42641W        W 7802   4.240   0.775   3.126
42642W        W 7803  10.912  42.019   1.328
42643W        W 7804  37.119   5.191   2.639
42644W        W 7805   6.062  33.534   4.595
42645W        W 7806  32.581   4.430   0.860
42646W        W 7807  14.200  21.181   4.546
42647W        W 7808   2.148  28.624   0.927
42648W        W 7809  16.334  38.013  13.968
42649W        W 7810  29.072  40.753  14.996
42650W        W 7811  44.284  21.533   4.564
42651W        W 7812  39.325  16.841  12.480
42652W        W 7813  37.100  17.626   3.725
42653W        W 7814  22.464  33.653  14.792
42654W        W 7815   6.238  13.587  11.134
42655W        W 7816  41.389  34.001   0.713
42656W        W 7817  15.294   3.332  10.954
42657W        W 7818   4.840  29.383   0.643
42658W        W 7819   5.316  15.320  13.742
42659W        W 7820  44.899  27.223  11.027
42660W        W 7821  36.503  19.718  10.786
42661W        W 7822   4.983  24.796   2.760
42662W        W 7823  42.555   5.685  13.847
42663W        W 7824  17.779  21.294   0.822
42664W        W 7825  21.979  24.181   3.413
42665W        W 7826  29.879  29.618  11.194
42666W        W 7827  32.222  23.698   3.052
42667W        W 7828  27.814  44.000   1.333
42668W        W 7829  17.789  40.837   0.928
42669W        W 7830  26.064  10.814   2.326
42670W        W 7831  31.115  28.528   3.565
42671W        W 7832  17.403  33.569  13.887
42672W        W 7833  26.951  32.596   0.119
42673W        W 7834   4.382  24.952  13.537
42674W        W 7835   0.393  26.098   3.631
42675W        W 7836  11.344   8.251   1.390
42676W        W 7837  33.657  17.768   2.624
42677W        W 7838   4.702  24.510  13.285
42678W        W 7839  19.319  11.174  14.710
42679W        W 7840  13.679  23.011   1.047
42680W        W 7841  43.716  11.456  14.754
42681W        W 7842   7.800  27.975   0.428
42682W        W 7843  44.558  36.865  10.752
42683W        W 7844  33.035  11.706   5.036
42684W        W 7845  43.114   7.274   3.731
42685W        W 7846  32.064  13.339  11.472
42686W        W 7847  39.145  41.589  12.993
42687W        W 7848  18.226  38.252  13.558
42688W        W 7849  42.440  15.500  11.414
42689W        W 7850  44.359  16.744   4.491
42690W        W 7851  27.660  27.535   0.704
42691W        W 7852  11.663  39.935   0.459
42692W        W 7853  26.014  21.070  13.377
42693W        W 7854  32.572  44.871  14.262
42694W        W 7855  35.148  10.640  13.088
42695W        W 7856   5.805   6.574  12.971
42696W        W 7857  30.402  10.106   4.070
42697W        W 7858   4.137  37.797  13.717
42698W        W 7859  18.943  24.574  10.629
42699W        W 7860  13.022  30.436  12.134
42700W        W 7861  40.891  37.445   2.131
42701W        W 7862   6.392  24.584   3.890
42702W        W 7863   2.972  15.238   4.206
42703W        W 7864  42.055  14.851   4.092
42704W        W 7865   5.252  39.141  13.500
42705W        W 7866  39.355  39.123   1.777
42706W        W 7867  32.426  22.345   0.455
42707W        W 7868  33.562  22.054  11.192
42708W        W 7869  42.753   4.691   4.582
42709W        W 7870  20.943  34.055   2.488
42710W        W 7871  43.807   0.520   4.158
42711W        W 7872  34.693  19.309   3.223
42712W        W 7873  14.770   1.237   4.542
42713W        W 7874  31.595  28.656  11.037
42714W        W 7875  44.955  40.327  10.612
42715W        W 7876  40.851  32.830  12.615
42716W        W 7877  34.351  15.779  14.479
42717W        W 7878  41.245  12.402  12.212
42718W        W 7879  30.836  10.687  14.338
42719W        W 7880  38.006  26.692  14.565
42720W        W 7881  15.359  44.793  14.995
42721W        W 7882  28.010  17.647   2.700
42722W        W 7883   6.589  33.397   4.425
42723W        W 7884  13.359  24.782   1.205
42724W        W 7885  30.866  23.092   1.183
42725W        W 7886   9.227  14.735   0.361
42726W        W 7887  17.248  19.635   2.843
42727W        W 7888  42.293   2.408   1.865
42728W        W 7889  28.036  32.945   1.651
42729W        W 7890  32.390  27.095   1.400
42730W        W 7891  11.098  24.296  14.770
42731W        W 7892  27.110  38.082  14.850
42732W        W 7893   9.024  15.530  11.513
42733W        W 7894   1.772  24.640   0.711
42734W        W 7895  40.802  17.140   4.156
42735W        W 7896  16.814   4.840  10.757
42736W        W 7897  27.141  40.037   0.009
42737W        W 7898  12.641  14.570   0.490
42738W        W 7899   0.193  20.644   0.207
42739W        W 7900  20.852  39.531   4.860
42740W        W 7901  44.662  27.955   3.740
42741W        W 7902  36.627  19.531   2.743
42742W        W 7903  10.820  37.572  10.666
42743W        W 7904  43.250  31.155  11.222
42744W        W 7905  10.402  36.036  14.001
42745W        W 7906   5.369   5.957  13.948
42746W        W 7907  18.153  21.982  14.571
42747W        W 7908   6.923  31.343  11.839
42748W        W 7909  27.112  10.722   0.942
42749W        W 7910  16.138  14.333  11.419
42750W        W 7911   6.735  26.343   0.324
42751W        W 7912  39.248  20.035   0.327
42752W        W 7913  10.184  41.742   4.139
42753W        W 7914  29.158  21.397   3.824
42754W        W 7915  40.627  12.248  12.713
42755W        W 7916  29.433  14.024  10.674
42756W        W 7917  16.712  16.258   3.741
42757W        W 7918  34.326  33.523  13.378
42758W        W 7919  22.628  37.482   3.789
42759W        W 7920  19.622  44.739  13.847
42760W        W 7921  35.453   8.901   2.882
42761W        W 7922  32.076   4.268  12.359
42762W        W 7923  16.974  16.759   9.926
42763W        W 7924  10.663  34.080  13.949
42764W        W 7925   3.686  34.091   2.612
42765W        W 7926  12.839  16.174  12.932
42766W        W 7927  41.738  37.533  14.071
42767W        W 7928  44.243  37.844  13.861
42768W        W 7929  11.769   4.811   3.264
42769W        W 7930  11.648  25.055  10.465
42770W        W 7931  36.275  23.768  14.317
42771W        W 7932  28.106  35.082   1.819
42772W        W 7933  10.162  35.960   2.235
42773W        W 7934  44.420  44.506  14.186
42774W        W 7935  13.728  28.186   3.235
42775W        W 7936  12.811  11.924  11.481
42776W        W 7937  38.809  24.719  12.044
42777W        W 7938  42.651  43.431  13.369
42778W        W 7939  40.320  24.716  12.992
42779W        W 7940   1.191  22.029  10.652
42780W        W 7941   2.593  14.716  13.019
42781W        W 7942  39.761   0.673  10.960
42782W        W 7943  40.087   6.733   2.368
42783W        W 7944  37.158  22.255  14.315
42784W        W 7945  26.815   7.668  11.062
42785W        W 7946   2.042  14.428  11.543
42786W        W 7947  17.767   1.561   4.201
42787W        W 7948  32.940   7.982   4.189
42788W        W 7949  18.155  37.047   2.577
42789W        W 7950  14.831   7.046  11.527
42790W        W 7951  43.743  42.409  10.698
42791W        W 7952  17.818  19.687   1.718
42792W        W 7953  11.325  16.750  12.011
42793W        W 7954  31.635  43.136  12.494
42794W        W 7955  18.226  29.217   3.704
42795W        W 7956  19.628  20.966   2.290
42796W        W 7957  17.635  32.582   2.144
42797W        W 7958  41.029  17.653   0.456
42798W        W 7959  42.336  34.389   1.716
42799W        W 7960   3.501  44.865   0.394
42800W        W 7961  10.070  43.054  11.002
42801W        W 7962  30.513   9.572   0.316
42802W        W 7963  30.827  10.389   4.418
42803W        W 7964  44.399  37.657  10.883
42804W        W 7965  13.098  19.750  11.558
42805W        W 7966   5.986  18.446  14.301
42806W        W 7967  41.469  21.493  14.590
42807W        W 7968  23.659  28.636  10.753
42808W        W 7969  26.560  30.502  12.618
42809W        W 7970  40.445  36.838   4.152
42810W        W 7971  28.012  38.017   2.281
42811W        W 7972  32.432   7.631   0.734
42812W        W 7973   7.417  25.769  13.815
42813W        W 7974   1.443  39.516   3.343
42814W        W 7975  44.005   4.226  13.792
42815W        W 7976  15.208  29.039   4.066
42816W        W 7977  40.408   3.670   5.149
42817W        W 7978  18.423  17.331  13.516
42818W        W 7979  31.309  35.095  12.054
42819W        W 7980  35.038  32.080  14.727
42820W        W 7981   0.377  41.836   4.579
42821W        W 7982  39.581  16.757   2.595
42822W        W 7983  30.601  17.827  12.194
42823W        W 7984  44.165  31.561   1.951
42824W        W 7985  27.616  42.244  14.314
42825W        W 7986  32.049  39.866   3.135
42826W        W 7987   0.872  37.709   5.126
42827W        W 7988  19.555   7.312  14.946
42828W        W 7989  41.953  24.938  12.478
42829W        W 7990  36.892   9.195  14.503
42830W        W 7991   5.826  17.066   0.324
42831W        W 7992   2.845  38.068  11.668
42832W        W 7993  15.125  29.916   2.464
42833W        W 7994  32.671  18.407   2.984
42834W        W 7995   4.049  43.051   9.742
42835W        W 7996   2.818  33.915   4.594
42836W        W 7997   9.900   1.373   4.516
42837W        W 7998  10.097  33.183  12.043
42838W        W 7999  11.795  21.881  11.779
42839W        W 8000   8.938  37.384   2.809
42840W        W 8001   1.642  18.644   3.848
42841W        W 8002  11.128  12.821  12.455
42842W        W 8003  40.439  32.206   1.415
42843W        W 8004  19.705   1.670   2.980
42844W        W 8005   8.359   2.803   2.399
42845W        W 8006  29.532  21.998  11.535
42846W        W 8007   7.949  17.647  13.014
42847W        W 8008   5.539  42.032   0.304
42848W        W 8009  26.129  32.976   1.244
42849W        W 8010  31.426  15.914  13.507
42850W        W 8011   3.821  36.459  13.794
42851W        W 8012  23.044  12.905   4.173
42852W        W 8013  32.971  43.514  10.243
42853W        W 8014   0.712  40.391  11.964
42854W        W 8015  26.752  40.305   2.732
42855W        W 8016   7.812  44.757  11.105
42856W        W 8017   8.003   7.928  12.004
42857W        W 8018  27.426  10.162  11.532
42858W        W 8019  11.674  18.334   1.932
42859W        W 8020   4.996  17.751   1.222
42860W        W 8021  22.531  12.125  10.330
42861W        W 8022   1.754  35.959  11.425
42862W        W 8023  40.603  11.325  12.138
42863W        W 8024  25.159  25.662   1.410
42864W        W 8025   8.659  40.860   1.453
42865W        W 8026  26.472   0.026   2.726
42866W        W 8027  31.953  16.478  11.138
42867W        W 8028  18.282  25.126  13.734
42868W        W 8029  16.388  15.807   2.500
42869W        W 8030  31.279   3.562  10.373
42870W        W 8031  33.634  19.392   4.978
42871W        W 8032  12.442  41.034   1.778
42872W        W 8033  18.258  13.137   0.800
42873W        W 8034  31.443  17.617   4.133
42874W        W 8035  17.946   3.857  14.872
42875W        W 8036  18.007   2.664   3.003
42876W        W 8037  10.239  33.695   0.281
42877W        W 8038  40.604  29.303  13.057
42878W        W 8039  27.291   8.402   1.434
42879W        W 8040   6.376  31.154   3.730
42880W        W 8041   0.510  11.772   3.577
42881W        W 8042  24.880  15.157  13.876
42882W        W 8043  12.630  26.974   3.683
42883W        W 8044  39.037  30.088  12.708
42884W        W 8045  39.322  19.665   5.066
42885W        W 8046  20.320  33.589   2.777
42886W        W 8047   0.973   7.137  12.451
42887W        W 8048  25.672  39.066   1.560
42888W        W 8049  21.543  36.381  13.368
42889W        W 8050  24.831   7.322   2.763
42890W        W 8051  37.003   6.020   2.063
42891W        W 8052  39.690  33.213  12.143
42892W        W 8053  30.809  21.447  10.269
42893W        W 8054  39.403  30.151   4.571
42894W        W 8055  28.938  15.784  13.310
42895W        W 8056   2.933   2.174   2.926
42896W        W 8057  34.901  26.390   3.376
42897W        W 8058   3.051   1.680  13.053
42898W        W 8059   3.701  20.276   1.748
42899W        W 8060  10.790  19.704  12.466
42900W        W 8061  38.127  41.237  14.312
42901W        W 8062   2.982   6.165   2.743
42902W        W 8063  34.656  44.521   0.824
42903W        W 8064  16.521  19.236  13.927
42904W        W 8065  23.013   7.989  11.759
42905W        W 8066  33.647  21.695   3.920
42906W        W 8067  38.034   9.256   1.717
42907W        W 8068  24.246  27.601   4.094
42908W        W 8069  13.044  20.108   3.226
42909W        W 8070   7.147  34.365   1.341
42910W        W 8071  27.369   7.324  14.394
42911W        W 8072  19.748  35.881  13.482
42912W        W 8073  42.265  22.965  11.183
42913W        W 8074   3.413   0.856   2.492
42914W        W 8075  17.062  38.074   1.018
42915W        W 8076   6.349  29.947  14.895
42916W        W 8077  14.260  19.704  12.114
42917W        W 8078   4.585   4.105  14.749
42918W        W 8079  39.318   2.505   0.385
42919W        W 8080  25.053  26.997  13.362
42920W        W 8081  39.388  11.759  12.578
42921W        W 8082  11.820  37.515   1.354
42922W        W 8083  35.625   5.934   0.980
42923W        W 8084  38.551  40.958  14.009
42924W        W 8085   1.916   8.360  14.658
42925W        W 8086  33.214  40.992   2.174
42926W        W 8087  20.076   6.957  14.485
42927W        W 8088  25.735   9.368   3.582
42928W        W 8089  43.325   8.967  13.970
42929W        W 8090  43.414  41.743   2.658
42930W        W 8091  20.742  19.547   2.817
42931W        W 8092  27.607  28.092   4.623
42932W        W 8093  36.388   7.770  13.520
42933W        W 8094   3.243   9.479   2.527
42934W        W 8095  25.463  10.758  13.625
42935W        W 8096   4.426  44.356  12.018
42936W        W 8097  24.586  10.841  14.320
42937W        W 8098   3.763  20.143   4.626
42938W        W 8099  37.890  25.616   4.318
42939W        W 8100  11.307  35.328   2.914
42940W        W 8101  27.085   1.316   0.373
42941W        W 8102  41.546  23.122   3.928
42942W        W 8103   8.730  16.025  10.330
42943W        W 8104  37.679  17.976   4.492
42944W        W 8105  12.306  24.135   0.939
42945W        W 8106  22.602  36.592   1.317
42946W        W 8107  17.220  10.667   2.951
42947W        W 8108  44.409  39.522   1.422
42948W        W 8109   7.341  36.625   4.097
42949W        W 8110   3.900  42.882   1.362
42950W        W 8111  20.846  34.239   2.001
42951W        W 8112  11.147  13.122  11.593
42952W        W 8113  29.707  36.603   0.017
42953W        W 8114  14.462  28.548   4.595
42954W        W 8115  14.541   9.951   2.259
42955W        W 8116  31.945  10.082   0.901
42956W        W 8117   8.312   1.756   0.654
42957W        W 8118  20.210  43.893   3.643
42958W        W 8119  33.675  12.544   4.247
42959W        W 8120  11.857  40.880  13.317
42960W        W 8121   8.730  26.597  12.537
42961W        W 8122  31.959   2.969  10.739
42962W        W 8123  37.982  12.088  10.638
42963W        W 8124  32.895  40.654   4.862
42964W        W 8125  29.152   1.015   3.874
42965W        W 8126  20.239   6.348  13.244
42966W        W 8127  35.656  14.577  13.234
42967W        W 8128  36.926  40.068  12.922
42968W        W 8129  27.995  39.440   3.245
42969W        W 8130  19.101  44.031  13.999
42970W        W 8131  16.650  31.599   2.764
42971W        W 8132  15.366   8.801  12.975
42972W        W 8133  31.796  38.262   3.220
42973W        W 8134  43.257  11.255  14.682
42974W        W 8135  30.472  33.414  11.924
42975W        W 8136  42.503   3.933  12.424
42976W        W 8137  31.814  39.878   2.665
42977W        W 8138  24.496   8.465  13.385
42978W        W 8139  25.127  19.439  11.517
42979W        W 8140   1.677   6.707  10.570
42980W        W 8141   4.605   3.946  10.182
42981W        W 8142  27.846  17.451   4.249
42982W        W 8143  44.002  37.368   2.941
42983W        W 8144  22.521  22.824  14.846
42984W        W 8145  28.940  16.260   0.023
42985W        W 8146  25.295  23.734   1.469
42986W        W 8147  16.131  17.790   3.291
42987W        W 8148  33.442  10.669  13.750
42988W        W 8149   0.833   3.998  11.457
42989W        W 8150  30.235  29.530   4.848
42990W        W 8151  21.112  33.065  12.798
42991W        W 8152   2.537  14.914  14.037
42992W        W 8153  43.476   3.299  12.060
42993W        W 8154  18.625   3.742  13.275
42994W        W 8155  29.913   5.218   4.877
42995W        W 8156  17.541  37.474   4.495
42996W        W 8157   6.883   4.212   1.399
42997W        W 8158   8.187  15.823   3.042
42998W        W 8159  37.606  22.695  12.954
42999W        W 8160  21.555  18.863  12.075
43000W        W 8161  44.091   2.949  14.543
43001W        W 8162  26.001  12.705  12.588
43002W        W 8163  14.204  25.217   1.870
43003W        W 8164  34.242   4.989   3.188
43004W        W 8165  37.558  34.356  13.413
43005W        W 8166   3.085  25.928  11.167
43006W        W 8167  36.003   0.229   1.473
43007W        W 8168  19.567  16.787   3.182
43008W        W 8169  40.158  32.889  11.243
43009W        W 8170  20.888  19.381  11.104
43010W        W 8171  32.429   1.865  14.071
43011W        W 8172  24.184  35.734   2.321
43012W        W 8173  38.436   4.901   0.922
43013W        W 8174  33.398  34.337   4.090
43014W        W 8175  13.956  42.008  10.650
43015W        W 8176  21.444   2.457  10.735
43016W        W 8177  36.047  30.518  10.514
43017W        W 8178  15.715   6.330   4.703
43018W        W 8179   1.391   7.430  12.528
43019W        W 8180   9.606  38.464  11.285
43020W        W 8181  38.616  14.881  14.135
43021W        W 8182  10.225  26.530  11.760
43022W        W 8183  30.434  39.953  13.191
43023W        W 8184   4.455  18.520  10.854
43024W        W 8185  39.644  14.017   2.454
43025W        W 8186   6.487  21.019   2.648
43026W        W 8187   0.787  43.789   2.830
43027W        W 8188  19.157  12.632  14.044
43028W        W 8189  20.686   9.258  14.433
43029W        W 8190  20.685  38.879   0.714
43030W        W 8191  25.342  20.812   4.186
43031W        W 8192   9.749  28.257   0.428
43032W        W 8193  18.875  40.282   1.652
43033W        W 8194  19.222  10.305   4.395
43034W        W 8195  18.706  18.036   3.414
43035W        W 8196  14.215  38.938   2.361
43036W        W 8197  23.132  27.677   4.119
43037W        W 8198  11.759  23.985   1.772
43038W        W 8199  35.043  36.014   0.530
43039W        W 8200  30.625  13.065   3.116
43040W        W 8201   6.248  10.743   4.797
43041W        W 8202   1.899   7.738  12.222
43042W        W 8203  11.732  23.359   2.898
43043W        W 8204   2.744   1.009  14.369
43044W        W 8205  40.918  27.756  12.713
43045W        W 8206  43.012  27.389  14.860
43046W        W 8207  34.823  29.161  14.887
43047W        W 8208  10.789  33.090   2.185
43048W        W 8209  31.899  15.309  13.065
43049W        W 8210  33.517   1.834   3.097
43050W        W 8211  22.446  19.017  12.510
43051W        W 8212   2.412  23.861  11.216
43052W        W 8213   0.732  20.339  12.084
43053W        W 8214  35.466   5.039   1.415
43054W        W 8215  33.556   6.400   3.449
43055W        W 8216   5.348   1.268  12.877
43056W        W 8217  34.918  24.827  13.275
43057W        W 8218  35.675   5.281  14.333
43058W        W 8219   2.067   1.880   1.034
43059W        W 8220  25.587  32.739  14.285
43060W        W 8221   3.566   3.376   3.384
43061W        W 8222   6.873  42.046   2.744
43062W        W 8223  28.854  27.604   4.407
43063W        W 8224  43.421  27.159   4.283
43064W        W 8225  11.210  32.099  13.259
43065W        W 8226   4.342  15.671   0.473
43066W        W 8227   8.691   7.220   3.147
43067W        W 8228  10.820   7.801  11.492
43068W        W 8229   7.358  26.767   3.609
43069W        W 8230  41.402  38.918   3.777
43070W        W 8231  17.079  19.272   1.094
43071W        W 8232  41.718  24.125   1.146
43072W        W 8233  29.107   7.274  14.930
43073W        W 8234   2.784  34.176   1.157
43074W        W 8235  39.766  21.651  12.622
43075W        W 8236  36.915  21.695  10.528
43076W        W 8237  13.746  25.701   1.669
43077W        W 8238  20.887   6.844  11.241
43078W        W 8239  26.252  42.920   5.576
43079W        W 8240  43.378  31.129   2.574
43080W        W 8241  17.032  19.600   2.383
43081W        W 8242  11.355   7.357   0.636
43082W        W 8243  24.419   6.200  14.702
43083W        W 8244  41.958   9.429   2.808
43084W        W 8245  10.804  36.889  14.341
43085W        W 8246  32.736  27.068   1.863
43086W        W 8247   4.492  32.522  14.758
43087W        W 8248  41.547   0.774   4.632
43088W        W 8249  14.563  39.224  12.127
43089W        W 8250  19.224  35.091   1.884
43090W        W 8251  40.783  14.778   3.691
43091W        W 8252  27.618  22.896   5.434
43092W        W 8253  31.588  21.684  13.876
43093W        W 8254  31.369   9.118  13.113
43094W        W 8255  15.034  40.349  11.967
43095W        W 8256   6.305  42.538  12.432
43096W        W 8257  37.890   8.858  14.573
43097W        W 8258   5.541  27.399  10.355
43098W        W 8259  27.496   1.007   4.520
43099W        W 8260  30.409  19.768  13.942
43100W        W 8261  21.304  17.100   2.853
43101W        W 8262  29.848  42.170  11.087
43102W        W 8263   9.669  29.656   0.500
43103W        W 8264  20.715  42.545   0.668
43104W        W 8265  14.622  32.087  14.956
43105W        W 8266  14.726   2.268  12.207
43106W        W 8267  12.845   7.436   3.143
43107W        W 8268  42.241   2.336   2.828
43108W        W 8269  15.635  16.615  11.918
43109W        W 8270  14.375  23.491   1.970
43110W        W 8271  33.075  38.173  13.296
43111W        W 8272  37.323  41.670   1.483
43112W        W 8273   9.036  33.491   0.183
43113W        W 8274   7.254  42.974   1.988
43114W        W 8275   9.681   0.918   1.551
43115W        W 8276  17.489   0.646   0.974
43116W        W 8277  33.280  26.090   3.186
43117W        W 8278  39.792   1.423   4.468
43118W        W 8279   1.689  22.527  12.568
43119W        W 8280  41.738  10.662   4.555
43120W        W 8281  34.921  35.152  10.686
43121W        W 8282  33.795   8.867   1.779
43122W        W 8283  21.107  33.349   0.313
43123W        W 8284   0.389  16.180   3.375
43124W        W 8285  35.707   9.869  12.093
43125W        W 8286  11.958   9.237   4.992
43126W        W 8287  31.811   8.176  11.270
43127W        W 8288  32.014   7.897  14.426
43128W        W 8289  23.086  31.031  12.818
43129W        W 8290   8.683  18.679   1.028
43130W        W 8291   7.260  26.711   1.888
43131W        W 8292  35.073   5.736   4.099
43132W        W 8293  14.236  41.419   0.777
43133W        W 8294   1.740  42.510   1.927
43134W        W 8295   0.202  43.440  12.690
43135W        W 8296  29.145  28.111   4.571
43136W        W 8297   2.719  20.066   0.240
43137W        W 8298  40.483  44.862   1.330
43138W        W 8299  31.167  43.593   1.338
43139W        W 8300  23.049  18.944   3.223
43140W        W 8301  19.524  21.084  12.559
43141W        W 8302  13.140   7.894   3.266
43142W        W 8303  28.054  35.148  13.861
43143W        W 8304  32.980  39.310   0.801
43144W        W 8305  38.553   5.747  14.376
43145W        W 8306  34.693  24.468   3.260
43146W        W 8307  24.656  32.212  14.466
43147W        W 8308  31.573  44.532   1.383
43148W        W 8309  19.990  26.992  14.339
43149W        W 8310   1.233  36.406   1.753
43150W        W 8311   2.733  24.652  12.511
43151W        W 8312  15.278  14.618  11.123
43152W        W 8313  19.036  11.871  13.145
43153W        W 8314  23.946  34.602   4.167
43154W        W 8315  15.608  37.274  14.897
43155W        W 8316  25.428  29.982   2.989
43156W        W 8317  22.473   2.317   2.493
43157W        W 8318  26.188  35.974   0.178
43158W        W 8319   0.308  30.135   2.418
43159W        W 8320  36.819  16.024  14.939
43160W        W 8321  25.006  33.205  14.988
43161W        W 8322  20.184   2.065   1.394
43162W        W 8323  17.309  17.683  12.457
43163W        W 8324  33.885  33.763   4.314
43164W        W 8325   7.754  15.148   2.235
43165W        W 8326  30.508  18.192   3.248
43166W        W 8327  24.472  35.397  14.939
43167W        W 8328   4.192  11.609   3.817
43168W        W 8329   2.197  14.249   2.400
43169W        W 8330  16.259   2.293   4.583
43170W        W 8331  19.410  35.466  14.573
43171W        W 8332  42.402  31.394  12.858
43172W        W 8333  31.999  21.606   1.441
43173W        W 8334  39.299  18.479  10.431
43174W        W 8335  38.353  23.807  13.407
43175W        W 8336  42.455   9.452   0.256
43176W        W 8337   4.918   2.666  14.503
43177W        W 8338  40.303  33.355  13.964
43178W        W 8339  31.011   8.631  11.825
43179W        W 8340  39.827  43.573  14.481
43180W        W 8341  13.363  38.673   1.747
43181W        W 8342  22.244  18.034   4.172
43182W        W 8343  19.552  19.115  13.820
43183W        W 8344   8.441   1.970  13.855
43184W        W 8345   0.401  19.581   4.717
43185W        W 8346  16.867  35.364  12.882
43186W        W 8347  33.961  20.671   4.359
43187W        W 8348  35.943  12.444  13.431
43188W        W 8349  22.843  21.742   1.453
43189W        W 8350  18.228  15.761  12.123
43190W        W 8351  16.752  24.440  12.366
43191W        W 8352   6.322  23.404  11.090
43192W        W 8353  30.509  26.882  13.745
43193W        W 8354  15.123  30.571   4.747
43194W        W 8355  41.688   0.051   4.055
43195W        W 8356  21.199  17.440  13.109
43196W        W 8357  24.785   3.594   3.688
43197W        W 8358  40.487  42.221  14.690
43198W        W 8359   1.268   5.101   4.129
43199W        W 8360  42.385  30.455   4.136
43200W        W 8361  42.452   8.068  13.947
43201W        W 8362   4.291  36.394   1.416
43202W        W 8363   8.597   7.710  10.564
43203W        W 8364   5.651   3.701   0.081
43204W        W 8365  30.725  31.480   5.111
43205W        W 8366  43.042  14.248  13.291
43206W        W 8367  30.384  39.543  12.866
43207W        W 8368  18.653  10.868   4.248
43208W        W 8369  29.105  19.391   4.241
43209W        W 8370  16.678   9.404  14.847
43210W        W 8371  42.623   2.766  13.450
43211W        W 8372   0.352  30.999  12.502
43212W        W 8373  21.267  41.775  11.498
43213W        W 8374  33.452  23.644  14.983
43214W        W 8375  40.798  31.213  13.967
43215W        W 8376  17.110  12.189   3.166
43216W        W 8377  14.124  38.901  11.766
43217W        W 8378  39.842  21.663   4.077
43218W        W 8379  15.274   4.543   3.385
43219W        W 8380   4.023  20.345   0.868
43220W        W 8381  40.027  18.789  14.779
43221W        W 8382  23.173  42.557  10.973
43222W        W 8383  37.323   5.278  13.073
43223W        W 8384  33.406  16.748  12.031
43224W        W 8385  42.024   2.931   1.746
43225W        W 8386  36.832   7.103   0.492
43226W        W 8387  35.308  16.030   0.719
43227W        W 8388  32.119  12.998  14.377
43228W        W 8389  15.378   0.669  13.562
43229W        W 8390  44.362  43.802  10.330
43230W        W 8391   0.314  34.652   2.267
43231W        W 8392  40.070  20.506  14.045
43232W        W 8393  26.285  12.056  13.889
43233W        W 8394   3.857  15.094   9.515
43234W        W 8395  20.623  10.821  11.165
43235W        W 8396   0.984  12.719  14.435
43236W        W 8397  36.797   9.296  10.772
43237W        W 8398  31.869  35.113   0.181
43238W        W 8399  23.330  13.926   1.836
43239W        W 8400  26.770   8.412   4.522
43240W        W 8401  17.699  25.092  12.885
43241W        W 8402   1.730  17.522  12.511
43242W        W 8403   0.447  20.560   3.386
43243W        W 8404  42.455  14.241  14.842
43244W        W 8405   0.258  18.050  10.828
43245W        W 8406   3.545  23.588   1.979
43246W        W 8407  13.234   6.807   1.204
43247W        W 8408  24.534  28.904  11.858
43248W        W 8409   2.006  34.476  12.831
43249W        W 8410  33.984  34.397   0.725
43250W        W 8411  31.502   9.329   3.247
43251W        W 8412   2.807  10.566  14.852
43252W        W 8413   2.786  43.357  10.706
43253W        W 8414  31.318  11.100   4.211
43254W        W 8415   5.076   8.076   0.483
43255W        W 8416  18.275  11.987   3.955
43256W        W 8417  12.726  27.957  11.198
43257W        W 8418   0.238   4.737   4.317
43258W        W 8419  25.396  28.041   1.932
43259W        W 8420  14.214  44.693  13.350
43260W        W 8421  21.263  13.109   1.754
43261W        W 8422  40.809  29.237  12.531
43262W        W 8423  22.148   0.097  10.664
43263W        W 8424  33.222  38.439   5.001
43264W        W 8425  43.981   5.393  12.421
43265W        W 8426  12.204  13.874  13.061
43266W        W 8427  42.865   1.190  12.284
43267W        W 8428   1.230  33.000  13.874
43268W        W 8429   5.864  32.366  14.958
43269W        W 8430   5.719  41.906  10.527
43270W        W 8431   0.778  39.028  13.019
43271W        W 8432  11.648   7.928  11.699
43272W        W 8433  24.520  33.828  13.205
43273W        W 8434  41.015  42.316  12.043
43274W        W 8435  20.211  21.198  14.238
43275W        W 8436   8.516  40.708   2.362
43276W        W 8437  25.961  33.069   1.760
43277W        W 8438  22.026  20.592   4.084
43278W        W 8439  15.071  42.469  11.441
43279W        W 8440   3.131  44.417  11.079
43280W        W 8441  20.596  14.200  12.500
43281W        W 8442  37.572   2.915   0.992
43282W        W 8443  21.273  41.336  13.502
43283W        W 8444  38.929   6.242   1.935
43284W        W 8445  40.953  39.512   3.127
43285W        W 8446   0.932  31.387  10.752
43286W        W 8447   1.044  43.982  12.223
43287W        W 8448  39.801  11.147   4.659
43288W        W 8449  10.826  17.705  10.638
43289W        W 8450   5.347  37.256   0.349
43290W        W 8451   4.108   5.746  14.307
43291W        W 8452  43.221  31.149  11.770
43292W        W 8453   3.750  13.958   0.456
43293W        W 8454  10.812  13.314   3.376
43294W        W 8455  21.851   5.366   2.370
43295W        W 8456  40.446   7.709  12.136
43296W        W 8457  32.614  34.367  13.557
43297W        W 8458  40.492   9.677   1.729
43298W        W 8459  10.584  20.988   1.467
43299W        W 8460  22.016  23.459  12.725
43300W        W 8461  41.775   7.404   5.011
43301W        W 8462  40.535  36.050   0.308
43302W        W 8463  43.385  17.081   3.730
43303W        W 8464  25.203   7.906  13.117
43304W        W 8465  37.728  26.659   0.066
43305W        W 8466   8.839  25.300  10.049
43306W        W 8467   7.861   8.899  10.057
43307W        W 8468  30.785  10.471  13.401
43308W        W 8469  39.561  33.455  14.474
43309W        W 8470  39.360  13.403   3.241
43310W        W 8471  43.762   8.204   1.449
43311W        W 8472  22.053  40.293  11.503
43312W        W 8473  24.536   3.853  13.328
43313W        W 8474  31.085   7.765  12.412
43314W        W 8475   0.278  19.191  13.034
43315W        W 8476  33.108  14.769   3.219
43316W        W 8477  14.969  35.863  13.473
43317W        W 8478   8.718  23.547  13.627
43318W        W 8479  28.727  15.240   1.328
43319W        W 8480   6.259  12.988  13.783
43320W        W 8481  27.666  25.730   3.072
43321W        W 8482  13.856  44.455  14.030
43322W        W 8483  33.225   1.982  11.411
43323W        W 8484  22.293   6.247   3.344
43324W        W 8485  10.305   2.459  11.664
43325W        W 8486  28.675  16.279  14.540
43326W        W 8487  11.588  24.585  14.990
43327W        W 8488  17.686  26.324   0.648
43328W        W 8489  39.361  39.343   2.803
43329W        W 8490   0.906  41.239   5.032
43330W        W 8491   9.983  35.418   2.723
43331W        W 8492  27.106   4.139  12.438
43332W        W 8493   8.102  26.144   0.335
43333W        W 8494  16.907  16.169  12.899
43334W        W 8495  31.105  28.601   4.090
43335W        W 8496  20.280  16.546  13.077
43336W        W 8497  42.505   1.639   1.250
43337W        W 8498   4.212  13.800  12.917
43338W        W 8499  31.019  35.690  13.845
43339W        W 8500  25.579  19.757  13.377
43340W        W 8501  42.840  29.704  12.178
43341W        W 8502  20.712   3.144   5.291
43342W        W 8503  33.109  42.651   3.640
43343W        W 8504  10.631  14.693   0.308
43344W        W 8505  31.644  36.322  13.763
43345W        W 8506  38.900   6.838   3.563
43346W        W 8507  15.391  25.612  10.446
43347W        W 8508  31.102  28.600  11.722
43348W        W 8509   7.717  20.183  10.926
43349W        W 8510  31.040  12.757  14.755
43350W        W 8511  37.963  42.492   0.783
43351W        W 8512  29.166   5.703   2.275
43352W        W 8513   2.210  32.566  11.997
43353W        W 8514  14.198  39.367   4.136
43354W        W 8515  35.849  36.833  11.497
43355W        W 8516  17.884   2.912   4.850
43356W        W 8517  42.320  20.925   2.829
43357W        W 8518   8.655  38.884  11.568
43358W        W 8519  40.725  42.014   4.331
43359W        W 8520   7.887  44.585   3.710
43360W        W 8521  22.187  18.583  10.977
43361W        W 8522  25.627  21.790  12.515
43362W        W 8523  26.446   3.208  13.421
43363W        W 8524  18.654  10.595  14.454
43364W        W 8525  30.504  36.376  13.005
43365W        W 8526  20.503  32.504  13.964
43366W        W 8527  29.461  26.416   0.864
43367W        W 8528  22.547  25.127   1.243
43368W        W 8529  12.315  37.833  13.803
43369W        W 8530  11.691  16.634   3.797
43370W        W 8531  22.465  10.899  10.470
43371W        W 8532  28.936  11.764  11.559
43372W        W 8533  28.118   8.029   1.611
43373W        W 8534  23.030  11.851  13.430
43374W        W 8535  26.654  34.654  10.390
43375W        W 8536  31.020  14.500   0.527
43376W        W 8537  21.021   4.458  12.040
43377W        W 8538   8.447   4.398  11.160
43378W        W 8539  16.662  17.945   4.599
43379W        W 8540   2.808  35.041  13.498
43380W        W 8541  31.707  14.769   3.412
43381W        W 8542  44.900  24.754  12.400
43382W        W 8543   9.181  31.187   0.537
43383W        W 8544  43.530   8.242  12.591
43384W        W 8545  26.162  44.947  12.917
43385W        W 8546   8.239  36.009   0.054
43386W        W 8547  30.145  32.235   4.232
43387W        W 8548   7.650  12.281  14.331
43388W        W 8549  40.396  26.888   4.180
43389W        W 8550  44.242  23.524   1.885
43390W        W 8551  39.211   4.840   2.166
43391W        W 8552  12.849  41.293   0.424
43392W        W 8553  44.988  31.866   2.800
43393W        W 8554  10.442  29.207   0.801
43394W        W 8555  33.051  35.450   4.784
43395W        W 8556  19.371  20.473  14.525
43396W        W 8557  43.142  30.143   2.591
43397W        W 8558  21.181   8.502  11.190
43398W        W 8559  10.395  25.877  13.916
43399W        W 8560  30.984  31.688  12.004
43400W        W 8561  21.146  44.215  11.825
43401W        W 8562  14.904  36.533   2.302
43402W        W 8563   0.654  26.580  14.671
43403W        W 8564  17.170   4.934  12.632
43404W        W 8565  33.817  28.511  14.441
43405W        W 8566  39.070  42.006  11.586
43406W        W 8567  10.651   3.988  13.023
43407W        W 8568  11.826   4.541   4.401
43408W        W 8569  37.863  17.371  13.391
43409W        W 8570  29.468  30.677  14.517
43410W        W 8571  40.876  18.639  14.389
43411W        W 8572  31.169  19.979   3.739
43412W        W 8573  17.331  31.173   3.316
43413W        W 8574  28.417  31.028  11.237
43414W        W 8575  28.235  29.053  14.324
43415W        W 8576  13.070  42.228   4.024
43416W        W 8577  20.617  41.957  10.731
43417W        W 8578  35.876  16.751   0.788
43418W        W 8579   7.060  33.821  10.980
43419W        W 8580  14.745  13.451  11.157
43420W        W 8581  20.567  25.460  13.178
43421W        W 8582  33.164  31.029  12.084
43422W        W 8583  22.910  27.113  10.836
43423W        W 8584  38.205  33.463  10.974
43424W        W 8585  14.140  38.045  11.525
43425W        W 8586   9.160  38.671  14.790
43426W        W 8587  14.159  20.580  14.234
43427W        W 8588  40.772   2.266  12.483
43428W        W 8589  17.765  39.861  14.504
43429W        W 8590  38.082  42.559  14.394
43430W        W 8591  28.705   3.022  12.414
43431W        W 8592  22.110  37.543  11.150
43432W        W 8593  38.632  29.727  13.886
43433W        W 8594   5.424  25.599   1.741
43434W        W 8595  34.633  18.063   2.811
43435W        W 8596  13.595  37.539  14.388
43436W        W 8597  38.602   6.613   2.169
43437W        W 8598   9.624  34.440   1.289
43438W        W 8599   7.886  37.884   4.622
43439W        W 8600   1.282   6.414   3.332
43440W        W 8601  42.030  44.132   0.839
43441W        W 8602  40.366  13.749  10.814
43442W        W 8603  33.170  23.775   2.431
43443W        W 8604  21.155  14.229   3.208
43444W        W 8605  18.478  19.891   5.054
43445W        W 8606  10.169  44.732   0.337
43446W        W 8607   8.382  44.514   0.409
43447W        W 8608   0.338  18.025  11.786
43448W        W 8609  16.699  18.490  14.561
43449W        W 8610   2.327  23.575   2.235
43450W        W 8611  19.772   9.366  13.896
43451W        W 8612  27.639  28.372   4.205
43452W        W 8613  13.012  29.146   0.288
43453W        W 8614  38.062  34.119   0.890
43454W        W 8615  15.480  34.470   4.253
43455W        W 8616  12.923  26.456  11.866
43456W        W 8617  25.804  21.033  14.007
43457W        W 8618  44.337  16.374  14.459
43458W        W 8619   5.245  12.863  13.274
43459W        W 8620  32.640   5.180   3.953
43460W        W 8621   9.375   9.424  10.736
43461W        W 8622  42.871  15.297  12.872
43462W        W 8623  29.186  41.032  11.026
43463W        W 8624  25.541  42.530  12.844
43464W        W 8625  40.425  26.003  13.941
43465W        W 8626  14.150  27.924  11.615
43466W        W 8627  38.376  25.421  14.159
43467W        W 8628   9.473  18.249   3.180
43468W        W 8629  12.812  20.840   4.618
43469W        W 8630  44.993   3.975   1.248
43470W        W 8631  18.427   2.572  14.354
43471W        W 8632  38.297  43.020  13.860
43472W        W 8633  23.355  24.623  13.250
43473W        W 8634  13.709  44.001   2.746
43474W        W 8635  35.401  15.012  13.299
43475W        W 8636  33.839  18.274  12.609
43476W        W 8637  24.626  27.419  14.427
43477W        W 8638  10.839  34.610   0.651
43478W        W 8639   7.334  13.637   1.747
43479W        W 8640  41.703  31.533   4.463
43480W        W 8641  34.584  29.616  11.038
43481W        W 8642  38.584  22.594   0.169
43482W        W 8643  33.671  36.606   1.195
43483W        W 8644  43.326  25.268  12.570
43484W        W 8645   1.725   7.641   3.542
43485W        W 8646  15.583   0.668  11.576
43486W        W 8647  37.596  18.517  13.431
43487W        W 8648  16.319  26.488   1.248
43488W        W 8649   1.827  14.580  12.090
43489W        W 8650  12.724  28.654   3.105
43490W        W 8651  11.809  41.733   4.312
43491W        W 8652   0.883  20.605   0.688
43492W        W 8653  32.935  23.598   0.560
43493W        W 8654  25.808   6.932  14.196
43494W        W 8655  28.976  29.242  11.933
43495W        W 8656  17.994  12.195  14.932
43496W        W 8657  15.357   4.464  11.581
43497W        W 8658  35.664  41.735  12.897
43498W        W 8659  16.771  36.057   1.392
43499W        W 8660  10.382  32.425  14.529
43500W        W 8661  40.307  44.263   3.113
43501W        W 8662  38.832  29.328  14.432
43502W        W 8663  13.339  44.495   4.211
43503W        W 8664   8.486  41.562  13.579
43504W        W 8665  29.874  10.434  13.568
43505W        W 8666  35.861   1.732   3.208
43506W        W 8667  18.811  19.713  10.700
43507W        W 8668   7.605  23.747   0.927
43508W        W 8669  28.423  21.482  12.582
43509W        W 8670   0.885  19.726   3.012
43510W        W 8671  38.013  11.813  13.140
43511W        W 8672   1.467  37.965  14.832
43512W        W 8673  30.946   4.279  14.385
43513W        W 8674  21.795   5.819   0.755
43514W        W 8675   3.799  42.438   0.004
43515W        W 8676  39.379  24.697   2.425
43516W        W 8677  16.619  35.723  14.063
43517W        W 8678  12.799   9.440   4.637
43518W        W 8679   6.358  16.093   4.540
43519W        W 8680  18.040  25.003   1.480
43520W        W 8681  17.300  41.816   2.673
43521W        W 8682  36.829  28.443  12.861
43522W        W 8683  40.036  12.601  12.071
43523W        W 8684  15.605  35.833   2.108
43524W        W 8685   2.715  17.783   4.555
43525W        W 8686  33.865   6.725  12.978
43526W        W 8687  42.762  30.990  13.107
43527W        W 8688  22.819  44.294  11.166
43528W        W 8689  34.902  41.524  12.139
43529W        W 8690   2.366  25.949  12.625
43530W        W 8691  17.139   8.781  14.277
43531W        W 8692  35.457  36.882   0.178
43532W        W 8693  25.497   9.863   3.568
43533W        W 8694  37.174  44.863   0.838
43534W        W 8695  37.662  28.571   2.492
43535W        W 8696   2.875  24.098  13.393
43536W        W 8697  21.038  39.985  12.799
43537W        W 8698   7.580  33.303   9.916
43538W        W 8699  17.335  40.179  14.543
43539W        W 8700  15.630  14.550   3.820
43540W        W 8701  23.605  33.901   1.486
43541W        W 8702  30.352   6.752  11.678
43542W        W 8703  17.693  12.845  13.790
43543W        W 8704  30.462   3.659  11.137
43544W        W 8705  44.823   7.086   4.507
43545W        W 8706  28.136  38.497   3.270
43546W        W 8707   4.652  14.694   1.469
43547W        W 8708  28.681   3.206   4.218
43548W        W 8709  29.239   7.411  10.504
43549W        W 8710  27.574  14.687  13.896
43550W        W 8711  44.814  24.043   4.025
43551W        W 8712  30.373  30.530  14.412
43552W        W 8713  25.594  21.552   2.751
43553W        W 8714  35.886  14.402  14.932
43554W        W 8715  15.649  16.093  13.537
43555W        W 8716  26.693  22.291  14.419
43556W        W 8717  10.854  11.417  13.563
43557W        W 8718   3.255  22.746   0.869
43558W        W 8719  12.115  44.386   4.651
43559W        W 8720  17.732  40.753   2.329
43560W        W 8721  38.148  20.100   1.405
43561W        W 8722   5.402  26.711  13.562
43562W        W 8723  40.819  33.120   1.799
43563W        W 8724  40.678  41.856  12.900
43564W        W 8725  33.965  37.271  12.117
43565W        W 8726  13.690  25.263   3.776
43566W        W 8727  28.387  22.272  14.784
43567W        W 8728  12.655  41.683   0.687
43568W        W 8729  40.034  33.949  10.608
43569W        W 8730   9.775  40.321   0.341
43570W        W 8731  29.586  39.773   0.743
43571W        W 8732  37.423  35.378  13.425
43572W        W 8733  22.784   9.809   0.391
43573W        W 8734  36.616   6.146  11.111
43574W        W 8735   0.036  43.332   2.710
43575W        W 8736  40.401  33.252   4.597
43576W        W 8737   2.000  35.901  12.787
43577W        W 8738  12.877  29.113  13.128
43578W        W 8739  43.327  36.924   0.388
43579W        W 8740  40.969   3.885  13.321
43580W        W 8741  31.648  12.692   1.740
43581W        W 8742  15.844   9.635   0.366
43582W        W 8743  23.936  35.927  14.353
43583W        W 8744  11.582  26.958   2.763
43584W        W 8745  41.743  17.795   0.858
43585W        W 8746   7.394  35.114   4.565
43586W        W 8747  30.607   7.991  13.571
43587W        W 8748  31.356  14.318   2.709
43588W        W 8749   1.748   6.791   1.206
43589W        W 8750  28.769  40.807   0.740
43590W        W 8751  12.858  35.713   1.232
43591W        W 8752   4.768  17.246  13.477
43592W        W 8753  22.488  14.115   3.293
43593W        W 8754  14.418  22.744  13.475
43594W        W 8755  36.569  30.764   4.747
43595W        W 8756   6.485  16.261   3.587
43596W        W 8757  27.783  30.414  12.567
43597W        W 8758   1.851  26.237   3.308
43598W        W 8759   3.019  30.471   1.729
43599W        W 8760   7.299  16.063   3.234
43600W        W 8761  12.159  36.988  11.195
43601W        W 8762  42.148  32.881  11.135
43602W        W 8763  44.691  24.541   4.853
43603W        W 8764  14.210  17.506  12.663
43604W        W 8765   1.449  26.117   2.216
43605W        W 8766  35.359  13.669  12.803
43606W        W 8767  24.949  35.019   3.229
43607W        W 8768  11.416   2.921  12.814
43608W        W 8769  31.340  36.228  11.191
43609W        W 8770  30.376  34.950  13.943
43610W        W 8771  27.774   0.563   0.502
43611W        W 8772  17.308   6.647  11.971
43612W        W 8773  43.155  19.751  11.594
43613W        W 8774  43.908  34.351  11.688
43614W        W 8775  34.540  33.988   2.713
43615W        W 8776  11.884  44.873  12.087
43616W        W 8777  14.613  26.224   3.632
43617W        W 8778  10.056  28.193  11.596
43618W        W 8779  29.933  11.218   0.798
43619W        W 8780  38.276  13.911   4.139
43620W        W 8781  42.211  11.264  12.959
43621W        W 8782  15.574  10.086   3.133
43622W        W 8783  11.924   9.352   0.229
43623W        W 8784  33.486  22.242   5.262
43624W        W 8785  27.590  12.665   2.631
43625W        W 8786  25.682  22.574  10.722
43626W        W 8787  32.042  15.521   4.548
43627W        W 8788  25.701   9.712   1.838
43628W        W 8789   3.768  26.818  12.060
43629W        W 8790  35.031  37.420  13.381
43630W        W 8791  29.924  28.673   0.749
43631W        W 8792  21.752   3.050   2.168
43632W        W 8793  11.945  42.403  11.911
43633W        W 8794  24.740  40.864  13.341
43634W        W 8795   1.483   4.207   1.294
43635W        W 8796  34.868  15.359   3.977
43636W        W 8797   1.875   0.951  13.018
43637W        W 8798  29.235  31.160   1.756
43638W        W 8799  44.900   9.410  13.896
43639W        W 8800  27.114  25.873  12.595
43640W        W 8801   3.695  34.067   4.906
43641W        W 8802  37.518   6.889   3.577
43642W        W 8803  10.209  26.479   1.393
43643W        W 8804  19.570  16.960  13.853
43644W        W 8805  32.233  10.233  14.945
43645W        W 8806  14.320  44.528  13.840
43646W        W 8807   2.869   2.654   3.746
43647W        W 8808  14.506  14.127  13.619
43648W        W 8809  40.403  17.018   4.474
43649W        W 8810  44.720  31.509  12.127
43650W        W 8811  14.075  36.791   1.758
43651W        W 8812  43.262   1.202   0.832
43652W        W 8813  10.161  42.966   1.304
43653W        W 8814  33.484  25.651   2.364
43654W        W 8815   6.382  21.089   4.953
43655W        W 8816  21.719   6.407   4.821
43656W        W 8817  24.433  22.021   1.226
43657W        W 8818  37.485  17.334  14.896
43658W        W 8819  39.114  25.062  13.441
43659W        W 8820  37.621  29.395  13.952
43660W        W 8821   6.075  24.338  10.201
43661W        W 8822   5.396   4.712   2.859
43662W        W 8823  20.628   6.344  12.030
43663W        W 8824  27.511  31.222  11.748
43664W        W 8825  27.031  44.665  14.967
43665W        W 8826   2.203   3.870   2.605
43666W        W 8827  39.771  16.202  13.105
43667W        W 8828  16.806  22.145   4.525
43668W        W 8829  16.743  44.002  12.477
43669W        W 8830   7.403   0.337   4.065
43670W        W 8831   9.978  38.361   4.781
43671W        W 8832  39.374  35.132  10.312
43672W        W 8833   5.457  16.316   3.668
43673W        W 8834  29.226  17.789   1.712
43674W        W 8835  24.035  22.803  11.148
43675W        W 8836  26.799  10.107  13.319
43676W        W 8837  12.078  30.631   1.835
43677W        W 8838  44.848  28.469   1.269
43678W        W 8839   0.907  24.208   1.007
43679W        W 8840  39.381  22.423   0.440
43680W        W 8841  22.257   0.830  12.165
43681W        W 8842   9.425   3.463   3.675
43682W        W 8843  10.370  14.750  10.660
43683W        W 8844  27.439   1.964  12.025
43684W        W 8845  34.165  20.254   4.695
43685W        W 8846   5.311   1.682  13.752
43686W        W 8847  28.030  44.351  14.859
43687W        W 8848   6.336   7.954   3.149
43688W        W 8849   4.194  11.712   1.725
43689W        W 8850  42.558  37.975   1.761
43690W        W 8851  37.760  14.576  12.947
43691W        W 8852  41.947   9.640   0.213
43692W        W 8853  25.677  20.061   1.366
43693W        W 8854  36.818  35.628  11.090
43694W        W 8855  20.515   7.263   0.647
43695W        W 8856   3.772  37.842   3.715
43696W        W 8857  13.995  13.675   2.122
43697W        W 8858   4.640  15.885  12.540
43698W        W 8859  32.799  15.748  13.888
43699W        W 8860   3.033  28.786   0.894
43700W        W 8861  20.670   1.637  10.388
43701W        W 8862   4.648   5.435   0.953
43702W        W 8863  14.970  38.984  13.746
43703W        W 8864  28.622  11.622  14.871
43704W        W 8865   4.013  31.517  11.559
43705W        W 8866  15.694  25.433  10.051
43706W        W 8867  14.572  27.692  12.119
43707W        W 8868   2.270   0.518  13.825
43708W        W 8869  11.583  20.484  14.928
43709W        W 8870  20.996   1.500   2.595
43710W        W 8871  14.661  31.016   2.726
43711W        W 8872  44.718   1.315  10.593
43712W        W 8873  30.997  20.473   2.893
43713W        W 8874   0.762  17.064  12.386
43714W        W 8875  42.571  11.309   0.412
43715W        W 8876  17.612  30.964  13.069
43716W        W 8877  13.250  19.353  14.823
43717W        W 8878  41.775  44.097   1.450
43718W        W 8879   6.369  19.341  13.341
43719W        W 8880  33.024  10.642   3.854
43720W        W 8881  35.845  25.626  13.113
43721W        W 8882   8.596   1.512  12.774
43722W        W 8883  21.845  19.285  11.978
43723W        W 8884  43.417  12.098  13.036
43724W        W 8885   1.273  27.537   4.090
43725W        W 8886  11.828  40.410   4.553
43726W        W 8887  44.858  23.354  11.330
43727W        W 8888   6.182  28.498  12.183
43728W        W 8889  34.963  15.648  11.021
43729W        W 8890  20.814  37.796   0.385
43730W        W 8891  38.254  11.325  14.256
43731W        W 8892  21.331   1.916  12.474
43732W        W 8893  19.545  18.723  13.424
43733W        W 8894  29.532   9.302   4.628
43734W        W 8895  18.674  29.361  14.458
43735W        W 8896   4.357  28.409  12.584
43736W        W 8897  14.597  18.740   1.268
43737W        W 8898  43.422  11.612   1.178
43738W        W 8899  23.225  25.265   2.395
43739W        W 8900  36.776  27.429   0.516
43740W        W 8901  42.619  10.535   4.698
43741W        W 8902   2.407   8.338  13.197
43742W        W 8903   9.937   9.618  13.763
43743W        W 8904   7.220  40.603  10.610
43744W        W 8905  38.105  36.160  14.516
43745W        W 8906  36.512  24.436   2.244
43746W        W 8907  11.047  34.433  13.065
43747W        W 8908  20.711  38.286  14.054
43748W        W 8909  34.812  23.736  13.882
43749W        W 8910  29.649  28.317   0.498
43750W        W 8911  14.169  36.567  12.418
43751W        W 8912  13.018  34.421  11.518
43752W        W 8913  43.093  13.656   4.134
43753W        W 8914   1.661  32.678  14.985
43754W        W 8915   7.811  17.250   4.555
43755W        W 8916   9.404  14.239   2.772
43756W        W 8917  15.801  11.256   0.237
43757W        W 8918  26.739  25.525  10.636
43758W        W 8919  15.108  18.614   5.225
43759W        W 8920   1.426   4.636   3.152
43760W        W 8921  20.817  36.900  13.512
43761W        W 8922   9.635  14.882  11.176
43762W        W 8923   3.793  36.152  14.552
43763W        W 8924  34.494  36.772   4.283
43764W        W 8925  27.776  24.273  13.727
43765W        W 8926  30.491   8.914   3.190
43766W        W 8927  41.195  30.709  11.558
43767W        W 8928  40.407  22.163  12.989
43768W        W 8929  10.215  24.607  11.072
43769W        W 8930  37.186  38.331  14.293
43770W        W 8931  26.175   6.783   0.055
43771W        W 8932  23.625   7.327  13.700
43772W        W 8933  30.925  43.048   2.690
43773W        W 8934   1.767  43.838   4.496
43774W        W 8935  11.093  38.894  13.934
43775W        W 8936  23.029  43.766  13.274
43776W        W 8937  20.309  40.387  12.164
43777W        W 8938   6.299   6.428  14.307
43778W        W 8939  40.765  22.636  11.255
43779W        W 8940  23.621  32.852  13.475
43780W        W 8941  22.524   4.462   3.790
43781W        W 8942  37.108  25.633  11.777
43782W        W 8943  44.372  15.590  12.015
43783W        W 8944   4.372  23.193  13.418
43784W        W 8945  15.700  17.815  11.449
43785W        W 8946  41.363  39.746  12.567
43786W        W 8947  20.232   8.850   4.793
43787W        W 8948   9.457  39.032   2.266
43788W        W 8949   8.708  21.468   4.137
43789W        W 8950  18.875  29.040  14.838
43790W        W 8951  26.488   2.225   2.775
43791W        W 8952  25.571  14.239   5.048
43792W        W 8953   6.441  42.903   2.413
43793W        W 8954  42.017  40.600  14.398
43794W        W 8955  32.487  32.820  11.563
43795W        W 8956   8.403  44.548   4.962
43796W        W 8957  29.658  31.899  11.703
43797W        W 8958  19.814  15.626  14.034
43798W        W 8959  24.674   3.481  13.666
43799W        W 8960  15.380   5.357  14.323
43800W        W 8961  31.457  34.942   2.334
43801W        W 8962  22.465   1.084  13.924
43802W        W 8963   9.886  43.886  12.429
43803W        W 8964   4.801  43.414  13.054
43804W        W 8965  44.520  10.212  13.527
43805W        W 8966   3.386  40.287   4.383
43806W        W 8967  35.918  23.573  11.562
43807W        W 8968  26.748  25.611   4.233
43808W        W 8969  14.083   2.362   1.455
43809W        W 8970  31.034  24.915   0.768
43810W        W 8971  43.516  43.731   2.221
43811W        W 8972  38.802  22.716  12.424
43812W        W 8973  31.538   2.205  11.597
43813W        W 8974  14.143  40.881  12.493
43814W        W 8975  29.517  18.054   3.313
43815W        W 8976   9.361   2.716  13.561
43816W        W 8977  14.616   0.945  14.587
43817W        W 8978   8.620  15.362   1.222
43818W        W 8979  21.970  39.292   2.260
43819W        W 8980  26.227  18.681   3.463
43820W        W 8981  35.350  20.339  10.711
43821W        W 8982  26.180  28.010   3.700
43822W        W 8983  34.062  41.688  14.845
43823W        W 8984  44.900  19.529   0.191
43824W        W 8985  42.220   2.867  11.066
43825W        W 8986  39.863   3.559  12.433
43826W        W 8987  40.997  38.392  10.441
43827W        W 8988  20.566  10.595  10.697
43828W        W 8989  38.592  27.544   1.888
43829W        W 8990  35.203  26.461   4.272
43830W        W 8991  21.589  30.999  14.458
43831W        W 8992   7.774   7.631  11.054
43832W        W 8993  37.810  27.005  10.922
43833W        W 8994  26.102  38.759   1.725
43834W        W 8995  13.041  41.840  14.304
43835W        W 8996  42.233  28.700  12.696
43836W        W 8997  17.555  44.688  10.340
43837W        W 8998  43.473  42.013   3.136
43838W        W 8999  33.401   5.442   0.147
43839W        W 9000  29.225  41.576   2.732
43840W        W 9001  38.680  43.292  13.531
43841W        W 9002  11.895  13.776  12.345
43842W        W 9003  43.268   2.631   3.738
43843W        W 9004  22.069  24.208  12.481
43844W        W 9005  13.910   1.165  11.640
43845W        W 9006  34.482  25.533  13.321
43846W        W 9007  27.002  17.612   3.528
43847W        W 9008  43.275  21.547  14.969
43848W        W 9009  31.351  41.911  14.491
43849W        W 9010  19.073   4.956   4.570
43850W        W 9011  44.873  40.714   1.054
43851W        W 9012  21.485   2.459  12.437
43852W        W 9013  18.169   7.806   1.003
43853W        W 9014  15.434  15.761   3.329
43854W        W 9015  19.207   8.164  12.803
43855W        W 9016   5.282  44.911   4.533
43856W        W 9017  13.617  37.387  13.101
43857W        W 9018  12.414  44.506   4.099
43858W        W 9019  29.035  29.505  14.273
43859W        W 9020   2.850   4.928  14.475
43860W        W 9021   0.214   2.879  10.871
43861W        W 9022  37.452  18.693  14.313
43862W        W 9023  38.147  26.664   1.031
43863W        W 9024  19.669  35.367  13.566
43864W        W 9025   8.965  39.414   2.719
43865W        W 9026   6.964  11.636  12.084
43866W        W 9027  41.880  43.869   4.758
43867W        W 9028   0.230   0.217   1.421
43868W        W 9029  25.491  24.990  14.335
43869W        W 9030  30.097  40.817  13.104
43870W        W 9031  35.535  43.358   0.547
43871W        W 9032  25.962   4.736   4.168
43872W        W 9033  43.962  26.973   0.015
43873W        W 9034  35.902  34.404   3.352
43874W        W 9035  42.082  19.569   3.158
43875W        W 9036  25.925  32.525   1.464
43876W        W 9037  10.432  21.796  12.864
43877W        W 9038  13.704   6.748  14.979
43878W        W 9039  39.945   3.891  13.802
43879W        W 9040  24.502  42.843   1.889
43880W        W 9041  29.684  14.746   2.212
43881W        W 9042   7.704  34.187  12.059
43882W        W 9043  12.292  33.574   2.287
43883W        W 9044   0.815  39.006   0.030
43884W        W 9045   3.959   5.450  14.784
43885W        W 9046   3.789  20.489   0.387
43886W        W 9047   8.683  24.515  11.617
43887W        W 9048   1.301  30.952   4.083
43888W        W 9049  15.354   8.176   1.349
43889W        W 9050  31.376  15.849  11.577
43890W        W 9051   7.664  26.491   2.671
43891W        W 9052  16.870  23.995   4.350
43892W        W 9053   2.534  28.938   0.784
43893W        W 9054  35.053  27.993  11.042
43894W        W 9055  18.126  42.880  11.913
43895W        W 9056  25.407  14.861   2.246
43896W        W 9057  27.081  13.955   4.820
43897W        W 9058  23.775  44.349  13.915
43898W        W 9059  19.743  36.317   0.029
43899W        W 9060   0.212   1.745  14.501
43900W        W 9061  19.567   7.414  13.804
43901W        W 9062   1.699  31.601   2.371
43902W        W 9063  11.198  28.450   4.865
43903W        W 9064  18.632  24.924   0.841
43904W        W 9065  30.268  18.199   2.796
43905W        W 9066  44.510  33.997  11.844
43906W        W 9067  24.075  14.420   4.209
43907W        W 9068  28.220  38.442  10.926
43908W        W 9069   1.300   6.325   1.072
43909W        W 9070  39.494  17.366  13.538
43910W        W 9071  40.025  21.593   0.832
43911W        W 9072  41.386  14.304  11.265
43912W        W 9073  43.729   2.417   1.792
43913W        W 9074   9.589  12.187  11.659
43914W        W 9075  40.779  14.838   2.976
43915W        W 9076  41.935  30.702  14.520
43916W        W 9077  31.816  11.607  14.451
43917W        W 9078  11.977  16.708  14.513
43918W        W 9079  14.412  32.321  14.544
43919W        W 9080  28.651   9.455  12.832
43920W        W 9081  30.491  34.078   0.903
43921W        W 9082  11.434  25.597   4.654
43922W        W 9083  34.537   0.663  10.757
43923W        W 9084  23.402  32.616  13.919
43924W        W 9085  16.722  42.335   9.732
43925W        W 9086  26.644   5.250  12.817
43926W        W 9087  31.640  19.875   1.357
43927W        W 9088  40.957  43.527   0.010
43928W        W 9089  34.409   0.678   0.246
43929W        W 9090  39.013   1.683  14.096
43930W        W 9091  43.883  13.684  13.366
43931W        W 9092   6.166   8.652  10.696
43932W        W 9093  15.083  22.044  12.840
43933W        W 9094  24.279   2.324   2.543
43934W        W 9095  23.956  31.125  11.488
43935W        W 9096   8.824  34.634   3.144
43936W        W 9097  22.270   8.351   0.514
43937W        W 9098  32.530  43.764   4.812
43938W        W 9099  35.010  15.619   3.258
43939W        W 9100  30.624  28.966  13.528
43940W        W 9101  21.199   5.647   1.413
43941W        W 9102  21.236  25.458   0.392
43942W        W 9103  22.155  21.974   1.161
43943W        W 9104  20.611   6.812  11.706
43944W        W 9105   3.472  33.359  14.433
43945W        W 9106   7.360  11.657  13.429
43946W        W 9107  41.459  42.107  14.848
43947W        W 9108   7.831   6.180   3.796
43948W        W 9109  20.302   2.537  14.027
43949W        W 9110  10.118   0.188  11.918
43950W        W 9111  39.765   3.457   2.626
43951W        W 9112  11.167  25.053   5.077
43952W        W 9113  30.613  40.793   4.139
43953W        W 9114  24.143  30.362   1.141
43954W        W 9115  38.508  19.657   0.499
43955W        W 9116  27.278  32.655  14.180
43956W        W 9117  39.438   1.707  14.409
43957W        W 9118   6.418  11.252   0.338
43958W        W 9119  28.935  22.777  10.602
43959W        W 9120  22.936  38.408  13.735
43960W        W 9121  31.967  38.467  10.983
43961W        W 9122  17.808  30.161   0.222
43962W        W 9123  20.167  30.872  14.242
43963W        W 9124  17.520  26.793   0.815
43964W        W 9125   1.288  31.492  13.001
43965W        W 9126  29.597  19.085   1.715
43966W        W 9127  14.825  24.957   1.813
43967W        W 9128   4.714  10.930  13.498
43968W        W 9129   8.960  37.793  14.693
43969W        W 9130   0.344   5.885  14.401
43970W        W 9131  12.234  43.314  11.601
43971W        W 9132  42.747  17.636  14.942
43972W        W 9133  15.287  27.124  14.038
43973W        W 9134  42.934  34.665  11.000
43974W        W 9135  18.870   5.377   5.160
43975W        W 9136  15.174   6.311   0.378
43976W        W 9137  30.100  18.389   1.918
43977W        W 9138  17.555  43.904   2.775
43978W        W 9139  28.974  12.392   3.261
43979W        W 9140  19.470   5.263   1.714
43980W        W 9141  35.719  25.574   2.178
43981W        W 9142  13.838  35.623   3.334
43982W        W 9143  43.490  19.306  13.356
43983W        W 9144  33.287   7.387   1.389
43984W        W 9145  10.875  30.613   1.629
43985W        W 9146  24.969  18.631   4.255
43986W        W 9147   0.503  35.088   0.743
43987W        W 9148  42.452  34.006   3.232
43988W        W 9149  19.953  40.053  11.926
43989W        W 9150  10.893  41.800   2.225
43990W        W 9151  44.999  31.570  14.007
43991W        W 9152  29.600  41.759   0.969
43992W        W 9153  22.653  27.799   2.911
43993W        W 9154  44.831   2.734  12.936
43994W        W 9155  25.720  41.754   1.877
43995W        W 9156   6.432  17.188   4.137
43996W        W 9157  20.508  41.713  13.376
43997W        W 9158  41.244  11.278   4.694
43998W        W 9159  34.513   7.782   4.496
43999W        W 9160  11.599  26.188  14.288
44000W        W 9161  12.470  42.872   3.803
44001W        W 9162   7.101   1.412  10.948
44002W        W 9163  12.847  36.378  14.537
44003W        W 9164   5.887   7.363  11.076
44004W        W 9165  28.172   5.724  13.660
44005W        W 9166  28.630  12.794   4.770
44006W        W 9167  24.275   7.953   3.433
44007W        W 9168   4.449  33.034   2.327
44008W        W 9169   1.259   4.801   2.163
44009W        W 9170   6.214  30.324  10.554
44010W        W 9171  31.567  38.787  11.117
44011W        W 9172  33.647  39.757   0.016
44012W        W 9173  12.369  16.174   1.437
44013W        W 9174  33.337   9.410   0.367
44014W        W 9175  24.124  22.630  10.631
44015W        W 9176  21.791  41.632   3.640
44016W        W 9177   7.836  35.598   1.714
44017W        W 9178  40.134  34.651   3.014
44018W        W 9179  25.988  36.322  13.025
44019W        W 9180  36.537  20.576  11.412
44020W        W 9181  11.689   1.916  14.712
44021W        W 9182  24.073  23.158  11.532
44022W        W 9183   1.566  17.568  13.001
44023W        W 9184  37.685  30.730  14.321
44024W        W 9185   6.114  28.755   4.157
44025W        W 9186  17.269  29.978  14.981
44026W        W 9187  26.991  18.896   1.639
44027W        W 9188  34.971  37.556  12.450
44028W        W 9189  19.456  21.622   0.369
44029W        W 9190   7.532  17.034   9.734
44030W        W 9191  28.164  38.626   1.729
44031W        W 9192  37.794   3.417  10.499
44032W        W 9193  17.017   3.265  12.843
44033W        W 9194  40.833  41.863   4.785
44034W        W 9195  33.808  22.447   5.621
44035W        W 9196  37.033  31.339  11.167
44036W        W 9197   1.649  14.731  13.103
44037W        W 9198  13.631  44.348  12.145
44038W        W 9199  24.247  24.161  11.697
44039W        W 9200  35.178  31.013   4.767
44040W        W 9201  28.187   9.432  11.623
44041W        W 9202  21.043  43.310  10.603
44042W        W 9203  19.065  39.552  11.183
44043W        W 9204  40.852  20.967  11.179
44044W        W 9205  26.636  30.236  10.744
44045W        W 9206  38.728  29.131  10.760
44046W        W 9207  11.105  13.376   2.720
44047W        W 9208  33.154  44.873   4.692
44048W        W 9209  44.738  15.094   4.553
44049W        W 9210  25.601  27.416  12.964
44050W        W 9211   2.938  24.777  14.615
44051W        W 9212  31.086  31.303   2.756
44052W        W 9213  41.897  23.311  11.074
44053W        W 9214  23.170  19.731   4.843
44054W        W 9215  39.091   3.268   2.589
44055W        W 9216  39.166  18.141  13.798
44056W        W 9217   6.937  15.666   2.224
44057W        W 9218  28.739   1.088   9.721
44058W        W 9219  14.149  13.642  12.285
44059W        W 9220  19.644  17.918  14.234
44060W        W 9221  13.902  10.673  11.989
44061W        W 9222   0.538   4.333   4.359
44062W        W 9223  31.027  27.689   2.023
44063W        W 9224  28.973   4.145   2.367
44064W        W 9225  11.808  33.696   2.476
44065W        W 9226  36.946  16.535  14.971
44066W        W 9227  17.055  41.566   1.699
44067W        W 9228  31.619   6.404  13.619
44068W        W 9229  31.593   5.357  13.078
44069W        W 9230  22.713  44.460  12.976
44070W        W 9231  40.395  25.608  14.291
44071W        W 9232  24.730  44.047  13.913
44072W        W 9233  39.863  30.100  10.755
44073W        W 9234  32.632   2.883   2.191
44074W        W 9235  18.220  26.367   4.064
44075W        W 9236  15.194  33.515   1.232
44076W        W 9237  31.411  24.719  14.100
44077W        W 9238   9.653  26.231   3.737
44078W        W 9239  34.533  36.667  10.933
44079W        W 9240  15.737  21.584   1.916
44080W        W 9241  33.146  41.542   1.862
44081W        W 9242  16.077  26.161   3.648
44082W        W 9243  42.922  40.824   1.720
44083W        W 9244   9.619  29.518  10.524
44084W        W 9245  42.899  10.649  10.570
44085W        W 9246   5.026  41.864   0.331
44086W        W 9247  36.134  34.494  13.030
44087W        W 9248  14.637  24.661   2.644
44088W        W 9249  28.770  10.328  10.163
44089W        W 9250  13.142  18.914  12.505
44090W        W 9251   1.712  42.296  13.506
44091W        W 9252  38.987  28.913  14.123
44092W        W 9253  14.317  22.040  10.843
44093W        W 9254   3.218  16.654   5.107
44094W        W 9255  32.956  43.424  11.654
44095W        W 9256  36.621  22.872  12.900
44096W        W 9257  35.964  14.760  11.120
44097W        W 9258   8.675  36.474   3.836
44098W        W 9259  21.443  41.328   4.542
44099W        W 9260  37.890  25.089   3.671
44100W        W 9261  38.030  24.501   2.711
44101W        W 9262  33.189  23.352   3.308
44102W        W 9263  31.671  33.844   4.635
44103W        W 9264  14.720  19.056   4.622
44104W        W 9265  25.166  35.406  11.173
44105W        W 9266   5.694   5.326   0.349
44106W        W 9267   7.198  39.329   3.266
44107W        W 9268  39.967  41.961   3.780
44108W        W 9269  40.260  39.097  12.464
44109W        W 9270  30.309  10.305  13.316
44110W        W 9271  43.189  33.909  10.069
44111W        W 9272  27.728   8.604   2.789
44112W        W 9273  36.093  23.504  12.023
44113W        W 9274   6.773  24.580   3.554
44114W        W 9275  18.647  14.876   1.934
44115W        W 9276   5.166  16.442  14.737
44116W        W 9277  10.177  32.688   4.598
44117W        W 9278  23.992   7.178   0.389
44118W        W 9279  11.850   2.686  11.223
44119W        W 9280  34.016  25.568   0.889
44120W        W 9281  29.913   3.907   4.223
44121W        W 9282  28.578   5.980   4.268
44122W        W 9283  26.450  20.498   2.157
44123W        W 9284  25.724  23.952  11.273
44124W        W 9285  36.889  27.716   3.389
44125W        W 9286  29.139  26.306   1.273
44126W        W 9287  23.194  31.070   1.356
44127W        W 9288   7.317  19.617  14.380
44128W        W 9289   4.854  16.174  11.233
44129W        W 9290   5.566  34.283  11.265
44130W        W 9291  16.242  17.817   2.304
44131W        W 9292  28.128  11.656   0.942
44132W        W 9293  29.115  10.770  14.832
44133W        W 9294  11.621  22.550  13.116
44134W        W 9295  20.598  43.321  11.848
44135W        W 9296  23.682   4.956  11.648
44136W        W 9297  28.432  27.072   0.842
44137W        W 9298  41.546  18.275  10.850
44138W        W 9299   3.077  40.764  12.889
44139W        W 9300  38.061  11.638  12.107
44140W        W 9301  39.903  22.003   1.731
44141W        W 9302  27.033   6.436  13.588
44142W        W 9303  39.898  38.996  13.744
44143W        W 9304  14.877  16.030  13.922
44144W        W 9305  31.142  12.645   0.848
44145W        W 9306   7.429  32.183  14.432
44146W        W 9307   3.952  27.801   4.729
44147W        W 9308  29.704  28.434  12.926
44148W        W 9309  14.748  19.403   2.399
44149W        W 9310  11.192  12.106   0.384
44150W        W 9311  11.088  36.611   4.149
44151W        W 9312  42.773  33.515   0.761
44152W        W 9313  10.744  10.480   4.621
44153W        W 9314  14.827   1.192   0.449
44154W        W 9315  30.877   1.522   0.085
44155W        W 9316   4.992  27.406   0.159
44156W        W 9317  21.508  26.364   0.507
44157W        W 9318  13.563  37.359  11.197
44158W        W 9319  32.868  42.198  12.424
44159W        W 9320  25.029  27.594   1.205
44160W        W 9321  40.831  33.660   1.884
44161W        W 9322  37.388  25.885  13.954
44162W        W 9323  34.451   0.792  14.215
44163W        W 9324   8.158   5.476  12.590
44164W        W 9325   1.042  25.192  11.134
44165W        W 9326   1.640  37.291   9.909
44166W        W 9327  36.693  44.660   1.352
44167W        W 9328   7.349  21.706   2.593
44168W        W 9329  20.242  15.272   1.250
44169W        W 9330  15.672  29.814   2.223
44170W        W 9331  29.708   3.975  10.630
44171W        W 9332  14.857  22.098   4.875
44172W        W 9333  18.595  34.024  14.397
44173W        W 9334  44.054  33.092   2.844
44174W        W 9335   5.443  11.224   3.451
44175W        W 9336  12.842  21.461   3.761
44176W        W 9337  18.515  26.675   3.778
44177W        W 9338  12.114   6.470   4.068
44178W        W 9339  28.065   4.399   2.766
44179W        W 9340  22.686  35.186   3.631
44180W        W 9341  18.644  19.318  13.996
44181W        W 9342   1.312  42.290  12.097
44182W        W 9343   6.648  23.492  14.050
44183W        W 9344  33.835  16.937   4.636
44184W        W 9345  22.139  37.503   1.753
44185W        W 9346  10.655   3.983   3.216
44186W        W 9347   3.293  19.249  11.865
44187W        W 9348  19.740  20.985   3.905
44188W        W 9349  41.955  20.225  14.931
44189W        W 9350  37.635  34.449  10.740
44190W        W 9351  43.378  24.402  12.234
44191W        W 9352  43.804   4.326   3.322
44192W        W 9353  43.483  42.435  13.543
44193W        W 9354   7.873   8.189  12.995
44194W        W 9355  35.651  19.532  11.137
44195W        W 9356   6.666  35.351   3.598
44196W        W 9357  23.856   3.705  13.886
44197W        W 9358  18.508  10.389   0.286
44198W        W 9359   5.415   8.783  11.194
44199W        W 9360  25.892   3.338  12.598
44200W        W 9361  28.493   7.268   1.867
44201W        W 9362  13.877  41.744   1.121
44202W        W 9363  40.787   6.713  13.323
44203W        W 9364  10.307  36.068  14.867
44204W        W 9365   5.899   5.890   0.415
44205W        W 9366   2.784  16.595   3.818
44206W        W 9367  13.645  32.080   2.828
44207W        W 9368  15.176   6.887  13.453
44208W        W 9369   5.639  26.788   2.371
44209W        W 9370  36.499   5.270  14.884
44210W        W 9371  33.543   4.235   2.281
44211W        W 9372  22.005  43.859  12.869
44212W        W 9373  30.061  40.115   1.360
44213W        W 9374  27.914  21.857   3.602
44214W        W 9375   3.748  44.794  10.967
44215W        W 9376  37.344  12.417   1.448
44216W        W 9377  14.711   1.829  10.221
44217W        W 9378  34.089  23.058   1.398
44218W        W 9379  23.200  42.345   3.627
44219W        W 9380  10.748  37.651   3.245
44220W        W 9381   5.392  18.376  11.078
44221W        W 9382  29.952  27.937   3.488
44222W        W 9383  39.297  13.221   1.930
44223W        W 9384   8.127  18.788  13.426
44224W        W 9385  11.935  22.609   0.722
44225W        W 9386  20.669  26.770  12.108
44226W        W 9387  30.710  33.140  13.521
44227W        W 9388  34.860  33.515   0.867
44228W        W 9389   3.486  31.895  12.080
44229W        W 9390  39.335  16.989   2.175
44230W        W 9391  25.648  33.897   1.462
44231W        W 9392   4.266  18.491  13.810
44232W        W 9393  33.635  37.206   5.452
44233W        W 9394  26.035   7.463   0.275
44234W        W 9395  41.548  30.051   3.699
44235W        W 9396  27.986   1.380   2.603
44236W        W 9397  41.531  29.353   0.814
44237W        W 9398  22.386  34.022  10.238
44238W        W 9399  38.866  32.285  12.530
44239W        W 9400  36.103  31.497  14.755
44240W        W 9401  30.621  31.306   4.003
44241W        W 9402  13.653  27.904  10.442
44242W        W 9403  19.517  42.128   2.112
44243W        W 9404   5.999  11.937   1.408
44244W        W 9405  11.283  10.382   1.506
44245W        W 9406  20.984   2.304  12.416
44246W        W 9407  25.927   4.163  11.510
44247W        W 9408   0.346  35.157   5.504
44248W        W 9409  26.974  13.712   4.372
44249W        W 9410   0.163  33.933   2.794
44250W        W 9411  35.435  13.942   3.238
44251W        W 9412  43.087  19.794  12.557
44252W        W 9413  26.064  12.199   4.494
44253W        W 9414  40.324   1.626   4.100
44254W        W 9415  36.584  12.083   4.663
44255W        W 9416   8.206  40.432   3.442
44256W        W 9417  21.402  34.459   2.797
44257W        W 9418  40.300  33.503   0.864
44258W        W 9419   9.834   2.720  12.885
44259W        W 9420  28.463   4.775   3.624
44260W        W 9421  25.664  27.126   3.665
44261W        W 9422  13.500  26.852  14.371
44262W        W 9423  29.850   7.825  12.490
44263W        W 9424  32.382   3.775  12.441
44264W        W 9425   3.819  33.571  12.052
44265W        W 9426  10.680  40.321   0.823
44266W        W 9427  35.074  18.585  12.526
44267W        W 9428  40.417  21.660  11.814
44268W        W 9429  34.096  30.960   1.874
44269W        W 9430   4.246  40.322   0.682
44270W        W 9431  28.012  13.400  12.063
44271W        W 9432  30.988  43.261  13.091
44272W        W 9433  23.577  28.296  11.140
44273W        W 9434  26.214  14.547   0.154
44274W        W 9435  38.433  22.630   2.281
44275W        W 9436  27.245  23.163   4.116
44276W        W 9437  19.761  13.361   4.204
44277W        W 9438  28.163  26.551  10.303
44278W        W 9439   1.619  18.517  13.663
44279W        W 9440  17.800  41.478   0.229
44280W        W 9441  11.346  29.159  13.018
44281W        W 9442  44.287   1.104  10.837
44282W        W 9443  10.161   7.383   0.902
44283W        W 9444  16.092  35.084  11.270
44284W        W 9445   5.288  39.859   1.624
44285W        W 9446  20.582  33.966   0.730
44286W        W 9447  17.192   9.327  14.294
44287W        W 9448  16.818  19.788   4.137
44288W        W 9449  26.654   2.212  11.170
44289W        W 9450   2.967  26.121   0.744
44290W        W 9451  43.289  31.151   1.261
44291W        W 9452  31.992   9.873   2.169
44292W        W 9453  10.879  20.055  14.052
44293W        W 9454  38.318  37.130   3.185
44294W        W 9455   0.840  27.462  10.687
44295W        W 9456  37.508  42.637  10.286
44296W        W 9457  43.982   2.267   4.011
44297W        W 9458   3.144  22.984   2.128
44298W        W 9459   6.745  32.137   1.420
44299W        W 9460  26.516  23.436  12.076
44300W        W 9461  44.394  28.047  10.193
44301W        W 9462  17.022  19.180  10.661
44302W        W 9463  18.896  20.353  14.707
44303W        W 9464  42.401  14.716  12.933
44304W        W 9465  15.736   8.313   1.029
44305W        W 9466  39.086  22.680   0.062
44306W        W 9467  25.202  17.097  12.460
44307W        W 9468  32.694   8.883  12.898
44308W        W 9469  44.131   9.392  12.887
44309W        W 9470  30.969  32.162   2.610
44310W        W 9471  31.640  18.291  14.878
44311W        W 9472  23.381   7.415  13.236
44312W        W 9473  40.925  18.371  14.856
44313W        W 9474  20.190  10.885  12.863
44314W        W 9475   5.382   5.525  11.622
44315W        W 9476   8.308  23.432   2.638
44316W        W 9477  10.808  42.409   4.130
44317W        W 9478   1.202  43.421  10.526
44318W        W 9479  40.188  17.805   0.762
44319W        W 9480  34.596  16.172  13.133
44320W        W 9481  40.951  18.613  11.929
44321W        W 9482   3.000  29.198  13.538
44322W        W 9483  37.070  31.101   3.158
44323W        W 9484   0.315  24.440   2.746
44324W        W 9485  23.024  43.411  11.259
44325W        W 9486  17.602  43.513  12.535
44326W        W 9487  39.912   9.709   3.341
44327W        W 9488  35.147   5.493   3.638
44328W        W 9489  33.698  29.515   0.899
44329W        W 9490   5.665   1.317   1.253
44330W        W 9491   2.415  13.520  14.341
44331W        W 9492  33.975  23.468   1.675
44332W        W 9493  17.737   0.533  12.901
44333W        W 9494   2.244  37.076  14.461
44334W        W 9495  37.182  21.288   0.347
44335W        W 9496  16.735  44.495  14.932
44336W        W 9497   3.271  42.406  13.370
44337W        W 9498  20.440  36.624  11.961
44338W        W 9499   3.350   1.890  12.670
44339W        W 9500  33.235  38.154   4.511
44340W        W 9501  40.920  22.092  13.046
44341W        W 9502   6.245  23.610   0.251
44342W        W 9503  38.456  16.761  13.740
44343W        W 9504  35.949  18.102   1.296
44344W        W 9505  13.291  12.750   2.690
44345W        W 9506   7.548  44.747   1.782
44346W        W 9507   9.986  19.965   3.790
44347W        W 9508  15.172   2.603   4.453
44348W        W 9509  24.322   8.753   3.366
44349W        W 9510  31.964  31.460   3.872
44350W        W 9511  12.715  10.643   2.878
44351W        W 9512  38.549  10.263  12.383
44352W        W 9513  28.153  32.851   0.279
44353W        W 9514  44.772  20.515   1.837
44354W        W 9515  35.666  32.302   1.231
44355W        W 9516   0.257  27.543  11.306
44356W        W 9517  44.886  39.711   1.429
44357W        W 9518  17.321  29.505   4.072
44358W        W 9519  41.854  30.075   0.826
44359W        W 9520  17.714  20.735  12.473
44360W        W 9521  29.917   7.754   1.865
44361W        W 9522  11.368  41.326  14.529
44362W        W 9523  39.997  33.934   2.044
44363W        W 9524  33.107  10.981  13.965
44364W        W 9525  26.440  13.039  11.561
44365W        W 9526  36.675  39.406  12.594
44366W        W 9527   6.956  36.070   3.325
44367W        W 9528  32.521  38.106   4.459
44368W        W 9529   0.431   1.355   4.925
44369W        W 9530  24.505  13.887   2.398
44370W        W 9531  17.915   2.384  11.764
44371W        W 9532  23.692   2.462  12.507
44372W        W 9533   6.871   1.497   0.891
44373W        W 9534   3.829  20.712  13.899
44374W        W 9535  30.944  34.073  13.129
44375W        W 9536  11.309  22.011  11.066
44376W        W 9537  19.688  37.030   3.913
44377W        W 9538   5.754   6.816  14.911
44378W        W 9539  36.390  29.992   3.824
44379W        W 9540  39.099   2.547   1.667
44380W        W 9541  34.720   4.391  14.893
44381W        W 9542  43.435   9.971  13.978
44382W        W 9543  35.503  14.444  14.507
44383W        W 9544   6.566  29.760  12.437
44384W        W 9545   7.985  36.526   2.170
44385W        W 9546  16.303  43.572  12.027
44386W        W 9547   5.632  44.091  12.600
44387W        W 9548  29.053  44.246  10.688
44388W        W 9549  37.008  16.245   0.393
44389W        W 9550  26.107   6.717   2.106
44390W        W 9551   9.213  22.598   1.992
44391W        W 9552  23.601  40.409  13.834
44392W        W 9553  27.427  33.109  11.117
44393W        W 9554  39.969  37.756  12.899
44394W        W 9555  44.565   9.168   4.573
44395W        W 9556  31.367  27.066   2.811
44396W        W 9557  34.190  41.316  13.363
44397W        W 9558  12.885  17.767  12.609
44398W        W 9559  38.932  13.539  14.518
44399W        W 9560  20.986  36.514   0.310
44400W        W 9561  21.252  13.680   0.666
44401W        W 9562  39.841  23.241  13.357
44402W        W 9563  11.611  43.754   0.429
44403W        W 9564  28.445   2.950  13.380
44404W        W 9565  10.216  35.699   0.740
44405W        W 9566  44.669  19.771  13.554
44406W        W 9567   5.433  30.793   4.597
44407W        W 9568   2.738  35.383   3.700
44408W        W 9569  29.505  35.901  11.616
44409W        W 9570  33.635   2.468   4.998
44410W        W 9571  15.176  14.804   4.171
44411W        W 9572  13.722  27.213   4.446
44412W        W 9573  13.023  11.458  11.562
44413W        W 9574   8.369   9.300   1.275
44414W        W 9575  36.816  24.963  14.845
44415W        W 9576  24.973  32.555  10.778
44416W        W 9577  16.341  31.250  14.992
44417W        W 9578   2.514   8.412   2.249
44418W        W 9579  11.918  13.752  11.269
44419W        W 9580  38.902  22.951  11.613
44420W        W 9581  20.499  34.821   2.761
44421W        W 9582  29.392  44.855  13.553
44422W        W 9583  11.299   4.952   3.711
44423W        W 9584  27.682  39.716   5.018
44424W        W 9585   0.155  33.721  11.191
44425W        W 9586  27.068  21.810   3.550
44426W        W 9587  44.813   3.669  11.937
44427W        W 9588   5.242   7.391  14.944
44428W        W 9589  34.142  17.776   4.690
44429W        W 9590  13.733  27.182   4.995
44430W        W 9591   8.723   0.274   1.420
44431W        W 9592  20.198   1.072   4.218
44432W        W 9593  23.125  28.985  12.947
44433W        W 9594  12.601  34.542  11.235
44434W        W 9595   0.809   0.421  10.599
44435W        W 9596   0.378  20.094   4.661
44436W        W 9597  35.216  25.820   3.643
44437W        W 9598  42.663  25.540  10.725
44438W        W 9599  25.485  19.722   1.765
44439W        W 9600  10.800  38.861   2.446
44440W        W 9601  24.692  14.662  10.874
44441W        W 9602  28.240   2.754   2.776
44442W        W 9603  16.484  14.685   3.257
44443W        W 9604  33.185   1.219  12.460
44444W        W 9605  38.463  24.283  13.581
44445W        W 9606  40.836   8.576  12.965
44446W        W 9607  21.532  43.224   2.667
44447W        W 9608   0.873  36.747  13.001
44448W        W 9609  15.194  41.269  12.063
44449W        W 9610  40.340  39.789   4.050
44450W        W 9611  40.282  41.980  12.324
44451W        W 9612  26.611  13.663  14.537
44452W        W 9613   7.742  17.023  12.408
44453W        W 9614  26.852  38.383  12.316
44454W        W 9615  11.795  15.224  13.839
44455W        W 9616   1.731  41.031   0.773
44456W        W 9617   3.804  25.182  14.404
44457W        W 9618  32.611   9.685  13.220
44458W        W 9619  29.158  22.227   1.527
44459W        W 9620  17.397  15.186  10.672
44460W        W 9621  21.188  21.216   0.709
44461W        W 9622  40.829  12.640   0.524
44462W        W 9623   8.847   5.124  14.423
44463W        W 9624  38.912  19.621   4.692
44464W        W 9625  23.795  15.760   4.197
44465W        W 9626   1.235   7.295   2.731
44466W        W 9627  28.139   7.761  12.196
44467W        W 9628  23.202   8.235   0.359
44468W        W 9629  20.023  33.183  14.300
44469W        W 9630  34.549  10.105   1.655
44470W        W 9631  30.089  21.479  12.883
44471W        W 9632   6.507  22.565  14.911
44472W        W 9633   5.415  30.654   1.855
44473W        W 9634   3.767   6.106  10.204
44474W        W 9635  38.652  10.631  10.630
44475W        W 9636  19.471  33.616   3.423
44476W        W 9637   3.010  42.216  10.831
44477W        W 9638  15.202   2.764   3.952
44478W        W 9639  21.854   6.655  13.945
44479W        W 9640   7.771   3.997  13.569
44480W        W 9641  10.642   0.237   4.066
44481W        W 9642  42.695  15.788  14.409
44482W        W 9643  24.533  35.127  14.367
44483W        W 9644  29.077  28.975  14.818
44484W        W 9645  38.562  28.163  14.006
44485W        W 9646  35.578   7.204  12.623
44486W        W 9647  31.547  12.461   3.694
44487W        W 9648  44.940  23.092  13.793
44488W        W 9649  19.598  15.576   2.742
44489W        W 9650   7.605  34.915   3.711
44490W        W 9651  19.733  28.807   2.975
44491W        W 9652  31.450  31.313   1.263
44492W        W 9653  26.337  16.857   5.044
44493W        W 9654  33.454  31.478   3.214
44494W        W 9655   6.152  18.777   4.165
44495W        W 9656  12.977  26.680  14.383
44496W        W 9657  31.632  37.091   2.794
44497W        W 9658  11.196  10.366   0.979
44498W        W 9659  16.009   8.645   1.975
44499W        W 9660  10.631  13.135  11.572
44500W        W 9661  30.450   4.569  11.144
44501W        W 9662  29.278  33.038   3.675
44502W        W 9663  21.222  11.610  14.328
44503W        W 9664   9.642  31.140  10.467
44504W        W 9665  16.688  29.344  10.763
44505W        W 9666  23.204  36.891  14.620
44506W        W 9667  40.304  18.589   2.074
44507W        W 9668  31.848   8.413  14.709
44508W        W 9669  34.087  43.846   4.693
44509W        W 9670  16.322   9.713   1.841
44510W        W 9671   4.725  33.855  13.888
44511W        W 9672  30.967  42.376   1.930
44512W        W 9673  27.548   6.454   1.227
44513W        W 9674  23.539   3.407  11.853
44514W        W 9675   5.640  30.051  12.900
44515W        W 9676  23.219  31.662   1.632
44516W        W 9677  16.619  20.536   1.353
44517W        W 9678  27.131  40.685   2.840
44518W        W 9679  39.756   7.617  14.428
44519W        W 9680  25.174  16.225   4.644
44520W        W 9681   2.588  41.401  10.292
44521W        W 9682  23.533  14.891  12.337
44522W        W 9683  26.754  32.519  11.223
44523W        W 9684  43.648  33.837   9.811
44524W        W 9685   2.996   4.451   3.340
44525W        W 9686  22.626   5.701   4.438
44526W        W 9687   3.230  14.821   2.721
44527W        W 9688  21.309  36.997   3.052
44528W        W 9689  21.620  26.921  12.521
44529W        W 9690   6.894  42.892   3.395
44530W        W 9691  33.006  18.095  13.586
44531W        W 9692  23.518   2.140  12.862
44532W        W 9693  29.296  22.280   2.908
44533W        W 9694  40.160   8.640  12.375
44534W        W 9695  33.447  29.916   0.696
44535W        W 9696  19.234   5.169  13.802
44536W        W 9697  12.318  33.083  12.432
44537W        W 9698  10.091  17.769   4.387
44538W        W 9699  21.187  11.867  10.691
44539W        W 9700  32.889   3.196   1.858
44540W        W 9701  34.073   1.318   1.268
44541W        W 9702  37.379  37.572   4.263
44542W        W 9703  43.821   1.391  12.948
44543W        W 9704  14.286  16.751   5.033
44544W        W 9705  36.642  28.662  13.377
44545W        W 9706  41.534   4.724  11.590
44546W        W 9707  17.852   2.405   4.646
44547W        W 9708   8.644  11.153  13.850
44548W        W 9709   8.141  31.936  10.232
44549W        W 9710  40.410  17.200  14.311
44550W        W 9711  25.382   7.295  14.227
44551W        W 9712   5.786  23.654  14.012
44552W        W 9713  36.380  16.993   2.794
44553W        W 9714   8.792   0.699  14.543
44554W        W 9715  44.389  23.480  13.397
44555W        W 9716  24.060  15.005   4.965
44556W        W 9717  29.654  32.939   2.352
44557W        W 9718   1.408  11.286  10.798
44558W        W 9719  42.038   6.494   1.405
44559W        W 9720  13.194  21.142   1.816
44560W        W 9721  25.891  35.886   2.728
44561W        W 9722  12.877  41.857   2.665
44562W        W 9723   4.842  22.474   2.926
44563W        W 9724  38.899  34.850   0.490
44564W        W 9725  16.024  10.329  10.302
44565W        W 9726  20.512  15.264   2.648
44566W        W 9727  24.247  24.521  13.365
44567W        W 9728   3.198  19.187   1.338
44568W        W 9729   0.101  39.944   1.863
44569W        W 9730  33.934  27.755   1.015
44570W        W 9731  23.592   9.649   2.731
44571W        W 9732  26.942  30.862  12.498
44572W        W 9733   0.351  27.136   1.048
44573W        W 9734  29.897   9.705  12.799
44574W        W 9735  30.582  21.500  10.739
44575W        W 9736  26.504   6.761  11.014
44576W        W 9737  10.542  33.105  12.989
44577W        W 9738   7.799  19.342  11.122
44578W        W 9739  18.659  14.837   4.143
44579W        W 9740  10.801   1.923   1.854
44580W        W 9741   4.719  15.060   2.831
44581W        W 9742  44.470   5.762  13.069
44582W        W 9743   9.397   6.103  11.853
44583W        W 9744  35.346  23.635   4.591
44584W        W 9745  12.782  36.685   0.515
44585W        W 9746   1.999  44.886   4.576
44586W        W 9747  25.953  32.994   3.186
44587W        W 9748  25.528  40.505  11.087
44588W        W 9749  43.045  14.530  11.851
44589W        W 9750  19.092   6.383  12.561
44590W        W 9751   4.984  13.665   1.928
44591W        W 9752  15.790  32.889   0.996
44592W        W 9753  13.852  38.467  14.377
44593W        W 9754  26.739  31.052  12.011
44594W        W 9755  36.635  15.422  13.412
44595W        W 9756  33.044  25.961  12.518
44596W        W 9757  28.504  17.861   0.441
44597W        W 9758  35.348  11.670   4.588
44598W        W 9759  29.682  20.752   1.401
44599W        W 9760  36.315   2.191   0.345
44600W        W 9761  11.233  32.720  12.095
44601W        W 9762  37.150  17.271   1.055
44602W        W 9763   3.918  42.285   1.846
44603W        W 9764  31.691   6.466   3.116
44604W        W 9765  25.164   7.550   4.683
44605W        W 9766  24.241  12.193   0.218
44606W        W 9767   6.163  34.405  12.511
44607W        W 9768  32.381  20.177  11.592
44608W        W 9769  44.239  27.162  10.582
44609W        W 9770  34.284   5.688  12.179
44610W        W 9771   3.144  19.748   0.349
44611W        W 9772   9.315   7.902  13.124
44612W        W 9773  32.678   5.185  12.120
44613W        W 9774  15.944  17.507  13.932
44614W        W 9775  15.703  11.264   4.051
44615W        W 9776  38.473  43.515  12.132
44616W        W 9777  38.630  16.720   4.564
44617W        W 9778  19.112  41.042   0.841
44618W        W 9779  30.575   7.427  13.512
44619W        W 9780  22.151   4.020   1.778
44620W        W 9781  28.411  27.710   0.263
44621W        W 9782  22.492  31.226   1.506
44622W        W 9783  37.635   4.771  14.478
44623W        W 9784  42.575  13.530  11.638
44624W        W 9785  11.839   1.463   4.550
44625W        W 9786  14.434  30.797   0.396
44626W        W 9787  30.284   4.193  12.318
44627W        W 9788  40.446  13.098   1.146
44628W        W 9789  17.843  23.287  14.265
44629W        W 9790  20.259  36.976   3.179
44630W        W 9791   9.271   0.169   4.600
44631W        W 9792  35.931  21.686   1.864
44632W        W 9793  23.582   2.810  13.489
44633W        W 9794  31.067   2.385  12.497
44634W        W 9795   1.829  21.411   1.837
44635W        W 9796  38.083  38.697  10.314
44636W        W 9797  39.330   9.983   0.234
44637W        W 9798  43.432  38.916   1.101
44638W        W 9799  33.111   9.156  14.981
44639W        W 9800  44.269  12.126   3.486
44640W        W 9801  36.462  12.146   0.354
44641W        W 9802  28.567  44.005  10.641
44642W        W 9803  36.073   2.335  10.786
44643W        W 9804  43.828  41.847   0.250
44644W        W 9805  12.602  38.415  14.233
44645W        W 9806   2.257  37.827  10.490
44646W        W 9807  41.830  15.243   1.861
44647W        W 9808  29.912   0.561   3.707
44648W        W 9809  30.117  12.405   0.341
44649W        W 9810   1.160  33.393   3.287
44650W        W 9811  15.304  19.505  10.669
44651W        W 9812   7.947  15.188  13.956
44652W        W 9813  37.787  33.065  11.418
44653W        W 9814  32.632  28.042  11.940
44654W        W 9815  39.637  38.979   2.569
44655W        W 9816  30.333  16.261  13.029
44656W        W 9817   5.505  43.531  12.426
44657W        W 9818  43.832  20.180  14.375
44658W        W 9819  41.542   1.482   4.719
44659W        W 9820  14.435  43.220  11.610
44660W        W 9821  28.645  14.123  12.024
44661W        W 9822  28.480  42.439   4.143
44662W        W 9823  14.665   0.586   1.797
44663W        W 9824  11.287  27.388   0.259
44664W        W 9825  14.815  14.695  12.459
44665W        W 9826  34.810  20.262  12.957
44666W        W 9827  43.044  10.479   3.268
44667W        W 9828  14.065   9.393   0.400
44668W        W 9829   5.795  31.049  13.725
44669W        W 9830   6.408   0.931   1.839
44670W        W 9831  15.036  28.966   2.678
44671W        W 9832  43.277  41.580   3.813
44672W        W 9833  30.430   1.133  10.456
44673W        W 9834   1.281  39.753   2.334
44674W        W 9835  37.885  17.815   3.913
44675W        W 9836  43.968   7.855  14.356
44676W        W 9837   3.360  13.376  14.281
44677W        W 9838  26.719   4.485  11.610
44678W        W 9839  30.992  11.881  14.102
44679W        W 9840   1.400  38.081  13.939
44680W        W 9841  10.879  32.198  13.879
44681W        W 9842  27.460  30.423  14.384
44682W        W 9843  14.715  14.210  10.677
44683W        W 9844  30.706   9.887   0.792
44684W        W 9845  23.176   0.850   1.734
44685W        W 9846  39.345  38.469   4.566
44686W        W 9847  25.500   4.880   4.396
44687W        W 9848  34.294   9.644   4.482
44688W        W 9849  27.045  24.524   4.963
44689W        W 9850   8.879  26.991   2.809
44690W        W 9851  33.457  35.495   1.232
44691W        W 9852  35.194  33.497   5.099
44692W        W 9853  36.090  11.821   2.659
44693W        W 9854  26.198  24.973   9.959
44694W        W 9855  33.293  16.235   4.255
44695W        W 9856  27.633  41.800  11.689
44696W        W 9857  33.424  24.049  12.009
44697W        W 9858  34.336  24.067   0.230
44698W        W 9859  42.454  21.907   2.582
44699W        W 9860  36.261  30.383  13.076
44700W        W 9861  38.514  35.994  13.404
44701W        W 9862  41.947  27.545  13.671
44702W        W 9863  24.607  11.355   2.722
44703W        W 9864   0.467  36.608  13.350
44704W        W 9865  23.189  19.422  14.990
44705W        W 9866   6.740   1.412   2.480
44706W        W 9867   5.177  10.702  14.262
44707W        W 9868  43.399  40.824  14.935
44708W        W 9869  36.828   6.428   0.201
44709W        W 9870  41.358  41.869   2.195
44710W        W 9871  23.502  31.150  11.196
44711W        W 9872  17.596   3.391  14.057
44712W        W 9873  18.296   1.607  12.195
44713W        W 9874  34.340   3.271  11.447
44714W        W 9875   6.894  21.687   3.339
44715W        W 9876  25.674  26.763  11.139
44716W        W 9877  10.966  27.239  12.447
44717W        W 9878  19.187  23.154  13.119
44718W        W 9879  16.114  18.295  12.039
44719W        W 9880  35.864  19.340   1.823
44720W        W 9881  27.705  36.491   0.604
44721W        W 9882  24.242   6.787  13.883
44722W        W 9883   4.090  36.138  11.114
44723W        W 9884  13.717  35.321  13.936
44724W        W 9885  15.700  16.065  14.435
44725W        W 9886  33.886  22.070  11.596
44726W        W 9887   1.262  25.210  13.890
44727W        W 9888  20.402  19.624  11.350
44728W        W 9889  20.177  11.427  14.306
44729W        W 9890  15.762   7.344   4.651
44730W        W 9891  20.020  38.828  14.042
44731W        W 9892   9.631   5.675  11.600
44732W        W 9893  22.235  37.606  12.043
44733W        W 9894  21.096  29.460   1.339
44734W        W 9895  32.183  42.381  12.898
44735W        W 9896  41.794  42.893   4.687
44736W        W 9897   8.753   6.684   3.228
44737W        W 9898  29.494  37.362  10.708
44738W        W 9899  25.724   8.006  13.122
44739W        W 9900  16.789   3.618   0.330
44740W        W 9901   0.241  40.971  12.753
44741W        W 9902  40.440  33.637   4.256
44742W        W 9903   8.797  21.014  12.346
44743W        W 9904  40.071   2.495   4.474
44744W        W 9905  33.324  36.984  12.798
44745W        W 9906  38.163  40.452   2.389
44746W        W 9907  16.770   7.143   4.624
44747W        W 9908   2.848  37.556   3.273
44748W        W 9909  26.813   2.400  10.715
44749W        W 9910  44.220  42.924   2.854
44750W        W 9911  41.058   9.866  10.819
44751W        W 9912  24.004  17.600   4.274
44752W        W 9913  23.453  39.287  12.068
44753W        W 9914  24.176  42.042  12.444
44754W        W 9915  25.681  12.096   1.408
44755W        W 9916  33.932  36.831   4.135
44756W        W 9917  43.404  20.219  11.641
44757W        W 9918   7.888  22.495   4.047
44758W        W 9919  33.150  19.774  10.636
44759W        W 9920  30.402   0.704   4.165
44760W        W 9921  40.227  23.605   4.604
44761W        W 9922  19.794  25.153   4.817
44762W        W 9923  42.496   6.332   3.231
44763W        W 9924   8.148  14.275  12.493
44764W        W 9925  34.654   6.485   3.792
44765W        W 9926  28.205  13.267   1.848
44766W        W 9927  21.748  16.173   4.478
44767W        W 9928   1.247   6.220   2.406
44768W        W 9929  25.109  44.823  14.968
44769W        W 9930   5.896  15.184   4.725
44770W        W 9931   1.506  38.784  12.212
44771W        W 9932  30.105   9.418   1.288
44772W        W 9933  22.067   9.204   0.316
44773W        W 9934  40.389   0.824   0.679
44774W        W 9935   5.723  32.053   3.686
44775W        W 9936  34.409  32.365  12.313
44776W        W 9937  39.371   8.140   4.154
44777W        W 9938  27.653  32.058  12.392
44778W        W 9939  18.890  32.915  10.781
44779W        W 9940  27.556  14.810   1.353
44780W        W 9941  24.458   6.904  11.976
44781W        W 9942  26.098   7.648  12.409
44782W        W 9943  37.535   0.491  14.443
44783W        W 9944   5.885  37.352  10.350
44784W        W 9945  12.069  31.110   2.110
44785W        W 9946  25.326  12.176  13.806
44786W        W 9947  19.553  28.530  12.478
44787W        W 9948  40.376   9.937  14.014
44788W        W 9949  13.553  33.178  14.825
44789W        W 9950  23.393  29.614  12.855
44790W        W 9951   1.259  10.650   2.330
44791W        W 9952   3.722  43.271   2.782
44792W        W 9953  25.156  38.349   1.045
44793W        W 9954  29.396  21.634   4.639
44794W        W 9955  12.584  10.672  11.586
44795W        W 9956  41.402  32.363  12.118
44796W        W 9957  38.439  17.539   2.232
44797W        W 9958  16.530   6.220   4.164
44798W        W 9959  24.072  11.356   0.450
44799W        W 9960  28.600  22.543  14.368
44800W        W 9961  19.604  27.942  12.870
44801W        W 9962  10.678   6.671   3.450
44802W        W 9963  38.101  14.769  11.238
44803W        W 9964  21.915  36.162  11.927
44804W        W 9965  40.424   1.746  14.765
44805W        W 9966  32.975  41.955   0.486
44806W        W 9967  15.532  27.500  14.557
44807W        W 9968  43.317  10.890   3.099
44808W        W 9969  40.742  11.645  14.380
44809W        W 9970  43.020   5.146   3.711
44810W        W 9971  23.237  19.674   0.440
44811W        W 9972  44.602   8.735  10.771
44812W        W 9973  37.813  38.491   1.426
44813W        W 9974  17.638  34.734  11.148
44814W        W 9975  21.602   3.072  13.588
44815W        W 9976   7.239  28.966  13.495
44816W        W 9977  30.751  44.413  10.244
44817W        W 9978   3.775  19.686  11.936
44818W        W 9979  31.176   1.933   0.253
44819W        W 9980  30.461  30.989  10.541
44820W        W 9981  42.004  23.690   2.387
44821W        W 9982  23.383   8.251  12.565
44822W        W 9983  23.008  26.892   2.936
44823W        W 9984  30.052   0.363  13.753
44824W        W 9985   7.768  15.101   1.190
44825W        W 9986  28.089   7.228   3.127
44826W        W 9987   5.690  11.580  12.532
44827W        W 9988   1.225  16.112  13.105
44828W        W 9989  22.593  38.876   1.853
44829W        W 9990  20.251  44.941  12.516
44830W        W 9991  29.591   2.057  10.591
44831W        W 9992  37.460  34.102  11.110
44832W        W 9993  29.945  31.540  12.958
44833W        W 9994  18.454  41.845   2.075
44834W        W 9995  26.421  29.497  12.458
44835W        W 9996  22.890  29.100   3.729
44836W        W 9997  22.985  12.915  12.469
44837W        W 9998  25.139   2.216   3.125
44838W        W 9999  41.201  32.103   3.689
44839W        W10000   6.449  31.448  11.618
44840W        W10001  41.884   4.381   4.123
44841W        W10002  29.590  21.521   1.895
44842W        W10003  37.103  19.549   2.916
44843W        W10004  15.626  34.280  11.487
44844W        W10005  12.317  36.956   2.859
44845W        W10006  29.109  22.065   4.564
44846W        W10007   7.920  33.497  10.885
44847W        W10008  16.253  22.605   1.266
44848W        W10009   2.827  33.461   0.735
44849W        W10010  10.289  41.870   1.805
44850W        W10011  30.619  17.087   1.651
44851W        W10012  44.634  27.015   3.690
44852W        W10013  44.738  17.029   4.266
44853W        W10014  23.204  18.612  13.852
44854W        W10015  36.119   0.774   2.254
44855W        W10016  30.885  29.717  12.064
44856W        W10017  29.192  17.875   0.257
44857W        W10018  32.850   8.750  13.655
44858W        W10019  20.858  27.181  14.861
44859W        W10020  38.978  22.162   3.767
44860W        W10021  30.594  40.819  13.332
44861W        W10022   0.750  26.130  11.097
44862W        W10023  28.630  40.426  11.699
44863W        W10024  31.862  14.338   4.536
44864W        W10025   6.701  43.614  11.516
44865W        W10026  30.917  21.947   2.595
44866W        W10027  27.998  37.989   3.200
44867W        W10028   3.404  32.842  12.622
44868W        W10029   9.157  39.334  12.056
44869W        W10030  32.322  13.237   4.634
44870W        W10031  20.653  22.664   0.348
44871W        W10032  11.263  13.492  11.928
44872W        W10033  18.204   1.454   4.448
44873W        W10034   8.266  34.426  14.390
44874W        W10035  35.025  22.518   3.615
44875W        W10036  12.778   8.611   4.271
44876W        W10037   6.617  26.188   1.218
44877W        W10038  17.250  16.276  14.369
44878W        W10039   9.928  37.300   2.800
44879W        W10040  26.980  18.175   2.725
44880W        W10041  31.485  24.397   4.579
44881W        W10042   8.327  24.403   2.735
44882W        W10043  39.788  34.903   2.630
44883W        W10044  33.992  23.961   3.436
44884W        W10045  40.000  15.205   2.636
44885W        W10046   3.840  20.234  10.505
44886W        W10047  41.289  42.539   3.896
44887W        W10048  42.366  33.205  14.630
44888W        W10049  35.830  30.539   2.298
44889W        W10050  39.848  40.441   1.733
44890W        W10051  42.899  33.920  11.474
44891W        W10052  13.724  42.737   1.436
44892W        W10053  16.152  13.833   1.876
44893W        W10054  26.048   2.358   1.438
44894W        W10055  12.702  25.002   2.820
44895W        W10056  37.425  30.731  11.221
44896W        W10057  15.047  13.075   2.844
44897W        W10058  10.715  19.813   0.384
44898W        W10059  34.610  13.278  14.027
44899W        W10060  32.175  24.988   1.304
44900W        W10061  12.092   7.897  12.042
44901W        W10062  28.817   2.850   4.551
44902W        W10063  32.980  39.702  14.364
44903W        W10064   9.649  24.908  14.939
44904W        W10065  18.265  27.000   0.459
44905W        W10066   9.794  24.415   0.058
44906W        W10067  44.005  25.756   1.220
44907W        W10068  37.833  11.850   1.775
44908W        W10069  26.947  27.575  12.136
44909W        W10070  15.706  36.271   4.498
44910W        W10071  38.016  36.605   3.836
44911W        W10072  38.514  27.579   2.918
44912W        W10073   2.852   1.228   1.314
44913W        W10074  17.708  13.327  13.497
44914W        W10075   8.235   5.523  13.550
44915W        W10076  27.180  14.769  12.281
44916W        W10077  44.936  37.097   3.139
44917W        W10078  15.070   2.053  11.517
44918W        W10079  34.983  43.432   4.794
44919W        W10080   8.133   7.836   2.959
44920W        W10081   5.832  19.277   0.808
44921W        W10082  15.298   4.895  14.083
44922W        W10083   7.456   4.901  12.585
44923W        W10084  18.650  13.202  11.015
44924W        W10085  19.380  23.672  10.957
44925W        W10086  30.470  17.129  13.048
44926W        W10087   9.781   2.151  13.921
44927W        W10088  22.769  26.916   4.159
44928W        W10089  33.401   1.579   3.928
44929W        W10090  26.493  15.990  13.323
44930W        W10091  44.570  30.788   2.128
44931W        W10092   1.845  24.195   4.096
44932W        W10093  23.692  42.014  12.599
44933W        W10094  37.779  39.843   2.232
44934W        W10095   7.885  16.394   1.002
44935W        W10096   3.683  31.907   0.798
44936W        W10097  15.160  27.479   2.666
44937W        W10098   7.782  18.850  10.258
44938W        W10099  36.128  44.973   1.040
44939W        W10100  24.444   7.675   3.834
44940W        W10101  19.293  41.592  11.471
44941W        W10102  38.727   6.235   4.797
44942W        W10103   3.442  37.525   1.466
44943W        W10104  15.870  10.818   2.818
44944W        W10105  28.291  35.338  11.207
44945W        W10106  21.909   5.248   1.258
44946W        W10107  29.116   8.418   3.141
44947W        W10108  18.123   7.945  13.879
44948W        W10109  26.183  15.597  12.337
44949W        W10110   6.659   9.067   3.984
44950W        W10111  44.105  25.564   2.539
44951W        W10112  32.080   1.594   3.632
44952W        W10113  23.035  39.134   5.114
44953W        W10114  32.671  28.642  11.124
44954W        W10115  21.840  26.898   3.799
44955W        W10116  13.238  31.091   3.646
44956W        W10117  22.488  24.896   0.791
44957W        W10118   4.790  25.282   2.676
44958W        W10119  44.940  34.229  12.033
44959W        W10120  39.833  29.529   4.318
44960W        W10121  33.388   2.408  11.671
44961W        W10122  37.849  33.596  10.632
44962W        W10123  14.294  29.429   0.112
44963W        W10124  31.369  40.945  11.306
44964W        W10125  44.906  37.926  13.004
44965W        W10126  23.786  15.207   4.251
44966W        W10127  41.555  26.443   1.285
44967W        W10128  12.999  44.262   2.036
44968W        W10129   9.417  13.866   4.266
44969W        W10130  24.154  31.819   0.367
44970W        W10131  12.227  10.320  10.990
44971W        W10132  40.155   4.715  10.555
44972W        W10133  11.952  33.594  13.911
44973W        W10134  19.102  40.825  14.833
44974W        W10135  44.075  19.172  11.087
44975W        W10136   9.187  19.188   1.271
44976W        W10137  35.508  40.496   4.682
44977W        W10138   7.446  11.648   4.013
44978W        W10139  43.838  40.049   5.544
44979W        W10140  14.771   2.791   1.649
44980W        W10141  40.211   2.378  12.970
44981W        W10142   8.322  35.315   3.412
44982W        W10143   9.734  18.666  14.378
44983W        W10144  20.657  40.654   2.666
44984W        W10145  28.393  31.963   2.795
44985W        W10146   3.821   1.940  11.888
44986W        W10147   3.505   2.158   0.340
44987W        W10148  23.593  42.629  14.920
44988W        W10149  11.218  40.563  10.633
44989W        W10150  18.523  22.068   2.265
44990W        W10151  13.588   8.618  13.330
44991W        W10152  43.417  27.053  13.380
44992W        W10153  10.073  17.087  13.334
44993W        W10154  22.611  21.179  13.252
44994W        W10155   2.405  42.474   4.872
44995W        W10156  27.171  21.483   0.697
44996W        W10157  33.217   6.323  14.202
44997W        W10158  10.883  14.246   0.328
44998W        W10159  16.771  38.126   3.186
44999W        W10160  29.093  14.172   2.812
45000W        W10161  14.277  20.923   1.949
45001W        W10162  38.636   2.991  14.357
45002W        W10163  22.544  37.827   4.169
45003W        W10164  40.254  42.975  11.945
45004W        W10165  18.617   5.803   3.172
45005W        W10166  38.024  39.374   2.211
45006W        W10167  15.280  12.912  11.828
45007W        W10168  36.554  11.890  12.880
45008W        W10169   8.970   5.836   2.788
45009W        W10170  39.509  20.516   2.893
45010W        W10171   1.969  28.203   1.173
45011W        W10172  18.449  44.789  12.005
45012W        W10173   3.731  18.530   4.047
45013W        W10174  28.735  17.038  13.902
45014W        W10175  13.351  14.123   0.224
45015W        W10176  20.141  14.498  12.288
45016W        W10177  21.739  28.475   3.650
45017W        W10178  11.104  30.002  13.551
45018W        W10179  28.922   5.017   3.643
45019W        W10180  33.057   3.532   3.364
45020W        W10181   4.519  15.634  13.426
45021W        W10182  17.681  21.763   4.851
45022W        W10183  39.972  22.503  14.891
45023W        W10184  43.124   2.736   1.688
45024W        W10185   0.110  35.418  12.975
45025W        W10186  21.515   3.373  14.862
45026W        W10187  28.179  33.961   0.878
45027W        W10188  41.517  15.631  13.846
45028W        W10189   8.021  27.905  13.992
45029W        W10190  12.888  33.981   1.819
45030W        W10191  11.223  44.687  10.196
45031W        W10192  24.789  29.531   1.298
45032W        W10193  13.535  15.611   2.394
45033W        W10194  28.206  10.351  11.123
45034W        W10195  10.033  35.913   0.285
45035W        W10196   0.051   8.886   0.054
45036W        W10197  20.399  40.659   2.242
45037W        W10198  20.967  12.615   2.335
45038W        W10199  14.215  19.040   2.512
45039W        W10200  38.995  42.477  13.606
45040W        W10201   9.249  26.027  13.020
45041W        W10202  39.475  19.535   4.611
45042W        W10203  14.096  23.627   3.185
45043W        W10204  42.989  18.730   3.339
45044W        W10205   3.217  21.975  13.522
45045W        W10206   7.660  39.641  14.510
45046W        W10207  37.777  39.931   4.539
45047W        W10208  23.055   1.217  10.936
45048W        W10209  30.617  11.617   0.010
45049W        W10210  33.052   7.921  14.351
45050W        W10211  15.509   2.917  12.278
45051W        W10212  42.032  11.763   3.644
45052W        W10213  38.330  44.555  14.013
45053W        W10214  11.235   5.724  13.113
45054W        W10215  23.482  41.061  11.552
45055W        W10216  25.653  16.294  12.900
45056W        W10217  36.545   8.516  10.689
45057W        W10218   0.236  35.350   2.861
45058W        W10219  42.117  10.519   1.919
45059W        W10220   8.938  13.465  12.284
45060W        W10221   4.219  40.783   3.325
45061W        W10222  35.770  24.551   1.710
45062W        W10223  37.718  44.695   5.254
45063W        W10224  30.067  35.492  13.119
45064W        W10225  23.759  42.354   0.342
45065W        W10226  36.766  26.863  11.946
45066W        W10227  21.860  14.146  12.018
45067W        W10228  36.462  44.316  13.146
45068W        W10229   5.700  30.800   5.509
45069W        W10230  14.904  17.258  11.625
45070W        W10231  21.138  10.162   1.751
45071W        W10232  24.910  20.270   0.773
45072W        W10233  32.126  16.612   0.533
45073W        W10234   4.031   7.663  11.275
45074W        W10235   5.148   8.850   5.202
45075W        W10236  21.209  28.555   3.346
45076W        W10237  42.012   1.364  14.526
45077W        W10238   6.032  44.277  13.415
45078W        W10239   4.269   1.989  12.135
45079W        W10240   7.757   0.006  11.604
45080W        W10241  39.851  17.212   4.359
45081W        W10242  35.618   0.868   2.156
45082W        W10243  35.613  18.599   1.432
45083W        W10244  40.849  16.788   0.243
45084W        W10245  16.835  44.253  12.918
45085W        W10246  34.519  21.770  13.908
45086W        W10247   8.800  44.283  12.468
45087W        W10248  44.475  13.118   0.049
45088W        W10249  43.799  40.413   0.774
45089W        W10250   3.554  16.749   0.597
45090W        W10251  36.026  30.700  14.026
45091W        W10252  43.775   8.508  12.992
45092W        W10253  37.970  39.435   0.461
45093W        W10254  30.906  21.137   5.340
45094W        W10255  17.045  30.328   2.829
45095W        W10256   3.006  27.954  14.676
45096W        W10257  13.213  18.451   1.960
45097W        W10258  29.511  33.682   2.085
45098W        W10259  23.947  39.556   4.565
45099W        W10260   8.356  12.778  12.542
45100W        W10261  22.314   7.094  10.939
45101W        W10262  17.816   0.969   2.315
45102W        W10263   1.633   5.380  13.393
45103W        W10264  28.490  33.814  13.137
45104W        W10265  10.034  44.434  10.227
45105W        W10266  12.822  25.680  11.631
45106W        W10267  15.852  27.094   1.517
45107W        W10268   1.231   2.720   0.493
45108W        W10269  18.505  20.255  13.862
45109W        W10270  16.937   7.139  14.871
45110W        W10271  18.982  10.380  13.435
45111W        W10272  37.023   5.405   0.398
45112W        W10273  36.856   2.258   0.263
45113W        W10274  24.639  39.524  13.351
45114W        W10275   7.562  22.246  10.574
45115W        W10276   2.633   2.438   3.288
45116W        W10277   0.412  43.108  10.802
45117W        W10278  12.079  34.328   1.844
45118W        W10279   2.884  43.961   0.336
45119W        W10280  28.193  42.000   2.009
45120W        W10281  32.895  11.755   0.748
45121W        W10282  40.104  40.039  12.901
45122W        W10283  16.244  40.784   0.770
45123W        W10284  40.308   3.722   0.951
45124W        W10285  21.503  38.073   3.251
45125W        W10286  16.923  21.595  12.929
45126W        W10287   5.154   7.301  13.455
45127W        W10288  29.587  16.039  14.959
45128W        W10289  33.152   6.456   1.383
45129W        W10290  34.132  32.509  13.605
45130W        W10291  38.547  20.742   2.721
45131W        W10292  28.100   1.433  14.417
45132W        W10293  42.861  42.579  11.679
45133W        W10294  10.363  19.792   2.635
45134W        W10295  28.402  21.891   3.421
45135W        W10296  36.338  26.117  10.813
45136W        W10297  40.278  20.425   2.115
45137W        W10298   6.795  23.014  14.023
45138W        W10299  17.694   5.321  13.755
45139W        W10300  21.154  20.006   3.731
45140W        W10301  28.168  16.560   4.190
45141W        W10302   6.939  31.451   0.802
45142W        W10303  12.228   6.926   1.151
45143W        W10304  36.347  13.775  10.676
45144W        W10305  27.642   8.542  10.349
45145W        W10306  28.034  35.699   3.595
45146W        W10307  29.937  19.450  12.079
45147W        W10308   2.306  35.551  10.130
45148W        W10309  40.619  27.118  12.703
45149W        W10310  10.860   1.906  11.195
45150W        W10311  28.254  40.328  14.423
45151W        W10312   4.069   4.268  13.350
45152W        W10313  22.317  40.567  14.454
45153W        W10314  20.164  43.550  11.078
45154W        W10315   0.249  11.232  14.408
45155W        W10316   4.956   9.371   2.813
45156W        W10317   2.459  27.984   1.217
45157W        W10318  20.177   2.930   0.975
45158W        W10319   2.902  42.774   3.299
45159W        W10320   5.217  10.511   4.964
45160W        W10321  20.763   3.964   4.502
45161W        W10322  34.113   9.177   0.013
45162W        W10323   8.645  39.643   3.202
45163W        W10324  29.933  12.241  11.112
45164W        W10325  40.412  21.540   0.308
45165W        W10326  44.927  41.004   3.659
45166W        W10327  38.745  11.647   0.973
45167W        W10328  10.467  42.113   2.254
45168W        W10329  35.571   3.990   4.590
45169W        W10330  19.760  32.617   1.609
45170W        W10331  34.335   6.948  13.888
45171W        W10332  35.194   4.241   0.072
45172W        W10333  19.632  42.060   1.260
45173W        W10334  10.748   0.278  14.035
45174W        W10335  28.733  14.201   1.909
45175W        W10336   3.182  33.093  10.799
45176W        W10337  35.890  21.183   0.410
45177W        W10338  33.861  11.791  13.016
45178W        W10339   1.032  12.812  13.423
45179W        W10340  43.421   3.615   4.588
45180W        W10341  30.962  17.672  13.517
45181W        W10342   9.003  32.970  12.991
45182W        W10343  24.933  43.188   5.157
45183W        W10344   1.893  22.746  14.808
45184W        W10345  28.459  24.651   0.283
45185W        W10346  38.030  34.300   2.102
45186W        W10347   0.566  11.824   0.899
45187W        W10348  20.746   6.858   2.731
45188W        W10349  11.882  22.613  10.545
45189W        W10350  33.635  22.684   9.652
45190W        W10351  15.555  21.552  11.221
45191W        W10352   2.631  10.513   4.742
45192W        W10353  14.456   8.685  12.837
45193W        W10354   2.828  28.381   2.831
45194W        W10355   4.699  17.171  11.203
45195W        W10356  37.939  40.891  10.631
45196W        W10357  24.575  35.088  13.365
45197W        W10358  37.895  21.950  11.021
45198W        W10359   2.230  25.471  12.546
45199W        W10360  14.672  34.639  14.413
45200W        W10361  32.511  39.124   0.928
45201W        W10362  26.086   6.737   3.429
45202W        W10363  27.145   1.348  13.918
45203W        W10364   0.436  31.410  10.681
45204W        W10365   6.953   9.641   4.574
45205W        W10366  44.728  11.286   3.688
45206W        W10367  34.623  20.416   0.848
45207W        W10368   9.919  22.483  11.645
45208W        W10369  22.085  14.212   3.621
45209W        W10370  17.111  24.201  14.812
45210W        W10371  30.963  40.620   2.800
45211W        W10372  20.088  34.789  12.155
45212W        W10373  27.742   5.622   0.782
45213W        W10374  32.925   9.896   4.325
45214W        W10375  12.149  37.304  13.872
45215W        W10376  44.271  19.875  10.578
45216W        W10377   7.449  22.203  11.511
45217W        W10378   7.659  38.636  12.283
45218W        W10379   8.192  30.623  14.173
45219W        W10380  22.172   6.409  14.267
45220W        W10381  18.717   3.315   3.340
45221W        W10382  21.654  32.391  14.337
45222W        W10383  33.642  11.786  10.356
45223W        W10384   9.670  19.521  11.111
45224W        W10385  37.388  36.468   1.690
45225W        W10386  30.468  32.568  10.710
45226W        W10387  24.682  23.767  14.999
45227W        W10388  30.804  25.311  10.363
45228W        W10389  16.988  42.374   3.609
45229W        W10390  15.068  24.146   4.599
45230W        W10391  22.438   8.573  12.505
45231W        W10392  31.402   7.060  10.710
45232W        W10393  32.915  34.652  14.532
45233W        W10394  20.506  40.860  14.410
45234W        W10395  14.255   8.148   0.841
45235W        W10396  15.231  31.499   2.376
45236W        W10397  11.776  14.833  11.963
45237W        W10398   9.276  41.503   1.476
45238W        W10399   0.537  43.271   0.450
45239W        W10400  39.895  19.643  13.387
45240W        W10401  28.977  17.335   3.508
45241W        W10402  26.511   8.182  13.075
45242W        W10403  28.476  34.571   1.444
45243W        W10404  35.608  28.378  14.698
45244W        W10405   4.159  20.106   0.365
45245W        W10406  44.500  26.497  10.814
45246W        W10407  32.530  34.842  13.768
45247W        W10408  27.360  13.431   3.164
45248W        W10409  30.928  24.114   2.352
45249W        W10410  16.038   0.995  12.398
45250W        W10411  39.945  13.828  12.050
45251W        W10412   3.203  23.453   2.335
45252W        W10413  21.033  44.729  11.908
45253W        W10414   7.943  43.295   2.898
45254W        W10415  10.257   8.192   0.477
45255W        W10416   4.853  33.621  11.889
45256W        W10417  23.218  21.989   1.711
45257W        W10418  36.444  30.677  12.618
45258W        W10419  33.565  23.960  10.430
45259W        W10420  22.801  43.420   9.719
45260W        W10421  37.844  25.012  14.031
45261W        W10422  29.780  12.133  13.378
45262W        W10423   1.700   1.749   2.410
45263W        W10424   9.186  33.740  12.517
45264W        W10425  27.428  22.282  13.909
45265W        W10426  12.302   6.827   1.666
45266W        W10427   3.849   4.136   3.516
45267W        W10428  20.663  11.646  12.552
45268W        W10429  26.101  14.750  10.718
45269W        W10430   3.325  37.732   5.006
45270W        W10431  35.645  11.165   1.326
45271W        W10432  42.058  31.218  11.648
45272W        W10433  37.863   3.872   2.906
45273W        W10434  27.265  25.660   4.142
45274W        W10435  42.953  34.907   3.970
45275W        W10436  33.201  14.147  12.178
45276W        W10437  31.239  14.609   2.274
45277W        W10438  17.770  11.733   1.804
45278W        W10439  37.343  31.182  12.979
45279W        W10440  43.332  22.403   3.187
45280W        W10441  40.517   1.478  13.786
45281W        W10442  14.385  31.732   2.633
45282W        W10443  32.706  12.673   4.004
45283W        W10444  33.957   9.220   4.551
45284W        W10445  36.140  25.960   0.264
45285W        W10446   9.940   4.836  13.537
45286W        W10447  37.513  36.576   2.705
45287W        W10448  15.052  43.363   3.280
45288W        W10449  33.399  28.702  12.105
45289W        W10450  27.055  36.864  10.907
45290W        W10451   5.190  24.369   3.714
45291W        W10452  43.507  13.224   2.161
45292W        W10453  18.181   7.198  13.350
45293W        W10454  44.795  30.192   0.918
45294W        W10455  26.724   3.690   1.773
45295W        W10456  14.219  37.499  14.521
45296W        W10457   6.265  14.342  14.331
45297W        W10458  20.526  23.429   2.333
45298W        W10459  17.182  30.683  12.892
45299W        W10460  43.357  36.380   0.318
45300W        W10461   3.934   3.669  12.762
45301W        W10462  32.047  37.060  13.834
45302W        W10463  17.610  44.792   1.590
45303W        W10464  13.247  13.402  11.504
45304W        W10465  14.810  23.429  13.147
45305W        W10466  15.280   5.152   1.265
45306W        W10467  11.904  20.078  12.962
45307W        W10468  14.471  13.742   2.267
45308W        W10469  11.656  26.781  10.374
45309W        W10470  12.624  41.397   1.470
45310W        W10471   7.702  28.182  13.392
45311W        W10472   4.070   3.032  14.922
45312W        W10473  37.049  24.454  11.951
45313W        W10474   6.027  22.557  12.098
45314W        W10475   6.818  22.078   4.627
45315W        W10476  11.327  12.610   0.313
45316W        W10477  39.035  42.350   0.158
45317W        W10478   8.704  31.989   0.148
45318W        W10479  31.167  35.296   4.178
45319W        W10480  23.674   2.749   4.878
45320W        W10481  36.874  40.461   0.356
45321W        W10482   7.667  18.285   2.829
45322W        W10483   3.352  21.770   0.230
45323W        W10484  37.981   1.938   1.928
45324W        W10485  13.314  17.805  11.952
45325W        W10486  42.985  41.240   3.539
45326W        W10487  27.044  13.022   0.148
45327W        W10488  38.432  27.996   2.648
45328W        W10489  22.422  32.872  14.528
45329W        W10490  31.151  34.240  14.089
45330W        W10491  11.109  38.407   4.543
45331W        W10492  14.186  17.294   1.910
45332W        W10493  25.958  33.842  13.362
45333W        W10494  16.537  35.002  12.518
45334W        W10495  11.818   9.112  14.349
45335W        W10496  14.085  42.503  12.888
45336W        W10497  37.060  16.675   3.182
45337W        W10498  30.537  32.114  13.087
45338W        W10499  19.756  26.800   0.445
45339W        W10500  12.999  22.998  14.296
45340W        W10501  33.534   5.358  10.188
45341W        W10502  38.507  40.539   2.769
45342W        W10503   2.337  42.759  14.440
45343W        W10504  42.825   2.615   0.841
45344W        W10505  34.119   0.419  14.361
45345W        W10506  15.252  20.265   0.923
45346W        W10507  17.841  22.787  12.434
45347W        W10508   2.964  15.169   0.032
45348W        W10509  25.279  32.899  11.057
45349W        W10510   1.242  40.494  11.961
45350W        W10511  33.951  25.694   1.770
45351W        W10512   2.397  32.149   3.546
45352W        W10513  13.109  32.502   1.935
45353W        W10514   2.684  25.998   2.787
45354W        W10515  22.804   9.661   4.560
45355W        W10516  16.671  27.028  11.309
45356W        W10517  39.976  23.242   1.416
45357W        W10518  19.213  44.831  10.660
45358W        W10519  28.088  29.725  11.997
45359W        W10520  39.521  18.847  14.973
45360W        W10521  39.451   3.613   1.399
45361W        W10522   0.371  20.151  11.410
45362W        W10523  11.863  17.050   2.389
45363W        W10524   5.396  23.436  14.275
45364W        W10525   0.663   1.383  12.703
45365W        W10526  18.541  15.849  14.535
45366W        W10527  44.275  30.836   4.057
45367W        W10528  22.461  26.078   4.568
45368W        W10529  21.301  23.909  10.745
45369W        W10530   0.151  22.181  13.070
45370W        W10531  13.717  34.179  12.678
45371W        W10532  42.284  26.918   2.795
45372W        W10533   1.905  31.662  11.213
45373W        W10534   2.817   7.411  14.017
45374W        W10535  27.169  25.719   2.841
45375W        W10536  13.122   4.465   2.881
45376W        W10537  15.088  21.124  13.348
45377W        W10538  12.079  38.876   4.067
45378W        W10539  17.616  20.942  13.505
45379W        W10540  34.615  32.520  11.503
45380W        W10541  42.326  33.833   0.860
45381W        W10542  28.845   1.910  12.505
45382W        W10543  16.453  17.819  10.107
45383W        W10544  12.642  35.869   0.803
45384W        W10545  18.512  24.788   2.697
45385W        W10546   1.943  42.890   3.831
45386W        W10547  26.047  11.686  12.876
45387W        W10548  25.075  27.144  14.282
45388W        W10549  21.122  17.176   1.879
45389W        W10550  23.957  34.212  11.098
45390W        W10551  15.059  29.542  13.497
45391W        W10552   5.394   1.906  11.058
45392W        W10553   1.952   9.379  13.295
45393W        W10554  10.764  22.056   1.659
45394W        W10555   0.801  16.474  14.484
45395W        W10556  26.130  44.431   0.914
45396W        W10557  10.783  17.398  13.051
45397W        W10558  37.835   9.835  14.338
45398W        W10559   2.505  19.544  13.712
45399W        W10560   5.882  44.715   2.239
45400W        W10561  44.528  37.846  12.113
45401W        W10562   2.360  41.952   0.765
45402W        W10563  12.966   7.950  14.044
45403W        W10564  10.841   4.912   3.418
45404W        W10565  37.741  33.913   2.304
45405W        W10566  15.861  20.485  13.505
45406W        W10567   9.576  25.006   4.630
45407W        W10568   8.193  19.646   2.183
45408W        W10569  26.201  32.318   4.313
45409W        W10570  40.392  20.219   3.634
45410W        W10571  11.640  44.987  11.618
45411W        W10572  11.928   3.024  13.020
45412W        W10573  15.167  43.775   1.623
45413W        W10574  33.159  25.968  12.021
45414W        W10575  19.624  31.096   5.072
45415W        W10576  29.287   0.672   4.206
45416W        W10577   3.704  19.139   1.272
45417W        W10578   9.261  17.530   1.287
45418W        W10579  40.293   2.292   1.328
45419W        W10580  15.080   4.353   0.922
45420W        W10581   8.868  44.788  10.952
45421W        W10582  24.126  37.568  11.003
45422W        W10583  36.393  23.234  14.355
45423W        W10584   3.375  27.617   2.803
45424W        W10585  13.233  16.535  13.821
45425W        W10586  10.310  22.246   1.861
45426W        W10587  27.587   5.198   2.667
45427W        W10588  23.233  41.899  13.349
45428W        W10589  32.209  37.909  14.272
45429W        W10590  12.613  16.279  12.482
45430W        W10591  21.108  30.854  14.347
45431W        W10592  12.415  31.452  12.103
45432W        W10593   3.417   1.671   2.686
45433W        W10594   2.738  15.200  13.150
45434W        W10595  21.704  22.809  14.979
45435W        W10596  43.959  28.215  12.972
45436W        W10597  44.905  41.400   2.441
45437W        W10598  15.343  27.082   1.467
45438W        W10599  25.772  42.546   2.676
45439W        W10600   8.925   3.290   2.233
45440W        W10601  38.142   3.775  13.579
45441W        W10602  43.724  44.738  13.042
45442W        W10603  32.092  27.163   3.303
45443W        W10604   2.234  16.713  12.345
45444W        W10605   8.318   6.856   3.820
45445W        W10606  23.117  18.325  13.425
45446W        W10607  16.188  37.609  10.705
45447W        W10608   2.462  40.013   3.710
45448W        W10609  26.797  38.828  13.496
45449W        W10610  30.481  21.234  13.918
45450W        W10611  17.286  27.243   3.100
45451W        W10612   7.124  38.311  14.474
45452W        W10613  19.247  32.048   4.235
45453W        W10614  38.272  17.699  13.417
45454W        W10615  15.054   0.898   1.632
45455W        W10616   8.908   5.253   1.828
45456W        W10617   7.668  35.043   1.762
45457W        W10618  12.700  25.730  13.951
45458W        W10619  18.986  19.723   4.891
45459W        W10620  27.213  28.393  11.569
45460W        W10621  14.872  44.287  12.004
45461W        W10622  38.391  42.214   0.774
45462W        W10623   7.538  16.560  12.377
45463W        W10624  35.180  39.940   0.335
45464W        W10625  42.325  14.453   2.232
45465W        W10626  31.533   8.234  13.117
45466W        W10627  44.307  16.591  12.043
45467W        W10628  42.714  40.553   4.054
45468W        W10629  18.547  35.278   0.330
45469W        W10630  35.381  17.222   0.443
45470W        W10631  29.747  27.641  14.908
45471W        W10632  16.189  30.929   1.356
45472W        W10633  19.683   6.141   2.398
45473W        W10634  12.300  38.527   0.211
45474W        W10635  23.361  23.725   3.294
45475W        W10636  20.688  18.699   2.380
45476W        W10637  21.070  14.133  11.548
45477W        W10638  14.376  13.632   3.148
45478W        W10639  20.132   8.227  14.932
45479W        W10640  40.264  24.575  14.877
45480W        W10641  36.873  18.520   2.916
45481W        W10642   7.216  38.529  13.036
45482W        W10643  27.853  24.115   0.082
45483W        W10644  13.086  18.859   5.001
45484W        W10645   2.829  13.646   3.329
45485W        W10646  22.442  18.134   3.294
45486W        W10647  44.752  21.074  11.577
45487W        W10648  35.876   2.285   3.247
45488W        W10649  15.112  19.670   2.143
45489W        W10650  19.645   3.800   1.646
45490W        W10651  42.071  19.071   2.701
45491W        W10652   6.557  23.423  14.906
45492W        W10653   8.887  15.510   0.781
45493W        W10654  21.203  35.881   1.469
45494W        W10655  31.978   7.218   3.538
45495W        W10656  27.194   1.358  11.084
45496W        W10657   9.904  28.633   0.808
45497W        W10658  19.369  42.504  10.447
45498W        W10659  26.187  14.195  14.464
45499W        W10660  11.525  14.789  13.922
45500W        W10661  43.906   1.259  14.464
45501W        W10662  18.563   6.460  13.238
45502W        W10663  18.241   9.733  13.177
45503W        W10664  16.172  30.003  10.673
45504W        W10665  25.181   5.919   2.866
45505W        W10666  34.559  31.929  12.525
45506W        W10667  31.912  36.098  14.197
45507W        W10668   2.392   8.814  13.020
45508W        W10669  32.086  24.060  10.058
45509W        W10670  10.714   2.930  13.350
45510W        W10671  32.684  17.505  11.610
45511W        W10672  19.194  29.077  12.834
45512W        W10673  19.113  16.587   4.106
45513W        W10674  38.602  12.692  12.256
45514W        W10675  28.347  25.184  10.697
45515W        W10676  16.301   2.776  10.657
45516W        W10677   1.540  16.091  10.710
45517W        W10678  23.368  14.794   0.767
45518W        W10679  10.370  12.653  14.105
45519W        W10680   2.768  36.177   1.390
45520W        W10681  23.983   5.356   4.508
45521W        W10682   2.230  19.330   2.306
45522W        W10683  16.275   0.985   2.900
45523W        W10684  26.922  34.557   2.883
45524W        W10685  36.664  11.777  10.733
45525W        W10686  17.053  17.763   0.774
45526W        W10687  22.457  29.125  14.985
45527W        W10688  42.887  30.457   3.396
45528W        W10689   1.319   1.474   3.758
45529W        W10690  12.401  20.154  13.792
45530W        W10691  15.638  39.475   2.664
45531W        W10692   6.435  18.328  13.528
45532W        W10693  28.237  20.821   1.196
45533W        W10694  29.584  38.135   0.295
45534W        W10695  34.274  11.736  11.210
45535W        W10696  33.234  35.988   2.845
45536W        W10697  29.569  27.960   4.292
45537W        W10698  26.494  33.599  13.707
45538W        W10699  36.054  14.162  12.896
45539W        W10700  28.419  18.761   4.632
45540W        W10701  44.414  11.221  12.625
45541W        W10702  29.478  34.226  12.191
45542W        W10703   6.944  18.366  14.370
45543W        W10704   3.651   2.306  13.379
45544W        W10705  38.097  15.609  11.090
45545W        W10706  44.294  17.052  10.015
45546W        W10707  11.420  40.270   2.822
45547W        W10708  21.438  21.313  10.281
45548W        W10709  21.454  35.554  13.551
45549W        W10710  18.538  32.150   2.039
45550W        W10711  18.372   5.313   3.041
45551W        W10712  41.821  25.623   3.606
45552W        W10713  24.603   0.927  11.378
45553W        W10714  11.215   8.126  11.485
45554W        W10715  14.646   8.300  14.919
45555W        W10716  44.750   7.297  14.366
45556W        W10717  15.738  18.196   4.721
45557W        W10718  43.501  20.980  11.211
45558W        W10719  17.479   1.369  12.350
45559W        W10720   7.075  22.966   4.569
45560W        W10721   7.169   7.300   0.194
45561W        W10722  31.876  32.040  14.387
45562W        W10723  30.717   2.766   2.295
45563W        W10724  22.171   3.779   4.447
45564W        W10725  22.495  43.963  14.066
45565W        W10726  15.297   6.176  11.693
45566W        W10727  13.192   6.171  13.778
45567W        W10728  36.413   2.274   3.130
45568W        W10729   2.847  18.799  13.915
45569W        W10730  33.200  41.374   3.978
45570W        W10731  13.654  33.306   0.914
45571W        W10732  40.337  33.304  12.010
45572W        W10733   7.675  33.945   2.773
45573W        W10734  21.796   4.920   0.860
45574W        W10735  26.577  25.264   2.232
45575W        W10736  26.120  17.567  11.868
45576W        W10737  41.743  44.857  10.727
45577W        W10738  38.251  38.948   5.005
45578W        W10739  29.812  19.992   1.768
45579W        W10740   9.123  12.383   1.966
45580W        W10741  20.139  32.358  13.138
45581W        W10742  11.259  22.078   2.895
45582W        W10743  27.565   5.669  11.476
45583W        W10744  19.979  22.142  14.820
45584W        W10745   1.987  26.897  14.425
45585W        W10746  16.666  32.981  11.156
45586W        W10747  33.331   7.936  13.370
45587W        W10748  20.342  34.364   1.902
45588W        W10749  20.132  17.068  10.309
45589W        W10750  27.884  34.710   0.271
45590W        W10751  34.558   2.210  11.497
45591W        W10752  24.696  44.519  14.814
45592W        W10753   2.715  12.652  14.799
45593W        W10754  29.421  12.824  13.969
45594W        W10755  17.902   0.508  12.420
45595W        W10756  25.468   4.776   3.365
45596W        W10757   0.933   7.903  12.210
45597W        W10758  27.148  17.297  13.379
45598W        W10759   7.276  34.855   4.127
45599W        W10760  41.790  15.213   4.652
45600W        W10761  25.464  36.850  12.418
45601W        W10762  33.575   9.232  11.540
45602W        W10763  17.535  44.841   2.809
45603W        W10764   4.884  23.320   1.300
45604W        W10765  10.859  18.117   1.440
45605W        W10766  20.588  22.972  13.862
45606W        W10767  35.839   8.640  11.363
45607W        W10768  44.768  43.535   3.676
45608W        W10769  22.621  44.963  10.839
45609W        W10770  26.867   8.861  14.483
45610W        W10771  33.598  12.327   9.736
45611W        W10772  23.571  30.933   0.269
45612W        W10773  12.943  34.561  12.006
45613W        W10774  15.814  12.682   4.651
45614W        W10775  17.535   7.626   4.823
45615W        W10776  27.269  30.279  11.944
45616W        W10777  22.150  43.541   1.936
45617W        W10778   0.848  43.098  11.254
45618W        W10779  32.500   2.809   0.507
45619W        W10780  10.150  36.987  12.023
45620W        W10781   5.307   4.842   1.830
45621W        W10782  14.092  40.559  12.912
45622W        W10783   3.786   6.380  12.170
45623W        W10784  15.586  11.073   2.265
45624W        W10785  33.053  15.587   4.391
45625W        W10786   8.760  17.565  14.459
45626W        W10787  32.444  35.233   1.308
45627W        W10788   6.279  40.389  10.451
45628W        W10789  22.264  22.767  13.345
45629W        W10790  36.047  15.300  10.744
45630W        W10791  15.652  31.966   4.165
45631W        W10792   8.696  22.669   5.027
45632W        W10793  10.105  13.138   3.889
45633W        W10794  33.458  26.610  14.042
45634W        W10795   3.223  16.388   4.574
45635W        W10796  26.264   8.328   4.637
45636W        W10797  20.400  35.299  14.573
45637W        W10798  40.202   0.900   2.214
45638W        W10799  31.408  26.303  10.721
45639W        W10800  18.576  25.948  13.356
45640W        W10801  34.633  24.951   0.637
45641W        W10802  24.526  30.118   0.693
45642W        W10803  17.803  27.782   2.859
45643W        W10804  40.278  39.611  12.546
45644W        W10805  22.491  10.210  13.863
45645W        W10806  29.987  44.211   4.597
45646W        W10807   9.633  44.428   3.161
45647W        W10808   2.523  28.295  13.479
45648W        W10809  23.143  42.097   4.070
45649W        W10810   7.159  16.808  12.135
45650W        W10811  21.604  44.348  11.573
45651W        W10812  24.489  19.042  13.521
45652W        W10813   4.389  16.213   0.385
45653W        W10814  28.186  24.723   0.866
45654W        W10815  19.329   0.799   2.415
45655W        W10816  10.129   5.790  11.574
45656W        W10817  32.652  19.040  11.606
45657W        W10818  44.543  12.574  13.764
45658W        W10819  36.423  30.486   4.208
45659W        W10820  19.315   9.877   4.108
45660W        W10821   8.879  35.653  11.136
45661W        W10822   8.771  20.901   9.976
45662W        W10823  38.422  34.597   2.341
45663W        W10824  42.676  24.198  10.665
45664W        W10825  31.183  18.178   4.548
45665W        W10826  21.177   1.446   2.097
45666W        W10827   8.315  43.750   3.579
45667W        W10828  17.262  26.242   3.303
45668W        W10829  36.734  10.370  11.931
45669W        W10830  25.768  18.265   4.092
45670W        W10831  36.009  43.993  14.643
45671W        W10832  30.434  21.747  13.844
45672W        W10833  29.102  33.666  12.114
45673W        W10834   6.929  35.057  14.805
45674W        W10835   4.651  31.836  13.278
45675W        W10836  17.258  42.773  12.206
45676W        W10837  31.111   6.149   4.963
45677W        W10838   3.118   0.056  14.261
45678W        W10839  37.917  38.964  14.778
45679W        W10840   6.821   8.435   2.563
45680W        W10841  17.124  20.443   2.831
45681W        W10842  14.495  44.508   0.182
45682W        W10843  14.394  38.789  14.400
45683W        W10844  10.455  15.653  14.852
45684W        W10845  23.984  29.440  13.855
45685W        W10846  35.558  21.013   4.529
45686W        W10847  30.250  39.063  12.956
45687W        W10848  32.823  26.277   3.048
45688W        W10849  42.961  38.186   2.759
45689W        W10850  39.280  29.520  14.631
45690W        W10851  12.193   9.903  11.264
45691W        W10852  23.343   1.291  13.870
45692W        W10853  14.804  41.909   1.282
45693W        W10854  25.180  37.542   5.058
45694W        W10855  12.726  42.558   2.255
45695W        W10856  37.576   9.986   2.719
45696W        W10857  40.496  23.439   4.105
45697W        W10858  37.237  38.124   4.222
45698W        W10859  23.199  26.239   0.506
45699W        W10860   4.162  27.678   0.917
45700W        W10861   4.469  21.265  11.194
45701W        W10862  25.027   4.376  10.316
45702W        W10863  40.373   5.316  11.230
45703W        W10864  38.352   5.273   0.043
45704W        W10865  10.858   2.218  13.894
45705W        W10866  37.506   2.648  13.092
45706W        W10867  34.902  21.741   1.074
45707W        W10868   6.676  42.495   3.146
45708W        W10869  20.524   2.610  11.116
45709W        W10870  36.136  33.055   4.559
45710W        W10871  22.516  17.313   0.514
45711W        W10872  31.524  25.534  13.063
45712W        W10873   3.156  23.026   1.281
45713W        W10874  27.101  37.788   4.076
45714W        W10875  25.565  20.272   1.824
45715W        W10876   3.000  28.737  12.769
45716W        W10877  21.088  36.958  11.609
45717W        W10878  38.432  24.478  14.888
45718W        W10879  21.243   4.374   1.908
45719W        W10880   7.599  21.793   2.118
45720W        W10881  42.016  41.679  12.979
45721W        W10882  41.340  39.922  12.072
45722W        W10883  30.195  27.741  10.869
45723W        W10884  17.611  27.846  12.144
45724W        W10885  14.103  38.905   0.389
45725W        W10886   3.250  37.055   2.650
45726W        W10887  27.584   4.611   0.793
45727W        W10888   8.366  43.803  14.876
45728W        W10889   0.884  13.181   2.094
45729W        W10890   2.447  38.140  14.813
45730W        W10891  16.092   7.775   2.759
45731W        W10892  29.855  24.150   0.397
45732W        W10893  30.790  35.925  11.049
45733W        W10894  44.751  43.548   0.894
45734W        W10895  20.145  24.485   1.248
45735W        W10896   6.273  16.742   1.445
45736W        W10897  43.996  38.143  10.733
45737W        W10898  41.028  42.846   4.402
45738W        W10899   6.221  33.938  14.003
45739W        W10900   2.311  10.906   4.019
45740W        W10901  34.467  17.562  12.218
45741W        W10902   3.942   4.383   4.498
45742W        W10903  43.544   6.414   3.746
45743W        W10904  38.535  20.030   4.857
45744W        W10905   4.228  43.619  10.977
45745W        W10906  31.324  15.835  10.562
45746W        W10907  35.561  10.270   5.182
45747W        W10908  21.048  25.624   3.681
45748W        W10909   7.571  17.064  11.908
45749W        W10910  21.641  19.868   3.588
45750W        W10911   2.302  15.366   0.277
45751W        W10912   6.322  23.958   4.172
45752W        W10913  28.534  35.517  10.778
45753W        W10914   8.342  24.915  12.038
45754W        W10915  37.181   6.379  12.862
45755W        W10916  23.913   6.452   1.085
45756W        W10917   2.449  37.398  13.184
45757W        W10918  22.939  15.393  11.191
45758W        W10919   5.302   0.198   3.177
45759W        W10920  26.191  35.754   2.322
45760W        W10921  32.783  12.323   2.177
45761W        W10922  21.433   2.515   3.243
45762W        W10923  35.432  22.216   3.533
45763W        W10924  42.833  32.669   0.963
45764W        W10925  27.268  30.466  12.452
45765W        W10926  41.995   0.726   3.278
45766W        W10927   5.650   2.649  11.982
45767W        W10928  10.333   9.678   4.582
45768W        W10929  35.729  28.659  13.529
45769W        W10930  27.178   3.343  12.940
45770W        W10931  14.208  43.325  10.817
45771W        W10932  40.658  34.427  11.306
45772W        W10933   7.713  19.523   2.296
45773W        W10934   2.236  11.163   4.447
45774W        W10935  12.786  31.292  10.869
45775W        W10936  31.081   6.174  14.312
45776W        W10937  23.249  23.024   1.830
45777W        W10938  38.784   1.758  10.064
45778W        W10939   6.103  17.936   0.383
45779W        W10940  26.376  27.527  12.800
45780W        W10941  33.938  32.561   4.604
45781W        W10942   6.738  37.083  14.027
45782W        W10943  42.418  34.035   2.303
45783W        W10944  22.923  12.588  13.077
45784W        W10945   1.600  25.979  11.667
45785W        W10946  14.706  26.897  12.570
45786W        W10947  37.772  33.613   4.962
45787W        W10948   5.844   5.131  13.176
45788W        W10949  44.829  39.741   3.201
45789W        W10950  30.562  44.696   4.239
45790W        W10951  13.345   1.681   1.597
45791W        W10952  17.321  16.545   1.231
45792W        W10953  26.696  21.786   2.821
45793W        W10954  28.905   8.277  12.526
45794W        W10955   4.680  40.050   0.462
45795W        W10956  19.591  23.760   0.120
45796W        W10957  18.568  22.804   1.739
45797W        W10958  36.516   0.458  10.474
45798W        W10959  40.785   9.249   4.730
45799W        W10960  35.292  41.877   3.617
45800W        W10961  35.637   5.311   3.653
45801W        W10962  36.860  35.127  14.544
45802W        W10963  37.942  16.750   1.002
45803W        W10964  36.262  17.972  10.145
45804W        W10965  12.799  12.099  14.048
45805W        W10966  18.552   7.197   1.979
45806W        W10967   4.830  11.861   3.316
45807W        W10968  16.154  25.987  11.980
45808W        W10969  30.386   7.426   0.672
45809W        W10970  40.470  17.983   4.541
45810W        W10971   0.405  42.412  12.582
45811W        W10972  18.032  22.886   1.186
45812W        W10973  27.581  15.322   4.137
45813W        W10974  14.106  19.622  14.283
45814W        W10975  35.007  40.739   4.258
45815W        W10976   5.088  12.238   5.441
45816W        W10977  39.656   8.939  11.558
45817W        W10978  20.275  11.794   3.597
45818W        W10979  29.477   7.764  12.110
45819W        W10980  24.095  44.204   4.884
45820W        W10981  24.403  20.857   4.436
45821W        W10982  20.687  26.141  14.270
45822W        W10983   8.081  26.052  12.872
45823W        W10984   2.731   6.869  12.880
45824W        W10985  34.013   6.489   3.208
45825W        W10986   7.435  41.891   3.933
45826W        W10987  39.004  28.017   4.029
45827W        W10988  15.289  44.458   1.236
45828W        W10989  10.329  14.906   4.799
45829W        W10990  42.015  27.103   0.098
45830W        W10991  44.302   9.842  13.094
45831W        W10992  15.906   1.015   4.576
45832W        W10993  42.367  18.535  11.249
45833W        W10994  23.682   5.077   4.877
45834W        W10995  28.589  30.952  11.725
45835W        W10996  25.457   5.876  11.641
45836W        W10997  40.562  22.121  12.506
45837W        W10998  31.325  16.210  13.123
45838W        W10999  24.288  41.852   4.090
45839W        W11000   8.997  39.184  14.742
45840W        W11001   2.345   0.447   3.752
45841W        W11002  24.835  30.198   1.722
45842W        W11003   0.038   0.082  11.854
45843W        W11004  35.911  22.093   0.143
45844W        W11005  19.944  37.349  14.260
45845W        W11006   7.329  23.752  11.636
45846W        W11007  19.019  16.143   0.224
45847W        W11008  15.932  25.127  11.074
45848W        W11009  17.779  34.366  13.872
45849W        W11010  37.472  17.121   2.367
45850W        W11011  23.084   7.676  12.508
45851W        W11012  10.480  24.703   3.270
45852W        W11013  25.981  43.708  10.209
45853W        W11014  28.363  44.335  12.728
45854W        W11015  36.285  19.848   3.168
45855W        W11016  14.385  10.836  12.815
45856W        W11017  31.950  10.661   0.789
45857W        W11018  36.419   2.671   2.319
45858W        W11019   1.279  32.152   0.258
45859W        W11020   8.861   1.023  12.913
45860W        W11021   5.567  42.722   4.720
45861W        W11022  36.852   3.930   0.831
45862W        W11023  43.836   6.895  11.422
45863W        W11024   3.478  33.473  10.598
45864W        W11025  11.600  44.404   4.623
45865W        W11026  41.394  28.179   2.150
45866W        W11027  13.609  17.667   3.186
45867W        W11028  13.172  25.946  13.948
45868W        W11029  13.296  10.999  13.338
45869W        W11030   1.493  28.694   3.825
45870W        W11031  24.624   1.398  11.676
45871W        W11032   7.664   9.060  13.157
45872W        W11033  44.407  40.092  11.750
45873W        W11034  24.933  11.748   2.709
45874W        W11035  13.711   0.842   4.836
45875W        W11036  19.565  21.591  10.942
45876W        W11037   9.167  35.232  12.484
45877W        W11038   7.166  14.568   3.889
45878W        W11039  17.343  17.322  11.496
45879W        W11040  32.499  13.549  11.727
45880W        W11041   2.829  17.352  12.226
45881W        W11042  21.935  20.001  10.095
45882W        W11043   4.626   6.738   0.789
45883W        W11044  42.257  44.789   4.125
45884W        W11045  26.371  14.286   1.387
45885W        W11046  42.797  37.328  14.892
45886W        W11047  40.035   7.318  12.097
45887W        W11048  17.086  26.139   0.424
45888W        W11049   1.988  11.251   3.254
45889W        W11050   8.662  12.080  11.221
45890W        W11051  22.587  22.124  12.015
45891W        W11052  40.890  32.119   1.771
45892W        W11053  36.388  29.376  11.636
45893W        W11054  21.003  26.116   4.687
45894W        W11055  25.391   6.600  12.896
45895W        W11056   5.830  11.055   3.144
45896W        W11057  20.214   3.274   3.259
45897W        W11058   9.799  10.455  10.348
45898W        W11059   8.689  26.144   3.867
45899W        W11060  36.911  12.221  11.597
45900W        W11061  39.099  21.905  11.057
45901W        W11062  25.566  15.367   1.421
45902W        W11063   9.807  36.994   0.971
45903W        W11064   9.125  39.450   3.216
45904W        W11065  22.965   8.816   1.141
45905W        W11066  37.411   6.777   5.184
45906W        W11067  36.757  29.843   1.426
45907W        W11068  10.128   1.726   2.628
45908W        W11069  11.617  42.541  10.327
45909W        W11070  27.909   9.851  11.533
45910W        W11071   1.399  21.750   1.826
45911W        W11072   8.276  19.007   0.362
45912W        W11073  23.137  41.432  11.615
45913W        W11074   1.910  35.396  12.559
45914W        W11075  23.475   0.565  13.238
45915W        W11076  31.560  27.731   2.215
45916W        W11077  33.984   0.949   0.191
45917W        W11078   0.724  20.203   2.820
45918W        W11079  19.786  30.372  10.797
45919W        W11080  39.850  25.104   4.225
45920W        W11081  11.382  28.241  14.902
45921W        W11082  31.038  40.678  14.316
45922W        W11083  30.513  21.836  10.093
45923W        W11084   9.656  22.321   3.689
45924W        W11085  29.231  21.011  10.785
45925W        W11086  27.456  34.451   3.744
45926W        W11087  38.417  21.019   3.140
45927W        W11088  12.983  22.681  11.636
45928W        W11089  25.728  17.337   1.111
45929W        W11090  25.315  43.773  11.421
45930W        W11091  29.892   4.435   1.763
45931W        W11092  17.774   6.717   1.511
45932W        W11093  24.599  28.673   3.416
45933W        W11094  32.157   5.640  11.580
45934W        W11095  29.156  40.145  14.016
45935W        W11096  19.963  13.513   4.667
45936W        W11097  31.377  30.030  12.088
45937W        W11098  42.422  13.218   2.822
45938W        W11099   8.480  31.257  12.102
45939W        W11100  23.431  35.742   0.797
45940W        W11101  35.420  36.434   2.298
45941W        W11102  10.269  22.064   3.795
45942W        W11103  27.032  38.533   0.808
45943W        W11104  44.928  31.089  13.032
45944W        W11105   1.895  24.019   0.832
45945W        W11106   1.017  19.078  10.685
45946W        W11107  11.190  32.017  14.270
45947W        W11108   9.983  18.178   3.216
45948W        W11109   4.986   8.767   0.740
45949W        W11110  15.462  41.400   4.932
45950W        W11111  30.088  28.472  11.433
45951W        W11112   4.916  29.861   4.629
45952W        W11113   6.523   8.690   1.322
45953W        W11114  34.601  43.419  10.725
45954W        W11115  22.106  20.872   4.499
45955W        W11116  19.268  29.452   4.183
45956W        W11117  19.172  13.209   0.951
45957W        W11118  44.119   1.378   2.871
45958W        W11119  38.356  30.207   3.478
45959W        W11120  10.714   4.267   0.890
45960W        W11121   0.095  14.290  13.050
45961W        W11122  43.276   2.646  12.876
45962W        W11123  40.914   1.786  12.377
45963W        W11124  35.589  42.423   0.343
45964W        W11125  40.870  10.491  11.978
45965W        W11126  44.744  26.582  14.020
45966W        W11127   4.314   8.597  12.025
45967W        W11128  23.423  35.094  10.669
45968W        W11129  35.855  11.866  12.358
45969W        W11130  25.982   3.492  13.440
45970W        W11131  10.832  36.566  11.110
45971W        W11132   8.599  44.845  13.433
45972W        W11133  23.648  26.169  14.741
45973W        W11134  37.289  14.114  13.343
45974W        W11135  34.249  17.752  14.345
45975W        W11136  39.572   1.844  13.494
45976W        W11137  28.253  33.170  10.728
45977W        W11138  41.937  10.070  12.570
45978W        W11139   8.161   9.955  12.536
45979W        W11140  28.883  17.705  12.524
45980W        W11141  44.360  10.635  10.142
45981W        W11142  10.848  40.572  13.486
45982W        W11143  16.188  24.946  13.894
45983W        W11144  18.047   3.207  10.954
45984W        W11145  38.053   4.766   3.327
45985W        W11146  31.623   2.744   3.820
45986W        W11147  42.282  25.404   0.141
45987W        W11148  13.779  26.399  14.331
45988W        W11149  35.496  25.985  10.593
45989W        W11150  39.653  35.640  14.367
45990W        W11151  30.232   1.745   0.706
45991W        W11152  34.170  35.441  12.304
45992W        W11153  10.300  24.226  11.979
45993W        W11154  30.714  34.014   3.990
45994W        W11155  12.875  19.090   4.168
45995W        W11156  25.471  28.878   3.613
45996W        W11157   9.210  24.508  13.251
45997W        W11158  16.629  12.180   4.428
45998W        W11159   1.250  16.415   0.840
45999W        W11160  25.155  32.271   4.657
46000W        W11161  40.873  30.091  11.024
46001W        W11162  15.803   3.941   3.677
46002W        W11163  40.078  24.798   0.289
46003W        W11164  17.134  24.399   2.762
46004W        W11165  19.287   6.621   0.357
46005W        W11166  28.388  18.163   4.072
46006W        W11167  26.076  35.869   1.345
46007W        W11168  44.837   0.958   5.063
46008W        W11169   0.715  35.304   5.077
46009W        W11170  40.999  42.094   2.745
46010W        W11171  40.043  38.765   4.853
46011W        W11172  25.061  28.513   3.595
46012W        W11173   2.326  18.095   4.387
46013W        W11174   8.042  16.934   1.928
46014W        W11175  29.731  43.787  13.864
46015W        W11176  26.910  13.212   3.573
46016W        W11177  21.249  25.335   1.363
46017W        W11178  41.918   3.343  14.881
46018W        W11179  31.553  28.693   4.353
46019W        W11180  36.857  20.998   2.927
46020W        W11181   8.687   7.426  13.408
46021W        W11182  14.183  12.329  12.914
46022W        W11183  22.736  26.532   4.516
46023W        W11184  22.030  37.128   4.483
46024W        W11185   6.574  43.415  14.080
46025W        W11186  14.681  19.700   0.831
46026W        W11187  19.317  25.034   1.326
46027W        W11188  37.557  15.354  11.615
46028W        W11189   1.223  12.459   3.189
46029W        W11190  44.970   1.683   1.064
46030W        W11191  43.872  27.429  11.193
46031W        W11192  35.431   8.938  10.849
46032W        W11193  24.762  41.971   4.642
46033W        W11194  16.693  38.535   1.150
46034W        W11195  44.470   3.370  11.108
46035W        W11196  34.878  15.886   3.671
46036W        W11197  41.895  22.856  12.873
46037W        W11198  42.252   6.832  10.739
46038W        W11199  14.926  39.895  12.710
46039W        W11200  19.269  34.113   3.337
46040W        W11201  37.932  10.668   3.105
46041W        W11202  25.300  38.351   3.847
46042W        W11203  12.710  34.246  14.803
46043W        W11204  11.125  34.249   2.165
46044W        W11205  39.142  32.811  13.339
46045W        W11206   2.967   8.443   4.594
46046W        W11207  33.539  23.945   1.829
46047W        W11208   1.748   9.930  11.108
46048W        W11209  26.222  17.842   0.443
46049W        W11210   8.236  10.672  10.917
46050W        W11211   9.582   3.285  12.962
46051W        W11212  39.462  36.412  11.202
46052W        W11213  38.319  27.013   0.656
46053W        W11214  26.110   6.925  13.187
46054W        W11215  39.986  28.615  12.565
46055W        W11216  25.571  41.541   3.164
46056W        W11217  40.704  29.869   1.231
46057W        W11218  15.958  13.385  13.484
46058W        W11219  10.693  32.743  11.021
46059W        W11220   4.652  27.629  13.715
46060W        W11221  41.534   9.772   2.881
46061W        W11222  20.299  24.672  10.955
46062W        W11223  22.155   2.474   0.803
46063W        W11224  22.404  13.918   1.372
46064W        W11225  30.346  25.940  14.731
46065W        W11226  26.264  20.277  13.928
46066W        W11227  43.436  12.681  14.504
46067W        W11228  14.160  28.656  14.422
46068W        W11229  33.564  41.602  14.497
46069W        W11230  32.279  34.800   0.305
46070W        W11231  25.797  17.353  10.915
46071W        W11232   3.741  23.111   3.064
46072W        W11233  10.716  10.100  12.167
46073W        W11234  16.648   9.700  11.213
46074W        W11235   3.208  28.797  13.246
46075W        W11236  42.051  27.214   0.623
46076W        W11237  21.177   9.590   1.654
46077W        W11238   5.551  28.521  11.059
46078W        W11239  10.378  22.076   2.912
46079W        W11240   6.234  39.643   0.795
46080W        W11241   1.326  36.533  12.565
46081W        W11242  23.667  44.916   3.619
46082W        W11243  16.087  38.242   1.783
46083W        W11244   5.167  43.187   0.519
46084W        W11245   1.780  14.731  14.401
46085W        W11246  40.375   4.413   4.697
46086W        W11247  22.556  35.860   1.816
46087W        W11248  41.560  19.281  10.824
46088W        W11249  19.882  29.483   2.467
46089W        W11250   8.147  10.034   3.359
46090W        W11251  16.204  21.498   0.397
46091W        W11252  40.277  19.503   4.206
46092W        W11253  17.741  29.157   1.831
46093W        W11254  10.664  10.419  14.552
46094W        W11255   5.914  38.646  10.662
46095W        W11256   2.395  38.009  10.946
46096W        W11257  10.757  31.092  14.567
46097W        W11258   5.487  36.933  12.125
46098W        W11259  28.567   9.804   2.090
46099W        W11260   5.949   6.125  12.494
46100W        W11261  10.252  31.663   0.512
46101W        W11262   8.865  40.280  13.167
46102W        W11263  15.355   5.938   1.727
46103W        W11264   9.495  25.020  14.432
46104W        W11265  20.266  16.590   0.449
46105W        W11266   5.082   7.511  10.753
46106W        W11267  11.024   0.982   1.278
46107W        W11268  39.200  40.757  11.036
46108W        W11269  42.934  22.620   9.887
46109W        W11270  27.450  39.521  10.405
46110W        W11271  31.727  39.880   0.746
46111W        W11272  21.794  20.688  11.520
46112W        W11273  18.266  12.820  13.513
46113W        W11274   2.862  21.967   3.852
46114W        W11275  16.279  41.847  10.707
46115W        W11276  29.050  41.012  12.204
46116W        W11277   8.624  37.488  12.444
46117W        W11278  21.458  13.271   1.281
46118W        W11279  37.934  28.648  12.494
46119W        W11280  12.250  23.436   4.164
46120W        W11281  41.209   5.426  13.821
46121W        W11282  30.620  39.466   1.420
46122W        W11283  38.604   9.540   4.243
46123W        W11284   8.248  27.709  11.567
46124W        W11285  23.481  11.300   1.186
46125W        W11286  20.246  40.597   0.743
46126W        W11287  41.313  19.533  12.055
46127W        W11288  14.273  41.026  13.529
46128W        W11289  13.206  28.459  12.916
46129W        W11290   2.361   8.488   0.886
46130W        W11291   9.803  24.172   4.124
46131W        W11292  34.858  41.161  13.380
46132W        W11293  44.314  42.001   3.697
46133W        W11294  16.250   8.302  14.364
46134W        W11295  28.505  42.030  12.684
46135W        W11296  21.915  43.342  12.853
46136W        W11297  16.513  21.575   3.242
46137W        W11298   8.978   7.258  12.576
46138W        W11299  34.944   9.157  11.503
46139W        W11300  19.607  24.458  12.046
46140W        W11301  40.925   8.374   0.527
46141W        W11302  28.669  14.233   0.947
46142W        W11303  25.671   4.781  13.889
46143W        W11304  22.674   8.805   1.968
46144W        W11305  24.929  23.087   2.741
46145W        W11306  23.224  38.431   2.853
46146W        W11307  37.977  36.440  11.591
46147W        W11308   4.254  16.125  14.031
46148W        W11309   4.652  35.681   3.727
46149W        W11310  27.114  43.064  12.145
46150W        W11311  12.114   5.731  10.639
46151W        W11312  21.036  23.990   2.654
46152W        W11313  18.502   7.399  12.832
46153W        W11314  27.322  16.765   4.074
46154W        W11315  42.320  27.242   1.872
46155W        W11316  35.988  31.162  13.805
46156W        W11317  41.286  33.869   1.777
46157W        W11318  39.504  32.104   1.362
46158W        W11319  19.211  37.774  11.068
46159W        W11320  23.691  41.533  11.632
46160W        W11321  18.691  25.869  11.993
46161W        W11322   3.401   4.860   0.783
46162W        W11323  38.885   5.961   3.100
46163W        W11324  34.674   9.090   3.123
46164W        W11325   0.244  17.142  13.970
46165W        W11326   8.695   1.315   1.678
46166W        W11327  30.851  11.954   3.309
46167W        W11328  17.697  28.105  10.760
46168W        W11329  12.586  34.423   1.798
46169W        W11330  33.628  34.109  10.213
46170W        W11331  27.928  11.203  14.200
46171W        W11332  33.370  36.895  10.161
46172W        W11333  13.747  40.563   3.495
46173W        W11334  43.392  13.705  12.958
46174W        W11335  41.461  34.101   3.188
46175W        W11336   4.322  18.235   4.601
46176W        W11337   3.354  40.875  14.828
46177W        W11338   4.011  15.605  14.412
46178W        W11339  31.393  42.404  13.361
46179W        W11340   6.858  15.186   1.690
46180W        W11341  14.848   8.797   2.959
46181W        W11342  21.439  43.910  14.013
46182W        W11343  41.405  42.366   0.674
46183W        W11344  13.767   7.469   0.680
46184W        W11345  39.903   8.240  10.688
46185W        W11346  38.305  22.673   3.353
46186W        W11347  34.334  14.383   3.726
46187W        W11348  25.076  11.189   0.024
46188W        W11349  23.277  22.937   4.140
46189W        W11350  42.990  27.263  11.161
46190W        W11351  27.680  38.189  14.138
46191W        W11352  18.488  12.052   5.044
46192W        W11353  29.707   2.603   0.858
46193W        W11354  35.594  42.757   3.164
46194W        W11355   2.283   9.909  12.148
46195W        W11356  13.154  14.646   3.588
46196W        W11357   3.500  22.772   0.406
46197W        W11358  36.553  12.788   1.225
46198W        W11359  28.517  24.626   1.284
46199W        W11360  26.787  16.026  10.723
46200W        W11361  27.438   3.432  13.379
46201W        W11362  34.053  38.852  13.357
46202W        W11363  13.910   0.209  11.781
46203W        W11364  41.077  39.894  11.569
46204W        W11365  14.762  22.647   4.255
46205W        W11366  43.507  38.120  13.252
46206W        W11367  11.094  28.096   1.122
46207W        W11368  34.671  31.572  11.714
46208W        W11369  10.883  19.285  10.812
46209W        W11370  10.203   2.427  12.568
46210W        W11371   9.850  15.783  12.065
46211W        W11372  15.832  22.425   4.556
46212W        W11373   6.609  24.165   3.301
46213W        W11374  42.357   3.399   2.745
46214W        W11375  31.299  42.479   3.274
46215W        W11376  42.934  11.509  13.259
46216W        W11377   9.401   7.397   2.149
46217W        W11378  10.819  13.120   1.351
46218W        W11379  32.579  12.714   0.795
46219W        W11380  30.053   3.458   4.433
46220W        W11381  25.436  22.055  14.799
46221W        W11382  30.041  11.260  11.138
46222W        W11383  21.683   6.194  12.087
46223W        W11384  22.501  10.292   3.560
46224W        W11385  21.990  25.939   3.089
46225W        W11386  26.886  25.325  14.449
46226W        W11387  40.814   0.745   2.805
46227W        W11388   0.075   1.486   3.850
46228W        W11389  28.123   8.917  11.550
46229W        W11390   2.227  27.952   4.066
46230W        W11391  18.308   4.529  10.601
46231W        W11392  15.798  14.190   4.142
46232W        W11393  37.168  14.160   0.230
46233W        W11394  20.275  19.777   2.807
46234W        W11395   4.264  15.139   0.634
46235W        W11396   6.702  25.034   4.970
46236W        W11397   0.352   0.803   0.621
46237W        W11398  26.947   6.954   2.916
46238W        W11399  30.746  15.885   3.751
46239W        W11400  34.996   2.942  10.396
46240W        W11401  43.058  42.220   4.204
46241W        W11402  30.945  30.745  12.193
46242W        W11403  41.145  35.003  13.825
46243W        W11404  38.166   2.963   3.667
46244W        W11405  36.021  19.595   3.995
46245W        W11406  10.318   4.954   3.256
46246W        W11407  22.427  36.711   2.343
46247W        W11408  34.445  33.218   3.209
46248W        W11409   5.718  19.261   3.222
46249W        W11410  39.885  21.091  12.906
46250W        W11411  38.359  28.489  10.645
46251W        W11412  34.085  27.994   0.232
46252W        W11413  41.844  38.847  12.337
46253W        W11414   4.730   2.877  10.390
46254W        W11415   0.369  44.670  10.754
46255W        W11416  10.735  13.061   4.269
46256W        W11417  22.528  31.184  13.474
46257W        W11418  37.391   0.398   1.366
46258W        W11419  20.839  21.263   2.922
46259W        W11420  19.131  20.162  12.927
46260W        W11421  36.064  32.857  12.032
46261W        W11422  19.320   7.160   4.028
46262W        W11423  27.068   3.681  11.170
46263W        W11424  33.909  43.962   1.581
46264W        W11425   1.553  31.046  11.145
46265W        W11426  29.470  18.985   2.256
46266W        W11427  18.561  19.768   3.709
46267W        W11428  39.742   7.678  11.454
46268W        W11429  12.239  40.722   2.213
46269W        W11430  23.045  37.909  14.917
46270W        W11431  29.156  19.768   3.342
46271W        W11432  22.665  12.877  14.360
46272W        W11433   7.668  43.290   0.226
46273W        W11434  37.905  44.370   3.400
46274W        W11435  38.310  26.235  11.167
46275W        W11436  38.991  39.441  11.831
46276W        W11437  11.131  19.597   4.764
46277W        W11438  29.879   8.712  13.385
46278W        W11439  20.938  13.803   0.263
46279W        W11440  10.319  21.350  13.898
46280W        W11441   7.774  11.125  11.988
46281W        W11442  11.421   2.914   3.385
46282W        W11443  38.810  15.120  14.685
46283W        W11444  29.037  28.041   3.539
46284W        W11445   9.370  28.567  11.113
46285W        W11446  44.988  36.584   3.183
46286W        W11447   9.225  35.579   3.223
46287W        W11448  22.002  31.184  14.159
46288W        W11449  33.058  23.846   3.315
46289W        W11450  16.096  37.558   0.334
46290W        W11451  14.145  16.289   3.792
46291W        W11452  28.763  40.804  13.474
46292W        W11453   1.134  32.489   1.276
46293W        W11454   4.284   2.220   2.840
46294W        W11455   0.932  34.907   0.508
46295W        W11456   7.844   1.104   1.814
46296W        W11457  14.612  26.501  10.255
46297W        W11458  27.510  11.586  13.035
46298W        W11459  24.458   2.267   3.649
46299W        W11460  37.975  42.598  11.548
46300W        W11461  26.229   0.877   0.989
46301W        W11462  16.178  38.760   1.835
46302W        W11463  18.157  28.110  11.041
46303W        W11464  25.479   5.729  14.348
46304W        W11465  25.044  24.637   2.358
46305W        W11466  34.970  41.471  14.054
46306W        W11467  39.473  42.444   1.419
46307W        W11468  25.254  36.973  13.667
46308W        W11469  41.897  34.818  11.547
46309W        W11470   5.675  30.174   1.874
46310W        W11471  13.403  13.250  13.390
46311W        W11472   9.370   9.767   4.549
46312W        W11473  25.722   1.940  11.495
46313W        W11474   7.324  41.922   2.946
46314W        W11475   3.216  39.457   2.683
46315W        W11476  43.844   4.398   2.243
46316W        W11477  35.630  29.468   2.558
46317W        W11478   1.160  44.963  12.613
46318W        W11479  26.587  44.332   3.216
46319W        W11480   4.519  10.493  12.476
46320W        W11481  28.929  18.088  10.927
46321W        W11482  39.923  18.758  11.938
46322W        W11483  41.901  19.000  10.558
46323W        W11484  44.343   7.430   2.734
46324W        W11485  11.902   3.770  11.570
46325W        W11486   1.902  12.048   3.630
46326W        W11487  18.544  20.779   1.949
46327W        W11488  14.768  27.572   0.431
46328W        W11489  11.125   4.288  11.411
46329W        W11490  26.409  13.172   4.605
46330W        W11491  36.564  28.434  12.409
46331W        W11492  24.739  14.139  14.331
46332W        W11493   7.981   9.938  14.751
46333W        W11494  30.680  20.963  11.588
46334W        W11495  40.086  10.188   1.432
46335W        W11496   0.226  24.253  14.902
46336W        W11497  31.827   6.772  10.618
46337W        W11498   4.401   1.873   1.460
46338W        W11499   5.385  39.240  12.543
46339W        W11500   8.927  41.178   0.765
46340W        W11501  23.771  12.371   0.348
46341W        W11502   3.388   4.335   0.724
46342W        W11503  30.095   8.606  11.357
46343W        W11504  38.049  12.302   4.458
46344W        W11505  24.573   7.252   2.302
46345W        W11506  22.785   6.397   3.271
46346W        W11507   2.167  13.759   1.610
46347W        W11508  21.267  37.094  10.795
46348W        W11509  18.242  38.645   4.545
46349W        W11510  10.367  44.136  14.278
46350W        W11511  32.622  32.323  11.550
46351W        W11512  13.064  21.213  10.361
46352W        W11513  19.800  43.281  14.109
46353W        W11514  27.087  41.440  13.315
46354W        W11515  41.116  43.007   0.026
46355W        W11516  30.491  33.515   3.958
46356W        W11517   3.927   6.129   3.997
46357W        W11518   3.468  42.614  13.997
46358W        W11519  44.854   6.425  14.179
46359W        W11520  19.097  12.170  11.143
46360W        W11521  11.804  31.380  14.373
46361W        W11522  29.450   1.898   3.765
46362W        W11523  12.474  34.424  12.224
46363W        W11524  37.861   4.164  11.084
46364W        W11525   5.013  13.394  13.947
46365W        W11526  31.062   4.109  12.549
46366W        W11527   9.324  35.073   4.024
46367W        W11528   6.077  14.825  13.878
46368W        W11529  37.481  32.912   1.454
46369W        W11530  20.125  43.555  13.357
46370W        W11531  25.622  39.206  10.759
46371W        W11532  39.141   0.574   1.258
46372W        W11533  44.677  25.581  14.533
46373W        W11534   5.074  41.830   2.900
46374W        W11535  33.941  20.098   1.909
46375W        W11536  34.924  20.650  13.531
46376W        W11537  24.847   3.412  11.231
46377W        W11538  35.427  38.424  12.232
46378W        W11539  26.442  10.912   2.908
46379W        W11540  18.100  21.799  10.700
46380W        W11541  35.084  31.083  14.252
46381W        W11542  23.650  17.643   1.669
46382W        W11543  41.337  15.331   1.461
46383W        W11544  42.901   6.727   1.880
46384W        W11545   6.842  18.758  11.691
46385W        W11546  15.166  29.432   2.367
46386W        W11547   0.736  33.587   3.106
46387W        W11548   0.545  12.945   1.291
46388W        W11549  22.368  23.207  11.980
46389W        W11550  23.112  37.390   1.587
46390W        W11551  27.636  17.396   0.052
46391W        W11552   8.416  35.561   1.431
46392W        W11553  38.892  41.729   2.375
46393W        W11554  21.083  38.096  12.456
46394W        W11555  21.240  10.779   3.347
46395W        W11556  29.709  13.107   4.226
46396W        W11557  33.717  20.988  13.559
46397W        W11558  20.152  22.450   3.775
46398W        W11559   6.037  16.345  14.873
46399W        W11560  44.325  37.830  13.032
46400W        W11561  19.330  37.932   4.087
46401W        W11562  18.917  11.091  11.989
46402W        W11563   6.690  19.978   0.051
46403W        W11564  27.604  32.876  14.550
46404W        W11565  36.925  39.744   4.534
46405W        W11566   0.261  25.999  11.394
46406W        W11567  20.620   1.219  13.958
46407W        W11568  31.119   6.309  12.934
46408W        W11569   0.438  24.637   3.223
46409W        W11570  37.599  33.368   1.196
46410W        W11571   2.955  22.712  14.281
46411W        W11572  42.104  33.424  12.458
46412W        W11573  25.237  26.049   2.292
46413W        W11574  37.475  16.104   3.179
46414W        W11575  42.939   0.292   2.906
46415W        W11576  36.462  26.473  12.157
46416W        W11577  40.030  32.607   0.275
46417W        W11578  19.644  41.548  11.843
46418W        W11579   7.707   1.996   4.214
46419W        W11580  43.533  22.213   0.536
46420W        W11581  11.323   7.627   3.866
46421W        W11582  21.792   1.932   1.423
46422W        W11583  41.284  29.306  13.314
46423W        W11584  40.799  39.985   3.279
46424W        W11585  25.256  13.273   1.708
46425W        W11586   2.292   2.215  11.449
46426W        W11587  31.090  34.581   3.354
46427W        W11588   8.642   8.827  11.464
46428W        W11589  25.620   5.837   3.347
46429W        W11590   6.312  20.754  10.668
46430W        W11591  42.501  21.040   1.410
46431W        W11592  26.495  42.006  14.985
46432W        W11593   3.285  39.487   3.529
46433W        W11594  27.005  24.483  11.532
46434W        W11595  40.908  30.844  14.958
46435W        W11596   6.428  21.971   0.399
46436W        W11597  25.888  14.614  14.772
46437W        W11598  21.161  16.291  13.516
46438W        W11599  17.373  21.569  14.068
46439W        W11600  24.400  15.560   2.999
46440W        W11601  41.345   2.382   4.558
46441W        W11602   9.867   6.643  13.543
46442W        W11603   3.857  11.043   3.273
46443W        W11604  24.663   0.840   4.798
46444W        W11605   7.774  30.556   0.065
46445W        W11606  22.819  38.301  11.135
46446W        W11607  42.876  43.188  14.859
46447W        W11608  14.668  25.680   2.168
46448W        W11609  34.987  20.795  12.101
46449W        W11610  11.357  12.438   2.826
46450W        W11611  41.166  14.164  13.020
46451W        W11612  23.477  34.826   1.447
46452W        W11613  40.914  42.352   0.940
46453W        W11614  13.743  17.298  12.535
46454W        W11615  40.139  25.947  11.479
46455W        W11616  37.989   7.478  12.899
46456W        W11617   4.478  15.053  11.617
46457W        W11618  27.410  11.262  13.454
46458W        W11619  33.166  31.923   3.446
46459W        W11620   6.201  24.790  12.446
46460W        W11621  21.261  19.806  11.978
46461W        W11622   2.117  27.458   0.886
46462W        W11623   9.788  25.739  13.084
46463W        W11624  40.798  36.364  12.096
46464W        W11625  38.490  13.705   1.695
46465W        W11626   3.787  13.035   3.769
46466W        W11627  32.136  13.235   3.545
46467W        W11628  35.541  26.982   2.411
46468W        W11629   3.774   4.567  13.064
46469W        W11630  38.508  32.033   3.942
46470W        W11631  38.478  28.681   0.844
46471W        W11632  44.693  34.977  10.981
46472W        W11633  24.492  25.554  14.911
46473W        W11634  44.905   5.941  10.506
46474W        W11635  28.779  10.966  12.128
46475W        W11636  33.296  32.149  12.556
46476W        W11637  22.430  35.048  10.443
46477W        W11638   4.916  18.948   3.299
46478W        W11639  26.478  39.742  12.475
46479W        W11640  26.159  20.757  11.077
46480W        W11641  16.105  10.572   4.086
46481W        W11642  25.693  21.027  12.195
46482W        W11643  22.624  28.474  14.547
46483W        W11644   6.713   9.262  12.887
46484W        W11645  11.620  25.519  13.035
46485W        W11646  17.554  36.782   0.326
46486W        W11647  38.029  22.509  14.393
46487W        W11648  17.319   0.011   4.963
46488W        W11649  38.582   0.049  13.442
46489W        W11650  18.549  28.003   2.587
46490W        W11651  14.856  37.790  13.551
46491W        W11652  41.769  35.404   1.205
46492W        W11653  25.721  36.460   5.482
46493W        W11654   4.553   5.167  13.532
46494W        W11655  24.026  44.312   3.997
46495W        W11656   2.071  18.549   2.719
46496W        W11657  12.872   3.772  12.641
46497W        W11658  19.818  32.370   2.682
46498W        W11659   0.656  34.963  13.554
46499W        W11660  27.457  31.636   5.039
46500W        W11661  15.756  31.136   4.644
46501W        W11662  44.782   2.540   2.222
46502W        W11663   1.645  18.314  10.467
46503W        W11664   9.969  28.551   2.705
46504W        W11665  25.547  15.299  13.651
46505W        W11666  33.040  31.453  10.714
46506W        W11667  26.122  26.537  10.887
46507W        W11668  17.319  37.548  14.825
46508W        W11669   0.425   0.332  14.739
46509W        W11670  18.216  20.674   4.943
46510W        W11671  34.522  21.789   3.769
46511W        W11672  19.587  21.115   0.231
46512W        W11673  23.677   0.953   3.426
46513W        W11674  32.603  29.605   3.775
46514W        W11675  41.450  38.767  14.437
46515W        W11676  28.659  38.093  12.647
46516W        W11677  14.849  29.967  13.221
46517W        W11678   7.406  10.695   1.796
46518W        W11679  20.561  43.769  14.506
46519W        W11680  26.091  36.856   3.752
46520W        W11681  42.033  21.802   2.851
46521W        W11682  28.979  39.468  14.553
46522W        W11683  25.522  25.798   3.407
46523W        W11684  14.864  37.613   5.097
46524W        W11685  12.035  14.161   5.235
46525W        W11686  32.452  37.795   2.827
46526W        W11687  44.447  41.658   0.970
46527W        W11688   8.998  18.017  14.429
46528W        W11689  28.496  40.392   0.819
46529W        W11690  11.137  34.501  10.672
46530W        W11691   9.380  19.747  11.460
46531W        W11692  19.489  27.569   4.412
46532W        W11693  13.768  43.354  12.775
46533W        W11694  18.060   5.905   2.829
46534W        W11695   1.987  42.224  13.917
46535W        W11696  22.983   7.643   4.678
46536W        W11697  14.373   6.369   0.843
46537W        W11698  19.190  42.354   1.271
46538W        W11699  43.223  26.061   4.343
46539W        W11700   9.099  20.051   1.153
46540W        W11701   7.069  16.502  13.504
46541W        W11702   6.654   2.701  13.201
46542W        W11703  14.106  38.831   3.859
46543W        W11704  43.057  43.063  11.568
46544W        W11705   9.044  22.681   3.751
46545W        W11706   2.878   9.203   1.000
46546W        W11707  37.036  10.288   2.741
46547W        W11708  33.813  34.987  10.680
46548W        W11709  10.702  10.248  14.014
46549W        W11710  23.849  22.519   3.245
46550W        W11711   5.340   7.361   1.942
46551W        W11712  43.196   6.228   1.843
46552W        W11713  43.316  32.675  11.351
46553W        W11714  24.941  39.920  11.478
46554W        W11715  20.052   5.713   2.520
46555W        W11716  38.958  12.149   2.387
46556W        W11717   2.336  21.631   2.715
46557W        W11718  14.116  31.002  11.080
46558W        W11719  25.910  29.478  14.306
46559W        W11720  10.150  15.337   1.337
46560W        W11721   3.480   7.667   4.258
46561W        W11722  12.693  36.436   3.466
46562W        W11723  13.653  34.372  14.133
46563W        W11724  44.438  11.740  12.470
46564W        W11725   6.177  42.398   4.205
46565W        W11726  38.123  15.867  14.807
46566W        W11727  22.352  15.700  12.905
46567W        W11728  21.289  20.993  10.710
46568W        W11729  15.469  43.744   9.853
46569W        W11730   7.870  15.403   0.750
46570W        W11731  36.387  31.843   3.281
46571W        W11732  44.774  38.655   0.402
46572W        W11733  20.903  40.881  11.343
46573W        W11734  18.073  12.307  14.437
46574W        W11735  17.177  41.053   4.000
46575W        W11736  28.691  25.491  14.227
46576W        W11737  16.831  37.395  14.854
46577W        W11738   3.456  43.312   4.522
46578W        W11739  16.198  28.420  10.578
46579W        W11740   3.274  11.217  14.524
46580W        W11741  21.811  31.616   4.946
46581W        W11742   5.251  44.293  12.951
46582W        W11743  18.127  25.579   4.770
46583W        W11744   0.528  31.332   4.221
46584W        W11745  37.363  27.511   1.302
46585W        W11746  18.307  12.373   0.315
46586W        W11747  12.720  34.498   0.699
46587W        W11748  17.275  30.170  10.753
46588W        W11749   5.649   7.673  14.771
46589W        W11750   1.203  22.538   1.553
46590W        W11751   1.856  23.096   4.825
46591W        W11752  42.440  24.013  13.268
46592W        W11753  38.519  21.654  13.596
46593W        W11754  38.527  17.777   2.688
46594W        W11755   6.971  13.536   3.277
46595W        W11756  41.977  22.107   1.672
46596W        W11757  31.177  14.585  14.337
46597W        W11758  14.820  37.468   3.237
46598W        W11759   1.192  40.006   3.303
46599W        W11760   8.774   6.123   2.386
46600W        W11761   2.397  16.029  14.382
46601W        W11762   2.777  30.440  11.111
46602W        W11763  43.189  17.479  14.716
46603W        W11764  44.523  40.598  13.546
46604W        W11765  35.138  40.884  14.962
46605W        W11766  26.056  20.424   1.820
46606W        W11767   3.971  20.303  13.031
46607W        W11768  41.531  35.874  10.831
46608W        W11769  20.008  10.725  13.887
46609W        W11770  20.170   8.797   1.486
46610W        W11771  43.383  24.203   2.748
46611W        W11772  11.279  14.849  12.134
46612W        W11773  40.732  33.672  12.961
46613W        W11774  13.812  27.385  12.568
46614W        W11775  27.260  18.258  14.418
46615W        W11776  38.018  16.034   4.124
46616W        W11777  11.818  41.299   0.247
46617W        W11778   9.289  18.172  11.489
46618W        W11779  27.561  17.650   4.626
46619W        W11780  16.401  18.203   1.128
46620W        W11781   4.201  38.552   3.936
46621W        W11782   0.035  21.239  13.423
46622W        W11783   0.990  20.188   0.967
46623W        W11784  22.265  27.866  11.225
46624W        W11785  11.336  12.328  13.352
46625W        W11786  44.279  38.047   5.385
46626W        W11787  40.479  33.483  13.459
46627W        W11788  26.235  17.879  13.382
46628W        W11789  40.406  13.893   0.373
46629W        W11790  31.348  40.953  12.653
46630W        W11791  10.276  22.811   4.965
46631W        W11792  39.541   4.613  12.026
46632W        W11793  33.360  38.093   1.923
46633W        W11794  27.194  17.128   0.285
46634W        W11795  11.227  36.809  12.143
46635W        W11796   7.296  26.735  10.539
46636W        W11797   1.228  35.485   4.994
46637W        W11798   9.651  31.538  11.682
46638W        W11799   6.931   6.336   0.361
46639W        W11800   0.775  11.337   9.730
46640W        W11801  11.782   4.189   4.004
46641W        W11802   9.943   7.776   2.713
46642W        W11803  26.934  43.072   3.060
46643W        W11804   6.102  41.413   1.749
46644W        W11805  17.705  19.537  12.712
46645W        W11806  10.146  11.063   1.633
46646W        W11807  36.310   3.694  11.536
46647W        W11808  37.389   6.308  11.543
46648W        W11809  30.185  39.628   1.198
46649W        W11810  16.221  42.793   3.533
46650W        W11811  21.658   1.948  11.608
46651W        W11812   8.794  17.236   4.709
46652W        W11813   7.660  25.263   2.287
46653W        W11814  33.278  42.302  13.983
46654W        W11815  25.461  25.499   2.476
46655W        W11816  26.896  15.006   2.517
46656W        W11817  16.593   6.173  10.786
46657W        W11818  38.704  40.823  10.046
46658W        W11819   6.119  43.107  10.064
46659W        W11820  13.635   0.946   2.790
46660W        W11821  42.705   4.203   1.757
46661W        W11822  28.065  22.682  10.703
46662W        W11823   7.360   4.707   0.702
46663W        W11824  35.394  36.713   0.659
46664W        W11825  42.933  21.425  11.380
46665W        W11826  21.643  16.747   5.654
46666W        W11827   8.795  34.987  14.753
46667W        W11828   8.477  43.936  13.527
46668W        W11829   9.960  20.026  11.067
46669W        W11830  25.522   9.637  10.674
46670W        W11831  36.235  32.901  14.949
46671W        W11832  43.029  33.031  11.102
46672W        W11833  35.972  19.776   2.166
46673W        W11834   2.228   7.828   4.068
46674W        W11835  28.428  25.753  10.784
46675W        W11836  29.590  31.716   3.352
46676W        W11837   0.729  44.175   3.539
46677W        W11838  30.391  44.382  12.351
46678W        W11839  33.378  36.037  11.174
46679W        W11840   2.797  38.421  12.539
46680W        W11841  35.507  40.998  11.549
46681W        W11842   3.724  10.983  13.374
46682W        W11843  38.530  23.091  13.060
46683W        W11844  32.386  20.122   0.951
46684W        W11845   3.660  44.304   9.530
46685W        W11846  17.681  12.044  14.206
46686W        W11847  15.045  44.167   2.908
46687W        W11848  20.339  11.233   2.261
46688W        W11849  40.633  29.807   3.864
46689W        W11850  27.075  42.007   2.458
46690W        W11851  19.648  29.048  14.625
46691W        W11852  18.656  11.394   4.174
46692W        W11853  42.999  17.019  13.346
46693W        W11854  29.324  42.517  10.447
46694W        W11855  38.134   5.548  13.268
46695W        W11856  10.411  13.085   2.031
46696W        W11857   0.492  28.996  14.869
46697W        W11858  37.389  20.606   2.097
46698W        W11859  42.220   9.793  13.017
46699W        W11860  12.672  35.547   2.582
46700W        W11861  32.931  30.982   1.422
46701W        W11862  40.434  18.971   4.250
46702W        W11863   7.800  39.523  12.366
46703W        W11864   2.403  27.606  12.106
46704W        W11865  36.768  40.965   1.964
46705W        W11866  10.181   3.399  12.371
46706W        W11867  16.341   3.841   0.363
46707W        W11868  14.647  31.183  11.733
46708W        W11869  21.496  33.027   0.451
46709W        W11870  36.361  29.299  12.540
46710W        W11871  27.290  42.650  12.505
46711W        W11872   4.380  17.512  11.741
46712W        W11873  32.353  44.402  14.409
46713W        W11874  33.456  31.383  12.957
46714W        W11875  44.001  44.024  10.653
46715W        W11876   9.070  43.869  12.770
46716W        W11877   5.450  36.401  14.806
46717W        W11878   1.863  17.618  14.960
46718W        W11879  12.679  30.854   4.520
46719W        W11880  12.876  41.350   1.029
46720W        W11881  37.483  21.749   1.277
46721W        W11882  25.665  11.038   4.027
46722W        W11883  19.542  24.865  13.791
46723W        W11884  13.204  33.542   0.178
46724W        W11885  28.512  17.195   3.256
46725W        W11886  20.674  43.389  13.461
46726W        W11887  30.907  35.528   2.870
46727W        W11888  17.691  26.801  13.183
46728W        W11889   1.898  44.464   2.335
46729W        W11890  13.804  36.404  12.955
46730W        W11891  34.801  41.981   3.730
46731W        W11892  40.295  32.283   3.675
46732W        W11893  29.537  32.130  10.755
46733W        W11894  26.273   8.437  11.108
46734W        W11895  26.525  33.009  12.436
46735W        W11896  41.583  25.569   4.087
46736W        W11897  25.330   0.973   2.977
46737W        W11898  14.793   7.779  14.284
46738W        W11899  11.298  21.059   3.193
46739W        W11900  42.717  11.080  11.619
46740W        W11901  13.265   0.663   1.743
46741W        W11902  36.126  41.036  13.719
46742W        W11903  42.049  43.791   4.275
46743W        W11904  13.605  23.025   2.874
46744W        W11905   4.351  42.921   4.821
46745W        W11906  41.517   6.240   0.298
46746W        W11907  10.715  27.731  14.000
46747W        W11908  35.040  28.804   0.737
46748W        W11909  26.138   7.944   0.926
46749W        W11910   3.864  32.874  12.881
46750W        W11911  18.659  22.057   1.310
46751W        W11912  41.558   5.420  10.723
46752W        W11913  17.450  10.291  10.038
46753W        W11914  30.501  20.941   2.908
46754W        W11915  31.864   2.432   0.019
46755W        W11916   3.793  21.001  14.418
46756W        W11917  44.962  24.442  13.926
46757W        W11918  30.195  13.698   3.595
46758W        W11919  26.416   3.359   4.567
46759W        W11920  10.208   8.932   0.979
46760W        W11921  13.414  41.010   4.664
46761W        W11922  43.225  33.676   4.976
46762W        W11923  17.755  36.346  13.870
46763W        W11924  19.195   9.588   2.645
46764W        W11925  17.037  27.502  14.258
46765W        W11926  40.308  29.467  10.623
46766W        W11927   9.090  25.749  10.080
46767W        W11928   3.869   9.782   4.904
46768W        W11929  30.796  14.976  14.337
46769W        W11930  12.372  37.916   2.850
46770W        W11931   3.714   9.645  13.811
46771W        W11932   9.632  31.378  14.042
46772W        W11933   4.022  12.586  14.426
46773W        W11934  31.139  15.533   3.671
46774W        W11935   5.173  40.400   1.430
46775W        W11936   2.532  42.319  11.552
46776W        W11937  44.430  32.094  10.301
46777W        W11938  42.731  20.489  12.086
46778W        W11939  36.397  27.210   3.821
46779W        W11940  33.357  29.456   0.472
46780W        W11941  41.214  10.755   4.529
46781W        W11942  13.232  36.506  14.229
46782W        W11943  27.116   1.400  11.991
46783W        W11944  11.792  36.884  13.545
46784W        W11945  27.669   7.748   2.009
46785W        W11946   1.912  21.907   1.734
46786W        W11947  29.742  19.771  11.630
46787W        W11948  16.211   0.413   3.878
46788W        W11949  42.678  37.831  10.198
46789W        W11950  19.291   8.879  14.878
46790W        W11951   0.197  10.580  10.212
46791W        W11952  35.579  13.174   2.775
46792W        W11953  42.833  38.870  13.654
46793W        W11954   1.179  29.486  12.417
46794W        W11955  15.286  41.897  11.558
46795W        W11956   2.321  44.508  13.787
46796W        W11957  36.130  40.984   0.416
46797W        W11958  23.014  23.174   1.252
46798W        W11959  15.159   9.714  14.001
46799W        W11960  31.701  19.253  12.415
46800W        W11961  36.075  30.328  12.544
46801W        W11962   5.794  37.031   0.488
46802W        W11963   4.245  11.856  13.282
46803W        W11964   3.916   0.322   0.430
46804W        W11965  21.697  18.568  13.356
46805W        W11966  28.050   9.305   3.249
46806W        W11967  10.716  35.484   1.176
46807W        W11968   7.428  32.130  11.727
46808W        W11969  12.297  42.623  11.209
46809W        W11970  44.792  20.048  13.974
46810W        W11971  18.958  31.620  13.444
46811W        W11972   6.786  12.189  10.502
46812W        W11973  25.458  30.474   1.007
46813W        W11974   1.169  38.040   3.258
46814W        W11975   6.411  33.917  13.474
46815W        W11976   9.473  23.062   1.990
46816W        W11977  30.259   4.896  10.708
46817W        W11978  17.200  13.682   0.046
46818W        W11979  13.104   5.336   4.851
46819W        W11980   7.242   9.239   1.839
46820W        W11981   1.919  31.926  14.484
46821W        W11982  28.204  28.061  13.442
46822W        W11983   2.786  35.953  13.365
46823W        W11984   7.123  32.142   0.789
46824W        W11985  11.210  25.474  12.502
46825W        W11986  23.676  24.474  10.653
46826W        W11987  21.135  20.022  11.519
46827W        W11988  33.552  16.131  13.377
46828W        W11989   2.961  25.134   2.290
46829W        W11990  12.424  25.855  14.390
46830W        W11991  44.404   4.896   3.679
46831W        W11992  14.289  28.412   2.362
46832W        W11993   8.573  36.431   0.236
46833W        W11994  15.183  11.036   1.917
46834W        W11995  39.056   6.049  11.823
46835W        W11996  34.063  16.162   4.513
46836W        W11997  22.890  26.662   3.740
46837W        W11998  30.385  11.536   4.100
46838W        W11999  12.938   9.377  12.168
46839W        W12000  33.512   3.738   1.214
46840W        W12001  25.652  22.215   0.288
46841W        W12002  21.194  32.274   0.291
46842W        W12003  35.400   6.642  14.855
46843W        W12004  33.658  31.646   1.673
46844W        W12005  13.087  17.492   0.471
46845W        W12006  36.972  33.580  13.525
46846W        W12007  42.939  38.993   0.448
46847W        W12008  10.536  11.822  13.444
46848W        W12009  44.218  38.380   4.990
46849W        W12010  23.972  19.086  13.492
46850W        W12011  35.137  23.010  13.064
46851W        W12012  42.372  40.357  14.041
46852W        W12013  27.047  11.625  12.447
46853W        W12014   2.884   6.696   3.710
46854W        W12015   9.286  26.185  13.943
46855W        W12016  41.097  27.032   0.229
46856W        W12017   5.200  17.549  13.435
46857W        W12018   8.699  33.470   1.145
46858W        W12019  37.552  36.931  11.121
46859W        W12020  42.990  17.758   2.946
46860W        W12021  16.111  32.373   2.628
46861W        W12022  36.363  35.220   3.483
46862W        W12023  23.721  18.195  14.941
46863W        W12024  38.890  29.623   2.381
46864W        W12025  28.686  25.387  11.149
46865W        W12026  40.496   3.355  13.885
46866W        W12027  22.940  43.065  12.600
46867W        W12028  27.832  13.572  10.848
46868W        W12029  15.602   7.819  13.051
46869W        W12030   4.210  10.829  13.424
46870W        W12031  31.865  24.242  12.680
46871W        W12032  29.019  34.574  11.036
46872W        W12033  34.017  43.337   2.364
46873W        W12034  35.841  42.563  12.008
46874W        W12035  41.659  14.272  13.567
46875W        W12036  42.281  37.528  11.164
46876W        W12037  18.521  31.922  12.373
46877W        W12038  21.752  11.597  14.521
46878W        W12039   4.285  33.430   0.235
46879W        W12040  43.823  20.403   2.004
46880W        W12041  13.726  44.181   1.333
46881W        W12042  24.601  36.148  13.166
46882W        W12043  32.342  44.831  14.733
46883W        W12044  35.201  36.042   5.145
46884W        W12045  13.882   1.001  13.466
46885W        W12046  42.032  29.934  14.961
46886W        W12047  33.363  32.988   2.896
46887W        W12048  26.916  15.680  14.515
46888W        W12049   1.941  17.498   0.466
46889W        W12050  43.554  15.961   0.383
46890W        W12051  36.146   4.996   5.044
46891W        W12052  23.048  28.857   1.665
46892W        W12053  28.412  20.233   2.258
46893W        W12054  24.119  43.279  12.911
46894W        W12055  33.514  38.300   9.817
46895W        W12056  11.820  32.022   1.830
46896W        W12057  30.645   2.233  13.499
46897W        W12058  17.755  12.076   3.885
46898W        W12059  11.650  30.207  12.383
46899W        W12060  36.323  34.997  11.541
46900W        W12061  30.161  12.777   3.794
46901W        W12062  22.666  10.351   0.778
46902W        W12063  24.570  32.406  13.455
46903W        W12064  10.155  15.868   1.328
46904W        W12065  31.288  21.536   4.188
46905W        W12066  33.555  29.636   1.388
46906W        W12067  41.282  14.794   2.848
46907W        W12068  30.842  30.257  13.493
46908W        W12069  23.667  23.075  11.858
46909W        W12070  17.536  24.217  11.601
46910W        W12071  42.965  20.911  11.276
46911W        W12072  12.896  31.148   4.093
46912W        W12073   3.252  27.035   1.427
46913W        W12074  27.920  23.785  13.804
46914W        W12075  39.560  25.089   4.649
46915W        W12076  14.646   9.417   1.080
46916W        W12077  36.626  40.922   0.314
46917W        W12078  17.532  12.195  12.472
46918W        W12079  19.558  34.897   4.571
46919W        W12080  39.976  18.781  10.962
46920W        W12081  26.200   1.387  12.875
46921W        W12082  35.578  29.619   3.540
46922W        W12083  16.541  10.355  10.585
46923W        W12084  13.597  42.694  10.064
46924W        W12085  18.654  12.906   2.847
46925W        W12086  39.306   0.683   1.941
46926W        W12087  34.526  40.461  14.724
46927W        W12088  41.234  16.132  10.664
46928W        W12089  38.480  37.909  12.317
46929W        W12090  13.259  17.629  12.955
46930W        W12091   0.175  43.897  12.424
46931W        W12092   0.134  33.910  10.520
46932W        W12093   6.617  25.822   0.206
46933W        W12094  12.384   5.983   1.975
46934W        W12095  38.259   4.458   2.859
46935W        W12096   3.462  44.518  14.589
46936W        W12097   0.431  36.988  11.660
46937W        W12098  27.234  35.954  10.734
46938W        W12099  17.730  13.551  10.969
46939W        W12100  40.562  17.603   2.421
46940W        W12101  14.156   7.132   0.915
46941W        W12102  40.040  38.348   4.547
46942W        W12103  31.519  11.856   2.335
46943W        W12104   1.199  37.819   1.891
46944W        W12105  12.872  32.133   1.280
46945W        W12106   3.995  29.076   3.070
46946W        W12107   1.774  41.979  13.110
46947W        W12108  41.721  39.347  12.414
46948W        W12109  20.499  18.648   1.909
46949W        W12110  39.691  27.614  11.190
46950W        W12111  43.877  28.364  11.042
46951W        W12112   4.868   0.343   3.414
46952W        W12113  28.476  21.585  11.124
46953W        W12114  38.412  20.486   3.152
46954W        W12115  27.337  42.739   3.042
46955W        W12116  13.581   2.180   1.569
46956W        W12117  17.297  38.586  13.371
46957W        W12118  20.235  36.062  13.471
46958W        W12119  13.878  12.737   1.896
46959W        W12120  44.560  31.045  11.951
46960W        W12121   7.201  23.337  12.108
46961W        W12122  26.962  31.381   1.162
46962W        W12123  11.128   3.220   2.306
46963W        W12124  18.571   6.972  11.611
46964W        W12125  11.502  11.442   0.022
46965W        W12126  37.414  43.325  13.002
46966W        W12127   4.907  24.549   5.472
46967W        W12128  29.886  32.369   4.687
46968W        W12129  12.719  29.169   3.111
46969W        W12130  32.441  35.600  12.233
46970W        W12131  43.405  17.703   4.189
46971W        W12132  34.789  10.690   3.256
46972W        W12133  21.037  40.013  10.983
46973W        W12134   9.778  21.051   0.326
46974W        W12135  15.407  42.894  14.278
46975W        W12136  44.313  38.808  12.961
46976W        W12137  22.742  10.649  10.105
46977W        W12138  15.056  31.480   1.249
46978W        W12139  33.451   6.125   0.947
46979W        W12140  21.765  43.995   3.673
46980W        W12141  12.053  22.786  13.336
46981W        W12142  20.770  32.120  11.152
46982W        W12143  37.079  38.770  14.544
46983W        W12144  27.525  22.003  11.751
46984W        W12145  28.111  40.093  13.137
46985W        W12146  44.668   1.993  13.343
46986W        W12147  38.412  18.151  10.477
46987W        W12148  13.669  35.382   2.801
46988W        W12149   2.483  42.940  10.735
46989W        W12150  29.262   9.776  14.780
46990W        W12151  19.758  39.987   0.687
46991W        W12152  30.471  22.824   1.851
46992W        W12153  26.871  32.338  13.373
46993W        W12154  13.340  24.291  12.168
46994W        W12155  11.732  37.568  13.072
46995W        W12156  18.541  32.363  13.482
46996W        W12157  22.055  39.121  11.032
46997W        W12158  14.912  38.912  14.282
46998W        W12159  10.135  21.447   0.264
46999W        W12160  25.079  26.132  14.496
47000W        W12161  39.273  18.147  14.299
47001W        W12162  43.465   3.804  12.351
47002W        W12163   8.838  22.142  14.133
47003W        W12164  37.194  41.538  12.986
47004W        W12165  25.179  39.371  13.345
47005W        W12166   8.074  12.812   2.334
47006W        W12167  13.828   7.860   1.486
47007W        W12168  18.271  14.201   1.357
47008W        W12169   6.265   0.019  11.154
47009W        W12170  27.212   4.457  11.454
47010W        W12171   3.539  10.169   4.981
47011W        W12172   6.941  41.932   3.789
47012W        W12173  30.402  11.044   3.244
47013W        W12174  35.584   4.883  11.535
47014W        W12175  38.225  44.191  14.935
47015W        W12176   8.154  38.143   3.759
47016W        W12177  40.369  33.215   3.351
47017W        W12178  34.519   5.592  13.812
47018W        W12179  39.153  42.511  10.327
47019W        W12180  37.007  36.936  14.501
47020W        W12181  22.944  40.260  11.277
47021W        W12182  24.908  17.390  14.361
47022W        W12183   4.818  34.648  14.349
47023W        W12184  40.915   9.055  11.399
47024W        W12185   1.710  24.514   4.862
47025W        W12186  19.923   4.499  13.380
47026W        W12187  17.847  32.620   0.214
47027W        W12188  33.914  23.279  13.511
47028W        W12189  40.646  33.544  11.672
47029W        W12190  12.575  31.924  13.460
47030W        W12191  23.048   6.156   1.009
47031W        W12192  32.362  12.397   2.817
47032W        W12193  27.431   2.849   4.142
47033W        W12194   3.337  10.158  12.269
47034W        W12195  29.688  19.563   0.781
47035W        W12196  24.132   1.016  11.149
47036W        W12197  28.627  26.982   1.401
47037W        W12198   6.479   0.289  14.743
47038W        W12199  13.104  24.451  12.800
47039W        W12200  26.618  30.529  11.194
47040W        W12201  33.106  25.903  13.568
47041W        W12202  33.048   3.235  13.998
47042W        W12203  42.412  38.455  11.202
47043W        W12204   1.445   3.415  11.385
47044W        W12205  36.975  27.476  10.756
47045W        W12206   6.884  17.311   0.883
47046W        W12207  12.194  34.723  10.965
47047W        W12208  20.615  16.901  10.159
47048W        W12209  24.050  15.341  13.593
47049W        W12210  29.255  26.724   0.231
47050W        W12211  36.790  38.148   0.921
47051W        W12212  28.136  14.382  11.923
47052W        W12213  42.125   0.712   0.050
47053W        W12214  43.431  39.592   4.041
47054W        W12215   2.800  31.352   0.944
47055W        W12216  36.555   4.780   4.403
47056W        W12217  38.914  43.020   3.604
47057W        W12218  15.148  23.205   3.732
47058W        W12219   7.827  38.449   2.926
47059W        W12220  41.581   5.906  12.933
47060W        W12221   3.406  21.636  13.913
47061W        W12222  23.263  27.600  12.897
47062W        W12223  37.452  22.145   4.793
47063W        W12224  14.465   9.667  11.176
47064W        W12225  39.270  13.870   2.162
47065W        W12226  26.033   8.675   3.083
47066W        W12227  10.790  31.087   3.395
47067W        W12228  30.437  21.343   1.398
47068W        W12229  37.523  14.105  12.883
47069W        W12230  16.208   6.509  14.789
47070W        W12231  44.262  15.231  13.897
47071W        W12232  23.101  28.464  13.862
47072W        W12233  33.830   9.824   3.888
47073W        W12234  35.064   8.715   4.199
47074W        W12235  16.818  15.064  14.316
47075W        W12236  13.752  39.957  14.661
47076W        W12237  26.904   4.179  11.160
47077W        W12238  42.412  26.835  10.484
47078W        W12239  18.334  25.469  13.336
47079W        W12240  15.914  13.879   0.479
47080W        W12241   9.704  31.566  13.533
47081W        W12242  33.362  11.762   0.479
47082W        W12243   3.767  32.690   0.267
47083W        W12244  36.194  39.525   2.678
47084W        W12245  29.853  10.084   1.712
47085W        W12246  36.604  43.908  13.986
47086W        W12247  10.774  17.274   3.111
47087W        W12248  39.374  37.629   2.173
47088W        W12249  17.432  15.441   4.593
47089W        W12250  14.672   5.485  11.219
47090W        W12251  35.050  16.232  12.906
47091W        W12252  37.562   4.101   4.515
47092W        W12253  20.443  21.604   3.804
47093W        W12254  29.991  14.655  13.986
47094W        W12255  44.282  18.337  10.794
47095W        W12256   3.908  12.777   3.282
47096W        W12257  14.632  21.227  10.734
47097W        W12258  36.316  23.494  12.490
47098W        W12259   7.088  18.826   2.203
47099W        W12260  14.803  29.056  13.396
47100W        W12261   1.572  22.061  14.606
47101W        W12262  35.093  30.944  11.948
47102W        W12263  10.262  34.746   1.860
47103W        W12264   5.280  27.435  11.229
47104W        W12265  21.293  19.283  11.926
47105W        W12266  41.031  11.150   2.386
47106W        W12267  37.558   6.631  11.167
47107W        W12268  19.132  41.360  12.145
47108W        W12269  34.635   1.753  13.972
47109W        W12270  24.998  41.519  14.300
47110W        W12271  18.650  23.968  13.819
47111W        W12272  24.472  30.934  14.370
47112W        W12273  31.170   1.025  14.111
47113W        W12274  10.309  38.555  10.697
47114W        W12275  34.224  12.214   1.349
47115W        W12276  29.207   8.222  13.004
47116W        W12277  14.072  26.085  10.714
47117W        W12278  43.137   9.157   4.167
47118W        W12279  41.504  42.595   4.367
47119W        W12280  37.026  12.818   3.208
47120W        W12281  43.753   1.757  14.509
47121W        W12282  38.875  35.003   1.362
47122W        W12283  29.034  16.029   1.414
47123W        W12284  29.560  32.896   4.090
47124W        W12285  29.895  26.443   2.823
47125W        W12286  42.408  37.262  12.929
47126W        W12287  36.615  12.669  11.601
47127W        W12288  26.529  38.492  13.112
47128W        W12289  21.055  14.721   3.354
47129W        W12290  16.302  25.002   2.640
47130W        W12291  26.289   5.288   3.186
47131W        W12292  11.711  24.535  10.576
47132W        W12293   7.913  36.871   0.475
47133W        W12294  39.802  10.781   0.809
47134W        W12295  15.579  17.576  12.276
47135W        W12296  28.751  34.599   4.087
47136W        W12297  13.201   3.911  14.894
47137W        W12298  31.813  42.307  13.657
47138W        W12299  14.350  15.827  11.159
47139W        W12300  30.911  23.664  14.881
47140W        W12301  34.989  25.256  13.557
47141W        W12302  26.135  30.044   1.449
47142W        W12303   9.158  34.997  12.016
47143W        W12304  13.562  18.436   3.817
47144W        W12305  18.592   8.202  12.981
47145W        W12306  40.347   0.815   0.183
47146W        W12307   6.243  30.424   3.138
47147W        W12308  40.576   1.734   4.549
47148W        W12309  10.701  20.760  14.038
47149W        W12310  28.532   4.639  11.479
47150W        W12311  16.751   8.263   4.727
47151W        W12312  44.090   5.457   1.700
47152W        W12313  35.945  23.250   0.413
47153W        W12314  43.212  40.589   4.154
47154W        W12315  10.589  10.938   1.318
47155W        W12316   8.658  11.381  12.535
47156W        W12317  19.536  26.983  12.341
47157W        W12318  43.968  32.809   4.182
47158W        W12319  17.200  37.617  12.597
47159W        W12320   9.535   4.922   2.755
47160W        W12321  20.836  31.473  14.857
47161W        W12322  10.419  32.297   2.267
47162W        W12323  19.634   3.924   2.142
47163W        W12324  18.248   3.577  14.073
47164W        W12325  15.008  44.446  13.347
47165W        W12326  27.444   2.312  11.582
47166W        W12327  39.061  18.535  12.472
47167W        W12328  17.153   4.462   0.344
47168W        W12329   9.088  18.965   3.663
47169W        W12330  40.823  38.948   2.038
47170W        W12331  12.637  15.735   3.021
47171W        W12332  39.362  27.973   1.908
47172W        W12333   6.966  37.527   3.768
47173W        W12334  31.231  37.990  14.505
47174W        W12335  24.468  42.961  14.986
47175W        W12336   5.330  11.345   2.442
47176W        W12337  36.755   5.444  11.593
47177W        W12338   1.281  37.309   1.590
47178W        W12339  24.989  37.431   4.180
47179W        W12340  36.882  35.388   1.375
47180W        W12341  16.726  24.737   1.643
47181W        W12342  32.743  30.442  11.077
47182W        W12343  28.116  16.915  12.125
47183W        W12344   8.274  38.305  13.727
47184W        W12345   7.465  33.643  13.633
47185W        W12346   6.270  20.171  12.967
47186W        W12347  43.981   7.192   3.752
47187W        W12348  13.288  43.747   3.468
47188W        W12349   5.909   2.894   0.500
47189W        W12350   7.088  15.659   0.372
47190W        W12351  39.702  19.314   3.382
47191W        W12352  15.574  31.352  11.643
47192W        W12353  39.690  16.477  13.984
47193W        W12354  40.302  14.102  13.222
47194W        W12355  21.286   8.299  10.717
47195W        W12356   6.873  15.555  12.936
47196W        W12357   7.503  41.519  13.031
47197W        W12358  37.756  41.464   1.689
47198W        W12359  26.855  27.674   1.851
47199W        W12360   2.111   2.237   1.693
47200W        W12361  37.321  24.764   4.130
47201W        W12362   4.781  29.000  12.989
47202W        W12363  16.065  34.948  10.780
47203W        W12364   5.462   2.863  14.764
47204W        W12365  30.183   3.111  11.860
47205W        W12366  19.301   7.653   1.699
47206W        W12367  19.103  12.327  13.406
47207W        W12368   6.880  31.784  10.950
47208W        W12369   8.390  33.938   1.602
47209W        W12370  18.503  38.491   2.384
47210W        W12371   4.871   0.210   0.958
47211W        W12372  32.533   7.915  11.310
47212W        W12373   6.060  10.565  11.702
47213W        W12374  34.583  40.861   4.994
47214W        W12375  31.369  16.581  14.968
47215W        W12376   9.173   5.172  13.202
47216W        W12377  15.195  40.297   0.864
47217W        W12378   8.353  44.705   3.918
47218W        W12379   2.282  10.378  12.427
47219W        W12380   0.296   6.785   4.548
47220W        W12381  26.428  42.383  13.429
47221W        W12382  39.005   1.466   3.372
47222W        W12383  29.421  28.880   1.909
47223W        W12384  24.260  42.745  13.819
47224W        W12385   8.180  24.018  10.496
47225W        W12386  17.147  12.675  11.674
47226W        W12387  27.570  21.241   1.851
47227W        W12388  37.382   5.813   0.489
47228W        W12389  31.145  40.490  14.789
47229W        W12390   3.272  17.152  13.333
47230W        W12391  10.148   6.956   2.168
47231W        W12392  13.038  28.956   0.909
47232W        W12393   4.308  23.178  14.295
47233W        W12394  35.062  15.597  13.924
47234W        W12395  29.427  23.786  14.845
47235W        W12396   6.715  20.906  12.702
47236W        W12397  26.601  42.822   3.363
47237W        W12398  36.826  18.253  11.541
47238W        W12399  19.329  25.638  12.614
47239W        W12400  42.446  14.775  10.504
47240W        W12401   4.299  26.109   1.301
47241W        W12402  42.842   2.063  10.327
47242W        W12403  41.942  31.124   0.737
47243W        W12404  21.986  38.840  11.469
47244W        W12405  29.635   5.680   4.718
47245W        W12406   0.397   9.461   2.232
47246W        W12407  13.967  21.564  11.529
47247W        W12408  29.028   2.284  13.903
47248W        W12409  17.199  24.592  12.654
47249W        W12410  29.331  35.964   1.387
47250W        W12411  29.194  19.122   3.815
47251W        W12412  35.423  21.858   0.232
47252W        W12413  31.990  15.542   2.120
47253W        W12414  38.395  30.802   1.016
47254W        W12415   6.559  18.645   2.117
47255W        W12416  22.775  19.950   5.065
47256W        W12417  11.248  27.906   0.284
47257W        W12418  24.718  22.546   0.414
47258W        W12419  33.945  39.869  14.352
47259W        W12420   8.664  17.787   1.010
47260W        W12421   5.028  12.665   4.034
47261W        W12422  11.709  20.364  10.605
47262W        W12423  26.624  35.180   0.370
47263W        W12424   7.826  34.642   4.103
47264W        W12425   9.488  36.159  11.578
47265W        W12426  17.696  31.883  14.946
47266W        W12427  17.582  30.171   3.224
47267W        W12428  16.558  12.666  13.940
47268W        W12429  21.768  11.202  12.052
47269W        W12430  21.459  41.951   0.390
47270W        W12431  18.580  11.151  13.568
47271W        W12432  39.641   3.022  13.006
47272W        W12433  33.706  12.248  13.416
47273W        W12434  41.595  28.339   0.755
47274W        W12435   9.267  37.472   4.625
47275W        W12436   9.816   8.087   3.127
47276W        W12437  26.564  18.368   3.670
47277W        W12438  26.142  11.319   3.688
47278W        W12439  37.870  10.360  14.395
47279W        W12440  17.120  37.000   0.063
47280W        W12441   8.957  17.293  14.042
47281W        W12442  33.568  20.125  13.632
47282W        W12443  34.472   3.569  14.804
47283W        W12444  40.322  34.516   1.915
47284W        W12445  25.867  19.465  10.069
47285W        W12446  35.036  27.110  13.778
47286W        W12447  21.967  17.628   4.344
47287W        W12448  10.636  16.233  11.903
47288W        W12449   8.675  43.254   1.374
47289W        W12450   0.326  42.768  14.612
47290W        W12451  17.100  14.645   4.116
47291W        W12452  12.086  26.753  11.655
47292W        W12453  26.613  23.788  14.430
47293W        W12454  37.884  28.131  12.474
47294W        W12455  21.114  15.021  12.817
47295W        W12456  21.050  33.034   4.816
47296W        W12457  17.742  15.566   0.387
47297W        W12458   8.411  39.570   3.829
47298W        W12459  20.486  29.658   0.920
47299W        W12460  36.811   7.312   1.325
47300W        W12461  12.056   6.879   0.667
47301W        W12462  23.993  24.524   1.900
47302W        W12463  36.421  19.505  13.851
47303W        W12464  10.473  35.657   0.270
47304W        W12465  44.205  24.196   2.331
47305W        W12466  25.129   3.825  10.599
47306W        W12467  33.508   1.344   2.955
47307W        W12468  21.730  16.692   1.611
47308W        W12469  36.625  19.079   2.490
47309W        W12470  27.603  21.847  11.272
47310W        W12471  12.289   1.387  12.465
47311W        W12472  15.687  24.223   2.662
47312W        W12473  36.575   4.177  10.684
47313W        W12474  18.045   9.255  13.368
47314W        W12475  25.461   1.702  13.535
47315W        W12476  20.795  26.318  10.493
47316W        W12477  30.834  17.521  14.842
47317W        W12478   3.514  20.110  11.798
47318W        W12479  23.423  14.495  11.091
47319W        W12480  25.708  32.045  12.061
47320W        W12481  15.803   4.249  14.574
47321W        W12482  21.672  18.753   0.232
47322W        W12483  37.321  37.101   1.803
47323W        W12484   7.759   5.439  10.764
47324W        W12485   9.827   5.542  14.363
47325W        W12486  41.767   6.940   1.231
47326W        W12487   7.603  32.185   0.992
47327W        W12488   8.331   8.611   4.234
47328W        W12489  28.892  33.693  11.037
47329W        W12490   0.506  19.169  13.530
47330W        W12491  26.866  26.021  13.394
47331W        W12492  28.950  30.175  13.629
47332W        W12493  16.611   4.758  11.625
47333W        W12494  28.581  22.603  11.972
47334W        W12495  28.981  17.206  14.955
47335W        W12496  33.998  21.201   3.261
47336W        W12497  14.523  10.771  11.569
47337W        W12498   1.870  23.011  12.537
47338W        W12499  33.063  12.624  11.607
47339W        W12500  17.478  28.548   1.036
47340W        W12501  41.259  12.717   2.518
47341W        W12502  18.271  20.002   1.689
47342W        W12503  39.345  44.244   1.794
47343W        W12504  28.211  25.624  13.325
47344W        W12505   6.945  18.322   2.278
47345W        W12506  27.432   5.565  13.854
47346W        W12507  38.342  31.152  13.738
47347W        W12508  21.212  38.373  14.748
47348W        W12509   3.753  31.235   3.891
47349W        W12510  26.194  41.887   2.645
47350W        W12511  40.400  22.542   2.252
47351W        W12512  17.579  39.047   0.504
47352W        W12513  34.020   0.398   1.466
47353W        W12514  36.628  44.869   4.538
47354W        W12515  16.518   0.013   3.704
47355W        W12516  28.909  13.301   4.740
47356W        W12517  15.238   2.186  11.054
47357W        W12518  13.530  31.700   1.315
47358W        W12519  38.978   1.291  13.767
47359W        W12520  19.468  27.665   1.774
47360W        W12521   3.432   5.667   0.339
47361W        W12522  30.683   2.919   0.599
47362W        W12523  35.884  14.866   2.635
47363W        W12524  19.279  40.042   1.861
47364W        W12525   7.444  16.104  11.182
47365W        W12526  24.940   7.156   1.523
47366W        W12527   9.226  27.297   9.907
47367W        W12528  13.220   6.359  10.029
47368W        W12529  18.451  15.630  12.578
47369W        W12530  14.802  10.370  14.860
47370W        W12531  36.924  25.690   2.355
47371W        W12532  40.935   9.524  14.607
47372W        W12533  24.933  40.129  13.785
47373W        W12534  27.819  44.428   3.934
47374W        W12535  12.132   8.412  12.994
47375W        W12536   2.324  31.108   4.045
47376W        W12537  29.941  31.497   2.273
47377W        W12538  13.779  31.567   2.771
47378W        W12539  26.038  39.263  12.661
47379W        W12540  29.533  21.464   4.187
47380W        W12541  34.494  35.357   4.195
47381W        W12542   7.726  27.618  12.116
47382W        W12543  36.892  33.118   4.007
47383W        W12544   2.522  22.361   0.422
47384W        W12545  31.460  17.364   2.866
47385W        W12546  21.041   2.137  10.733
47386W        W12547   8.029   2.941  11.337
47387W        W12548  41.525  36.398  10.894
47388W        W12549  39.008   8.976  14.294
47389W        W12550  13.879   6.203   2.746
47390W        W12551   0.862  10.417   0.671
47391W        W12552  35.123  34.293   2.857
47392W        W12553   8.350  14.683   0.705
47393W        W12554   1.478  44.761  11.618
47394W        W12555  38.288   0.847   2.705
47395W        W12556  32.442  37.431   3.189
47396W        W12557   0.782   0.534  12.971
47397W        W12558  25.229  16.129  14.815
47398W        W12559  25.422  18.196  11.511
47399W        W12560   2.246  39.963   3.226
47400W        W12561  28.935  42.086   3.582
47401W        W12562  25.051  25.626  14.607
47402W        W12563   0.416   0.411   2.233
47403W        W12564  30.959   7.854   1.629
47404W        W12565  39.348  26.508   1.918
47405W        W12566  43.048  17.292   2.256
47406W        W12567  24.264  40.491  14.316
47407W        W12568  17.830   0.649   1.927
47408W        W12569  12.742  16.810  12.524
47409W        W12570   9.831   1.886  10.377
47410W        W12571  19.986  26.085  13.144
47411W        W12572  26.059  16.682  11.393
47412W        W12573  32.622  22.813   0.538
47413W        W12574  20.137  29.674   4.601
47414W        W12575  40.441   4.532   3.749
47415W        W12576  29.746   1.706  14.843
47416W        W12577  28.679  12.914  12.659
47417W        W12578  33.504  39.458  11.801
47418W        W12579   8.385   9.292  11.582
47419W        W12580  20.224   3.551  12.534
47420W        W12581  21.726  44.469   0.904
47421W        W12582   2.341  35.885   3.396
47422W        W12583  14.669   1.804   3.891
47423W        W12584  40.835  36.516   0.239
47424W        W12585  28.875  39.996  12.014
47425W        W12586  34.138  29.065  10.945
47426W        W12587   0.790  26.676  11.108
47427W        W12588  35.989  41.837  12.495
47428W        W12589  23.942   3.743  11.113
47429W        W12590  35.397  33.934  11.548
47430W        W12591  21.486  11.256   1.325
47431W        W12592  35.684  21.841   3.301
47432W        W12593  26.264  42.351  14.082
47433W        W12594   2.686  36.400  10.646
47434W        W12595  21.735  12.758   0.901
47435W        W12596  35.836  18.628   3.721
47436W        W12597   4.526  16.152   3.963
47437W        W12598  17.646  26.263  14.376
47438W        W12599  36.887  36.054  14.651
47439W        W12600  27.499  16.579   4.711
47440W        W12601  42.864  13.115   0.865
47441W        W12602  39.284  40.293   1.778
47442W        W12603  38.377  31.363   1.708
47443W        W12604  14.608  40.576  14.156
47444W        W12605  41.708   2.423   4.928
47445W        W12606  30.854   2.818   4.615
47446W        W12607  25.637  31.939  10.716
47447W        W12608  25.029  11.588  13.197
47448W        W12609   6.574  22.800  11.159
47449W        W12610   5.672  29.950  13.918
47450W        W12611  31.004  36.338  12.098
47451W        W12612   4.701  36.021   5.009
47452W        W12613   4.119  23.713  12.659
47453W        W12614  41.817  44.393  14.297
47454W        W12615  37.315  25.019  14.073
47455W        W12616  29.765  39.828   3.290
47456W        W12617  39.603  30.007   2.728
47457W        W12618  12.345  19.757   4.748
47458W        W12619   8.245  22.498   3.037
47459W        W12620  20.353  31.259  10.672
47460W        W12621  12.250   2.754   4.561
47461W        W12622  42.422  10.848   2.775
47462W        W12623  43.397   9.341  10.791
47463W        W12624   0.799   4.904  14.914
47464W        W12625  13.866   2.777  13.046
47465W        W12626  24.570  42.855  13.401
47466W        W12627  33.645  19.157   0.766
47467W        W12628  41.120  12.794  13.321
47468W        W12629  32.531  12.371   1.646
47469W        W12630  39.877  33.802   1.013
47470W        W12631  24.574   5.828  11.037
47471W        W12632  38.851  32.943   1.672
47472W        W12633  43.563  44.962   3.710
47473W        W12634  35.470  33.913  10.573
47474W        W12635  20.095  13.640   1.560
47475W        W12636  22.203  13.693   3.663
47476W        W12637  34.574   7.422   3.897
47477W        W12638   3.019  39.321  14.028
47478W        W12639  38.609  30.641  14.386
47479W        W12640   7.995  32.111   4.165
47480W        W12641   3.499  14.804  11.641
47481W        W12642   2.811  43.897   4.646
47482W        W12643  38.951  22.113   4.274
47483W        W12644  41.868  43.203  14.928
47484W        W12645  38.481  15.384  14.983
47485W        W12646  31.939  42.290   0.862
47486W        W12647  34.386   3.876   3.684
47487W        W12648  34.929   9.684  11.564
47488W        W12649  40.667  26.577   1.536
47489W        W12650  33.580  40.394  10.715
47490W        W12651  27.333  27.926   1.839
47491W        W12652  44.741   8.186   2.899
47492W        W12653  43.685  11.156   3.786
47493W        W12654  41.816  43.183  11.620
47494W        W12655   3.830   9.159  13.971
47495W        W12656   5.168  31.108   2.833
47496W        W12657  13.366   0.995  12.944
47497W        W12658  29.635  10.521  12.074
47498W        W12659   8.667  32.631   1.225
47499W        W12660   6.913  34.996   0.854
47500W        W12661  22.047  43.494  12.365
47501W        W12662  39.359  28.439   2.420
47502W        W12663   8.604  21.442  12.589
47503W        W12664  31.355  34.578  12.096
47504W        W12665  14.646  44.723  11.543
47505W        W12666  14.098  14.298  12.017
47506W        W12667   8.408   6.763  10.913
47507W        W12668   9.894  38.391   0.826
47508W        W12669  14.767  43.934  12.461
47509W        W12670  11.791   2.949   4.673
47510W        W12671  18.762  43.744  14.845
47511W        W12672  36.859   4.445  13.373
47512W        W12673  29.977  10.637  14.932
47513W        W12674  12.262  22.257  12.529
47514W        W12675   8.904  14.225  11.198
47515W        W12676  43.009  43.935   4.078
47516W        W12677  20.656  32.177   1.392
47517W        W12678  34.267  10.573  13.472
47518W        W12679   8.848  21.003   1.280
47519W        W12680  37.838  38.002  14.944
47520W        W12681  12.224  27.200   1.459
47521W        W12682  22.604  26.836  12.657
47522W        W12683  41.417  15.097  11.581
47523W        W12684   9.789  11.612   0.362
47524W        W12685  25.984   5.625  14.485
47525W        W12686  20.640  43.128   4.994
47526W        W12687   2.930  21.224  10.992
47527W        W12688  29.013   0.333   3.910
47528W        W12689  26.937  40.817   1.546
47529W        W12690   2.947  43.889  10.720
47530W        W12691  41.183   0.297   4.149
47531W        W12692  40.321  43.322   1.602
47532W        W12693  27.998  21.020   1.621
47533W        W12694  40.755  40.295   0.283
47534W        W12695  43.390   0.050   2.783
47535W        W12696  23.167  17.653   2.439
47536W        W12697  25.575  34.386  14.755
47537W        W12698  31.759   3.762  14.707
47538W        W12699  13.057  19.676   1.830
47539W        W12700  23.628  31.472   2.247
47540W        W12701   8.456  33.674  13.528
47541W        W12702  40.445  39.356   3.157
47542W        W12703  34.845  22.618  11.590
47543W        W12704  41.019  34.117  10.775
47544W        W12705   3.766   8.576   3.830
47545W        W12706  39.986  10.721  13.072
47546W        W12707  15.493   0.933   3.668
47547W        W12708  10.907   2.669  10.842
47548W        W12709  16.104  17.316   3.687
47549W        W12710  27.515  44.512  14.825
47550W        W12711  39.704  37.088   1.445
47551W        W12712  19.047  14.337  13.914
47552W        W12713  30.856   2.050   4.102
47553W        W12714  26.996  18.124   3.714
47554W        W12715   5.861  32.918  11.637
47555W        W12716  20.252  13.307  14.444
47556W        W12717  22.544  39.593   0.787
47557W        W12718  27.481   8.250  12.521
47558W        W12719  35.531  44.684   3.211
47559W        W12720  17.264  18.815   1.288
47560W        W12721  42.001  17.075   4.064
47561W        W12722  17.286   7.177  14.462
47562W        W12723  13.534  36.558   4.655
47563W        W12724  27.857  29.045   0.268
47564W        W12725   9.364  27.481  13.505
47565W        W12726  26.165  16.597   2.353
47566W        W12727  34.183  12.318   3.111
47567W        W12728  10.336  14.845   1.362
47568W        W12729  41.241  37.907  11.635
47569W        W12730   6.261  11.245  12.514
47570W        W12731  10.360  12.699  11.508
47571W        W12732   3.973  12.406   0.465
47572W        W12733   8.780  19.115  11.130
47573W        W12734  32.163   8.779  14.890
47574W        W12735  28.603  31.807  13.418
47575W        W12736  16.793  27.057  14.493
47576W        W12737  39.088  37.788  11.139
47577W        W12738  40.041  11.618  13.224
47578W        W12739  23.245  27.499   1.580
47579W        W12740  10.807  18.198   2.372
47580W        W12741  36.332  33.904  12.932
47581W        W12742  38.935  20.234   3.963
47582W        W12743  29.550  44.428  10.674
47583W        W12744  28.001   3.437   4.559
47584W        W12745  31.681   1.190   0.373
47585W        W12746  18.416  19.040   1.940
47586W        W12747  36.003  34.847   3.656
47587W        W12748   4.187  17.011  12.071
47588W        W12749  42.975  41.656  14.751
47589W        W12750  38.044  31.721   3.680
47590W        W12751   7.621  27.086   0.940
47591W        W12752   3.311  36.722  13.814
47592W        W12753   0.333  31.392  14.792
47593W        W12754  38.478  12.702  14.923
47594W        W12755  30.955  14.413   3.032
47595W        W12756   5.904  28.087  14.581
47596W        W12757  37.129   3.360  12.891
47597W        W12758   0.118  34.855   2.707
47598W        W12759  25.585  36.379   4.507
47599W        W12760  43.765  12.308   4.637
47600W        W12761  28.410  12.019  14.496
47601W        W12762  10.307  37.438   4.725
47602W        W12763  36.736  15.228   2.848
47603W        W12764   7.312  23.630   0.373
47604W        W12765   0.512  20.985   4.618
47605W        W12766   0.760  21.675  13.137
47606W        W12767  31.490  27.298  11.213
47607W        W12768  44.325  23.730  10.609
47608W        W12769   4.800   6.542  13.026
47609W        W12770   3.202  20.485   0.881
47610W        W12771   6.500  21.236  10.797
47611W        W12772  37.765  41.032  12.536
47612W        W12773  30.007  33.604  12.054
47613W        W12774   5.211   1.422   3.792
47614W        W12775  28.735  18.117  14.521
47615W        W12776   0.568   7.693  14.319
47616W        W12777  10.775  39.482   3.732
47617W        W12778  42.421  43.672  12.068
47618W        W12779  15.170  21.544   0.410
47619W        W12780  11.573  17.557   1.370
47620W        W12781   2.804  37.756   0.917
47621W        W12782  16.989  15.554   3.167
47622W        W12783  44.903  13.655   3.493
47623W        W12784  41.275   5.225  11.114
47624W        W12785  34.146  32.468  10.588
47625W        W12786  30.886  40.175  14.436
47626W        W12787   6.933   7.828   2.306
47627W        W12788   3.613  26.612   3.049
47628W        W12789  36.805  21.354   1.921
47629W        W12790  13.916   7.749   2.461
47630W        W12791  30.725  13.817   0.342
47631W        W12792  22.149  15.436  11.557
47632W        W12793  24.794  31.104   0.269
47633W        W12794  29.901  44.166   2.708
47634W        W12795  41.343  15.552   2.448
47635W        W12796  33.256  42.273   1.339
47636W        W12797  11.883  41.252   4.407
47637W        W12798  12.328  10.490   0.362
47638W        W12799  29.987   7.048   0.710
47639W        W12800  21.990  11.110   4.604
47640W        W12801  25.306  33.066   0.390
47641W        W12802  35.044  44.855   0.824
47642W        W12803  13.359  13.218   0.830
47643W        W12804  37.926  24.698   4.821
47644W        W12805  33.674  19.079  10.832
47645W        W12806  31.156  33.075  12.517
47646W        W12807  35.931  19.490   3.012
47647W        W12808  13.459  19.580   1.291
47648W        W12809  18.090  31.894   3.560
47649W        W12810  21.182  37.365   2.400
47650W        W12811   2.381   3.268   0.441
47651W        W12812  39.825  14.757   1.027
47652W        W12813  44.903  40.289  12.839
47653W        W12814  21.519  22.324   1.749
47654W        W12815  33.077  14.104   2.987
47655W        W12816  23.793  36.992  13.503
47656W        W12817  38.111   7.399  10.311
47657W        W12818   1.892  15.800   2.288
47658W        W12819  27.491  34.648   0.594
47659W        W12820   3.229  25.166  14.835
47660W        W12821  24.961  34.977  10.980
47661W        W12822  42.002  19.189  14.508
47662W        W12823  36.429  30.186   2.373
47663W        W12824  38.889  42.841  12.434
47664W        W12825  12.593  38.730   1.397
47665W        W12826   0.936   2.917   0.125
47666W        W12827  37.605  26.416  12.255
47667W        W12828  28.913  11.751  10.485
47668W        W12829  16.051   4.143   2.467
47669W        W12830   7.001  41.415  13.822
47670W        W12831  39.356  21.164  12.884
47671W        W12832   5.409  40.569  13.859
47672W        W12833  23.762  24.722  14.876
47673W        W12834  11.911  10.372   3.225
47674W        W12835  17.019  16.109  14.826
47675W        W12836  17.749  42.043   4.590
47676W        W12837  26.573  23.225  10.071
47677W        W12838  32.881  33.108  12.969
47678W        W12839  16.132  36.049  13.766
47679W        W12840  40.273  29.167   0.384
47680W        W12841  17.677   6.876  11.657
47681W        W12842  14.563  13.847   4.555
47682W        W12843  12.130   3.529  13.860
47683W        W12844  21.698  34.298  12.980
47684W        W12845  38.083  25.315   0.005
47685W        W12846  21.183  20.427  12.812
47686W        W12847  14.803  23.216  14.179
47687W        W12848  44.020  40.759  13.144
47688W        W12849  10.105  15.677  13.873
47689W        W12850  25.200   3.513   2.133
47690W        W12851  40.278  39.868  13.367
47691W        W12852  31.844  39.996  13.397
47692W        W12853  37.815  15.173  11.193
47693W        W12854  31.639   9.457  11.745
47694W        W12855  31.011   0.875   3.661
47695W        W12856  37.691  28.892  10.670
47696W        W12857  40.881  25.567  11.202
47697W        W12858  39.753  24.258  13.525
47698W        W12859   1.966   5.105   4.595
47699W        W12860   5.085  36.035  11.247
47700W        W12861  18.540  25.548  13.858
47701W        W12862  14.879  25.530  10.461
47702W        W12863  15.986  32.443  13.762
47703W        W12864  10.725  17.577   0.002
47704W        W12865  38.495   8.829   3.161
47705W        W12866  42.104  19.043  12.140
47706W        W12867  18.805  15.282   2.246
47707W        W12868  27.026  35.819   3.629
47708W        W12869   4.372   0.462   2.716
47709W        W12870  30.034  10.426  14.457
47710W        W12871  30.762   1.970  10.643
47711W        W12872  22.818  40.385  13.571
47712W        W12873  12.527   4.649   0.201
47713W        W12874  29.306   5.302   1.307
47714W        W12875   5.490  20.843   1.280
47715W        W12876  19.243  27.711   0.485
47716W        W12877   1.180  40.192   4.521
47717W        W12878  38.628  13.383   0.740
47718W        W12879  18.639  35.034  14.481
47719W        W12880  15.649  20.022  13.507
47720W        W12881  33.548  38.018  10.242
47721W        W12882  15.250   3.894   1.083
47722W        W12883   0.736  23.963   5.032
47723W        W12884  12.352   7.731   3.595
47724W        W12885  10.868  38.589  10.707
47725W        W12886  40.977  21.541   2.663
47726W        W12887  28.550  33.101  11.689
47727W        W12888  36.690  35.995   4.847
47728W        W12889  43.915  20.905   1.254
47729W        W12890  15.132  32.009  11.680
47730W        W12891  24.099  10.860   4.861
47731W        W12892  19.580  10.613  14.425
47732W        W12893  43.261  17.035  13.811
47733W        W12894  30.674  25.020   3.613
47734W        W12895  13.099  39.243   0.033
47735W        W12896  14.694  33.401   1.146
47736W        W12897   8.904  11.939   1.452
47737W        W12898   5.665  10.848   4.096
47738W        W12899  33.244   5.283  14.137
47739W        W12900  35.007  25.930   1.313
47740W        W12901   8.716  18.997   4.043
47741W        W12902   0.890  17.750   4.664
47742W        W12903  22.033  23.572  14.934
47743W        W12904  36.321   0.369  10.953
47744W        W12905  21.477  12.601   2.446
47745W        W12906  43.225  16.902   0.278
47746W        W12907   7.932   6.820   4.516
47747W        W12908  23.419  26.469  12.472
47748W        W12909  40.975   1.439  11.422
47749W        W12910   5.699   8.794  11.613
47750W        W12911  33.583  15.770   3.119
47751W        W12912  35.925  19.658  13.837
47752W        W12913  12.883  27.407   4.638
47753W        W12914  42.019  44.897   3.679
47754W        W12915  13.486  40.983   2.708
47755W        W12916   1.971   9.230   1.264
47756W        W12917  10.057  12.289  11.473
47757W        W12918  15.610  41.426  12.329
47758W        W12919  36.814  25.218  11.679
47759W        W12920  28.728  18.570   3.239
47760W        W12921  12.264  26.767  11.137
47761W        W12922   4.806   1.900  12.810
47762W        W12923  17.389  23.154   0.858
47763W        W12924  37.011  38.676   2.267
47764W        W12925  42.538  18.593  12.983
47765W        W12926   6.277  15.195   4.366
47766W        W12927  10.339   8.604   3.766
47767W        W12928   4.026  36.473  13.309
47768W        W12929  10.468  38.012   3.995
47769W        W12930   0.273   3.686  11.568
47770W        W12931  39.334   3.292   3.867
47771W        W12932   3.382  37.518  11.017
47772W        W12933   1.535   1.948  12.131
47773W        W12934  18.183  11.127   2.787
47774W        W12935  12.370  38.090  12.837
47775W        W12936  28.589  31.829  10.689
47776W        W12937  19.511   4.888   1.324
47777W        W12938  17.174  10.320   4.556
47778W        W12939  23.114  26.995   1.542
47779W        W12940  18.597   6.983   4.078
47780W        W12941  29.466  30.670   3.220
47781W        W12942  32.384  19.351   4.106
47782W        W12943  11.330  26.475  11.169
47783W        W12944   5.118  26.675   2.417
47784W        W12945  32.984  24.632  10.721
47785W        W12946  18.788  40.766   1.741
47786W        W12947  44.793  39.334  14.306
47787W        W12948  34.293   6.582   0.458
47788W        W12949   1.719  24.747   3.857
47789W        W12950  33.585  37.353   4.064
47790W        W12951  11.049  33.449   1.930
47791W        W12952   5.559  42.041   2.820
47792W        W12953  25.971   0.447   1.923
47793W        W12954  26.744  24.960   0.915
47794W        W12955  14.338  41.553   1.397
47795W        W12956   0.894  24.625   0.668
47796W        W12957  39.331  11.136   1.661
47797W        W12958  16.714  29.254   0.176
47798W        W12959  22.700  33.854  14.376
47799W        W12960  39.810   7.204  14.071
47800W        W12961  37.864  32.103  10.288
47801W        W12962  23.674  30.632   0.866
47802W        W12963  36.212  22.679   2.718
47803W        W12964  28.487  12.672   0.049
47804W        W12965   0.818  29.642   0.216
47805W        W12966  21.141  16.204   4.061
47806W        W12967   9.822  39.462  10.500
47807W        W12968   6.368   9.801  11.090
47808W        W12969  40.397  36.895  10.586
47809W        W12970  44.439  37.119  14.989
47810W        W12971   5.969   8.783  13.013
47811W        W12972  31.347   9.823  11.501
47812W        W12973  33.077  35.521  10.445
47813W        W12974  18.326  35.327   2.509
47814W        W12975  33.851  24.703  11.570
47815W        W12976   7.735  28.947  10.870
47816W        W12977  20.961  15.700  12.362
47817W        W12978  42.015  13.574   3.313
47818W        W12979  42.638   7.471  13.379
47819W        W12980  13.288  21.711   4.390
47820W        W12981  31.589  35.497   0.420
47821W        W12982  24.708  34.831  11.388
47822W        W12983  26.979  25.396  12.402
47823W        W12984  21.004   9.225   2.717
47824W        W12985  19.655  31.210   0.372
47825W        W12986   5.194  36.488  10.441
47826W        W12987  11.439  36.933   2.345
47827W        W12988  22.682  10.134   1.254
47828W        W12989  42.295  40.073  12.459
47829W        W12990  24.069  32.298   4.602
47830W        W12991  35.570  15.716   2.357
47831W        W12992   3.298   3.053   3.703
47832W        W12993  42.944   3.412  11.216
47833W        W12994  37.659   1.446   4.801
47834W        W12995  40.459  25.007  12.509
47835W        W12996  38.450   8.329  14.499
47836W        W12997  21.828  24.682  12.519
47837W        W12998  32.395  26.980   3.702
47838W        W12999  38.115  36.568  14.816
47839W        W13000   4.064   4.020  14.748
47840W        W13001  25.086  36.406  10.215
47841W        W13002  14.595  29.684   4.168
47842W        W13003  30.695  30.423   2.378
47843W        W13004  30.177  21.194  12.435
47844W        W13005  26.641  17.757   1.400
47845W        W13006   1.168  19.090  14.386
47846W        W13007  23.963  10.598   0.741
47847W        W13008  21.070  34.402   3.190
47848W        W13009  13.494  43.353   1.928
47849W        W13010  41.542  38.436  12.311
47850W        W13011  43.971   8.684   1.403
47851W        W13012  31.495  44.992  11.135
47852W        W13013  40.296  42.144  14.231
47853W        W13014   3.782   8.311   4.290
47854W        W13015  18.934  22.619  13.152
47855W        W13016  10.207   0.866   1.649
47856W        W13017   5.860  40.048   1.856
47857W        W13018  37.524  36.068   2.702
47858W        W13019  40.382  16.740   2.930
47859W        W13020   3.026   3.044  12.454
47860W        W13021  37.958   5.283  13.714
47861W        W13022  18.623  32.847   2.804
47862W        W13023  15.265  18.131   4.455
47863W        W13024  42.784   7.254   4.139
47864W        W13025   3.934  38.963   2.836
47865W        W13026   4.431  18.283   1.645
47866W        W13027   9.607  13.314  13.989
47867W        W13028  14.225   5.377   0.567
47868W        W13029  15.891  33.660   2.858
47869W        W13030   1.150   6.617  14.036
47870W        W13031   9.980  26.215   2.703
47871W        W13032  37.054  43.448   2.730
47872W        W13033  19.279  33.988   1.258
47873W        W13034  42.372  11.688  12.007
47874W        W13035  13.993   2.872  14.021
47875W        W13036  41.452  37.817   0.299
47876W        W13037  15.739  39.327  12.597
47877W        W13038  29.119   3.939  13.956
47878W        W13039  39.451  31.637  14.086
47879W        W13040  35.450  37.780   4.022
47880W        W13041  44.888   6.362  14.990
47881W        W13042   9.913  41.191  11.958
47882W        W13043  18.084  20.951  14.324
47883W        W13044  22.041  17.089   1.697
47884W        W13045  27.477  27.091   0.463
47885W        W13046   9.524  10.252  10.766
47886W        W13047  29.057   6.405   3.686
47887W        W13048  35.885   6.940  11.776
47888W        W13049  34.601  13.118   4.019
47889W        W13050   6.674  43.709  12.894
47890W        W13051  34.917  29.403   0.463
47891W        W13052  23.670   0.806  11.112
47892W        W13053   6.013   7.752   1.420
47893W        W13054  21.576  30.638  11.573
47894W        W13055  30.901  14.070   2.621
47895W        W13056   4.185  42.316  14.357
47896W        W13057   4.084  23.000  10.739
47897W        W13058   8.769   7.955  13.584
47898W        W13059  29.684  42.713   1.728
47899W        W13060   5.156   9.335   2.296
47900W        W13061  22.653  19.577   0.602
47901W        W13062  32.389   2.249  14.401
47902W        W13063   5.688  32.558   2.261
47903W        W13064  11.136  44.773  14.845
47904W        W13065  15.610   4.316   1.000
47905W        W13066   3.898  35.654   4.642
47906W        W13067  14.878  25.230  13.378
47907W        W13068  34.998  23.326  12.642
47908W        W13069   4.765  32.030  10.694
47909W        W13070  24.503  29.117   3.113
47910W        W13071  12.061  32.498   0.963
47911W        W13072  44.245  18.797  13.562
47912W        W13073  20.253   2.752  14.967
47913W        W13074   5.956   5.652   3.764
47914W        W13075  39.306  43.321   4.380
47915W        W13076  31.071  16.756   1.396
47916W        W13077  25.664  13.222  13.962
47917W        W13078  19.965  39.243   9.690
47918W        W13079  14.772   9.280  10.755
47919W        W13080   6.735  12.633   0.299
47920W        W13081  21.767  23.231   1.737
47921W        W13082   5.795   5.895   0.961
47922W        W13083  39.156   3.879  13.437
47923W        W13084   7.923  23.028  12.522
47924W        W13085  11.375  37.508  12.351
47925W        W13086  13.790   2.156   3.262
47926W        W13087  43.984  28.984   2.395
47927W        W13088  15.128  31.969  14.848
47928W        W13089  13.799  25.712   3.390
47929W        W13090  12.350  44.530   2.868
47930W        W13091  39.989  31.443  13.779
47931W        W13092   8.660  29.289  12.930
47932W        W13093  44.821  14.171  11.228
47933W        W13094  15.258  13.402  10.710
47934W        W13095  31.684   5.592  12.580
47935W        W13096  27.006   3.738   1.335
47936W        W13097  29.876  38.545  13.861
47937W        W13098  36.336  25.988  13.870
47938W        W13099  33.012  42.455  13.180
47939W        W13100   6.848  43.358   2.667
47940W        W13101  16.574  30.272  13.855
47941W        W13102   0.258  32.889  11.585
47942W        W13103  33.222  33.010   4.421
47943W        W13104  23.757  33.385  12.871
47944W        W13105  42.594   7.726   4.129
47945W        W13106  21.513   1.241  11.264
47946W        W13107  38.361  32.066  11.673
47947W        W13108  17.003  12.242  13.286
47948W        W13109   2.372  37.941  14.314
47949W        W13110  17.042  11.289   1.637
47950W        W13111  27.164   6.840  12.122
47951W        W13112   0.656  32.357  11.031
47952W        W13113   0.435  12.358  12.675
47953W        W13114   7.477  36.474   2.311
47954W        W13115   8.793  17.246   4.195
47955W        W13116  23.068  30.104  14.272
47956W        W13117  28.446  16.793  12.544
47957W        W13118  23.767  34.289  12.009
47958W        W13119   3.737  38.698   4.130
47959W        W13120  37.586  10.064  11.584
47960W        W13121  26.273  31.181  12.984
47961W        W13122  24.105  18.615  11.357
47962W        W13123  12.362  34.373  14.380
47963W        W13124  44.296   8.314  10.638
47964W        W13125   0.224  34.971   3.894
47965W        W13126  39.470   8.381   4.720
47966W        W13127  29.126  36.924   1.708
47967W        W13128  39.570   7.857  13.831
47968W        W13129   9.230  36.078   0.753
47969W        W13130  19.964  17.693   2.134
47970W        W13131  35.463  39.490  13.290
47971W        W13132   9.225  38.860  10.178
47972W        W13133  21.024  30.351  14.529
47973W        W13134  29.085   7.330  10.987
47974W        W13135  21.645  36.109   2.199
47975W        W13136   1.063  30.926  14.375
47976W        W13137  12.584  32.437   0.082
47977W        W13138  44.708  44.349  12.511
47978W        W13139   6.771  29.119   0.502
47979W        W13140  41.771  26.739   2.669
47980W        W13141  10.809  24.794   0.398
47981W        W13142   3.719  19.498  11.088
47982W        W13143   5.361  20.988  10.446
47983W        W13144  43.547  39.099   4.176
47984W        W13145   6.592  18.633   0.690
47985W        W13146  37.027  33.549   1.943
47986W        W13147  26.904  12.639  14.286
47987W        W13148  16.801  33.036   0.807
47988W        W13149   5.767  14.517   0.262
47989W        W13150   8.681  30.955  14.816
47990W        W13151  23.972   5.237  13.908
47991W        W13152  24.019   1.792   2.044
47992W        W13153  31.112  19.607   4.118
47993W        W13154  39.091  36.524   1.781
47994W        W13155  43.374  31.086   3.769
47995W        W13156   1.990  29.622  13.748
47996W        W13157  41.099  18.135  13.939
47997W        W13158  28.057  24.484  12.057
47998W        W13159   1.416  33.346   2.770
47999W        W13160  22.085  38.347  11.498
48000W        W13161  37.491  34.873   2.513
48001W        W13162  38.597  33.220  10.727
48002W        W13163  24.086   4.986   0.741
48003W        W13164  16.279  18.513  11.457
48004W        W13165  21.699   7.884   3.093
48005W        W13166  33.655  24.492  10.319
48006W        W13167  37.355  28.432  11.525
48007W        W13168  16.483  26.240  10.633
48008W        W13169  36.288  36.552  14.186
48009W        W13170   3.145  43.756  14.936
48010W        W13171  24.273  19.259  13.081
48011W        W13172  21.539  40.987  14.391
48012W        W13173  12.566  38.459  12.541
48013W        W13174   5.276  13.877   3.261
48014W        W13175   8.780  38.299   3.631
48015W        W13176  32.660   0.781   1.694
48016W        W13177  40.652  30.058  13.759
48017W        W13178  18.920  36.366   0.540
48018W        W13179   8.430  24.476  10.753
48019W        W13180   0.864  10.489   3.144
48020W        W13181  28.619  29.534   3.869
48021W        W13182   2.982  29.428  14.945
48022W        W13183  38.950  39.560  14.306
48023W        W13184  21.800   7.939  13.152
48024W        W13185  36.749  28.981   3.806
48025W        W13186  20.915   0.824   3.768
48026W        W13187  29.401  33.398  11.420
48027W        W13188  21.634  42.347   0.026
48028W        W13189  31.448  18.683   0.509
48029W        W13190  13.141  41.250   3.672
48030W        W13191   7.909  35.476   1.223
48031W        W13192  38.962  23.513   0.856
48032W        W13193   0.415  11.179  10.821
48033W        W13194   7.812  13.728   4.555
48034W        W13195  18.745   6.697   3.634
48035W        W13196  30.246   7.233  13.869
48036W        W13197   9.760  26.571  11.539
48037W        W13198  37.880  29.063   2.458
48038W        W13199  13.027   7.580  14.422
48039W        W13200  29.024  32.610   0.728
48040W        W13201  21.561  16.636   3.056
48041W        W13202  19.935   5.656   0.673
48042W        W13203  24.294  26.073   1.240
48043W        W13204  20.650   6.382   0.509
48044W        W13205  37.778  37.447  11.351
48045W        W13206  23.492  37.974   0.835
48046W        W13207  12.112   5.872   0.466
48047W        W13208  23.082  43.998   4.917
48048W        W13209  37.090  35.004  14.104
48049W        W13210  36.433  28.571   0.582
48050W        W13211  34.550  41.536  14.851
48051W        W13212  10.535  37.931  14.856
48052W        W13213  16.594  20.600   3.707
48053W        W13214  31.054  38.114   0.438
48054W        W13215   5.823  33.897   2.364
48055W        W13216  30.462  17.728   2.817
48056W        W13217   7.802  14.959  14.828
48057W        W13218  15.744  20.745  12.103
48058W        W13219  35.055  27.583  12.043
48059W        W13220   0.414   9.053   4.694
48060W        W13221  37.704   3.591   4.620
48061W        W13222  35.484  35.338   0.219
48062W        W13223  43.088  26.549  10.802
48063W        W13224  27.134  39.232  12.140
48064W        W13225  23.515  16.755   2.366
48065W        W13226  29.863   3.696  12.601
48066W        W13227   6.305  38.883  12.289
48067W        W13228  18.349   6.944  11.162
48068W        W13229  13.708  23.478   4.171
48069W        W13230   3.878  10.343  11.386
48070W        W13231  39.718   2.813  12.074
48071W        W13232   2.804  44.932   0.843
48072W        W13233  18.335  24.238   0.485
48073W        W13234  42.203  23.205  13.081
48074W        W13235  35.235  21.731   2.389
48075W        W13236  15.575  17.835   3.998
48076W        W13237  43.288  38.491  11.152
48077W        W13238  33.420  21.995  14.517
48078W        W13239  36.965  31.680   1.705
48079W        W13240   4.267  40.731  14.435
48080W        W13241   3.308  20.966   5.000
48081W        W13242   1.821  39.544   2.290
48082W        W13243  44.326  20.696  14.816
48083W        W13244  33.021  20.305  10.700
48084W        W13245  33.605  10.220   3.638
48085W        W13246  38.926  43.267   4.044
48086W        W13247   8.348  23.570  10.805
48087W        W13248  43.673  41.930  11.527
48088W        W13249  33.678  35.813   4.291
48089W        W13250  31.398  38.426   0.717
48090W        W13251  40.047  13.315   3.672
48091W        W13252  37.259  26.858  12.128
48092W        W13253  29.958  14.081  12.391
48093W        W13254  24.374  19.419  11.071
48094W        W13255   5.935  40.584   1.694
48095W        W13256  13.218   4.817   4.106
48096W        W13257   6.417  37.796  11.964
48097W        W13258  23.549  24.379  13.885
48098W        W13259  12.319   0.987   4.524
48099W        W13260  42.940  16.103  11.853
48100W        W13261  40.739  11.579   1.724
48101W        W13262  30.093   6.477  12.104
48102W        W13263  41.771   6.905  14.867
48103W        W13264  12.131  30.857  13.894
48104W        W13265  39.043  29.115  14.932
48105W        W13266  20.053  29.386  14.589
48106W        W13267  40.529  17.295   1.244
48107W        W13268  39.533  36.538  14.823
48108W        W13269  23.205  18.585  10.953
48109W        W13270   5.698  41.933  13.935
48110W        W13271  29.080  40.252   0.020
48111W        W13272  37.526  12.305   4.326
48112W        W13273   4.357  35.256   3.851
48113W        W13274  31.590  24.415   2.775
48114W        W13275  24.572  26.907  13.555
48115W        W13276   7.160  31.913   3.807
48116W        W13277  13.039   7.298  13.454
48117W        W13278  36.615   2.668  14.275
48118W        W13279  28.440  36.423   1.215
48119W        W13280  17.054   5.837  10.670
48120W        W13281  38.604  15.289  13.510
48121W        W13282  33.449  22.505  14.423
48122W        W13283  28.164   0.528  11.150
48123W        W13284  44.246   1.356  13.243
48124W        W13285  25.139   8.273   2.455
48125W        W13286  42.856  37.982   2.310
48126W        W13287  10.798  43.003  13.360
48127W        W13288  20.480  23.039   0.690
48128W        W13289   5.202  24.504  13.449
48129W        W13290   4.829  26.138  13.921
48130W        W13291  26.775  24.636   0.081
48131W        W13292  21.690   6.754   0.984
48132W        W13293  19.712  32.039  13.871
48133W        W13294  22.073   5.906   3.649
48134W        W13295  40.929  40.729  11.174
48135W        W13296  39.005  44.114  11.595
48136W        W13297   6.686  38.584   1.928
48137W        W13298  30.859   5.394  13.931
48138W        W13299  36.366  25.781   0.751
48139W        W13300   0.693   3.834   2.234
48140W        W13301  39.067  13.072  10.621
48141W        W13302  16.264   1.347   3.670
48142W        W13303  17.289  20.655  11.986
48143W        W13304  19.862  31.959  10.863
48144W        W13305  16.692   2.744  14.741
48145W        W13306  41.828  33.421   3.109
48146W        W13307  21.710  34.013   0.688
48147W        W13308   8.466   8.868   4.659
48148W        W13309  35.793   3.755  12.450
48149W        W13310  23.956  27.149   2.292
48150W        W13311   5.417  43.318  11.556
48151W        W13312  21.463   7.232  12.457
48152W        W13313   3.883  10.882  11.170
48153W        W13314   0.032  31.425   1.388
48154W        W13315  27.657  31.581  12.613
48155W        W13316  16.844   3.134   2.851
48156W        W13317  34.094  30.094   5.055
48157W        W13318  12.092   8.645   2.644
48158W        W13319   5.233   7.901  11.609
48159W        W13320  11.700  19.392  10.874
48160W        W13321  13.178  11.790   3.224
48161W        W13322  15.696  29.943  13.760
48162W        W13323  42.243  30.953  13.123
48163W        W13324  41.967  44.081   0.325
48164W        W13325   8.429  42.958  10.704
48165W        W13326   9.732  28.626  11.581
48166W        W13327  38.165   2.264  11.513
48167W        W13328  38.477  25.003  14.868
48168W        W13329  17.327   3.840  10.782
48169W        W13330   6.704  17.650  13.494
48170W        W13331  40.418  22.985   1.239
48171W        W13332  12.858   7.439   0.675
48172W        W13333  34.003  19.719  11.560
48173W        W13334  20.969   9.814  10.428
48174W        W13335  41.553  11.656  11.886
48175W        W13336  42.760  25.199   0.297
48176W        W13337  30.884  40.819   9.761
48177W        W13338   1.449  23.751   0.012
48178W        W13339  23.059  21.923  11.938
48179W        W13340  22.167  11.697  13.331
48180W        W13341  20.972  21.679   4.970
48181W        W13342  15.259   7.158  12.879
48182W        W13343  17.112  41.975   1.315
48183W        W13344  41.332  18.666   3.637
48184W        W13345  32.378  32.618  12.041
48185W        W13346  15.275  15.868   3.800
48186W        W13347  23.778   8.308  13.680
48187W        W13348  33.104  38.898   0.498
48188W        W13349  12.646  26.600  12.875
48189W        W13350  39.280  21.649  11.663
48190W        W13351   1.758   7.714   0.949
48191W        W13352   7.856  24.542   2.844
48192W        W13353   2.418  25.950  14.009
48193W        W13354  20.556  38.298  12.441
48194W        W13355  31.997  25.666  13.274
48195W        W13356  26.412  25.705   3.834
48196W        W13357   5.755  38.889   4.130
48197W        W13358   4.521  39.371  14.535
48198W        W13359  29.091  30.528   4.585
48199W        W13360   0.782  39.086   2.390
48200W        W13361  40.987   4.932  14.535
48201W        W13362  11.131  41.835   0.829
48202W        W13363  13.626  34.082   2.264
48203W        W13364  15.843  24.039   0.426
48204W        W13365  39.519  23.021   1.233
48205W        W13366  13.116  19.047   0.251
48206W        W13367  12.178  24.800  12.875
48207W        W13368   6.089  28.119   5.817
48208W        W13369  23.052  44.589   0.347
48209W        W13370  19.187   3.736  13.720
48210W        W13371  12.016  29.953   0.359
48211W        W13372  15.407  28.208   4.173
48212W        W13373  12.107  12.886  12.774
48213W        W13374   1.210  35.445   1.360
48214W        W13375  24.282  29.605   1.363
48215W        W13376  12.636  43.365  14.244
48216W        W13377  26.204   0.895  14.882
48217W        W13378   8.281   1.977  11.135
48218W        W13379  42.053  30.561  11.155
48219W        W13380  15.500  15.237  13.500
48220W        W13381   0.435  43.459  12.122
48221W        W13382   8.323  24.192  14.799
48222W        W13383   5.302   3.816   2.833
48223W        W13384  37.043  36.645   2.474
48224W        W13385  15.360  41.064  14.365
48225W        W13386  30.692  12.972  13.918
48226W        W13387  21.293  25.549   4.149
48227W        W13388  39.428  36.600   3.136
48228W        W13389  23.437  31.657  11.131
48229W        W13390   1.438  27.801   3.650
48230W        W13391   8.454  12.202   4.505
48231W        W13392   2.400  20.364   4.038
48232W        W13393  17.546   3.339   4.210
48233W        W13394  36.255  12.127   3.173
48234W        W13395  23.018   6.202   3.695
48235W        W13396   9.380  40.317   0.714
48236W        W13397  18.506  23.210   3.623
48237W        W13398  15.123  26.933   1.001
48238W        W13399  14.911  26.648  12.182
48239W        W13400  10.423  31.958   1.871
48240W        W13401  20.438  35.665   0.394
48241W        W13402  30.950   6.773  14.102
48242W        W13403  33.942   0.417   0.219
48243W        W13404  18.108  33.484   0.777
48244W        W13405  14.876  18.286  12.440
48245W        W13406  15.858  38.317   5.199
48246W        W13407  34.402  15.101   4.083
48247W        W13408   3.256  36.983  13.346
48248W        W13409  43.240   4.219  12.547
48249W        W13410  33.913  22.475   2.716
48250W        W13411  14.525  23.701   4.821
48251W        W13412  17.777  29.539  14.395
48252W        W13413  34.374  43.812  12.835
48253W        W13414  41.361  35.094   3.300
48254W        W13415  28.236  37.829  12.500
48255W        W13416  22.316  39.112   4.062
48256W        W13417  16.766   5.658   2.807
48257W        W13418  39.559   4.383   4.858
48258W        W13419  15.288   6.074  11.188
48259W        W13420  33.042  33.092   4.948
48260W        W13421  17.244  41.039  13.631
48261W        W13422  26.236   7.822  11.456
48262W        W13423  19.211  12.774  10.929
48263W        W13424  30.475  33.092   2.795
48264W        W13425  12.335   2.519  11.246
48265W        W13426  12.260  41.751   1.376
48266W        W13427  38.432   7.703   0.767
48267W        W13428   6.903  18.487   0.176
48268W        W13429  22.006  24.977  14.450
48269W        W13430  17.578   3.271  13.547
48270W        W13431   6.654  24.138   3.823
48271W        W13432  29.504  39.408  13.956
48272W        W13433  13.396  14.033   5.073
48273W        W13434   1.364   3.234   0.268
48274W        W13435  29.261  26.484   1.746
48275W        W13436  41.831  16.759   4.942
48276W        W13437   1.136   2.256   3.252
48277W        W13438  29.730  27.588  14.015
48278W        W13439  17.283  10.898  13.353
48279W        W13440  24.080  43.346   4.646
48280W        W13441  18.744  42.613   1.387
48281W        W13442   3.885  27.051  13.353
48282W        W13443  15.724  32.509  12.973
48283W        W13444   2.017  13.585  12.469
48284W        W13445  27.434  16.254   2.328
48285W        W13446  44.463  10.999   1.458
48286W        W13447  11.316  32.465   0.970
48287W        W13448  32.874  26.069   3.508
48288W        W13449   2.511  29.541  12.842
48289W        W13450  26.935  14.265  13.376
48290W        W13451  27.464  25.194  13.476
48291W        W13452   8.290  20.541  13.526
48292W        W13453   4.345  43.775   2.202
48293W        W13454  10.354  17.617  13.284
48294W        W13455  43.896   8.805  11.312
48295W        W13456   6.510  28.337   0.916
48296W        W13457  10.687  32.127   3.132
48297W        W13458  25.282  42.498   0.239
48298W        W13459  13.608  12.307  13.857
48299W        W13460   1.817  26.768   4.932
48300W        W13461  40.282  27.501   3.650
48301W        W13462  20.552  41.842   4.384
48302W        W13463  15.346  16.555   2.681
48303W        W13464  15.988  34.365   4.239
48304W        W13465  20.198   7.665   0.841
48305W        W13466  23.559  16.231   4.121
48306W        W13467   8.482  27.132   5.024
48307W        W13468   4.135  17.633   2.217
48308W        W13469  19.438  25.573  10.619
48309W        W13470   1.899  16.764  14.042
48310W        W13471   4.219  39.284   1.921
48311W        W13472   1.904  11.044   3.732
48312W        W13473  40.111  19.650   2.368
48313W        W13474  14.732  17.363   2.703
48314W        W13475  33.021   0.375   1.736
48315W        W13476  33.300   5.670  12.901
48316W        W13477   1.892  26.309   1.342
48317W        W13478  15.642  42.990  11.889
48318W        W13479   6.955   6.762  14.679
48319W        W13480   3.946  36.638  10.989
48320W        W13481   4.968   8.174  12.338
48321W        W13482  31.423   0.488  10.950
48322W        W13483   0.889  38.142  11.893
48323W        W13484  23.565  16.804   3.799
48324W        W13485  21.024  10.056   1.259
48325W        W13486  29.563   8.162  14.386
48326W        W13487  17.300  43.424   2.798
48327W        W13488  19.330   9.302   3.256
48328W        W13489  44.095  30.228   1.758
48329W        W13490  35.111  25.399  11.113
48330W        W13491  26.635  44.944   4.072
48331W        W13492  41.764  39.010  11.368
48332W        W13493   1.470   6.323   1.965
48333W        W13494  35.371  25.925   1.720
48334W        W13495  15.774   7.505   2.393
48335W        W13496  22.131   7.579  11.037
48336W        W13497  22.583  39.088   4.591
48337W        W13498  23.576  30.435   2.343
48338W        W13499  24.028  19.585  14.451
48339W        W13500   1.694  43.045   0.331
48340W        W13501  17.974  27.518  10.735
48341W        W13502  11.437  38.728  14.301
48342W        W13503  28.535   7.591  11.607
48343W        W13504  38.048  20.515  12.535
48344W        W13505  33.522   6.502   5.135
48345W        W13506   5.726  41.387  10.393
48346W        W13507  42.864  18.909   0.543
48347W        W13508  30.667  23.456  13.086
48348W        W13509   9.870  12.873   1.765
48349W        W13510  18.027  38.950  12.913
48350W        W13511   9.107  12.193  11.481
48351W        W13512  36.359  37.874   0.810
48352W        W13513  40.653  19.630  14.534
48353W        W13514   8.255  19.611  12.516
48354W        W13515  32.371  42.056   1.268
48355W        W13516  21.444  39.702   9.692
48356W        W13517  19.909  12.328   4.913
48357W        W13518  13.793  43.674  13.815
48358W        W13519  26.527  17.247   2.673
48359W        W13520  18.585  18.218   2.965
48360W        W13521   5.814  34.561  10.875
48361W        W13522  19.273  34.952  11.998
48362W        W13523  23.123  39.160   1.758
48363W        W13524  18.695   0.932   0.288
48364W        W13525  36.908  12.344   1.784
48365W        W13526  42.876   1.900  14.413
48366W        W13527  27.133  37.242   0.293
48367W        W13528   2.792  43.448  14.670
48368W        W13529  44.970  10.688   2.659
48369W        W13530  31.232  25.573  10.179
48370W        W13531   8.707  23.101   2.942
48371W        W13532  42.550   6.142  13.071
48372W        W13533  20.421   0.893  11.504
48373W        W13534  40.910  28.544  13.171
48374W        W13535  14.620  11.567  13.031
48375W        W13536   5.076   0.543  11.050
48376W        W13537  41.314  42.729   4.847
48377W        W13538  31.018  32.860  11.118
48378W        W13539  37.488  27.636  12.832
48379W        W13540  43.023  27.639   4.750
48380W        W13541  27.480   3.813  14.293
48381W        W13542   3.421   6.398   2.613
48382W        W13543   1.329  26.167   0.446
48383W        W13544  17.565  28.815   2.750
48384W        W13545  13.852  19.805  14.764
48385W        W13546   0.281  30.346  14.810
48386W        W13547   4.760  40.642   5.017
48387W        W13548  15.718  41.971  13.775
48388W        W13549  27.407  39.344  14.714
48389W        W13550  15.177   1.528   1.402
48390W        W13551   8.784  22.703   2.365
48391W        W13552  17.383   9.828  11.970
48392W        W13553  40.374  14.577  11.195
48393W        W13554   1.363   4.224  12.090
48394W        W13555   7.431  40.762   0.077
48395W        W13556  10.709   7.692  14.377
48396W        W13557   8.914  24.432  13.898
48397W        W13558  42.384  26.987  10.989
48398W        W13559  36.817  39.535  11.171
48399W        W13560   1.343   5.890  13.293
48400W        W13561   1.460  14.211  13.312
48401W        W13562  22.198  34.078   0.437
48402W        W13563  30.367  38.504   3.611
48403W        W13564   3.409   7.212   4.060
48404W        W13565   4.615  33.120  11.986
48405W        W13566  16.608  29.700  14.810
48406W        W13567  35.849   1.962   0.327
48407W        W13568  13.919  15.218  11.908
48408W        W13569   3.493  27.641  12.062
48409W        W13570  39.911  33.113  11.680
48410W        W13571  44.355  26.942  11.036
48411W        W13572  16.766  24.202  10.495
48412W        W13573  31.524  42.773  14.328
48413W        W13574  21.205  20.185  14.907
48414W        W13575  38.756  29.495   4.969
48415W        W13576  11.939  27.679  10.225
48416W        W13577   5.173  30.193   1.890
48417W        W13578  17.077   2.722  12.494
48418W        W13579  35.463  25.478   0.755
48419W        W13580   4.113   3.893   4.705
48420W        W13581  20.672  10.071  13.968
48421W        W13582  20.180  24.184  11.110
48422W        W13583  35.269  32.672  12.398
48423W        W13584  17.580  37.933  12.389
48424W        W13585  19.572  11.711   2.160
48425W        W13586  38.584  43.515   0.317
48426W        W13587  43.383   0.391  14.536
48427W        W13588   3.087  17.757  11.414
48428W        W13589   7.925  40.150   0.336
48429W        W13590  12.057  35.032  13.800
48430W        W13591  10.443  28.705   0.915
48431W        W13592  11.420  10.820   4.369
48432W        W13593   8.132  35.919  13.975
48433W        W13594  13.845  38.452   1.774
48434W        W13595  26.220  23.964   1.208
48435W        W13596  12.687   6.265  14.525
48436W        W13597   9.362  36.014  14.205
48437W        W13598  10.743  34.091   0.966
48438W        W13599  22.689  12.057  12.110
48439W        W13600  23.373   8.935   3.774
48440W        W13601  41.821   9.912   1.132
48441W        W13602  11.374  21.247   9.759
48442W        W13603  35.561  23.221   4.868
48443W        W13604  38.538  13.199  11.470
48444W        W13605  24.485  32.282  12.502
48445W        W13606  13.626  25.192  10.421
48446W        W13607  42.121  32.379   1.142
48447W        W13608  27.089  29.965  10.698
48448W        W13609  39.928  22.323  13.114
48449W        W13610  27.909  20.749   3.177
48450W        W13611  29.031  10.211  13.072
48451W        W13612  17.498  27.696  10.531
48452W        W13613  36.077  10.355   1.466
48453W        W13614  24.162   0.669  12.677
48454W        W13615   3.402  22.660   4.103
48455W        W13616  27.555  37.750   2.355
48456W        W13617   6.910  32.691  11.595
48457W        W13618  43.901  35.158  11.952
48458W        W13619  29.656  25.379   4.089
48459W        W13620  16.188  35.042  13.494
48460W        W13621  13.846  42.401  12.367
48461W        W13622   3.102  43.497   0.458
48462W        W13623  20.907  20.585   4.079
48463W        W13624   7.329  43.394  14.826
48464W        W13625   8.352  17.490   0.550
48465W        W13626  36.372   7.316   0.340
48466W        W13627  27.129  27.754   2.289
48467W        W13628  33.031  39.839  12.400
48468W        W13629  29.888  33.934   1.459
48469W        W13630  15.084  24.952   1.371
48470W        W13631   1.972   2.546  13.442
48471W        W13632  20.473   3.109  12.514
48472W        W13633  36.306  22.538   4.561
48473W        W13634   0.014  11.275  14.883
48474W        W13635  12.231  33.602  12.471
48475W        W13636  44.447  24.052  12.535
48476W        W13637   2.527   7.299   3.175
48477W        W13638  27.233  17.180  14.766
48478W        W13639  10.571   0.175  11.668
48479W        W13640  43.921  24.189   3.768
48480W        W13641  37.499  34.601   3.917
48481W        W13642  37.429  31.487   0.273
48482W        W13643  43.845  43.891   4.405
48483W        W13644  12.566  36.155  12.069
48484W        W13645  19.146  17.911  14.112
48485W        W13646  33.467  19.867  12.154
48486W        W13647  40.814  10.443   3.720
48487W        W13648  37.429  11.617  13.282
48488W        W13649  35.125  24.262  12.699
48489W        W13650  14.075  19.425   2.863
48490W        W13651  36.183   6.760  13.468
48491W        W13652  20.544   4.389   3.570
48492W        W13653  18.877   7.816   4.518
48493W        W13654  11.214   6.865   0.329
48494W        W13655  19.670  27.637   1.288
48495W        W13656  37.707  44.687   0.836
48496W        W13657  41.880   8.293   4.029
48497W        W13658  41.292  22.359  13.986
48498W        W13659  35.050   4.449   3.574
48499W        W13660  10.912  40.613  11.076
48500W        W13661  32.574  41.775  14.871
48501W        W13662   3.456  29.055   1.735
48502W        W13663  40.140  33.708  14.333
48503W        W13664  14.105   0.717   0.695
48504W        W13665  28.983  38.949  14.587
48505W        W13666  35.055  22.776   2.295
48506W        W13667   6.722   3.521   4.098
48507W        W13668  18.732  34.034  11.008
48508W        W13669  19.571  31.504   2.881
48509W        W13670  38.777   4.434  11.509
48510W        W13671  39.815  13.532   4.065
48511W        W13672  37.142  15.410  13.360
48512W        W13673  24.294  16.893   1.974
48513W        W13674  32.939  11.276   1.706
48514W        W13675   2.269  18.334   0.989
48515W        W13676  28.474  40.339  12.879
48516W        W13677  33.043  43.699  12.629
48517W        W13678   2.876   8.430  11.681
48518W        W13679  37.522  32.586   2.690
48519W        W13680  44.886  19.482   4.059
48520W        W13681  29.475  42.567   3.886
48521W        W13682  44.015  27.326  13.867
48522W        W13683   1.246  27.030   1.237
48523W        W13684  36.344  26.563   1.419
48524W        W13685  25.622  34.987  12.434
48525W        W13686  26.518   6.858  10.457
48526W        W13687  10.734  28.975   9.927
48527W        W13688  31.518  11.453  13.505
48528W        W13689  21.622   4.064   0.682
48529W        W13690  30.448  32.158   2.739
48530W        W13691  27.165   4.183   4.250
48531W        W13692   3.451  19.650   1.252
48532W        W13693  13.048  40.165  11.532
48533W        W13694  17.101  33.135  14.747
48534W        W13695  21.203  44.812   0.928
48535W        W13696   6.772   5.897   0.945
48536W        W13697   8.840  37.260   0.825
48537W        W13698  33.020   9.817   4.894
48538W        W13699   2.398  10.719   5.188
48539W        W13700  35.151  16.299   2.671
48540W        W13701  28.543  18.032  11.700
48541W        W13702   8.553  34.148   3.149
48542W        W13703  29.879   8.349  13.783
48543W        W13704  43.922  15.595   0.229
48544W        W13705  21.225  42.238   3.717
48545W        W13706  30.935  26.433   3.707
48546W        W13707  40.321  30.308   4.482
48547W        W13708  34.916  34.147   2.381
48548W        W13709   5.755   2.014  13.738
48549W        W13710   2.982  38.524  13.937
48550W        W13711  25.136   3.813   0.217
48551W        W13712  23.009  30.017  10.393
48552W        W13713  20.759  31.112   3.850
48553W        W13714  21.264  11.187   0.001
48554W        W13715  12.747  42.792  10.996
48555W        W13716  24.216  26.379  14.043
48556W        W13717   0.700   0.852   3.483
48557W        W13718  13.191  35.400  13.154
48558W        W13719   7.135  41.674  13.360
48559W        W13720  20.347   1.789  12.067
48560W        W13721  25.260   8.512  11.216
48561W        W13722  26.558   2.891   1.389
48562W        W13723   4.862   2.676   5.111
48563W        W13724  42.533  41.499   0.831
48564W        W13725   5.291   8.373  12.843
48565W        W13726  41.546   1.270   1.446
48566W        W13727  39.861  10.414   1.898
48567W        W13728  35.251  30.450   2.729
48568W        W13729  30.162   2.213   1.773
48569W        W13730  10.334  11.628   4.499
48570W        W13731  37.335   7.948   0.375
48571W        W13732  24.767  23.851  10.757
48572W        W13733   7.817  41.074  10.031
48573W        W13734  25.804  35.328   4.727
48574W        W13735  16.264  30.930   1.857
48575W        W13736   4.734  42.535   3.230
48576W        W13737  21.180  21.837  12.766
48577W        W13738   3.247  20.995   0.961
48578W        W13739  43.325  40.058  14.470
48579W        W13740  25.008  37.764  13.667
48580W        W13741  16.444  16.098   1.947
48581W        W13742  44.286  34.997  14.468
48582W        W13743   3.712   8.307  13.378
48583W        W13744   1.383  26.940   2.150
48584W        W13745   4.668  17.289   3.714
48585W        W13746  38.596   9.490  12.874
48586W        W13747  42.793  43.699  14.885
48587W        W13748  20.759  26.011   3.157
48588W        W13749  15.884  19.652   0.415
48589W        W13750   5.330  35.055   3.342
48590W        W13751  44.590   7.243   0.269
48591W        W13752  21.835  33.827  10.467
48592W        W13753   9.652  27.633   1.380
48593W        W13754  22.660  15.769  11.447
48594W        W13755  39.723  44.706   3.193
48595W        W13756   0.748  36.841   1.285
48596W        W13757  43.967  40.491  10.746
48597W        W13758   0.119  42.291  10.413
48598W        W13759  12.699  32.483   4.157
48599W        W13760   6.432   5.542   3.021
48600W        W13761  20.453  21.016  12.936
48601W        W13762  31.632  17.580   1.563
48602W        W13763  16.124   6.823   2.444
48603W        W13764  36.106  18.616  10.789
48604W        W13765   0.808   9.345  10.654
48605W        W13766  11.401  24.576   2.890
48606W        W13767  30.691  36.210  14.944
48607W        W13768   8.371  29.509  13.298
48608W        W13769  26.497  34.480   2.577
48609W        W13770   6.607  26.120  13.105
48610W        W13771  28.561  11.131   4.029
48611W        W13772   5.226  13.732   0.237
48612W        W13773  42.014  22.774  10.731
48613W        W13774  34.575   4.192  13.012
48614W        W13775  42.803   6.861  12.084
48615W        W13776   4.784   7.236  13.848
48616W        W13777  36.852  25.933  13.923
48617W        W13778  34.290  28.140   3.808
48618W        W13779  36.182  29.818  12.546
48619W        W13780  23.858  44.329  11.379
48620W        W13781  38.814  20.317   4.470
48621W        W13782  27.074   9.830  11.273
48622W        W13783  11.582  22.244  10.243
48623W        W13784  19.186  30.539  12.616
48624W        W13785   0.517  41.865   1.929
48625W        W13786  18.818  33.057  12.944
48626W        W13787  11.743   4.792   2.695
48627W        W13788  12.892  17.815  11.065
48628W        W13789  21.018  39.881  10.096
48629W        W13790   2.417  13.854  14.742
48630W        W13791   7.347  12.047  10.617
48631W        W13792  30.569  31.895  13.973
48632W        W13793  39.536   7.114  14.533
48633W        W13794  16.055  35.238  12.530
48634W        W13795  26.083   1.819  10.582
48635W        W13796  19.280  23.548   2.815
48636W        W13797  10.166  19.031  14.411
48637W        W13798  13.297  44.499   2.402
48638W        W13799  40.511  29.395   3.569
48639W        W13800  17.319  14.241   2.398
48640W        W13801  10.095  24.251   3.670
48641W        W13802  32.048  18.290   5.287
48642W        W13803  13.213  28.690   0.471
48643W        W13804  37.534  20.907  13.476
48644W        W13805  16.219  38.091  13.458
48645W        W13806  23.717  24.321  13.012
48646W        W13807   8.556  28.837   2.639
48647W        W13808  14.379  24.574   0.219
48648W        W13809  41.429  22.651   0.363
48649W        W13810  33.101  44.195   2.361
48650W        W13811  32.807  20.608  13.651
48651W        W13812  37.329  26.050  11.979
48652W        W13813   3.159  42.364   1.122
48653W        W13814  27.320  12.599  11.711
48654W        W13815   4.734  38.028   2.299
48655W        W13816  16.046  22.531  11.843
48656W        W13817  38.051  11.412  11.228
48657W        W13818   7.085   8.375  12.571
48658W        W13819  34.942  27.094  13.272
48659W        W13820   8.988  27.891   4.211
48660W        W13821  35.041   7.651  11.228
48661W        W13822   8.152  29.088   3.149
48662W        W13823  30.344  34.944   1.397
48663W        W13824  41.332  34.018  11.182
48664W        W13825   5.251  22.918   2.410
48665W        W13826  21.733  28.393   0.427
48666W        W13827  22.597  10.771  10.971
48667W        W13828  44.958  15.365  11.191
48668W        W13829  15.714  27.653   0.445
48669W        W13830  36.847   1.363  12.182
48670W        W13831  44.167  13.732   0.309
48671W        W13832  17.288   1.242   3.596
48672W        W13833  15.789  24.074  12.328
48673W        W13834  41.279  19.623  14.757
48674W        W13835  23.695  30.968  12.131
48675W        W13836   1.701  13.832  13.981
48676W        W13837   2.444  30.328   0.996
48677W        W13838  16.846  31.834  10.552
48678W        W13839  11.677  29.221   2.393
48679W        W13840  39.921  26.479  10.553
48680W        W13841  16.278   2.862   1.376
48681W        W13842  12.935  20.176  13.138
48682W        W13843  40.493  28.629   4.842
48683W        W13844  43.514  29.661  11.435
48684W        W13845  37.847  21.641  14.392
48685W        W13846  38.921  41.654   4.859
48686W        W13847  11.885  27.122  11.369
48687W        W13848  11.876  23.261  11.132
48688W        W13849  10.393  27.048  11.039
48689W        W13850  42.832   3.932   1.310
48690W        W13851  10.815   3.731  12.475
48691W        W13852  15.443   4.138  12.021
48692W        W13853   6.131   3.222   0.869
48693W        W13854  18.521  17.652  14.242
48694W        W13855  13.063  42.719  13.979
48695W        W13856  25.259  21.583   4.974
48696W        W13857  43.989  17.895   1.446
48697W        W13858  17.759  21.207  14.007
48698W        W13859  35.297   2.032   0.837
48699W        W13860   8.855  29.389   4.173
48700W        W13861   1.251  31.591   3.692
48701W        W13862  17.334  38.038  11.055
48702W        W13863  36.858  27.741  13.927
48703W        W13864  14.722  22.465   3.391
48704W        W13865  26.762   5.667   4.041
48705W        W13866  25.700  29.647   4.117
48706W        W13867  38.407   8.566   1.057
48707W        W13868   2.008   2.096   4.432
48708W        W13869  17.394  23.393  11.202
48709W        W13870  28.721  26.981   5.720
48710W        W13871  10.033   6.520   2.409
48711W        W13872  32.082   1.945   0.267
48712W        W13873  24.732  26.003   2.169
48713W        W13874  23.500  17.576  14.232
48714W        W13875  28.935   2.768   4.048
48715W        W13876  23.140  15.344  13.451
48716W        W13877   3.417   6.881  11.226
48717W        W13878  38.497  12.129  12.707
48718W        W13879   8.137  26.526   2.451
48719W        W13880   3.935  21.476   2.268
48720W        W13881  25.223  19.030  12.797
48721W        W13882  26.996  37.832   3.191
48722W        W13883  35.093  42.860  12.903
48723W        W13884  23.419  16.834  13.191
48724W        W13885  43.844  31.016   2.764
48725W        W13886  32.522  26.965  11.249
48726W        W13887  30.485  38.380   2.186
48727W        W13888  41.233  36.927   1.198
48728W        W13889  11.861  43.840  14.524
48729W        W13890  44.865  22.489  10.826
48730W        W13891  15.523  37.880  14.436
48731W        W13892   8.727  25.477   0.931
48732W        W13893  17.900  44.409  10.596
48733W        W13894  34.789  30.934   1.287
48734W        W13895  34.132  11.273  14.391
48735W        W13896  16.026  24.233  11.470
48736W        W13897  12.085  18.704  14.512
48737W        W13898  20.786  18.646  13.446
48738W        W13899  37.373  41.888  14.265
48739W        W13900  22.146  30.195   2.493
48740W        W13901  20.312  26.541  14.303
48741W        W13902  11.867  10.202   0.263
48742W        W13903   1.912  42.040   1.922
48743W        W13904  26.153   2.410  14.832
48744W        W13905  36.326  14.092  14.836
48745W        W13906  30.395   4.275   1.195
48746W        W13907  11.788   6.638   1.036
48747W        W13908  20.206   3.711   3.584
48748W        W13909  24.435   4.883   1.601
48749W        W13910  17.244  15.752   9.923
48750W        W13911  28.553  24.428  12.928
48751W        W13912   4.285  33.649   1.882
48752W        W13913  14.874   6.361   0.805
48753W        W13914  19.275   9.332  11.856
48754W        W13915  18.406   2.952   3.176
48755W        W13916  42.278  10.328  14.736
48756W        W13917  28.409  40.956   4.007
48757W        W13918   5.848  31.523   1.214
48758W        W13919  20.236   2.188   2.399
48759W        W13920  28.160  11.863  14.917
48760W        W13921  43.379  20.174   2.178
48761W        W13922  11.833  42.970   0.905
48762W        W13923   1.909  33.822   3.503
48763W        W13924  42.849  42.684   4.127
48764W        W13925  43.321  31.534  14.755
48765W        W13926  35.534   4.383  12.875
48766W        W13927  41.728   0.508   1.797
48767W        W13928  26.347  12.642   2.332
48768W        W13929  39.465  22.337  14.903
48769W        W13930   5.715   3.346   4.347
48770W        W13931  15.148   7.114  11.113
48771W        W13932   6.826  25.920   1.800
48772W        W13933  25.111  34.594  14.004
48773W        W13934  24.690  34.894  11.903
48774W        W13935  17.732  40.724   3.246
48775W        W13936  24.776  18.872   2.888
48776W        W13937  28.312  27.127   1.784
48777W        W13938   9.663   4.983  11.914
48778W        W13939  26.178   4.253   4.148
48779W        W13940  29.206   5.313  11.871
48780W        W13941  33.552  13.905   1.340
48781W        W13942  14.910  18.571  10.187
48782W        W13943   8.272  22.960   1.290
48783W        W13944  11.254   1.667   1.834
48784W        W13945  28.486  29.742  11.644
48785W        W13946   8.719   8.691  10.985
48786W        W13947  30.422  25.299  13.914
48787W        W13948  39.824   0.400   0.703
48788W        W13949  38.063  14.440   1.274
48789W        W13950  21.662  37.123  14.435
48790W        W13951  27.962  35.191   3.657
48791W        W13952   8.224  43.282  14.890
48792W        W13953  13.710  14.239  10.639
48793W        W13954   2.667  30.629   1.382
48794W        W13955  40.301   3.730  12.685
48795W        W13956   9.398   0.211  13.351
48796W        W13957  41.868  15.832  11.219
48797W        W13958   1.878  12.208  10.700
48798W        W13959  20.187  12.675   4.655
48799W        W13960  38.922  44.100   4.899
48800W        W13961  17.809  31.950  13.944
48801W        W13962  30.426  21.494   2.723
48802W        W13963  17.034  40.088  12.473
48803W        W13964  18.625  15.566  13.118
48804W        W13965  39.144  24.587  11.616
48805W        W13966  39.056  29.230  12.466
48806W        W13967  17.375  19.586   3.327
48807W        W13968  12.884   8.643   0.130
48808W        W13969   7.454  15.566  13.423
48809W        W13970   7.072  11.609   1.641
48810W        W13971  28.709  41.133  12.597
48811W        W13972  25.659  15.807  12.722
48812W        W13973  27.210  29.907   3.246
48813W        W13974  32.898   5.964  11.980
48814W        W13975  32.178  10.745   5.083
48815W        W13976  32.110   0.224  13.341
48816W        W13977  27.498  22.142   3.453
48817W        W13978  21.300  18.642  12.463
48818W        W13979   8.300  10.801   1.321
48819W        W13980  18.149  11.435  12.603
48820W        W13981  35.448  10.340   3.608
48821W        W13982  43.238  42.865  13.411
48822W        W13983  11.898  41.814   2.230
48823W        W13984  17.719  38.100  13.594
48824W        W13985  14.390  26.418   5.062
48825W        W13986  36.518  10.192   4.067
48826W        W13987   1.689  41.543   4.730
48827W        W13988  38.823  16.754   2.241
48828W        W13989  41.320  16.059  14.355
48829W        W13990  33.935  40.461   5.341
48830W        W13991  20.111  23.012  12.465
48831W        W13992  43.781  35.572  11.694
48832W        W13993  10.944  27.519   3.305
48833W        W13994   8.200  33.579   3.903
48834W        W13995  37.626  42.478   0.391
48835W        W13996   7.191  40.879  12.467
48836W        W13997  21.517   2.264   5.089
48837W        W13998  40.992  11.672   2.185
48838W        W13999  34.811  12.658   3.847
48839W        W14000  21.775  30.651   1.817
48840W        W14001  41.382  19.274  11.612
48841W        W14002  34.984  13.131  11.191
48842W        W14003  24.431  43.390   1.299
48843W        W14004   8.831   5.125   0.909
48844W        W14005   7.222  36.821  13.971
48845W        W14006  19.815  39.316   1.853
48846W        W14007  13.123  26.342  10.768
48847W        W14008  17.186  38.786   3.694
48848W        W14009   1.957  38.319  13.893
48849W        W14010  34.716  18.596  11.716
48850W        W14011  44.750   5.296   3.132
48851W        W14012   7.133  12.497  10.769
48852W        W14013  42.313   5.442  14.299
48853W        W14014  31.477  29.841   1.746
48854W        W14015  22.596  41.016  14.393
48855W        W14016   7.370  43.380  13.000
48856W        W14017  42.397  32.913   3.699
48857W        W14018  13.383   8.654   0.432
48858W        W14019   1.286  29.412   2.211
48859W        W14020  25.600  39.745  10.702
48860W        W14021  42.400  18.276   1.858
48861W        W14022   1.639  20.026   3.745
48862W        W14023  33.181   7.434  11.993
48863W        W14024  12.685  37.203   1.240
48864W        W14025  18.307  34.615  13.887
48865W        W14026   5.065  31.343  12.545
48866W        W14027  15.239  12.858  12.641
48867W        W14028   7.203  12.375  12.909
48868W        W14029  44.016  38.342  12.333
48869W        W14030  19.073  10.860   1.332
48870W        W14031  29.154  11.686   0.896
48871W        W14032  36.340  20.253  12.393
48872W        W14033   3.564  15.316  11.400
48873W        W14034  25.422  15.294   1.962
48874W        W14035  23.623   1.072  11.588
48875W        W14036  37.075  32.059  13.931
48876W        W14037  25.454  33.198   3.187
48877W        W14038  29.194  28.039  13.367
48878W        W14039   0.522  36.478   0.325
48879W        W14040  14.523  27.176  12.080
48880W        W14041  19.907  14.917  14.772
48881W        W14042  15.964  28.230  14.870
48882W        W14043  32.125  19.084  12.636
48883W        W14044   2.785  24.062   2.734
48884W        W14045   2.126  20.610  12.140
48885W        W14046  20.592   6.236  14.480
48886W        W14047   1.349  10.227  13.860
48887W        W14048  10.462  17.130  12.490
48888W        W14049  27.222  42.345  13.945
48889W        W14050  33.020  41.868  13.849
48890W        W14051   4.365  39.505  12.554
48891W        W14052   8.198  29.664  10.470
48892W        W14053   9.045  30.360   4.101
48893W        W14054   8.742   9.873   5.016
48894W        W14055  23.131  16.651  10.696
48895W        W14056   7.141  37.483  13.997
48896W        W14057  44.443  36.025   2.723
48897W        W14058  35.324  19.158  14.929
48898W        W14059  34.516  30.695  10.731
48899W        W14060  25.480  41.386  14.271
48900W        W14061  16.084  21.591  12.077
48901W        W14062   5.327  32.589  13.107
48902W        W14063   3.250  26.196   9.897
48903W        W14064  20.809  19.747  12.559
48904W        W14065  34.352  11.659   0.046
48905W        W14066  44.491   2.917  14.237
48906W        W14067  30.893  35.335   3.700
48907W        W14068   5.138  23.074  11.534
48908W        W14069  23.585  32.874  10.665
48909W        W14070  26.371  24.781   0.446
48910W        W14071  35.176  26.630   2.122
48911W        W14072   7.611   3.333   4.551
48912W        W14073  16.098  40.907  12.565
48913W        W14074  21.461  43.782  14.834
48914W        W14075  15.400  22.115  13.774
48915W        W14076   6.699  40.019  14.692
48916W        W14077  38.714   2.860  11.979
48917W        W14078  29.221  37.742   2.367
48918W        W14079  29.920  42.193   2.746
48919W        W14080  10.176   4.329  13.507
48920W        W14081   2.428  15.839  12.602
48921W        W14082  22.842   5.556   2.341
48922W        W14083  44.042  10.257  10.004
48923W        W14084  15.677  43.945  14.822
48924W        W14085  24.975  27.619   0.222
48925W        W14086  28.944  38.923  13.361
48926W        W14087  11.702   8.282  10.650
48927W        W14088  21.075  27.776  14.345
48928W        W14089   0.789  42.401   4.569
48929W        W14090  18.154  41.256  13.393
48930W        W14091  39.120  43.168   1.731
48931W        W14092  36.449  28.096   1.945
48932W        W14093  33.073  23.111   0.377
48933W        W14094  29.936  23.463  12.338
48934W        W14095  32.375  34.525   1.425
48935W        W14096  19.795  17.241  13.482
48936W        W14097  36.998  20.241   4.625
48937W        W14098   8.409  10.400  12.501
48938W        W14099  12.321  10.827   1.661
48939W        W14100  18.517  27.406   1.705
48940W        W14101   7.156  24.166   4.032
48941W        W14102   7.957  35.387   2.700
48942W        W14103  18.397   7.909   0.519
48943W        W14104  30.572  36.699  14.827
48944W        W14105  31.372   2.962  13.042
48945W        W14106  43.635  42.674   3.584
48946W        W14107  42.729  35.318   0.636
48947W        W14108  28.577  29.529   3.343
48948W        W14109  40.322  20.460  12.523
48949W        W14110  26.990  38.555  11.823
48950W        W14111  21.064  26.816   4.181
48951W        W14112   6.454  38.802  14.495
48952W        W14113  24.246  24.191   2.211
48953W        W14114  32.470  37.714   4.766
48954W        W14115  26.746   4.680   2.729
48955W        W14116  24.051   3.034   4.127
48956W        W14117  19.458   8.698   0.335
48957W        W14118   7.740  32.319  14.025
48958W        W14119  19.504  26.659  11.536
48959W        W14120  37.945  30.698  11.265
48960W        W14121  30.055  42.907  11.517
48961W        W14122  24.087  21.746  12.100
48962W        W14123   4.591  22.493   1.419
48963W        W14124   3.776   6.766   0.271
48964W        W14125  13.725  13.875  12.139
48965W        W14126  26.010  27.761  13.064
48966W        W14127   4.829   5.800   2.340
48967W        W14128  27.428  42.796  11.116
48968W        W14129  19.625  17.487   0.496
48969W        W14130  16.207  12.970  11.678
48970W        W14131  27.215  41.408  14.705
48971W        W14132  28.386   8.789   1.939
48972W        W14133  10.283  27.318   5.078
48973W        W14134  31.923   5.320   4.504
48974W        W14135  31.178  30.611  14.933
48975W        W14136  22.634  11.661   3.087
48976W        W14137  16.138  15.439   3.717
48977W        W14138   0.946  16.653  11.539
48978W        W14139  43.798  22.212   1.576
48979W        W14140   9.609  24.261  12.942
48980W        W14141  34.926   1.457  13.134
48981W        W14142  10.746  27.040  12.858
48982W        W14143   3.966  11.821  10.995
48983W        W14144  19.570  33.886   2.414
48984W        W14145  14.636  28.184  12.977
48985W        W14146   1.307  14.663  13.516
48986W        W14147  33.468  30.624   1.081
48987W        W14148   0.273  39.017  12.913
48988W        W14149  26.645  22.048   2.356
48989W        W14150  37.045  40.882   1.080
48990W        W14151  34.017  24.883  12.014
48991W        W14152  31.688   4.766  13.986
48992W        W14153  40.674  14.142  12.875
48993W        W14154   6.375  17.631   1.474
48994W        W14155   4.194   4.371   2.128
48995W        W14156  16.616  33.187  14.403
48996W        W14157  23.330   1.727  11.936
48997W        W14158  35.514  17.434   2.678
48998W        W14159  20.051  15.365  12.046
48999W        W14160  32.894  38.376  14.130
49000W        W14161  11.553  23.789   0.568
49001W        W14162  17.057  33.449   3.186
49002W        W14163  42.904   4.070  12.117
49003W        W14164  30.474  26.507  13.308
49004W        W14165  34.124  11.182   2.120
49005W        W14166  19.819  44.939   2.397
49006W        W14167   6.414  35.685   0.445
49007W        W14168   8.572  32.112  12.110
49008W        W14169  16.140  13.254   1.759
49009W        W14170  30.742  36.115   1.253
49010W        W14171   5.176  19.123   1.378
49011W        W14172  38.643  18.568  11.664
49012W        W14173  44.399   7.745   2.200
49013W        W14174   1.101   6.078  14.425
49014W        W14175  33.739  13.217   3.224
49015W        W14176  13.936  10.178  12.188
49016W        W14177  26.534  22.472   1.135
49017W        W14178  26.680   2.677   3.751
49018W        W14179   8.041   3.231  13.953
49019W        W14180  43.558  44.826  10.662
49020W        W14181   4.305  28.159   0.967
49021W        W14182  24.427  33.908  14.926
49022W        W14183   0.995  22.073   4.433
49023W        W14184  34.584  29.548   1.392
49024W        W14185  26.487  23.101  14.925
49025W        W14186  36.378  35.967   0.015
49026W        W14187   4.385  29.994   4.560
49027W        W14188  21.228  33.325  10.610
49028W        W14189   5.395  22.478   3.821
49029W        W14190  23.813   4.659  11.247
49030W        W14191   7.984  25.558   4.942
49031W        W14192   8.714   6.281   2.897
49032W        W14193  25.399  34.003   0.598
49033W        W14194  11.902   1.333   1.278
49034W        W14195   4.213  27.904   2.501
49035W        W14196  30.572  12.675   5.058
49036W        W14197  41.539  11.634   2.182
49037W        W14198  40.339   4.776  11.044
49038W        W14199  35.623  29.663  14.784
49039W        W14200  10.622  13.294   4.777
49040W        W14201  36.632  28.953  13.859
49041W        W14202   2.603  41.017   0.727
49042W        W14203  13.850  42.871  12.586
49043W        W14204   8.044   0.764   1.392
49044W        W14205  18.092  38.676  14.538
49045W        W14206  38.844  18.871   2.288
49046W        W14207   9.798  38.108  13.118
49047W        W14208  37.461  18.242  14.035
49048W        W14209  19.110  13.951   3.260
49049W        W14210  32.090  34.809  11.179
49050W        W14211  22.992  19.222   0.425
49051W        W14212  28.441  43.698  14.927
49052W        W14213  19.544  35.662  10.908
49053W        W14214  43.757  39.955   2.264
49054W        W14215   4.840  13.387   0.223
49055W        W14216  36.748  34.083   2.434
49056W        W14217  10.549  39.407  11.047
49057W        W14218   2.911  30.545   2.936
49058W        W14219  25.887  25.206  10.321
49059W        W14220  20.210   5.954   1.177
49060W        W14221  34.446  14.996  13.558
49061W        W14222   5.771  36.600   4.643
49062W        W14223  25.988  27.042   2.822
49063W        W14224  30.871  39.106  14.566
49064W        W14225  34.690  29.640  14.992
49065W        W14226  22.506   9.100   2.882
49066W        W14227   3.316  12.515   2.172
49067W        W14228  14.915  33.644  11.046
49068W        W14229  39.365  19.725  14.913
49069W        W14230   9.767  40.948  11.023
49070W        W14231  30.579   5.752   3.224
49071W        W14232  25.148  41.025  14.460
49072W        W14233   6.858  26.690  12.337
49073W        W14234  29.451  21.211  11.197
49074W        W14235  37.963  12.602  10.601
49075W        W14236  25.167  35.781  12.051
49076W        W14237  30.729  29.751  11.348
49077W        W14238  30.506  29.681   0.429
49078W        W14239  40.509  27.298  13.522
49079W        W14240   4.844  22.042   1.242
49080W        W14241  32.225  39.528   0.040
49081W        W14242  20.938  14.921  14.913
49082W        W14243  34.381   4.034   0.669
49083W        W14244  17.220  43.775   0.418
49084W        W14245  30.967  33.021  14.792
49085W        W14246  12.264  25.183   3.671
49086W        W14247  35.647  17.174   0.978
49087W        W14248  11.057  35.085   2.316
49088W        W14249  38.521  20.503  12.776
49089W        W14250  14.783  15.060   3.656
49090W        W14251  40.514  12.490  12.265
49091W        W14252  20.512   2.878   3.450
49092W        W14253  42.245   9.732  11.538
49093W        W14254  10.837  32.412   4.021
49094W        W14255  15.928  33.484  11.994
49095W        W14256   5.844   2.690   3.725
49096W        W14257  10.834  39.875  11.636
49097W        W14258  13.177  10.155   5.068
49098W        W14259  35.579  16.582  14.329
49099W        W14260  11.586  15.846  10.657
49100W        W14261   6.005  17.734  13.035
49101W        W14262   9.411  24.998   1.368
49102W        W14263  31.006  17.265  14.347
49103W        W14264   5.194  34.628  12.609
49104W        W14265  31.578  30.412   3.354
49105W        W14266  37.032  35.603  14.395
49106W        W14267  21.516  25.132  13.394
49107W        W14268  12.658  12.348   3.625
49108W        W14269   5.635  25.098   0.759
49109W        W14270  36.672  32.819   3.183
49110W        W14271   9.391  11.205   2.332
49111W        W14272   3.311  38.152   2.811
49112W        W14273   2.647  26.020   4.769
49113W        W14274  23.608   5.892   1.714
49114W        W14275  23.944  31.403  12.178
49115W        W14276   7.937  21.729   0.332
49116W        W14277  34.989  30.851  11.092
49117W        W14278  30.565  43.515  13.317
49118W        W14279  39.832   3.043  14.986
49119W        W14280  20.066  18.286   2.985
49120W        W14281  32.845   2.474  14.530
49121W        W14282  10.098  12.762   2.308
49122W        W14283  33.530  32.577   0.312
49123W        W14284  20.607   4.333   3.071
49124W        W14285  44.469  21.175   2.583
49125W        W14286  14.051  12.682   2.382
49126W        W14287  16.417  43.361  14.958
49127W        W14288  32.136  13.311   0.268
49128W        W14289  18.819  31.936  11.592
49129W        W14290   0.816  29.868   1.568
49130W        W14291  33.629  32.212   4.374
49131W        W14292  24.039  27.743   1.224
49132W        W14293  23.708  30.609  14.280
49133W        W14294  32.056  35.899  14.748
49134W        W14295   8.516  21.577   2.031
49135W        W14296  37.890  36.788   2.389
49136W        W14297   3.426  29.564   5.090
49137W        W14298   7.242   4.115  13.474
49138W        W14299  12.743  11.646  12.987
49139W        W14300  16.209  39.173   4.816
49140W        W14301  43.645  31.614   1.864
49141W        W14302   5.755  12.383  14.458
49142W        W14303  37.847  29.919  10.786
49143W        W14304  39.260  12.346  12.038
49144W        W14305  43.354  28.413  12.062
49145W        W14306  37.067   3.321   0.667
49146W        W14307  34.519  26.115  13.464
49147W        W14308  28.765  33.463   1.300
49148W        W14309  12.069  33.465   4.498
49149W        W14310  30.549  37.893   4.411
49150W        W14311   8.747  43.799  11.144
49151W        W14312  32.510  37.348  13.815
49152W        W14313  38.145  31.897  14.031
49153W        W14314   5.757  33.376  14.895
49154W        W14315  40.420   8.374   4.754
49155W        W14316   9.443  30.416   1.817
49156W        W14317   5.606  40.325   3.246
49157W        W14318  41.344  35.977   9.903
49158W        W14319  13.601   5.768  11.451
49159W        W14320   7.503  16.545  12.901
49160W        W14321  44.753  34.814  13.417
49161W        W14322  32.825  29.929   4.596
49162W        W14323  16.954  22.733   2.224
49163W        W14324  16.079  38.458   0.506
49164W        W14325  25.966   8.992  11.148
49165W        W14326  35.153  25.166  12.474
49166W        W14327   5.417  27.222  13.435
49167W        W14328  19.529  30.969   2.097
49168W        W14329  20.522  44.963  11.151
49169W        W14330  33.935  18.575  13.473
49170W        W14331  17.524  37.530  10.287
49171W        W14332  12.383   8.349  11.972
49172W        W14333  18.080  37.412   2.936
49173W        W14334  25.504  14.669   4.680
49174W        W14335  10.641  41.936   3.968
49175W        W14336  33.998  42.314  11.185
49176W        W14337  25.916  33.877   2.232
49177W        W14338  40.229  31.778   3.634
49178W        W14339  23.875  29.194  14.679
49179W        W14340  13.825  19.244  13.891
49180W        W14341  10.297  12.074   1.328
49181W        W14342  14.707  20.288  12.585
49182W        W14343  32.895  42.722  12.407
49183W        W14344  24.757  37.608  14.926
49184W        W14345  41.128  13.821  12.636
49185W        W14346   8.591   1.262   3.183
49186W        W14347   8.618  23.204   4.572
49187W        W14348  11.152  11.131   2.343
49188W        W14349  28.672   8.980  14.597
49189W        W14350   0.444  31.719  13.787
49190W        W14351  29.660  14.052   0.768
49191W        W14352  10.005  20.518   0.203
49192W        W14353  22.510  28.303   2.826
49193W        W14354   7.894  14.451  13.405
49194W        W14355  31.046  16.052  11.143
49195W        W14356   8.529  22.671  14.355
49196W        W14357  29.518  25.747  14.379
49197W        W14358  31.002  44.938   4.436
49198W        W14359  16.400  11.217  10.763
49199W        W14360  25.523  26.774   0.989
49200W        W14361  11.911  43.367  12.883
49201W        W14362  14.190  40.646   3.174
49202W        W14363  33.065   7.106  11.621
49203W        W14364  27.962  39.337   0.322
49204W        W14365  13.806  14.593   4.455
49205W        W14366  30.840   1.896  12.491
49206W        W14367  17.454   2.406   0.303
49207W        W14368  39.556  13.684   3.627
49208W        W14369  39.315  27.254  11.219
49209W        W14370  12.483   9.097  11.537
49210W        W14371   8.024  24.034   1.431
49211W        W14372   8.168  36.938  14.999
49212W        W14373  17.178  21.416   1.671
49213W        W14374  35.072  17.153  12.922
49214W        W14375   5.760  29.453   3.164
49215W        W14376   7.276   3.510  10.151
49216W        W14377   5.882   5.658  11.605
49217W        W14378  40.295  12.639   2.848
49218W        W14379  26.936   9.856   2.370
49219W        W14380  20.739  24.509  13.581
49220W        W14381  39.345  26.036  10.910
49221W        W14382  39.459  31.716   3.516
49222W        W14383  43.499  10.710  11.676
49223W        W14384  37.806  23.438  14.435
49224W        W14385  29.644   4.143   0.755
49225W        W14386  28.997  28.878   1.118
49226W        W14387  34.925  11.879  12.789
49227W        W14388   6.300  23.289   4.991
49228W        W14389  43.281  10.530   0.271
49229W        W14390  38.950  27.947  13.768
49230W        W14391  27.131  22.056   2.098
49231W        W14392  41.529   0.402  14.774
49232W        W14393   6.706   8.947  11.705
49233W        W14394  39.547  26.892  14.304
49234W        W14395  23.753  27.682  11.744
49235W        W14396   7.792  24.930  14.690
49236W        W14397  30.920   7.646  12.886
49237W        W14398  15.622  25.088  11.484
49238W        W14399  28.199  16.261  10.917
49239W        W14400  44.678   6.494  13.661
49240W        W14401  25.987  29.198  10.752
49241W        W14402  14.090  43.489  11.910
49242W        W14403  15.652  13.720  12.409
49243W        W14404   2.761  21.998  11.903
49244W        W14405   0.318  26.029  13.412
49245W        W14406  27.995  30.406  14.391
49246W        W14407   7.052  10.865  12.581
49247W        W14408  14.128   9.186  14.780
49248W        W14409  19.655  20.560   3.584
49249W        W14410  15.876   5.240  14.378
49250W        W14411  30.199   8.194  12.338
49251W        W14412  23.111  44.354   2.606
49252W        W14413  37.004  12.716   0.910
49253W        W14414  34.531  23.942  13.392
49254W        W14415  41.409  16.635   3.589
49255W        W14416  37.166  20.186  11.870
49256W        W14417  19.190  30.466  12.125
49257W        W14418  39.519  13.461   2.355
49258W        W14419  17.009  42.961  11.198
49259W        W14420  10.344  12.148  13.818
49260W        W14421   1.958  23.784  12.909
49261W        W14422   7.427  38.311  12.623
49262W        W14423  34.700  24.657  13.849
49263W        W14424  10.317   6.047  12.415
49264W        W14425  34.468  34.599  13.698
49265W        W14426  42.598  22.579   2.833
49266W        W14427  26.294  31.256   1.816
49267W        W14428  44.665  37.014  12.070
49268W        W14429  27.996  20.516  10.621
49269W        W14430  13.874  29.106  12.937
49270W        W14431   5.432  30.578  13.395
49271W        W14432  41.445  21.425  14.090
49272W        W14433  16.460  26.085  12.479
49273W        W14434   5.600   5.288   5.031
49274W        W14435  34.887  22.234  10.202
49275W        W14436  33.916  20.020   2.872
49276W        W14437  20.070  44.951  14.989
49277W        W14438   2.002  24.562  11.008
49278W        W14439  13.153  24.014   1.519
49279W        W14440  10.748  14.735   3.138
49280W        W14441  27.260  35.931  14.821
49281W        W14442  40.606  30.304   4.045
49282W        W14443  19.069  13.699   1.279
49283W        W14444   4.758  16.800   0.830
49284W        W14445  16.257  21.555   2.169
49285W        W14446  33.502  30.435  10.488
49286W        W14447   4.995  20.762  10.748
49287W        W14448  43.403  30.829   1.663
49288W        W14449   8.405  26.488   3.355
49289W        W14450  39.498  18.572   4.159
49290W        W14451  35.858  40.540   0.374
49291W        W14452  19.106  31.880  11.178
49292W        W14453  28.695  34.981   0.793
49293W        W14454  42.998   0.036  13.787
49294W        W14455  15.069  39.435  12.480
49295W        W14456  11.867  44.956   1.940
49296W        W14457  25.448   0.699  13.551
49297W        W14458  20.634   6.280   1.030
49298W        W14459  35.619  39.961   2.658
49299W        W14460  16.033   8.282   2.790
49300W        W14461   3.258   8.332   0.889
49301W        W14462  44.484  30.988   0.633
49302W        W14463  33.380  29.206  11.157
49303W        W14464   5.805  39.008  11.006
49304W        W14465  15.277  25.628   0.495
49305W        W14466  22.689  36.657  13.949
49306W        W14467   4.490  14.587   2.798
49307W        W14468  29.447   9.537   4.168
49308W        W14469  25.824  35.906   0.822
49309W        W14470  36.982  19.967  14.398
49310W        W14471  35.318  42.788   2.735
49311W        W14472  40.383   3.975   3.743
49312W        W14473  29.801  12.007   0.513
49313W        W14474   2.357  10.771  11.106
49314W        W14475   7.342  26.671  12.113
49315W        W14476  23.719   5.754   3.691
49316W        W14477  21.542  29.731   1.400
49317W        W14478  35.325  20.247  12.872
49318W        W14479  40.283   7.425  14.907
49319W        W14480  35.201   4.213   1.237
49320W        W14481   7.660  39.295   2.270
49321W        W14482  19.748  41.228   0.074
49322W        W14483  43.910  11.840   2.266
49323W        W14484   4.891   8.802  11.209
49324W        W14485  23.619  34.887   3.337
49325W        W14486  21.111  30.872   1.270
49326W        W14487   6.905  37.143  12.420
49327W        W14488  42.601  13.399  12.483
49328W        W14489  19.635  30.387  12.398
49329W        W14490   0.370   2.533   1.438
49330W        W14491  30.089  32.135  11.841
49331W        W14492  26.689  41.687  13.061
49332W        W14493  11.545   3.842   3.646
49333W        W14494   9.966   7.879  11.576
49334W        W14495  28.625  38.413   2.534
49335W        W14496  15.617  35.298  13.815
49336W        W14497   3.099  42.976  13.989
49337W        W14498  43.104  17.877   0.773
49338W        W14499   8.660  27.660   1.247
49339W        W14500  18.990  24.226   1.907
49340W        W14501  17.051   3.313  13.394
49341W        W14502   2.781  22.671  10.695
49342W        W14503  20.466   3.249  14.886
49343W        W14504  25.776  29.111  11.988
49344W        W14505  41.570  36.414  12.775
49345W        W14506  44.399   1.355   3.304
49346W        W14507  42.801  35.858  11.832
49347W        W14508  27.203  14.361   3.212
49348W        W14509  16.317  39.317   0.961
49349W        W14510  30.452   9.089   0.510
49350W        W14511  43.423  20.523   0.773
49351W        W14512   9.348  24.845   5.050
49352W        W14513   6.206  31.652  12.067
49353W        W14514   8.422  32.796   4.583
49354W        W14515   1.785  19.657   2.855
49355W        W14516  31.163   9.275   3.659
49356W        W14517  34.812  16.819   4.718
49357W        W14518  29.699  44.403   4.204
49358W        W14519  41.939   3.379   4.620
49359W        W14520  38.501  28.165   0.749
49360W        W14521  44.209  13.159  14.590
49361W        W14522  37.875  12.280  11.929
49362W        W14523  25.433  43.791  13.339
49363W        W14524  44.787  22.188  13.541
49364W        W14525  42.971  30.686   4.296
49365W        W14526  43.879  16.829   4.352
49366W        W14527  40.026  13.685  11.186
49367W        W14528   8.198   2.793   3.930
49368W        W14529   5.381  39.898  12.963
49369W        W14530  31.802  21.485   4.181
49370W        W14531   5.745  41.907   4.764
49371W        W14532  43.912  14.271   2.814
49372W        W14533  10.627  27.935   4.576
49373W        W14534  15.079  13.934   4.612
49374W        W14535  28.614  20.336   0.835
49375W        W14536  11.150  28.668   1.845
49376W        W14537   2.030  34.501   4.525
49377W        W14538  26.331  41.797  12.078
49378W        W14539   6.853  44.428   0.638
49379W        W14540  43.954  11.672  12.958
49380W        W14541  19.145   0.008   0.676
49381W        W14542  38.862   3.939   4.100
49382W        W14543   0.295  32.867  14.879
49383W        W14544  24.720   0.536  11.719
49384W        W14545  30.245  19.315   2.253
49385W        W14546  39.471   3.612  12.040
49386W        W14547  25.200   8.878  13.047
49387W        W14548   0.367  19.323   0.071
49388W        W14549  37.534   2.160  12.902
49389W        W14550  32.660  28.384  11.575
49390W        W14551  14.332  12.306   0.313
49391W        W14552  20.035  20.940  11.084
49392W        W14553  31.602  28.240  13.931
49393W        W14554  21.176  26.770   3.312
49394W        W14555  28.591  40.098  10.701
49395W        W14556   3.302   6.422  14.317
49396W        W14557  12.100  15.595   4.550
49397W        W14558  35.348   0.332   2.833
49398W        W14559  11.578  23.390  13.956
49399W        W14560  37.514  10.625  10.077
49400W        W14561  39.496   5.857  14.753
49401W        W14562  33.078   8.012   4.880
49402W        W14563   7.988  33.120  13.061
49403W        W14564   1.462  15.769   2.563
49404W        W14565  34.577  10.861   1.251
49405W        W14566  10.803  44.000  10.654
49406W        W14567  26.531  24.347  11.649
49407W        W14568   8.435   7.426   2.174
49408W        W14569  44.552  11.367   1.819
49409W        W14570  39.407  27.665  14.239
49410W        W14571  16.068   1.852   0.306
49411W        W14572  29.223  43.288  13.072
49412W        W14573  33.726  44.949   1.387
49413W        W14574  40.337  41.807   4.088
49414W        W14575   2.719  41.711   0.005
49415W        W14576  16.556  38.910  13.901
49416W        W14577  34.529  13.789  11.381
49417W        W14578  31.673   6.593  11.101
49418W        W14579  24.969   9.886  10.683
49419W        W14580  10.350  38.888   3.271
49420W        W14581   5.424  12.238   1.958
49421W        W14582  22.579  31.968  13.910
49422W        W14583   0.186  44.988   3.077
49423W        W14584   4.897  14.743  14.310
49424W        W14585  22.502   9.694   4.098
49425W        W14586   3.344  34.689  13.843
49426W        W14587   6.189  17.863  14.398
49427W        W14588  31.083  17.048   2.719
49428W        W14589  16.260   9.412   0.596
49429W        W14590  34.904   1.941  10.773
49430W        W14591   5.339  11.926  12.887
49431W        W14592  10.908   8.033   2.536
49432W        W14593  14.188   6.036   1.181
49433W        W14594  17.878  41.985   0.795
49434W        W14595  44.086  27.008  12.787
49435W        W14596  42.037   1.958   4.152
49436W        W14597   2.939  44.863   4.381
49437W        W14598  40.255  44.901  12.008
49438W        W14599  40.791  24.826   2.585
49439W        W14600  22.837  43.249  11.730
49440W        W14601  17.824  29.193  12.396
49441W        W14602  24.587  42.763  11.827
49442W        W14603  24.501  42.832   2.816
49443W        W14604  37.428  16.700   4.059
49444W        W14605  21.809  19.492  13.859
49445W        W14606  22.298  24.414   0.728
49446W        W14607  22.540  36.533  14.454
49447W        W14608   7.439  12.206  14.928
49448W        W14609  16.301  33.414   2.610
49449W        W14610  33.004  18.572   4.807
49450W        W14611  15.353  26.916  14.511
49451W        W14612   8.161   4.306   2.002
49452W        W14613  20.952  41.335   2.517
49453W        W14614  10.616  15.320   2.379
49454W        W14615  19.239  44.048   4.106
49455W        W14616  20.562  40.507  11.498
49456W        W14617   4.745  16.264   0.799
49457W        W14618  12.782   5.877   4.364
49458W        W14619   4.932  32.565   3.628
49459W        W14620  25.035  44.801   2.752
49460W        W14621  28.587   5.049  14.931
49461W        W14622  20.462  15.910   1.217
49462W        W14623  10.697  30.039  12.396
49463W        W14624  21.694  20.089  12.715
49464W        W14625  30.857  39.716  14.680
49465W        W14626  27.975   9.838   1.309
49466W        W14627   1.468   4.398  11.596
49467W        W14628  29.205   4.078  13.033
49468W        W14629  40.501  41.661   0.382
49469W        W14630   0.516  44.823  14.588
49470W        W14631  10.944  13.503  13.901
49471W        W14632  14.111   4.731   1.349
49472W        W14633  14.298  22.703  10.667
49473W        W14634   1.960  30.884   4.641
49474W        W14635  13.895  37.809  13.415
49475W        W14636  42.982  23.407   4.058
49476W        W14637  40.976  10.283   0.655
49477W        W14638  13.241  41.913  13.516
49478W        W14639  38.039  23.729  14.811
49479W        W14640  37.286  14.701   3.114
49480W        W14641  38.194  36.066   2.409
49481W        W14642   8.140  11.827   1.889
49482W        W14643  44.275   0.402  13.367
49483W        W14644  12.839  15.627   1.684
49484W        W14645   8.330  40.997  12.172
49485W        W14646   2.173  36.543  13.843
49486W        W14647   4.506  13.521   4.981
49487W        W14648  30.887  35.082  13.028
49488W        W14649  18.977  12.953  11.740
49489W        W14650  15.810  22.500   1.487
49490W        W14651  21.169  37.429   4.272
49491W        W14652   0.929  15.265   1.038
49492W        W14653  35.977   1.942   1.788
49493W        W14654  41.968  25.409   0.809
49494W        W14655  35.769  30.392   2.831
49495W        W14656  18.497  25.666   2.420
49496W        W14657  16.284  27.099   4.641
49497W        W14658  26.145   0.400  10.751
49498W        W14659  39.530   5.257   4.598
49499W        W14660  14.400  28.146   3.741
49500W        W14661  10.167  36.406   1.950
49501W        W14662  32.573   4.264   2.189
49502W        W14663  27.211  18.556  11.149
49503W        W14664  16.560  23.445  13.827
49504W        W14665   6.474  25.253  11.593
49505W        W14666  37.992  43.708   4.203
49506W        W14667   4.382  41.457   1.361
49507W        W14668   0.991  11.618   1.085
49508W        W14669  36.915  44.777   4.119
49509W        W14670  14.313  20.127  13.330
49510W        W14671  22.596  17.171   4.369
49511W        W14672  34.916   2.832   1.312
49512W        W14673  27.032  24.246  14.789
49513W        W14674   8.485  40.926  10.861
49514W        W14675  20.670  28.237  14.020
49515W        W14676  35.523  36.376   1.021
49516W        W14677  43.390  14.366   2.978
49517W        W14678   9.840  15.654  10.855
49518W        W14679  23.606   6.838  12.012
49519W        W14680   5.658   7.686   2.902
49520W        W14681  22.648  13.135  10.225
49521W        W14682   0.869  20.645  13.413
49522W        W14683  29.725  13.760   3.772
49523W        W14684  36.847  33.422  10.997
49524W        W14685   2.748  42.572  11.957
49525W        W14686  13.379  39.044   9.904
49526W        W14687  27.133  21.640  11.157
49527W        W14688  21.763   9.702  11.693
49528W        W14689  29.497   2.001   2.845
49529W        W14690  19.447  37.146   2.257
49530W        W14691  34.012  28.776  13.325
49531W        W14692  23.491  29.968   0.559
49532W        W14693  40.041   1.241   1.312
49533W        W14694  35.228   3.576   2.329
49534W        W14695  25.386  14.372   0.505
49535W        W14696  18.842  29.204   1.234
49536W        W14697   5.228   7.280   0.879
49537W        W14698   4.367  30.548  10.686
49538W        W14699  42.481  12.150  12.937
49539W        W14700   5.287  26.139  12.082
49540W        W14701  25.223  42.495   3.539
49541W        W14702  23.105   8.296  10.467
49542W        W14703   6.266  23.524   2.794
49543W        W14704   6.565  15.216   0.391
49544W        W14705  26.693   7.433   4.626
49545W        W14706  15.730   8.682  10.454
49546W        W14707  10.982   7.231   3.984
49547W        W14708  41.837  30.552  14.999
49548W        W14709  23.188  24.728   4.540
49549W        W14710  31.575  24.064   9.856
49550W        W14711  18.800   4.959  13.952
49551W        W14712  14.375  14.147   1.929
49552W        W14713  21.297   1.779   2.879
49553W        W14714  35.499  23.049   2.354
49554W        W14715  21.976  31.912  14.355
49555W        W14716  11.008  43.775  14.843
49556W        W14717  34.635  23.635   1.066
49557W        W14718  10.314  29.643  14.930
49558W        W14719  16.037  33.842  11.574
49559W        W14720  38.833   2.922   4.286
49560W        W14721   2.978  40.676   0.867
49561W        W14722  15.380  17.832   2.354
49562W        W14723  41.432  17.997   0.486
49563W        W14724   5.303  42.861   0.134
49564W        W14725   3.973  14.690   0.876
49565W        W14726   9.208  17.129   2.270
49566W        W14727  35.357  13.275  11.516
49567W        W14728  11.601  39.261  12.491
49568W        W14729  20.639  31.292  13.462
49569W        W14730  37.837  44.829   3.140
49570W        W14731  19.265  12.131  14.029
49571W        W14732  14.806  19.559   9.649
49572W        W14733  19.606  20.500  12.122
49573W        W14734   8.698  42.478  14.573
49574W        W14735   1.630   3.973  11.144
49575W        W14736   2.830   4.659  14.941
49576W        W14737  16.696  16.055  11.500
49577W        W14738  39.864  15.900   3.321
49578W        W14739   9.077  21.613  11.224
49579W        W14740  26.149  36.399  14.514
49580W        W14741  11.977  12.692   0.503
49581W        W14742   8.332  32.586   2.216
49582W        W14743  18.027  35.586  11.181
49583W        W14744  27.060   2.123   0.076
49584W        W14745  24.107  19.274  13.986
49585W        W14746  37.595  25.401  12.634
49586W        W14747   6.752  14.900  13.497
49587W        W14748  26.416  36.624   1.873
49588W        W14749   2.187  20.598  11.157
49589W        W14750  22.605  18.610   0.737
49590W        W14751  41.225   6.439   4.078
49591W        W14752  16.078  31.160   3.617
49592W        W14753  13.195  18.125   2.374
49593W        W14754  14.916  21.219  12.515
49594W        W14755   1.530  10.699   3.833
49595W        W14756  14.800  29.879   3.677
49596W        W14757  40.796  42.884  13.983
49597W        W14758  11.734  17.614  14.062
49598W        W14759  14.137  17.697  11.667
49599W        W14760  23.315  31.476  12.939
49600W        W14761  44.318  17.442  13.060
49601W        W14762   7.808  40.984   1.817
49602W        W14763  33.988  40.084  13.863
49603W        W14764  10.462  31.945  12.567
49604W        W14765  34.371   5.326  11.107
49605W        W14766   1.979  41.939   4.959
49606W        W14767  22.473  24.681   0.287
49607W        W14768  16.354  29.475  14.417
49608W        W14769  31.640  13.415  10.737
49609W        W14770  43.430  42.955  12.405
49610W        W14771  40.015  33.867   5.076
49611W        W14772  36.505   3.421   3.325
49612W        W14773  34.157  15.229   2.221
49613W        W14774   3.743  26.121   1.144
49614W        W14775   4.175   1.643   0.109
49615W        W14776  18.230   6.396   2.803
49616W        W14777  44.428  34.746   5.021
49617W        W14778  20.138  11.843   0.415
49618W        W14779   1.790  36.947   2.744
49619W        W14780   7.776   2.017   2.931
49620W        W14781  27.493  40.966  13.883
49621W        W14782  44.721  13.056  14.536
49622W        W14783   6.343  13.711   1.966
49623W        W14784  14.254  25.750   1.843
49624W        W14785  14.198  18.630   4.163
49625W        W14786   4.606  36.352   1.815
49626W        W14787  18.155  40.059  14.763
49627W        W14788  23.664   1.418   3.136
49628W        W14789  32.528  33.416  10.754
49629W        W14790  37.966  33.899   2.793
49630W        W14791   7.026  41.749  11.577
49631W        W14792  37.459  33.575  10.281
49632W        W14793  26.410   1.271  11.527
49633W        W14794  34.574  10.913  14.464
49634W        W14795  33.789  38.298   5.035
49635W        W14796  32.618  35.289  13.500
49636W        W14797  19.181  28.458   1.307
49637W        W14798  13.040  40.267  12.471
49638W        W14799   7.919  20.009   3.125
49639W        W14800  17.808  14.072  11.880
49640W        W14801  42.366  18.135  10.308
49641W        W14802  34.655  27.489   1.154
49642W        W14803   9.369  44.662   0.226
49643W        W14804  44.965  39.324  10.620
49644W        W14805  42.262  40.076  13.592
49645W        W14806  22.223  43.495  14.750
49646W        W14807  19.540  18.638   2.202
49647W        W14808  30.079  21.875   3.609
49648W        W14809   4.977  18.640   1.440
49649W        W14810  11.476   9.675  13.141
49650W        W14811  33.012   2.069   2.734
49651W        W14812  43.548  36.164   3.115
49652W        W14813  17.060   8.427   4.336
49653W        W14814  17.186  30.135   4.617
49654W        W14815  24.018   3.867  12.053
49655W        W14816  37.897  40.283  12.991
49656W        W14817  39.246  20.562   1.823
49657W        W14818   9.817  40.338   1.329
49658W        W14819   3.317  39.106   4.610
49659W        W14820  19.823  38.461   4.651
49660W        W14821   0.877  35.832  12.907
49661W        W14822  29.858  37.631  13.971
49662W        W14823  21.533  17.220   1.568
49663W        W14824  15.033  31.648   3.199
49664W        W14825  14.236  22.288  12.874
49665W        W14826  41.572   8.710  12.482
49666W        W14827  43.260  11.449   3.783
49667W        W14828  37.438  43.212  13.912
49668W        W14829  43.745  44.059  11.101
49669W        W14830  11.893  20.180  11.640
49670W        W14831  37.327  37.381   0.600
49671W        W14832  28.054  17.603  11.172
49672W        W14833  41.500  15.703  10.797
49673W        W14834  13.387  16.202   1.536
49674W        W14835  18.834  27.656   2.820
49675W        W14836  19.692  35.386   4.469
49676W        W14837  24.544  41.358   3.188
49677W        W14838   3.217  34.151  11.107
49678W        W14839   1.217   1.728   0.718
49679W        W14840   5.473  33.420   0.997
49680W        W14841   7.886  43.723   3.289
49681W        W14842  26.463   9.132  11.054
49682W        W14843  25.262   3.862   1.698
49683W        W14844   9.157  25.976   0.236
49684W        W14845  29.469  30.958  11.963
49685W        W14846  27.713   3.352  15.000
49686W        W14847  39.385  42.398   3.255
49687W        W14848  10.823  40.797   0.949
49688W        W14849   3.481  23.247  10.628
49689W        W14850   3.920  40.897  13.225
49690W        W14851  20.146  20.825  14.585
49691W        W14852  31.718   8.346   3.400
49692W        W14853  11.659  11.941   4.984
49693W        W14854  22.130   6.463   4.359
49694W        W14855   0.379   0.940   2.126
49695W        W14856  13.175   8.199   0.043
49696W        W14857  11.690  14.920  14.879
49697W        W14858  31.852   8.690   0.892
49698W        W14859  20.400  13.650  13.790
49699W        W14860  32.850  20.501   0.469
49700W        W14861   1.552  25.183  11.845
49701W        W14862  33.096  30.475   3.344
49702W        W14863  40.073   9.400   1.869
49703W        W14864   1.388   7.670   2.374
49704W        W14865   5.185  34.808  10.798
49705W        W14866   9.294  17.755   3.129
49706W        W14867  19.440   4.042  12.923
49707W        W14868  25.441  10.661   1.775
49708W        W14869  16.301   2.444  12.869
49709W        W14870  14.761  20.154   1.086
49710W        W14871   6.225  34.014   4.499
49711W        W14872  36.937  14.467  13.454
49712W        W14873  26.671  22.723   5.011
49713W        W14874  33.820   8.274  11.102
49714W        W14875   2.759  40.513  11.879
49715W        W14876  43.349  44.850  14.991
49716W        W14877  27.687  10.802   1.705
49717W        W14878   4.900   4.186   3.322
49718W        W14879  24.794  26.546   4.594
49719W        W14880  23.150  17.625  10.645
49720W        W14881  37.503  33.978  10.611
49721W        W14882  29.653  21.239  12.077
49722W        W14883  39.755  24.038  12.095
49723W        W14884  37.387   6.680  14.904
49724W        W14885  30.547  16.340   2.241
49725W        W14886  39.350  29.438   2.116
49726W        W14887  44.113  19.774   5.009
49727W        W14888   5.568  12.299   5.637
49728W        W14889  20.451  11.393  12.963
49729W        W14890  19.268  34.639  13.909
49730W        W14891  26.673  42.491   0.288
49731W        W14892  16.969  11.600   2.174
49732W        W14893  35.968  27.731   1.515
49733W        W14894  28.397  29.289  14.775
49734W        W14895   5.790  14.273  12.563
49735W        W14896  10.262  11.608   1.680
49736W        W14897  13.607   2.950   2.291
49737W        W14898   7.831  10.578   4.991
49738W        W14899  22.075   4.923   4.533
49739W        W14900   2.986  38.496  12.048
49740W        W14901  30.972  18.554  13.488
49741W        W14902   0.962  40.302   0.403
49742W        W14903   8.604   5.272   2.731
49743W        W14904  12.267  36.447   2.634
49744W        W14905  43.232  38.010   3.177
49745W        W14906  16.269  39.950  13.817
49746W        W14907  33.934   3.868   2.362
49747W        W14908  40.661  34.801  10.365
49748W        W14909  42.839  31.674   0.840
49749W        W14910  38.968  14.278   2.103
49750W        W14911  41.950  19.787  14.214
49751W        W14912   6.317  21.650  11.714
49752W        W14913   8.110   0.945   3.618
49753W        W14914  33.107  34.015  13.337
49754W        W14915  33.788  15.356  10.158
49755W        W14916  43.259  40.226  13.987
49756W        W14917   0.073  11.920   0.761
49757W        W14918  23.107  11.894   3.227
49758W        W14919   3.995  14.206   4.150
49759W        W14920  41.583  21.873   1.953
49760W        W14921  43.479  15.788  10.325
49761W        W14922  21.064  16.049   2.639
49762W        W14923   8.471  34.875   2.184
49763W        W14924  23.445  35.341   3.111
49764W        W14925  20.185  25.885  14.857
49765W        W14926  40.872  23.603  14.134
49766W        W14927  34.003   8.992  11.849
49767W        W14928  12.767  16.653   0.029
49768W        W14929  18.862  44.262   3.829
49769W        W14930  38.742  28.143  12.392
49770W        W14931  30.049   8.306   3.656
49771W        W14932  28.540  17.281   3.776
49772W        W14933  40.435  22.752  13.875
49773W        W14934  44.329  41.439  10.544
49774W        W14935  16.211   1.720  13.379
49775W        W14936  41.925  30.674   2.857
49776W        W14937  30.870  13.711   2.214
49777W        W14938   5.604  20.130   1.817
49778W        W14939  43.929  24.098   4.650
49779W        W14940  44.853   6.563  11.972
49780W        W14941  10.763  11.739  11.649
49781W        W14942   4.613  22.716  13.513
49782W        W14943   5.951  15.303  13.960
49783W        W14944   4.458   4.866  14.300
49784W        W14945  18.574  36.588  12.935
49785W        W14946  33.792  11.362   9.931
49786W        W14947  18.096  10.230   2.229
49787W        W14948  22.560  29.878  12.957
49788W        W14949   0.348  14.128  11.791
49789W        W14950  16.711   5.037   3.632
49790W        W14951  25.688   7.192  14.988
49791W        W14952  38.150   8.427  11.183
49792W        W14953  30.651  12.350  11.155
49793W        W14954  30.745  15.386   4.541
49794W        W14955  41.102   7.753  11.444
49795W        W14956   9.249  28.997   4.169
49796W        W14957  35.953  20.683   4.654
49797W        W14958   0.445  43.996   3.153
49798W        W14959  13.380  19.435   0.784
49799W        W14960  19.659  30.445  14.297
49800W        W14961  12.526  11.708   1.443
49801W        W14962  10.598  43.761  13.918
49802W        W14963  22.121  21.659  13.099
49803W        W14964  20.474  24.017   1.447
49804W        W14965  22.030   7.519   2.960
49805W        W14966   0.665  38.480   1.268
49806W        W14967  42.346  26.719   1.871
49807W        W14968  30.474  12.556  10.711
49808W        W14969  31.895   1.479  12.042
49809W        W14970   2.553  27.205  12.931
49810W        W14971  30.177   3.818   3.480
49811W        W14972   0.693  35.894  13.430
49812W        W14973  23.518   8.708  13.434
49813W        W14974   6.614  31.160  10.138
49814W        W14975   3.507  35.448   4.280
49815W        W14976   7.631   3.980  11.579
49816W        W14977  38.427   3.661   4.149
49817W        W14978  22.238  32.777  11.722
49818W        W14979   9.190  11.191  10.670
49819W        W14980  38.570  42.903  11.116
49820W        W14981  32.966  13.575   0.613
49821W        W14982  32.684  44.796   2.729
49822W        W14983  40.016   6.832   0.484
49823W        W14984   1.673  25.999   2.678
49824W        W14985  26.603  10.884   0.170
49825W        W14986  27.407  12.135   3.508
49826W        W14987  31.511  37.111  14.859
49827W        W14988  40.252   2.059   2.806
49828W        W14989  10.671  42.515   3.252
49829W        W14990  24.517   7.715  10.757
49830W        W14991   2.194  25.527   1.848
49831W        W14992  21.380   6.216  12.526
49832W        W14993   8.323  29.697  12.823
49833W        W14994  29.072  11.217   0.516
49834W        W14995  33.392  37.015   1.375
49835W        W14996  35.655  20.657   1.844
49836W        W14997  30.442  41.985  14.320
49837W        W14998  43.970  10.294   3.417
49838W        W14999   7.946  34.432  12.830
49839W        W15000   2.133  10.198   2.365
49840W        W15001  43.147   2.139   3.716
49841W        W15002  32.465  17.682   4.185
49842W        W15003  33.039  33.282   2.643
49843W        W15004   2.246   1.498   3.815
49844W        W15005  42.767  33.005   4.020
49845W        W15006   2.313  24.618  14.274
49846W        W15007  33.889  29.468   0.400
49847W        W15008  17.076  30.201  13.048
49848W        W15009  32.069  25.949   4.157
49849W        W15010  32.555  15.740   3.421
49850W        W15011  43.361  25.777  12.450
49851W        W15012  31.564  31.380   4.206
49852W        W15013  40.485  37.277  11.062
49853W        W15014  24.356  37.449  11.876
49854W        W15015   9.688  35.900  10.669
49855W        W15016  10.336   4.775  14.411
49856W        W15017   4.262  21.692   3.347
49857W        W15018  29.568  26.702   4.995
49858W        W15019  21.170  10.753  12.948
49859W        W15020  27.985  19.386   2.242
49860W        W15021  20.596  24.997  11.643
49861W        W15022  21.559   4.987  11.122
49862W        W15023  33.576  13.294  13.359
49863W        W15024  41.565  25.870  12.093
49864W        W15025  19.621  31.917  14.354
49865W        W15026   3.825   8.614  11.663
49866W        W15027  13.397  37.917   4.666
49867W        W15028   7.346   2.728   1.335
49868W        W15029  27.509  12.373   3.057
49869W        W15030  39.542  23.244   4.484
49870W        W15031  10.871   1.468  14.447
49871W        W15032  19.741  36.148  10.584
49872W        W15033  41.654  32.543  14.792
49873W        W15034   8.100  29.792  10.957
49874W        W15035  14.052   1.802   3.584
49875W        W15036  27.240   0.827  13.953
49876W        W15037  42.977   1.368  14.457
49877W        W15038  40.755  16.482   1.121
49878W        W15039  14.527  43.445   4.542
49879W        W15040  26.732  38.867  12.160
49880W        W15041  19.756  38.917   2.243
49881W        W15042  38.362  34.648  12.422
49882W        W15043  24.217  18.276   0.024
49883W        W15044  29.252  26.165   2.786
49884W        W15045  35.459  20.636  13.344
49885W        W15046   0.982  24.667  14.823
49886W        W15047  35.921  10.305   3.857
49887W        W15048  41.197  42.070   4.110
49888W        W15049  16.050   3.674   0.755
49889W        W15050   4.493   6.221   4.683
49890W        W15051  41.623  11.387  10.763
49891W        W15052  11.792   1.266   2.253
49892W        W15053  21.776  43.103  12.039
49893W        W15054  25.054  44.274   2.806
49894W        W15055  32.899  12.700   1.448
49895W        W15056   1.141  13.496   3.313
49896W        W15057  34.514  35.522  11.918
49897W        W15058   8.383  37.348   3.697
49898W        W15059  36.598  42.323   9.944
49899W        W15060  20.623  17.096  13.773
49900W        W15061   4.128   9.636   1.477
49901W        W15062   2.917  24.117  10.599
49902W        W15063  38.547   1.289   2.770
49903W        W15064  22.813  19.212   1.024
49904W        W15065   9.086  17.117  13.549
49905W        W15066  29.205  18.780   3.414
49906W        W15067  34.459  40.708   3.778
49907W        W15068   9.276   4.622  12.072
49908W        W15069  36.908  39.973  13.894
49909W        W15070  37.339  28.968   2.646
49910W        W15071   2.199  42.488  10.704
49911W        W15072  40.401  30.206   2.160
49912W        W15073  33.538  23.745  13.134
49913W        W15074  29.419  40.696  11.992
49914W        W15075  20.461  24.801  13.934
49915W        W15076  37.115   1.985   4.415
49916W        W15077  27.079   3.807   0.337
49917W        W15078  13.076  44.755   0.909
49918W        W15079  41.235  30.063   2.423
49919W        W15080  39.367  42.911  11.603
49920W        W15081  31.519  14.949  10.707
49921W        W15082  22.632  25.687   4.078
49922W        W15083  21.549   4.546   0.534
49923W        W15084   8.950  11.636  12.216
49924W        W15085  26.760  43.480   4.146
49925W        W15086  14.122  13.507  12.829
49926W        W15087  31.111  27.274  14.735
49927W        W15088   8.506  22.002  13.320
49928W        W15089  35.570  17.179  11.173
49929W        W15090   5.137  25.607   2.866
49930W        W15091  23.314  21.938   4.398
49931W        W15092  30.423   4.116  13.830
49932W        W15093  23.254  22.726   1.384
49933W        W15094  25.449  22.233   3.987
49934W        W15095  33.156  13.064  14.286
49935W        W15096   5.210  38.186  11.626
49936W        W15097  30.136  28.184   0.783
49937W        W15098  16.273  17.791   3.775
49938W        W15099  13.138  26.517   2.923
49939W        W15100   2.755  39.308   3.779
49940W        W15101  36.079  27.689  12.035
49941W        W15102  37.013   8.623   3.209
49942W        W15103  40.535  25.099  11.223
49943W        W15104  37.600  37.851  12.277
49944W        W15105  28.687   1.366   1.410
49945W        W15106  24.472  23.399   3.643
49946W        W15107  18.922  20.796   4.058
49947W        W15108   3.235   4.216   2.922
49948W        W15109   1.981  26.022  12.053
49949W        W15110  28.063  24.939   0.409
49950W        W15111   1.822  33.200   0.048
49951W        W15112  30.449  31.042  12.963
49952W        W15113   6.365  34.824   4.300
49953W        W15114  18.413   9.299  12.418
49954W        W15115  44.637  10.706  14.216
49955W        W15116  28.443   4.218  14.489
49956W        W15117  19.962  24.664  14.020
49957W        W15118   5.096   1.436   0.353
49958W        W15119  40.801  31.734   4.904
49959W        W15120  15.093  44.840   3.411
49960W        W15121  34.463  19.144   3.684
49961W        W15122  12.833  30.383  14.520
49962W        W15123   7.633   9.691   0.828
49963W        W15124  18.206  17.866   1.692
49964W        W15125  24.680  40.974  12.839
49965W        W15126  33.793   9.704   4.392
49966W        W15127  34.485   9.174   4.552
49967W        W15128  34.087   6.930   1.769
49968W        W15129  41.118  42.492   2.239
49969W        W15130  40.992  12.238  11.429
49970W        W15131  32.821  29.732  12.566
49971W        W15132  21.813  25.809   5.116
49972W        W15133  10.282  24.526   1.224
49973W        W15134   0.219  10.269  12.346
49974W        W15135  17.503  30.243   4.142
49975W        W15136  14.173  42.630   1.717
49976W        W15137  42.423   4.126   2.202
49977W        W15138  28.568  12.180   1.232
49978W        W15139  12.829  22.427  13.545
49979W        W15140   9.374  19.729   2.936
49980W        W15141  13.349  14.308   4.508
49981W        W15142  19.519  14.978   1.111
49982W        W15143  39.915  25.614   1.181
49983W        W15144  25.029  10.588  14.394
49984W        W15145  18.824  22.688   0.269
49985W        W15146  18.041   0.475  14.373
49986W        W15147   1.984   1.737  13.867
49987W        W15148  15.787  25.398   1.339
49988W        W15149  21.697  33.759   2.950
49989W        W15150  19.576  43.564   9.840
49990W        W15151  15.505  36.251  13.994
49991W        W15152  19.103   0.789   0.573
49992W        W15153  34.089  26.006   2.705
49993W        W15154  29.932  43.300   0.276
49994W        W15155  41.034  27.960   2.470
49995W        W15156  37.406  37.111  10.620
49996W        W15157   8.330   8.835   1.496
49997W        W15158  39.453  15.580   3.264
49998W        W15159  21.069  44.686   3.107
49999W        W15160  41.310  17.086  14.396
50000W        W15161  17.584   2.248  12.500
50001W        W15162  22.028  34.450   0.126
50002W        W15163  19.420  21.638  13.247
50003W        W15164  29.092  26.000   4.356
50004W        W15165  42.696  20.493   3.960
50005W        W15166  25.744  11.107   0.426
50006W        W15167  44.935  14.646   3.594
50007W        W15168  26.203   7.927   0.408
50008W        W15169  18.255   6.878  13.931
50009W        W15170  43.110  34.362  14.536
50010W        W15171  22.582  12.835  11.758
50011W        W15172   0.939   8.396  13.441
50012W        W15173  28.264  39.798  13.532
50013W        W15174   7.763  31.783  13.974
50014W        W15175   7.014  28.745   0.795
50015W        W15176  17.575   3.609   3.226
50016W        W15177  14.562   5.494  14.800
50017W        W15178  39.627  43.248   1.814
50018W        W15179   8.009  21.695  13.491
50019W        W15180  36.499  26.796   0.458
50020W        W15181  40.443  13.210   2.177
50021W        W15182  11.926  39.066  11.138
50022W        W15183  31.527  15.751   4.365
50023W        W15184  24.424  28.122   3.505
50024W        W15185  21.651   7.838   4.365
50025W        W15186  30.979  42.953  11.122
50026W        W15187  41.622   9.994   4.163
50027W        W15188  31.560   6.841   1.168
50028W        W15189  26.526  13.654  12.848
50029W        W15190  37.173  38.995   1.816
50030W        W15191  15.825   0.563  10.330
50031W        W15192  13.318  38.101  13.846
50032W        W15193  44.325  13.287   9.419
50033W        W15194  38.227  35.459   2.806
50034W        W15195  34.313  14.175  13.859
50035W        W15196  36.079  35.553   4.219
50036W        W15197  40.982  24.212  10.971
50037W        W15198   0.830   6.642  11.052
50038W        W15199  32.712  35.922   4.651
50039W        W15200  12.844  29.591  14.919
50040W        W15201  36.396  28.435   3.103
50041W        W15202   8.370  26.785   2.036
50042W        W15203  42.040   3.666  14.492
50043W        W15204  34.883  10.788  14.051
50044W        W15205  39.808  36.405  13.427
50045W        W15206  15.641  34.652   1.280
50046W        W15207   8.166  18.794  11.953
50047W        W15208  17.914  35.645  14.213
50048W        W15209  30.758   3.226  11.189
50049W        W15210   4.162  16.401   3.697
50050W        W15211  26.591  22.937  12.181
50051W        W15212   2.791  27.193   1.277
50052W        W15213  11.754  32.206   2.363
50053W        W15214  14.283  25.417  11.768
50054W        W15215   5.251   1.025   0.061
50055W        W15216   0.758  18.078   1.866
50056W        W15217   4.663  34.786   0.724
50057W        W15218  21.505  38.684   9.927
50058W        W15219   9.441  32.439   3.833
50059W        W15220  24.558  43.945   2.716
50060W        W15221  14.155  36.123  14.369
50061W        W15222  34.954  27.659  12.963
50062W        W15223  27.704  24.500  10.375
50063W        W15224  21.721  18.029   4.087
50064W        W15225  40.760  18.636  13.356
50065W        W15226  26.658  28.922   0.652
50066W        W15227  14.159  22.976   2.851
50067W        W15228  18.832   5.834   0.911
50068W        W15229  31.865  27.145   1.343
50069W        W15230  16.796   4.307   4.607
50070W        W15231   1.527  36.448  12.074
50071W        W15232  26.782  36.166  10.646
50072W        W15233  27.483  38.090   1.974
50073W        W15234  21.160   6.331  12.056
50074W        W15235  30.046  20.100  13.804
50075W        W15236  24.277  44.260  14.932
50076W        W15237   1.009  17.571  14.900
50077W        W15238  33.137   9.706  14.950
50078W        W15239  26.330  43.358  14.478
50079W        W15240   7.291  24.902   2.320
50080W        W15241  26.690  10.401   3.748
50081W        W15242  17.783  25.008  13.908
50082W        W15243  11.013  33.927   3.239
50083W        W15244  16.249  32.861  12.440
50084W        W15245  35.917  22.907   0.828
50085W        W15246  38.612  31.087  12.869
50086W        W15247  28.677  30.829   3.647
50087W        W15248  16.681  26.952  12.729
50088W        W15249  42.999  30.085   0.265
50089W        W15250  28.260   6.341   0.528
50090W        W15251  37.579  42.843  12.771
50091W        W15252  13.335  10.827  14.545
50092W        W15253  40.522   6.784   4.668
50093W        W15254  29.932  31.504   0.907
50094W        W15255  39.932   8.848   4.280
50095W        W15256   5.690   3.372   1.810
50096W        W15257  21.120  31.026  12.475
50097W        W15258  44.449  11.261   4.122
50098W        W15259  19.847  41.449  13.143
50099W        W15260   7.066  42.288  14.791
50100W        W15261   8.148  29.398   0.246
50101W        W15262  37.222  15.526   3.900
50102W        W15263  22.635  35.047   3.063
50103W        W15264  10.279  42.037  11.221
50104W        W15265  12.761  38.817   3.407
50105W        W15266  25.613   7.485   4.962
50106W        W15267  25.809  41.634  13.503
50107W        W15268  22.790  24.478   0.662
50108W        W15269  14.351   2.709   3.861
50109W        W15270   3.913  15.698   0.781
50110W        W15271  23.227  27.364  12.439
50111W        W15272   9.378  22.292  11.732
50112W        W15273  38.012  17.779   4.850
50113W        W15274   7.004  25.113  10.736
50114W        W15275  34.166  27.000  13.979
50115W        W15276  21.417   6.822  11.139
50116W        W15277  42.502  34.211   2.762
50117W        W15278  19.304  25.721   1.913
50118W        W15279  12.273  44.999   2.677
50119W        W15280  22.187  10.309  13.446
50120W        W15281   5.626  35.719  13.308
50121W        W15282  42.636  34.667  14.570
50122W        W15283  36.297   4.030   5.031
50123W        W15284  31.081  44.848   3.406
50124W        W15285  32.606  42.700  11.484
50125W        W15286  18.025   7.680  11.631
50126W        W15287   2.413  33.511   3.675
50127W        W15288  16.656  28.454   4.350
50128W        W15289   4.814  11.900  14.554
50129W        W15290  14.761   3.860   4.053
50130W        W15291  43.462   3.929   0.880
50131W        W15292  31.199  36.731  11.220
50132W        W15293   0.337  14.563  13.414
50133W        W15294  27.455  36.140  12.036
50134W        W15295  25.343   9.531   4.612
50135W        W15296  22.630  14.697   2.653
50136W        W15297   4.813  20.175   4.538
50137W        W15298   9.751   2.983  13.342
50138W        W15299  42.441  10.257  13.806
50139W        W15300  35.387   9.216  12.743
50140W        W15301  14.042   3.857   0.341
50141W        W15302  30.617  28.027   1.727
50142W        W15303  21.479  23.373   4.370
50143W        W15304   1.501  13.565   0.366
50144W        W15305  13.067   8.797   0.851
50145W        W15306  42.465  21.117   2.354
50146W        W15307  43.200  43.837   0.841
50147W        W15308  37.318   9.403  10.761
50148W        W15309  11.226  14.787  10.742
50149W        W15310  28.011   8.580  10.728
50150W        W15311  30.160   4.884   2.451
50151W        W15312   7.126  10.733   4.642
50152W        W15313  11.716   2.834  13.461
50153W        W15314   0.032  10.779   3.803
50154W        W15315   0.974  34.678   0.980
50155W        W15316  30.458  10.066  11.535
50156W        W15317  27.247   9.180  13.271
50157W        W15318   4.683  20.138  11.363
50158W        W15319  12.057  16.033  10.772
50159W        W15320   8.698  32.888   3.601
50160W        W15321  25.907   4.873   1.958
50161W        W15322  38.431  42.775   5.379
50162W        W15323  22.621  33.939   1.750
50163W        W15324  38.754   5.479  10.803
50164W        W15325   6.311  23.016  14.643
50165W        W15326  39.236  39.040  11.621
50166W        W15327   5.438  23.409  14.794
50167W        W15328   2.847  35.194   1.343
50168W        W15329  36.557   3.316  12.398
50169W        W15330  44.531  20.252  14.614
50170W        W15331  25.554  11.364  14.873
50171W        W15332  30.175  44.020  13.671
50172W        W15333   3.653  24.658  11.521
50173W        W15334  16.089   1.491  14.931
50174W        W15335  22.253   5.873  14.359
50175W        W15336  34.578  18.996  10.654
50176W        W15337   1.738  30.874  12.489
50177W        W15338  25.780  24.142   1.436
50178W        W15339  11.970  16.664   4.768
50179W        W15340   1.824  30.031  14.471
50180W        W15341  41.406  14.915   1.750
50181W        W15342  16.810  41.113   4.789
50182W        W15343  13.171  36.483   2.173
50183W        W15344   2.225  39.715  12.887
50184W        W15345  18.504  11.824  10.341
50185W        W15346  14.655  12.419   3.670
50186W        W15347  39.567  42.862  14.394
50187W        W15348  24.734   9.942   5.085
50188W        W15349   2.486  11.315  12.808
50189W        W15350   4.989  44.240  13.468
50190W        W15351  37.923  27.163   2.415
50191W        W15352  26.962   9.433  13.811
50192W        W15353  29.819  44.908   4.924
50193W        W15354  41.984  17.650   2.881
50194W        W15355  34.850   7.890   3.811
50195W        W15356  18.073  33.914   2.153
50196W        W15357  18.986  24.678   1.152
50197W        W15358  42.422   8.983  12.394
50198W        W15359  18.850  37.810  11.422
50199W        W15360  44.766  20.747   2.792
50200W        W15361  24.375  29.079   0.651
50201W        W15362  15.844   9.425   1.785
50202W        W15363  24.198  36.398   2.923
50203W        W15364  31.059  31.171   4.251
50204W        W15365  19.331  24.718  12.910
50205W        W15366  18.482  11.231   3.240
50206W        W15367   7.934  27.380  14.847
50207W        W15368  43.602  39.859  14.866
50208W        W15369   5.734  18.153   0.692
50209W        W15370  21.507  12.259  14.883
50210W        W15371  32.949  10.785   0.396
50211W        W15372  23.302  16.264   4.555
50212W        W15373  34.848  23.644   4.043
50213W        W15374  25.295  31.604   0.390
50214W        W15375  39.021  17.263  11.014
50215W        W15376   6.431   9.913   1.812
50216W        W15377   3.870   0.573  12.285
50217W        W15378  31.681  24.607   2.306
50218W        W15379  23.490  28.159  13.729
50219W        W15380  30.152   0.831   2.239
50220W        W15381  14.527   0.232  12.415
50221W        W15382   9.908  30.695   0.950
50222W        W15383  41.900   4.358   2.750
50223W        W15384  27.335  36.611   3.193
50224W        W15385  30.967  39.042  10.231
50225W        W15386  18.521  19.467   2.249
50226W        W15387  18.869  29.175  10.650
50227W        W15388  32.681  15.222  14.757
50228W        W15389   2.794  43.964   2.632
50229W        W15390   7.228   3.468  12.792
50230W        W15391  21.629  44.934   0.697
50231W        W15392  33.990  37.809  12.249
50232W        W15393  30.973   4.378   4.507
50233W        W15394  36.361  21.053   1.997
50234W        W15395  37.853  32.087   0.815
50235W        W15396   6.576   3.856   1.153
50236W        W15397  24.930   7.810   2.263
50237W        W15398  38.122  26.805   3.109
50238W        W15399   2.360  16.311  10.859
50239W        W15400  42.970  26.456   4.151
50240W        W15401  12.912  21.003  14.677
50241W        W15402  37.568  40.976   1.653
50242W        W15403  41.965  10.392  10.187
50243W        W15404  22.995  33.066  12.055
50244W        W15405   9.839  34.146   4.940
50245W        W15406  19.154  17.441   0.294
50246W        W15407  31.702  41.299   3.657
50247W        W15408   6.407  17.229   2.311
50248W        W15409  20.422   3.991  14.056
50249W        W15410   1.587   5.343  14.777
50250W        W15411  13.844  27.916  13.372
50251W        W15412  18.070   9.456  13.917
50252W        W15413  31.033  41.072   0.741
50253W        W15414  13.192  35.351  13.795
50254W        W15415  36.154  41.810   2.779
50255W        W15416  30.535  25.491   1.376
50256W        W15417  33.847  41.557  12.168
50257W        W15418   7.692  28.667   0.321
50258W        W15419  21.079   5.804  10.686
50259W        W15420   9.617  39.516  13.442
50260W        W15421   3.678  34.030  11.750
50261W        W15422  35.373   9.934   0.293
50262W        W15423  18.231  28.422   1.292
50263W        W15424  31.199  20.468  10.307
50264W        W15425  41.113   1.939   0.175
50265W        W15426  36.307  12.288  14.427
50266W        W15427  28.210  26.842   0.423
50267W        W15428   6.730  35.868  12.775
50268W        W15429   7.837  30.153   3.802
50269W        W15430  30.117  38.115  14.575
50270W        W15431  39.233  24.495   0.028
50271W        W15432  31.897   6.206   2.722
50272W        W15433  19.660  18.039   1.205
50273W        W15434   0.960  38.075  14.583
50274W        W15435  35.715  24.602  13.672
50275W        W15436  38.847   4.824   4.792
50276W        W15437  15.572  36.730  14.958
50277W        W15438  41.853  26.018   4.260
50278W        W15439  32.348  21.282  11.893
50279W        W15440  44.825  35.673   3.657
50280W        W15441  11.578  16.603  11.610
50281W        W15442  26.989  30.884  13.313
50282W        W15443   6.189  25.977   0.912
50283W        W15444  44.316  44.408  14.701
50284W        W15445   0.555   5.666   3.186
50285W        W15446  17.477   9.399   2.692
50286W        W15447   8.170  33.501   1.440
50287W        W15448  10.257  17.617   3.859
50288W        W15449   6.714  39.572  13.135
50289W        W15450  29.502  44.977   0.397
50290W        W15451  28.694  25.450   4.547
50291W        W15452  39.028  41.479   0.398
50292W        W15453  34.455   2.535  14.822
50293W        W15454  39.262  44.886  12.019
50294W        W15455  15.726  15.623  13.797
50295W        W15456  31.082  38.953  13.575
50296W        W15457  29.027   7.370   3.321
50297W        W15458   9.113  12.445  11.947
50298W        W15459  10.674  26.107  10.705
50299W        W15460  35.166  33.185  11.786
50300W        W15461   9.415  17.875  10.108
50301W        W15462  29.364  14.621  14.747
50302W        W15463  18.699  21.731  12.107
50303W        W15464   2.146  27.075  11.203
50304W        W15465  16.045  27.534   1.706
50305W        W15466  24.993   0.777  10.851
50306W        W15467  10.226   2.921   0.817
50307W        W15468  40.641  41.737   2.606
50308W        W15469  40.186  30.457   3.726
50309W        W15470   7.753  29.178  12.454
50310W        W15471  16.050  26.964  11.954
50311W        W15472  31.376  29.595   0.376
50312W        W15473  13.244  28.623  14.567
50313W        W15474  10.829  27.130  10.688
50314W        W15475  36.315  41.328   2.735
50315W        W15476   6.914  35.234   1.365
50316W        W15477  28.143  34.008  14.549
50317W        W15478  32.464  29.988  11.661
50318W        W15479  33.983  27.452   4.793
50319W        W15480   2.494  22.664  11.997
50320W        W15481  22.723  28.427  13.104
50321W        W15482   7.220  11.378   2.798
50322W        W15483  21.019  32.823   0.389
50323W        W15484  43.044   8.957   3.386
50324W        W15485  39.790  24.590   4.590
50325W        W15486   6.796  39.063   1.764
50326W        W15487  43.343  28.657   3.724
50327W        W15488  12.042  33.460   3.628
50328W        W15489  24.198  39.695   1.181
50329W        W15490  24.515   1.619   4.691
50330W        W15491  44.802  23.437   1.002
50331W        W15492  43.304  44.924   1.869
50332W        W15493  11.349  43.893  14.476
50333W        W15494  35.283  36.761  13.123
50334W        W15495  25.096  29.550  12.578
50335W        W15496  38.901  28.959   0.940
50336W        W15497  32.375  37.260  14.851
50337W        W15498   1.021   7.678   4.902
50338W        W15499  26.974  24.223  13.462
50339W        W15500  15.204  35.598  11.146
50340W        W15501  34.683   6.376   0.712
50341W        W15502   0.509  26.908   2.033
50342W        W15503   2.251   2.744  14.377
50343W        W15504  30.508  22.176   3.330
50344W        W15505  25.386  19.070  10.895
50345W        W15506  33.288  43.443  14.869
50346W        W15507  33.870  44.983   4.200
50347W        W15508  19.039  37.946   3.677
50348W        W15509  36.474  19.788   3.677
50349W        W15510  17.649  29.019  14.343
50350W        W15511  35.609  21.404  11.712
50351W        W15512  31.062  27.971   9.990
50352W        W15513  25.981  11.698  13.417
50353W        W15514  26.119  34.613   4.073
50354W        W15515   0.276  10.761  12.676
50355W        W15516  20.279  36.965  12.404
50356W        W15517   8.361  44.024  12.161
50357W        W15518  32.075  34.499  13.616
50358W        W15519  34.874   2.620   2.335
50359W        W15520  28.572  28.563   4.374
50360W        W15521   1.851  23.777   2.245
50361W        W15522  24.117   3.173   3.074
50362W        W15523  33.785  24.669   1.616
50363W        W15524  19.444  41.488   3.158
50364W        W15525  34.585  42.452   3.781
50365W        W15526  12.712  41.444   1.983
50366W        W15527   7.709  19.192   1.546
50367W        W15528  24.075  21.021   3.581
50368W        W15529  27.402  32.199   2.860
50369W        W15530  25.942  27.579   2.737
50370W        W15531  10.919   1.684   2.308
50371W        W15532  11.813   9.968  12.878
50372W        W15533  30.979  36.637  14.192
50373W        W15534  22.102  33.652   0.707
50374W        W15535   7.939  44.523   0.673
50375W        W15536   4.225  23.652  13.644
50376W        W15537  18.110  32.187   0.326
50377W        W15538  42.938  22.339  14.831
50378W        W15539   4.932   4.270  13.898
50379W        W15540  33.568  15.598   0.988
50380W        W15541  10.736  21.182  13.627
50381W        W15542  13.722  41.378  14.826
50382W        W15543  15.823  10.325   0.820
50383W        W15544  39.736  35.493  13.858
50384W        W15545  42.164  15.777   4.996
50385W        W15546  36.528  20.569  12.864
50386W        W15547  23.983  43.709  13.997
50387W        W15548  18.264   9.885   4.380
50388W        W15549  40.942  20.064   1.874
50389W        W15550   3.518  33.992   1.849
50390W        W15551  27.097  34.850  10.585
50391W        W15552  44.301   8.910   3.927
50392W        W15553  27.811  35.883   1.040
50393W        W15554  23.974  12.604   2.079
50394W        W15555   7.361  10.308   4.887
50395W        W15556  33.878  26.985   2.262
50396W        W15557   3.940  32.510   4.109
50397W        W15558  32.800  19.596   1.736
50398W        W15559  17.262  38.385  12.898
50399W        W15560   2.419  25.060  13.964
50400W        W15561   9.643  17.466   0.927
50401W        W15562  40.923  31.918   1.317
50402W        W15563  38.991  44.234  13.389
50403W        W15564   0.625  35.422  13.177
50404W        W15565   2.962  28.750  14.022
50405W        W15566  27.200   2.433   1.020
50406W        W15567  26.639  11.218   1.592
50407W        W15568  39.904  19.656  12.471
50408W        W15569   5.412   3.421   3.646
50409W        W15570  39.740  40.223  14.425
50410W        W15571  29.178  33.812   2.811
50411W        W15572  25.928  30.845  11.620
50412W        W15573  34.906  17.805   2.082
50413W        W15574   8.363  23.601   3.770
50414W        W15575  13.691   5.122  14.943
50415W        W15576  14.335   3.835   4.915
50416W        W15577   6.840  17.727   1.649
50417W        W15578  16.575  17.680  11.435
50418W        W15579   1.830  23.573   2.773
50419W        W15580  16.940   2.543   0.453
50420W        W15581  26.456  12.103   1.036
50421W        W15582  31.359  43.326   0.938
50422W        W15583   4.006   8.970   0.940
50423W        W15584  12.236   9.741   3.765
50424W        W15585  20.158   2.394   0.985
50425W        W15586  30.401  28.208   4.225
50426W        W15587  40.653  38.859  13.242
50427W        W15588   0.492  18.477  10.582
50428W        W15589  44.003  18.659   3.404
50429W        W15590   8.230  42.297   3.924
50430W        W15591   8.100  31.226   3.183
50431W        W15592   9.692  34.823   1.670
50432W        W15593   7.092  15.720  12.478
50433W        W15594  25.707  27.867  12.661
50434W        W15595  25.265   9.726   0.820
50435W        W15596  32.104   0.041  13.828
50436W        W15597  32.489  19.467   3.599
50437W        W15598  28.707  10.924  10.761
50438W        W15599  44.785  34.979  14.274
50439W        W15600  41.349  31.844   4.209
50440W        W15601  14.837  41.000   1.080
50441W        W15602  39.751  24.623  14.891
50442W        W15603  22.009  35.041   3.930
50443W        W15604   0.954   9.143  13.976
50444W        W15605   4.698  16.719  12.097
50445W        W15606  25.303  34.426   4.758
50446W        W15607  40.505   4.637   4.242
50447W        W15608  40.757  44.956   4.089
50448W        W15609  33.429  40.874  13.884
50449W        W15610   9.454  26.926  10.231
50450W        W15611  31.506  37.683  13.450
50451W        W15612  29.595   5.884  13.869
50452W        W15613  40.082  20.095   0.900
50453W        W15614  13.700  41.150  10.750
50454W        W15615  43.074  27.145  13.011
50455W        W15616  11.932   2.180  11.294
50456W        W15617  21.552   7.646  13.500
50457W        W15618  43.895  10.402   1.843
50458W        W15619  34.700   9.825  11.067
50459W        W15620   5.678  11.819  14.053
50460W        W15621   6.200   9.294  13.012
50461W        W15622  36.545  39.770  13.584
50462W        W15623   0.577  11.666  10.775
50463W        W15624   8.799  18.608  11.187
50464W        W15625   7.816  41.974  13.929
50465W        W15626  27.506  20.493   0.314
50466W        W15627   3.475  16.813   1.812
50467W        W15628  36.473  43.003   2.147
50468W        W15629  34.930  41.456   0.561
50469W        W15630   8.594   5.435   1.380
50470W        W15631  19.833  18.288   4.634
50471W        W15632   1.972   1.873   3.209
50472W        W15633  37.775   2.983   3.980
50473W        W15634   7.616  26.685  13.347
50474W        W15635  39.438  40.645  14.549
50475W        W15636   5.228  37.599   4.465
50476W        W15637  39.453  32.475   4.170
50477W        W15638   0.330  19.204  14.556
50478W        W15639  18.965  32.068  12.073
50479W        W15640  33.844   2.267   1.192
50480W        W15641  15.169  33.147  12.957
50481W        W15642  38.068   2.404   1.692
50482W        W15643   7.572  18.984   2.310
50483W        W15644  21.514  16.252   1.784
50484W        W15645  25.206  18.611   2.812
50485W        W15646   2.762  12.728  12.293
50486W        W15647  23.044  19.718   3.795
50487W        W15648  35.031  36.799  13.570
50488W        W15649  41.295  37.839   4.311
50489W        W15650   0.158  21.890  11.222
50490W        W15651  12.777  36.392  12.932
50491W        W15652   4.421   0.232   3.157
50492W        W15653  28.604   5.705  13.971
50493W        W15654  32.056  11.073   0.370
50494W        W15655  39.500  20.241  13.098
50495W        W15656  44.487  37.109  14.468
50496W        W15657   6.842  41.952  12.044
50497W        W15658   4.354  23.820  12.229
50498W        W15659  22.953  17.152  10.689
50499W        W15660  19.330  12.140   2.270
50500W        W15661  37.306  38.660  13.112
50501W        W15662  39.011  12.760  13.761
50502W        W15663  21.071  22.007   1.761
50503W        W15664  25.373  18.893  13.528
50504W        W15665  10.236  16.044  14.614
50505W        W15666  31.257  25.572  11.827
50506W        W15667  39.932  39.158  14.686
50507W        W15668  39.514  27.012   2.020
50508W        W15669  40.829  36.312   3.668
50509W        W15670   5.637  39.365  12.990
50510W        W15671  30.376  11.017   4.089
50511W        W15672  36.238  14.250   1.302
50512W        W15673   4.377   6.871  11.178
50513W        W15674  38.829   8.636  12.090
50514W        W15675  23.375  28.380   3.862
50515W        W15676   5.196   8.954   3.073
50516W        W15677  26.681  39.935  13.797
50517W        W15678   8.327  21.641   3.639
50518W        W15679  28.648  37.569  10.692
50519W        W15680  13.530  44.692  13.752
50520W        W15681   9.848  15.645  11.543
50521W        W15682  34.114  18.695   1.737
50522W        W15683  14.051  41.010  11.111
50523W        W15684  16.491  22.088   3.551
50524W        W15685  31.228  42.566   4.932
50525W        W15686  31.154   4.248  11.709
50526W        W15687   2.548  38.223  12.078
50527W        W15688  21.534  19.565  14.342
50528W        W15689  30.236  20.825  13.280
50529W        W15690   7.362  22.452   3.340
50530W        W15691  25.121  42.918   1.402
50531W        W15692   9.775  19.643   4.637
50532W        W15693   4.195   9.468  13.695
50533W        W15694  31.394  20.041  12.383
50534W        W15695  14.323   7.192  14.009
50535W        W15696  28.442  42.440   1.784
50536W        W15697   4.837  14.142  10.775
50537W        W15698  22.714  40.720   4.173
50538W        W15699  43.757   9.203  12.394
50539W        W15700  29.338  25.155  12.621
50540W        W15701  26.098   4.715   1.520
50541W        W15702   2.019  17.015  10.550
50542W        W15703  12.717  39.399   2.314
50543W        W15704  22.832  39.950   3.615
50544W        W15705  31.577  24.937   1.650
50545W        W15706  37.682  26.397  12.768
50546W        W15707  28.617  34.938  14.513
50547W        W15708  22.445  36.716   3.631
50548W        W15709  19.684  39.551   0.962
50549W        W15710   7.365  31.531   4.754
50550W        W15711  36.817  41.256   2.680
50551W        W15712  27.441  33.059  12.473
50552W        W15713  19.892  32.162   1.904
50553W        W15714  10.024  42.950   9.970
50554W        W15715  42.560  18.122   4.988
50555W        W15716   9.337  22.772  12.434
50556W        W15717  28.127  13.479   4.032
50557W        W15718  37.288  16.083  11.158
50558W        W15719  20.573  11.134  12.547
50559W        W15720  14.690   8.140   0.457
50560W        W15721  14.573  13.131   3.078
50561W        W15722  35.563  12.527   1.984
50562W        W15723  11.844  24.643   4.861
50563W        W15724  28.887   6.228  11.483
50564W        W15725  11.612  42.341  14.325
50565W        W15726  11.410   7.719  12.838
50566W        W15727  38.793  10.211   0.807
50567W        W15728  35.405  32.331   4.645
50568W        W15729  12.260  28.081  10.502
50569W        W15730  28.191  37.378  14.370
50570W        W15731  36.705  20.220   2.444
50571W        W15732  30.757  19.121  11.479
50572W        W15733  11.983  16.222   3.649
50573W        W15734  28.499  28.641   3.324
50574W        W15735  16.117  20.094  13.734
50575W        W15736  16.345   3.809  13.420
50576W        W15737  33.956  39.346  11.167
50577W        W15738  16.823  33.876   0.465
50578W        W15739  30.623  43.632  10.859
50579W        W15740  27.549  39.624   0.190
50580W        W15741  33.138  10.395   0.699
50581W        W15742  37.007   1.289  11.677
50582W        W15743  29.081  41.526   2.225
50583W        W15744   7.431  20.816  10.524
50584W        W15745  26.977  37.412   0.837
50585W        W15746  15.113  39.725   3.087
50586W        W15747  36.996  43.862   1.885
50587W        W15748  30.207  35.495   4.250
50588W        W15749  40.833   3.613   0.855
50589W        W15750  17.698   9.856   3.655
50590W        W15751  42.629   5.280  13.529
50591W        W15752  44.811  41.272  10.336
50592W        W15753  32.668  14.110  12.944
50593W        W15754   2.296  15.229   1.566
50594W        W15755  10.476  28.555   5.080
50595W        W15756   9.153  22.109   1.191
50596W        W15757  38.309  38.912  13.030
50597W        W15758  33.797   7.784   2.731
50598W        W15759  22.481  11.814   2.602
50599W        W15760  23.600  44.355  12.358
50600W        W15761  18.303  36.664   1.834
50601W        W15762  15.312  22.529   0.601
50602W        W15763   7.971  34.176   0.852
50603W        W15764  37.577  20.987   4.443
50604W        W15765  25.575  39.036  14.392
50605W        W15766  14.699  15.108   1.742
50606W        W15767  38.000  40.829  12.130
50607W        W15768  35.412   4.681  13.907
50608W        W15769  29.188  13.238   2.795
50609W        W15770   4.346  19.628   0.530
50610W        W15771  38.404  29.109  13.041
50611W        W15772  33.928   6.827   0.714
50612W        W15773  16.476  42.473   4.586
50613W        W15774   6.726   9.351  12.358
50614W        W15775  40.826  21.761   1.191
50615W        W15776  29.141  36.919   3.152
50616W        W15777   5.142  11.903  11.368
50617W        W15778  21.285   3.377   3.957
50618W        W15779  10.852   7.395  11.805
50619W        W15780  29.063   6.136   1.679
50620W        W15781  44.495  40.074  13.460
50621W        W15782  40.027  19.972   2.858
50622W        W15783  24.182  27.332  11.024
50623W        W15784  37.087  10.887  13.297
50624W        W15785  39.755  44.901  11.903
50625W        W15786  43.446   8.888  14.493
50626W        W15787  32.901   1.275  12.880
50627W        W15788  23.754  41.751  13.065
50628W        W15789  17.192  18.730   2.952
50629W        W15790  15.793  27.389  11.188
50630W        W15791  44.965   6.021  13.780
50631W        W15792  37.924  17.100  11.604
50632W        W15793  24.359  38.552  13.473
50633W        W15794  13.798  27.884  12.448
50634W        W15795   7.853  44.787   1.375
50635W        W15796  26.361   9.281   4.513
50636W        W15797  40.514   6.749   0.371
50637W        W15798  31.555  28.089   9.922
50638W        W15799  22.488  32.965   1.239
50639W        W15800  43.871  44.272  14.257
50640W        W15801  42.032  29.494  11.163
50641W        W15802  23.284  11.282  14.807
50642W        W15803  35.795  44.924  11.986
50643W        W15804  41.743  13.106   3.282
50644W        W15805  34.991  43.586  11.735
50645W        W15806  41.401  32.455  14.320
50646W        W15807  34.980  21.533   3.863
50647W        W15808   2.956  18.158  14.850
50648W        W15809  21.798   3.242  13.049
50649W        W15810   3.732  39.063  13.489
50650W        W15811  38.912  22.465  14.018
50651W        W15812  17.270  22.580   3.179
50652W        W15813  40.384  36.626  11.592
50653W        W15814  38.068   8.243  14.888
50654W        W15815  12.143  39.010  12.028
50655W        W15816  29.356  32.610   0.220
50656W        W15817  34.124  25.806  13.591
50657W        W15818  16.726   8.261  10.756
50658W        W15819  10.721  16.308   4.258
50659W        W15820  20.444  43.245  13.001
50660W        W15821  20.986  15.615   1.865
50661W        W15822  19.492  37.535   2.661
50662W        W15823  16.968  32.200  12.594
50663W        W15824   2.963   8.323   1.642
50664W        W15825   8.478  10.631   1.773
50665W        W15826  42.341  36.097   4.176
50666W        W15827  30.160  23.243   0.507
50667W        W15828  42.490   1.956  13.856
50668W        W15829   4.653  29.956   2.735
50669W        W15830  18.222   5.890  12.519
50670W        W15831  28.513  21.050  13.467
50671W        W15832   1.199  41.518  10.711
50672W        W15833  15.189  17.318   2.210
50673W        W15834  11.323  37.355   0.781
50674W        W15835  19.705  34.851  13.692
50675W        W15836  33.704  14.400   1.273
50676W        W15837   5.221  32.472   3.191
50677W        W15838   4.000  24.837   1.707
50678W        W15839  17.615  40.095   0.503
50679W        W15840  19.837  17.409  10.054
50680W        W15841  11.782  34.667  12.986
50681W        W15842  25.686  25.596   2.945
50682W        W15843  29.964   5.324  10.510
50683W        W15844  14.170   0.211  14.568
50684W        W15845  32.030  28.874  13.105
50685W        W15846  22.528  26.990  10.417
50686W        W15847  34.513   3.847   2.199
50687W        W15848  11.181  30.148  11.638
50688W        W15849  39.081   0.404  12.983
50689W        W15850  35.892  27.947   3.769
50690W        W15851  37.284  11.445  14.476
50691W        W15852  34.656  19.755  11.169
50692W        W15853  21.467  12.181  13.876
50693W        W15854  17.836  37.438   4.071
50694W        W15855   7.888  15.506   4.188
50695W        W15856  13.750   6.649   3.506
50696W        W15857  13.180   3.708  14.034
50697W        W15858  34.815  17.272   2.304
50698W        W15859  29.804  31.819   0.032
50699W        W15860  34.883  19.667  13.897
50700W        W15861   8.989  12.170   4.586
50701W        W15862   0.811   4.362  12.949
50702W        W15863  40.739  30.359  14.995
50703W        W15864  28.985  38.059  13.057
50704W        W15865  10.816  11.875   4.504
50705W        W15866  44.097  19.218   2.781
50706W        W15867  17.463  11.304   1.906
50707W        W15868  25.126  28.046   0.967
50708W        W15869  43.809   8.879   4.619
50709W        W15870   3.467  14.584   2.286
50710W        W15871  15.077  20.582   2.805
50711W        W15872  36.120   7.616  13.120
50712W        W15873  33.884  42.057  11.987
50713W        W15874  15.189  10.363  10.956
50714W        W15875  35.792  17.639  11.043
50715W        W15876  34.833  40.606  12.626
50716W        W15877   6.705   3.454  11.481
50717W        W15878  11.812  41.248   3.910
50718W        W15879   7.899  33.056  14.431
50719W        W15880  43.958   1.603   3.348
50720W        W15881  34.039  33.460  14.775
50721W        W15882  20.681  32.002   0.854
50722W        W15883  41.772  20.030  13.431
50723W        W15884   3.765  36.980  13.142
50724W        W15885  14.620  40.488   1.591
50725W        W15886  37.018  15.900   4.184
50726W        W15887  32.572  43.957   0.259
50727W        W15888  12.700   8.305   2.401
50728W        W15889  19.270  42.534   4.359
50729W        W15890  40.378   9.619  12.425
50730W        W15891   5.733   0.488  13.349
50731W        W15892   2.765  31.859   3.766
50732W        W15893  39.030  20.274   1.298
50733W        W15894  40.096   4.838  14.750
50734W        W15895  29.237  36.465   1.901
50735W        W15896   1.952   6.722  14.675
50736W        W15897  15.672  15.050   0.732
50737W        W15898  33.502  32.538   2.636
50738W        W15899  13.505   5.306  14.061
50739W        W15900  31.699  42.492   0.444
50740W        W15901   4.358  30.436   4.149
50741W        W15902   2.266  12.352  14.817
50742W        W15903  33.033  39.312   3.157
50743W        W15904   8.990   9.250   0.369
50744W        W15905  39.372  29.543   1.109
50745W        W15906   2.202   2.271  12.929
50746W        W15907  27.712  43.514   1.137
50747W        W15908  20.530  41.008  11.677
50748W        W15909  14.717  39.827  13.494
50749W        W15910  15.223  12.601  13.622
50750W        W15911  29.341  12.814   0.378
50751W        W15912  17.029  34.075  12.566
50752W        W15913  26.799  14.308  10.563
50753W        W15914  12.833  32.021   1.830
50754W        W15915  32.293  38.774  14.426
50755W        W15916   9.849  11.353  13.934
50756W        W15917   9.312  16.966  14.850
50757W        W15918  20.246  34.932   3.226
50758W        W15919  11.831  15.246  12.920
50759W        W15920   1.376  15.111   1.752
50760W        W15921  34.501  31.654  11.110
50761W        W15922  22.650  27.166  14.921
50762W        W15923  37.333  19.086  10.965
50763W        W15924  37.649  26.907  11.509
50764W        W15925  30.365   6.265   4.660
50765W        W15926  23.168  37.935   2.735
50766W        W15927  10.168  31.908   1.323
50767W        W15928   8.267  27.198  10.701
50768W        W15929  28.910  32.642   1.814
50769W        W15930  41.032  40.090   3.709
50770W        W15931  26.566  40.976  13.806
50771W        W15932  43.292  13.712  14.870
50772W        W15933   3.896  34.926  13.872
50773W        W15934  26.656  24.824  11.741
50774W        W15935  44.462   2.287   3.828
50775W        W15936  25.633   3.475   3.323
50776W        W15937  28.176  18.785  12.039
50777W        W15938  42.385   1.670  12.845
50778W        W15939  39.650  39.973   1.622
50779W        W15940  16.201   5.352   0.421
50780W        W15941   4.632  40.951   3.912
50781W        W15942  10.917  24.528   1.814
50782W        W15943  43.015  17.219  11.364
50783W        W15944  35.543  23.148   3.393
50784W        W15945  41.953  38.871   3.672
50785W        W15946  37.322   9.151  12.474
50786W        W15947  17.004  22.150   0.507
50787W        W15948  17.359  21.629   1.230
50788W        W15949  29.034   1.219  12.913
50789W        W15950  39.614  22.938  14.077
50790W        W15951  22.870  44.406   3.638
50791W        W15952  27.880  42.696   2.722
50792W        W15953   3.742  40.463  13.467
50793W        W15954  18.281  16.239  14.284
50794W        W15955  13.215  31.380  11.142
50795W        W15956  24.420   5.567   3.254
50796W        W15957   3.429   2.014   4.715
50797W        W15958  26.664  18.529   3.167
50798W        W15959  23.793   1.176  14.103
50799W        W15960   5.893  18.041   4.025
50800W        W15961  34.525  23.410   1.539
50801W        W15962  39.592  44.860   0.754
50802W        W15963  27.170  40.067  13.859
50803W        W15964  39.058  38.508   1.598
50804W        W15965  24.061  35.053  12.492
50805W        W15966   0.112  10.834  14.109
50806W        W15967  21.587  25.484  12.987
50807W        W15968  42.041  26.641  10.815
50808W        W15969  41.479  33.776  10.672
50809W        W15970  12.240  42.143  14.446
50810W        W15971   3.989  21.201   3.314
50811W        W15972  17.194  29.948   0.514
50812W        W15973  36.410  32.100   3.721
50813W        W15974   6.375  23.806   5.049
50814W        W15975  37.956  26.205  14.962
50815W        W15976  12.137  35.875  12.676
50816W        W15977  25.487  14.345  11.682
50817W        W15978  41.908   3.935   1.350
50818W        W15979  35.588  23.420   1.973
50819W        W15980  20.111  21.270   3.139
50820W        W15981  25.777  10.251  14.336
50821W        W15982  22.296  37.932  10.275
50822W        W15983   9.120  25.428   5.500
50823W        W15984  18.053  16.260  14.757
50824W        W15985  11.525   0.924  10.789
50825W        W15986  29.950  13.521   2.106
50826W        W15987  39.180  32.073  14.055
50827W        W15988  23.261  15.108  14.416
50828W        W15989  24.715  18.275  12.008
50829W        W15990  31.977   6.923  11.868
50830W        W15991  21.068   7.228  12.940
50831W        W15992   4.266  42.672  11.162
50832W        W15993   2.566  18.723  12.624
50833W        W15994  26.027  17.520  13.087
50834W        W15995  27.720   9.213  11.521
50835W        W15996  27.005  30.541   2.695
50836W        W15997  26.466  17.066   3.234
50837W        W15998  37.011   0.252   0.459
50838W        W15999  16.045   7.245   1.594
50839W        W16000  14.226  30.740   2.777
50840W        W16001  18.446  17.525  13.028
50841W        W16002  24.444  28.077   4.023
50842W        W16003  35.638   6.445   0.851
50843W        W16004  12.686  21.961  13.378
50844W        W16005   5.165  29.441   9.825
50845W        W16006   6.260  42.842   1.852
50846W        W16007   3.420  40.567  14.412
50847W        W16008  28.088  44.028   2.293
50848W        W16009   5.234  31.425   4.040
50849W        W16010   4.360  37.951  14.973
50850W        W16011   7.845  24.896   4.052
50851W        W16012   1.643   2.791   2.208
50852W        W16013   7.602   7.149  11.934
50853W        W16014  25.571   1.232  11.102
50854W        W16015  11.898  36.106  13.941
50855W        W16016  30.455  18.515  13.462
50856W        W16017  29.479  28.161   3.795
50857W        W16018   4.357  15.878  14.983
50858W        W16019  41.788  30.220  11.451
50859W        W16020  30.078  41.933   3.775
50860W        W16021  22.491  31.414  13.967
50861W        W16022  37.050  15.328  11.594
50862W        W16023  35.358   6.217  12.461
50863W        W16024  38.734   2.419  13.603
50864W        W16025   1.570  21.104   2.758
50865W        W16026  20.558   3.244   4.656
50866W        W16027  22.520  20.749  14.057
50867W        W16028  12.358   3.925   5.174
50868W        W16029  22.266  25.128  10.800
50869W        W16030   0.365  17.099  12.016
50870W        W16031   0.508  26.928  11.995
50871W        W16032  15.737  27.739  11.632
50872W        W16033  16.344   4.855   0.076
50873W        W16034  13.770  32.906   1.827
50874W        W16035  42.254  13.407   1.297
50875W        W16036   6.868   4.430  14.001
50876W        W16037  29.199  30.773   2.745
50877W        W16038   8.706  34.423   4.611
50878W        W16039   0.113  13.869   2.062
50879W        W16040  27.819  25.494   3.609
50880W        W16041  42.924  31.336   3.719
50881W        W16042  21.793  40.524  14.434
50882W        W16043  14.200  18.085   2.387
50883W        W16044  38.364  36.947  11.762
50884W        W16045  38.400   0.226  14.955
50885W        W16046  22.768  38.038   0.338
50886W        W16047  29.708  20.065   0.661
50887W        W16048  42.506  29.862   1.425
50888W        W16049  18.741  18.808  11.585
50889W        W16050  41.746  16.844   3.266
50890W        W16051  38.815  22.793  11.132
50891W        W16052  11.263  26.716  14.310
50892W        W16053   5.786  24.146  14.220
50893W        W16054  21.311   2.405   4.622
50894W        W16055   4.322  17.672  14.341
50895W        W16056  40.613  25.180  14.081
50896W        W16057  12.597  21.016   0.467
50897W        W16058   4.268  15.328  12.049
50898W        W16059  21.570  23.267  14.787
50899W        W16060   5.788  23.770  10.367
50900W        W16061  24.089   1.902  14.165
50901W        W16062  44.073  44.706   4.662
50902W        W16063  13.293  37.433  10.700
50903W        W16064   1.056  30.158   3.653
50904W        W16065  16.504  24.088   1.420
50905W        W16066  34.557  17.550   4.921
50906W        W16067  41.460  24.151   1.608
50907W        W16068  37.116  17.716   1.333
50908W        W16069   1.976  26.560  12.827
50909W        W16070   2.468  40.544   0.205
50910W        W16071  41.906  43.503  13.023
50911W        W16072  27.305  21.736  12.124
50912W        W16073   5.393  24.428   5.499
50913W        W16074  41.530  39.781  13.054
50914W        W16075  40.976  23.868  12.856
50915W        W16076  31.668   8.928   5.212
50916W        W16077  35.094  18.852  14.356
50917W        W16078  36.501   7.479  13.936
50918W        W16079   8.099   8.290  12.474
50919W        W16080  42.865  15.128   4.807
50920W        W16081  40.897  12.506   4.872
50921W        W16082  16.240  15.620   2.024
50922W        W16083  44.424  35.488  10.266
50923W        W16084  27.281  26.891  11.778
50924W        W16085  23.771  12.096  13.079
50925W        W16086  41.928  16.687   4.436
50926W        W16087  43.604   8.260  13.433
50927W        W16088  34.606  22.781  14.794
50928W        W16089   6.261  15.495   0.079
50929W        W16090   6.622  33.406  11.099
50930W        W16091  21.532  27.372   1.864
50931W        W16092  23.410   4.342   4.240
50932W        W16093  37.153  11.407  12.554
50933W        W16094  33.130  23.041   3.717
50934W        W16095  44.408   0.502   2.268
50935W        W16096  13.791  37.917   1.659
50936W        W16097  38.883  43.593  14.542
50937W        W16098  29.730   7.246  10.382
50938W        W16099  34.870  32.181   0.678
50939W        W16100  36.822  39.043   4.081
50940W        W16101  43.534  18.448  14.868
50941W        W16102   4.286  39.613  13.681
50942W        W16103  37.150  18.676  11.665
50943W        W16104   6.699  16.889   4.682
50944W        W16105   8.807   3.746   4.799
50945W        W16106   2.233  21.090   1.669
50946W        W16107  19.741  23.751   2.806
50947W        W16108  43.003  14.061   2.752
50948W        W16109   2.886  34.567   3.908
50949W        W16110   4.619  44.830  12.495
50950W        W16111  24.164  43.285  12.043
50951W        W16112   1.242   9.733  13.701
50952W        W16113  12.185  10.986   0.396
50953W        W16114   3.889  19.217   3.551
50954W        W16115   6.191   5.454   2.550
50955W        W16116  16.010   2.668  12.456
50956W        W16117   4.445  14.266   0.794
50957W        W16118   1.861   0.225   3.899
50958W        W16119  30.928  32.869  12.966
50959W        W16120   1.838  40.343  12.118
50960W        W16121   6.923   5.512  13.960
50961W        W16122  34.060  35.130   0.013
50962W        W16123  14.654  13.636  13.071
50963W        W16124  18.682  28.719   1.213
50964W        W16125  25.978  19.906   1.846
50965W        W16126   5.005   2.770   0.010
50966W        W16127  19.273   7.102  14.103
50967W        W16128   3.498   3.873   3.218
50968W        W16129  18.209  20.542   1.625
50969W        W16130  19.275  43.357  11.392
50970W        W16131  23.105  31.694   2.141
50971W        W16132   8.660  32.957  11.945
50972W        W16133   3.185  31.677   2.286
50973W        W16134  13.604  18.912  10.552
50974W        W16135  31.589  14.765  12.922
50975W        W16136  18.300  14.497   1.800
50976W        W16137   6.895  21.640   3.867
50977W        W16138  30.139  19.864   0.447
50978W        W16139  23.208  15.519  14.097
50979W        W16140  26.561  15.741  11.080
50980W        W16141  36.986   4.790   4.030
50981W        W16142  40.868  32.478  11.424
50982W        W16143  18.030  25.507  14.005
50983W        W16144  34.969   7.967  10.820
50984W        W16145  33.617  17.726   4.059
50985W        W16146   0.335  26.932  10.999
50986W        W16147   3.198  41.779  14.839
50987W        W16148  43.768  35.412   5.062
50988W        W16149  26.045  18.479   4.848
50989W        W16150   3.509  43.028  10.742
50990W        W16151  42.565  39.450  14.764
50991W        W16152  33.868  23.787   3.957
50992W        W16153  30.587  40.948   2.808
50993W        W16154  31.074  21.522  13.853
50994W        W16155  13.601  24.872  13.504
50995W        W16156  10.883  42.457   4.655
50996W        W16157   6.238  31.633  14.591
50997W        W16158  33.777   2.534  14.486
50998W        W16159  12.649  22.489  14.942
50999W        W16160   9.837  30.070   1.867
51000W        W16161  25.141  10.289   5.007
51001W        W16162  15.233  25.680   3.240
51002W        W16163  10.595  15.362  12.018
51003W        W16164  36.525  16.672   3.214
51004W        W16165  42.053  36.369  12.063
51005W        W16166  26.681  10.310   1.269
51006W        W16167   2.407  24.052   0.944
51007W        W16168   6.306  25.051   4.629
51008W        W16169  16.702   7.891  11.237
51009W        W16170  33.541  22.000   2.948
51010W        W16171  15.316  21.929   3.178
51011W        W16172  17.705   2.851   4.369
51012W        W16173   9.629  15.216   1.988
51013W        W16174   5.426  22.420   2.380
51014W        W16175  10.468  17.812   2.328
51015W        W16176  35.984  11.799   1.654
51016W        W16177   6.870  19.842   3.639
51017W        W16178  25.045  18.716  14.223
51018W        W16179  30.908   5.317   1.748
51019W        W16180   7.311  42.989  14.480
51020W        W16181  34.156   2.484   0.301
51021W        W16182  10.240  19.015  13.570
51022W        W16183  23.477  15.756  12.017
51023W        W16184  16.833  39.770  11.190
51024W        W16185  34.626  12.033  13.582
51025W        W16186  21.077  24.558   0.462
51026W        W16187  28.118  10.173   4.225
51027W        W16188  15.355  31.666  13.477
51028W        W16189  40.640  42.002  10.829
51029W        W16190  29.658  41.025  10.156
51030W        W16191   2.818  39.481   3.289
51031W        W16192   9.470   7.901   3.449
51032W        W16193  20.266  21.210  11.522
51033W        W16194  22.056  14.607  14.049
51034W        W16195  15.446   5.256  12.936
51035W        W16196  29.708   3.985  13.034
51036W        W16197  40.009  23.260   4.236
51037W        W16198  13.817  37.421   0.966
51038W        W16199  33.359  10.370  14.219
51039W        W16200  15.154  44.576  14.383
51040W        W16201  38.083  39.783   3.144
51041W        W16202  33.498  38.762   3.977
51042W        W16203  14.236  34.147  11.493
51043W        W16204  31.362   8.320   3.011
51044W        W16205  16.105  11.201  11.182
51045W        W16206  26.750   6.027   0.559
51046W        W16207  36.312  19.306  12.505
51047W        W16208  37.576  32.908   0.952
51048W        W16209  24.215  25.241   2.657
51049W        W16210  28.009  31.397  12.932
51050W        W16211  14.907  18.147  14.369
51051W        W16212   2.278   2.563  14.849
51052W        W16213  18.380  33.147   1.814
51053W        W16214  32.998  41.468   0.737
51054W        W16215  25.016  39.864  14.278
51055W        W16216  13.248  28.243  10.298
51056W        W16217  14.317  19.594   3.294
51057W        W16218   5.068  29.968   3.530
51058W        W16219  37.061  34.241   1.253
51059W        W16220  25.127  27.166  10.574
51060W        W16221  23.258  24.635  14.217
51061W        W16222  25.273  15.221   4.527
51062W        W16223  19.767  35.114  11.912
51063W        W16224   6.414  18.825  14.320
51064W        W16225  17.321  34.607  13.922
51065W        W16226  38.579  21.704   0.404
51066W        W16227  27.055  25.708   1.919
51067W        W16228   1.420  15.873   9.851
51068W        W16229  44.365  38.081  11.653
51069W        W16230  24.786  34.592   4.599
51070W        W16231   9.834  23.809   1.278
51071W        W16232  37.092  14.149   0.933
51072W        W16233  17.644   1.937   0.374
51073W        W16234  16.839  16.509   3.203
51074W        W16235  21.124  26.469  12.091
51075W        W16236  19.864   8.710  13.514
51076W        W16237  43.741   8.242  11.556
51077W        W16238   6.643   8.099  14.814
51078W        W16239  44.972  24.894  14.954
51079W        W16240  17.105  12.331  14.956
51080W        W16241  11.554  34.993   1.297
51081W        W16242  30.494   7.577   1.475
51082W        W16243  38.607  27.065   1.649
51083W        W16244  16.849  20.116   1.626
51084W        W16245  17.712  38.898  14.267
51085W        W16246  44.924   4.836   4.894
51086W        W16247  37.936  29.679  13.428
51087W        W16248  31.522  13.990   1.442
51088W        W16249   4.354   1.820  13.778
51089W        W16250   8.876  43.576   1.725
51090W        W16251   8.648  20.177   0.938
51091W        W16252  19.272  26.560  13.424
51092W        W16253   8.345  25.948  13.314
51093W        W16254  26.415   0.910  12.044
51094W        W16255   6.419  39.275   4.169
51095W        W16256   0.068  22.195   0.396
51096W        W16257  44.415   4.368   4.598
51097W        W16258   8.713  36.659  11.090
51098W        W16259  39.815  36.135   1.312
51099W        W16260  18.413   1.958   3.355
51100W        W16261   7.638  42.055   0.890
51101W        W16262  25.922  23.124   1.230
51102W        W16263  16.691  17.710  13.313
51103W        W16264  13.873  40.953   9.855
51104W        W16265  31.832  41.140   3.177
51105W        W16266  17.758   4.675   4.726
51106W        W16267  23.367  11.802  14.299
51107W        W16268  21.506  15.748   2.564
51108W        W16269  36.458  20.557  13.842
51109W        W16270   2.683   7.920  12.507
51110W        W16271  21.886  29.707   3.242
51111W        W16272   6.171  14.425   5.129
51112W        W16273  36.143  17.757  14.725
51113W        W16274  16.987   3.397   9.772
51114W        W16275  22.647   0.771   2.379
51115W        W16276   9.745  36.497   0.842
51116W        W16277  20.085  19.202  12.529
51117W        W16278  28.602  13.034  13.532
51118W        W16279  26.982   6.378  14.601
51119W        W16280  33.455  43.038   4.580
51120W        W16281   9.468  29.442  14.820
51121W        W16282  21.700  17.134  10.662
51122W        W16283  11.195  13.834   0.429
51123W        W16284  17.028  26.744  11.573
51124W        W16285  40.064  41.290   1.210
51125W        W16286  39.272   7.334  14.962
51126W        W16287  15.626  43.925  12.923
51127W        W16288  26.529   6.900  11.529
51128W        W16289   3.375  13.937  12.538
51129W        W16290  16.156   3.955  14.864
51130W        W16291  38.619  12.712   3.628
51131W        W16292  20.446  23.732  11.162
51132W        W16293  33.668  19.518  12.503
51133W        W16294  10.807   0.404   3.607
51134W        W16295   5.640  23.000  11.496
51135W        W16296   8.615  26.473  10.543
51136W        W16297   2.195  30.190   5.079
51137W        W16298  42.409  12.260  10.707
51138W        W16299  16.915  11.109  12.003
51139W        W16300  35.369  18.103   2.018
51140W        W16301  11.366  23.585  10.726
51141W        W16302  35.162  29.167   2.353
51142W        W16303  44.894  39.628  11.471
51143W        W16304  40.471  14.257  11.597
51144W        W16305  43.250  22.448   1.176
51145W        W16306  40.409   8.320   2.972
51146W        W16307  33.859  34.364  11.528
51147W        W16308  19.289  27.526  10.733
51148W        W16309   1.248   6.238  14.901
51149W        W16310  16.758  24.580  13.637
51150W        W16311  33.688  12.710   2.770
51151W        W16312  27.822  44.834   3.394
51152W        W16313  22.183  12.921  10.571
51153W        W16314  28.078  29.083   1.569
51154W        W16315  26.933  15.594   9.761
51155W        W16316   4.385   8.364   1.673
51156W        W16317  37.593   1.427   2.997
51157W        W16318  15.175  12.126   1.958
51158W        W16319  23.331   8.152  13.832
51159W        W16320  15.800  24.552   0.477
51160W        W16321  14.372   2.761   1.265
51161W        W16322  29.707  15.692  13.082
51162W        W16323  13.759  40.858   1.188
51163W        W16324   4.276   2.912   3.358
51164W        W16325   4.935  22.053   1.755
51165W        W16326  33.684  26.990   1.773
51166W        W16327  17.643  22.239   1.802
51167W        W16328  36.365  26.505   0.010
51168W        W16329  15.608   9.918   3.615
51169W        W16330  36.506  41.361   0.557
51170W        W16331   2.907  19.207  12.963
51171W        W16332   4.474   5.761   2.773
51172W        W16333  42.102  20.924  11.670
51173W        W16334  26.224   3.938   0.008
51174W        W16335  42.421  13.080  14.292
51175W        W16336   7.462  29.528  14.775
51176W        W16337  34.796  20.597   4.101
51177W        W16338  23.580  32.975   1.415
51178W        W16339  38.719  37.656   4.235
51179W        W16340  15.350   7.839   2.239
51180W        W16341  33.828  32.103  13.247
51181W        W16342  11.210  26.528  14.827
51182W        W16343   3.696  31.040   2.900
51183W        W16344   5.795  34.962   4.626
51184W        W16345  32.615   8.768   1.374
51185W        W16346   3.732   6.402  11.619
51186W        W16347   4.002   4.883   2.767
51187W        W16348   9.303  42.297  14.834
51188W        W16349  41.558  19.173  14.789
51189W        W16350   6.132  30.368   0.741
51190W        W16351  33.120  31.431  13.372
51191W        W16352  20.343  37.337  11.449
51192W        W16353   1.960  42.937  10.699
51193W        W16354  44.693   5.150  13.447
51194W        W16355  11.918  38.001  11.012
51195W        W16356  34.446  27.175  11.892
51196W        W16357   6.977   9.429   0.293
51197W        W16358   9.104  23.579  14.848
51198W        W16359  24.534  22.205  14.853
51199W        W16360   7.130  12.063   0.818
51200W        W16361  14.913  17.193   3.147
51201W        W16362  22.998   4.553  11.979
51202W        W16363  36.097  25.961  14.324
51203W        W16364  18.106  13.691  10.216
51204W        W16365  43.446   3.346   2.319
51205W        W16366  19.502   5.631  12.325
51206W        W16367   3.448  18.787   0.447
51207W        W16368   0.982  31.063   2.267
51208W        W16369   0.941  37.630   4.124
51209W        W16370  31.736  37.094   4.115
51210W        W16371   2.912  24.629   0.442
51211W        W16372   5.002  37.626   0.455
51212W        W16373   3.216  35.540   1.206
51213W        W16374   0.817  22.088   2.215
51214W        W16375  42.607  24.084   0.811
51215W        W16376  10.913  14.286   0.847
51216W        W16377  40.372  29.570  12.554
51217W        W16378  37.580  40.049  11.148
51218W        W16379  18.005   8.188  14.328
51219W        W16380  41.389   9.279   4.633
51220W        W16381   9.372  29.086   0.379
51221W        W16382  26.521  20.000   3.160
51222W        W16383  22.043   3.246  10.614
51223W        W16384  26.000  25.224  13.005
51224W        W16385  20.115   0.350   3.702
51225W        W16386   1.248  29.789   5.126
51226W        W16387  13.663  12.118   0.236
51227W        W16388   5.906  17.553   1.675
51228W        W16389  22.009   3.750  13.345
51229W        W16390  36.045  11.852  14.319
51230W        W16391  41.306  44.923  14.731
51231W        W16392  34.440   4.765   1.290
51232W        W16393  42.019  29.742   1.669
51233W        W16394  35.315  16.634   4.774
51234W        W16395  43.920   3.405   1.848
51235W        W16396  26.225  34.558  10.673
51236W        W16397  10.080  27.081  14.510
51237W        W16398  13.581  43.234  11.807
51238W        W16399  36.547  43.246   2.765
51239W        W16400  29.643  27.919   0.829
51240W        W16401  10.810  36.670  13.182
51241W        W16402  19.414  24.699  10.435
51242W        W16403  33.722  38.109   2.378
51243W        W16404  27.996  25.961  11.012
51244W        W16405  15.590  19.988   2.251
51245W        W16406   6.140   3.887   0.225
51246W        W16407  43.779  13.735   1.470
51247W        W16408  37.473  30.030  12.681
51248W        W16409  31.027  36.765   3.782
51249W        W16410  33.944  37.014   1.384
51250W        W16411  34.508  22.954   4.718
51251W        W16412  27.311  10.136  12.531
51252W        W16413  44.115  40.530  12.650
51253W        W16414   5.407  35.804  14.860
51254W        W16415   6.118   4.237   0.802
51255W        W16416  34.559  10.722  11.461
51256W        W16417  22.537  20.596   4.558
51257W        W16418  31.587  38.477   5.450
51258W        W16419  34.816   1.473   1.659
51259W        W16420  19.756  10.687   0.751
51260W        W16421  21.206  29.855   2.867
51261W        W16422  31.535  29.652  12.385
51262W        W16423  28.509  18.486  14.768
51263W        W16424  23.945  11.113  14.033
51264W        W16425   4.637  43.542  11.345
51265W        W16426  25.468  34.245  14.255
51266W        W16427  44.922  20.124  11.159
51267W        W16428  42.757  44.527   2.473
51268W        W16429  36.670  10.414  10.107
51269W        W16430  38.102  39.279   0.944
51270W        W16431  27.188   7.642   0.290
51271W        W16432  43.328  29.801  11.902
51272W        W16433   3.790   1.323   2.536
51273W        W16434  13.792  36.963   0.283
51274W        W16435  39.061  30.427   2.476
51275W        W16436   1.837  19.537   3.702
51276W        W16437  18.090  20.987   1.908
51277W        W16438  17.596  35.961   0.973
51278W        W16439  26.399  19.921  10.896
51279W        W16440  17.851  35.384  13.771
51280W        W16441   1.096  42.580   2.888
51281W        W16442  21.140  26.515   5.026
51282W        W16443  38.563  31.099  11.165
51283W        W16444  38.922   9.091   2.108
51284W        W16445   1.148  17.114   0.213
51285W        W16446  28.672  37.823  13.951
51286W        W16447  43.568   8.997   0.676
51287W        W16448   1.262  22.251   2.959
51288W        W16449   9.662  12.127  12.629
51289W        W16450   7.724   6.198  11.744
51290W        W16451  29.447  11.487   3.209
51291W        W16452  28.127   7.823   2.252
51292W        W16453  21.065  26.743   0.280
51293W        W16454  14.395  17.129   2.426
51294W        W16455  27.985   7.007   1.803
51295W        W16456  41.709  23.020  12.066
51296W        W16457  44.585   4.168   1.578
51297W        W16458  39.419  35.550   4.212
51298W        W16459  25.785   6.179  13.600
51299W        W16460  21.883  17.147   9.825
51300W        W16461  26.505  26.071  10.860
51301W        W16462  21.715  28.913   4.433
51302W        W16463  11.178  41.940   0.307
51303W        W16464  12.939  12.665   0.397
51304W        W16465  28.931  31.115   3.029
51305W        W16466   7.150  32.613   1.751
51306W        W16467  27.005   7.450  12.943
51307W        W16468  17.266  11.120   2.628
51308W        W16469  36.601  29.528   0.690
51309W        W16470   1.223  36.781   2.710
51310W        W16471   9.375  41.443   3.024
51311W        W16472  26.253  17.346  13.532
51312W        W16473  44.842  15.607   3.314
51313W        W16474  28.185  29.525   4.169
51314W        W16475  23.036  16.344  14.742
51315W        W16476  34.395  34.391   2.313
51316W        W16477  28.069   5.225   2.357
51317W        W16478   7.980   7.339   1.884
51318W        W16479  27.884   0.479  11.566
51319W        W16480  38.935  32.550  11.162
51320W        W16481  14.946  38.776   4.235
51321W        W16482   4.989  33.116  11.127
51322W        W16483   3.975  16.717  12.812
51323W        W16484  18.573  21.157  14.357
51324W        W16485  18.027  12.570  11.602
51325W        W16486  23.692  14.320  10.682
51326W        W16487  11.786  17.153  13.803
51327W        W16488   1.455   5.701  13.773
51328W        W16489  21.583  43.972   1.703
51329W        W16490  38.575  13.629  14.885
51330W        W16491  19.674   0.744  14.949
51331W        W16492  18.057  22.923   3.607
51332W        W16493  43.693  27.476   1.302
51333W        W16494  33.405  29.545  12.542
51334W        W16495   2.526   1.771  12.995
51335W        W16496  27.695  13.280   0.820
51336W        W16497  17.996  20.839  13.155
51337W        W16498  42.012  15.344  11.200
51338W        W16499  39.551  21.221  11.509
51339W        W16500  37.462  40.911  12.106
51340W        W16501  14.573  31.660  11.508
51341W        W16502  14.197  18.515   1.028
51342W        W16503  25.245  34.577   3.181
51343W        W16504   0.837   0.165   0.425
51344W        W16505  40.031   7.699  13.976
51345W        W16506  14.612  34.475  10.629
51346W        W16507  37.083  15.321  10.747
51347W        W16508  11.700  38.045   1.360
51348W        W16509  34.802   0.736   1.109
51349W        W16510  11.257  24.168   0.760
51350W        W16511  12.280  16.464   3.111
51351W        W16512  42.403   0.358   3.070
51352W        W16513  17.104  32.395   2.860
51353W        W16514  21.325  26.937   3.764
51354W        W16515   9.347  32.159  13.445
51355W        W16516  22.397   1.351   0.468
51356W        W16517  17.077  35.466  14.013
51357W        W16518  21.792  27.474   2.853
51358W        W16519   8.736  30.711   3.814
51359W        W16520  40.924  38.562   2.398
51360W        W16521   5.530  12.871   1.181
51361W        W16522  38.921  21.428  12.963
51362W        W16523  35.882   8.682  10.863
51363W        W16524  31.556  24.613  12.875
51364W        W16525  17.132  13.087   3.174
51365W        W16526  17.135  43.008  11.712
51366W        W16527  40.544  35.616   1.615
51367W        W16528  29.952  36.740  10.661
51368W        W16529  20.509   5.856  11.552
51369W        W16530   7.732  21.449   3.260
51370W        W16531  29.300   4.001  11.809
51371W        W16532   7.223  22.015   3.627
51372W        W16533  32.147  35.600   1.634
51373W        W16534  23.474   7.945  11.535
51374W        W16535  22.385  19.612   5.042
51375W        W16536   6.087  25.600  13.981
51376W        W16537  38.043  28.031  13.941
51377W        W16538   5.133  18.731  13.871
51378W        W16539   8.459   0.364   0.669
51379W        W16540  21.458   5.442  13.010
51380W        W16541  14.676   6.073   0.426
51381W        W16542  25.833  37.508   2.945
51382W        W16543  41.592  16.200   3.774
51383W        W16544  13.557  36.474  11.642
51384W        W16545  42.977  19.470   1.299
51385W        W16546  29.930  19.656   3.552
51386W        W16547  17.481  35.697  10.302
51387W        W16548   7.720  35.060  12.186
51388W        W16549  17.260  14.679   0.762
51389W        W16550  25.624  18.792   1.672
51390W        W16551  17.075   9.921   0.528
51391W        W16552  38.331  36.849   2.622
51392W        W16553  10.264  23.500   0.387
51393W        W16554  42.509  44.366   2.034
51394W        W16555  21.561  35.080  12.548
51395W        W16556  41.237  37.561   1.765
51396W        W16557  12.456  42.323  11.952
51397W        W16558   7.392   6.245   4.515
51398W        W16559  34.115  41.484  13.945
51399W        W16560   7.146  20.127  12.614
51400W        W16561  20.630  43.501   4.636
51401W        W16562  23.495  17.156  12.036
51402W        W16563  17.874  38.250   2.573
51403W        W16564   3.270  44.038   2.812
51404W        W16565  31.981  22.218   0.708
51405W        W16566  34.101  27.489   2.941
51406W        W16567  23.306   6.520   2.281
51407W        W16568  29.793  34.141  13.850
51408W        W16569  15.272  10.298  11.448
51409W        W16570  40.866  13.340   1.349
51410W        W16571   9.888  21.507   1.206
51411W        W16572  28.305  17.333  13.048
51412W        W16573  35.120  43.131  12.173
51413W        W16574   3.239  33.935  10.652
51414W        W16575  27.907  42.062  14.827
51415W        W16576  14.373   9.733   4.154
51416W        W16577   4.264  42.035   2.664
51417W        W16578  26.075   1.175   3.346
51418W        W16579  18.072  24.463  13.044
51419W        W16580  18.471   7.771  10.733
51420W        W16581  25.479  19.649   2.689
51421W        W16582  19.829  39.009   0.401
51422W        W16583  15.934  12.972  14.451
51423W        W16584   7.668   7.173  10.868
51424W        W16585  10.571  28.077   1.126
51425W        W16586  23.620  29.831  11.549
51426W        W16587  40.370  40.996  14.058
51427W        W16588  12.629  36.543   3.965
51428W        W16589  19.552  17.875   2.471
51429W        W16590   2.325  20.089  12.432
51430W        W16591  42.378   4.195   1.307
51431W        W16592  21.583   8.754   2.748
51432W        W16593  16.754  44.858  12.453
51433W        W16594  16.812  25.677  14.889
51434W        W16595   0.646  37.485  10.467
51435W        W16596  17.028  35.916  13.757
51436W        W16597  29.413  19.127   0.728
51437W        W16598  16.112  20.121  13.223
51438W        W16599  12.792  12.914   2.695
51439W        W16600  42.380  41.458   4.327
51440W        W16601  35.437  17.486   4.836
51441W        W16602  38.922   3.959  11.576
51442W        W16603  37.423  37.865  12.787
51443W        W16604   9.657  18.581  12.027
51444W        W16605  13.364  30.257   2.789
51445W        W16606  22.625  39.438   4.978
51446W        W16607  28.402  24.181  12.461
51447W        W16608  39.658  42.494  12.835
51448W        W16609  13.959  11.706  10.749
51449W        W16610  42.881  37.676   4.441
51450W        W16611  28.997   3.696  11.032
51451W        W16612  10.947  29.137  13.859
51452W        W16613   4.826  25.846  13.473
51453W        W16614  40.794  33.549   1.044
51454W        W16615  34.988  42.650  12.082
51455W        W16616  30.971   6.783   3.790
51456W        W16617  22.078  33.638   0.163
51457W        W16618  24.495   9.642  13.116
51458W        W16619  17.148   7.400  12.426
51459W        W16620   3.752  20.478   3.778
51460W        W16621  14.035   6.806   4.401
51461W        W16622   0.528  27.063  12.975
51462W        W16623  35.544   6.207  11.536
51463W        W16624  36.657  44.988  11.083
51464W        W16625   9.263   5.599  11.927
51465W        W16626  28.951  22.676  13.331
51466W        W16627  14.114  34.472   2.874
51467W        W16628  44.025   1.874  11.651
51468W        W16629   0.949   5.701  10.635
51469W        W16630   2.895  18.214   3.657
51470W        W16631  15.609  10.437   3.557
51471W        W16632  43.797   8.975   1.809
51472W        W16633  41.432   3.473   3.624
51473W        W16634  17.131  32.955   0.382
51474W        W16635  23.493  43.432  12.556
51475W        W16636  15.057  10.905  14.052
51476W        W16637  10.489  18.522   4.523
51477W        W16638  26.505  18.084  10.776
51478W        W16639   7.754   4.453  12.601
51479W        W16640  27.909  21.983  14.806
51480W        W16641  13.971  21.081   4.098
51481W        W16642  15.001  22.705  14.275
51482W        W16643  28.496  15.048  10.702
51483W        W16644   6.320   4.217  13.305
51484W        W16645  31.642  13.247   2.351
51485W        W16646  14.328  23.450   2.749
51486W        W16647  17.357   0.152  13.913
51487W        W16648  30.239  44.711  11.517
51488W        W16649  30.179  36.682  13.964
51489W        W16650  30.187  25.119  14.808
51490W        W16651  38.055  28.646   2.169
51491W        W16652  37.564  18.785  14.823
51492W        W16653  22.717  30.931  13.903
51493W        W16654   8.038  27.059   4.744
51494W        W16655  37.745   4.689   2.329
51495W        W16656  20.762  27.312  10.508
51496W        W16657  41.257   4.852  12.029
51497W        W16658   8.942   6.744  10.961
51498W        W16659  42.826  18.250   2.609
51499W        W16660  14.462  17.787   0.075
51500W        W16661  15.825  29.873  12.034
51501W        W16662  10.624  14.407  13.080
51502W        W16663  15.557  22.618  13.529
51503W        W16664  20.338  17.842  13.538
51504W        W16665   2.313  24.818  10.673
51505W        W16666  30.069  14.606   2.563
51506W        W16667  28.443  33.518   0.857
51507W        W16668  11.134  19.329   1.250
51508W        W16669  20.260  13.200   1.901
51509W        W16670  42.759  26.197  12.900
51510W        W16671  10.714  19.155  12.477
51511W        W16672  19.586   9.835  14.935
51512W        W16673  37.467  43.907  13.365
51513W        W16674   4.897  21.234  10.523
51514W        W16675  36.872  11.340  13.065
51515W        W16676  17.265  22.270  13.588
51516W        W16677  26.222  40.458  12.078
51517W        W16678  33.931  35.347   4.459
51518W        W16679   1.779   7.705  13.979
51519W        W16680  19.042  35.636   4.140
51520W        W16681   2.162  14.962  12.850
51521W        W16682   9.146  25.051  14.872
51522W        W16683  26.564   2.610   0.113
51523W        W16684  33.515  39.426   3.038
51524W        W16685  35.110  27.919   0.471
51525W        W16686  43.852  38.530   3.714
51526W        W16687  34.337  26.675  11.658
51527W        W16688   7.772  36.972   4.726
51528W        W16689  30.418  14.456  13.798
51529W        W16690  36.928   7.606   0.388
51530W        W16691  13.392  27.144  11.717
51531W        W16692  44.381  17.924   4.535
51532W        W16693  18.545  34.211   3.825
51533W        W16694  11.761  13.745   1.632
51534W        W16695  41.779  35.289   1.710
51535W        W16696   6.906  44.352   2.699
51536W        W16697  36.884  20.817  13.977
51537W        W16698  23.758  40.934   1.372
51538W        W16699   8.358   7.327   3.602
51539W        W16700  11.729  11.610   3.204
51540W        W16701  14.078  30.630   1.886
51541W        W16702  10.657  15.225   3.325
51542W        W16703  30.461  31.421   1.399
51543W        W16704  20.797  11.769  13.108
51544W        W16705  41.973  27.245   4.150
51545W        W16706  32.963  35.702  14.437
51546W        W16707  31.555  11.779   1.370
51547W        W16708  42.741  16.282   1.716
51548W        W16709   6.879   5.212   3.118
51549W        W16710  11.595   4.259  12.399
51550W        W16711   3.296  36.920  14.393
51551W        W16712   8.591  25.102   4.599
51552W        W16713  16.194  30.068   3.204
51553W        W16714  36.048  27.954  14.451
51554W        W16715  21.147  14.307   1.313
51555W        W16716  25.305   4.211  12.871
51556W        W16717  35.924  38.523   4.175
51557W        W16718  42.483  23.081   4.099
51558W        W16719  32.810   6.295   4.633
51559W        W16720  10.878  30.518   0.770
51560W        W16721   6.295  22.046  13.982
51561W        W16722   0.353  25.905   0.094
51562W        W16723  21.693  19.040  13.588
51563W        W16724  38.979  17.332   1.412
51564W        W16725   4.868  11.310   2.720
51565W        W16726   5.738  35.152  14.506
51566W        W16727  33.987  15.716  12.402
51567W        W16728  13.893  44.834  12.835
51568W        W16729  43.818  22.406   2.985
51569W        W16730  15.818  12.158   0.867
51570W        W16731   4.862  31.899  12.421
51571W        W16732  32.597  18.792  13.730
51572W        W16733  26.627  27.374   0.848
51573W        W16734   0.670   3.723  13.253
51574W        W16735  15.141   0.643  11.242
51575W        W16736   8.375  13.636  11.217
51576W        W16737  10.128  13.657   3.790
51577W        W16738  34.652  34.182  13.990
51578W        W16739  15.082  33.968  12.445
51579W        W16740  39.257  29.149  12.953
51580W        W16741  14.331   2.491  10.920
51581W        W16742   4.713   5.832   3.242
51582W        W16743   2.901  28.446   1.947
51583W        W16744  22.605  37.682   3.314
51584W        W16745  22.427  34.985  14.943
51585W        W16746  15.800  14.588   0.957
51586W        W16747   2.789   8.769   1.405
51587W        W16748  17.703  10.299   4.704
51588W        W16749  13.111  38.340  14.301
51589W        W16750  42.278  24.117   3.144
51590W        W16751   5.910  38.825   1.910
51591W        W16752   8.394  18.721  12.499
51592W        W16753  40.333   3.850   2.376
51593W        W16754  31.242  17.718   2.209
51594W        W16755  13.092  22.440  11.200
51595W        W16756  44.846   5.651  13.374
51596W        W16757  13.324   3.574   3.102
51597W        W16758  42.944  36.859  13.476
51598W        W16759  34.585  43.747   4.960
51599W        W16760  25.990  19.977  11.511
51600W        W16761  40.427   5.746   1.343
51601W        W16762   9.607   6.669  10.750
51602W        W16763  23.624  40.124  14.847
51603W        W16764   8.114   8.118  14.889
51604W        W16765  16.465  37.932  13.031
51605W        W16766  20.339  20.691  10.729
51606W        W16767  34.593  38.482  12.284
51607W        W16768  11.624  31.413   4.164
51608W        W16769  22.583  15.693   4.991
51609W        W16770  28.949   6.284  12.407
51610W        W16771   5.735  34.045  10.817
51611W        W16772  16.091   5.233  10.188
51612W        W16773  44.014  12.059  12.601
51613W        W16774  20.088  13.118   1.404
51614W        W16775  21.022  34.063   3.921
51615W        W16776  13.248  15.677  14.417
51616W        W16777  44.574   1.931   0.856
51617W        W16778  24.961   2.831   0.267
51618W        W16779  27.718  36.045  11.611
51619W        W16780  35.970  32.680   1.375
51620W        W16781  16.108  20.556   1.338
51621W        W16782   8.885  20.483   1.345
51622W        W16783   9.276  33.404  12.906
51623W        W16784  12.715  23.515   1.768
51624W        W16785   2.390  41.297   4.293
51625W        W16786  10.609  19.033   4.510
51626W        W16787  27.515  20.019  14.536
51627W        W16788  36.544  36.977  10.827
51628W        W16789  17.531  19.111  11.351
51629W        W16790  36.056  17.329   3.656
51630W        W16791  33.981  12.050  13.825
51631W        W16792  40.393  10.790  12.776
51632W        W16793  11.192  25.615   1.419
51633W        W16794  10.267  37.477  14.377
51634W        W16795  15.604  14.215  11.154
51635W        W16796  24.095  13.828  14.326
51636W        W16797  42.992  11.887   2.896
51637W        W16798  14.731  12.616  14.485
51638W        W16799  13.790  29.045   4.871
51639W        W16800  25.100  35.543  10.677
51640W        W16801  24.011  40.304   3.054
51641W        W16802  34.315  34.563   4.514
51642W        W16803  27.961  27.911   3.541
51643W        W16804  26.680  37.494  11.883
51644W        W16805   1.652  18.739   0.773
51645W        W16806  36.387  30.497  12.145
51646W        W16807   5.233  16.339  13.847
51647W        W16808  14.608  42.123   0.104
51648W        W16809   3.863   8.477   1.806
51649W        W16810  17.121  33.454   0.601
51650W        W16811  25.619   2.485   3.138
51651W        W16812   6.905  22.473  12.313
51652W        W16813  10.749  35.028   1.881
51653W        W16814  12.540   4.022  14.446
51654W        W16815  35.849  40.441   2.801
51655W        W16816  24.398  35.291   1.743
51656W        W16817  15.151   3.781  10.726
51657W        W16818  42.577  27.178  11.458
51658W        W16819   0.062   4.472  14.935
51659W        W16820  40.854  10.780  14.850
51660W        W16821  33.762  12.807   9.911
51661W        W16822  38.626   9.343  14.424
51662W        W16823  32.413  23.321   2.763
51663W        W16824  34.058  12.159   0.828
51664W        W16825  18.151  26.172   0.812
51665W        W16826  29.911  27.506  13.169
51666W        W16827  32.821   9.759  14.517
51667W        W16828   9.906  13.114   1.282
51668W        W16829  20.935  15.790   1.373
51669W        W16830  10.215  12.406   3.329
51670W        W16831  14.716  44.766   4.225
51671W        W16832  37.876  23.435   1.400
51672W        W16833   4.768  27.576   2.628
51673W        W16834  25.672  13.876   1.357
51674W        W16835   7.854  17.645   0.389
51675W        W16836  36.806  30.809  14.403
51676W        W16837  39.908   3.415  14.584
51677W        W16838  27.570   6.423  13.432
51678W        W16839   3.638  25.107   4.906
51679W        W16840  41.774  23.286   2.180
51680W        W16841  17.615   4.395  13.605
51681W        W16842  30.647  13.353   1.390
51682W        W16843  18.507   8.849   1.033
51683W        W16844  22.937   8.743  10.848
51684W        W16845  42.255  16.707   3.249
51685W        W16846  24.243  43.417   1.782
51686W        W16847   3.895  19.177  12.564
51687W        W16848  42.835   3.060   4.983
51688W        W16849   8.380  32.135   1.939
51689W        W16850  41.862  23.937   2.804
51690W        W16851  38.079   1.215   3.095
51691W        W16852  43.481  31.625   2.765
51692W        W16853  37.912   1.597   4.024
51693W        W16854  16.811  14.631   1.848
51694W        W16855  24.127   4.247   3.149
51695W        W16856   8.391  18.483   0.271
51696W        W16857   7.200  32.523   4.014
51697W        W16858  38.930   2.255  13.169
51698W        W16859   5.025   9.678   1.713
51699W        W16860  23.336  40.345  12.028
51700W        W16861   6.149   8.858   3.272
51701W        W16862  27.967  12.087  12.423
51702W        W16863  33.915  27.721  13.401
51703W        W16864  22.623  31.964   2.144
51704W        W16865  24.511   9.185  12.781
51705W        W16866  13.917   6.194  14.936
51706W        W16867  19.529  25.512   5.092
51707W        W16868  18.216   9.371   3.169
51708W        W16869  35.718  16.261  11.175
51709W        W16870  15.703  31.655   1.876
51710W        W16871  12.922  42.500  11.979
51711W        W16872  42.274   2.266  14.294
51712W        W16873  10.202  43.787  11.671
51713W        W16874   8.957   6.457  14.086
51714W        W16875  39.776  36.030  11.048
51715W        W16876  14.690  18.525   3.289
51716W        W16877  31.628  33.406   0.350
51717W        W16878  33.431  10.293  12.950
51718W        W16879   9.389   0.779   1.959
51719W        W16880  29.890   6.863   1.834
51720W        W16881  25.567  28.981   1.672
51721W        W16882  31.436  26.879   2.257
51722W        W16883  35.120  32.614   0.868
51723W        W16884   1.013  29.344   1.271
51724W        W16885   3.233  32.017  13.555
51725W        W16886  20.510  10.509  13.084
51726W        W16887  29.646  27.060   1.088
51727W        W16888  40.802  43.341   3.291
51728W        W16889  28.512  37.777   4.614
51729W        W16890  20.660  19.526   0.381
51730W        W16891   0.876  31.834  13.040
51731W        W16892  14.773  42.909  11.358
51732W        W16893   2.862  37.942   1.935
51733W        W16894  15.760   7.369  12.826
51734W        W16895  30.425  18.553   4.328
51735W        W16896   8.775  41.266  12.063
51736W        W16897  13.041  24.914  13.038
51737W        W16898  18.006  20.087  10.767
51738W        W16899  13.548  26.733  13.869
51739W        W16900  24.235  30.552   0.099
51740W        W16901  30.472  18.843   2.258
51741W        W16902  16.614  43.511  12.486
51742W        W16903  33.023  15.167   1.431
51743W        W16904  31.629  25.208  12.206
51744W        W16905  15.263  19.241   3.246
51745W        W16906  33.270  21.132  10.285
51746W        W16907  17.302  20.444  12.468
51747W        W16908  23.090  18.075   3.800
51748W        W16909   3.915  16.749   0.205
51749W        W16910  41.088  24.063  14.015
51750W        W16911   9.383   8.782   4.006
51751W        W16912  11.673  23.435   4.165
51752W        W16913   6.356   9.780  11.997
51753W        W16914  22.218  42.422   0.053
51754W        W16915  34.732  36.479   5.698
51755W        W16916  42.334  31.884   2.477
51756W        W16917  43.112  40.541  12.487
51757W        W16918  44.991   8.319   4.977
51758W        W16919   4.557  22.156   2.131
51759W        W16920  13.298  38.489  12.076
51760W        W16921  27.974  32.422  11.697
51761W        W16922  24.733   8.625  11.229
51762W        W16923  44.081   3.930  14.504
51763W        W16924   4.936  24.010   4.613
51764W        W16925  16.524  32.697  14.311
51765W        W16926  41.024   9.136   1.026
51766W        W16927  36.997   7.150   3.912
51767W        W16928  26.416  32.224  13.151
51768W        W16929  12.331  24.676  14.520
51769W        W16930  25.589  11.205  14.331
51770W        W16931  11.523  39.577   4.118
51771W        W16932   9.272  29.928  14.921
51772W        W16933  28.434  11.113  14.872
51773W        W16934  40.705  11.815  13.364
51774W        W16935  25.442  24.593   0.174
51775W        W16936  25.946  25.476  14.923
51776W        W16937  27.997  24.362   2.010
51777W        W16938   7.504  11.277  11.360
51778W        W16939  15.337  38.002   0.306
51779W        W16940  18.073  13.084  11.585
51780W        W16941   0.351   7.401   3.768
51781W        W16942  37.730  38.230   4.987
51782W        W16943  29.595  22.176   0.228
51783W        W16944   1.389  41.370   2.422
51784W        W16945  25.209   2.874  12.695
51785W        W16946  26.398  35.170   1.192
51786W        W16947  20.034  36.953  13.955
51787W        W16948  19.532   7.147   2.346
51788W        W16949   9.351  41.037   3.398
51789W        W16950  21.578   6.343  14.901
51790W        W16951  25.693   9.598   0.467
51791W        W16952  37.412  25.943   3.432
51792W        W16953  28.561   1.455  12.313
51793W        W16954  39.908   2.975   2.754
51794W        W16955   3.827  17.147   4.479
51795W        W16956  12.896  44.243  14.730
51796W        W16957  23.659   3.805   0.388
51797W        W16958   6.174  39.362   3.278
51798W        W16959  28.652  22.202  13.534
51799W        W16960  28.562  42.839   3.602
51800W        W16961  26.025  26.150   0.852
51801W        W16962  35.696  29.130  13.806
51802W        W16963  24.021  32.150   4.115
51803W        W16964  33.492  33.463  12.231
51804W        W16965  25.599   8.411   3.998
51805W        W16966  31.738  22.797   2.543
51806W        W16967  11.126  12.088  14.340
51807W        W16968  10.605   9.099  13.975
51808W        W16969  35.851  44.920  12.933
51809W        W16970  15.387  44.143   5.461
51810W        W16971  43.664   2.966  14.814
51811W        W16972  39.465   8.342  14.007
51812W        W16973   8.343   7.331   1.423
51813W        W16974  34.701   5.808   3.617
51814W        W16975  36.162   8.414   1.759
51815W        W16976  26.981   2.707  14.132
51816W        W16977  16.575  38.887   3.594
51817W        W16978  33.182  24.227  11.599
51818W        W16979  42.962  38.407  13.842
51819W        W16980  26.608   3.394   3.070
51820W        W16981  39.503  21.637  11.209
51821W        W16982  36.440  34.924   0.461
51822W        W16983  43.692  14.057   3.302
51823W        W16984  43.456  40.422   1.319
51824W        W16985  43.488  12.768   1.875
51825W        W16986  18.212   3.587  11.845
51826W        W16987   5.709  11.228  11.821
51827W        W16988   2.591  18.819   0.397
51828W        W16989  18.561   3.317  10.849
51829W        W16990  16.161   8.691  12.387
51830W        W16991   4.450  20.177   2.235
51831W        W16992  27.410   7.830  14.869
51832W        W16993  37.107   6.379  11.126
51833W        W16994  24.086  37.864  14.016
51834W        W16995  42.774  28.052   3.261
51835W        W16996  42.497   3.362   0.875
51836W        W16997   8.642  19.495  13.838
51837W        W16998  22.124  18.688   0.993
51838W        W16999  20.098  18.779   9.716
51839W        W17000  14.677  42.334   1.680
51840W        W17001  11.878  18.394   4.735
51841W        W17002   1.869  12.179   0.140
51842W        W17003  17.990  17.923   4.302
51843W        W17004  17.291  30.129   3.665
51844W        W17005  15.985  27.995  10.063
51845W        W17006  38.440  39.620   0.257
51846W        W17007  35.578   9.390   3.651
51847W        W17008  13.278  27.956   4.025
51848W        W17009   3.664  42.191   3.814
51849W        W17010   7.972  37.664   3.707
51850W        W17011  40.995   1.297   3.811
51851W        W17012   6.672   6.957  11.970
51852W        W17013  25.212   6.844  11.297
51853W        W17014  37.087  25.450  13.887
51854W        W17015  32.324  25.643  14.442
51855W        W17016  19.101  14.247   0.942
51856W        W17017  35.395  15.568  10.209
51857W        W17018  15.639  13.504   3.630
51858W        W17019  33.132  28.991  10.717
51859W        W17020  13.404  36.152   0.744
51860W        W17021  40.875  44.396  12.489
51861W        W17022  38.783  39.975   0.044
51862W        W17023   5.519  18.660   2.216
51863W        W17024  13.808  12.954  13.275
51864W        W17025   1.922  32.949  14.605
51865W        W17026  11.081   3.757   3.410
51866W        W17027  14.236  23.958   2.793
51867W        W17028  22.911   4.303  11.410
51868W        W17029  13.442  10.948   0.877
51869W        W17030   2.863  19.480   3.443
51870W        W17031  22.722  31.695   3.168
51871W        W17032  19.604  12.961  13.950
51872W        W17033   9.338   5.629  13.956
51873W        W17034  11.196  22.621   0.169
51874W        W17035  41.417  21.306   0.793
51875W        W17036  19.563  27.889   3.426
51876W        W17037  13.327  29.103   4.621
51877W        W17038  16.223   9.005   4.955
51878W        W17039   9.776   7.698  11.155
51879W        W17040  36.839  44.754  11.861
51880W        W17041   2.943  24.248  13.909
51881W        W17042   0.525  10.353  11.017
51882W        W17043  27.760  36.909   4.274
51883W        W17044  22.509  25.689  10.957
51884W        W17045   5.417  34.918   2.262
51885W        W17046  22.615  15.740  13.854
51886W        W17047   2.962   7.459   1.359
51887W        W17048  21.227  22.324   1.313
51888W        W17049   5.356  12.048  14.396
51889W        W17050  31.479   1.799  12.031
51890W        W17051  16.254  10.583   4.598
51891W        W17052  33.510  25.436   1.898
51892W        W17053  31.525  28.610   2.701
51893W        W17054   0.462   4.684  13.143
51894W        W17055   7.813  13.263   4.271
51895W        W17056  23.612  22.449   0.859
51896W        W17057   9.758   3.332   4.687
51897W        W17058  21.051  35.030   0.508
51898W        W17059  22.843  32.059  11.815
51899W        W17060  30.233  34.190   1.826
51900W        W17061   0.473  12.620   0.434
51901W        W17062  22.767  32.721   0.830
51902W        W17063  17.718   6.243  13.666
51903W        W17064  39.728  35.573   0.209
51904W        W17065  23.051  38.100  12.442
51905W        W17066  23.520  41.327   0.933
51906W        W17067  43.456  34.321   9.846
51907W        W17068  16.550  30.024  12.339
51908W        W17069  25.061   3.317   0.416
51909W        W17070   7.753  41.533   3.645
51910W        W17071  21.624  34.781   1.577
51911W        W17072  10.657  33.552   3.072
51912W        W17073  20.610  19.522  14.362
51913W        W17074  38.367  31.617   4.220
51914W        W17075  21.123  20.131   2.291
51915W        W17076  29.932  19.182   1.259
51916W        W17077   1.551   1.487   1.856
51917W        W17078   4.319  18.722   4.052
51918W        W17079  16.335  34.118   3.127
51919W        W17080  31.032  29.470  10.263
51920W        W17081  32.478   0.468   2.474
51921W        W17082  30.094  30.416   4.541
51922W        W17083  33.461  34.829   1.889
51923W        W17084  14.225  12.679  10.734
51924W        W17085  39.751   4.362   1.726
51925W        W17086  26.057  26.087  11.532
51926W        W17087   4.443  35.615  12.013
51927W        W17088  16.338  10.403  14.951
51928W        W17089  15.123  39.473   3.542
51929W        W17090  25.424  21.752   0.284
51930W        W17091  15.188  28.917   1.561
51931W        W17092  41.930  28.955   3.631
51932W        W17093   9.305  26.193  10.266
51933W        W17094   0.168  32.544  13.318
51934W        W17095  23.128  24.002   1.433
51935W        W17096  20.593   9.821  11.179
51936W        W17097  29.208   5.797   1.340
51937W        W17098  16.870  20.728  13.363
51938W        W17099  33.898  13.596   3.784
51939W        W17100   4.775  25.025  14.487
51940W        W17101  12.127  23.200  11.571
51941W        W17102  27.613  17.792   0.403
51942W        W17103  30.532  18.730  12.586
51943W        W17104  39.030  38.386  13.799
51944W        W17105   0.446  38.353   4.723
51945W        W17106   2.653  37.302   0.258
51946W        W17107  38.816  35.516  14.087
51947W        W17108   7.923  37.165   3.873
51948W        W17109   6.152  14.252   1.814
51949W        W17110  29.168  44.033   1.239
51950W        W17111   7.957  39.968   3.546
51951W        W17112  29.528  38.656   1.243
51952W        W17113  42.303  23.996  10.951
51953W        W17114  42.276  16.244   1.977
51954W        W17115  35.954  13.088  14.277
51955W        W17116  24.813  30.470   3.229
51956W        W17117  29.036  16.676   4.976
51957W        W17118  21.473  29.119  13.329
51958W        W17119   3.952   6.381  11.107
51959W        W17120  44.494  37.398  13.967
51960W        W17121  24.786  43.751  11.495
51961W        W17122   2.020   0.409   3.049
51962W        W17123  37.227  42.684   1.319
51963W        W17124  38.106   4.991  11.735
51964W        W17125   5.429   4.055  13.475
51965W        W17126  24.946  42.917  13.026
51966W        W17127   4.317   3.041  11.164
51967W        W17128  25.622  37.055  14.028
51968W        W17129  32.532  21.380  13.036
51969W        W17130   3.537  18.493  11.034
51970W        W17131  21.890  41.590   4.692
51971W        W17132  37.000  10.312   0.537
51972W        W17133   5.308   6.386  12.990
51973W        W17134  16.844  14.242   2.674
51974W        W17135  18.589  11.025   1.435
51975W        W17136  42.583  24.195  11.329
51976W        W17137  27.166  41.858  10.839
51977W        W17138  38.775  25.562  10.173
51978W        W17139   4.622  12.820   1.811
51979W        W17140  35.835  24.033   1.657
51980W        W17141   7.467  12.348   2.713
51981W        W17142  25.412   3.905   3.188
51982W        W17143   6.954  35.425  12.993
51983W        W17144  14.457  23.997  10.977
51984W        W17145   6.158  33.013  12.050
51985W        W17146  10.848  26.256  12.389
51986W        W17147  25.284   3.421   0.876
51987W        W17148  35.462  20.708  11.936
51988W        W17149  40.315  27.999  12.657
51989W        W17150  24.192  25.447   3.247
51990W        W17151   8.716  14.481   1.015
51991W        W17152   8.217  34.989   4.155
51992W        W17153   5.778  12.183  14.968
51993W        W17154  20.740   1.492  12.061
51994W        W17155  16.661  41.567   3.220
51995W        W17156  19.977  36.406  11.835
51996W        W17157  20.380   2.669  12.766
51997W        W17158  41.127  30.110   1.669
51998W        W17159   7.637  10.857   4.580
51999W        W17160  32.392  18.682   3.329
52000W        W17161  15.762  25.513   0.389
52001W        W17162   2.749  20.266   1.119
52002W        W17163  26.754  17.526   1.848
52003W        W17164  11.180   1.725  12.038
52004W        W17165  34.485  38.158   5.540
52005W        W17166  14.529  13.340   4.429
52006W        W17167  39.412   9.179  11.175
52007W        W17168  40.578   6.270  11.998
52008W        W17169  37.921   2.973   1.386
52009W        W17170  14.759  27.931  12.527
52010W        W17171  13.301  42.459   3.638
52011W        W17172  38.026  11.654   3.892
52012W        W17173  26.483  14.188  12.456
52013W        W17174  12.212  28.715  12.846
52014W        W17175  36.386  27.672  14.122
52015W        W17176  16.472  10.267   3.350
52016W        W17177  40.848   6.817  11.205
52017W        W17178  43.109  29.009  11.712
52018W        W17179  26.536  19.161   4.717
52019W        W17180  16.086  15.745  14.317
52020W        W17181  27.183  10.486   3.591
52021W        W17182  14.137  30.502   4.643
52022W        W17183  14.871  21.125   1.198
52023W        W17184  40.832  44.508   1.475
52024W        W17185  36.517   1.874   1.656
52025W        W17186  32.291  10.166  11.782
52026W        W17187  44.681   9.909   2.296
52027W        W17188  21.347   6.278  10.643
52028W        W17189  16.706  11.796  13.336
52029W        W17190  17.821  17.622  12.544
52030W        W17191  23.186  15.905  14.458
52031W        W17192  27.150  37.885  11.048
52032W        W17193   6.251  31.003   1.813
52033W        W17194  44.056  33.709  14.387
52034W        W17195   0.871   8.840  14.418
52035W        W17196  31.505  40.236   2.883
52036W        W17197  10.820   3.631   2.340
52037W        W17198  32.766   7.079   1.954
52038W        W17199   2.951  43.912  14.429
52039W        W17200  41.157  31.024  11.148
52040W        W17201  23.524   9.510   1.377
52041W        W17202  38.822  13.147  14.135
52042W        W17203  38.793  40.032  13.028
52043W        W17204  15.075  19.174   2.767
52044W        W17205  16.075  44.802  12.601
52045W        W17206  34.828   0.828   0.568
52046W        W17207  43.941  40.671  12.110
52047W        W17208  38.770   8.402  13.398
52048W        W17209  22.186  32.420  14.394
52049W        W17210   4.456   9.294   3.682
52050W        W17211  34.541  24.943   4.520
52051W        W17212  29.552   3.432   2.686
52052W        W17213   1.550  13.802  11.179
52053W        W17214  19.593  38.560  12.643
52054W        W17215   9.270  24.699   2.366
52055W        W17216  38.007  34.042  14.320
52056W        W17217  31.463   1.385  10.486
52057W        W17218  42.499  36.004   0.695
52058W        W17219  39.427  41.613  11.493
52059W        W17220  13.556  12.726  12.880
52060W        W17221  28.668  36.377   2.804
52061W        W17222   5.870  38.006   4.389
52062W        W17223  15.157  38.835  11.593
52063W        W17224  13.570  25.154   4.607
52064W        W17225   2.752  42.101   1.390
52065W        W17226   3.246   7.680   3.759
52066W        W17227  30.600  34.922   0.945
52067W        W17228   1.741  10.399   3.136
52068W        W17229  27.317  33.350   1.842
52069W        W17230  38.928  35.522   4.008
52070W        W17231  12.871  39.318   0.478
52071W        W17232  11.357  16.633   0.749
52072W        W17233  26.227   8.357   2.229
52073W        W17234   6.311  38.844  13.363
52074W        W17235  20.783  33.143  10.846
52075W        W17236  43.221  26.736   1.944
52076W        W17237  38.905  25.972   2.365
52077W        W17238  31.501  19.161  11.428
52078W        W17239  10.827   3.321   1.908
52079W        W17240  39.854   1.426  14.993
52080W        W17241   5.999  10.135   0.988
52081W        W17242  34.335  23.086  14.444
52082W        W17243   8.119   4.985   2.976
52083W        W17244  13.221   2.843   0.153
52084W        W17245  25.155  22.907   4.592
52085W        W17246  19.093  39.870  11.957
52086W        W17247  27.307  27.426  10.410
52087W        W17248  39.859  40.486   3.189
52088W        W17249   7.619  43.244  11.072
52089W        W17250  11.846   6.270  14.089
52090W        W17251  13.828   0.487   2.437
52091W        W17252  27.884  18.350  12.100
52092W        W17253  25.450  15.770   1.767
52093W        W17254  28.467  43.222   2.151
52094W        W17255   1.280  24.547  10.528
52095W        W17256  26.440  25.237   4.088
52096W        W17257  28.873  31.437   3.448
52097W        W17258   2.417  42.504  13.790
52098W        W17259   3.308  38.579  11.116
52099W        W17260  32.523  30.543   2.468
52100W        W17261  29.465  43.701   1.799
52101W        W17262  37.705   8.724   0.504
52102W        W17263  10.454  20.231  11.181
52103W        W17264   5.496  25.098   1.541
52104W        W17265  29.546  23.986  14.313
52105W        W17266  27.154  14.710   0.299
52106W        W17267  31.031  23.671   3.980
52107W        W17268  24.431  33.199   3.209
52108W        W17269  13.301   7.215  12.083
52109W        W17270  23.600  20.717   2.742
52110W        W17271  43.272  38.980   0.042
52111W        W17272  39.885  33.054   2.634
52112W        W17273  16.133  30.411   1.284
52113W        W17274  25.780  43.094  10.459
52114W        W17275  43.336  15.743  12.395
52115W        W17276  43.441  17.594   3.657
52116W        W17277  17.613  44.047  12.560
52117W        W17278   2.809  40.118  10.646
52118W        W17279  37.490   5.118  11.133
52119W        W17280  23.778  19.045  13.025
52120W        W17281  15.098  30.804   2.874
52121W        W17282  26.225  14.933   4.240
52122W        W17283  33.432  22.511   2.899
52123W        W17284  14.094  24.208   0.875
52124W        W17285  11.946  18.993   0.997
52125W        W17286  31.701  19.677  13.171
52126W        W17287  26.007  39.403   2.775
52127W        W17288  16.721  21.515   3.711
52128W        W17289  12.529   8.315   3.794
52129W        W17290  15.979  25.736   5.041
52130W        W17291  17.354  17.339   0.768
52131W        W17292  28.478  40.888  11.507
52132W        W17293   9.689  19.005  11.196
52133W        W17294  44.740  28.009  10.593
52134W        W17295  31.562  30.506   2.388
52135W        W17296  33.930  16.233   0.819
52136W        W17297  26.742  32.150  14.947
52137W        W17298  13.850  20.579   1.073
52138W        W17299   8.324   0.795   0.954
52139W        W17300  30.650   3.257  12.571
52140W        W17301  16.260   3.041  11.125
52141W        W17302  12.124  14.841  14.573
52142W        W17303  21.363  27.583   4.558
52143W        W17304   7.855  13.413  14.860
52144W        W17305  14.425  44.526  11.966
52145W        W17306   5.460  20.227   3.153
52146W        W17307  21.569  38.491   3.646
52147W        W17308  23.693  41.802  12.091
52148W        W17309  15.379  10.169   1.873
52149W        W17310  32.871  25.407  13.586
52150W        W17311  35.559  22.233  12.080
52151W        W17312  29.843   8.974  14.372
52152W        W17313  30.177  39.615   0.328
52153W        W17314  32.321  23.077   0.921
52154W        W17315   9.739  12.637  12.575
52155W        W17316  26.099  36.288   1.048
52156W        W17317  29.082  38.446   2.767
52157W        W17318  22.122  18.335  14.450
52158W        W17319  42.362  30.432   0.036
52159W        W17320  20.733  26.510   3.274
52160W        W17321   1.834  31.310  14.904
52161W        W17322   7.202  11.837  12.957
52162W        W17323   2.256  17.151  14.033
52163W        W17324   2.723  41.018  13.839
52164W        W17325  12.173  39.289   2.192
52165W        W17326  26.080  16.265  14.511
52166W        W17327  26.051  43.773  11.932
52167W        W17328   1.269  32.655   0.362
52168W        W17329  32.390  39.950  14.739
52169W        W17330  28.423   6.375   4.820
52170W        W17331  33.949  28.198  12.453
52171W        W17332   2.722  27.462  12.503
52172W        W17333  17.334  10.271  14.791
52173W        W17334  31.999  26.740  12.988
52174W        W17335  38.591  28.303   3.847
52175W        W17336  30.994   2.364  14.961
52176W        W17337  34.355  31.602  12.157
52177W        W17338  33.000  12.372   3.656
52178W        W17339  24.865  37.579  14.137
52179W        W17340   3.807  35.857   4.168
52180W        W17341  11.424  16.812   4.774
52181W        W17342  38.644  30.261  11.537
52182W        W17343  28.711  39.939  13.794
52183W        W17344   7.201  19.154  12.986
52184W        W17345   5.127  34.029  14.797
52185W        W17346  23.714   9.778  13.808
52186W        W17347   1.868  41.978   4.455
52187W        W17348  22.020  30.947  12.044
52188W        W17349  27.699  15.334  11.108
52189W        W17350  40.021  22.539   2.852
52190W        W17351  22.711  34.555  14.825
52191W        W17352  15.086  24.616   3.416
52192W        W17353   0.307  21.450  14.378
52193W        W17354  35.800  17.582  14.257
52194W        W17355  13.419  31.540  13.635
52195W        W17356   4.749  38.795   3.308
52196W        W17357  44.205  25.868   1.790
52197W        W17358  28.021  14.834  14.362
52198W        W17359  12.601  24.585  12.577
52199W        W17360  27.619  18.583   2.203
52200W        W17361  30.458  32.514  11.816
52201W        W17362  38.853   6.809  11.042
52202W        W17363  19.277  28.924   4.347
52203W        W17364  32.543   9.977  12.215
52204W        W17365  26.085  13.064   1.260
52205W        W17366   0.744  15.713   1.226
52206W        W17367  43.155  41.093  13.503
52207W        W17368  19.534  24.166   3.724
52208W        W17369   3.956  10.534   4.978
52209W        W17370  24.996  12.653   0.693
52210W        W17371  28.985   1.266  14.273
52211W        W17372  10.317  31.519   3.794
52212W        W17373  14.582   0.878   4.191
52213W        W17374  21.420  10.743  13.437
52214W        W17375  16.512  32.155   1.805
52215W        W17376  30.445  37.317   4.579
52216W        W17377   8.054  44.174  13.951
52217W        W17378   6.134   1.668  11.597
52218W        W17379  15.303  17.770  14.428
52219W        W17380  33.533  22.584  13.819
52220W        W17381   5.190  22.523  14.274
52221W        W17382  40.287  25.488  13.794
52222W        W17383  42.760  20.613   2.999
52223W        W17384  32.381  29.077  14.877
52224W        W17385   6.666  13.602   2.372
52225W        W17386   9.789  15.513  10.348
52226W        W17387  15.100  21.488   3.318
52227W        W17388  21.042  28.087   2.683
52228W        W17389  11.739   2.944   0.521
52229W        W17390  20.287  22.142   2.835
52230W        W17391  34.342   5.529   4.056
52231W        W17392   7.163  39.843  12.478
52232W        W17393   5.908  10.824  13.213
52233W        W17394   1.515  41.052   4.773
52234W        W17395  40.816  21.927  10.998
52235W        W17396   3.497  19.603   0.734
52236W        W17397  20.556  29.736  13.801
52237W        W17398  35.585  43.547   1.037
52238W        W17399  21.281  39.110  10.599
52239W        W17400   8.402  27.092   3.567
52240W        W17401  36.154  29.148   4.250
52241W        W17402  39.314  42.054   2.339
52242W        W17403  18.380  28.177   4.583
52243W        W17404  24.222   4.312   2.625
52244W        W17405  37.155   5.167   3.680
52245W        W17406  14.565  26.700   4.619
52246W        W17407  17.316  27.110   2.311
52247W        W17408  29.052  38.031  10.691
52248W        W17409  43.582  33.551  14.564
52249W        W17410  32.080   2.593   3.624
52250W        W17411  27.111  24.784  14.709
52251W        W17412  10.094  16.476   3.196
52252W        W17413  28.885  12.125   0.828
52253W        W17414   8.817  17.673  12.153
52254W        W17415  13.125   1.712   4.720
52255W        W17416  16.758  21.500   0.290
52256W        W17417  32.858   0.450  12.924
52257W        W17418   6.792  33.398   0.003
52258W        W17419  19.660  12.944  11.162
52259W        W17420  21.714  34.908  14.292
52260W        W17421  32.526  37.591   0.649
52261W        W17422  42.958  20.954   0.462
52262W        W17423  25.020  38.898  14.383
52263W        W17424   7.083  22.787  11.932
52264W        W17425   4.337  30.203  12.373
52265W        W17426  32.982  29.067   4.782
52266W        W17427  29.954  13.540   1.603
52267W        W17428  27.548  17.632  12.027
52268W        W17429  15.138   7.256   1.675
52269W        W17430  38.350  27.841   1.124
52270W        W17431  12.050  35.049   2.284
52271W        W17432  35.552  26.902   1.875
52272W        W17433  20.632  27.764   2.717
52273W        W17434  30.571  36.633   1.230
52274W        W17435  14.338  19.134   4.285
52275W        W17436  28.538  22.665   1.888
52276W        W17437  11.385   4.200   2.169
52277W        W17438  33.990  17.630  11.942
52278W        W17439  14.310  27.625   4.600
52279W        W17440  14.569  44.962  13.638
52280W        W17441  13.799  10.187   3.684
52281W        W17442  16.270  12.569   4.382
52282W        W17443  25.759  32.512   2.346
52283W        W17444  16.034  41.029   0.270
52284W        W17445   1.660  17.755   5.030
52285W        W17446  29.257  39.593   1.388
52286W        W17447   7.196   4.382  14.404
52287W        W17448   0.453  12.188   9.976
52288W        W17449   2.514  34.345   4.600
52289W        W17450  13.707  38.660   2.770
52290W        W17451   6.303  20.936  11.160
52291W        W17452  33.319  35.711  13.880
52292W        W17453  23.595  42.034   5.031
52293W        W17454  16.181   0.367   0.708
52294W        W17455  13.728  28.180  11.889
52295W        W17456  16.730  10.249   4.845
52296W        W17457   9.709  21.623   4.510
52297W        W17458  44.865  27.062   3.234
52298W        W17459  29.445  31.479   0.142
52299W        W17460   6.689   4.096  12.152
52300W        W17461  24.446  40.047   0.867
52301W        W17462  43.866  44.362   1.278
52302W        W17463  34.113  38.808  14.334
52303W        W17464  33.733  25.671  13.302
52304W        W17465   8.641  15.230   1.714
52305W        W17466  11.685  36.036  12.484
52306W        W17467  20.710   1.303  12.560
52307W        W17468  41.930   1.767   1.378
52308W        W17469  13.873  16.671   0.784
52309W        W17470  27.725  31.367  14.533
52310W        W17471  33.615   2.327  11.230
52311W        W17472  39.462  40.561  10.635
52312W        W17473  30.661  25.813  11.166
52313W        W17474  37.430  28.700   4.200
52314W        W17475  44.394  11.671   3.785
52315W        W17476   7.378  14.158   4.142
52316W        W17477  15.384  30.363  14.480
52317W        W17478  11.222  27.667   4.189
52318W        W17479   4.571  28.404  13.886
52319W        W17480   6.174  22.987   2.006
52320W        W17481  25.762  15.520  13.230
52321W        W17482  26.073  41.235   0.429
52322W        W17483  44.696   4.107   2.132
52323W        W17484  39.549   3.886   3.659
52324W        W17485  13.371  14.110   3.096
52325W        W17486  36.383  44.920   2.375
52326W        W17487   4.883   0.242   4.546
52327W        W17488  30.152  15.143  10.585
52328W        W17489  22.293  28.780   2.596
52329W        W17490   7.168  23.981  14.551
52330W        W17491  43.504  38.168   4.413
52331W        W17492  27.596   0.456   4.147
52332W        W17493  12.197   6.711  11.561
52333W        W17494  16.257  42.925   5.394
52334W        W17495  14.447  34.449   0.800
52335W        W17496   6.302  42.310   1.753
52336W        W17497  15.625  15.587  10.708
52337W        W17498  21.650  21.571   2.473
52338W        W17499  15.255  29.004  12.063
52339W        W17500  26.282  41.553  13.339
52340W        W17501   3.833  28.971  13.881
52341W        W17502  21.702  14.696   2.786
52342W        W17503  34.671   3.697  11.520
52343W        W17504  21.994   1.202  11.966
52344W        W17505  30.535  44.507  13.030
52345W        W17506  40.162  25.167   1.086
52346W        W17507  18.091  22.654  13.401
52347W        W17508  22.541   3.276   0.693
52348W        W17509  25.169   6.240   1.343
52349W        W17510   1.188  37.053   0.791
52350W        W17511   1.062   8.605   0.759
52351W        W17512   8.864  33.917   1.385
52352W        W17513  13.558  15.598  13.106
52353W        W17514  25.058  22.663   0.799
52354W        W17515  18.730  24.008   2.350
52355W        W17516  14.706  32.095  13.389
52356W        W17517   9.657  26.768  14.442
52357W        W17518   9.856  16.097   4.921
52358W        W17519  40.350  35.897   2.352
52359W        W17520  41.973   8.396   1.827
52360W        W17521  44.533  40.708   4.377
52361W        W17522   0.466  27.403  12.183
52362W        W17523  41.412   0.035  12.495
52363W        W17524  38.447  33.424  11.833
52364W        W17525   2.533  17.807   2.709
52365W        W17526   4.484  22.592   3.564
52366W        W17527  43.413  16.230  13.511
52367W        W17528  34.100  28.544   3.110
52368W        W17529  37.977   5.779  13.850
52369W        W17530  36.462  10.344  10.937
52370W        W17531  26.962  29.195  11.121
52371W        W17532  25.239  22.122  12.568
52372W        W17533  33.505  33.376  11.728
52373W        W17534  31.731  17.593   2.075
52374W        W17535  38.501  29.721   3.587
52375W        W17536  22.606  33.394   2.482
52376W        W17537   3.891  40.469   4.048
52377W        W17538  41.331  28.506   3.402
52378W        W17539  31.882  34.379  14.563
52379W        W17540  27.652  39.398   4.607
52380W        W17541  37.499  42.027   5.053
52381W        W17542   5.265  41.422  13.508
52382W        W17543  15.679  15.814   0.251
52383W        W17544  14.508  37.902  14.354
52384W        W17545  29.603   2.271  12.519
52385W        W17546  24.145  10.103  13.378
52386W        W17547  34.691   5.280   0.111
52387W        W17548  28.316  37.391   4.922
52388W        W17549  25.074  30.637  12.328
52389W        W17550  25.185  37.862   3.583
52390W        W17551  44.847  21.005   4.047
52391W        W17552  29.361  42.861  11.852
52392W        W17553  23.645  22.758  10.803
52393W        W17554  34.373  25.363   2.203
52394W        W17555  10.838  18.579  11.967
52395W        W17556  40.260   7.233   2.266
52396W        W17557  15.347  29.508   0.458
52397W        W17558   2.795  16.618   2.805
52398W        W17559  34.183  38.819   1.032
52399W        W17560  24.659  17.465  14.809
52400W        W17561  38.246  17.616  11.202
52401W        W17562  16.133  27.613  10.839
52402W        W17563   3.762  31.173   3.383
52403W        W17564  12.659  43.912   1.823
52404W        W17565  37.125   7.226   3.403
52405W        W17566  27.167   5.901  11.736
52406W        W17567  10.775   1.153  12.580
52407W        W17568  18.633   6.083  11.062
52408W        W17569   2.954  16.146   3.113
52409W        W17570  34.445   9.854  11.524
52410W        W17571  41.505   7.262  10.391
52411W        W17572  39.367  40.832   4.077
52412W        W17573  21.030  20.782  11.104
52413W        W17574  17.563  33.628  14.377
52414W        W17575  28.030  37.616  12.942
52415W        W17576  27.386  15.153   2.700
52416W        W17577  10.546   6.169   1.824
52417W        W17578   9.102  25.216  11.790
52418W        W17579   5.430   8.894   2.228
52419W        W17580   7.807  28.892  11.845
52420W        W17581  32.132  21.703  14.314
52421W        W17582  38.122  36.137   1.835
52422W        W17583  11.424   4.332  11.007
52423W        W17584  13.058  10.124  10.424
52424W        W17585   0.975   2.738  11.074
52425W        W17586  29.612  12.407   0.210
52426W        W17587  10.607  44.697  11.465
52427W        W17588  19.328   0.432   4.643
52428W        W17589   9.178  21.229   0.963
52429W        W17590  32.799   8.926   2.689
52430W        W17591  19.538   3.124  11.594
52431W        W17592   2.675   6.815   3.252
52432W        W17593   5.266  28.690  11.907
52433W        W17594  27.973  25.800   0.613
52434W        W17595   6.570  13.777  13.064
52435W        W17596   8.283  38.683  12.543
52436W        W17597  27.655   8.717  13.952
52437W        W17598  20.487  20.162  11.510
52438W        W17599  12.839  43.360  12.512
52439W        W17600  24.124  24.969  12.283
52440W        W17601  18.832  17.313   0.732
52441W        W17602  27.076  44.374   3.382
52442W        W17603  12.591  27.129  14.385
52443W        W17604  26.935  23.167  10.396
52444W        W17605   4.985  34.510   4.963
52445W        W17606  21.008  21.568  10.095
52446W        W17607  42.957  37.217   1.685
52447W        W17608  24.746  36.145  11.423
52448W        W17609  41.575  25.186  14.696
52449W        W17610  18.520  20.721  14.642
52450W        W17611  20.371  21.178   2.689
52451W        W17612  10.260  10.048  13.812
52452W        W17613  35.034  43.987   4.208
52453W        W17614  20.770   8.265   2.803
52454W        W17615  29.637  13.173   1.924
52455W        W17616   4.126   9.774  10.622
52456W        W17617  37.241  17.500  11.242
52457W        W17618  22.465  21.298   3.135
52458W        W17619  31.376   2.763   4.714
52459W        W17620  33.254  34.688  12.860
52460W        W17621  44.319  33.346  14.119
52461W        W17622  17.224  30.036  14.060
52462W        W17623   1.653   1.962  14.223
52463W        W17624  14.823  41.385   4.539
52464W        W17625  42.973   8.178  12.613
52465W        W17626  35.991  26.916   3.613
52466W        W17627  23.044  12.944   3.103
52467W        W17628   9.163   1.968   2.650
52468W        W17629  40.059   0.777  12.381
52469W        W17630   9.589  42.356  13.308
52470W        W17631  29.077  10.206   4.873
52471W        W17632   5.698  22.502   0.751
52472W        W17633  33.099  37.562  14.881
52473W        W17634   0.747  11.671   0.019
52474W        W17635  25.033  39.987  12.796
52475W        W17636  16.259  35.543   0.476
52476W        W17637  24.927  26.666   3.715
52477W        W17638  30.783  22.131   4.274
52478W        W17639   4.445  15.442   3.926
52479W        W17640  36.597  28.997   0.310
52480W        W17641  15.527   5.378   3.688
52481W        W17642  32.166  29.924  13.268
52482W        W17643  35.855  31.457   0.720
52483W        W17644  14.117  15.292  14.198
52484W        W17645  25.712  29.505   0.227
52485W        W17646  19.072  42.951   4.112
52486W        W17647  31.145  20.446   0.325
52487W        W17648  41.092  39.344  13.833
52488W        W17649  36.758  16.043  11.193
52489W        W17650  24.181  31.222   1.335
52490W        W17651  36.587   4.599   1.291
52491W        W17652   0.303  42.510  13.101
52492W        W17653  35.823  37.432  14.449
52493W        W17654   2.446  29.657   2.798
52494W        W17655  11.581  28.087   4.922
52495W        W17656  41.767  24.511   4.646
52496W        W17657  43.008  13.051  11.608
52497W        W17658  32.262   8.952   2.690
52498W        W17659   9.254  16.369   2.771
52499W        W17660  37.789   5.392  12.847
52500W        W17661   7.558  24.537  11.030
52501W        W17662  24.025  26.462   2.763
52502W        W17663  37.229   4.169   2.787
52503W        W17664   3.442  42.790   2.272
52504W        W17665  20.184  28.729  10.937
52505W        W17666  22.597   5.040   1.441
52506W        W17667  28.345   1.041   2.715
52507W        W17668  41.867  38.466  14.590
52508W        W17669  30.475   8.411   3.345
52509W        W17670   2.018  27.044   0.222
52510W        W17671   8.636  38.849  13.895
52511W        W17672   8.814  38.905   4.535
52512W        W17673  27.157  17.297  11.631
52513W        W17674   8.433  10.640  14.390
52514W        W17675  16.620  43.234   0.424
52515W        W17676  13.145  10.566  12.436
52516W        W17677  36.391  10.635   4.291
52517W        W17678  44.486   5.734   1.083
52518W        W17679  23.965   8.638  10.755
52519W        W17680  41.163  14.146  13.722
52520W        W17681  16.570  12.065   3.523
52521W        W17682  36.123   8.276  11.566
52522W        W17683   0.549  17.357  14.975
52523W        W17684  30.459   9.504  12.818
52524W        W17685  23.755  22.993   1.810
52525W        W17686   7.290  14.429   3.237
52526W        W17687  35.192  37.119  12.526
52527W        W17688   8.976  33.011   2.293
52528W        W17689  26.241  14.103  12.930
52529W        W17690  37.972  27.090  12.446
52530W        W17691  44.430   9.704  12.221
52531W        W17692  26.324  43.007  14.933
52532W        W17693  32.909  26.012   4.532
52533W        W17694  17.191  41.585   3.145
52534W        W17695   7.696   8.631  14.390
52535W        W17696  15.823  24.150   2.174
52536W        W17697  25.994  28.287  11.075
52537W        W17698   3.727  43.296   1.876
52538W        W17699  24.452  17.748  12.817
52539W        W17700   0.222  41.441   1.178
52540W        W17701  31.970  39.355   3.229
52541W        W17702   3.265  12.425  13.926
52542W        W17703  13.597  41.641  10.604
52543W        W17704   7.218  33.007   2.738
52544W        W17705   7.366  44.352   0.003
52545W        W17706  14.540  38.351   3.266
52546W        W17707  36.527  37.317   4.372
52547W        W17708  43.408  35.221  11.719
52548W        W17709  35.896  30.700  12.872
52549W        W17710  15.179  28.603   4.446
52550W        W17711  37.513   2.022   0.860
52551W        W17712  22.084  19.989   4.108
52552W        W17713  20.081   8.865  11.506
52553W        W17714  37.780  10.519   4.580
52554W        W17715  24.715  23.217   4.085
52555W        W17716  32.553  27.803   2.194
52556W        W17717  26.377  39.413   0.476
52557W        W17718  39.907  43.189   1.355
52558W        W17719   1.279  10.246  10.603
52559W        W17720  41.255   5.012   2.741
52560W        W17721  42.883  32.643   1.988
52561W        W17722  39.337  19.651   0.909
52562W        W17723  41.855  31.435   1.246
52563W        W17724  16.671   9.180   1.228
52564W        W17725  13.210  23.601   4.282
52565W        W17726  25.113  19.789  10.727
52566W        W17727  28.502  15.215  14.983
52567W        W17728   0.517   9.482  11.992
52568W        W17729   8.544  38.280   4.084
52569W        W17730  10.986   2.407   1.806
52570W        W17731  24.842  25.613   0.772
52571W        W17732  17.186  37.653   1.965
52572W        W17733  18.669  43.397  12.514
52573W        W17734   6.362   6.493   1.488
52574W        W17735  24.609  28.964   4.241
52575W        W17736   1.591  10.889   3.355
52576W        W17737  32.025  21.307  13.975
52577W        W17738  32.599   4.192   2.686
52578W        W17739   4.449  23.523  10.481
52579W        W17740  36.271   1.658   0.250
52580W        W17741  36.798  31.375   2.696
52581W        W17742   8.029  19.558   3.911
52582W        W17743  40.921  31.859  14.786
52583W        W17744  21.907  43.400   0.766
52584W        W17745  14.583  39.672  12.404
52585W        W17746  38.568  16.207  13.609
52586W        W17747  36.486   2.197   2.613
52587W        W17748   9.262  28.110   3.777
52588W        W17749  32.185   1.701   1.694
52589W        W17750  16.786  39.243  12.063
52590W        W17751   5.380  23.986  13.554
52591W        W17752  33.923   1.196  14.749
52592W        W17753  29.589  27.730  11.580
52593W        W17754   9.122  40.368  14.662
52594W        W17755   4.476  24.037  14.066
52595W        W17756  18.255  40.809  12.199
52596W        W17757   0.260  25.117   4.535
52597W        W17758  39.731  25.180   0.234
52598W        W17759   5.250  13.354   3.318
52599W        W17760  30.324  22.304   1.830
52600W        W17761  32.474  23.569   0.803
52601W        W17762  29.516  11.611   4.072
52602W        W17763  34.297  35.967  12.062
52603W        W17764  41.505   2.729  13.372
52604W        W17765  42.429   3.519   4.192
52605W        W17766  18.361  43.329  11.450
52606W        W17767  31.436  43.933  13.022
52607W        W17768  33.947   0.124   2.348
52608W        W17769  12.360  25.208   0.041
52609W        W17770  19.935  44.637   0.883
52610W        W17771  37.439  29.910   2.727
52611W        W17772   9.694  20.883   2.629
52612W        W17773  16.629   7.774   4.585
52613W        W17774  17.660   8.771  13.463
52614W        W17775  11.666  32.642  11.820
52615W        W17776  28.141  34.760  12.489
52616W        W17777  27.426  39.205   1.840
52617W        W17778   6.151  35.666   1.277
52618W        W17779  29.430  38.165  13.405
52619W        W17780  44.661  39.887   4.255
52620W        W17781  32.357   6.675  12.678
52621W        W17782  38.527  32.152  12.163
52622W        W17783  26.959   0.773   0.285
52623W        W17784  35.273  40.836  13.418
52624W        W17785  37.470  40.972  10.416
52625W        W17786  14.203  22.672   0.322
52626W        W17787  16.301  30.243  14.995
52627W        W17788   4.444  31.145  11.915
52628W        W17789  35.475  33.400   0.265
52629W        W17790  18.233   6.336  12.249
52630W        W17791  29.883  27.063   3.914
52631W        W17792  10.304  37.571   1.424
52632W        W17793   2.478  17.959  12.909
52633W        W17794  23.675  33.670   4.701
52634W        W17795  44.448  26.958   1.437
52635W        W17796  15.298  41.579   1.307
52636W        W17797  11.057  27.719  14.417
52637W        W17798  29.178  33.003  10.700
52638W        W17799  19.617  25.247  11.612
52639W        W17800   9.849  31.041  12.448
52640W        W17801  11.735  21.314  10.107
52641W        W17802  31.105  15.541  11.233
52642W        W17803  39.247   3.741   1.846
52643W        W17804  29.674  14.377  13.117
52644W        W17805  34.061  10.368   0.727
52645W        W17806  30.398  33.561  13.821
52646W        W17807   0.918   5.749  11.142
52647W        W17808  28.208  11.152  11.546
52648W        W17809  34.619  44.497  12.069
52649W        W17810  28.159  36.313  12.487
52650W        W17811  10.281   5.771   3.808
52651W        W17812  37.317  17.759   0.856
52652W        W17813  40.546  44.231   4.574
52653W        W17814  37.853  34.018  11.449
52654W        W17815  37.822   7.736   3.392
52655W        W17816  44.288  11.499  14.062
52656W        W17817  44.286   7.984   1.711
52657W        W17818   7.904  12.037  14.724
52658W        W17819  25.335  43.916   1.292
52659W        W17820  24.605  20.783  14.779
52660W        W17821  13.709  23.279   2.008
52661W        W17822  27.428   6.663  13.868
52662W        W17823  11.938   9.853  13.957
52663W        W17824  27.517  10.116   3.730
52664W        W17825   6.585   3.754  14.953
52665W        W17826  25.228   3.072  11.144
52666W        W17827   7.342  28.633  11.799
52667W        W17828  36.904  20.839  11.119
52668W        W17829   1.532  12.786   3.829
52669W        W17830  16.610  25.908   0.368
52670W        W17831  25.513  44.050   2.655
52671W        W17832  10.861   6.929  13.380
52672W        W17833   5.693  31.005   2.844
52673W        W17834  14.672  28.899  14.356
52674W        W17835  30.299   0.832   5.005
52675W        W17836  23.278  28.495  14.891
52676W        W17837  38.434   5.183   3.290
52677W        W17838  11.693  29.165   3.235
52678W        W17839  33.338  20.193   4.565
52679W        W17840  14.771  19.675  11.966
52680W        W17841  35.647  28.511   4.593
52681W        W17842  29.502  25.155  13.604
52682W        W17843  22.443  43.438   2.369
52683W        W17844  33.698   6.353   1.356
52684W        W17845   9.828  10.568  14.355
52685W        W17846  12.089  32.134  13.532
52686W        W17847   6.680  24.685  12.136
52687W        W17848  16.783  30.217   0.716
52688W        W17849  14.860  23.048  14.672
52689W        W17850  10.586  17.624  12.608
52690W        W17851  10.133  30.383   2.308
52691W        W17852  34.522  20.776  11.256
52692W        W17853  16.475  16.720  10.676
52693W        W17854  31.004   0.181   0.744
52694W        W17855  42.415   8.809   2.275
52695W        W17856   4.022  33.117   1.398
52696W        W17857   6.737  14.421   4.978
52697W        W17858   6.263  22.287   2.303
52698W        W17859  16.977  13.902   1.195
52699W        W17860   5.652   5.116  12.511
52700W        W17861  18.936  35.607  11.484
52701W        W17862  37.321  15.177  11.179
52702W        W17863   1.197  43.340  13.548
52703W        W17864  23.112  35.031   4.506
52704W        W17865   3.988  15.716  13.315
52705W        W17866   2.849  33.017   3.116
52706W        W17867   9.099  23.226   3.815
52707W        W17868  19.794  15.304   3.127
52708W        W17869  42.087   4.495   2.297
52709W        W17870  28.027  23.243   9.766
52710W        W17871  40.603  17.624   4.179
52711W        W17872  12.212  34.375  12.978
52712W        W17873   8.667  12.200   3.155
52713W        W17874  38.965  10.687   4.483
52714W        W17875  19.991   0.048  11.049
52715W        W17876   7.117   7.346   4.116
52716W        W17877  35.715  40.253  12.204
52717W        W17878   9.957   3.264  13.979
52718W        W17879  30.963  40.954   1.633
52719W        W17880  44.871   0.834  10.702
52720W        W17881   4.234  12.549   3.628
52721W        W17882   4.702  35.503   3.200
52722W        W17883   2.189  41.038   1.036
52723W        W17884  34.466  35.118   1.729
52724W        W17885  17.078  24.068  12.501
52725W        W17886  34.087   7.297   2.714
52726W        W17887  37.459  36.372  10.802
52727W        W17888  44.211  37.002  12.660
52728W        W17889   9.742  41.907   4.366
52729W        W17890  40.025  26.116   3.956
52730W        W17891  29.060  33.540   1.764
52731W        W17892  22.094   7.444  13.821
52732W        W17893  24.769  12.350   1.902
52733W        W17894  35.608  18.205  13.466
52734W        W17895   8.747  39.886  11.534
52735W        W17896   7.326  15.140  11.977
52736W        W17897  18.823  10.012  10.419
52737W        W17898  44.380  23.084  12.343
52738W        W17899  15.252   1.209  11.172
52739W        W17900  40.993  10.311   1.973
52740W        W17901  24.456  23.554   1.871
52741W        W17902  38.153  32.984   2.244
52742W        W17903  42.530   7.351  12.445
52743W        W17904  14.619  20.297   3.675
52744W        W17905  38.320  14.333  13.407
52745W        W17906  43.947   1.014   4.230
52746W        W17907  20.597  23.924   3.298
52747W        W17908  13.388  23.776   0.352
52748W        W17909  42.869  44.324  11.017
52749W        W17910  32.951  42.351   0.910
52750W        W17911   2.036   7.787   1.377
52751W        W17912  26.977  18.867  11.504
52752W        W17913  10.787  19.817  10.467
52753W        W17914  12.015  40.904   2.645
52754W        W17915  16.155  26.558  11.632
52755W        W17916  39.921  25.129  13.298
52756W        W17917  13.210   4.341   3.923
52757W        W17918  10.354  40.793  14.368
52758W        W17919  33.889  13.081  13.898
52759W        W17920  17.643  26.630  11.030
52760W        W17921  14.525   8.492  13.543
52761W        W17922   9.159  31.695  14.931
52762W        W17923  23.203  13.593   3.684
52763W        W17924  37.168  39.264  12.512
52764W        W17925  40.981  34.118  12.927
52765W        W17926  15.179   8.232  13.936
52766W        W17927  11.133  35.634  13.657
52767W        W17928  19.715  26.588   4.559
52768W        W17929  21.572   8.220  13.523
52769W        W17930  24.626  20.004  13.886
52770W        W17931  32.347   0.411   1.408
52771W        W17932  25.234  39.119  13.970
52772W        W17933  41.908  42.871   3.224
52773W        W17934  30.363  21.594   2.177
52774W        W17935  14.802  10.074  11.198
52775W        W17936  18.573  26.508  10.375
52776W        W17937  21.783  21.062  13.793
52777W        W17938  43.681  29.018   0.288
52778W        W17939   8.358  16.375  12.107
52779W        W17940   8.425   2.764   0.842
52780W        W17941  26.043  11.564  10.760
52781W        W17942  26.237  28.018   2.808
52782W        W17943  10.237  20.293  14.762
52783W        W17944  10.165   8.418  11.915
52784W        W17945  29.957  29.892   3.593
52785W        W17946  32.492   8.397  10.747
52786W        W17947  15.302   6.930   3.753
52787W        W17948  25.131  18.610   1.765
52788W        W17949  14.348  36.051   0.308
52789W        W17950  41.912  25.923   1.775
52790W        W17951  35.887  30.041  12.945
52791W        W17952  41.709  29.059   2.846
52792W        W17953  13.041  33.579  10.157
52793W        W17954  11.223   0.661   1.654
52794W        W17955  19.767  31.938   2.364
52795W        W17956  34.985  17.653  10.630
52796W        W17957   9.743   3.244   2.899
52797W        W17958  35.431  10.215  12.967
52798W        W17959   1.871  44.382   0.745
52799W        W17960   1.444  43.865  11.900
52800W        W17961  34.164  36.940  12.493
52801W        W17962  44.359  44.588   3.342
52802W        W17963  14.870  35.952  10.808
52803W        W17964  39.543  44.452   1.099
52804W        W17965  24.629  22.703   2.583
52805W        W17966   7.837  29.714   2.293
52806W        W17967  27.336  40.457  14.784
52807W        W17968  23.124  12.175   4.633
52808W        W17969   1.938  19.171   0.868
52809W        W17970  33.430  38.567   1.719
52810W        W17971  18.063  32.951  11.255
52811W        W17972   8.414  18.246  11.372
52812W        W17973   5.243  15.722   0.216
52813W        W17974  41.658  31.439  10.537
52814W        W17975  24.029  29.594  14.369
52815W        W17976  16.177  39.047   1.391
52816W        W17977  29.683  34.170   2.864
52817W        W17978  19.349  39.739   1.317
52818W        W17979  10.711  24.559   2.304
52819W        W17980  10.285  16.819   0.853
52820W        W17981  16.139  43.338  12.574
52821W        W17982  37.413  24.606  13.041
52822W        W17983   5.390  14.486   4.103
52823W        W17984  14.837   5.404   4.572
52824W        W17985  33.533   6.221  13.033
52825W        W17986  12.516  13.849  10.642
52826W        W17987  21.812  20.364  13.712
52827W        W17988   0.885   5.843   0.610
52828W        W17989  44.901  16.180  14.505
52829W        W17990  20.547  34.176  12.861
52830W        W17991   0.203  44.395  11.163
52831W        W17992   9.623  27.643   2.670
52832W        W17993  12.334   6.902   0.233
52833W        W17994  10.671  12.272  12.973
52834W        W17995  17.106  13.441   1.936
52835W        W17996  34.653  25.922  14.441
52836W        W17997  33.569  41.951  14.875
52837W        W17998  40.736  13.633  11.685
52838W        W17999  37.312   3.458  14.725
52839W        W18000  16.132  27.621   3.606
52840W        W18001  14.808  27.190   1.416
52841W        W18002  35.117  19.197  13.930
52842W        W18003  29.882  31.269  13.942
52843W        W18004  39.016   0.581   4.577
52844W        W18005  26.883  34.622  11.400
52845W        W18006   4.807  28.610  13.462
52846W        W18007  39.398  21.952   4.059
52847W        W18008  27.918  23.579  11.944
52848W        W18009  38.997   6.219  12.324
52849W        W18010  39.059  31.546  14.920
52850W        W18011  14.846  35.306  13.387
52851W        W18012   5.711  21.535  14.335
52852W        W18013  16.096  43.397   5.563
52853W        W18014  26.602  18.085  12.444
52854W        W18015   9.273  41.485   2.075
52855W        W18016  33.129  11.822   2.701
52856W        W18017  12.929  14.313   2.898
52857W        W18018   1.868  29.914  10.500
52858W        W18019   6.700  39.412   3.320
52859W        W18020  17.901  14.299  12.657
52860W        W18021  42.126  15.230   2.866
52861W        W18022  29.626  31.662  14.167
52862W        W18023  38.158  24.259  12.562
52863W        W18024  38.705   2.262  14.879
52864W        W18025   8.948  25.580   5.001
52865W        W18026  30.533  44.909   1.851
52866W        W18027  30.192   2.820   2.280
52867W        W18028  11.030  31.335   2.297
52868W        W18029  32.877  29.963  10.918
52869W        W18030  12.270  25.634   0.301
52870W        W18031   4.915  39.694   3.405
52871W        W18032  42.418  32.417  12.037
52872W        W18033  30.814  31.886   0.776
52873W        W18034   7.326  24.943  14.425
52874W        W18035  11.343  19.993   1.884
52875W        W18036  15.580  35.326  14.849
52876W        W18037  16.582  38.799  14.797
52877W        W18038  14.012  35.151   1.402
52878W        W18039  39.863  18.067   1.654
52879W        W18040  43.001   5.229   0.964
52880W        W18041  27.657  31.618   4.191
52881W        W18042  22.547  44.266  12.524
52882W        W18043  31.057  23.172  11.575
52883W        W18044  23.722  14.103  13.071
52884W        W18045  41.602  39.722  14.326
52885W        W18046  29.733  29.570   4.597
52886W        W18047  32.454   7.750   1.251
52887W        W18048  41.953  32.208   3.354
52888W        W18049  20.088  41.910   1.515
52889W        W18050  11.539  32.157   4.671
52890W        W18051  17.687   5.296   3.011
52891W        W18052  37.806  40.635   2.056
52892W        W18053  14.213  27.955   0.101
52893W        W18054  30.952  16.727  11.942
52894W        W18055  17.988  16.770  13.197
52895W        W18056  21.755  14.473  14.487
52896W        W18057  28.455  31.397  14.766
52897W        W18058  22.247  34.508   4.660
52898W        W18059  38.381  28.612  13.063
52899W        W18060  38.235  38.274   5.059
52900W        W18061  24.369  11.790   2.958
52901W        W18062   5.872  23.790   0.552
52902W        W18063  19.873  38.579   0.665
52903W        W18064  37.829  21.246  11.567
52904W        W18065   7.611  13.123  11.407
52905W        W18066   9.214   9.752   3.578
52906W        W18067  42.646  40.011  10.235
52907W        W18068  16.971  11.708   3.305
52908W        W18069  44.179  40.259  11.144
52909W        W18070  24.480  27.481   0.332
52910W        W18071  24.636  13.011   0.352
52911W        W18072   4.468  42.998  11.556
52912W        W18073  17.551   0.254   3.642
52913W        W18074   1.264  20.961   3.821
52914W        W18075  31.142   2.276  13.366
52915W        W18076  39.825  23.595   3.715
52916W        W18077  33.483   5.280   2.626
52917W        W18078  36.420  33.138  11.098
52918W        W18079   6.740   7.615   4.315
52919W        W18080  32.278  21.541   3.915
52920W        W18081  18.549   8.729  11.338
52921W        W18082   6.643  21.715  12.876
52922W        W18083  43.806  27.641   0.332
52923W        W18084  22.092  21.426  11.053
52924W        W18085  36.899  30.393  12.016
52925W        W18086  25.169  10.758  12.918
52926W        W18087  43.990  23.328  12.798
52927W        W18088   8.734   6.140   4.686
52928W        W18089  44.942  13.658  11.699
52929W        W18090  18.020  39.321   0.450
52930W        W18091   5.754   3.724  11.490
52931W        W18092  32.991  11.797   1.741
52932W        W18093  22.524   8.205   4.606
52933W        W18094  36.932  39.997   1.654
52934W        W18095  17.608  42.723  14.603
52935W        W18096  16.043  18.014  13.922
52936W        W18097  33.510  33.433  14.964
52937W        W18098  10.317  25.076   1.250
52938W        W18099  32.122  42.417  14.920
52939W        W18100  33.053  41.249  12.492
52940W        W18101   5.064  35.993  10.277
52941W        W18102  35.967  20.038   5.049
52942W        W18103  29.364  22.537   1.949
52943W        W18104  10.816  29.652  14.077
52944W        W18105  17.154  44.010   1.438
52945W        W18106  25.911  42.433   0.823
52946W        W18107  30.201  19.672  14.477
52947W        W18108  21.697  34.368   1.913
52948W        W18109  13.865  30.030   4.671
52949W        W18110  25.252  17.826  12.580
52950W        W18111  14.832  24.849   4.099
52951W        W18112  20.997   3.136   0.477
52952W        W18113  33.970  35.371   3.948
52953W        W18114  32.410  27.537  12.859
52954W        W18115  42.011  26.210   2.196
52955W        W18116  24.674  42.867  12.313
52956W        W18117   4.857  16.804   4.641
52957W        W18118  35.345   5.742  11.516
52958W        W18119  11.611   7.594   1.920
52959W        W18120  26.851   5.736  13.081
52960W        W18121  38.799  41.093   4.735
52961W        W18122  33.609  34.300  12.772
52962W        W18123  41.962  11.636  14.389
52963W        W18124   2.782  10.307  10.629
52964W        W18125  10.198  20.676   4.178
52965W        W18126  16.283  41.842  11.559
52966W        W18127  44.727  21.042   1.788
52967W        W18128   9.426  26.997   0.234
52968W        W18129  35.082  38.979   0.496
52969W        W18130  28.728  40.630  12.555
52970W        W18131   0.446  25.230   0.021
52971W        W18132  25.690  29.601  11.075
52972W        W18133  24.667  37.357  11.163
52973W        W18134  35.370  26.761   1.369
52974W        W18135  40.630  37.844   5.528
52975W        W18136   3.745   7.226   1.335
52976W        W18137  33.811  33.080   0.949
52977W        W18138  44.733  19.760  10.360
52978W        W18139  41.729  10.335   2.827
52979W        W18140  28.246   8.622   2.852
52980W        W18141  26.310  34.896  14.196
52981W        W18142  10.215  23.707   4.686
52982W        W18143  28.606  14.836   2.570
52983W        W18144  41.283   4.682  11.123
52984W        W18145  12.065  18.351  11.206
52985W        W18146  32.032  23.013  12.126
52986W        W18147  18.123   3.953  12.636
52987W        W18148   2.816  31.163   4.284
52988W        W18149  14.922   4.371  13.039
52989W        W18150  41.408  17.623   3.605
52990W        W18151  44.271   4.413  11.106
52991W        W18152   6.779   7.904   0.295
52992W        W18153  31.506  32.487   3.324
52993W        W18154  37.446  23.187  13.000
52994W        W18155  38.381  23.701  11.201
52995W        W18156  34.894  16.621  13.850
52996W        W18157  36.592  11.325  14.014
52997W        W18158  35.600  44.178   3.161
52998W        W18159   1.033   8.935   3.271
52999W        W18160  21.983  24.088  14.810
53000W        W18161  28.531   2.182  14.859
53001W        W18162  20.072   0.403  12.339
53002W        W18163  24.223  17.115  10.387
53003W        W18164   0.957  19.223   0.282
53004W        W18165  38.403  27.549  11.376
53005W        W18166  31.803   8.775   3.696
53006W        W18167   9.608  26.631  10.642
53007W        W18168  22.223  37.371   1.244
53008W        W18169  33.125  23.369  11.318
53009W        W18170   9.305  28.678  12.494
53010W        W18171   6.883   9.477   2.666
53011W        W18172  41.118  15.078   4.088
53012W        W18173  17.227  39.780   3.799
53013W        W18174   8.171  16.898   4.688
53014W        W18175  13.778  33.904  10.579
53015W        W18176   7.798  41.047  14.817
53016W        W18177  10.205  10.720   4.946
53017W        W18178  34.056  28.592   0.879
53018W        W18179  26.866  37.055   2.973
53019W        W18180   6.396  40.119   4.449
53020W        W18181  11.570  11.993   1.841
53021W        W18182  28.306  26.486  13.669
53022W        W18183  15.671  14.658  11.834
53023W        W18184  10.321  38.789  11.599
53024W        W18185  39.067  22.473  10.804
53025W        W18186  24.245  34.837   3.813
53026W        W18187  33.272  20.497  13.449
53027W        W18188  15.138  32.094   4.099
53028W        W18189  36.524  37.957  12.910
53029W        W18190  43.880  40.965   0.097
53030W        W18191  27.809  19.333  11.105
53031W        W18192  10.227   3.425   0.843
53032W        W18193  30.110  37.554  13.511
53033W        W18194  44.203  14.495   1.635
53034W        W18195  28.034  34.488  10.730
53035W        W18196  44.837  18.116   0.975
53036W        W18197   4.276  22.538  10.881
53037W        W18198  10.134  10.897  11.265
53038W        W18199   3.255  19.496   1.763
53039W        W18200  37.980  42.854  12.464
53040W        W18201  30.179   1.737  11.395
53041W        W18202   4.934  20.333   0.784
53042W        W18203  23.533  43.005   4.132
53043W        W18204   9.904  25.252   2.856
53044W        W18205  17.175  40.228   3.557
53045W        W18206  33.454   0.489   4.109
53046W        W18207   9.053  15.570  14.861
53047W        W18208   8.153  10.849   4.526
53048W        W18209  23.737  44.339  11.866
53049W        W18210  10.755  21.456   2.753
53050W        W18211  44.457  17.547  12.053
53051W        W18212  25.950   1.717  14.518
53052W        W18213  38.356   6.284  10.618
53053W        W18214  11.689  27.422  11.011
53054W        W18215  41.923  42.416  12.069
53055W        W18216   5.485  44.836  14.950
53056W        W18217   5.931   4.373   0.211
53057W        W18218  14.906  21.642   2.814
53058W        W18219  14.308  37.023   0.401
53059W        W18220  40.090  40.582   1.272
53060W        W18221   2.906  18.211   2.744
53061W        W18222   0.213  13.585   0.252
53062W        W18223  42.388  43.307  10.752
53063W        W18224   7.097  36.369  10.850
53064W        W18225  29.855   0.298   1.302
53065W        W18226   2.487   6.333  11.671
53066W        W18227   2.254  44.352  10.782
53067W        W18228  22.304  30.716   1.705
53068W        W18229  10.667  39.331  13.427
53069W        W18230  19.296  19.226   1.675
53070W        W18231  18.209  13.569  11.688
53071W        W18232  17.030   7.658  14.354
53072W        W18233  16.046  44.501   0.232
53073W        W18234  29.916   9.149  14.842
53074W        W18235   4.765   3.134  14.735
53075W        W18236  26.751  18.844  14.406
53076W        W18237  34.179  35.774   4.158
53077W        W18238  37.666  42.752  11.180
53078W        W18239  17.729  11.669  13.344
53079W        W18240  44.780  33.488  13.097
53080W        W18241   3.288  36.982  11.003
53081W        W18242  20.799  19.895  11.168
53082W        W18243  17.115   1.410  13.468
53083W        W18244  26.759  37.293   1.298
53084W        W18245  42.499   4.198   3.648
53085W        W18246  44.829   1.936  13.829
53086W        W18247   9.315  20.854  12.466
53087W        W18248  40.352   7.189   4.397
53088W        W18249   0.201  31.636  11.987
53089W        W18250  39.867   6.829  12.321
53090W        W18251  32.680  17.491   2.586
53091W        W18252  14.697  25.964   4.091
53092W        W18253  18.761  28.012  11.211
53093W        W18254  30.066  10.801  10.384
53094W        W18255   3.310   3.299  11.340
53095W        W18256   1.986  28.081   5.007
53096W        W18257  34.443  37.035   1.143
53097W        W18258  43.471  42.747  10.390
53098W        W18259  22.135  16.058  13.810
53099W        W18260  26.642  21.998   9.837
53100W        W18261  26.167  26.952  14.082
53101W        W18262  30.404  30.119   2.719
53102W        W18263  27.296  31.123  12.976
53103W        W18264  31.410  35.488  14.275
53104W        W18265   3.708  41.419  14.295
53105W        W18266  25.107  37.371   5.538
53106W        W18267  20.562  35.358   1.284
53107W        W18268   5.527  38.421  11.068
53108W        W18269  15.718  22.196  14.756
53109W        W18270  37.308  39.891   1.074
53110W        W18271  12.129  28.402   1.785
53111W        W18272   5.713  13.246   3.083
53112W        W18273  27.688  18.242  13.412
53113W        W18274   8.837  25.503  13.057
53114W        W18275   6.327  23.685   3.745
53115W        W18276  21.024   9.701  10.919
53116W        W18277  20.565  43.776   4.190
53117W        W18278   9.002   2.159  14.545
53118W        W18279  32.625  44.772   1.355
53119W        W18280  14.538  30.211  14.048
53120W        W18281  21.872  33.015   2.213
53121W        W18282  18.556  29.534  10.427
53122W        W18283  30.067  33.710   1.906
53123W        W18284  32.557  27.651  14.726
53124W        W18285  25.716  16.736   0.266
53125W        W18286   1.542  39.982  11.155
53126W        W18287  40.317  43.786  14.314
53127W        W18288  26.166  25.607   4.318
53128W        W18289  22.010  21.028   0.352
53129W        W18290  15.731   5.545  13.516
53130W        W18291  10.087  30.028   4.801
53131W        W18292   9.668  21.288   0.767
53132W        W18293  12.900  42.370   1.803
53133W        W18294  10.834  18.374  12.818
53134W        W18295  37.483  10.536   4.151
53135W        W18296   7.766  21.012  14.777
53136W        W18297  40.901   6.756   2.900
53137W        W18298  26.452   9.336   2.366
53138W        W18299  33.481  26.266   4.053
53139W        W18300  24.757  27.164   3.565
53140W        W18301  19.623   1.204   3.195
53141W        W18302  15.781  31.164   1.674
53142W        W18303  43.774   5.911  12.451
53143W        W18304  34.796   8.870  12.381
53144W        W18305  39.476  20.771  11.746
53145W        W18306  12.357  14.158   3.737
53146W        W18307   8.763   4.602   1.009
53147W        W18308  20.724  42.741  14.279
53148W        W18309   4.266  22.944  13.834
53149W        W18310   2.010   6.234  10.627
53150W        W18311  14.097   9.779  11.890
53151W        W18312  40.400  10.839  10.560
53152W        W18313  40.123  35.492  14.247
53153W        W18314  33.605  28.609  14.917
53154W        W18315  23.666   2.840   3.812
53155W        W18316  34.608  19.112   0.711
53156W        W18317  15.724   2.325   2.378
53157W        W18318  37.816  43.308   4.705
53158W        W18319  19.809  42.017   2.531
53159W        W18320  11.626  39.501  11.221
53160W        W18321  37.512   6.899   1.236
53161W        W18322  29.067  34.765   3.223
53162W        W18323  39.613  29.501  12.955
53163W        W18324  17.151  33.650  10.253
53164W        W18325  27.739   1.701  10.271
53165W        W18326   5.387  20.289  11.992
53166W        W18327  44.137  19.619   2.240
53167W        W18328  28.204   2.715   1.021
53168W        W18329  25.210  40.559  13.557
53169W        W18330   7.002  22.485  14.785
53170W        W18331   2.770  20.752   0.869
53171W        W18332   6.924  23.780   3.105
53172W        W18333   0.763  34.488   3.146
53173W        W18334   6.158  21.900  13.489
53174W        W18335  29.991   4.306   4.795
53175W        W18336  37.518  39.071   4.684
53176W        W18337   1.769  10.012   5.080
53177W        W18338  44.001  34.135   0.516
53178W        W18339   8.405  26.974   3.064
53179W        W18340  32.399  12.641   2.348
53180W        W18341  24.112   3.723   3.171
53181W        W18342  38.271  19.039   2.190
53182W        W18343  35.594  22.923  14.843
53183W        W18344  20.833  13.031  12.018
53184W        W18345  29.211  35.137   4.456
53185W        W18346  24.569  31.578   1.313
53186W        W18347   4.328  31.572  14.865
53187W        W18348  23.706  29.190   3.960
53188W        W18349  24.900  22.710   3.364
53189W        W18350  37.867  30.135   2.077
53190W        W18351  40.909   2.811   0.285
53191W        W18352  44.332  24.407   0.404
53192W        W18353  40.238  39.821   3.337
53193W        W18354  13.821  10.201  13.061
53194W        W18355  25.694  28.495  14.840
53195W        W18356  13.586  32.535  11.657
53196W        W18357  35.271   3.958  14.325
53197W        W18358  27.929  40.969   1.423
53198W        W18359  21.701  11.846  13.536
53199W        W18360  37.521  27.466  10.871
53200W        W18361  40.724  35.425  12.465
53201W        W18362  33.563  33.684  10.516
53202W        W18363  10.237  13.616   2.894
53203W        W18364  31.965  37.052   2.415
53204W        W18365  17.505  42.407   3.670
53205W        W18366   9.449  10.135  11.335
53206W        W18367   3.471  13.764  12.054
53207W        W18368  34.119  24.361   1.348
53208W        W18369   3.998  44.871  10.500
53209W        W18370  19.865  11.974  13.110
53210W        W18371  17.017  27.543  13.371
53211W        W18372  10.181  32.009   3.922
53212W        W18373   0.534   4.269   4.928
53213W        W18374  13.846   1.284   4.500
53214W        W18375  39.120  38.615  12.613
53215W        W18376  20.874  37.324   3.814
53216W        W18377  31.423  40.926   3.415
53217W        W18378  38.087   8.976  13.509
53218W        W18379  22.019  35.891   2.470
53219W        W18380  17.837  31.223  12.383
53220W        W18381  42.586   0.362  12.015
53221W        W18382  12.439  12.623   0.281
53222W        W18383  18.117  15.021  14.758
53223W        W18384  24.236  43.551   0.849
53224W        W18385  28.330   9.390   0.456
53225W        W18386  24.526   2.860  12.984
53226W        W18387  40.946  28.134   3.886
53227W        W18388  20.580  32.792   1.456
53228W        W18389  44.252  38.609  10.792
53229W        W18390  16.710  14.768   2.781
53230W        W18391  29.988   9.882  10.467
53231W        W18392  23.105  33.299  14.262
53232W        W18393  19.584  29.935  10.601
53233W        W18394  18.925  31.035   1.811
53234W        W18395  10.035  29.884   2.327
53235W        W18396  10.377  38.252  11.559
53236W        W18397  36.933   5.196  11.143
53237W        W18398   0.970  29.042   0.813
53238W        W18399   6.645  31.225   2.740
53239W        W18400  35.860  38.003   1.871
53240W        W18401   8.276  30.390   0.351
53241W        W18402  24.146  10.594   3.987
53242W        W18403  14.274  23.379  11.503
53243W        W18404  37.026   8.958  14.050
53244W        W18405  11.647  10.250  11.690
53245W        W18406  11.915  38.267  11.456
53246W        W18407  42.311  24.074  12.761
53247W        W18408   7.541  33.824   4.007
53248W        W18409   3.183  34.347  14.703
53249W        W18410   5.964  28.219  11.108
53250W        W18411  10.724  38.345   0.437
53251W        W18412  29.594  40.303  11.073
53252W        W18413  33.387  34.245  12.306
53253W        W18414  11.412  42.430  14.910
53254W        W18415   5.485  37.404  14.832
53255W        W18416  24.032  30.121  11.609
53256W        W18417  34.183  15.602  12.885
53257W        W18418  42.592  32.841  10.875
53258W        W18419  27.501   8.210  14.055
53259W        W18420  41.868  10.890  12.106
53260W        W18421  28.194  40.325   0.406
53261W        W18422  14.772  11.400  13.527
53262W        W18423   2.612  43.093   0.506
53263W        W18424   8.093  13.657   1.283
53264W        W18425  29.158   9.938   1.253
53265W        W18426  33.126  15.880   2.338
53266W        W18427  19.594  16.019   1.285
53267W        W18428   3.870   9.220  13.383
53268W        W18429  39.519  26.799  11.996
53269W        W18430  16.996  38.944   4.545
53270W        W18431  12.543  30.397   4.331
53271W        W18432   9.810   1.428   3.641
53272W        W18433  34.796  33.674   4.715
53273W        W18434  32.553  44.995  11.468
53274W        W18435  29.144   0.183  12.066
53275W        W18436  29.579  38.588   2.695
53276W        W18437  19.267   5.669   3.193
53277W        W18438  31.147  44.357  12.828
53278W        W18439  31.875  21.163   1.792
53279W        W18440   5.044  31.859   5.219
53280W        W18441  15.116   2.060  12.508
53281W        W18442  33.551   7.842  11.118
53282W        W18443  37.382  12.368   0.913
53283W        W18444  19.557   8.619   2.274
53284W        W18445  17.282  38.279   3.672
53285W        W18446  40.757   5.114   1.909
53286W        W18447   1.125  27.128  12.922
53287W        W18448  20.993   1.512  13.272
53288W        W18449   1.974   2.693   2.615
53289W        W18450  24.972   0.409  14.056
53290W        W18451  16.072   5.779  11.844
53291W        W18452  42.785  22.176   0.298
53292W        W18453  26.197  43.416  10.579
53293W        W18454  35.636  19.445  12.564
53294W        W18455  19.585  11.343   2.557
53295W        W18456  10.173  23.622   2.113
53296W        W18457  36.767  24.707   4.040
53297W        W18458  23.114  34.931   3.224
53298W        W18459   0.735  25.101   0.825
53299W        W18460   9.438   1.763  13.859
53300W        W18461  26.662  16.104  14.319
53301W        W18462  22.769   6.913   3.864
53302W        W18463  42.436  39.768   2.329
53303W        W18464  10.112  10.665   3.775
53304W        W18465  13.737  26.198   1.361
53305W        W18466  22.543   4.201   4.257
53306W        W18467  10.767  42.530   2.068
53307W        W18468  36.521  37.488   3.871
53308W        W18469  32.579   6.168   2.207
53309W        W18470  36.136   5.017   1.773
53310W        W18471   7.414   2.693   4.316
53311W        W18472  28.553  28.470   0.261
53312W        W18473  10.589   6.732  10.545
53313W        W18474   3.472  12.093   1.911
53314W        W18475  28.086  17.342  14.664
53315W        W18476  22.245  35.951  10.597
53316W        W18477   2.352  10.425  13.879
53317W        W18478  39.164  36.003   4.147
53318W        W18479   7.115  15.691   1.710
53319W        W18480  29.523  25.020  13.100
53320W        W18481  36.481  18.554  11.817
53321W        W18482  29.906  38.408   4.858
53322W        W18483  25.719  13.458  13.460
53323W        W18484  27.135   2.890   1.276
53324W        W18485  10.324  21.925   4.726
53325W        W18486  30.599   2.769   3.151
53326W        W18487  34.428  34.000  13.559
53327W        W18488  16.372  43.357   5.123
53328W        W18489   6.282  31.098  11.224
53329W        W18490   4.660  20.584  11.104
53330W        W18491  41.032   1.555   4.846
53331W        W18492  25.724  16.222  13.402
53332W        W18493  17.317  10.990   3.962
53333W        W18494  12.915  12.901  11.546
53334W        W18495  31.270  36.783   3.276
53335W        W18496   3.779  33.173  12.440
53336W        W18497  36.856  17.190  12.441
53337W        W18498   3.299  38.808  10.611
53338W        W18499  11.982  29.019  12.015
53339W        W18500   5.661  25.942   1.446
53340W        W18501  29.576  13.275  11.141
53341W        W18502  13.602  40.825   0.687
53342W        W18503  33.545  24.262   3.332
53343W        W18504  21.960  20.670   2.266
53344W        W18505  37.681   6.990  13.490
53345W        W18506  25.555  27.137  14.083
53346W        W18507  33.481  23.183  11.625
53347W        W18508  30.047   4.633   3.361
53348W        W18509  41.984  41.381  13.393
53349W        W18510   5.778  36.769  13.060
53350W        W18511  40.856  17.243  14.559
53351W        W18512  24.176  41.228  14.884
53352W        W18513  42.965  11.174  13.665
53353W        W18514  13.687  36.223  14.117
53354W        W18515  32.432  44.071   1.265
53355W        W18516   5.241  19.018  12.453
53356W        W18517  16.189  15.484  14.725
53357W        W18518  39.971   6.360   1.067
53358W        W18519  21.185   2.241   0.573
53359W        W18520  40.516   3.651  13.127
53360W        W18521   0.864   0.738   4.537
53361W        W18522  39.096  19.449  11.390
53362W        W18523  10.366  13.084   1.048
53363W        W18524  12.435   1.352   1.276
53364W        W18525  28.022  42.203  12.143
53365W        W18526  27.365  18.192  12.978
53366W        W18527   6.428  17.176  10.126
53367W        W18528  28.094  14.696   3.754
53368W        W18529  16.798  28.361  10.999
53369W        W18530  43.102  17.728   1.301
53370W        W18531  42.770   4.815  13.328
53371W        W18532   4.873  21.891  11.672
53372W        W18533  24.102   6.695   0.233
53373W        W18534  43.394  20.215  12.534
53374W        W18535  30.201  26.679   1.880
53375W        W18536  18.101  17.501   9.735
53376W        W18537  20.664  20.395  11.049
53377W        W18538  33.055  22.586   2.569
53378W        W18539  17.327  28.391  11.056
53379W        W18540  14.271  36.372   4.274
53380W        W18541  30.724  12.144  12.253
53381W        W18542  39.702  19.098   4.777
53382W        W18543   3.808  26.698   0.910
53383W        W18544  23.946   5.307   0.322
53384W        W18545  33.132  43.994  14.507
53385W        W18546  38.401  11.506   4.236
53386W        W18547  12.319  12.696   1.843
53387W        W18548  41.002  15.616  12.459
53388W        W18549  40.470   2.238   2.364
53389W        W18550  44.779   8.971  11.570
53390W        W18551   8.876   1.421   3.739
53391W        W18552  32.514  18.711   4.491
53392W        W18553  25.744  20.757  11.427
53393W        W18554  21.657  18.607   4.571
53394W        W18555  20.626  35.016   3.685
53395W        W18556   2.056  26.536   0.888
53396W        W18557  19.181  19.856  13.571
53397W        W18558  39.561   5.527  13.536
53398W        W18559  20.592  41.876   1.440
53399W        W18560  20.030  30.701   3.901
53400W        W18561  38.877   8.075   0.285
53401W        W18562  33.381  37.544   3.622
53402W        W18563   3.285  34.344  11.569
53403W        W18564  11.901   0.690   3.281
53404W        W18565   7.175  20.271  13.123
53405W        W18566  29.391  32.570  14.286
53406W        W18567  22.971  37.270   4.589
53407W        W18568  30.854  16.671   0.917
53408W        W18569  21.472  31.139   1.567
53409W        W18570  20.107  34.403   5.067
53410W        W18571   2.424  14.098  12.361
53411W        W18572  24.690  11.146   1.245
53412W        W18573   5.111  36.983  11.243
53413W        W18574  15.625  14.203  10.579
53414W        W18575  44.253  38.833  10.338
53415W        W18576  44.995   4.989  13.869
53416W        W18577   5.260  13.977   5.095
53417W        W18578  15.037  37.884  11.373
53418W        W18579  40.370  16.434  13.337
53419W        W18580  23.011  36.484  10.923
53420W        W18581  24.739   7.137  14.856
53421W        W18582   6.917  20.799  14.500
53422W        W18583  32.565   4.249  11.164
53423W        W18584  22.248  27.643   2.641
53424W        W18585   3.510  10.996  13.834
53425W        W18586  40.698   4.442  12.691
53426W        W18587  15.754  18.567  10.726
53427W        W18588  11.199  41.956   4.618
53428W        W18589  21.841  44.980  13.488
53429W        W18590   3.749  24.652  13.190
53430W        W18591  22.217  41.877  14.095
53431W        W18592  41.474  43.134  14.089
53432W        W18593  22.988  16.777   4.654
53433W        W18594  41.372  20.366  13.376
53434W        W18595  43.476  39.959   1.565
53435W        W18596  39.885  41.273  13.156
53436W        W18597   1.251  23.454   0.434
53437W        W18598  26.986  27.039   0.652
53438W        W18599   9.383  16.108   4.654
53439W        W18600   4.759  10.611  10.603
53440W        W18601  39.293   1.651   4.121
53441W        W18602  39.850  13.168  13.721
53442W        W18603  10.186  31.739   3.340
53443W        W18604  11.997   6.671   4.973
53444W        W18605  25.566   0.209   1.672
53445W        W18606  44.462  18.842   3.635
53446W        W18607  13.772  23.010  12.408
53447W        W18608  34.550  17.684   3.387
53448W        W18609  38.793  31.551  11.171
53449W        W18610   3.754  36.943  13.655
53450W        W18611  31.092  39.316  10.644
53451W        W18612   2.960  39.121  12.840
53452W        W18613  26.537  32.634   4.522
53453W        W18614  22.558   6.453   3.740
53454W        W18615  29.259  36.672  11.886
53455W        W18616  18.515   6.778   0.786
53456W        W18617  10.258  44.680  11.888
53457W        W18618  44.037  14.159  12.456
53458W        W18619  36.058   2.025   2.829
53459W        W18620  20.145  40.103   3.256
53460W        W18621  39.084   8.925  10.625
53461W        W18622  22.378  11.797   4.553
53462W        W18623  18.573  31.559   1.038
53463W        W18624  16.368  36.075  11.078
53464W        W18625  25.294  11.637   3.276
53465W        W18626  25.931  23.136  12.976
53466W        W18627   7.371  23.235  11.634
53467W        W18628  39.401  32.271   2.274
53468W        W18629  37.105  15.766   3.060
53469W        W18630  31.651  40.433  12.480
53470W        W18631  39.554  37.329  14.328
53471W        W18632  15.711  17.440  14.404
53472W        W18633  25.750  38.367   1.599
53473W        W18634   1.461  13.850   3.102
53474W        W18635  32.587  38.036  13.348
53475W        W18636  21.553  13.550  12.918
53476W        W18637   5.368  27.128   1.746
53477W        W18638  36.629   3.189  12.883
53478W        W18639  20.757  13.309  13.556
53479W        W18640   0.519  44.404   0.992
53480W        W18641  35.393  42.282   4.353
53481W        W18642  30.873  43.482  12.618
53482W        W18643  43.026  11.039  10.187
53483W        W18644   5.685  28.333  13.773
53484W        W18645   6.693   2.833  13.942
53485W        W18646  35.652  29.529  12.832
53486W        W18647  25.677  28.172  13.095
53487W        W18648  32.867   2.658   3.203
53488W        W18649   5.719  26.102   4.009
53489W        W18650  23.060  38.410  11.580
53490W        W18651  13.292  23.257  12.977
53491W        W18652  13.509   2.348   4.219
53492W        W18653  30.523   2.451  11.660
53493W        W18654  29.015  22.568   4.568
53494W        W18655   4.714  39.554   2.701
53495W        W18656   9.453   0.804  11.204
53496W        W18657  12.365  43.875   0.304
53497W        W18658   7.137   6.210   1.765
53498W        W18659  16.542  40.998   0.403
53499W        W18660  20.993  36.459  14.246
53500W        W18661  29.040  26.701   0.737
53501W        W18662  35.350  13.816  13.318
53502W        W18663  18.315  13.647   3.143
53503W        W18664  29.640   4.708  12.378
53504W        W18665  21.201  39.089   0.449
53505W        W18666   2.567  18.717   3.590
53506W        W18667  21.804   0.689   0.814
53507W        W18668  18.126  35.977   0.776
53508W        W18669  16.805  28.523   3.294
53509W        W18670  20.933   2.137   1.007
53510W        W18671  38.858   2.217   0.385
53511W        W18672  34.184   7.420   4.231
53512W        W18673   0.753  11.621   2.304
53513W        W18674   9.837  43.090   0.905
53514W        W18675   7.348  17.987   2.331
53515W        W18676   5.080  36.355   0.868
53516W        W18677  11.830  20.858   0.943
53517W        W18678  28.170  15.061   2.336
53518W        W18679  21.641  12.832  12.308
53519W        W18680  31.493  20.484  12.699
53520W        W18681  33.166   1.522  13.464
53521W        W18682  37.815   7.678  12.444
53522W        W18683  36.094  20.679   2.801
53523W        W18684  12.377  30.218   1.638
53524W        W18685  34.686  22.030   4.730
53525W        W18686   9.270  32.620  11.173
53526W        W18687  28.644  22.643  12.883
53527W        W18688  31.882  19.678   4.685
53528W        W18689   3.801  32.957   0.886
53529W        W18690  23.213  44.907   1.241
53530W        W18691  32.112  33.996  11.100
53531W        W18692   9.613  26.046   1.898
53532W        W18693  28.471  15.711   3.249
53533W        W18694   3.839  43.215   4.888
53534W        W18695  44.869  27.167   1.212
53535W        W18696  19.294  19.195  14.411
53536W        W18697  30.180  21.188  11.525
53537W        W18698  32.378  30.937  12.539
53538W        W18699  22.079  13.162  12.933
53539W        W18700  26.179   1.945  14.007
53540W        W18701  23.652  11.593   1.663
53541W        W18702  26.462  34.563  11.649
53542W        W18703   6.510  34.197   1.899
53543W        W18704  24.116  13.769  11.996
53544W        W18705  11.625  30.411   3.756
53545W        W18706  26.055  36.752  13.310
53546W        W18707  41.874   3.855   4.376
53547W        W18708  33.661  38.922  11.747
53548W        W18709  25.598   5.214  11.642
53549W        W18710   2.785  15.947  11.584
53550W        W18711  11.175  23.404  12.389
53551W        W18712  14.404  31.036  10.665
53552W        W18713  41.351  31.519  14.747
53553W        W18714  19.037   6.701   0.835
53554W        W18715  35.560  36.158  13.417
53555W        W18716  41.088  21.572   4.467
53556W        W18717  43.099  11.349  14.192
53557W        W18718  18.327   8.366   1.853
53558W        W18719  32.744  35.650  11.780
53559W        W18720  39.817   8.163  11.675
53560W        W18721  31.166   0.422  14.757
53561W        W18722   8.687  36.871  14.955
53562W        W18723  10.810  44.634   0.883
53563W        W18724  27.954  41.349  14.404
53564W        W18725  12.401   2.016  11.150
53565W        W18726  30.549   9.159   1.411
53566W        W18727  44.609  29.221   3.185
53567W        W18728  30.353  10.575   4.342
53568W        W18729  10.042   3.844  12.112
53569W        W18730  41.780  17.781  11.502
53570W        W18731   1.508  30.972   0.999
53571W        W18732  30.913  10.579  11.754
53572W        W18733  43.534  15.094  12.220
53573W        W18734   6.790  30.810  11.120
53574W        W18735  10.255  37.376   3.270
53575W        W18736  39.305  16.084   3.180
53576W        W18737  11.870  20.663   3.599
53577W        W18738  37.932  25.742   2.738
53578W        W18739  35.376  15.744   1.389
53579W        W18740  23.564  24.782   1.732
53580W        W18741   8.610  12.027   1.910
53581W        W18742  29.479  34.547  13.976
53582W        W18743  19.842  31.378  10.733
53583W        W18744  11.308  19.156  14.029
53584W        W18745  44.473  26.457  11.307
53585W        W18746  15.688  27.431   3.830
53586W        W18747   3.795  30.128   2.833
53587W        W18748  22.720  36.877   4.352
53588W        W18749  14.900  33.775   1.946
53589W        W18750   8.915  42.355  12.945
53590W        W18751   5.799  12.040   0.951
53591W        W18752  26.772  37.838  13.781
53592W        W18753  28.153  18.207  12.514
53593W        W18754  19.131  22.191   3.371
53594W        W18755   8.936  12.061  13.957
53595W        W18756  14.289  12.766  13.181
53596W        W18757  21.549  33.224  12.132
53597W        W18758  39.435  43.539  11.935
53598W        W18759  26.514  43.468   0.363
53599W        W18760  13.906  15.096   3.731
53600W        W18761   0.619  32.586   1.270
53601W        W18762  16.230  16.152  10.272
53602W        W18763   4.742  13.518  11.481
53603W        W18764  10.821  34.934  11.599
53604W        W18765  19.503   2.950   3.730
53605W        W18766   2.502  10.421   0.828
53606W        W18767   3.970  17.885   0.999
53607W        W18768  41.455  44.168   4.768
53608W        W18769  17.385   9.358  11.584
53609W        W18770  39.222  16.619  14.207
53610W        W18771  12.122  11.984  14.339
53611W        W18772  33.060  26.279   0.414
53612W        W18773  39.372   9.309   3.797
53613W        W18774  20.794  10.865   4.813
53614W        W18775  21.543  36.946   4.554
53615W        W18776   3.266  19.208   2.757
53616W        W18777   9.707  37.978  10.547
53617W        W18778   1.481  36.004  10.687
53618W        W18779   9.451  26.516  12.980
53619W        W18780  27.017   4.910  10.670
53620W        W18781  42.064  13.545   4.131
53621W        W18782  29.672  18.053   1.861
53622W        W18783  23.325  12.673  13.817
53623W        W18784  19.095   1.447  11.734
53624W        W18785  41.004  30.506   2.598
53625W        W18786  15.182  36.092   2.271
53626W        W18787  29.638  21.747  11.982
53627W        W18788   4.962  11.280  12.445
53628W        W18789   1.889  36.156  10.960
53629W        W18790  13.219  34.419  13.340
53630W        W18791  28.665  39.562   3.889
53631W        W18792  30.030  25.767  10.648
53632W        W18793  15.607  11.652   0.793
53633W        W18794  37.052   9.519   3.776
53634W        W18795  40.750  38.459   0.713
53635W        W18796  36.944   0.004  14.994
53636W        W18797  31.117  34.885   0.946
53637W        W18798  34.852   5.207   4.697
53638W        W18799  30.960   7.259   2.189
53639W        W18800  28.505  12.572   0.899
53640W        W18801   2.919  44.912   1.708
53641W        W18802   1.203  41.782   1.228
53642W        W18803  11.656  23.078  12.424
53643W        W18804  10.823   8.314  11.836
53644W        W18805  39.093  22.828   1.436
53645W        W18806   0.296  23.466   3.718
53646W        W18807  40.818   2.183   2.774
53647W        W18808  16.714   9.869   4.097
53648W        W18809  12.238  30.408   0.253
53649W        W18810  40.047  12.654  14.535
53650W        W18811   3.817  10.228   9.980
53651W        W18812  22.775  35.843   9.887
53652W        W18813   1.800   0.909   3.074
53653W        W18814   3.771  20.206   2.688
53654W        W18815  36.718  28.369   1.410
53655W        W18816  30.248  15.893   3.615
53656W        W18817  42.429  41.994  11.186
53657W        W18818  26.197  38.362   0.324
53658W        W18819  26.245  44.571  12.066
53659W        W18820   9.113  17.100  12.212
53660W        W18821  13.858  44.958   0.294
53661W        W18822   5.979  43.939   1.372
53662W        W18823   9.134  44.463  11.219
53663W        W18824  22.597  39.949  12.594
53664W        W18825  32.607  42.617   3.674
53665W        W18826  23.983  20.307  13.058
53666W        W18827  44.101   8.164  13.322
53667W        W18828   9.917  42.099  10.562
53668W        W18829  11.175  26.923   3.329
53669W        W18830   9.654  34.093  14.879
53670W        W18831  12.815  18.461  11.953
53671W        W18832  22.226  13.181  11.006
53672W        W18833  40.450  32.974  11.654
53673W        W18834  41.162   1.040  11.112
53674W        W18835  31.972  28.050  10.796
53675W        W18836  13.627  25.602  14.888
53676W        W18837  22.149  23.197  14.116
53677W        W18838  32.447  11.571   5.072
53678W        W18839  44.538  23.984  14.714
53679W        W18840  12.790  38.142  14.642
53680W        W18841  22.555  15.864   4.501
53681W        W18842  16.057  37.550  11.199
53682W        W18843  37.966  25.460  11.480
53683W        W18844   3.242  16.775  11.056
53684W        W18845  12.745  43.261   4.126
53685W        W18846  26.752  23.478   2.785
53686W        W18847  23.249  32.460  14.409
53687W        W18848   0.477  20.026   3.257
53688W        W18849  41.771  34.074  12.003
53689W        W18850  19.156  38.528   1.817
53690W        W18851   3.201  11.413  10.989
53691W        W18852  32.512  41.804   2.189
53692W        W18853  30.577  43.164   0.889
53693W        W18854  40.910   1.870  14.203
53694W        W18855  29.532  20.188  11.296
53695W        W18856  42.990  12.163  13.762
53696W        W18857  14.827   7.169  13.191
53697W        W18858  12.878   7.198  10.653
53698W        W18859   4.486  25.297   1.678
53699W        W18860  32.955  35.946  14.906
53700W        W18861  40.882  38.369   1.440
53701W        W18862  32.591  31.233  12.922
53702W        W18863  25.419  37.489   2.627
53703W        W18864  29.032  31.221  11.877
53704W        W18865  16.648   8.396   0.798
53705W        W18866  31.398   6.743  12.972
53706W        W18867  42.246  20.583   1.510
53707W        W18868  37.594   7.090   2.672
53708W        W18869   5.137  36.907  10.745
53709W        W18870  41.540  30.367  13.371
53710W        W18871  10.802  37.593   2.028
53711W        W18872  35.448  21.496  10.732
53712W        W18873  36.064  24.368  12.993
53713W        W18874  37.249  23.712  13.068
53714W        W18875   8.252   1.337  14.821
53715W        W18876  25.170  24.435   3.240
53716W        W18877  14.840  19.573   0.334
53717W        W18878  31.971  30.426   0.150
53718W        W18879  40.998  32.630   1.717
53719W        W18880   5.623  36.109  14.380
53720W        W18881  42.938  44.816   0.582
53721W        W18882   0.314  32.961  13.564
53722W        W18883  41.009  43.171  12.236
53723W        W18884  23.234  18.561  11.458
53724W        W18885   6.966  14.577   2.220
53725W        W18886  43.945  27.875  10.950
53726W        W18887   5.795  33.975  12.641
53727W        W18888  44.303  19.829   2.795
53728W        W18889  43.461  40.534   5.462
53729W        W18890   0.697   2.699   2.342
53730W        W18891  33.858  32.121   0.361
53731W        W18892  40.176  43.306  12.492
53732W        W18893  13.300  36.830  12.414
53733W        W18894   7.321  12.680  14.383
53734W        W18895   7.436   9.950  11.172
53735W        W18896  25.050  11.918  14.149
53736W        W18897  22.563  37.601  13.572
53737W        W18898  12.857  27.175  11.665
53738W        W18899  20.255  13.210   0.353
53739W        W18900  41.787  34.428   3.870
53740W        W18901  20.221  42.785  14.355
53741W        W18902   0.866  35.889  14.528
53742W        W18903  13.629  39.054  10.576
53743W        W18904  34.443  18.596  14.813
53744W        W18905   7.686   9.833   3.729
53745W        W18906   8.781  13.816   3.219
53746W        W18907   4.921  39.149   3.754
53747W        W18908  33.905  25.020  12.900
53748W        W18909  35.070  42.450   0.495
53749W        W18910  20.217  32.160   2.347
53750W        W18911  41.460   9.441   0.311
53751W        W18912  21.754  25.134   3.526
53752W        W18913  24.321  32.899  14.008
53753W        W18914   5.395  33.421   2.854
53754W        W18915  21.671  40.356   5.059
53755W        W18916  27.376  12.870   3.129
53756W        W18917   9.271  27.997   2.857
53757W        W18918  28.594  28.520  12.549
53758W        W18919   8.156  41.006   1.424
53759W        W18920   7.117   5.314  12.403
53760W        W18921  13.264  37.321  14.802
53761W        W18922  25.699  12.087   4.124
53762W        W18923   8.680  20.476  14.897
53763W        W18924  39.761  40.082  13.912
53764W        W18925  10.924  19.295  14.329
53765W        W18926  30.460  10.680  12.366
53766W        W18927  10.105  35.391  13.406
53767W        W18928  23.650   5.740  14.405
53768W        W18929  20.681  12.350  11.176
53769W        W18930  15.802  43.929  11.051
53770W        W18931  44.778  25.428  11.560
53771W        W18932   3.206  11.260   3.862
53772W        W18933  13.904  17.840  14.876
53773W        W18934   1.810  13.723  13.071
53774W        W18935  20.811  34.732   4.557
53775W        W18936  27.120   1.981  10.702
53776W        W18937  37.816  13.695  14.013
53777W        W18938   3.756  33.893  10.743
53778W        W18939   4.969  30.952  13.976
53779W        W18940  25.228  22.586   0.266
53780W        W18941  10.046  24.221   2.797
53781W        W18942  20.322  28.481  14.352
53782W        W18943  14.174  21.060   2.779
53783W        W18944  22.083  35.449  10.458
53784W        W18945   3.914  41.702   0.556
53785W        W18946  12.756  26.852   2.640
53786W        W18947  33.946  28.705   1.378
53787W        W18948  42.899   0.229   3.758
53788W        W18949  37.316  37.456  12.060
53789W        W18950   9.366   8.664  10.290
53790W        W18951   6.855  38.357   0.982
53791W        W18952  18.632  31.640  10.993
53792W        W18953  40.493  28.852  11.241
53793W        W18954  33.997   5.336  10.448
53794W        W18955  28.748  26.491  12.862
53795W        W18956  42.995  35.254   3.556
53796W        W18957  36.447  30.585  10.836
53797W        W18958  29.024  39.362   3.366
53798W        W18959  20.653  40.303  12.975
53799W        W18960  10.954  21.178   1.774
53800W        W18961   3.686   1.688   0.287
53801W        W18962   5.635  18.058   0.194
53802W        W18963  27.366  36.469  10.765
53803W        W18964  18.812  11.329   2.222
53804W        W18965  37.715  29.618   0.328
53805W        W18966  26.021  28.598  14.238
53806W        W18967  18.280  14.613   5.129
53807W        W18968   3.934   2.011   2.460
53808W        W18969  42.921  37.805   0.008
53809W        W18970  22.815   1.569   3.883
53810W        W18971  17.772  44.812   1.070
53811W        W18972  10.686  31.470  10.785
53812W        W18973  17.116  14.418   0.320
53813W        W18974  24.484  22.144  12.935
53814W        W18975  28.945   6.815   4.029
53815W        W18976  19.629  29.521  13.827
53816W        W18977  16.797  25.470   1.229
53817W        W18978  34.385  37.589  13.539
53818W        W18979  27.129   9.392  14.889
53819W        W18980  26.526  10.716  11.806
53820W        W18981  15.814   9.895  13.602
53821W        W18982   9.785  20.700   3.539
53822W        W18983  41.883  31.912   4.183
53823W        W18984  42.457   9.140  13.804
53824W        W18985  19.130  18.079   5.068
53825W        W18986  42.327  24.686  14.537
53826W        W18987  11.236  32.418   1.471
53827W        W18988  32.326  29.968  12.536
53828W        W18989  30.284   2.175  12.080
53829W        W18990  38.856  23.670   3.803
53830W        W18991  25.278  33.389   5.079
53831W        W18992  34.081  27.388  13.018
53832W        W18993  16.817  43.346   3.599
53833W        W18994   9.465  10.290   2.843
53834W        W18995  44.732  30.089  12.962
53835W        W18996   0.908  22.271  12.443
53836W        W18997   8.857  33.867   3.437
53837W        W18998   8.226   1.511  13.113
53838W        W18999  15.723  37.016   0.355
53839W        W19000  23.484  13.632  10.740
53840W        W19001   1.023  11.178   0.010
53841W        W19002  33.954  20.932   1.390
53842W        W19003  37.030  22.976   4.117
53843W        W19004  42.259   5.604   3.686
53844W        W19005  19.200  35.315  11.109
53845W        W19006   5.143  14.216  14.430
53846W        W19007  27.194  37.542   3.628
53847W        W19008   3.268  19.993   1.762
53848W        W19009  40.772  21.755   2.249
53849W        W19010  11.114  16.552  12.885
53850W        W19011   9.216  37.395  14.916
53851W        W19012  21.305  44.207   3.742
53852W        W19013  41.831   6.833  10.401
53853W        W19014  10.232  42.561  11.159
53854W        W19015  18.275  36.028  13.377
53855W        W19016  26.098   2.346  12.804
53856W        W19017  35.105   2.363  12.693
53857W        W19018   4.361  36.475  14.876
53858W        W19019  14.074  22.039  11.288
53859W        W19020  34.099  33.941   2.984
53860W        W19021  24.310  41.510   3.639
53861W        W19022  29.882  25.545   2.090
53862W        W19023  31.635   3.779   4.773
53863W        W19024  32.916  37.380   3.410
53864W        W19025  19.638   7.693   0.343
53865W        W19026  44.147  33.573   2.154
53866W        W19027  21.029  31.381  10.721
53867W        W19028  23.108  28.187   4.281
53868W        W19029   0.821  25.518   2.196
53869W        W19030   2.996  18.567  14.484
53870W        W19031   3.683  42.538  14.470
53871W        W19032   5.464  33.572  12.786
53872W        W19033  28.139  38.022  13.903
53873W        W19034   0.728  34.806   3.883
53874W        W19035  27.103   1.064  12.402
53875W        W19036  12.677  29.617   0.938
53876W        W19037  23.055   1.728  14.772
53877W        W19038  23.611  26.933   0.252
53878W        W19039  36.044  26.952  14.743
53879W        W19040  22.311  13.256  14.327
53880W        W19041  27.643  20.023   0.036
53881W        W19042  34.803  30.540   2.484
53882W        W19043  33.641  38.726  13.930
53883W        W19044  11.825   8.458  12.562
53884W        W19045  11.637  12.798   2.237
53885W        W19046  16.124  41.491   3.242
53886W        W19047  13.316   5.721   3.067
53887W        W19048  25.617  32.906  14.772
53888W        W19049   1.194  21.161  10.626
53889W        W19050  43.727   1.947   1.076
53890W        W19051  28.676  33.010   1.097
53891W        W19052  25.180   0.483   0.755
53892W        W19053  31.290   3.302  11.198
53893W        W19054  33.930  41.990   2.850
53894W        W19055  17.973  30.515   4.581
53895W        W19056  38.781  25.228  12.040
53896W        W19057  24.385  20.750  12.196
53897W        W19058  12.316   3.347  12.063
53898W        W19059  37.566  10.257  11.090
53899W        W19060  17.343  37.177  11.084
53900W        W19061  17.508  10.051  14.311
53901W        W19062  33.159   8.925   3.065
53902W        W19063  41.227   1.488   4.304
53903W        W19064  18.248   0.158   4.183
53904W        W19065   5.262  37.298  10.408
53905W        W19066  44.300  35.369   1.975
53906W        W19067  12.670  25.978   4.590
53907W        W19068  12.039  10.673  13.160
53908W        W19069  30.678  22.493  13.064
53909W        W19070   8.214  15.163   2.492
53910W        W19071  19.809  32.711   1.101
53911W        W19072  11.913  38.271  14.951
53912W        W19073   1.933  12.560  14.248
53913W        W19074  39.544  23.642  14.757
53914W        W19075  15.116  31.854   3.656
53915W        W19076  17.131   6.147  11.987
53916W        W19077  19.198  42.761  13.395
53917W        W19078   3.818  22.407  14.087
53918W        W19079   9.922  37.103  11.543
53919W        W19080  16.626  22.030  12.863
53920W        W19081  19.570  43.005   3.174
53921W        W19082  19.184   3.761   1.904
53922W        W19083   6.210   7.222  10.716
53923W        W19084  14.768  22.440  12.994
53924W        W19085   4.579  36.442   0.889
53925W        W19086  39.941  15.450   3.593
53926W        W19087  23.645  13.006  12.082
53927W        W19088  11.698  28.432   1.027
53928W        W19089  29.773  44.983  11.572
53929W        W19090  17.589  17.738   4.612
53930W        W19091  21.240  33.990   2.951
53931W        W19092  22.196  25.177   2.143
53932W        W19093  21.315  20.879   1.856
53933W        W19094  17.144  22.071  12.851
53934W        W19095  27.485  36.082  13.407
53935W        W19096   7.749  18.049  10.727
53936W        W19097  11.106  37.085  13.130
53937W        W19098   7.968  22.624  13.773
53938W        W19099  27.015  37.585  14.879
53939W        W19100  25.326  29.354  11.747
53940W        W19101  42.892  31.573  11.021
53941W        W19102   1.285  27.666  14.205
53942W        W19103  35.839  41.869  13.397
53943W        W19104  30.157  42.336  12.808
53944W        W19105   2.241  35.909  11.273
53945W        W19106  44.400  23.042   1.678
53946W        W19107  24.975  44.267   1.172
53947W        W19108   2.313  43.861   0.248
53948W        W19109  18.598  13.243  11.509
53949W        W19110  35.854  19.625   0.834
53950W        W19111  16.889   4.722   4.887
53951W        W19112  15.519  14.194  13.564
53952W        W19113  34.539  15.429  10.350
53953W        W19114  39.425  20.526  14.525
53954W        W19115  33.396   8.256   0.321
53955W        W19116  31.883  44.927  10.774
53956W        W19117  11.895  33.198   2.354
53957W        W19118   2.894  32.373   3.660
53958W        W19119  22.286  34.210   1.428
53959W        W19120  27.588  37.761  11.270
53960W        W19121  25.104   2.535  10.886
53961W        W19122  25.137  32.804   1.870
53962W        W19123  39.304  13.040  11.986
53963W        W19124  31.622   6.297  13.127
53964W        W19125   8.890  21.801   0.307
53965W        W19126  26.421   9.683   9.835
53966W        W19127  26.402   4.198  11.314
53967W        W19128  23.697  13.670  14.904
53968W        W19129  39.977  44.975  14.480
53969W        W19130   8.156  21.702  12.486
53970W        W19131  24.909  20.770  11.058
53971W        W19132   5.825  18.528  11.848
53972W        W19133  30.359  22.910   0.853
53973W        W19134   1.038  41.098   2.702
53974W        W19135  28.071  17.814   1.310
53975W        W19136  29.723   9.784   4.580
53976W        W19137  28.427  38.631   0.502
53977W        W19138  23.103  35.163  11.100
53978W        W19139  21.744  37.913  13.911
53979W        W19140  17.647  23.075  14.689
53980W        W19141   5.213  21.621   2.911
53981W        W19142  17.609  15.066  11.131
53982W        W19143   2.823  17.286   4.575
53983W        W19144  17.771   8.767   2.797
53984W        W19145   4.960  36.132  10.763
53985W        W19146  16.172   0.967  14.895
53986W        W19147   7.974  21.436   5.146
53987W        W19148  30.006  18.691   3.000
53988W        W19149  14.201   0.508  12.090
53989W        W19150  12.562  11.664  14.380
53990W        W19151  14.096  33.485   0.705
53991W        W19152  36.609   8.968   3.215
53992W        W19153   2.440  26.237  12.013
53993W        W19154  18.978  13.763  13.360
53994W        W19155  21.743   2.553   2.098
53995W        W19156  17.914  19.160   1.770
53996W        W19157  26.062   1.359   2.872
53997W        W19158  24.212   5.976  14.251
53998W        W19159   7.854  39.911  14.898
53999W        W19160  11.201  40.287   0.848
54000W        W19161  42.694  14.459   0.933
54001W        W19162   7.750  10.324   4.552
54002W        W19163  35.443  10.188   3.117
54003W        W19164  42.518  13.331   3.695
54004W        W19165  27.065  23.331   9.921
54005W        W19166  24.636   6.330  10.459
54006W        W19167  32.035   3.097   4.732
54007W        W19168  24.035  26.693   1.326
54008W        W19169   5.841   1.414  12.898
54009W        W19170   4.950  38.332   0.978
54010W        W19171  24.984  29.414  10.484
54011W        W19172  26.214   3.021   3.760
54012W        W19173  32.869  28.724  14.354
54013W        W19174  33.822  19.613   1.371
54014W        W19175  21.513  38.820   1.831
54015W        W19176  13.791   6.679  12.251
54016W        W19177  26.577  43.030   4.299
54017W        W19178   3.289   6.391   2.125
54018W        W19179  17.249   8.125   3.189
54019W        W19180  38.307  44.347  12.704
54020W        W19181  11.460  15.166  11.554
54021W        W19182   9.855  30.434   0.503
54022W        W19183  21.814  11.711   1.413
54023W        W19184   3.435  28.194  13.895
54024W        W19185   8.577  15.149   4.585
54025W        W19186  44.413  16.101   3.854
54026W        W19187  41.987  19.186   4.096
54027W        W19188  43.524  17.256  13.434
54028W        W19189   4.941  22.004   3.144
54029W        W19190   0.173   9.321  11.452
54030W        W19191  10.288  13.267   2.496
54031W        W19192  27.767  31.037   1.729
54032W        W19193   5.856  23.973   4.388
54033W        W19194  37.884  32.528   2.289
54034W        W19195   5.448   0.505   1.853
54035W        W19196  19.532  26.620  10.640
54036W        W19197  44.104   4.712  13.044
54037W        W19198  40.042  11.368  14.328
54038W        W19199   7.773  21.242  13.358
54039W        W19200  13.677  24.400  14.340
54040W        W19201   2.312  11.336   1.638
54041W        W19202   1.402  11.786   0.837
54042W        W19203  23.252  42.515   0.322
54043W        W19204   5.671  10.704  12.044
54044W        W19205  33.999   2.759  14.885
54045W        W19206  27.844   2.699   1.883
54046W        W19207  20.267  36.642  12.792
54047W        W19208   1.441  18.855   4.814
54048W        W19209  14.843  32.141  12.374
54049W        W19210   2.066   9.743  10.723
54050W        W19211  18.877  17.570  13.812
54051W        W19212  41.265  13.768   1.287
54052W        W19213  28.111  31.625  10.703
54053W        W19214   7.725  34.523  14.882
54054W        W19215   1.786   3.260   2.382
54055W        W19216  34.071  32.294   4.058
54056W        W19217  29.107  34.326  11.471
54057W        W19218   8.892  21.544   1.293
54058W        W19219   9.164  18.561   1.217
54059W        W19220  37.275  13.608  12.970
54060W        W19221  28.657  22.675   3.637
54061W        W19222   6.809  25.683  12.884
54062W        W19223  28.861  20.528   2.224
54063W        W19224  33.365  13.727   0.301
54064W        W19225  12.078  29.981  10.668
54065W        W19226  10.104   4.267   4.606
54066W        W19227   5.649  16.146   4.089
54067W        W19228  22.739  42.366   3.839
54068W        W19229   7.303  25.652   5.002
54069W        W19230  25.053  21.397   1.290
54070W        W19231  37.717  14.838  13.878
54071W        W19232  11.847  31.980   5.066
54072W        W19233   7.117   5.850  14.397
54073W        W19234   8.006  44.353   4.170
54074W        W19235  18.206  31.879  14.903
54075W        W19236  31.074  20.768  10.711
54076W        W19237  22.704  12.561   3.957
54077W        W19238  43.344  22.681  11.569
54078W        W19239  42.419  28.683   0.750
54079W        W19240  21.162  34.742  14.774
54080W        W19241  16.687   6.731   0.632
54081W        W19242  26.900   6.513   1.936
54082W        W19243   7.701  19.271  14.100
54083W        W19244   1.787   9.758  13.618
54084W        W19245  10.808  35.014   3.689
54085W        W19246  37.671  39.553   0.887
54086W        W19247  35.386  37.145   1.637
54087W        W19248  14.094  19.079   0.178
54088W        W19249   1.953  38.055  14.642
54089W        W19250  33.006   3.725  11.520
54090W        W19251  16.824  26.710  13.153
54091W        W19252  23.253  42.909  10.578
54092W        W19253  37.006  22.350   1.271
54093W        W19254  17.880  22.147   4.544
54094W        W19255   7.465  30.662   3.180
54095W        W19256  19.299  41.136  11.731
54096W        W19257   2.985  35.155   2.240
54097W        W19258   2.735  15.244  13.651
54098W        W19259  26.862  19.567   0.417
54099W        W19260  32.223  44.529   2.503
54100W        W19261  11.329  36.784   2.870
54101W        W19262  14.249   2.636   3.012
54102W        W19263   6.772  29.692   2.323
54103W        W19264   9.168  29.697  14.441
54104W        W19265  10.071   8.912  11.044
54105W        W19266  16.120  22.869   1.709
54106W        W19267  32.494  35.835   0.388
54107W        W19268   3.366   2.851   1.705
54108W        W19269   9.469  36.540  14.974
54109W        W19270  30.060  21.963  10.290
54110W        W19271   3.810  18.017   2.434
54111W        W19272   7.231  30.581   2.718
54112W        W19273  44.391  32.811   1.434
54113W        W19274  22.536   9.138   1.187
54114W        W19275  18.720  30.188   0.567
54115W        W19276  29.554   1.690  13.420
54116W        W19277  25.201  14.733  12.108
54117W        W19278  39.018  10.577  13.400
54118W        W19279  15.800  27.083  14.176
54119W        W19280   6.113   4.553   3.879
54120W        W19281   0.512  22.249  11.309
54121W        W19282  41.918  38.302  11.210
54122W        W19283  35.654  35.920  13.870
54123W        W19284  20.382  29.622   2.423
54124W        W19285   0.077  31.648   5.263
54125W        W19286   7.150  21.084   3.249
54126W        W19287  30.408  41.453  14.390
54127W        W19288   7.171  37.513   3.075
54128W        W19289  40.963  36.778   2.309
54129W        W19290  29.461  39.563   3.661
54130W        W19291  40.668  12.923  12.470
54131W        W19292   9.850   1.267   2.715
54132W        W19293  35.280   5.560   1.876
54133W        W19294  40.749  39.468  12.483
54134W        W19295   2.141   8.328  14.167
54135W        W19296   6.738   5.347  11.532
54136W        W19297  24.487  24.104   0.874
54137W        W19298  23.083  25.958  14.518
54138W        W19299  14.621  21.768  13.697
54139W        W19300   2.722  29.752   4.059
54140W        W19301   4.923  16.574   1.761
54141W        W19302  11.210  17.062  11.234
54142W        W19303  12.677  22.945  14.712
54143W        W19304  28.624  24.269  13.853
54144W        W19305  28.706  32.882  12.136
54145W        W19306  13.355  22.258  12.943
54146W        W19307   3.111  34.630  12.175
54147W        W19308  25.488   2.930   0.310
54148W        W19309  28.718  24.637  12.475
54149W        W19310  14.519   2.393   1.915
54150W        W19311   7.150  12.840   4.467
54151W        W19312  19.930  37.076   1.350
54152W        W19313   5.500  31.527   0.776
54153W        W19314   7.194  22.098   2.240
54154W        W19315  39.784  23.288   0.401
54155W        W19316  39.235  39.733   2.480
54156W        W19317  25.945   4.886  11.915
54157W        W19318  30.557  11.523   3.265
54158W        W19319  29.966  28.072   3.985
54159W        W19320  20.502  17.004  14.287
54160W        W19321  40.647  30.437  10.721
54161W        W19322   0.806  39.340   3.779
54162W        W19323  30.840  21.881  12.564
54163W        W19324  43.954  21.620  10.868
54164W        W19325  19.613  21.920   9.484
54165W        W19326  15.768   0.316  13.010
54166W        W19327   5.453   8.922  14.327
54167W        W19328   8.032  44.944  10.687
54168W        W19329  23.452  34.463  13.328
54169W        W19330  16.920  43.449  11.471
54170W        W19331  17.543  28.292  13.298
54171W        W19332  41.399   1.133  11.547
54172W        W19333  26.411  12.686  14.332
54173W        W19334  17.362  43.429  11.951
54174W        W19335  17.108  42.529  10.009
54175W        W19336   9.838  36.725  14.335
54176W        W19337  25.491  28.574  12.000
54177W        W19338  32.889  17.240  13.003
54178W        W19339  41.012   2.008   2.317
54179W        W19340  13.789  15.026  13.889
54180W        W19341  38.988  32.519  12.076
54181W        W19342  21.093  16.244   9.953
54182W        W19343  35.260  22.157  14.272
54183W        W19344  37.021  18.116   1.641
54184W        W19345  14.856  20.824   2.380
54185W        W19346  33.447   1.456   3.444
54186W        W19347  35.983  41.595   1.241
54187W        W19348   7.329  37.518   1.403
54188W        W19349  19.823  25.682  12.506
54189W        W19350   9.478  20.179  14.011
54190W        W19351  11.088  33.616  12.197
54191W        W19352  14.005  39.426  10.226
54192W        W19353   7.656  29.948  11.101
54193W        W19354  44.343  40.955   2.944
54194W        W19355   3.590  20.469  14.494
54195W        W19356   3.041  37.361  14.311
54196W        W19357   7.496  43.274   0.731
54197W        W19358  25.719  16.081   2.095
54198W        W19359  37.915  38.383  13.377
54199W        W19360  21.635  39.084   5.241
54200W        W19361  37.522  22.474   0.030
54201W        W19362   1.297  17.945  10.229
54202W        W19363  42.368   6.594  12.189
54203W        W19364  25.451  29.188   4.057
54204W        W19365  37.381  17.767  10.813
54205W        W19366  17.746   6.250   4.860
54206W        W19367  43.015  33.235   2.690
54207W        W19368  39.413  35.801   2.767
54208W        W19369  44.118   0.460  13.850
54209W        W19370  19.001  33.977   2.670
54210W        W19371  29.642  41.453  12.650
54211W        W19372  28.061  40.387   3.227
54212W        W19373   3.910  25.112  11.589
54213W        W19374  12.768   1.965  10.361
54214W        W19375  24.952  19.643   1.371
54215W        W19376  21.509   0.644  12.861
54216W        W19377  36.764  33.935  14.963
54217W        W19378  30.137   5.783   4.831
54218W        W19379  14.652  16.545  10.374
54219W        W19380   4.198  38.042   3.470
54220W        W19381  14.633  29.815  11.583
54221W        W19382  15.185  16.864  11.936
54222W        W19383  11.362  19.587   2.763
54223W        W19384  10.194   1.306   2.285
54224W        W19385   8.813  36.648   4.565
54225W        W19386  39.122  27.236  14.302
54226W        W19387   2.573   7.837   1.421
54227W        W19388   3.334  23.218   4.016
54228W        W19389  40.299  33.892  11.454
54229W        W19390   4.361  15.694  10.333
54230W        W19391  15.654   2.698   1.889
54231W        W19392   9.845  22.199  14.044
54232W        W19393   0.117  34.561  11.659
54233W        W19394  34.576   2.164   0.168
54234W        W19395  31.624  25.343  14.933
54235W        W19396  19.045  29.358   0.797
54236W        W19397  31.632  18.739   1.351
54237W        W19398  33.961   4.398  11.046
54238W        W19399  26.275  38.344  12.378
54239W        W19400  27.756  42.656   1.352
54240W        W19401   9.899  35.960   3.879
54241W        W19402  32.927  18.989   4.351
54242W        W19403   0.720  17.309  13.943
54243W        W19404  30.524  14.063   4.199
54244W        W19405  16.448  13.249  12.726
54245W        W19406  18.625  17.188  14.041
54246W        W19407  21.222   0.686  13.509
54247W        W19408  17.051  17.091   0.399
54248W        W19409  10.648  31.326   0.704
54249W        W19410  15.440   0.310  14.958
54250W        W19411  26.579   2.872   4.637
54251W        W19412   1.869  16.054  11.942
54252W        W19413  12.523  30.824   3.991
54253W        W19414  23.744  29.339  12.520
54254W        W19415  44.987   5.627  10.937
54255W        W19416   2.899  30.612  13.361
54256W        W19417  44.595   3.000   3.244
54257W        W19418  18.319   8.500   2.373
54258W        W19419  31.955  11.662  10.202
54259W        W19420  44.930   8.668  11.176
54260W        W19421   3.223  24.627  12.998
54261W        W19422  23.918   2.234   0.286
54262W        W19423  29.514  18.714   3.883
54263W        W19424  28.994  32.153  13.361
54264W        W19425  27.746  23.130   3.220
54265W        W19426  19.775  21.235  10.648
54266W        W19427  29.279  24.641  11.372
54267W        W19428  41.553  29.796  11.193
54268W        W19429  11.544  25.300  14.285
54269W        W19430   6.775  40.569   1.365
54270W        W19431   0.585   5.173   2.793
54271W        W19432  11.862  14.359  13.886
54272W        W19433  42.839  30.124  12.552
54273W        W19434  27.787  34.478   3.345
54274W        W19435  20.292  40.033  11.519
54275W        W19436  42.068  40.042  11.932
54276W        W19437  39.580  33.472   2.801
54277W        W19438   9.911  44.473  11.539
54278W        W19439  24.605  20.661   0.948
54279W        W19440  32.483  36.715  14.794
54280W        W19441  39.889  16.561  13.471
54281W        W19442   9.561  32.955   3.693
54282W        W19443   0.961  16.743   1.944
54283W        W19444  19.210   9.754   1.638
54284W        W19445   6.127  34.569  11.297
54285W        W19446  13.684  39.090   3.765
54286W        W19447  17.494   5.795  13.867
54287W        W19448  40.824   6.834  10.709
54288W        W19449  38.542  43.791  11.529
54289W        W19450  39.562  24.139  14.893
54290W        W19451   9.675  14.067  10.699
54291W        W19452  16.305  29.544   4.106
54292W        W19453  21.108  28.938  11.485
54293W        W19454   8.151  18.215   3.696
54294W        W19455   2.777  42.484   3.705
54295W        W19456   9.799  16.220   1.476
54296W        W19457  23.617   7.311  10.632
54297W        W19458  22.287  32.571   0.967
54298W        W19459   8.794  23.076  13.811
54299W        W19460  37.424  17.758   1.758
54300W        W19461  40.475  24.462  14.434
54301W        W19462  33.124  18.326  10.722
54302W        W19463  12.881  35.338   1.613
54303W        W19464   6.925  35.862   4.649
54304W        W19465  26.705   6.808   0.038
54305W        W19466   3.873  32.424   1.721
54306W        W19467  26.934   8.777  11.503
54307W        W19468  20.833  13.341  12.444
54308W        W19469  43.718  34.991   2.563
54309W        W19470  36.489  30.016   0.500
54310W        W19471  34.110  12.767   1.796
54311W        W19472   1.954  28.921   2.566
54312W        W19473   0.138  18.440   2.373
54313W        W19474  12.666  29.192   1.335
54314W        W19475   7.369   2.321   3.095
54315W        W19476  25.231  41.706   1.292
54316W        W19477  30.437  37.916  13.756
54317W        W19478  39.552  16.113  11.211
54318W        W19479  35.771   6.831   2.053
54319W        W19480  38.957  24.003   0.718
54320W        W19481  22.211  27.034  11.920
54321W        W19482  13.678  15.795   1.409
54322W        W19483   9.851  14.398  12.810
54323W        W19484  29.813   1.833   1.896
54324W        W19485  15.862  44.556  12.094
54325W        W19486  29.852  33.617  13.843
54326W        W19487  20.959  18.505  13.914
54327W        W19488  14.707  19.108  11.331
54328W        W19489  37.938  39.915  14.448
54329W        W19490  16.126  44.311   2.219
54330W        W19491  27.926  20.427   2.206
54331W        W19492   3.262   0.890   1.440
54332W        W19493  29.475   1.492   2.085
54333W        W19494  22.442  42.763   3.655
54334W        W19495  43.036  40.585  13.385
54335W        W19496  34.982   3.870  11.049
54336W        W19497  16.998  24.175   1.594
54337W        W19498  41.905  28.174   1.172
54338W        W19499  33.014  34.226   0.005
54339W        W19500  23.592  44.795  12.059
54340W        W19501  40.470   1.341   3.304
54341W        W19502  15.210  15.591  13.936
54342W        W19503  16.562  18.045   3.411
54343W        W19504  32.860  20.110   4.745
54344W        W19505  18.788  15.348   5.026
54345W        W19506  13.324  20.808   3.342
54346W        W19507  31.435  25.516   5.426
54347W        W19508  31.179  20.779  13.121
54348W        W19509  40.487  38.750   0.374
54349W        W19510  24.617  16.020  12.003
54350W        W19511   7.597  21.712  13.862
54351W        W19512  17.041  37.842   3.812
54352W        W19513  44.225  33.963  14.789
54353W        W19514  36.672  21.970   1.410
54354W        W19515  11.529   0.460   3.643
54355W        W19516  25.944  19.709  11.079
54356W        W19517  13.896  29.160   0.926
54357W        W19518   3.271  42.846  12.015
54358W        W19519  27.997  23.516   0.787
54359W        W19520   3.165  12.090   2.431
54360W        W19521   2.208  17.895   1.235
54361W        W19522  19.040   1.959  11.766
54362W        W19523  17.212  42.538  10.975
54363W        W19524  26.418   4.360  10.323
54364W        W19525  37.237   8.622   2.712
54365W        W19526   8.424   4.449   0.610
54366W        W19527   1.694  23.703   1.526
54367W        W19528  11.300  11.317  13.306
54368W        W19529  11.205  12.585  12.920
54369W        W19530  22.453  34.984  12.786
54370W        W19531   0.703  30.908  10.731
54371W        W19532   2.816  32.035   3.272
54372W        W19533  26.503   4.656   4.047
54373W        W19534  40.899  17.799   3.710
54374W        W19535  37.322  14.354   2.154
54375W        W19536   4.878   1.293   0.823
54376W        W19537  36.049  37.444  10.267
54377W        W19538  11.422  10.179   3.171
54378W        W19539  17.039  28.227   4.963
54379W        W19540  12.329  43.959  10.621
54380W        W19541  44.383  19.154   2.315
54381W        W19542  33.314  13.554  11.338
54382W        W19543   2.912  40.927  13.359
54383W        W19544   9.658  11.352  14.875
54384W        W19545   9.891   1.010  11.405
54385W        W19546   3.327  26.558   1.911
54386W        W19547  10.193  24.787   2.854
54387W        W19548   7.839   3.314   5.020
54388W        W19549  39.155  15.441   2.197
54389W        W19550  15.039  21.228   5.096
54390W        W19551  41.804  35.514  13.762
54391W        W19552  36.418  24.015   1.355
54392W        W19553  20.002  23.131   0.535
54393W        W19554  39.839  32.644  14.320
54394W        W19555  19.005  21.127   3.634
54395W        W19556   3.297   1.028  12.035
54396W        W19557  20.612  12.383   1.672
54397W        W19558   7.935  39.475  12.845
54398W        W19559  43.606  42.895  14.359
54399W        W19560  44.352  34.545  12.555
54400W        W19561  23.177  39.645  12.301
54401W        W19562  35.553   6.243   2.800
54402W        W19563  16.545  27.445  12.585
54403W        W19564   5.160  42.379   0.228
54404W        W19565  22.253   7.414  10.547
54405W        W19566  11.811  16.618   0.504
54406W        W19567   8.802  15.230  14.445
54407W        W19568  29.561   9.141  13.224
54408W        W19569  31.608   9.964  11.069
54409W        W19570  28.407  41.513   4.086
54410W        W19571  17.136   7.274   1.266
54411W        W19572   3.017  36.404  13.480
54412W        W19573  23.907  11.130  11.700
54413W        W19574  43.865  29.009  13.300
54414W        W19575  42.476  23.042   2.652
54415W        W19576   6.005  23.292   3.687
54416W        W19577   6.672  11.278  14.383
54417W        W19578  20.049   5.962  10.703
54418W        W19579  38.447  42.332  12.889
54419W        W19580  43.006  19.182   4.228
54420W        W19581  41.878  34.382  13.564
54421W        W19582  13.341  44.497  14.754
54422W        W19583  40.556  24.562   0.315
54423W        W19584   0.102  41.160  11.561
54424W        W19585  11.749  15.214  14.386
54425W        W19586  22.685  35.669   0.502
54426W        W19587  43.408  21.636  11.626
54427W        W19588  43.358  18.302  13.348
54428W        W19589  43.938  38.764  14.358
54429W        W19590  20.590   2.383   1.290
54430W        W19591  33.436  16.242  14.325
54431W        W19592  19.072  13.388  10.787
54432W        W19593   5.108   2.318   4.797
54433W        W19594  31.246  21.798  14.253
54434W        W19595   0.430  35.416  11.494
54435W        W19596  41.035  36.503  10.984
54436W        W19597  35.591  10.931   0.473
54437W        W19598  24.290   7.395   2.713
54438W        W19599  25.858  13.067   3.135
54439W        W19600  14.756  44.279  12.903
54440W        W19601  38.411  29.937   1.302
54441W        W19602  39.645  14.007  14.366
54442W        W19603  32.514  18.289  11.183
54443W        W19604  30.569   2.015   3.680
54444W        W19605  41.086  23.334  12.161
54445W        W19606  42.475  10.884   4.295
54446W        W19607   0.455  31.618  13.289
54447W        W19608   7.813  32.481   3.105
54448W        W19609  43.776  26.147  12.850
54449W        W19610   7.722  30.032  13.597
54450W        W19611  31.459  44.648  13.107
54451W        W19612  22.240  33.305  12.514
54452W        W19613  38.548  32.159  10.794
54453W        W19614  35.439  32.642   2.704
54454W        W19615  26.044   2.781  11.651
54455W        W19616   1.406  27.227  10.672
54456W        W19617  13.762  14.427   2.322
54457W        W19618   9.416   4.285  13.083
54458W        W19619   8.791   4.229   1.967
54459W        W19620  34.490   3.353   4.876
54460W        W19621  44.728  11.277  13.504
54461W        W19622  42.126  22.740  12.027
54462W        W19623   1.740  31.942  13.605
54463W        W19624  12.810  33.728  14.844
54464W        W19625  17.922  17.796   0.671
54465W        W19626  43.881   9.657  13.870
54466W        W19627  37.786  19.258   4.308
54467W        W19628  22.292  30.248   0.907
54468W        W19629  17.169   2.391  13.297
54469W        W19630  33.668  33.798  14.087
54470W        W19631  27.048  31.762  14.733
54471W        W19632  39.790  28.124  12.636
54472W        W19633  27.219  20.810  11.030
54473W        W19634   2.174  41.256  14.297
54474W        W19635  18.495  15.204  13.904
54475W        W19636   1.972   5.969  11.075
54476W        W19637  15.028  27.994   2.709
54477W        W19638  23.451  27.118   2.098
54478W        W19639   9.675   2.255   3.233
54479W        W19640  43.729   4.373  12.425
54480W        W19641  30.000  14.046   2.415
54481W        W19642   3.282  21.415  13.459
54482W        W19643   1.337  20.428  13.437
54483W        W19644   6.667  40.065   2.833
54484W        W19645  24.196  16.242  10.663
54485W        W19646  14.281  14.670   0.699
54486W        W19647  13.468  30.308   1.304
54487W        W19648  19.486   3.917   1.176
54488W        W19649  28.122  26.209   9.930
54489W        W19650   4.598  11.393  14.561
54490W        W19651  20.226  16.728   3.191
54491W        W19652  38.067  33.053   3.173
54492W        W19653  11.830  27.819  11.329
54493W        W19654  37.717  35.989  13.151
54494W        W19655  25.093  41.089   3.596
54495W        W19656  15.672  38.978   0.862
54496W        W19657  21.895   6.145  12.585
54497W        W19658   3.500  30.644   1.702
54498W        W19659  26.465  26.776   4.574
54499W        W19660  38.352   1.271   1.016
54500W        W19661  21.706  10.805  11.195
54501W        W19662  41.603  44.789   0.595
54502W        W19663  41.477   2.210  14.911
54503W        W19664  36.008  42.175   4.072
54504W        W19665  15.814  35.776   4.350
54505W        W19666   0.289  26.610  11.646
54506W        W19667  32.126  12.642  13.394
54507W        W19668  22.240   4.654  13.979
54508W        W19669  20.317  11.193  14.754
54509W        W19670  32.556   7.131   0.708
54510W        W19671  43.103   0.911  12.629
54511W        W19672   2.759  29.111   0.337
54512W        W19673   6.011  32.414  12.480
54513W        W19674  22.407  35.456   3.262
54514W        W19675  29.412  11.441  12.866
54515W        W19676  35.904  38.261  14.963
54516W        W19677  25.484  36.041  14.378
54517W        W19678   9.378  10.682  13.410
54518W        W19679  32.122   6.127  13.405
54519W        W19680  18.142  18.636  13.494
54520W        W19681  16.548  35.157   1.215
54521W        W19682   0.019   4.553  12.922
54522W        W19683   3.058   8.643  14.357
54523W        W19684  14.459  21.662  12.328
54524W        W19685   2.442   1.240  10.408
54525W        W19686  16.337  38.134  12.563
54526W        W19687  32.903  33.319  14.038
54527W        W19688   9.865  17.581  12.052
54528W        W19689  33.374  37.341   3.073
54529W        W19690  25.203  19.125   4.138
54530W        W19691  24.432  36.665   4.086
54531W        W19692   1.552  23.767   3.277
54532W        W19693  19.350  33.659   4.075
54533W        W19694   3.911   6.925  10.369
54534W        W19695  15.724  16.524   4.246
54535W        W19696  15.349  25.141   0.974
54536W        W19697  40.763  23.436  12.621
54537W        W19698  41.782   3.758  10.918
54538W        W19699  37.965  17.556   1.986
54539W        W19700  26.666   0.850   3.302
54540W        W19701  16.287  17.003  14.952
54541W        W19702  25.056  13.995   3.947
54542W        W19703  19.338  44.304  11.848
54543W        W19704  43.137   5.223   1.885
54544W        W19705  35.668  41.665  11.070
54545W        W19706  14.336   7.391   2.249
54546W        W19707  34.543  14.854   3.091
54547W        W19708  28.390   4.016  12.630
54548W        W19709  37.508   5.822  10.703
54549W        W19710   8.897  11.100   2.292
54550W        W19711   3.802  17.780  14.130
54551W        W19712  36.986  28.097   1.913
54552W        W19713   0.820  42.757   1.644
54553W        W19714  21.022  43.225  12.500
54554W        W19715  24.550   7.702  13.940
54555W        W19716   3.748   6.086  13.476
54556W        W19717   4.725  16.410  14.043
54557W        W19718  22.958  38.327   2.410
54558W        W19719   4.721  32.629   0.995
54559W        W19720  19.333  31.912   0.997
54560W        W19721  40.310  11.126  11.775
54561W        W19722  15.336  31.075   4.266
54562W        W19723  25.978  35.980  14.221
54563W        W19724   1.035   9.888   1.822
54564W        W19725  19.399  44.054   9.729
54565W        W19726   8.969  39.824   3.596
54566W        W19727  22.708  42.747   4.651
54567W        W19728  34.497   5.199  12.927
54568W        W19729   0.493  41.885  12.446
54569W        W19730  41.054   2.728   1.830
54570W        W19731  30.141  10.390   0.378
54571W        W19732  32.547  25.463   2.691
54572W        W19733  22.622  21.564  12.843
54573W        W19734  43.167  14.705  12.310
54574W        W19735   0.860  42.270   1.394
54575W        W19736  32.461  28.532  10.648
54576W        W19737   5.225  40.872   1.853
54577W        W19738  17.308  34.338   1.968
54578W        W19739   5.117  33.616   2.466
54579W        W19740   3.641  24.989   4.039
54580W        W19741  11.486  17.105   3.596
54581W        W19742  16.985  32.604   1.886
54582W        W19743  41.638  33.172  11.541
54583W        W19744  23.083  42.523  14.799
54584W        W19745   9.205  40.500  10.551
54585W        W19746  17.416  23.099  14.048
54586W        W19747  29.915   1.422   3.319
54587W        W19748  13.529  13.734   0.870
54588W        W19749  12.713  35.568  13.284
54589W        W19750   2.676  35.656  11.087
54590W        W19751  28.118   8.244  14.730
54591W        W19752  14.353   2.083   0.321
54592W        W19753  30.190  20.518  12.840
54593W        W19754   5.567  28.123  10.729
54594W        W19755  41.258  17.526  10.997
54595W        W19756  41.840   1.856  14.610
54596W        W19757  38.496  31.622   2.151
54597W        W19758   6.709  41.406   3.352
54598W        W19759  41.876  39.246  10.164
54599W        W19760   9.306  17.594  13.636
54600W        W19761  36.179  24.132   0.807
54601W        W19762  41.203  18.847  13.567
54602W        W19763  44.590   5.560   1.587
54603W        W19764  12.223  25.799  10.407
54604W        W19765  22.625   6.165  10.951
54605W        W19766  34.131  22.317   4.100
54606W        W19767  29.640  36.875   1.794
54607W        W19768  27.055  28.700  12.493
54608W        W19769  14.861  44.476  11.139
54609W        W19770  38.347  22.150   0.312
54610W        W19771  13.117   2.182  11.623
54611W        W19772  15.679   4.841   3.730
54612W        W19773  30.759   0.225   1.199
54613W        W19774  25.571  14.078   0.893
54614W        W19775  19.333  22.268   4.373
54615W        W19776  23.061   9.766  12.188
54616W        W19777  40.920  12.139  14.278
54617W        W19778   5.223   0.266   2.292
54618W        W19779  28.950  28.216  11.955
54619W        W19780  16.613  35.328  13.744
54620W        W19781  35.506  24.420   3.787
54621W        W19782   6.891  32.933   3.169
54622W        W19783   5.446  30.558   4.116
54623W        W19784  35.239  37.970   4.443
54624W        W19785  38.275   9.706  12.521
54625W        W19786  35.865  18.629  13.648
54626W        W19787  31.636   5.904  13.493
54627W        W19788  40.099  28.493   2.954
54628W        W19789  22.570  42.482  12.036
54629W        W19790  19.653  17.062  12.470
54630W        W19791  16.634  31.067  12.179
54631W        W19792  16.668  33.684  14.485
54632W        W19793   5.164  23.235   4.184
54633W        W19794  25.169  41.515   0.258
54634W        W19795  11.814  26.538   0.532
54635W        W19796   7.209  18.637  12.898
54636W        W19797  12.699  21.476  14.754
54637W        W19798  25.174   8.806   4.083
54638W        W19799   2.430  37.852   2.225
54639W        W19800  12.833  32.100   3.180
54640W        W19801  20.570  29.397  13.406
54641W        W19802   4.645  29.608   4.253
54642W        W19803  12.102   9.457  11.546
54643W        W19804   7.767  11.912  11.234
54644W        W19805   6.931  24.927  12.954
54645W        W19806  31.444  29.453   4.165
54646W        W19807  17.252   6.929   4.599
54647W        W19808  27.684  35.570  12.527
54648W        W19809  28.538  33.122   1.618
54649W        W19810  37.876  42.034  14.116
54650W        W19811  24.058  32.040   0.874
54651W        W19812  23.169  26.586   1.866
54652W        W19813   4.278  41.697   2.292
54653W        W19814  39.401  24.743   4.282
54654W        W19815  12.426  11.737   3.716
54655W        W19816  18.469  13.823  13.422
54656W        W19817  21.388  32.664   0.045
54657W        W19818  14.205  18.687  11.919
54658W        W19819   6.307  32.542   3.891
54659W        W19820  34.108   1.965  13.043
54660W        W19821  43.630   0.943  12.738
54661W        W19822  17.153  24.857  11.042
54662W        W19823  13.118  31.945   4.537
54663W        W19824  27.430  17.922   3.525
54664W        W19825   3.801  21.055   0.422
54665W        W19826   2.003  12.385   1.734
54666W        W19827  23.544  15.914   2.566
54667W        W19828  34.463  41.446   0.777
54668W        W19829  41.597   7.130  12.104
54669W        W19830  20.488  41.709  14.535
54670W        W19831  44.211  40.968  14.265
54671W        W19832  44.865  38.418   2.741
54672W        W19833  38.390  20.003   3.375
54673W        W19834  37.818  34.922   1.313
54674W        W19835  15.391  36.229  14.995
54675W        W19836  24.467  17.182  10.841
54676W        W19837   4.366  18.095   0.731
54677W        W19838  40.989  17.660  13.732
54678W        W19839  15.204  26.454  11.403
54679W        W19840   5.776  17.544   4.146
54680W        W19841  27.192  40.268   3.717
54681W        W19842   7.430  11.633  10.956
54682W        W19843  26.985  23.224  11.987
54683W        W19844   2.431   4.399   4.006
54684W        W19845  11.641  18.152   0.448
54685W        W19846   9.463  15.758   4.169
54686W        W19847   6.759   0.667   3.409
54687W        W19848  22.204  24.109   1.127
54688W        W19849  32.583   7.165  12.787
54689W        W19850   1.013  14.841  10.766
54690W        W19851   3.356   3.166   0.408
54691W        W19852  35.630   4.871  13.459
54692W        W19853   2.332  12.339   2.790
54693W        W19854  33.923  16.330  14.098
54694W        W19855   9.566  24.227  14.260
54695W        W19856  30.264   3.902   4.625
54696W        W19857   1.758  28.060  11.149
54697W        W19858   4.164  44.493  11.562
54698W        W19859   6.210  36.195   0.413
54699W        W19860   3.306  21.028  13.063
54700W        W19861  27.964  28.296  11.118
54701W        W19862   4.295  38.851   2.225
54702W        W19863  35.142   4.828   3.240
54703W        W19864  42.135  21.091  14.825
54704W        W19865  43.844  21.676  13.421
54705W        W19866   5.196  24.698  12.981
54706W        W19867  18.125  32.657   2.696
54707W        W19868  15.880   5.315  12.146
54708W        W19869  13.652  30.953  14.745
54709W        W19870  25.771   8.525  11.194
54710W        W19871   1.462   9.309   2.723
54711W        W19872   2.606  18.171  10.110
54712W        W19873  35.913   7.246  11.002
54713W        W19874  33.481  17.309   1.880
54714W        W19875   6.213   0.224   1.022
54715W        W19876  22.851  13.823  13.575
54716W        W19877   0.754  10.828  11.944
54717W        W19878  40.080   1.802   1.391
54718W        W19879  23.949   5.192  11.111
54719W        W19880  35.522  23.243   0.716
54720W        W19881  17.082  29.870   1.323
54721W        W19882  27.060   7.418   1.658
54722W        W19883  16.799   2.986   2.243
54723W        W19884  23.389  12.186  10.862
54724W        W19885  20.049  26.651  11.174
54725W        W19886  21.284   6.583  11.591
54726W        W19887  28.095   9.112   2.757
54727W        W19888  44.244  41.544   4.439
54728W        W19889  43.014  42.763  10.715
54729W        W19890  34.575  44.881  14.014
54730W        W19891   7.786  27.960  11.731
54731W        W19892  41.999  21.902   2.322
54732W        W19893  10.066   9.753  14.234
54733W        W19894  25.016   3.815  14.664
54734W        W19895  20.539  39.831   4.511
54735W        W19896   7.205  10.249   4.403
54736W        W19897  39.280   8.704  11.051
54737W        W19898  29.426  30.839   4.086
54738W        W19899  11.748  41.000  12.812
54739W        W19900  18.724  17.618   1.117
54740W        W19901  28.356  34.507   3.262
54741W        W19902  12.110  23.046   2.672
54742W        W19903  14.545   6.743   4.272
54743W        W19904  42.321  18.881  13.880
54744W        W19905  39.337   6.883  13.652
54745W        W19906  19.617   9.721  11.902
54746W        W19907  23.260  41.382   2.820
54747W        W19908   6.825   6.911   0.792
54748W        W19909  31.173  20.212   5.001
54749W        W19910  44.924   4.479   1.319
54750W        W19911   7.986  15.607   5.128
54751W        W19912  18.800  23.486  12.448
54752W        W19913  36.607  20.703  12.379
54753W        W19914  13.618   5.147  10.848
54754W        W19915   4.294  24.316  14.940
54755W        W19916  17.364  34.644  14.818
54756W        W19917  41.862  25.451  14.283
54757W        W19918  26.120  13.354   1.687
54758W        W19919  36.764  24.314  12.806
54759W        W19920   7.819  34.399  10.645
54760W        W19921   5.987   6.184  11.627
54761W        W19922   5.222   7.318   3.850
54762W        W19923  16.132   7.759   4.807
54763W        W19924  38.496  26.283  12.395
54764W        W19925  25.161  33.585   0.344
54765W        W19926  20.646  40.210   4.172
54766W        W19927  12.608  37.477   5.085
54767W        W19928  34.330   3.808   2.674
54768W        W19929  14.571  23.905   3.208
54769W        W19930   2.492  11.195   1.168
54770W        W19931   5.337   4.704   2.352
54771W        W19932   2.408  16.851  12.847
54772W        W19933   1.889   4.302   0.328
54773W        W19934   6.329  44.503   3.269
54774W        W19935  18.982   4.698   3.212
54775W        W19936  42.355  42.863   4.457
54776W        W19937  36.998  42.652  10.158
54777W        W19938  21.057   9.847  13.290
54778W        W19939  28.882   1.385  13.767
54779W        W19940   8.611  10.121  11.913
54780W        W19941  43.399  32.321  12.775
54781W        W19942   3.747  44.329   1.732
54782W        W19943  21.793  25.579   4.239
54783W        W19944  14.136   4.730  12.965
54784W        W19945  29.686  25.826  11.093
54785W        W19946  43.402  40.953  11.179
54786W        W19947   3.314  24.300   2.545
54787W        W19948  17.111  32.641  14.956
54788W        W19949  28.148   1.300  13.010
54789W        W19950  37.646  43.411  13.454
54790W        W19951  20.132  35.054   4.504
54791W        W19952  39.341   4.013  12.973
54792W        W19953  40.968   9.006  10.826
54793W        W19954   5.799  28.566   4.567
54794W        W19955   4.555  40.548  11.068
54795W        W19956   1.287  17.409  11.047
54796W        W19957  24.136  25.032  13.536
54797W        W19958  35.621  22.057   1.640
54798W        W19959  22.128  19.249   3.738
54799W        W19960  14.902  34.659  10.215
54800W        W19961  10.223   6.327  13.316
54801W        W19962  42.960  20.295   2.615
54802W        W19963   4.507   1.019   5.122
54803W        W19964  20.470  22.491   3.211
54804W        W19965  33.204  35.885   4.526
54805W        W19966   6.980  41.343   0.808
54806W        W19967  22.742  27.247  12.342
54807W        W19968  30.638  26.513   2.332
54808W        W19969  35.224  30.216  13.302
54809W        W19970  17.576  34.881   3.665
54810W        W19971  37.551  18.004   3.081
54811W        W19972  36.494  27.234  10.722
54812W        W19973  15.147  18.844   0.825
54813W        W19974  38.392  22.910  11.588
54814W        W19975   2.157  44.698  12.436
54815W        W19976  31.901  17.614  12.528
54816W        W19977   7.343  32.691   3.152
54817W        W19978   1.973  44.001   2.988
54818W        W19979  20.667   3.937   0.286
54819W        W19980  15.535  19.526  13.504
54820W        W19981  32.008  25.622  13.857
54821W        W19982   0.214  22.951   2.772
54822W        W19983  14.664  22.859   0.127
54823W        W19984  18.629   3.903  11.940
54824W        W19985  44.092  25.702  12.938
54825W        W19986  31.132  23.688  11.804
54826W        W19987   6.410   8.340   1.712
54827W        W19988  30.416  39.311  10.988
54828W        W19989  42.391  24.901   0.890
54829W        W19990  17.421   3.123  12.557
54830W        W19991   2.452   9.216   4.829
54831W        W19992  23.135  17.804  13.415
54832W        W19993   3.170  35.034   1.783
54833W        W19994  32.645  18.288  13.920
54834W        W19995  34.105  21.984  14.831
54835W        W19996  36.882   7.894   0.838
54836W        W19997  30.230  15.322   4.726
54837W        W19998  24.607  22.448   3.029
54838W        W19999  10.166  37.915   3.589
54839W        W20000  21.503  42.833   4.117
54840W        W20001  41.767  33.488  12.870
54841W        W20002   4.940  10.693   3.456
54842W        W20003   0.041  30.302  13.378
54843W        W20004  33.930  32.667   0.623
54844W        W20005  30.457  16.349   3.778
54845W        W20006  22.722   7.323  11.222
54846W        W20007  25.428   7.713  13.929
54847W        W20008  24.047  43.717  11.272
54848W        W20009  43.893  12.341   2.139
54849W        W20010  26.661  23.244   2.340
54850W        W20011  12.236  31.421  12.984
54851W        W20012  42.962  14.140  13.802
54852W        W20013  33.049  19.136  14.582
54853W        W20014  28.283   0.494   0.327
54854W        W20015  32.416  16.199   4.688
54855W        W20016  22.194  19.035  11.638
54856W        W20017  42.059   8.436  11.036
54857W        W20018   8.861  11.756  10.784
54858W        W20019  32.545   9.671   1.390
54859W        W20020   2.792  34.971   4.812
54860W        W20021  13.418  10.549   3.654
54861W        W20022  39.574  13.133  11.536
54862W        W20023  42.011  10.289   3.262
54863W        W20024  25.960  20.773   0.259
54864W        W20025  35.744  33.441   4.586
54865W        W20026  37.552  26.573  10.790
54866W        W20027  11.795  13.663  14.300
54867W        W20028  35.678  23.528   2.766
54868W        W20029   7.147  18.305   2.783
54869W        W20030  15.708  12.251   0.152
54870W        W20031  18.706   6.288   0.717
54871W        W20032  15.297  23.585  10.469
54872W        W20033  37.661  24.613   3.728
54873W        W20034   2.729  33.432  11.199
54874W        W20035  36.913  26.463   0.513
54875W        W20036  39.251  31.144  13.990
54876W        W20037   9.916  26.794  11.038
54877W        W20038   2.348  33.924  12.029
54878W        W20039  14.282  41.919   2.404
54879W        W20040  21.124   1.541   1.573
54880W        W20041   6.468  42.511   0.407
54881W        W20042  30.600  21.588  12.940
54882W        W20043   9.245  20.437  14.402
54883W        W20044  24.807  30.559   4.287
54884W        W20045  26.851  35.896   0.754
54885W        W20046  25.489  33.582   2.796
54886W        W20047  10.986  24.877   3.301
54887W        W20048  34.804  18.690   4.685
54888W        W20049  28.196  17.751   3.309
54889W        W20050  21.536  42.765  12.374
54890W        W20051  23.073  26.507  12.065
54891W        W20052   4.602  41.016   0.338
54892W        W20053  11.546  36.234  13.021
54893W        W20054  21.183  37.116   1.038
54894W        W20055   0.775  20.927   1.659
54895W        W20056  41.262   0.278  14.007
54896W        W20057  42.490   8.354  13.473
54897W        W20058  43.527  15.316  12.682
54898W        W20059  20.444   5.115  12.994
54899W        W20060  23.040   9.383  11.488
54900W        W20061  17.671   6.819   2.506
54901W        W20062  12.046  27.676  10.746
54902W        W20063  32.378  16.626   0.979
54903W        W20064  36.456  40.417   4.637
54904W        W20065  33.861  32.921  11.073
54905W        W20066  20.805  29.846   5.059
54906W        W20067  36.911  42.656   0.490
54907W        W20068   0.870  19.680  10.330
54908W        W20069   7.038  16.597   1.912
54909W        W20070  11.914  14.337  13.070
54910W        W20071  38.427  15.728   3.902
54911W        W20072  13.360   1.427   3.765
54912W        W20073  18.986  20.174  11.543
54913W        W20074  18.091   9.804  11.095
54914W        W20075  15.725  44.707   1.319
54915W        W20076   3.773   9.326  10.515
54916W        W20077  22.108  18.859  13.299
54917W        W20078   8.731  43.909   3.893
54918W        W20079  42.549  23.087  13.464
54919W        W20080  29.647  36.857   3.974
54920W        W20081   4.923  20.522  11.578
54921W        W20082  34.975   8.142  13.512
54922W        W20083   6.331   2.835  10.471
54923W        W20084  21.251  13.769  11.163
54924W        W20085   6.937  30.582   0.687
54925W        W20086  42.357   1.055  10.702
54926W        W20087  44.640  24.994  11.252
54927W        W20088  44.714  38.988   1.909
54928W        W20089  36.638  35.068   0.930
54929W        W20090  22.755  28.764   2.837
54930W        W20091  32.919  35.502   1.322
54931W        W20092  30.050  30.593   0.791
54932W        W20093  31.478  37.922   0.213
54933W        W20094   7.483  41.551   0.922
54934W        W20095  13.662  36.816  12.004
54935W        W20096  31.748   1.450   3.258
54936W        W20097  21.981  22.997   1.339
54937W        W20098  44.453  29.429  11.545
54938W        W20099  22.894  40.764   1.145
54939W        W20100   9.906   7.704   4.089
54940W        W20101  11.233  26.570  12.521
54941W        W20102  43.763   3.380   3.155
54942W        W20103  41.470  27.127   2.161
54943W        W20104  25.166  42.075  10.295
54944W        W20105  41.524  16.727   0.644
54945W        W20106  20.750  22.537   5.656
54946W        W20107  40.539  37.952   5.029
54947W        W20108  16.701  36.275   0.466
54948W        W20109   5.972  39.487  10.899
54949W        W20110  28.398   1.273  11.399
54950W        W20111  30.929  20.720   5.016
54951W        W20112  36.817   8.453  11.141
54952W        W20113  17.824  37.388  11.580
54953W        W20114  42.005  39.929   4.540
54954W        W20115   5.684  39.103   2.775
54955W        W20116  41.071  17.159  13.501
54956W        W20117  38.802  33.869   5.065
54957W        W20118  18.215  24.124   2.393
54958W        W20119   7.888  17.770   3.684
54959W        W20120  16.658  25.905  12.956
54960W        W20121  19.698  41.744  14.948
54961W        W20122  15.668  30.298   4.047
54962W        W20123  31.107   5.828   2.702
54963W        W20124  21.604  31.945  14.007
54964W        W20125  37.143  42.707  11.951
54965W        W20126   2.754   5.432   1.322
54966W        W20127  17.588  23.322  13.329
54967W        W20128  15.745  37.000   2.161
54968W        W20129   7.475  20.767   2.379
54969W        W20130  26.362  43.937   0.152
54970W        W20131  24.523   4.856  11.998
54971W        W20132  23.158  18.553   2.270
54972W        W20133   5.774  43.818  14.126
54973W        W20134  42.427  31.883  12.592
54974W        W20135  28.707  31.854   0.009
54975W        W20136  18.216  32.837  12.270
54976W        W20137  14.631  15.101   0.942
54977W        W20138  25.036   5.691   4.171
54978W        W20139   7.329   1.700   0.752
54979W        W20140  23.662  35.568   1.274
54980W        W20141  38.103  33.367  12.776
54981W        W20142  32.912  44.777   3.227
54982W        W20143  17.487  32.629   0.594
54983W        W20144  14.202  27.194   0.804
54984W        W20145   9.123  29.110  13.482
54985W        W20146  17.747  29.674   1.764
54986W        W20147  18.540  30.820   1.403
54987W        W20148  15.140  26.030  12.888
54988W        W20149  42.009  12.883  12.970
54989W        W20150  26.804  24.149   9.716
54990W        W20151  19.517   7.799  14.840
54991W        W20152  28.008  32.612   3.944
54992W        W20153  40.011   3.990  14.862
54993W        W20154  34.940   0.867   1.769
54994W        W20155  34.690  18.594   0.287
54995W        W20156  26.896  20.783  10.639
54996W        W20157  37.269  32.567  12.352
54997W        W20158  44.414  38.101   2.647
54998W        W20159  27.662  34.099  10.689
54999W        W20160  30.402  35.076   3.303
55000W        W20161  21.933  33.080  11.172
55001W        W20162   4.371  41.907   0.665
55002W        W20163  38.804   4.627   0.675
55003W        W20164  27.949  39.799  11.665
55004W        W20165  29.572  11.677  13.292
55005W        W20166  22.984  40.043   2.739
55006W        W20167   7.013  43.940   1.356
55007W        W20168  19.724  43.624  11.356
55008W        W20169  23.126  21.470  12.143
55009W        W20170   0.667  18.509   2.439
55010W        W20171  13.115  17.141   4.130
55011W        W20172  42.559   9.414  14.392
55012W        W20173  12.552  41.891  12.232
55013W        W20174  31.171  38.602  12.577
55014W        W20175   0.810   2.665   3.229
55015W        W20176  34.926  29.613  10.657
55016W        W20177   3.973  25.387  12.499
55017W        W20178  39.697  36.133   3.082
55018W        W20179  16.296  28.053   3.300
55019W        W20180  16.215  24.958  12.868
55020W        W20181   7.942  40.483   1.757
55021W        W20182  12.132  39.748  12.409
55022W        W20183  12.967  36.881  12.839
55023W        W20184  24.167  27.549   3.205
55024W        W20185  29.586  10.846  13.463
55025W        W20186  40.395  33.591  12.513
55026W        W20187   7.854   6.699   4.019
55027W        W20188  13.661  27.692  11.676
55028W        W20189  21.853  29.954   4.520
55029W        W20190  38.541  14.543   3.619
55030W        W20191  38.499  18.357  12.479
55031W        W20192  12.749  39.923   2.334
55032W        W20193  33.406  13.708   3.199
55033W        W20194  44.775  34.523  11.221
55034W        W20195   0.805  26.693  13.726
55035W        W20196  25.253  39.316   3.896
55036W        W20197  29.499   3.054  10.797
55037W        W20198  14.649  44.555  14.280
55038W        W20199  26.117   5.876   0.003
55039W        W20200  24.095  33.390  11.522
55040W        W20201  12.542  43.753  12.365
55041W        W20202  41.642  12.699  13.322
55042W        W20203  44.177   7.747  14.839
55043W        W20204  20.230  16.028  13.110
55044W        W20205   2.332  22.947  10.795
55045W        W20206   5.924  37.865   0.865
55046W        W20207   7.842  31.490   1.020
55047W        W20208  32.391  37.560  13.326
55048W        W20209  42.073  29.098   0.823
55049W        W20210   8.675  12.806  13.940
55050W        W20211   6.418   9.570   1.392
55051W        W20212  20.300   4.488  14.857
55052W        W20213  36.988  19.759   0.308
55053W        W20214   6.900  29.390   2.775
55054W        W20215  25.065   1.056  10.381
55055W        W20216  17.065  32.522   3.359
55056W        W20217  37.224  17.329   4.368
55057W        W20218   9.458   8.116  11.248
55058W        W20219  26.131  36.854   0.301
55059W        W20220  21.005  17.602  14.462
55060W        W20221   5.838  18.384   2.563
55061W        W20222  39.565  10.690  12.769
55062W        W20223  29.010  15.684  11.022
55063W        W20224  37.919  10.938  11.319
55064W        W20225  37.893  35.390   4.266
55065W        W20226  19.339   7.413  11.644
55066W        W20227  11.390  34.651   2.324
55067W        W20228  19.729  39.935  13.002
55068W        W20229  24.953   0.346  12.848
55069W        W20230  21.465  19.720  14.876
55070W        W20231  28.849  23.289   3.959
55071W        W20232  23.597  35.202  13.852
55072W        W20233  35.395  33.976   0.343
55073W        W20234  44.632   1.393   0.725
55074W        W20235  28.065   0.029   2.420
55075W        W20236  10.388   4.354   1.934
55076W        W20237  30.411   3.759   4.111
55077W        W20238  32.371  32.651   2.806
55078W        W20239  20.755  42.920   2.085
55079W        W20240  27.078  16.755  13.457
55080W        W20241  41.757   3.905   0.512
55081W        W20242  17.252  28.151  11.552
55082W        W20243  20.403   8.578   4.215
55083W        W20244  13.213  36.425   0.330
55084W        W20245  21.122  41.770   1.641
55085W        W20246  27.214  43.908   3.520
55086W        W20247  31.007  43.428   3.112
55087W        W20248  39.456  31.426  13.077
55088W        W20249  11.740  10.854  12.370
55089W        W20250   0.270  35.149  14.328
55090W        W20251  29.784   3.999  11.608
55091W        W20252   7.219  42.171  13.469
55092W        W20253  29.022  14.875  13.597
55093W        W20254  38.033  33.012   1.228
55094W        W20255   0.265   4.457   0.905
55095W        W20256  23.152   5.932  11.218
55096W        W20257  13.897  34.635   1.450
55097W        W20258  42.837   6.414   4.541
55098W        W20259  31.137  33.474   3.608
55099W        W20260   8.198  32.076  13.914
55100W        W20261  20.251  40.218   9.775
55101W        W20262  36.369  15.766   4.540
55102W        W20263  36.037  25.021  12.852
55103W        W20264  26.014  43.788   1.657
55104W        W20265  38.031  10.990  13.472
55105W        W20266  15.537  38.523  13.063
55106W        W20267  13.162  31.649  11.576
55107W        W20268  15.638  26.018  13.078
55108W        W20269   5.901   3.431   3.242
55109W        W20270  25.567   4.084  11.105
55110W        W20271  22.228  32.569   2.678
55111W        W20272   4.760  31.659  11.134
55112W        W20273  28.084  16.687   1.142
55113W        W20274  18.195  42.357  12.020
55114W        W20275  22.443  15.819   3.620
55115W        W20276  39.568  20.913   1.606
55116W        W20277  25.942  35.585   9.618
55117W        W20278  10.700  34.952   0.241
55118W        W20279   8.347   8.824   1.996
55119W        W20280  15.620  33.174   1.930
55120W        W20281   2.347  12.175   0.299
55121W        W20282  35.024  41.259   4.183
55122W        W20283  10.889  42.477  14.866
55123W        W20284  32.165  37.376   0.944
55124W        W20285  33.092  33.038  12.166
55125W        W20286  42.473   0.278   1.222
55126W        W20287  22.478  11.273  12.949
55127W        W20288  37.995  40.335   3.654
55128W        W20289  13.401   2.482  13.454
55129W        W20290   7.247   2.026  12.967
55130W        W20291   0.583  14.584   2.640
55131W        W20292  18.710  26.994  11.260
55132W        W20293  21.570  39.607   2.315
55133W        W20294   2.880   8.377   0.415
55134W        W20295  24.153  38.738  14.876
55135W        W20296  21.465  23.968   2.192
55136W        W20297  26.191  38.332  14.277
55137W        W20298  12.643  10.382  12.460
55138W        W20299  30.315  13.789  14.501
55139W        W20300  33.603   8.741  14.019
55140W        W20301  32.860  10.584  14.900
55141W        W20302  26.962  10.100   4.978
55142W        W20303  26.610  21.909   3.317
55143W        W20304  24.931  26.741   2.457
55144W        W20305  36.764  33.577   3.732
55145W        W20306   5.357  13.782   4.630
55146W        W20307  18.258   4.444   0.042
55147W        W20308  28.660   9.758   2.592
55148W        W20309  12.589   8.659   2.851
55149W        W20310  22.851   4.238   2.774
55150W        W20311  27.648  33.365  12.907
55151W        W20312  30.678  10.258   2.135
55152W        W20313  35.656  12.394  11.911
55153W        W20314  40.394  15.139  11.476
55154W        W20315   5.566  12.160  11.228
55155W        W20316  14.645  11.679   4.130
55156W        W20317   2.365  15.841   2.772
55157W        W20318  23.416  33.066   3.176
55158W        W20319   5.375  19.773  11.908
55159W        W20320   9.905  14.189   1.324
55160W        W20321  28.088  20.213   2.653
55161W        W20322  31.132   3.457  13.952
55162W        W20323  28.378  30.567  11.443
55163W        W20324  22.569  11.572  11.988
55164W        W20325  40.870  37.633   4.144
55165W        W20326  26.625  19.101   1.932
55166W        W20327  21.790  21.475  12.693
55167W        W20328  33.934  11.762   0.367
55168W        W20329  28.445   1.385   2.292
55169W        W20330  32.018   4.422  12.838
55170W        W20331  17.287  14.277   1.360
55171W        W20332  12.113   0.969  12.695
55172W        W20333  22.883   1.461   0.688
55173W        W20334  24.567  30.112  11.489
55174W        W20335  33.644  12.654  12.616
55175W        W20336  31.515  39.163  13.409
55176W        W20337  34.450  19.961  11.612
55177W        W20338  38.042  31.139   1.189
55178W        W20339  13.600   6.398   4.561
55179W        W20340  10.602  14.560   4.059
55180W        W20341  37.775   1.388  13.284
55181W        W20342  18.621   5.693  10.679
55182W        W20343  18.254  42.378   0.157
55183W        W20344   9.136  35.843   2.726
55184W        W20345   5.322  40.983  12.984
55185W        W20346   3.688  42.177   0.447
55186W        W20347  40.946  20.146  13.631
55187W        W20348  41.384   4.086   3.170
55188W        W20349  43.817  25.262   1.231
55189W        W20350  42.890  44.297   1.216
55190W        W20351  12.022  13.773  10.769
55191W        W20352   6.133  15.687   2.025
55192W        W20353  40.790  36.906   2.852
55193W        W20354   1.255  33.057  11.526
55194W        W20355  38.568  33.366  14.439
55195W        W20356  43.495  41.785  13.114
55196W        W20357   2.463  17.520  13.208
55197W        W20358   1.952  21.780   0.848
55198W        W20359  16.721  38.928  12.469
55199W        W20360  13.341  14.222   0.733
55200W        W20361  28.537  19.696   1.298
55201W        W20362  34.268  14.250   0.183
55202W        W20363  27.032  15.245  11.600
55203W        W20364  25.944  35.772   1.834
55204W        W20365  35.469  20.182   1.847
55205W        W20366  21.190   2.917  10.753
55206W        W20367   6.433   3.358  12.813
55207W        W20368   4.147  12.339   3.165
55208W        W20369  11.150  23.945   3.414
55209W        W20370  42.807  13.159  12.069
55210W        W20371  18.683  33.963   4.757
55211W        W20372  17.369  34.086  12.956
55212W        W20373  37.373  16.808  11.653
55213W        W20374   9.152  35.328   4.945
55214W        W20375  12.823  40.246   3.640
55215W        W20376  11.947  40.891   4.740
55216W        W20377  28.806   5.458   1.315
55217W        W20378  39.932  35.781  12.511
55218W        W20379  44.268  40.268   1.030
55219W        W20380  39.482  29.158   0.228
55220W        W20381  38.232  28.690   3.209
55221W        W20382  21.026  18.756   4.263
55222W        W20383  22.026   1.274  11.070
55223W        W20384  26.359  27.159   3.775
55224W        W20385   1.542  17.806   0.749
55225W        W20386  15.590  11.107   3.168
55226W        W20387   7.719   8.357   1.876
55227W        W20388  21.062  25.699  14.033
55228W        W20389   7.337  24.574  12.880
55229W        W20390  13.969  24.233   4.496
55230W        W20391  21.582  31.636  13.594
55231W        W20392  39.947  36.474   3.379
55232W        W20393  29.665  27.825  10.862
55233W        W20394  28.666  25.605   3.321
55234W        W20395  13.269  27.141   1.428
55235W        W20396  16.954  23.816  12.958
55236W        W20397  32.057  23.048  13.445
55237W        W20398  11.910  12.881  12.264
55238W        W20399  36.730   5.616   2.235
55239W        W20400  42.289  18.556  14.305
55240W        W20401  44.930  23.523   4.153
55241W        W20402  23.888  34.499  14.303
55242W        W20403  23.226  36.433  12.928
55243W        W20404  39.481   2.979   2.468
55244W        W20405  20.592   2.202  12.727
55245W        W20406  28.155   7.402   3.601
55246W        W20407   3.415  18.142  10.188
55247W        W20408   2.502  18.330   1.444
55248W        W20409  27.417   1.981   2.856
55249W        W20410  23.250  15.811   4.284
55250W        W20411  42.235  28.022  12.558
55251W        W20412   7.337  38.864   4.357
55252W        W20413  39.407  31.511   4.168
55253W        W20414   5.345  35.777   2.682
55254W        W20415   5.070   0.362  14.762
55255W        W20416  44.489  43.495   0.367
55256W        W20417  20.174  33.544   4.601
55257W        W20418   8.714  27.491  11.569
55258W        W20419   3.817  12.224  12.588
55259W        W20420   7.071  27.056  13.027
55260W        W20421   9.188  18.591  10.562
55261W        W20422  35.116  17.368  12.076
55262W        W20423  26.124   0.528  11.750
55263W        W20424  30.303   7.639  12.658
55264W        W20425   3.348  20.489  13.811
55265W        W20426  31.011  28.188  13.448
55266W        W20427  42.815  33.932  14.582
55267W        W20428  39.861  32.475  11.151
55268W        W20429  34.120  34.467  12.808
55269W        W20430   8.364  34.472   0.700
55270W        W20431   3.374  10.243  11.448
55271W        W20432  44.478   0.766  11.996
55272W        W20433   5.306  11.586   0.390
55273W        W20434  38.492   1.493   3.252
55274W        W20435  14.196   1.242  10.533
55275W        W20436  42.005  16.109  13.523
55276W        W20437  21.792   4.618  10.840
55277W        W20438   0.973  44.550   1.309
55278W        W20439  40.832  38.454   3.269
55279W        W20440  21.008  11.749   4.292
55280W        W20441   4.859  18.543  10.241
55281W        W20442  21.047  39.958   3.214
55282W        W20443  25.977  24.221   2.810
55283W        W20444  17.819  18.236  11.988
55284W        W20445  44.283  17.516  11.194
55285W        W20446  24.955   0.829   3.915
55286W        W20447  13.197  22.074  11.604
55287W        W20448  20.525  28.593   3.911
55288W        W20449  40.847  29.747  12.470
55289W        W20450  17.481  42.296   5.363
55290W        W20451   1.848  43.388  12.884
55291W        W20452   0.331  13.244  14.822
55292W        W20453  11.201  41.244  13.082
55293W        W20454  30.279  24.729  11.698
55294W        W20455  35.145  28.797  10.986
55295W        W20456  11.225  10.640   0.316
55296W        W20457   6.060  34.080  11.197
55297W        W20458  11.078  38.357  12.497
55298W        W20459  37.091  32.096  10.685
55299W        W20460  40.949   6.009  13.426
55300W        W20461  20.041  18.019  13.145
55301W        W20462  27.645   2.233   4.551
55302W        W20463  10.653   8.429   4.736
55303W        W20464  26.394  14.236  10.142
55304W        W20465  20.783  13.316   0.373
55305W        W20466  24.467   3.879   2.819
55306W        W20467  27.045  33.749  13.419
55307W        W20468  38.370  37.880   0.808
55308W        W20469  14.388  13.085   0.751
55309W        W20470  28.230   3.748   0.709
55310W        W20471  43.815  39.897   2.780
55311W        W20472   4.726  31.412   2.750
55312W        W20473   2.957   0.087  11.572
55313W        W20474   3.416  20.340   3.335
55314W        W20475  24.745  42.413   2.648
55315W        W20476  26.205  37.944   2.881
55316W        W20477   0.793  28.052  12.913
55317W        W20478  23.302  35.615  10.419
55318W        W20479  27.681  17.042  13.789
55319W        W20480  14.082  14.168   1.448
55320W        W20481   5.010  31.133  11.933
55321W        W20482  14.816  43.859   4.743
55322W        W20483  40.316  17.766  11.113
55323W        W20484  29.367  35.616   3.033
55324W        W20485  20.267  12.765   3.866
55325W        W20486  26.970  13.895  11.886
55326W        W20487  28.095  44.114   3.646
55327W        W20488   1.216  37.297  13.482
55328W        W20489   2.928  31.965  14.549
55329W        W20490  31.659  31.305  13.543
55330W        W20491  27.024  12.833   1.528
55331W        W20492   5.904  15.144   0.028
55332W        W20493  31.549  28.580   3.844
55333W        W20494  25.185  18.009   0.607
55334W        W20495   1.519  13.774   3.619
55335W        W20496  36.290  25.947  11.286
55336W        W20497  18.282  19.751  13.885
55337W        W20498  37.483  17.045   3.368
55338W        W20499  15.425  18.795   2.898
55339W        W20500   8.249  15.097   0.980
55340W        W20501  40.938   1.891  10.696
55341W        W20502  40.404  23.062   2.217
55342W        W20503  34.047   3.082  12.139
55343W        W20504  14.106  27.419  12.994
55344W        W20505  22.430  11.145   0.260
55345W        W20506   6.900   2.768   2.849
55346W        W20507  42.382  44.332   0.041
55347W        W20508   1.898  31.012  13.340
55348W        W20509   7.307  10.341  13.281
55349W        W20510  30.748  18.314  12.300
55350W        W20511   2.997  17.043   3.170
55351W        W20512  29.635  19.722  10.410
55352W        W20513   0.391   6.217  12.972
55353W        W20514  23.200  25.075   1.924
55354W        W20515  30.552  26.133   1.192
55355W        W20516  15.260  19.093  11.253
55356W        W20517  29.926   4.929   2.010
55357W        W20518  23.040  20.196   4.589
55358W        W20519  13.036  21.679   1.724
55359W        W20520  25.932   5.849  12.873
55360W        W20521  20.579  28.210  14.977
55361W        W20522  43.856   4.820   1.264
55362W        W20523  12.087  24.554  10.939
55363W        W20524  36.907  11.822   1.816
55364W        W20525  15.342   8.824   3.097
55365W        W20526  14.275   3.732   3.876
55366W        W20527   7.173  13.857   0.328
55367W        W20528   3.266  28.423  12.467
55368W        W20529  20.293  40.124  10.668
55369W        W20530  30.234  12.677  11.164
55370W        W20531  25.234  17.971  11.940
55371W        W20532  10.970   6.837  12.443
55372W        W20533  25.506  37.234   0.396
55373W        W20534  19.311  16.029   2.694
55374W        W20535  33.292  12.011   0.980
55375W        W20536  17.725  43.897  10.575
55376W        W20537  39.455  22.618   3.203
55377W        W20538  34.299  29.571  13.934
55378W        W20539  14.555  26.724   3.694
55379W        W20540   8.881  44.012   0.913
55380W        W20541   5.425  11.084  14.037
55381W        W20542  19.738  14.690   4.884
55382W        W20543  11.950  40.816   5.232
55383W        W20544   5.896   9.900  13.432
55384W        W20545  41.995  22.514  11.565
55385W        W20546  12.125  19.107  10.719
55386W        W20547  11.912  36.633  13.109
55387W        W20548  17.966  18.244   3.218
55388W        W20549  36.462   7.828   0.326
55389W        W20550  13.293  28.262  11.144
55390W        W20551  16.764  29.411   1.996
55391W        W20552  12.793  40.830  12.108
55392W        W20553   2.161  15.614   3.232
55393W        W20554   3.372  43.972   3.723
55394W        W20555  27.259   2.393   4.248
55395W        W20556  31.181  19.656   1.223
55396W        W20557  18.903  26.475  14.789
55397W        W20558  39.613   2.864   3.758
55398W        W20559  31.260  42.230   1.480
55399W        W20560   3.433  25.392   3.769
55400W        W20561  34.373  39.703   3.674
55401W        W20562  14.555  37.649  11.200
55402W        W20563  32.758  36.500  12.891
55403W        W20564  41.869  34.219  14.461
55404W        W20565  28.008  30.139  13.954
55405W        W20566  23.534  40.954   2.782
55406W        W20567  24.640  35.799  12.792
55407W        W20568  41.081   7.801  14.044
55408W        W20569  10.093  35.552  10.606
55409W        W20570  23.674  33.686  10.313
55410W        W20571  12.177  14.792   0.511
55411W        W20572  23.111  32.814   2.861
55412W        W20573  18.262  39.706   2.710
55413W        W20574  30.063   2.453  12.446
55414W        W20575  42.485   1.411  13.631
55415W        W20576  19.995  44.087   2.311
55416W        W20577   9.247  43.303   1.976
55417W        W20578  42.418  32.622   2.808
55418W        W20579  19.704   9.742  12.411
55419W        W20580   8.225  38.627  11.508
55420W        W20581   1.215  38.443   1.285
55421W        W20582  44.336  23.656   0.878
55422W        W20583  36.620  26.011   4.229
55423W        W20584  16.232  38.621   4.697
55424W        W20585   4.509  35.056   4.302
55425W        W20586  19.565  35.605  13.103
55426W        W20587   7.739  21.378   1.834
55427W        W20588   4.787  40.529  10.630
55428W        W20589   9.341   9.330   3.270
55429W        W20590  36.886  21.115  11.558
55430W        W20591  37.225  41.217  14.317
55431W        W20592  23.798   5.836  12.623
55432W        W20593   2.822  20.283  13.835
55433W        W20594   5.374  31.375  12.978
55434W        W20595  29.107  43.055  12.613
55435W        W20596   6.737  35.930  14.817
55436W        W20597  41.097  33.622  11.441
55437W        W20598   2.336  17.787   1.719
55438W        W20599  26.503  31.557  11.217
55439W        W20600   4.008  15.164  11.119
55440W        W20601  11.614  28.524  10.663
55441W        W20602  16.659  41.073   0.911
55442W        W20603   6.181  24.603   4.872
55443W        W20604  18.297  17.190  12.561
55444W        W20605  25.530  33.880   0.109
55445W        W20606   1.033  27.562   4.906
55446W        W20607  10.182   6.520  12.286
55447W        W20608  32.891  26.092  10.889
55448W        W20609  40.181  38.413   4.047
55449W        W20610   8.338  16.084  11.656
55450W        W20611   2.895   4.654  11.122
55451W        W20612  15.133  36.866   4.036
55452W        W20613  24.247  23.958   1.304
55453W        W20614  29.751  18.169  12.448
55454W        W20615  18.297  37.657   0.929
55455W        W20616  19.587  15.090   5.170
55456W        W20617  15.562  33.147  14.352
55457W        W20618   5.643  40.062  12.515
55458W        W20619  26.958  26.441   4.555
55459W        W20620  34.622  39.384   2.737
55460W        W20621  20.553  32.535   2.243
55461W        W20622  35.615  22.689  11.768
55462W        W20623   8.272  38.199   1.647
55463W        W20624  27.608  43.782   2.163
55464W        W20625   7.184   3.256   2.223
55465W        W20626  31.141  14.719   3.387
55466W        W20627  10.882  42.243   2.528
55467W        W20628  22.546  19.511  12.480
55468W        W20629  17.776  35.151  12.007
55469W        W20630  10.087   4.542   1.550
55470W        W20631  41.301   0.765   0.644
55471W        W20632  20.238  20.471   1.581
55472W        W20633  38.759  23.055   4.181
55473W        W20634   9.621  20.259  11.362
55474W        W20635  34.451  33.696  13.980
55475W        W20636  22.029  14.464  10.645
55476W        W20637   0.572  16.601   1.576
55477W        W20638  13.757  18.031   4.115
55478W        W20639   1.757  32.386   2.431
55479W        W20640  24.187  32.987   2.800
55480W        W20641  40.467  29.237   1.332
55481W        W20642  20.817  18.705  12.528
55482W        W20643   4.118   2.539  11.184
55483W        W20644  38.100  10.322   1.312
55484W        W20645  30.452   3.021  14.609
55485W        W20646  29.421   4.733   3.770
55486W        W20647  32.038  24.710   1.865
55487W        W20648  32.113   7.500   4.538
55488W        W20649   8.345  11.908   0.511
55489W        W20650  12.604   7.614  10.857
55490W        W20651  23.275  12.540   0.405
55491W        W20652   3.472  35.977   0.436
55492W        W20653  27.913  18.692  12.478
55493W        W20654   9.355  44.240   1.764
55494W        W20655  35.340   9.405  10.592
55495W        W20656  26.914  21.447   3.212
55496W        W20657  11.250  14.694  12.613
55497W        W20658   7.029  10.787  11.503
55498W        W20659   9.377  31.781   2.817
55499W        W20660  36.620   6.588   4.864
55500W        W20661  11.870   6.826  10.700
55501W        W20662  37.123  22.033  12.606
55502W        W20663  16.805  17.312   4.472
55503W        W20664  30.693  11.289   2.242
55504W        W20665  43.510  17.668   1.607
55505W        W20666   8.453   6.474   2.113
55506W        W20667  31.489  22.118   0.871
55507W        W20668  11.640  40.756  13.926
55508W        W20669  17.794  21.730   2.641
55509W        W20670  22.686  34.896  14.424
55510W        W20671  28.523  42.001   3.855
55511W        W20672  15.841  25.211   0.832
55512W        W20673   5.019  14.676  10.710
55513W        W20674   4.305  42.359  14.884
55514W        W20675  36.005  32.367   0.801
55515W        W20676   6.941   9.728  13.231
55516W        W20677  12.226  12.599  11.071
55517W        W20678  37.011  22.706  10.483
55518W        W20679  34.165  38.423   0.234
55519W        W20680  34.131  38.638   1.654
55520W        W20681  11.659  33.249  14.655
55521W        W20682  34.333  18.214  12.424
55522W        W20683  39.973  13.119   1.409
55523W        W20684  20.772  13.353   1.846
55524W        W20685   1.919  41.501   3.627
55525W        W20686  36.305  11.716   3.964
55526W        W20687  18.840   1.531  10.626
55527W        W20688  17.612   2.878  13.951
55528W        W20689  24.078  34.994  13.605
55529W        W20690  37.837  15.865  10.718
55530W        W20691  16.175  22.803   2.230
55531W        W20692  12.655  20.655  11.442
55532W        W20693  27.505  10.066  14.739
55533W        W20694  30.963   1.526   4.099
55534W        W20695  27.057  19.372  11.558
55535W        W20696  11.211  10.695  12.496
55536W        W20697  35.952  42.435   3.376
55537W        W20698  34.560  14.155   2.834
55538W        W20699  32.770  32.076   1.498
55539W        W20700  13.799   3.399   0.259
55540W        W20701  21.990   5.161   3.288
55541W        W20702  13.194   6.680   4.679
55542W        W20703  38.798  41.855  14.188
55543W        W20704  40.762  18.119   4.125
55544W        W20705  24.694  21.216  11.496
55545W        W20706  14.904   4.225   3.210
55546W        W20707  41.935   7.307  11.160
55547W        W20708  22.783  22.286   3.599
55548W        W20709   4.457  11.509   4.270
55549W        W20710   0.421  34.985   1.229
55550W        W20711  33.055  22.138   2.838
55551W        W20712  23.571  41.459  13.465
55552W        W20713  43.994  43.465  10.732
55553W        W20714   0.315  29.744   1.652
55554W        W20715   9.379  24.699  10.579
55555W        W20716  23.139  38.635  12.425
55556W        W20717   5.825   5.698  14.034
55557W        W20718  28.217  28.990  13.467
55558W        W20719   2.461  43.072  14.851
55559W        W20720  23.735  14.915  11.094
55560W        W20721  16.643  40.273  12.895
55561W        W20722  16.034  17.174   1.272
55562W        W20723  31.376   8.378  11.450
55563W        W20724  32.604   4.166   4.147
55564W        W20725  30.527  31.998  12.581
55565W        W20726  13.387  13.858  11.742
55566W        W20727   1.775   2.396  14.877
55567W        W20728  10.441  26.462   0.545
55568W        W20729  15.031  39.237   4.008
55569W        W20730  29.245  36.399  14.953
55570W        W20731  28.002  38.960   2.142
55571W        W20732   4.906  19.028  12.081
55572W        W20733  23.037  27.587  12.008
55573W        W20734   6.967  25.142  14.728
55574W        W20735  40.428  22.248  11.140
55575W        W20736  36.418  23.591  14.811
55576W        W20737   7.834  25.787  13.467
55577W        W20738  19.942  23.230   3.559
55578W        W20739  40.393  26.611   0.503
55579W        W20740  30.180  10.152  14.906
55580W        W20741  18.322  32.862  13.450
55581W        W20742  24.623   4.687   4.771
55582W        W20743  37.853  22.585   1.417
55583W        W20744  10.093  31.610  14.924
55584W        W20745  40.730  38.450   1.925
55585W        W20746  16.748  12.322  12.710
55586W        W20747  20.098   2.404  13.508
55587W        W20748  21.580  39.007  11.190
55588W        W20749  27.104  21.165   1.108
55589W        W20750  30.622  22.970  11.765
55590W        W20751  17.584   5.739   1.661
55591W        W20752  12.266  33.889  14.658
55592W        W20753  21.796  41.158  13.945
55593W        W20754  19.561  20.274  10.455
55594W        W20755  43.344  35.114   4.264
55595W        W20756  23.914  16.708  13.342
55596W        W20757  33.560   1.160   1.255
55597W        W20758  37.736  21.086  12.063
55598W        W20759  20.989  28.690   0.818
55599W        W20760  23.191   2.041   4.635
55600W        W20761  39.083   5.549   2.827
55601W        W20762   0.791  22.848  11.077
55602W        W20763  40.322  40.798   0.036
55603W        W20764  35.923  10.887  11.249
55604W        W20765  39.633  31.129   4.684
55605W        W20766  25.680  38.648   4.486
55606W        W20767  41.689  24.762  12.065
55607W        W20768  21.640  44.982   4.665
55608W        W20769   0.192  11.095   2.889
55609W        W20770  21.132   6.027   2.729
55610W        W20771  31.866  17.945   0.205
55611W        W20772  40.202  29.687   1.286
55612W        W20773  32.510  11.540   1.027
55613W        W20774   2.301  27.450  13.968
55614W        W20775  36.354  36.557  12.092
55615W        W20776  44.279  23.419  11.948
55616W        W20777  41.062  30.531  13.560
55617W        W20778   1.698  29.868  12.477
55618W        W20779  27.123  44.546  14.455
55619W        W20780  11.644   7.099   1.256
55620W        W20781  17.524  12.659   2.180
55621W        W20782  41.269   0.141  11.515
55622W        W20783  31.348  40.315  12.043
55623W        W20784   1.972  11.947  13.784
55624W        W20785   4.436  44.687   4.023
55625W        W20786  40.860  41.268   0.334
55626W        W20787  21.031   4.698   3.084
55627W        W20788   3.053   9.719   0.840
55628W        W20789  22.348  14.742   0.912
55629W        W20790  26.867  17.698  14.032
55630W        W20791  30.678  37.313   0.829
55631W        W20792  32.241  30.585   3.851
55632W        W20793  31.994  32.685  11.126
55633W        W20794   3.084  22.455   4.472
55634W        W20795  23.191  12.186  12.165
55635W        W20796   5.001  36.890   3.284
55636W        W20797   2.968  25.564   2.934
55637W        W20798   0.369   8.320   3.182
55638W        W20799   9.416  20.410  12.184
55639W        W20800  21.969  11.196  12.931
55640W        W20801   0.864   1.170  11.748
55641W        W20802  38.580  15.904   0.062
55642W        W20803  17.616  41.527   0.740
55643W        W20804  44.188  14.106   3.286
55644W        W20805  23.553  25.149   3.236
55645W        W20806  10.929  40.354  11.996
55646W        W20807  30.477  15.722   0.951
55647W        W20808   8.713  41.552  12.541
55648W        W20809  32.853   8.821   1.839
55649W        W20810  44.438  14.106   2.813
55650W        W20811  30.981  36.648   4.421
55651W        W20812  20.702  14.783  13.519
55652W        W20813  14.923  16.704  13.288
55653W        W20814  26.270  43.747   1.217
55654W        W20815  29.978  39.555  10.965
55655W        W20816   6.614  44.859  13.558
55656W        W20817   3.706  38.418  12.559
55657W        W20818  19.418  35.184  11.547
55658W        W20819   7.131  17.339   2.847
55659W        W20820  34.439  18.766  13.389
55660W        W20821  36.822  24.210  13.639
55661W        W20822   0.721  35.423  11.951
55662W        W20823   6.870   0.652   3.916
55663W        W20824  20.499  22.436   1.912
55664W        W20825   7.666  24.145  13.175
55665W        W20826  40.311  22.752  12.038
55666W        W20827  10.755  14.599   2.220
55667W        W20828  41.318  28.515  11.524
55668W        W20829  22.175  21.311   0.756
55669W        W20830  42.028  25.438   2.653
55670W        W20831   5.474   9.067  10.419
55671W        W20832  41.600  39.001   1.766
55672W        W20833  16.185   5.492  14.022
55673W        W20834   8.379  21.167   2.336
55674W        W20835  41.943  21.514   1.980
55675W        W20836   8.779   5.109  12.881
55676W        W20837  17.471   0.196   1.240
55677W        W20838  30.888  36.632   1.657
55678W        W20839  21.715   7.736   2.592
55679W        W20840  36.615  33.481   4.213
55680W        W20841  34.072  33.478  14.232
55681W        W20842   8.920  34.374   2.700
55682W        W20843  33.346   0.884   2.831
55683W        W20844  34.180  30.766  11.139
55684W        W20845  10.479  14.688  13.981
55685W        W20846  24.198  28.010  12.987
55686W        W20847  20.152  29.264   5.191
55687W        W20848  16.940  22.204   1.049
55688W        W20849  27.491   4.723  14.364
55689W        W20850  35.180   2.701   4.324
55690W        W20851  42.791   6.137  13.536
55691W        W20852  33.902  12.715  10.960
55692W        W20853  17.800  35.382  12.894
55693W        W20854  27.659  38.430  11.354
55694W        W20855  18.324  36.143  10.589
55695W        W20856   5.943  15.241  13.004
55696W        W20857  30.907   2.769  13.354
55697W        W20858  14.634  41.822   1.784
55698W        W20859  22.648  41.907  14.415
55699W        W20860  21.021  23.675   2.242
55700W        W20861  14.256  11.310   4.121
55701W        W20862  20.211   6.629  12.089
55702W        W20863  16.078  15.798   1.025
55703W        W20864   5.006  18.809   4.592
55704W        W20865   8.853  18.035  11.215
55705W        W20866  24.410  41.688  14.792
55706W        W20867  36.446  26.175   1.788
55707W        W20868  21.148  14.662  11.423
55708W        W20869  12.277  38.908   3.566
55709W        W20870  42.480  30.591  14.541
55710W        W20871   7.610  25.003  12.538
55711W        W20872  36.000  28.483  14.390
55712W        W20873   1.357  21.346   3.207
55713W        W20874  43.943  42.927  10.687
55714W        W20875  19.163  22.281  11.611
55715W        W20876   6.003  29.404   4.801
55716W        W20877  13.665   9.327  14.934
55717W        W20878  12.234  27.991   0.414
55718W        W20879  18.111  10.297   3.098
55719W        W20880  18.004   9.926  14.181
55720W        W20881   0.185  36.115   0.270
55721W        W20882  22.109   9.079   3.388
55722W        W20883  38.936  15.635  10.664
55723W        W20884  12.748  34.000  10.573
55724W        W20885  15.480  18.025   1.520
55725W        W20886   9.055  36.115  13.741
55726W        W20887  36.087  20.346   3.255
55727W        W20888  15.709  44.187   3.120
55728W        W20889  18.571   3.852   3.187
55729W        W20890  37.405  42.531   3.071
55730W        W20891  19.608  38.062   1.884
55731W        W20892  41.977   0.268   4.837
55732W        W20893  28.685  11.552   2.717
55733W        W20894   2.739  14.128  12.776
55734W        W20895  24.498   0.548   2.872
55735W        W20896  21.513  13.859  11.588
55736W        W20897  26.405  12.914   5.050
55737W        W20898  19.219  24.315   3.317
55738W        W20899  26.065  24.055  14.766
55739W        W20900  36.859  38.528  13.322
55740W        W20901  27.381   6.764   2.615
55741W        W20902  17.794  42.449   4.938
55742W        W20903  41.258  40.961  13.520
55743W        W20904  42.373  42.947  14.950
55744W        W20905  10.729  42.919   1.345
55745W        W20906   6.376  14.229  13.341
55746W        W20907  15.518  28.948   3.648
55747W        W20908  38.496  41.978  10.454
55748W        W20909  43.474  16.753  13.372
55749W        W20910  17.196  43.853  11.748
55750W        W20911  11.839  39.835  10.001
55751W        W20912  36.253  10.847   2.618
55752W        W20913  22.978  10.699  12.004
55753W        W20914   4.248  44.567  14.515
55754W        W20915  23.143  32.868   3.793
55755W        W20916  17.099  17.476   3.575
55756W        W20917  24.043  19.582   3.857
55757W        W20918  34.555  30.938  11.482
55758W        W20919  18.195  22.792  11.550
55759W        W20920  13.635  38.414   4.528
55760W        W20921  21.505   0.742   1.776
55761W        W20922  20.568  26.743   4.176
55762W        W20923   5.936   8.841   4.677
55763W        W20924   8.923  42.418   2.353
55764W        W20925  14.244  15.018   1.973
55765W        W20926  16.269  37.767   1.734
55766W        W20927  39.381  14.501  11.968
55767W        W20928  10.231   6.748   3.768
55768W        W20929  32.574  38.611  14.883
55769W        W20930  42.714   3.574  10.780
55770W        W20931   3.908  32.082   1.342
55771W        W20932  27.271  19.514  12.807
55772W        W20933  32.818  38.076   4.051
55773W        W20934  21.946   2.377  10.690
55774W        W20935  28.551  27.091   4.775
55775W        W20936  17.556  31.891  13.488
55776W        W20937  39.452   7.930  12.894
55777W        W20938   8.835  41.414  10.437
55778W        W20939  31.239  37.565  11.659
55779W        W20940  24.443   2.076   0.021
55780W        W20941  10.215  31.042  10.540
55781W        W20942  11.776   8.808   4.221
55782W        W20943  40.558  30.626  13.536
55783W        W20944  38.339  32.587   1.213
55784W        W20945  43.120  28.184  12.938
55785W        W20946  28.052  38.877  13.506
55786W        W20947  16.695  35.184  14.226
55787W        W20948  12.514  30.073   1.142
55788W        W20949  14.711  34.807  13.412
55789W        W20950  33.597  27.123  14.802
55790W        W20951  22.438  19.690  14.773
55791W        W20952  25.173  16.140  12.727
55792W        W20953  29.939  26.971  13.225
55793W        W20954   6.299   2.275   4.068
55794W        W20955  22.171  39.379  13.176
55795W        W20956  25.225  30.539   1.660
55796W        W20957  25.229  18.570   3.711
55797W        W20958  19.752   6.312  14.527
55798W        W20959  32.356  30.041  14.948
55799W        W20960  42.334  26.646  12.221
55800W        W20961  15.190  27.435   1.148
55801W        W20962   1.721  12.276   3.195
55802W        W20963  21.263  41.670   4.184
55803W        W20964  36.116  44.331  12.057
55804W        W20965  29.416  32.013   2.788
55805W        W20966  18.027  34.950  11.476
55806W        W20967  40.755   3.617   1.850
55807W        W20968  43.804  27.047  14.523
55808W        W20969  32.697  12.269   3.200
55809W        W20970   8.848  25.027   0.698
55810W        W20971   4.197  19.260   2.395
55811W        W20972  28.474  33.097  11.187
55812W        W20973  21.125  19.020   3.809
55813W        W20974  12.802   2.649   2.335
55814W        W20975  18.622  13.529   2.236
55815W        W20976  26.496  30.422   2.871
55816W        W20977  14.826  29.176  14.773
55817W        W20978  43.864   3.384  13.898
55818W        W20979   0.167   7.731   0.256
55819W        W20980  33.998   5.296  13.001
55820W        W20981   1.405   7.341   4.946
55821W        W20982   9.159  21.136  11.037
55822W        W20983  12.065  38.933   2.619
55823W        W20984  38.030  29.952   3.151
55824W        W20985   9.012   8.776   3.241
55825W        W20986  21.694  31.393   4.463
55826W        W20987  25.749  19.722   4.477
55827W        W20988  39.069  28.638   2.855
55828W        W20989   8.114  12.350  11.470
55829W        W20990  15.305  44.132  11.116
55830W        W20991  38.467  20.003   0.085
55831W        W20992  40.886  37.105   4.220
55832W        W20993   6.436  10.732  14.381
55833W        W20994  19.192  34.160   0.505
55834W        W20995  27.750  11.921   3.156
55835W        W20996  19.753  27.322   4.861
55836W        W20997   8.739  18.585   2.909
55837W        W20998  16.288   3.556  11.062
55838W        W20999  37.099  15.287   3.262
55839W        W21000   8.796  15.429   2.543
55840W        W21001  11.408  30.351   2.285
55841W        W21002  14.579  36.249  13.544
55842W        W21003   3.290  22.096   3.579
55843W        W21004  33.518   1.669   1.306
55844W        W21005  20.767  32.576  10.894
55845W        W21006  15.119  20.516   1.908
55846W        W21007  25.600   5.937   4.677
55847W        W21008   8.620  44.547   1.813
55848W        W21009  26.941   8.833   4.145
55849W        W21010   6.188  28.922  12.500
55850W        W21011  12.065  37.318  12.085
55851W        W21012  11.320  19.059  14.971
55852W        W21013   0.503  17.782  14.008
55853W        W21014  36.828  19.271  12.384
55854W        W21015  33.544   3.225   3.262
55855W        W21016   3.798  40.979   4.193
55856W        W21017  23.668  11.279   4.883
55857W        W21018  40.338  19.114  13.117
55858W        W21019   3.265   8.762  12.352
55859W        W21020  38.330  21.657   0.870
55860W        W21021  11.719   4.379  13.358
55861W        W21022  31.048   8.267   4.054
55862W        W21023  21.740  43.948   0.705
55863W        W21024  43.412  25.070  13.908
55864W        W21025  32.306   9.139   2.193
55865W        W21026  44.988  11.022   3.348
55866W        W21027  43.265   9.484  13.822
55867W        W21028  37.574  31.667   4.684
55868W        W21029  20.574  41.012   1.880
55869W        W21030  33.366  34.417   2.488
55870W        W21031  41.000  33.291   4.622
55871W        W21032  30.355  24.582  10.768
55872W        W21033  24.177  16.115  14.855
55873W        W21034  18.042  18.552  14.565
55874W        W21035  32.144   3.971   3.957
55875W        W21036  19.552  10.563   2.687
55876W        W21037  16.665   2.473   2.319
55877W        W21038  20.148  25.519   2.755
55878W        W21039  28.893   8.240   3.602
55879W        W21040   8.968  37.011   3.143
55880W        W21041  12.667  29.103  14.873
55881W        W21042  21.936  29.478  14.078
55882W        W21043  30.019   1.742  10.437
55883W        W21044  28.006  43.154   1.366
55884W        W21045  30.036   0.550   0.803
55885W        W21046  20.273  21.244  10.711
55886W        W21047  33.211  26.455   3.618
55887W        W21048  37.098  27.108  12.600
55888W        W21049  22.088  31.131   2.864
55889W        W21050  33.680  24.485  14.716
55890W        W21051  15.638  19.451   1.426
55891W        W21052  42.600  35.030  10.812
55892W        W21053  35.938  28.484   2.257
55893W        W21054   0.964  27.231  12.011
55894W        W21055  35.478  39.577   0.135
55895W        W21056   3.059   0.813   2.857
55896W        W21057  39.753  42.178  13.286
55897W        W21058  12.347  12.649   2.774
55898W        W21059   0.663   6.652  11.581
55899W        W21060  12.664  22.707   3.772
55900W        W21061  14.528  20.825  12.540
55901W        W21062  33.407  10.699  10.700
55902W        W21063   8.116   5.235   0.441
55903W        W21064  22.366  42.329  14.360
55904W        W21065   7.276  28.212  14.792
55905W        W21066  31.503  24.916   4.608
55906W        W21067  23.567  43.031   1.406
55907W        W21068  43.871  33.596   2.887
55908W        W21069  25.613   0.767   4.632
55909W        W21070  39.511   8.900   4.662
55910W        W21071  19.623  23.982   3.253
55911W        W21072  36.959  24.696  11.441
55912W        W21073  24.725  19.555   0.479
55913W        W21074  32.477  44.294  10.602
55914W        W21075   6.008  37.017   3.015
55915W        W21076  39.462  39.974   0.651
55916W        W21077  39.777  27.598   2.336
55917W        W21078  23.840  33.330   3.726
55918W        W21079  38.942   7.628  12.986
55919W        W21080  23.627  31.305  13.491
55920W        W21081  42.806  19.631  14.411
55921W        W21082   0.373  37.396   3.150
55922W        W21083  22.642   7.005   0.184
55923W        W21084  22.590  31.062  10.920
55924W        W21085  18.791  14.137   1.348
55925W        W21086  42.855  31.960   1.272
55926W        W21087  32.072  10.815   3.842
55927W        W21088  20.626  33.124  12.998
55928W        W21089  16.565  44.586   3.317
55929W        W21090  18.614  42.019  13.510
55930W        W21091  28.595  28.324  10.725
55931W        W21092  23.153  32.369  12.873
55932W        W21093  24.018  10.140  10.663
55933W        W21094  23.139  31.397   4.697
55934W        W21095  35.167  12.325  12.804
55935W        W21096  34.433  40.509   0.673
55936W        W21097  36.888  17.657   1.822
55937W        W21098  42.862  25.728   4.542
55938W        W21099  33.526  34.757  12.420
55939W        W21100  35.086   4.826   4.222
55940W        W21101  29.076   0.066  14.810
55941W        W21102  42.708  35.245   1.169
55942W        W21103  31.291  17.966   2.663
55943W        W21104   1.985   0.455  12.156
55944W        W21105   3.769  15.088  12.004
55945W        W21106  26.515  26.859   0.753
55946W        W21107  14.232  20.687   2.394
55947W        W21108  44.372   3.717  14.881
55948W        W21109  26.724  41.340  14.831
55949W        W21110  17.879  43.335  11.632
55950W        W21111  39.369  33.015   0.772
55951W        W21112  38.913  14.842  11.085
55952W        W21113   9.742   9.774  10.770
55953W        W21114   9.938  32.588   3.736
55954W        W21115  17.228  17.071   1.237
55955W        W21116   1.071  23.844  11.128
55956W        W21117  31.444  20.640   4.890
55957W        W21118  17.322  35.363   4.078
55958W        W21119   9.381  19.622   1.527
55959W        W21120   8.972  12.769  14.373
55960W        W21121  13.600  26.742   0.586
55961W        W21122  44.334   1.536  12.666
55962W        W21123  35.610  30.576  14.833
55963W        W21124  38.177  17.087  12.079
55964W        W21125  29.701  35.396   4.340
55965W        W21126  37.304  34.912  10.747
55966W        W21127   6.216   3.323  14.372
55967W        W21128   2.968  31.527   2.756
55968W        W21129  10.255  39.642   2.235
55969W        W21130  28.371  37.941  11.950
55970W        W21131  27.374  21.042  13.489
55971W        W21132   6.455  34.347  13.765
55972W        W21133  24.966   9.281   4.111
55973W        W21134   9.510  32.822  12.927
55974W        W21135  41.993  26.719   0.433
55975W        W21136  24.709   9.268  14.832
55976W        W21137   6.219  15.662   3.406
55977W        W21138  11.630  16.343   1.878
55978W        W21139  29.608  39.315  11.277
55979W        W21140   5.698  19.705   1.479
55980W        W21141  15.499  43.749  14.364
55981W        W21142  32.616  39.972   2.288
55982W        W21143  38.413   3.721  10.414
55983W        W21144  41.079  26.135   4.774
55984W        W21145  14.097  21.624   2.351
55985W        W21146  25.520  40.755   3.657
55986W        W21147  31.633  16.256  11.788
55987W        W21148  25.647  30.773   3.613
55988W        W21149  25.878  34.129   0.839
55989W        W21150  33.195  23.761   1.505
55990W        W21151  33.084   8.636   0.118
55991W        W21152  14.398  10.202   4.576
55992W        W21153  20.659  38.890   1.741
55993W        W21154  22.828   1.831  13.572
55994W        W21155   7.146  29.566  13.795
55995W        W21156  24.432  24.190   4.190
55996W        W21157  43.258  30.964   4.664
55997W        W21158  29.400   4.373   2.602
55998W        W21159  10.900  35.555  11.996
55999W        W21160  30.738  39.448  11.944
56000W        W21161  15.516   2.915   2.795
56001W        W21162  24.683  27.394  10.713
56002W        W21163  38.180  37.034   4.520
56003W        W21164   6.965  13.404  12.152
56004W        W21165   2.744  26.212  12.849
56005W        W21166  26.938  42.963   5.006
56006W        W21167  12.272   2.002  14.015
56007W        W21168  22.030  29.201  11.215
56008W        W21169  42.703  29.958  11.596
56009W        W21170  30.641  16.309   2.827
56010W        W21171  24.691   2.288  12.178
56011W        W21172  15.176  43.263  12.595
56012W        W21173  23.083   8.200   3.396
56013W        W21174   9.220   4.593  13.818
56014W        W21175  43.555  23.474   2.127
56015W        W21176  16.075   4.945  11.851
56016W        W21177   9.762  33.092  13.527
56017W        W21178  31.850  25.154  12.868
56018W        W21179  13.337  32.497   0.365
56019W        W21180  27.520  34.129  14.256
56020W        W21181  18.605   6.720   4.531
56021W        W21182  10.667  23.967   3.627
56022W        W21183  40.839  19.902   3.880
56023W        W21184  34.114  29.560   3.276
56024W        W21185  28.500   8.411  12.187
56025W        W21186   2.503  11.354  13.963
56026W        W21187  32.446  32.659   3.320
56027W        W21188  28.840  17.717   4.157
56028W        W21189  29.919  29.658  14.788
56029W        W21190  35.041  35.745   3.704
56030W        W21191  10.450   7.986  14.799
56031W        W21192   7.251  20.403  14.504
56032W        W21193  30.089  16.189   4.605
56033W        W21194  41.282  37.270  10.689
56034W        W21195  35.875  42.497  11.098
56035W        W21196  19.311  15.143  13.427
56036W        W21197  10.667   3.773  14.862
56037W        W21198  42.323   6.607   2.411
56038W        W21199   8.174  28.101  13.539
56039W        W21200  26.063  22.627   1.924
56040W        W21201  36.078  36.162  10.384
56041W        W21202  28.651  36.663  14.872
56042W        W21203  31.628  12.792  13.510
56043W        W21204  41.134  41.474   3.818
56044W        W21205  36.399   3.507  14.519
56045W        W21206  23.995  17.502  12.961
56046W        W21207   8.995  19.010  14.749
56047W        W21208  14.264  30.470   1.388
56048W        W21209  32.254  43.488  14.731
56049W        W21210  44.284   4.416  12.016
56050W        W21211  29.558  39.571  13.450
56051W        W21212  25.101  42.944  13.851
56052W        W21213  17.046  18.120  14.982
56053W        W21214  31.160  15.316  10.615
56054W        W21215  28.118  14.006   3.205
56055W        W21216  40.820  31.117   4.339
56056W        W21217   4.788  16.282   2.179
56057W        W21218  31.453  35.575   2.834
56058W        W21219  34.648   5.770  13.352
56059W        W21220  13.314  15.145   2.330
56060W        W21221   1.476  31.160   2.269
56061W        W21222  18.860  36.203  10.325
56062W        W21223  10.185  36.025  10.798
56063W        W21224  39.405  16.352  12.399
56064W        W21225  44.774  28.986   1.246
56065W        W21226  19.229  37.469   3.847
56066W        W21227  23.532  10.194   1.950
56067W        W21228   0.959  27.003   0.417
56068W        W21229  11.320  23.688   3.834
56069W        W21230  38.948   7.720  14.891
56070W        W21231   7.134   1.036   1.388
56071W        W21232  19.472   8.128   2.433
56072W        W21233  17.616  42.240  14.424
56073W        W21234  14.341   3.216   3.880
56074W        W21235  19.923  42.941  12.015
56075W        W21236  27.595  31.698   2.437
56076W        W21237  13.814  36.926  13.275
56077W        W21238  16.793  33.790   0.962
56078W        W21239  37.548  36.488   0.693
56079W        W21240  21.335  33.847  10.693
56080W        W21241  35.591  17.195  14.985
56081W        W21242  42.054  17.861  13.028
56082W        W21243  27.005  13.395  14.772
56083W        W21244   2.523   9.967  12.608
56084W        W21245   0.054  35.313   0.612
56085W        W21246  25.598  19.305  12.503
56086W        W21247  25.263  41.989   2.353
56087W        W21248  44.519  43.159   4.588
56088W        W21249  33.710  34.420   1.698
56089W        W21250  26.211   3.695   0.851
56090W        W21251  22.279  35.393  13.935
56091W        W21252   0.752  16.537  12.402
56092W        W21253  44.536  13.228   1.825
56093W        W21254  10.288  29.387  12.822
56094W        W21255   1.541  11.187  14.750
56095W        W21256  17.819   3.171   2.703
56096W        W21257   3.833  34.543   2.380
56097W        W21258  38.836   0.494  13.455
56098W        W21259  16.818  44.914  14.174
56099W        W21260  32.462  36.864  10.638
56100W        W21261  42.779  34.139  11.007
56101W        W21262  22.290  39.871   9.927
56102W        W21263  17.870   1.762  10.697
56103W        W21264  38.688  24.073   2.271
56104W        W21265   0.452  38.005  14.456
56105W        W21266   4.387  34.195   3.156
56106W        W21267  34.505  15.793  12.508
56107W        W21268  31.152  14.688   1.336
56108W        W21269  36.350  13.589  11.500
56109W        W21270  10.844  31.020   0.076
56110W        W21271   0.310   2.752   4.634
56111W        W21272  25.157   4.244   1.339
56112W        W21273  41.939  33.848   2.351
56113W        W21274  38.493   7.185   3.533
56114W        W21275  26.677  43.231  10.692
56115W        W21276  26.611  41.995   1.406
56116W        W21277  23.513  24.209   4.129
56117W        W21278  29.584  38.303  11.427
56118W        W21279  24.482  17.868   0.750
56119W        W21280   0.333   3.181  14.396
56120W        W21281  27.698  37.353   2.645
56121W        W21282  41.344  15.398   1.967
56122W        W21283  22.786  11.709   3.618
56123W        W21284  39.793   2.890  11.174
56124W        W21285  32.383  21.163   0.828
56125W        W21286  31.410   0.899  11.252
56126W        W21287  25.171  28.222   2.353
56127W        W21288   6.769  40.494  14.509
56128W        W21289  10.182   5.623   2.437
56129W        W21290  23.740  24.747   1.249
56130W        W21291   2.548  25.922  13.490
56131W        W21292  33.478  35.978  13.421
56132W        W21293  41.032  35.406  10.175
56133W        W21294   3.320  16.187  14.473
56134W        W21295   9.220   6.458   4.506
56135W        W21296  26.086   6.512   2.566
56136W        W21297  42.343   6.197   4.518
56137W        W21298   3.211  38.931  10.079
56138W        W21299  35.147  32.464  12.884
56139W        W21300  24.482  44.503  13.148
56140W        W21301  20.913  38.898   4.135
56141W        W21302   7.266   4.438  12.433
56142W        W21303  12.529  29.996  12.102
56143W        W21304  16.650  30.522   1.137
56144W        W21305  30.489  14.045  14.086
56145W        W21306  35.184  33.133   0.685
56146W        W21307  44.033   7.052   5.106
56147W        W21308  11.585  10.810  12.873
56148W        W21309   1.996  15.138   3.418
56149W        W21310  33.515  15.132  14.856
56150W        W21311  18.226   5.030  10.612
56151W        W21312  18.336   3.568  14.573
56152W        W21313  38.383  33.371   1.957
56153W        W21314  13.172  33.455  13.910
56154W        W21315   6.185  28.059   5.198
56155W        W21316  12.615  43.734  13.417
56156W        W21317   2.914   6.288  11.408
56157W        W21318  24.600  15.360   0.212
56158W        W21319  34.924   0.695   4.859
56159W        W21320  20.555  22.687  12.456
56160W        W21321   9.065  13.733   4.623
56161W        W21322  34.559  16.222  13.634
56162W        W21323   8.377  12.809  11.633
56163W        W21324  24.671  15.675  14.350
56164W        W21325  27.530  30.264  10.640
56165W        W21326  35.200  12.810  12.633
56166W        W21327  18.153  30.551  11.595
56167W        W21328  42.786  37.912  13.506
56168W        W21329  14.192  22.284  13.390
56169W        W21330  16.532   8.725   3.655
56170W        W21331  28.646  30.025   2.218
56171W        W21332  38.651   3.220  13.115
56172W        W21333  16.986  13.774   4.639
56173W        W21334  31.644  32.732  13.504
56174W        W21335  28.627  40.157  13.335
56175W        W21336  22.132  12.637  13.048
56176W        W21337  12.687   5.150   1.415
56177W        W21338  22.039  44.816  14.461
56178W        W21339  44.401  32.007   3.128
56179W        W21340  21.518  36.401  14.256
56180W        W21341  13.791  32.801   4.554
56181W        W21342  40.572   5.038  14.829
56182W        W21343  41.033  13.638   3.001
56183W        W21344  10.497  10.392  10.680
56184W        W21345  23.064  25.998  12.159
56185W        W21346   4.845  33.357   0.348
56186W        W21347  14.100  15.968  12.515
56187W        W21348   9.162  11.180   3.697
56188W        W21349   7.644  33.077   0.338
56189W        W21350  41.073  27.485   4.658
56190W        W21351  21.346   7.505  11.220
56191W        W21352  36.384  42.457  11.183
56192W        W21353  33.061   5.858  14.776
56193W        W21354  25.031  16.522  11.463
56194W        W21355  42.940  41.745   3.456
56195W        W21356  43.565   8.378   4.343
56196W        W21357  27.175  19.184  14.281
56197W        W21358  40.467  11.423   0.485
56198W        W21359  34.674  29.733   3.372
56199W        W21360   1.875   9.468   4.152
56200W        W21361  26.294  27.473  10.652
56201W        W21362   6.249   4.304  12.328
56202W        W21363  18.343  27.959   1.038
56203W        W21364  30.281  24.225  11.647
56204W        W21365  13.095  12.803  10.614
56205W        W21366  29.123  22.310   5.019
56206W        W21367   4.429  19.147   0.740
56207W        W21368  24.922  32.589  12.482
56208W        W21369  16.847  36.206  11.751
56209W        W21370  40.322  19.357  13.593
56210W        W21371  14.712  10.872  13.621
56211W        W21372  36.362  35.959   2.429
56212W        W21373   0.223  40.281   0.069
56213W        W21374  26.729  16.753  12.002
56214W        W21375  11.265  33.064   0.695
56215W        W21376  17.946  34.795  14.811
56216W        W21377   2.699  25.127  11.883
56217W        W21378  35.646   3.858   2.386
56218W        W21379  14.645  19.872  10.931
56219W        W21380  40.334  42.366   4.328
56220W        W21381  43.860   0.635   2.213
56221W        W21382   8.702  22.598   2.861
56222W        W21383   6.906  11.234   4.511
56223W        W21384  34.921  27.369   1.860
56224W        W21385  29.035  31.125   0.280
56225W        W21386  21.052   2.184   3.101
56226W        W21387  36.333  30.603  14.429
56227W        W21388  39.323  41.359   3.275
56228W        W21389   0.055  44.839  14.342
56229W        W21390   0.763  39.866  10.130
56230W        W21391  23.275  21.600   3.277
56231W        W21392  13.099   3.085   2.305
56232W        W21393  29.369  33.548   4.523
56233W        W21394  30.487   4.622  12.089
56234W        W21395  33.093   6.362  14.698
56235W        W21396   6.744  19.138  13.802
56236W        W21397  36.050  36.208  12.620
56237W        W21398  28.021   1.462   3.487
56238W        W21399  37.673  25.790  13.490
56239W        W21400  23.729   8.279  14.192
56240W        W21401  12.619  14.624   3.622
56241W        W21402   7.439  18.489   2.397
56242W        W21403  25.580  31.361  14.997
56243W        W21404  12.664  44.656  14.006
56244W        W21405  27.418  40.503   4.464
56245W        W21406   8.118  40.237  12.650
56246W        W21407  26.350  18.825  12.651
56247W        W21408  27.238  14.339  12.006
56248W        W21409   1.770  36.633  11.133
56249W        W21410  41.413  24.500  14.037
56250W        W21411  41.822   4.846  12.988
56251W        W21412  31.376  35.968   0.440
56252W        W21413  22.662  36.366  12.185
56253W        W21414  30.830  33.143   3.856
56254W        W21415   5.654  17.334   3.661
56255W        W21416  16.472  30.656   3.524
56256W        W21417  34.959  32.765   0.397
56257W        W21418   4.367  32.925  12.926
56258W        W21419   8.099  14.724  13.785
56259W        W21420  42.373  18.560   4.782
56260W        W21421  28.449   1.827  11.969
56261W        W21422  10.918  13.885  12.046
56262W        W21423  18.055  44.836  12.805
56263W        W21424   4.727   1.786  12.277
56264W        W21425  38.024  36.436   2.763
56265W        W21426  22.326  20.619   5.425
56266W        W21427  29.909  18.650   3.542
56267W        W21428  25.208   7.297  11.008
56268W        W21429   2.533  14.258   1.764
56269W        W21430  33.331  27.996  13.900
56270W        W21431   5.235  27.149  14.775
56271W        W21432   6.543  37.364   1.908
56272W        W21433   7.207  23.232   4.994
56273W        W21434   1.156  29.132   3.512
56274W        W21435   4.883  22.156  12.572
56275W        W21436  44.231  15.329   3.691
56276W        W21437  18.175  31.596  14.105
56277W        W21438  42.753  43.595  13.876
56278W        W21439  31.364   7.626   1.871
56279W        W21440  20.825  22.427   2.304
56280W        W21441  20.464   0.334   0.710
56281W        W21442  20.889  12.578   1.292
56282W        W21443  38.794  18.723   0.847
56283W        W21444   9.805  18.070  10.435
56284W        W21445  27.898   3.403   1.375
56285W        W21446   2.551   7.211  11.746
56286W        W21447  38.805  42.888  13.849
56287W        W21448   1.246  13.586   2.124
56288W        W21449  20.818  12.973   4.671
56289W        W21450  34.295   8.550   1.052
56290W        W21451   3.312  35.542   1.722
56291W        W21452  33.587   1.845   1.790
56292W        W21453  23.104   6.447  14.583
56293W        W21454  17.967  13.387  12.549
56294W        W21455  27.023  26.234  11.187
56295W        W21456   5.569  27.568  11.607
56296W        W21457  13.007  27.008   1.852
56297W        W21458   2.962   3.932   3.248
56298W        W21459  27.181  28.403  10.748
56299W        W21460  26.288  38.814  13.431
56300W        W21461  11.108  25.075  10.466
56301W        W21462  18.209  13.203   4.272
56302W        W21463   0.039   8.398  10.759
56303W        W21464  39.010   6.741   1.784
56304W        W21465  10.764  38.942   0.971
56305W        W21466  32.958   5.333   4.317
56306W        W21467  19.343  11.331  14.220
56307W        W21468  11.943   6.303   4.560
56308W        W21469  21.487  17.566   4.162
56309W        W21470   8.186  29.211  12.736
56310W        W21471  26.298  24.573  10.278
56311W        W21472  17.525  36.368  13.016
56312W        W21473  12.191  29.526  12.089
56313W        W21474  16.573   3.784  11.448
56314W        W21475  22.983  38.788   4.719
56315W        W21476   4.063   9.842   3.205
56316W        W21477   3.484  14.675  13.911
56317W        W21478  36.955  16.722   2.266
56318W        W21479  26.542  21.033   5.159
56319W        W21480  11.809  34.945  10.691
56320W        W21481  29.422   7.689   1.701
56321W        W21482   8.719   7.215   4.563
56322W        W21483  37.173  36.562  11.177
56323W        W21484  25.643  40.572   4.098
56324W        W21485   5.904   1.510   0.752
56325W        W21486  34.909   9.364   2.258
56326W        W21487   9.125  17.167  11.689
56327W        W21488  12.045   5.948  11.117
56328W        W21489  22.766  28.620  11.635
56329W        W21490  22.046  15.455   3.405
56330W        W21491  39.802  32.928  13.872
56331W        W21492  38.623  41.405  13.052
56332W        W21493  29.183   8.767  11.021
56333W        W21494  20.018  39.740   0.328
56334W        W21495   2.359  10.099   4.633
56335W        W21496   1.218  33.968  14.793
56336W        W21497  13.595   0.075   0.998
56337W        W21498  18.456  27.549   4.217
56338W        W21499  29.504  38.542   3.604
56339W        W21500  39.899  30.007   4.507
56340W        W21501  43.982  12.989  11.600
56341W        W21502   4.250  34.318  10.757
56342W        W21503  35.631  33.127  11.955
56343W        W21504  20.124   0.983  14.788
56344W        W21505  42.856  37.868  14.017
56345W        W21506  11.032   2.766   3.699
56346W        W21507  33.490  13.276   3.680
56347W        W21508  44.180  17.007   0.439
56348W        W21509  22.148  10.046  11.203
56349W        W21510  37.060   9.136   3.411
56350W        W21511  42.615   3.842   2.636
56351W        W21512  21.080  23.783   3.111
56352W        W21513  23.972  30.635  11.665
56353W        W21514  29.102  23.756   2.180
56354W        W21515  15.297  27.671   2.168
56355W        W21516  22.154  40.854  11.577
56356W        W21517  38.805   7.409  14.272
56357W        W21518  17.654   0.107   0.206
56358W        W21519  24.549  35.925   0.454
56359W        W21520  34.833  36.055   2.419
56360W        W21521  11.964  11.156  11.994
56361W        W21522  35.505   0.306  10.353
56362W        W21523  40.649   0.286  11.142
56363W        W21524   9.431  35.372  12.928
56364W        W21525  44.639   0.567   1.786
56365W        W21526  22.216   8.108  11.139
56366W        W21527   5.214  23.001  12.389
56367W        W21528   7.007  22.020  11.297
56368W        W21529   2.072  32.142  11.084
56369W        W21530  41.798   9.131   0.045
56370W        W21531  32.992  42.754  13.885
56371W        W21532  29.067  37.501   0.010
56372W        W21533  25.380   6.324   0.064
56373W        W21534   3.420   6.843   1.882
56374W        W21535  28.520  38.050   2.092
56375W        W21536  19.644   8.304  13.032
56376W        W21537  19.274   0.042   4.112
56377W        W21538  34.116   5.469   2.845
56378W        W21539  17.278   0.723  13.009
56379W        W21540   8.763   4.233   4.594
56380W        W21541  12.325  31.981   3.149
56381W        W21542   2.320  21.936  10.633
56382W        W21543   2.803  17.183   0.325
56383W        W21544  30.088  17.583  11.021
56384W        W21545  44.874   8.133  12.015
56385W        W21546   9.907   6.415   4.560
56386W        W21547  23.173  39.270   1.234
56387W        W21548  20.153  36.093  14.527
56388W        W21549  26.735  34.588  10.889
56389W        W21550  13.304  39.744   2.833
56390W        W21551  26.252  40.428   2.708
56391W        W21552  28.781  18.757   0.119
56392W        W21553  23.167  42.972   0.598
56393W        W21554  31.827  42.322   2.238
56394W        W21555  44.055  10.639   3.783
56395W        W21556  14.112  17.208  13.456
56396W        W21557  19.632   2.592   2.736
56397W        W21558  11.840  19.454  14.284
56398W        W21559  42.876  11.584   0.025
56399W        W21560   4.015  24.585   2.897
56400W        W21561  26.561   7.272   1.626
56401W        W21562   6.747  17.263   1.908
56402W        W21563  43.458  27.655  14.035
56403W        W21564  31.111   7.451   4.637
56404W        W21565  16.104   1.403  12.083
56405W        W21566  42.383  28.885  12.170
56406W        W21567   7.885   4.731   0.696
56407W        W21568  16.887  15.031  10.638
56408W        W21569  40.746  19.761  12.757
56409W        W21570   1.874  27.507   0.431
56410W        W21571  22.774   7.254   1.818
56411W        W21572  21.012  31.544   3.746
56412W        W21573  40.363  34.108  14.762
56413W        W21574  22.045  37.550   4.802
56414W        W21575  21.228  25.059  13.839
56415W        W21576   1.253   2.329   4.376
56416W        W21577  22.736  13.947  11.011
56417W        W21578  16.188   1.807   3.314
56418W        W21579   4.472  43.172   4.182
56419W        W21580  29.610   8.191  10.703
56420W        W21581   1.756   6.692   2.173
56421W        W21582   5.929  32.059  13.327
56422W        W21583  22.212  38.980  10.153
56423W        W21584  11.277   4.409   1.162
56424W        W21585   6.966   3.838   0.795
56425W        W21586  22.546  16.194   4.072
56426W        W21587  35.023  24.883   0.287
56427W        W21588  39.443  32.138  10.973
56428W        W21589   1.771  25.627  12.326
56429W        W21590  41.499  28.829   1.660
56430W        W21591   7.858  10.642   0.431
56431W        W21592  11.595  14.775  12.998
56432W        W21593  23.169  12.215   0.976
56433W        W21594   6.441  18.723   1.251
56434W        W21595  14.173  23.813   1.226
56435W        W21596  30.660  19.059   3.596
56436W        W21597  41.264  16.152   4.166
56437W        W21598  12.893   6.649  10.603
56438W        W21599  34.567  22.050   4.210
56439W        W21600  21.205  27.369   1.295
56440W        W21601  34.405  28.922   1.201
56441W        W21602   5.854  31.664   5.030
56442W        W21603  36.274  11.710   4.851
56443W        W21604  41.428  33.254  10.704
56444W        W21605  16.202   0.784   0.981
56445W        W21606  29.694  30.963   0.927
56446W        W21607   2.766  29.041   1.252
56447W        W21608  10.108   6.439   1.903
56448W        W21609  14.393  25.554  12.825
56449W        W21610  27.478  42.515  11.529
56450W        W21611  27.405   5.833  14.285
56451W        W21612  26.593  14.614  13.563
56452W        W21613  37.993  29.965  12.954
56453W        W21614  30.387  13.418   1.851
56454W        W21615   7.305  29.681  12.828
56455W        W21616  20.607  11.091  11.626
56456W        W21617  12.280   7.648  12.438
56457W        W21618  35.618  28.992  10.449
56458W        W21619  23.713   7.026   1.738
56459W        W21620  26.953   1.406   2.840
56460W        W21621  37.052  41.609   4.448
56461W        W21622  17.318  30.552  12.082
56462W        W21623   8.249   0.719  11.531
56463W        W21624   1.436  24.914  12.563
56464W        W21625  17.262  24.589  13.584
56465W        W21626  16.522   1.737   0.095
56466W        W21627  38.392   4.172  12.810
56467W        W21628   3.943  35.039   3.588
56468W        W21629   0.212  42.769   0.421
56469W        W21630  17.516  37.047   4.163
56470W        W21631  34.482  32.520   4.274
56471W        W21632   7.564  21.299   2.340
56472W        W21633  41.110  37.419   1.285
56473W        W21634  17.585  22.444   4.896
56474W        W21635   0.791   0.443  11.667
56475W        W21636  31.598   9.460  14.584
56476W        W21637   8.330  35.353   2.322
56477W        W21638  25.502  41.437   2.284
56478W        W21639  37.255  29.892   1.286
56479W        W21640  39.050   7.239  11.245
56480W        W21641   3.145  20.322  14.258
56481W        W21642  25.189  23.114   3.186
56482W        W21643   3.449  37.654  14.220
56483W        W21644   9.275  30.276   2.712
56484W        W21645  31.871  21.132  12.049
56485W        W21646  39.341  20.179  12.612
56486W        W21647  14.643   3.994  13.971
56487W        W21648  44.035   1.827   2.598
56488W        W21649   2.944  21.767  11.486
56489W        W21650  10.119   5.786  10.626
56490W        W21651  21.024   5.361  12.704
56491W        W21652  10.292  19.304   2.770
56492W        W21653  14.105  41.781   1.849
56493W        W21654  42.380  27.413   2.737
56494W        W21655   9.099  25.612   4.123
56495W        W21656  36.978   8.794  10.775
56496W        W21657  42.149  21.282  13.015
56497W        W21658  30.814   3.871  11.651
56498W        W21659  34.390   6.673  14.372
56499W        W21660  12.853  30.200   0.004
56500W        W21661  34.221  31.899   3.732
56501W        W21662  12.741  33.456  10.581
56502W        W21663  16.478  42.743   0.307
56503W        W21664  28.641   3.749  13.834
56504W        W21665  15.912  28.273   4.249
56505W        W21666  12.983  32.410  14.387
56506W        W21667  38.992  37.894  13.915
56507W        W21668  20.527  28.164  11.583
56508W        W21669   4.830  22.053   4.174
56509W        W21670  43.308  12.286   1.748
56510W        W21671  24.302   2.914  11.099
56511W        W21672  22.684  14.043  14.924
56512W        W21673  14.779  20.599   4.110
56513W        W21674   7.867  42.320  10.705
56514W        W21675  43.814  14.645   0.425
56515W        W21676  10.269  13.809  10.659
56516W        W21677  21.726  35.456   0.799
56517W        W21678  33.402  37.799  12.414
56518W        W21679  32.145  25.179   0.378
56519W        W21680  11.525  17.058   1.019
56520W        W21681  40.434  28.286  11.305
56521W        W21682   8.680  41.565  14.927
56522W        W21683  24.424  41.417  12.547
56523W        W21684   3.300  19.828  11.122
56524W        W21685  12.258  29.347  11.633
56525W        W21686  28.879  39.555   2.897
56526W        W21687  15.717  42.836   3.520
56527W        W21688  42.028  31.523  10.887
56528W        W21689  43.345  34.949   2.207
56529W        W21690   4.767  11.570  11.572
56530W        W21691   8.694  11.648   3.711
56531W        W21692  31.439  16.325  11.329
56532W        W21693  18.885  38.235  11.124
56533W        W21694  42.246  11.602  11.194
56534W        W21695   0.183   0.655  11.091
56535W        W21696  20.698  43.534   2.021
56536W        W21697   1.677  11.360   0.679
56537W        W21698  20.052  29.170   3.747
56538W        W21699   5.677   7.192   4.666
56539W        W21700  28.164   0.184  14.912
56540W        W21701  40.798  25.150   3.304
56541W        W21702  41.449  39.767   2.329
56542W        W21703  20.643  11.606  11.647
56543W        W21704  33.324  22.731   0.681
56544W        W21705  37.221  17.984  12.892
56545W        W21706  16.696   2.531   3.467
56546W        W21707  10.236  40.999   3.740
56547W        W21708  33.750  17.326   2.319
56548W        W21709  15.574  18.716  13.929
56549W        W21710  37.923  20.024  13.384
56550W        W21711  32.809  34.604  10.946
56551W        W21712  34.476  12.227  12.481
56552W        W21713  16.695   8.443  11.230
56553W        W21714  34.516  37.910  11.578
56554W        W21715  33.650  14.650   1.710
56555W        W21716  13.039  26.417  14.807
56556W        W21717   5.432   7.227   2.962
56557W        W21718  21.581  42.360  13.009
56558W        W21719  18.251   2.281   3.744
56559W        W21720   2.146  10.708   4.704
56560W        W21721  14.204   9.397   2.469
56561W        W21722   7.779  21.033  10.846
56562W        W21723  16.325  37.595  13.613
56563W        W21724   0.635  13.162   0.815
56564W        W21725   7.179  31.720  14.529
56565W        W21726   6.166  34.486   2.196
56566W        W21727  13.319  25.445   4.077
56567W        W21728  27.075  20.576  13.563
56568W        W21729  24.795   0.212   4.130
56569W        W21730   6.742  23.235  14.473
56570W        W21731   6.796  23.274   3.233
56571W        W21732  33.508  39.563  13.104
56572W        W21733  43.305  41.111  12.569
56573W        W21734  32.907  44.094  10.247
56574W        W21735  28.682  30.310  14.889
56575W        W21736  36.150  38.887  11.136
56576W        W21737  15.901  35.336   0.803
56577W        W21738  19.030  17.843   1.811
56578W        W21739  32.977  37.068  13.670
56579W        W21740   0.434  36.131  14.329
56580W        W21741  17.747  10.331  13.940
56581W        W21742   5.442  27.552  12.575
56582W        W21743  24.059  41.799  13.983
56583W        W21744  43.873  12.177  13.524
56584W        W21745   5.947  34.101   0.947
56585W        W21746  27.937  19.262  11.999
56586W        W21747  17.126  28.585   2.887
56587W        W21748  29.073  16.643  12.045
56588W        W21749  34.003  22.607  14.046
56589W        W21750  15.123  22.033  13.348
56590W        W21751  10.334   5.722  11.107
56591W        W21752   7.871  23.644  12.986
56592W        W21753  34.982  10.945  12.628
56593W        W21754   6.762   5.056  11.993
56594W        W21755   4.996  36.092   3.643
56595W        W21756   6.486  34.870   0.012
56596W        W21757  10.110  31.535  12.592
56597W        W21758  39.474  42.062   0.137
56598W        W21759  19.957   8.832   0.453
56599W        W21760  24.491  13.766  11.628
56600W        W21761  23.193  20.240   1.155
56601W        W21762  25.481  18.691   4.151
56602W        W21763  11.576  13.284   4.876
56603W        W21764  14.167   9.256   1.825
56604W        W21765   7.143  23.851  12.110
56605W        W21766  33.482  27.924  10.865
56606W        W21767  38.551   9.773   2.749
56607W        W21768  33.971  31.550  11.070
56608W        W21769  15.405  22.919   2.767
56609W        W21770  24.642  37.972  13.312
56610W        W21771  17.758  14.226   0.424
56611W        W21772  21.239  39.101  13.586
56612W        W21773  27.049  44.217   1.450
56613W        W21774  39.846  38.967   9.764
56614W        W21775   4.708  32.102   0.898
56615W        W21776  35.972  29.476  10.874
56616W        W21777  27.999   8.745   4.900
56617W        W21778  25.537  42.491  13.362
56618W        W21779  18.354  12.911   0.331
56619W        W21780  16.781  34.079  13.568
56620W        W21781  19.327  33.421   4.541
56621W        W21782  35.866  24.975   4.394
56622W        W21783  32.130   3.725   4.577
56623W        W21784  34.937   6.810   1.802
56624W        W21785  39.487   0.006   3.713
56625W        W21786  28.678  27.648   3.147
56626W        W21787  23.650  36.625  13.842
56627W        W21788  14.309  28.729  12.531
56628W        W21789  40.856  31.026  12.088
56629W        W21790  42.761   7.315  12.901
56630W        W21791  34.785  39.796  12.014
56631W        W21792  24.218  35.531  14.507
56632W        W21793  17.047  25.704   0.728
56633W        W21794  37.578   5.203   1.936
56634W        W21795   2.811  34.000  10.371
56635W        W21796   7.148  36.570   4.754
56636W        W21797  29.742  13.149   0.884
56637W        W21798   9.359  17.183  10.731
56638W        W21799  36.014  43.394  14.265
56639W        W21800   4.994  19.624  13.830
56640W        W21801  26.005  18.030  12.923
56641W        W21802  44.977  27.932  11.495
56642W        W21803  18.255  25.530   1.993
56643W        W21804  31.505  37.601   3.636
56644W        W21805  39.806   1.976  12.669
56645W        W21806  24.689  35.272  12.878
56646W        W21807   1.440  33.845  11.152
56647W        W21808  26.052  19.751  13.639
56648W        W21809  10.263  22.329  12.857
56649W        W21810  35.615  15.160   1.195
56650W        W21811  33.682  17.739   0.260
56651W        W21812  11.886  34.201  14.455
56652W        W21813   9.914   4.161  13.976
56653W        W21814  40.890   8.143   2.847
56654W        W21815  35.844   3.866   1.105
56655W        W21816  16.500  44.439  12.546
56656W        W21817  33.077   3.381  13.431
56657W        W21818   9.901  36.433  10.661
56658W        W21819  17.974  14.514  10.210
56659W        W21820   8.844  34.377  13.911
56660W        W21821  18.507   1.806   3.818
56661W        W21822   6.603  22.634   3.824
56662W        W21823  34.527  37.527   1.021
56663W        W21824  18.533  28.860  14.467
56664W        W21825  17.473  15.713   3.289
56665W        W21826   5.821  42.587  13.370
56666W        W21827  36.958  11.105  12.194
56667W        W21828  16.321  42.557  13.363
56668W        W21829  13.131   5.304  10.644
56669W        W21830  37.773  31.463   3.303
56670W        W21831  31.938  12.460   4.238
56671W        W21832  13.270  18.630  10.871
56672W        W21833  41.541   9.192  14.099
56673W        W21834  23.269  13.348   0.775
56674W        W21835   4.151   8.104  11.991
56675W        W21836  20.612  11.613   0.432
56676W        W21837   5.281  39.997   1.123
56677W        W21838   7.455  36.272  14.423
56678W        W21839   6.010  28.990   0.758
56679W        W21840  12.146  27.400   4.202
56680W        W21841  35.781  20.279  13.115
56681W        W21842  13.189  43.077   1.386
56682W        W21843   7.616  17.205   1.781
56683W        W21844  42.482  16.079   3.407
56684W        W21845  36.862  24.160  12.330
56685W        W21846  13.890   4.229   3.075
56686W        W21847  30.690  35.090  11.218
56687W        W21848  27.421   3.391  14.587
56688W        W21849  24.368  29.151  10.984
56689W        W21850  31.713  26.206   0.800
56690W        W21851  24.081  24.162   4.612
56691W        W21852   2.414  23.073   2.479
56692W        W21853  36.289   4.394   4.173
56693W        W21854  15.245  11.418   4.288
56694W        W21855   6.847  41.453  14.759
56695W        W21856   6.016  25.005  11.521
56696W        W21857  16.107  35.834  11.884
56697W        W21858  35.090  34.090   4.527
56698W        W21859  20.139  29.170   0.049
56699W        W21860  17.280   0.029   2.380
56700W        W21861  34.188  11.395  12.331
56701W        W21862  31.239   1.353   3.688
56702W        W21863  43.887  24.969   3.394
56703W        W21864  25.450  31.178   4.341
56704W        W21865   9.948  23.293  10.883
56705W        W21866  43.502  17.053  14.827
56706W        W21867   8.355   8.114   4.157
56707W        W21868  11.671   4.961  10.098
56708W        W21869   9.728  32.402   4.620
56709W        W21870  20.814   1.075   3.123
56710W        W21871  22.015  24.577   1.787
56711W        W21872   9.810  13.563  10.711
56712W        W21873  11.387   4.112   3.186
56713W        W21874  31.574   6.074  12.673
56714W        W21875  27.864  36.595  10.700
56715W        W21876  33.136  33.292  14.609
56716W        W21877  24.070  16.615  11.614
56717W        W21878   9.718  11.256  12.372
56718W        W21879  39.224   0.050  14.928
56719W        W21880   2.945  35.958   1.841
56720W        W21881  27.658  19.999  11.202
56721W        W21882  27.511   0.098  10.616
56722W        W21883  17.077  26.256  11.501
56723W        W21884  33.845   5.247   0.399
56724W        W21885  36.263  13.223  10.644
56725W        W21886  15.891   0.140   2.224
56726W        W21887   6.154  29.449  12.552
56727W        W21888  24.809  21.606  10.011
56728W        W21889  37.338   1.412  12.092
56729W        W21890  43.369  33.666  11.512
56730W        W21891   3.039   9.852  12.598
56731W        W21892  19.701  32.362  13.421
56732W        W21893  19.098  41.562   0.782
56733W        W21894   5.154  40.449  11.773
56734W        W21895  42.712   4.381   3.215
56735W        W21896  37.452  10.534   1.856
56736W        W21897  15.605  44.016   3.607
56737W        W21898  40.911   9.782   2.025
56738W        W21899   9.485  29.108   3.688
56739W        W21900  20.557  42.999  11.453
56740W        W21901  13.844  22.928   2.416
56741W        W21902  19.801  30.456   4.321
56742W        W21903  22.563  11.552  13.678
56743W        W21904  22.906   8.881   0.251
56744W        W21905  34.363   2.546   2.439
56745W        W21906   7.999   6.833  14.719
56746W        W21907  34.826   6.025  14.815
56747W        W21908  31.365  34.132  11.838
56748W        W21909  32.804  14.408   3.983
56749W        W21910   9.796  16.622  13.140
56750W        W21911  11.801   8.865   0.249
56751W        W21912  20.279  24.470  14.772
56752W        W21913  32.942   1.637   0.237
56753W        W21914  34.342  17.241   3.572
56754W        W21915   0.795  36.484  12.562
56755W        W21916  33.995   2.056   4.526
56756W        W21917  25.756  19.935  10.248
56757W        W21918  14.326  12.338   2.668
56758W        W21919  40.315   7.772   0.293
56759W        W21920   7.700  23.137  12.995
56760W        W21921   7.806  32.282  14.950
56761W        W21922  44.845  22.338   2.445
56762W        W21923  15.574  44.470   4.579
56763W        W21924  35.991  31.827   3.599
56764W        W21925  29.825   6.470  14.725
56765W        W21926  41.936  42.688  12.552
56766W        W21927  40.366  41.494   1.778
56767W        W21928  41.878  30.397  14.118
56768W        W21929   2.772   9.718  14.879
56769W        W21930   6.173  13.319   3.877
56770W        W21931  15.989   8.752   4.559
56771W        W21932  40.922  40.580  13.601
56772W        W21933  22.581  44.426   0.927
56773W        W21934  14.963  13.795   2.226
56774W        W21935  44.884  38.528   3.687
56775W        W21936  16.795  25.169   1.918
56776W        W21937  38.266  10.125  11.575
56777W        W21938   7.345  19.458   1.294
56778W        W21939  14.688  40.901  12.504
56779W        W21940  39.518  20.467   1.366
56780W        W21941  40.228  11.628   0.901
56781W        W21942  33.789   1.800  12.084
56782W        W21943  25.733  34.110  13.775
56783W        W21944  36.161  10.205   0.005
56784W        W21945  32.162   0.502   0.275
56785W        W21946   2.329  33.087  13.851
56786W        W21947  35.344  23.797  13.848
56787W        W21948   8.619  12.293   0.202
56788W        W21949  37.885  31.133   1.686
56789W        W21950  25.442  30.901  13.308
56790W        W21951   2.876  38.299   3.827
56791W        W21952  22.525  35.843  13.404
56792W        W21953  23.638  19.947  14.467
56793W        W21954   1.348  21.208   1.913
56794W        W21955   9.187   1.074  14.401
56795W        W21956  36.548  35.032  14.142
56796W        W21957   1.636  25.635  10.134
56797W        W21958  35.116  13.533   0.093
56798W        W21959   1.659  24.093   1.858
56799W        W21960  16.160  36.912  13.816
56800W        W21961   9.757   8.782   4.390
56801W        W21962  11.665  10.534   4.742
56802W        W21963  12.533  11.191  12.877
56803W        W21964   4.263   1.955   3.290
56804W        W21965  40.326  22.434   4.103
56805W        W21966   0.868  39.442   9.824
56806W        W21967  14.091  12.877  12.016
56807W        W21968  17.976  23.733   3.406
56808W        W21969  10.549  26.030   0.254
56809W        W21970  19.165  37.445   4.866
56810W        W21971  15.497  36.538   3.672
56811W        W21972   0.242  33.380   9.759
56812W        W21973   2.743  19.384   2.257
56813W        W21974   9.824  26.381   2.232
56814W        W21975  30.504  25.455   1.912
56815W        W21976  36.042  21.559   2.729
56816W        W21977  28.289  40.554  13.351
56817W        W21978  25.299   8.622   3.621
56818W        W21979  17.739  21.399   5.232
56819W        W21980   2.943  23.404  12.252
56820W        W21981  27.650  26.216   2.815
56821W        W21982  19.733   8.110   1.950
56822W        W21983  19.506  25.023   1.807
56823W        W21984  42.868  27.590  12.832
56824W        W21985  40.321  23.846   2.633
56825W        W21986  43.549  17.301   3.229
56826W        W21987   8.862  36.962  13.950
56827W        W21988  10.625   2.476   3.597
56828W        W21989   1.785  16.718  13.537
56829W        W21990  36.515  36.932   4.030
56830W        W21991  20.481  28.029   0.477
56831W        W21992  42.936   5.196   2.822
56832W        W21993   4.658  30.895   2.722
56833W        W21994  13.735  28.869  14.769
56834W        W21995  19.186  30.623   4.699
56835W        W21996  34.514  25.728  10.646
56836W        W21997  36.607  38.531   2.850
56837W        W21998   6.795  12.973   1.653
56838W        W21999  38.359  19.196   2.654
56839W        W22000  30.852  26.183  12.534
56840W        W22001  40.969  17.826   4.533
56841W        W22002   3.775   0.559  11.752
56842W        W22003   1.561  31.984   5.005
56843W        W22004  28.073  17.418  12.104
56844W        W22005  10.805  31.195  13.140
56845W        W22006  41.623  30.214   3.214
56846W        W22007   8.738   8.211  10.728
56847W        W22008   2.381  36.514   4.705
56848W        W22009  42.024   0.471  14.284
56849W        W22010  22.078  35.069   1.493
56850W        W22011  27.948   1.879  11.954
56851W        W22012  15.303  22.564   1.444
56852W        W22013  26.007   8.176  12.403
56853W        W22014  24.084  14.328  12.071
56854W        W22015  14.112  26.696   0.635
56855W        W22016  37.667  40.502  10.406
56856W        W22017  16.097   5.860   0.525
56857W        W22018  11.827  30.425   4.616
56858W        W22019   6.361  30.790  10.386
56859W        W22020  25.140  16.525   1.948
56860W        W22021  44.898  16.024   3.617
56861W        W22022  27.199  11.899   3.101
56862W        W22023  44.118  10.208   0.351
56863W        W22024   6.670   8.424  11.547
56864W        W22025   2.396  25.324  10.593
56865W        W22026  34.650  31.491   1.783
56866W        W22027  18.022  12.397  13.337
56867W        W22028  29.606  10.752  10.063
56868W        W22029  11.617  28.043   2.345
56869W        W22030  39.118  27.104  11.665
56870W        W22031  13.121  31.169  13.449
56871W        W22032  24.033  17.225  13.801
56872W        W22033  16.581  35.992  13.533
56873W        W22034  25.416   8.285   0.904
56874W        W22035  11.817  25.660   0.537
56875W        W22036  39.000   4.217   0.028
56876W        W22037  43.332  19.558   2.596
56877W        W22038  14.328  38.824   3.391
56878W        W22039  32.585  29.579  14.790
56879W        W22040   7.186  39.904  14.860
56880W        W22041  33.279  27.621   0.444
56881W        W22042  13.262  13.762   2.690
56882W        W22043   8.994  22.986   3.343
56883W        W22044   3.454  35.319  14.838
56884W        W22045  35.498  39.147   3.646
56885W        W22046  29.506  28.255  11.574
56886W        W22047  24.912   9.200   3.343
56887W        W22048  12.702  37.736   1.367
56888W        W22049  13.731  35.319  11.987
56889W        W22050  39.844  33.830  14.764
56890W        W22051   3.891   7.744  12.858
56891W        W22052  28.401  36.861  11.992
56892W        W22053  22.689  30.880  12.486
56893W        W22054  33.873   1.740   0.933
56894W        W22055  14.835  10.996   1.473
56895W        W22056  14.486  35.934  14.783
56896W        W22057  34.638  42.515   0.827
56897W        W22058   4.770   3.344  11.121
56898W        W22059   3.811   9.425   1.104
56899W        W22060  37.546  26.412  14.646
56900W        W22061  17.093  18.930  11.123
56901W        W22062  24.892  36.346   0.398
56902W        W22063  19.068  43.885   1.953
56903W        W22064  26.653   6.907   0.997
56904W        W22065  10.322  24.702   4.568
56905W        W22066  15.373  20.778   0.975
56906W        W22067  21.906  21.649   2.925
56907W        W22068   2.245   7.001   3.506
56908W        W22069  42.724  20.555  14.409
56909W        W22070  40.333  19.953  12.468
56910W        W22071   5.054  36.180  12.611
56911W        W22072  16.786  32.387  12.148
56912W        W22073   1.350  19.571   0.394
56913W        W22074  11.735  14.575   3.249
56914W        W22075  16.727  26.731  12.287
56915W        W22076  22.422  39.076  11.571
56916W        W22077   5.149  39.231   3.309
56917W        W22078  18.143  17.697   2.183
56918W        W22079  13.408  21.887   0.358
56919W        W22080  28.060  30.719  13.480
56920W        W22081  33.100  36.474  11.274
56921W        W22082  33.384  19.549   0.549
56922W        W22083  11.873  32.962   1.904
56923W        W22084  31.843  41.594  11.339
56924W        W22085  23.656  31.945   3.390
56925W        W22086  13.909  34.032  13.778
56926W        W22087  32.492  29.144  12.966
56927W        W22088  29.920  19.709  14.979
56928W        W22089   5.887  21.504  11.965
56929W        W22090  34.757   1.245   0.969
56930W        W22091  34.186   2.818  14.316
56931W        W22092  21.322  39.857   3.666
56932W        W22093  24.906  41.351   0.681
56933W        W22094  17.804  37.540   0.841
56934W        W22095   4.691  26.729  14.240
56935W        W22096  21.530  21.092  14.246
56936W        W22097  39.804  36.798  11.310
56937W        W22098  37.333  34.651   2.962
56938W        W22099  40.028   6.389  12.542
56939W        W22100   8.050  30.958   1.833
56940W        W22101  30.402   4.902  14.540
56941W        W22102   5.918  31.888  12.476
56942W        W22103   4.055  20.502   1.419
56943W        W22104  20.729  24.683  14.530
56944W        W22105  17.313  37.880   0.211
56945W        W22106  34.887  35.053   3.226
56946W        W22107  39.450  43.895  11.567
56947W        W22108  14.969  32.901  10.741
56948W        W22109  41.987  19.723   1.627
56949W        W22110  18.271  36.316  12.510
56950W        W22111  16.879  22.601   2.795
56951W        W22112   3.899  13.672  14.879
56952W        W22113  23.187  44.246  13.123
56953W        W22114  44.611  33.293   2.226
56954W        W22115  39.812  33.314   0.773
56955W        W22116   1.558   0.002  12.949
56956W        W22117  30.066  38.484   5.661
56957W        W22118  27.736  36.072   5.343
56958W        W22119  20.293  14.635   0.776
56959W        W22120  41.276  44.039  13.583
56960W        W22121  31.931  29.014   0.802
56961W        W22122  24.137  25.182  14.923
56962W        W22123  34.558  11.833   1.968
56963W        W22124   3.923  36.746   1.451
56964W        W22125  15.430  29.528   3.719
56965W        W22126  19.757   5.153  11.603
56966W        W22127  12.933  21.229   1.380
56967W        W22128  24.641   4.423  11.113
56968W        W22129  16.014  43.433  13.075
56969W        W22130   6.874   3.673  13.522
56970W        W22131  21.261  34.000  13.100
56971W        W22132   6.152  12.538   2.737
56972W        W22133   5.986  20.674  11.468
56973W        W22134  33.224   2.569   0.380
56974W        W22135  15.309  39.769   0.357
56975W        W22136   1.885   3.450  13.492
56976W        W22137  27.249  33.215   2.734
56977W        W22138  30.046  32.423   2.236
56978W        W22139   9.374   0.969  12.998
56979W        W22140  28.233   9.341  13.131
56980W        W22141  27.713  20.082   1.010
56981W        W22142  15.679  13.244   2.344
56982W        W22143  17.775  11.333   1.491
56983W        W22144   0.002  21.017   3.188
56984W        W22145  39.580  28.098  14.437
56985W        W22146  31.675  24.655   5.016
56986W        W22147  24.966  13.878   0.337
56987W        W22148  29.475  30.038  13.714
56988W        W22149  28.084  43.097   3.606
56989W        W22150   8.905  31.369  14.552
56990W        W22151  30.600  19.472  13.508
56991W        W22152  28.679  40.948   3.018
56992W        W22153  39.820  10.367  14.437
56993W        W22154  12.299   9.408   2.892
56994W        W22155   0.734  15.263   1.510
56995W        W22156   4.273   0.364  11.620
56996W        W22157  14.868  32.504  14.795
56997W        W22158  23.109  14.656   2.373
56998W        W22159  16.829  11.148   0.540
56999W        W22160  31.921  37.929   2.199
57000W        W22161  37.196  33.673  14.853
57001W        W22162  42.017   9.112   2.414
57002W        W22163  31.091  22.941   0.278
57003W        W22164   5.302  41.677  10.318
57004W        W22165  12.729  43.454  11.994
57005W        W22166  35.472   4.852  14.607
57006W        W22167   1.987  25.749   1.363
57007W        W22168  11.161  28.665   4.359
57008W        W22169  10.479  25.797   3.729
57009W        W22170   2.431  22.482  13.423
57010W        W22171  31.666   0.897   2.462
57011W        W22172   2.297  40.744  11.931
57012W        W22173   3.342  29.976  14.567
57013W        W22174  44.899  26.470   1.947
57014W        W22175  30.614  29.316  10.652
57015W        W22176  12.326  14.695   2.195
57016W        W22177  42.235  21.064   0.653
57017W        W22178   2.863  16.612  10.194
57018W        W22179  44.807  16.313  10.860
57019W        W22180  23.719   5.454  11.503
57020W        W22181   5.711  32.118   4.532
57021W        W22182  10.403  11.338  10.021
57022W        W22183  41.582  34.382   2.661
57023W        W22184  14.515  26.375   0.642
57024W        W22185   2.166   5.522  10.326
57025W        W22186  15.716   4.826   3.211
57026W        W22187   9.814  27.322   0.357
57027W        W22188  21.598  15.943   4.026
57028W        W22189  34.900  41.452   3.720
57029W        W22190  28.087   1.801  12.871
57030W        W22191  30.068  14.320   4.913
57031W        W22192  13.787  14.378   2.883
57032W        W22193  24.437   4.519   1.170
57033W        W22194  40.521   5.908   4.376
57034W        W22195  41.084  18.106   3.228
57035W        W22196  22.101  13.717  12.114
57036W        W22197   6.140   9.286   4.880
57037W        W22198  25.919  15.584  14.843
57038W        W22199  35.017  38.711  14.922
57039W        W22200  10.694   1.693  10.344
57040W        W22201  44.541  24.121   0.766
57041W        W22202   2.809  32.611   2.751
57042W        W22203  32.893  39.966   1.862
57043W        W22204  11.741  19.499  13.346
57044W        W22205  43.519  18.720   4.220
57045W        W22206  38.104  22.157   1.611
57046W        W22207  31.516  44.439   0.880
57047W        W22208  30.121  39.973   0.828
57048W        W22209  10.816  27.344  11.162
57049W        W22210  24.822  17.119   1.273
57050W        W22211  28.751  18.207  13.336
57051W        W22212  33.836   4.976   2.834
57052W        W22213  23.288  38.803  14.501
57053W        W22214  20.595  11.887  12.099
57054W        W22215  29.064  37.860   1.876
57055W        W22216   9.223  22.972   2.438
57056W        W22217   2.852  27.446  13.333
57057W        W22218  39.060  27.668  14.633
57058W        W22219  33.748  27.489  10.684
57059W        W22220   5.160   8.737  13.915
57060W        W22221  18.053   0.478   2.371
57061W        W22222  27.611  39.309   0.953
57062W        W22223  12.756  33.141  13.974
57063W        W22224   3.400   6.774   3.809
57064W        W22225  21.061   0.953  13.946
57065W        W22226  14.544  39.522  10.720
57066W        W22227  39.453  29.885  14.284
57067W        W22228  15.874  15.234   0.263
57068W        W22229  22.030  11.929   4.211
57069W        W22230   4.811   0.780  14.267
57070W        W22231  28.551  23.277  11.337
57071W        W22232  35.331  27.247   1.564
57072W        W22233  23.468  17.202   1.449
57073W        W22234  27.941   1.171   3.063
57074W        W22235  35.174  31.579   3.722
57075W        W22236  22.703  20.246  13.554
57076W        W22237   3.194  15.702  12.091
57077W        W22238  31.097  10.390   2.500
57078W        W22239  13.245  15.596  12.397
57079W        W22240   1.698  14.665   1.811
57080W        W22241  15.314   6.253   2.645
57081W        W22242  14.844  41.511  11.175
57082W        W22243  39.520  30.510  13.420
57083W        W22244   5.043  18.766  13.361
57084W        W22245  15.548  20.223  10.629
57085W        W22246  26.460  43.985  13.296
57086W        W22247  25.906   9.756   2.306
57087W        W22248   0.259  43.468   0.836
57088W        W22249  34.460  24.962  12.978
57089W        W22250   8.603  21.187   3.695
57090W        W22251  27.398  29.156  13.882
57091W        W22252   3.682  44.521   2.239
57092W        W22253  37.613  44.153   2.646
57093W        W22254   0.490  27.466   2.841
57094W        W22255  34.125  19.358  14.991
57095W        W22256   3.416  40.191  14.018
57096W        W22257  44.959  40.541   2.419
57097W        W22258  31.043   8.891   1.332
57098W        W22259  29.134  32.357  13.816
57099W        W22260  31.152  37.577   3.211
57100W        W22261  23.225  38.283   4.767
57101W        W22262  15.333  10.212  11.939
57102W        W22263  25.090  35.780  13.040
57103W        W22264  35.261  33.159   2.687
57104W        W22265  26.124  31.216   2.698
57105W        W22266  16.081  10.426   1.259
57106W        W22267  10.233   8.707   2.455
57107W        W22268  41.878  15.737   4.559
57108W        W22269  11.497  17.951  12.461
57109W        W22270  26.949  38.484   2.657
57110W        W22271  37.359   7.080  13.889
57111W        W22272  22.745  23.660   1.270
57112W        W22273  24.711  28.745   1.403
57113W        W22274   7.745  30.896  14.201
57114W        W22275  31.304  32.177  14.337
57115W        W22276  34.887  10.061  13.034
57116W        W22277  25.655  10.168  11.911
57117W        W22278  16.688   3.992  14.931
57118W        W22279  11.477  35.419  13.260
57119W        W22280  42.458   6.734  11.686
57120W        W22281  27.854  39.944  12.182
57121W        W22282  28.672   1.888   4.376
57122W        W22283  28.353  29.537  10.043
57123W        W22284  12.696  29.980   2.685
57124W        W22285  44.683  34.507   1.503
57125W        W22286   5.256  27.154   1.228
57126W        W22287   3.156   0.953  11.542
57127W        W22288  28.207  10.944   2.891
57128W        W22289  29.988   8.666   0.839
57129W        W22290  15.885  39.239  14.319
57130W        W22291  17.516  39.389   2.447
57131W        W22292  31.522  21.208  11.194
57132W        W22293  31.886  33.170   1.856
57133W        W22294  19.221  21.763   4.332
57134W        W22295   6.034  32.664   4.892
57135W        W22296  16.243  19.763   0.051
57136W        W22297  22.516   4.269   0.971
57137W        W22298   2.210  44.310   4.657
57138W        W22299  31.543  26.145  14.416
57139W        W22300   1.311  34.924  12.957
57140W        W22301  20.019  36.023   4.563
57141W        W22302  43.801  25.586  14.259
57142W        W22303   8.991  42.076   0.275
57143W        W22304  17.354  38.899   4.171
57144W        W22305   7.776   2.873   3.632
57145W        W22306   5.092   9.640  11.524
57146W        W22307  23.137  15.026   4.866
57147W        W22308  10.727   9.710   4.236
57148W        W22309  18.840  27.956  12.466
57149W        W22310   0.010  28.434   4.643
57150W        W22311  19.219  16.907   2.833
57151W        W22312  39.278  21.259  13.384
57152W        W22313  41.765  36.614   4.542
57153W        W22314  11.668  41.500   1.853
57154W        W22315  29.066  39.065  12.886
57155W        W22316  12.288  18.498   2.281
57156W        W22317   1.540   6.467  12.588
57157W        W22318  22.486  31.550  11.091
57158W        W22319  32.045  39.634   1.856
57159W        W22320  26.462  41.015  11.555
57160W        W22321   4.231  21.690  11.159
57161W        W22322  16.572  34.525  12.039
57162W        W22323  32.496   8.261   1.396
57163W        W22324   0.389  44.016  12.865
57164W        W22325   7.685   6.903  12.388
57165W        W22326  24.547  25.127   1.772
57166W        W22327  13.202  36.655   1.689
57167W        W22328   2.543   3.255   0.945
57168W        W22329  32.153   6.989   4.396
57169W        W22330   5.877  13.304   2.068
57170W        W22331  33.403  15.563  14.527
57171W        W22332  26.144  33.811  12.402
57172W        W22333   8.799  39.013  12.465
57173W        W22334   2.834   9.559   3.181
57174W        W22335  43.702  37.880  11.613
57175W        W22336   2.060  21.773  14.825
57176W        W22337  14.798  24.033  14.456
57177W        W22338  23.635  15.072   1.753
57178W        W22339  28.095  21.385  13.421
57179W        W22340  38.936  35.493  12.158
57180W        W22341  42.359  33.027   4.804
57181W        W22342  22.252  28.988   4.439
57182W        W22343  28.121  29.530   0.314
57183W        W22344  13.154   8.571  13.634
57184W        W22345  15.307   0.291  13.973
57185W        W22346  25.914  41.236  12.548
57186W        W22347   1.972   6.184  12.799
57187W        W22348  27.427  33.775   0.819
57188W        W22349   5.441  17.823   3.873
57189W        W22350  31.935  11.935  14.078
57190W        W22351  40.828  40.457  10.732
57191W        W22352  36.686  26.629   5.085
57192W        W22353   7.815  21.670   3.757
57193W        W22354   5.919  12.068   1.926
57194W        W22355  34.526  11.310   4.560
57195W        W22356  14.355  32.445  13.569
57196W        W22357  24.751  42.865   3.265
57197W        W22358  17.710   4.193   4.903
57198W        W22359  33.052  34.521  13.295
57199W        W22360  37.953   1.300  11.360
57200W        W22361  10.031  34.652   3.913
57201W        W22362  28.562  27.630  13.102
57202W        W22363  30.217  24.666   4.581
57203W        W22364   1.227  26.009  13.480
57204W        W22365  39.289  25.982  12.417
57205W        W22366  15.356  44.115  11.963
57206W        W22367  37.090  44.427   2.572
57207W        W22368  14.044   6.263   3.669
57208W        W22369   1.220  18.050   0.350
57209W        W22370   6.518  43.537  12.434
57210W        W22371  15.133   7.675   0.804
57211W        W22372   8.918  27.743  13.385
57212W        W22373   4.135  29.469   4.255
57213W        W22374  27.970  15.361   5.071
57214W        W22375  33.059   7.126  13.018
57215W        W22376  29.376   6.301   4.995
57216W        W22377   9.790  24.578  14.555
57217W        W22378  43.015  18.081  14.061
57218W        W22379  44.843  18.984   3.970
57219W        W22380  17.688   8.580   1.416
57220W        W22381  14.426  17.045  11.653
57221W        W22382   9.005   8.416  11.313
57222W        W22383  10.327  24.264   0.758
57223W        W22384  42.601  37.365   3.107
57224W        W22385  24.560  42.009  10.953
57225W        W22386  15.288  24.644   4.411
57226W        W22387  32.095  44.882  11.245
57227W        W22388  14.769  23.289  10.419
57228W        W22389   4.755  32.177  12.843
57229W        W22390  43.959  12.716  14.433
57230W        W22391  16.713  36.890   4.617
57231W        W22392  33.445  32.942   3.396
57232W        W22393  33.084   3.704   0.921
57233W        W22394  24.822  31.867   4.733
57234W        W22395  38.096  33.052  14.869
57235W        W22396  14.127  17.657   3.258
57236W        W22397  30.971  43.498  11.229
57237W        W22398  41.938   3.328  11.148
57238W        W22399  30.145  20.375   0.545
57239W        W22400  15.635  33.911   0.929
57240W        W22401  40.821   7.351  11.619
57241W        W22402  27.887   9.432   2.256
57242W        W22403   2.248  21.213   2.168
57243W        W22404  11.872  15.537   1.920
57244W        W22405  44.882  35.117  12.024
57245W        W22406  43.403  13.200   0.175
57246W        W22407  23.709   8.582  12.926
57247W        W22408   9.702  28.491   1.865
57248W        W22409  42.807  28.976   4.078
57249W        W22410  23.873  29.023  11.033
57250W        W22411  27.880   2.404   0.387
57251W        W22412   6.638  35.425   0.046
57252W        W22413  14.701  19.295  12.348
57253W        W22414  12.184  19.924   3.323
57254W        W22415  38.087  12.638   3.077
57255W        W22416   2.886  16.688  14.030
57256W        W22417  33.445  12.652  10.736
57257W        W22418  32.616  41.341  14.340
57258W        W22419  33.696  22.978   3.644
57259W        W22420  10.979  16.684   4.552
57260W        W22421  35.521  22.027  10.713
57261W        W22422  19.641  19.573   4.820
57262W        W22423  41.857  42.266  14.569
57263W        W22424  16.017  39.015  13.855
57264W        W22425  21.267  17.341  14.889
57265W        W22426  10.127  13.150   4.721
57266W        W22427  39.104  19.446  10.877
57267W        W22428  22.205   3.967   2.732
57268W        W22429  40.161  31.672  11.541
57269W        W22430  11.434  42.867   3.638
57270W        W22431  22.669  43.784   4.710
57271W        W22432  21.075  19.832   0.889
57272W        W22433  16.063  27.337  13.354
57273W        W22434  41.070  41.932  11.685
57274W        W22435  28.229  26.404   3.605
57275W        W22436  37.379  38.919  11.587
57276W        W22437  37.834   0.392  13.752
57277W        W22438  24.338  40.180   1.385
57278W        W22439  25.258  39.789   3.174
57279W        W22440  23.111  17.148   3.666
57280W        W22441  34.846  24.138   1.179
57281W        W22442  15.812  41.604   2.813
57282W        W22443   9.667  38.538  14.819
57283W        W22444  32.375  27.948  13.705
57284W        W22445  31.857   9.228   0.481
57285W        W22446   6.561  23.993   2.807
57286W        W22447  14.293  40.114  13.440
57287W        W22448  30.229  14.852  14.407
57288W        W22449  21.730  28.617  14.482
57289W        W22450  26.114  14.951   2.720
57290W        W22451  28.251   5.632   1.290
57291W        W22452   9.243  28.403  12.914
57292W        W22453   7.467   7.375  12.470
57293W        W22454   4.011  15.235   4.131
57294W        W22455  19.260  14.672   5.137
57295W        W22456  42.987   4.192   0.883
57296W        W22457   3.084   2.354  12.586
57297W        W22458  36.348  11.747  13.813
57298W        W22459   3.794  21.267  13.360
57299W        W22460   4.255  18.406   3.240
57300W        W22461  22.581   6.973   2.225
57301W        W22462  23.723  40.441  14.403
57302W        W22463   6.684  43.878   2.721
57303W        W22464  40.785   1.262   2.869
57304W        W22465   8.318  31.621   0.284
57305W        W22466  40.563   2.087  11.577
57306W        W22467  38.088  32.056   1.266
57307W        W22468  17.811  14.590  14.839
57308W        W22469  13.675   4.641  14.714
57309W        W22470  37.987   6.471  14.369
57310W        W22471  40.630  22.006   4.475
57311W        W22472   1.999  13.919   4.640
57312W        W22473  23.193  26.250   3.765
57313W        W22474  16.280  40.380  12.546
57314W        W22475  39.886  27.355   3.319
57315W        W22476   3.440  39.428  13.733
57316W        W22477  30.124  16.090   4.088
57317W        W22478  28.717   7.299   1.168
57318W        W22479   2.187  31.451   0.541
57319W        W22480  10.818  34.110  11.106
57320W        W22481   3.380  16.550  12.070
57321W        W22482  36.443   7.297  14.448
57322W        W22483  38.283  10.222   0.818
57323W        W22484  12.274   2.512  13.946
57324W        W22485  31.471  27.827  12.635
57325W        W22486  37.444  27.435  14.885
57326W        W22487   8.195  17.233  11.605
57327W        W22488   5.232   7.822   2.172
57328W        W22489  16.478  21.516  13.852
57329W        W22490   0.329   5.234   4.534
57330W        W22491   8.387   3.221   4.165
57331W        W22492  35.564   0.838  12.595
57332W        W22493  38.833  35.551  14.795
57333W        W22494   5.921  20.758   0.892
57334W        W22495  27.747   2.327   4.050
57335W        W22496  35.950  43.783   3.180
57336W        W22497   1.560   6.824  13.762
57337W        W22498  25.997   9.997   2.773
57338W        W22499  40.464  34.411   0.983
57339W        W22500  10.544   0.835   1.236
57340W        W22501  12.166  17.234  11.172
57341W        W22502  41.266  27.914   0.742
57342W        W22503   9.239  20.993   1.968
57343W        W22504   9.062  10.370   0.012
57344W        W22505  44.632  21.266   5.083
57345W        W22506   5.557  28.355   0.545
57346W        W22507  38.967  16.353  14.578
57347W        W22508  22.957  16.730  12.435
57348W        W22509  41.076  25.551   4.101
57349W        W22510  30.140  35.703  13.599
57350W        W22511   3.699  39.385  11.465
57351W        W22512  39.314   1.763  11.153
57352W        W22513  36.583  19.937   4.563
57353W        W22514  11.348  41.529   0.003
57354W        W22515  16.044  21.104   4.065
57355W        W22516  26.221  35.448  14.410
57356W        W22517   7.671  31.429  12.429
57357W        W22518   8.709  33.231  13.345
57358W        W22519   0.670  43.222  12.531
57359W        W22520  39.313  19.552  14.274
57360W        W22521  27.131  36.001   4.547
57361W        W22522  17.566  24.225  12.508
57362W        W22523  19.489   3.485  14.096
57363W        W22524  18.328  39.773  12.995
57364W        W22525   8.108  41.831  13.369
57365W        W22526  29.033  20.627   0.774
57366W        W22527  32.568  26.210  12.573
57367W        W22528   8.412  40.097   3.086
57368W        W22529  31.636  34.965  14.119
57369W        W22530   1.232  22.668  14.127
57370W        W22531  10.774   9.407  13.547
57371W        W22532   4.333   6.188   1.787
57372W        W22533  38.398   3.027   0.478
57373W        W22534  41.708  42.723  14.374
57374W        W22535  30.839  29.959   2.930
57375W        W22536  26.641   7.799   3.067
57376W        W22537  12.344  44.979  13.293
57377W        W22538  22.482  25.768   2.686
57378W        W22539  22.144  23.434   0.427
57379W        W22540  18.285  36.407  11.717
57380W        W22541  20.558  37.814   0.898
57381W        W22542   2.461  19.258   1.828
57382W        W22543  23.179   2.493  10.772
57383W        W22544  23.307   1.452   2.240
57384W        W22545  25.525   8.917  11.404
57385W        W22546   6.415  41.152   4.994
57386W        W22547  39.046  14.131  13.828
57387W        W22548  44.573  19.797  14.893
57388W        W22549  17.881  36.104   2.266
57389W        W22550  26.373   3.755   4.010
57390W        W22551  38.063   0.438   2.194
57391W        W22552  34.621  39.302  12.290
57392W        W22553  14.258  11.841   1.291
57393W        W22554  21.662  33.677  11.275
57394W        W22555  18.648  34.482  12.735
57395W        W22556  12.179  23.919   2.350
57396W        W22557  30.589  29.513   2.104
57397W        W22558  17.396   1.837  10.499
57398W        W22559   3.909  14.051  12.072
57399W        W22560  28.094   0.544   1.320
57400W        W22561  16.656  23.783  12.531
57401W        W22562   1.186  32.173  10.571
57402W        W22563  23.025  40.131   1.342
57403W        W22564  38.232  10.237  10.596
57404W        W22565  11.348  31.005   4.081
57405W        W22566  38.759   3.484   4.978
57406W        W22567  23.456  15.560  14.751
57407W        W22568  13.776   9.812   0.419
57408W        W22569  13.162  34.057   0.020
57409W        W22570  40.949  16.303  11.086
57410W        W22571  12.606  44.074   2.322
57411W        W22572  25.173  12.269   0.156
57412W        W22573  42.689  38.008   3.183
57413W        W22574  11.822  26.438   4.177
57414W        W22575  33.559  37.290  12.446
57415W        W22576  39.041  23.128   4.637
57416W        W22577  20.062  18.374   4.185
57417W        W22578  10.556  30.853   0.520
57418W        W22579  27.600  15.576   1.865
57419W        W22580   7.139  13.251   2.784
57420W        W22581   3.426  19.646  11.569
57421W        W22582  28.451  20.955  12.575
57422W        W22583  19.320  11.986   3.950
57423W        W22584  29.560   4.044  14.895
57424W        W22585  16.199   8.170  12.421
57425W        W22586   4.247  40.502   2.521
57426W        W22587  27.980  33.470  14.720
57427W        W22588  37.616  18.276   4.071
57428W        W22589  28.492  17.788   3.743
57429W        W22590  16.217  16.554   0.496
57430W        W22591  31.978   9.063   3.296
57431W        W22592  12.548  10.161  11.556
57432W        W22593  18.003  23.277  12.458
57433W        W22594  29.236  43.710  12.791
57434W        W22595  32.557  16.678   3.386
57435W        W22596   3.910   0.476   2.489
57436W        W22597  32.540  16.205   3.167
57437W        W22598  36.148  36.413  13.605
57438W        W22599   3.717  38.405   1.720
57439W        W22600  34.502  42.061  10.254
57440W        W22601   3.461  13.124  13.249
57441W        W22602  41.342  36.856  12.548
57442W        W22603  19.127  36.003   0.166
57443W        W22604  23.420  23.948   2.793
57444W        W22605  37.541  20.413  11.599
57445W        W22606   9.034   3.672  11.186
57446W        W22607  34.002  28.070   2.874
57447W        W22608   7.852  11.549  13.494
57448W        W22609  35.999  14.905  11.967
57449W        W22610  21.605  34.550  12.545
57450W        W22611  42.524  32.063   3.437
57451W        W22612   2.587  14.118  11.876
57452W        W22613  41.059  25.224   2.855
57453W        W22614  28.331  42.373  14.923
57454W        W22615  26.168  21.548  14.494
57455W        W22616  26.813  44.396  13.414
57456W        W22617  11.283   6.531   2.791
57457W        W22618  20.153  26.680   1.236
57458W        W22619  28.119   3.920   1.807
57459W        W22620  25.087  19.292  10.556
57460W        W22621  35.826  11.229  13.028
57461W        W22622  42.276   3.391   1.771
57462W        W22623  43.778  38.551  10.979
57463W        W22624  17.651  41.330  14.766
57464W        W22625   6.291  25.027  13.361
57465W        W22626  36.353  13.337  11.936
57466W        W22627  36.878  14.711   2.803
57467W        W22628  12.147  21.527  11.936
57468W        W22629   2.793  37.533  11.633
57469W        W22630  20.621   4.417  10.737
57470W        W22631  19.219  14.284  14.911
57471W        W22632  19.502  31.792   1.909
57472W        W22633   6.334  28.048  14.859
57473W        W22634  40.657  31.945  13.949
57474W        W22635  36.799   3.018   3.131
57475W        W22636  21.767  32.790  13.521
57476W        W22637  42.836  21.458   3.635
57477W        W22638  36.530  36.455  14.875
57478W        W22639   6.922   9.970  11.142
57479W        W22640  29.072  20.530  14.973
57480W        W22641   7.968  23.585   4.611
57481W        W22642  22.508   8.311  12.053
57482W        W22643   7.449  16.688  13.818
57483W        W22644  25.185  33.746  11.989
57484W        W22645   3.436  17.806   3.579
57485W        W22646  32.169  28.362   0.787
57486W        W22647  41.910  36.384   0.281
57487W        W22648   9.017  27.956  13.866
57488W        W22649   1.251  39.267   2.528
57489W        W22650   2.846  33.859  13.903
57490W        W22651  33.826  11.649   3.217
57491W        W22652  24.258   2.983  14.866
57492W        W22653  34.674  29.438  13.104
57493W        W22654   9.143   2.808   2.980
57494W        W22655   7.242  33.962  12.810
57495W        W22656  40.034  12.249   3.594
57496W        W22657  35.837  26.755  11.530
57497W        W22658  30.983   2.296   1.461
57498W        W22659  14.922   3.309  11.522
57499W        W22660  24.879  21.588  13.352
57500W        W22661  13.700  21.650  14.529
57501W        W22662  18.733  19.989   3.294
57502W        W22663   8.815  12.690   3.698
57503W        W22664   8.851  43.372  12.805
57504W        W22665  41.412  22.239  12.958
57505W        W22666  15.566  19.978   1.360
57506W        W22667  35.045  11.186   4.630
57507W        W22668  31.922   7.883  13.061
57508W        W22669  35.441  26.201   0.734
57509W        W22670  42.397   7.704  14.848
57510W        W22671   0.791  15.121  13.889
57511W        W22672  21.572   9.476  13.007
57512W        W22673  21.730   5.643  13.389
57513W        W22674  13.663  36.470  12.440
57514W        W22675   6.120  29.621  13.921
57515W        W22676  31.199  36.793   4.945
57516W        W22677  34.824  44.004   1.461
57517W        W22678   0.967  32.874   1.979
57518W        W22679  23.674  20.599  11.100
57519W        W22680   1.773  20.177   2.738
57520W        W22681  10.102  30.656  13.067
57521W        W22682   8.525  10.237   0.013
57522W        W22683   4.180  27.619  14.481
57523W        W22684  10.750  20.999   0.047
57524W        W22685  42.838  39.931  10.718
57525W        W22686  11.147  29.274  14.753
57526W        W22687  43.791  31.279   4.026
57527W        W22688   7.977  11.085  11.469
57528W        W22689   9.291   5.961  11.367
57529W        W22690  33.176   3.409  12.512
57530W        W22691  44.741  26.265   4.176
57531W        W22692  28.080  14.716   1.913
57532W        W22693   7.670  31.063   2.911
57533W        W22694  17.299  11.791  14.818
57534W        W22695  24.714  36.499  12.208
57535W        W22696  25.686  33.600   4.764
57536W        W22697   3.169   6.865   2.358
57537W        W22698  17.068  22.763  13.435
57538W        W22699  42.561   9.641  10.645
57539W        W22700   2.447  41.986  13.805
57540W        W22701  23.117  12.203  14.022
57541W        W22702  35.365  20.471  12.403
57542W        W22703  36.342   1.292  13.370
57543W        W22704  37.006  24.498  14.062
57544W        W22705  33.243  41.163  11.097
57545W        W22706  44.616  12.696  10.988
57546W        W22707  11.781  41.037  11.308
57547W        W22708  33.045  24.536   0.442
57548W        W22709  35.355  18.075   3.474
57549W        W22710  12.909  34.953   0.512
57550W        W22711  35.241   6.944   0.258
57551W        W22712  14.061  37.440  14.036
57552W        W22713   5.863  27.759   1.311
57553W        W22714   3.811  31.422  14.848
57554W        W22715   5.451  13.723  12.087
57555W        W22716  12.411  30.142   2.180
57556W        W22717  18.997  19.446   5.341
57557W        W22718   3.226  15.925   5.457
57558W        W22719   2.019  10.559   3.792
57559W        W22720  41.019  37.055  10.287
57560W        W22721  32.865  42.314  13.648
57561W        W22722  25.457  14.369  12.548
57562W        W22723  17.579   8.448  13.034
57563W        W22724  30.129  28.240  10.247
57564W        W22725  17.153  35.352   0.427
57565W        W22726  16.555   8.191   2.865
57566W        W22727  27.043  42.871   3.990
57567W        W22728  29.996  22.096  12.576
57568W        W22729  40.852   8.195  11.523
57569W        W22730  19.790  12.691  13.410
57570W        W22731  11.959  14.658  12.650
57571W        W22732  11.693   3.459   4.015
57572W        W22733  42.241  37.163  11.595
57573W        W22734  19.177  27.468   1.376
57574W        W22735  25.811   6.953   1.301
57575W        W22736   4.832  16.374  11.722
57576W        W22737  13.273  27.036  14.957
57577W        W22738  24.557  41.948   0.247
57578W        W22739  18.271  29.515   2.462
57579W        W22740  16.373  44.087  11.978
57580W        W22741  12.865  20.199  11.468
57581W        W22742  24.910  35.585  13.988
57582W        W22743  24.552  19.019  14.095
57583W        W22744  30.026   4.866  11.151
57584W        W22745  42.703  38.785  12.109
57585W        W22746  25.046  36.981   2.228
57586W        W22747  20.631  38.286  12.944
57587W        W22748  21.670  38.097   0.314
57588W        W22749   4.760  33.857   4.070
57589W        W22750  17.524  17.824   4.059
57590W        W22751  36.020  44.258   4.069
57591W        W22752  30.331  27.207   4.124
57592W        W22753  26.548  16.288  11.096
57593W        W22754  44.371  12.998   9.879
57594W        W22755  30.984  19.448   4.600
57595W        W22756  28.954  39.750   0.065
57596W        W22757  12.538  20.311  10.465
57597W        W22758  24.176  30.603  13.105
57598W        W22759  20.029  21.446  11.132
57599W        W22760  13.372  43.018  12.503
57600W        W22761   1.043  12.064  14.769
57601W        W22762   7.749  26.565   1.744
57602W        W22763  13.452   5.420  12.174
57603W        W22764  44.279   8.907   2.444
57604W        W22765  17.860   6.405  10.740
57605W        W22766  41.414  34.675  13.513
57606W        W22767  15.746  17.102   3.409
57607W        W22768   6.930  39.538  14.589
57608W        W22769   7.102   2.460   1.850
57609W        W22770   7.275  12.571   0.819
57610W        W22771  38.168  14.169   0.306
57611W        W22772  31.359  39.639  13.589
57612W        W22773  20.171  30.902   3.050
57613W        W22774  17.121   9.744   0.993
57614W        W22775  23.783   8.738  11.649
57615W        W22776   2.660  17.994   0.867
57616W        W22777   9.407  34.502   2.877
57617W        W22778  18.856  36.904  11.038
57618W        W22779  14.308  39.803   2.953
57619W        W22780  44.224  28.100  12.063
57620W        W22781  42.145  40.489  12.191
57621W        W22782  34.805  44.315  11.196
57622W        W22783  39.105  39.884   3.387
57623W        W22784  42.492  28.976   3.523
57624W        W22785  37.248  28.941   3.654
57625W        W22786  35.366  25.063  14.937
57626W        W22787  31.020  38.656   2.306
57627W        W22788  29.497   7.251  12.121
57628W        W22789  32.591  18.968   2.708
57629W        W22790  42.758  42.837   2.736
57630W        W22791  18.612  33.898  14.918
57631W        W22792  39.389   5.925  13.839
57632W        W22793  41.058  19.736   1.296
57633W        W22794  22.125   6.653  12.720
57634W        W22795   7.690  10.111  14.148
57635W        W22796   3.980  18.744   4.461
57636W        W22797   1.941  21.536  13.310
57637W        W22798  37.547   4.319  11.495
57638W        W22799  38.682  25.265  11.094
57639W        W22800  23.238   6.659  13.734
57640W        W22801  21.522  10.833   2.913
57641W        W22802   9.336  14.620   2.223
57642W        W22803  11.363  12.922   2.643
57643W        W22804  33.979  20.209  11.359
57644W        W22805  34.434  24.693   2.854
57645W        W22806  29.513  43.944   4.078
57646W        W22807   7.856  15.631  12.989
57647W        W22808  43.284  18.092   3.854
57648W        W22809   5.892  24.277   1.728
57649W        W22810  27.279  43.768   3.016
57650W        W22811   0.347  28.401   3.626
57651W        W22812  44.783  21.575   2.740
57652W        W22813  25.520  27.180  10.890
57653W        W22814  41.721  29.916   2.335
57654W        W22815  15.827  10.324   4.504
57655W        W22816  15.231  11.671   0.382
57656W        W22817  13.831  25.458   4.263
57657W        W22818  36.435  10.972   0.890
57658W        W22819  16.660  31.260   4.117
57659W        W22820  28.255  16.955   5.130
57660W        W22821   1.403   2.018  11.084
57661W        W22822   7.759  40.223  13.127
57662W        W22823  44.717  37.458   0.928
57663W        W22824   5.097   8.208  13.295
57664W        W22825  28.656  26.165   0.366
57665W        W22826  17.685  23.082  12.855
57666W        W22827  35.584  25.202   3.134
57667W        W22828  14.778  12.340  10.750
57668W        W22829  25.618   2.241   1.718
57669W        W22830  31.151  11.708   0.778
57670W        W22831   7.268   6.370  10.469
57671W        W22832   0.852  30.525   4.538
57672W        W22833  26.309  42.007   3.196
57673W        W22834  16.098  42.095  14.477
57674W        W22835  36.879  37.886  14.884
57675W        W22836   8.581  24.757  11.188
57676W        W22837  18.099  12.333  11.146
57677W        W22838  17.600   6.939   1.979
57678W        W22839  26.992  18.695   4.566
57679W        W22840  30.512  44.546  13.573
57680W        W22841  18.105  37.519   2.404
57681W        W22842  40.263  34.626   4.143
57682W        W22843   9.635   9.376   2.712
57683W        W22844  18.825  34.859  11.142
57684W        W22845  28.923  16.530  13.913
57685W        W22846  36.245   8.757   2.639
57686W        W22847  40.784  35.870   9.743
57687W        W22848  28.962  40.909  10.597
57688W        W22849  40.838  10.307  14.658
57689W        W22850  10.042  10.190  10.725
57690W        W22851  31.536   7.423   4.998
57691W        W22852  17.137  36.140   2.773
57692W        W22853  31.985  31.255   2.805
57693W        W22854   4.180  16.078  12.479
57694W        W22855   2.662  21.666  10.368
57695W        W22856  29.558  20.217  11.813
57696W        W22857  38.048   9.344  12.078
57697W        W22858  34.836  12.335  10.705
57698W        W22859  42.776   4.411  12.533
57699W        W22860   4.759  21.652  12.547
57700W        W22861  30.643   6.870   2.249
57701W        W22862   1.319  42.726  14.385
57702W        W22863  11.692   0.292   2.310
57703W        W22864  42.377  19.637  11.205
57704W        W22865  24.710  25.978  11.020
57705W        W22866  17.098  13.534  12.059
57706W        W22867  11.055  34.571   3.742
57707W        W22868  30.471  13.344  11.025
57708W        W22869  23.880  15.764  10.701
57709W        W22870  10.912   7.604  13.897
57710W        W22871  37.930   5.667   3.434
57711W        W22872  26.240   2.248  13.306
57712W        W22873  34.637   3.403  12.881
57713W        W22874  26.107  43.761  12.963
57714W        W22875  15.615  37.967  12.476
57715W        W22876   2.132  44.155  13.003
57716W        W22877  42.998  14.200  10.868
57717W        W22878  17.185  25.057   3.747
57718W        W22879   0.948  34.617   0.090
57719W        W22880  11.867   7.569  10.026
57720W        W22881  38.864  30.722  11.404
57721W        W22882  25.758   2.265   4.035
57722W        W22883  13.211   9.046  14.430
57723W        W22884   0.350  22.512   0.710
57724W        W22885  23.495  18.497   4.442
57725W        W22886  39.450  40.127  12.361
57726W        W22887  44.351  26.148  10.483
57727W        W22888  34.747   8.153   2.667
57728W        W22889  27.618   0.177  11.129
57729W        W22890  21.495  30.092   4.170
57730W        W22891  27.075   5.532  13.497
57731W        W22892  14.821   5.003   2.728
57732W        W22893  10.185  19.354   4.511
57733W        W22894  37.896  22.050  13.099
57734W        W22895  39.362  31.031  10.747
57735W        W22896  44.900  33.874  12.416
57736W        W22897  29.568  22.212  12.882
57737W        W22898  21.546  41.970   4.535
57738W        W22899  25.921  36.704   2.257
57739W        W22900  20.755  33.626  14.437
57740W        W22901  35.018  44.364  11.661
57741W        W22902  42.509   2.742  14.299
57742W        W22903  34.815  13.586   3.811
57743W        W22904  11.790  24.866   1.379
57744W        W22905  20.259  17.957  14.888
57745W        W22906  44.940  29.059   0.758
57746W        W22907   1.355  39.308   4.355
57747W        W22908  17.143  20.544  10.288
57748W        W22909  28.499  43.887   4.310
57749W        W22910  25.939  43.889   4.834
57750W        W22911  12.602  18.081  13.497
57751W        W22912   0.591  26.243  13.834
57752W        W22913   7.798  22.893  11.108
57753W        W22914  37.367   6.457   4.290
57754W        W22915  27.819   9.382   0.467
57755W        W22916  38.563  40.070  12.397
57756W        W22917   5.027  34.331   4.478
57757W        W22918  11.838   7.171   1.744
57758W        W22919  39.483   5.794   4.738
57759W        W22920  37.551  43.235  11.127
57760W        W22921  20.052  16.746  12.672
57761W        W22922  31.845  39.016  14.236
57762W        W22923  42.307  35.820   4.621
57763W        W22924  10.954   2.745   2.409
57764W        W22925  40.004  42.232   2.865
57765W        W22926  21.312   1.579  14.447
57766W        W22927  26.083  31.896   4.613
57767W        W22928  33.482  43.300   2.369
57768W        W22929   0.631  25.959  14.294
57769W        W22930  37.139  25.952  13.499
57770W        W22931   2.495  23.378  13.591
57771W        W22932  28.462  23.744  13.793
57772W        W22933  22.098  14.588  12.106
57773W        W22934  32.152  26.576  12.040
57774W        W22935  19.899  14.819   3.282
57775W        W22936  28.756  41.829   2.763
57776W        W22937  36.826  19.989   2.892
57777W        W22938  36.934   5.485  10.673
57778W        W22939   2.377  26.465  14.111
57779W        W22940  23.682  29.687  14.779
57780W        W22941   6.087  19.980   1.743
57781W        W22942  38.769  14.591   0.445
57782W        W22943   7.010  13.552  10.869
57783W        W22944  33.361  29.963   4.603
57784W        W22945  18.274  41.564  12.988
57785W        W22946  40.108  40.501   2.170
57786W        W22947  20.127  15.411  11.538
57787W        W22948   9.806  26.269  13.855
57788W        W22949  17.523   3.322  13.035
57789W        W22950  22.666  15.167  13.578
57790W        W22951  39.279  31.634  11.013
57791W        W22952  36.579  36.416   4.214
57792W        W22953  22.135  10.191   3.191
57793W        W22954  43.857  21.733   1.779
57794W        W22955  28.158  24.428  13.396
57795W        W22956  28.926  22.022   2.641
57796W        W22957  18.204  15.388  11.310
57797W        W22958  12.216  13.201  13.399
57798W        W22959  27.093  28.403   1.356
57799W        W22960  32.334  33.079   4.177
57800W        W22961   7.799  25.337   4.320
57801W        W22962  42.722   1.596   2.305
57802W        W22963  13.214   8.790  10.283
57803W        W22964  33.349  35.190  10.736
57804W        W22965  39.201  24.080   2.129
57805W        W22966  34.502  10.758   2.774
57806W        W22967  42.960  33.596   4.526
57807W        W22968   0.680  15.362   3.698
57808W        W22969  18.004  27.315   1.693
57809W        W22970  30.303   1.288  11.204
57810W        W22971   0.905  37.075  14.019
57811W        W22972   2.918  25.477   0.137
57812W        W22973  30.188  19.490   4.336
57813W        W22974  39.370  12.845   3.203
57814W        W22975  37.869  13.297  14.373
57815W        W22976  27.110   2.380   3.751
57816W        W22977  29.540  41.883   2.447
57817W        W22978  15.118  17.793  11.741
57818W        W22979  31.502  21.038   2.205
57819W        W22980  31.105  16.645   0.451
57820W        W22981  26.899  29.899  10.193
57821W        W22982  24.044  16.259   1.325
57822W        W22983  27.572   0.346  13.890
57823W        W22984   1.947  38.840  13.007
57824W        W22985   9.370  22.459  10.908
57825W        W22986  28.730   2.318  11.238
57826W        W22987  13.732  26.878   2.321
57827W        W22988  35.880   3.981  12.931
57828W        W22989   6.789   6.967  12.876
57829W        W22990   3.847  15.400   0.378
57830W        W22991  16.046   6.917   4.274
57831W        W22992  39.484  19.137   0.549
57832W        W22993  17.018  42.297   2.772
57833W        W22994   0.249  26.950  10.494
57834W        W22995  27.703  21.210   3.235
57835W        W22996  33.302  31.908   0.461
57836W        W22997  24.052  26.852  11.935
57837W        W22998  11.117  13.499  14.405
57838W        W22999  19.001  11.229   3.077
57839W        W23000   0.226  39.130  10.204
57840W        W23001  20.940   4.970  12.083
57841W        W23002   1.867  25.511   2.627
57842W        W23003   7.967  27.933  13.043
57843W        W23004  41.629  12.374  13.986
57844W        W23005  21.495   2.443  11.571
57845W        W23006  41.363   0.868  12.056
57846W        W23007  20.210  31.620   2.393
57847W        W23008   9.117  32.857   3.960
57848W        W23009  17.525  26.501  11.523
57849W        W23010  14.085  44.156  12.094
57850W        W23011  28.770  30.628  11.106
57851W        W23012  20.684  31.957   2.366
57852W        W23013  23.250   3.031  13.142
57853W        W23014  42.852   8.805   5.009
57854W        W23015  35.338   0.521   4.124
57855W        W23016  11.516  15.686  12.884
57856W        W23017  15.458  12.403   4.988
57857W        W23018  44.316  19.373  10.670
57858W        W23019  10.373   6.182   4.597
57859W        W23020  37.277  23.411   0.321
57860W        W23021  22.959  16.690   0.928
57861W        W23022  39.278  23.761   4.592
57862W        W23023  34.039  18.845   2.344
57863W        W23024  10.817  26.557   3.114
57864W        W23025  41.576  42.505  11.139
57865W        W23026   6.284  30.338  12.356
57866W        W23027  39.430  25.154  13.929
57867W        W23028  14.066  32.390   4.710
57868W        W23029  42.946   7.645  12.531
57869W        W23030  19.061  14.218   5.303
57870W        W23031  17.549   4.233   0.570
57871W        W23032  33.566   7.183  11.640
57872W        W23033  13.614  16.692   3.211
57873W        W23034   0.705  40.959   2.303
57874W        W23035  25.421  13.277   4.744
57875W        W23036   4.197  38.558  11.326
57876W        W23037   8.839  12.968  12.449
57877W        W23038   4.379   6.477  13.958
57878W        W23039  15.326  30.029  11.972
57879W        W23040  18.106   2.826  14.941
57880W        W23041  40.942  15.750   1.992
57881W        W23042  28.112   4.912  12.012
57882W        W23043  40.464  13.165   1.651
57883W        W23044  10.569  38.353  12.472
57884W        W23045  24.404  37.638   0.723
57885W        W23046  15.698  15.631  14.765
57886W        W23047  42.999  29.957   1.318
57887W        W23048  43.148  22.640  13.911
57888W        W23049  31.636  38.744  12.440
57889W        W23050  13.412  40.260  10.222
57890W        W23051  24.189  40.724  14.764
57891W        W23052   8.638  11.899   0.975
57892W        W23053   3.427  41.092   1.939
57893W        W23054  24.219  33.682   4.293
57894W        W23055   9.669  31.418   2.597
57895W        W23056   5.843  11.542   2.914
57896W        W23057  12.923  23.222   2.244
57897W        W23058  12.586  19.705  12.803
57898W        W23059  37.551  32.960   3.436
57899W        W23060  40.123   0.453   4.383
57900W        W23061  11.584   1.927   3.713
57901W        W23062  30.723  14.139   0.770
57902W        W23063   4.690  33.943  12.984
57903W        W23064  43.517  39.770  10.528
57904W        W23065  29.624   8.331   4.361
57905W        W23066   4.507  16.567  11.370
57906W        W23067   4.336  14.038  10.739
57907W        W23068  28.633  41.022  13.934
57908W        W23069  20.041   6.450   3.252
57909W        W23070   1.376  14.710  12.446
57910W        W23071  10.166  13.728   1.383
57911W        W23072  43.770   8.002  12.988
57912W        W23073  28.107  30.518  10.542
57913W        W23074  24.234  40.276   3.995
57914W        W23075  40.010  35.184   0.398
57915W        W23076  37.583   6.271  12.020
57916W        W23077  19.328  25.278  14.065
57917W        W23078  20.678   5.440  11.174
57918W        W23079   5.364  31.967   0.562
57919W        W23080  16.208  19.185   2.534
57920W        W23081  32.113  25.208  12.426
57921W        W23082  17.204   5.902   3.452
57922W        W23083  30.195  11.157  11.626
57923W        W23084  26.751  41.814  11.153
57924W        W23085  41.302  10.700   0.794
57925W        W23086  13.624   1.910   3.882
57926W        W23087  34.914  38.896   1.203
57927W        W23088  20.128  31.990  11.298
57928W        W23089  43.939  35.807  14.907
57929W        W23090  44.964   1.856   2.957
57930W        W23091  44.577  12.850   5.151
57931W        W23092   1.874   8.500  13.307
57932W        W23093  40.494  37.876  10.548
57933W        W23094  25.191  33.116  10.607
57934W        W23095  37.324  43.961   2.272
57935W        W23096  28.791  35.896   1.371
57936W        W23097   5.677  10.782   0.521
57937W        W23098  12.686  29.185   4.005
57938W        W23099  13.075   9.800  12.912
57939W        W23100  33.966  26.526  14.119
57940W        W23101  28.017   3.688  12.449
57941W        W23102  29.568  14.290  14.159
57942W        W23103  34.314  23.656  13.803
57943W        W23104  40.241  17.504   4.560
57944W        W23105  24.309   6.160  13.363
57945W        W23106  32.086  30.945   1.788
57946W        W23107   8.484  32.982  12.943
57947W        W23108  22.532   6.370   1.914
57948W        W23109   0.509  30.568  14.374
57949W        W23110  37.528   2.249   4.572
57950W        W23111  42.100  28.733   2.800
57951W        W23112  23.136  39.081  13.415
57952W        W23113  20.103  23.570  11.520
57953W        W23114   5.666  37.887   2.270
57954W        W23115   3.365  44.840   1.447
57955W        W23116   6.987  25.534  14.365
57956W        W23117  17.588  31.480   2.994
57957W        W23118  14.711  18.032  11.988
57958W        W23119  23.042  35.820   5.137
57959W        W23120  42.102  31.911   3.724
57960W        W23121  27.208  10.211   0.486
57961W        W23122  44.399   0.663  10.548
57962W        W23123  13.845  41.537  11.068
57963W        W23124  35.133  19.529  12.536
57964W        W23125  33.049   1.776  14.759
57965W        W23126  44.882  20.565  10.910
57966W        W23127  18.042  43.778   4.618
57967W        W23128   0.350  31.213  13.863
57968W        W23129  30.857  11.200   1.307
57969W        W23130  41.420  24.982   1.337
57970W        W23131  21.578  24.236   1.743
57971W        W23132   0.155  38.348   1.230
57972W        W23133  30.257  39.203   5.149
57973W        W23134   7.286   5.742   4.631
57974W        W23135  16.810   6.179  12.397
57975W        W23136  20.790  23.588  11.542
57976W        W23137  23.056  27.941   1.304
57977W        W23138  36.350  38.830   4.096
57978W        W23139  42.778  36.158  14.501
57979W        W23140  12.639  18.889   2.736
57980W        W23141  22.280  21.187  14.944
57981W        W23142  16.511  12.369  14.528
57982W        W23143  43.404  10.277  14.826
57983W        W23144  25.999   7.972   1.426
57984W        W23145   0.277  29.661   2.171
57985W        W23146  35.521  35.116  11.971
57986W        W23147  42.832  16.635  12.583
57987W        W23148  15.988   8.984   2.380
57988W        W23149  27.481  14.606   3.628
57989W        W23150  18.064  27.614  14.328
57990W        W23151  10.955  27.371  14.825
57991W        W23152  12.353  10.937   2.566
57992W        W23153  29.435   5.067   0.874
57993W        W23154  20.122  30.948  11.033
57994W        W23155  36.479  41.323  10.451
57995W        W23156  17.092   4.251   3.643
57996W        W23157   6.037  12.937   4.539
57997W        W23158  36.127  10.805  13.023
57998W        W23159  43.233  12.192   3.241
57999W        W23160  44.058  25.103  14.955
58000W        W23161  23.793  13.289   0.795
58001W        W23162  13.079  12.568  13.032
58002W        W23163   3.923  18.656  14.202
58003W        W23164   5.668  40.198   1.399
58004W        W23165   2.286  28.479  10.671
58005W        W23166  33.994  16.873   0.782
58006W        W23167  30.693  31.033   0.607
58007W        W23168  24.276  19.210   3.167
58008W        W23169  28.951  36.569  12.780
58009W        W23170  11.716   4.097   1.364
58010W        W23171  20.398   0.308   0.199
58011W        W23172  11.381  39.491   0.443
58012W        W23173  19.481   3.158  14.940
58013W        W23174  29.722  43.414  10.752
58014W        W23175   5.340  41.137   2.687
58015W        W23176  26.274   2.991   2.924
58016W        W23177  32.643  36.880   0.277
58017W        W23178  10.431  20.973  12.079
58018W        W23179  11.226   7.364   3.008
58019W        W23180   3.381  11.818  11.291
58020W        W23181  12.208  19.668   2.853
58021W        W23182  28.544  12.535  13.670
58022W        W23183   6.641  38.856  11.333
58023W        W23184  40.143  24.574  11.624
58024W        W23185  16.493   8.314  13.025
58025W        W23186  21.507   0.256  11.899
58026W        W23187  35.905  16.204  14.132
58027W        W23188  26.257  37.360   0.247
58028W        W23189  11.337  24.447  12.498
58029W        W23190  38.627   0.790  11.253
58030W        W23191  35.958   8.085  13.288
58031W        W23192  25.455  25.637  13.377
58032W        W23193  21.702  22.000  12.010
58033W        W23194  31.509  43.790  14.889
58034W        W23195  38.921  42.578   1.819
58035W        W23196  10.800   5.121  11.462
58036W        W23197  19.491  40.301   2.257
58037W        W23198   0.389  34.025   4.702
58038W        W23199   6.591  20.574  14.187
58039W        W23200  25.933  25.023   5.009
58040W        W23201  43.334  24.475   0.216
58041W        W23202   6.144   5.685   4.338
58042W        W23203  25.532   0.809  10.174
58043W        W23204  34.864  29.990   1.231
58044W        W23205  43.409   5.822  12.079
58045W        W23206  16.104   2.485   2.080
58046W        W23207  30.370  40.948  12.326
58047W        W23208  26.535   5.099   0.384
58048W        W23209  32.204   1.230  13.385
58049W        W23210  13.889   3.820  12.194
58050W        W23211  14.268  27.156  12.570
58051W        W23212  23.551  39.042   0.933
58052W        W23213  12.106  19.671   3.769
58053W        W23214  27.393   6.481   2.098
58054W        W23215  14.651   5.360   1.062
58055W        W23216  33.606  21.986  12.025
58056W        W23217  26.892  44.994   1.806
58057W        W23218   0.237  24.700   1.854
58058W        W23219  23.155  31.230   2.362
58059W        W23220  14.577  19.691  13.410
58060W        W23221   2.115  36.922   4.883
58061W        W23222  43.395  42.967  14.870
58062W        W23223  30.665  22.026   2.127
58063W        W23224   8.251  18.022  13.786
58064W        W23225   1.258  12.060   4.085
58065W        W23226  27.259  10.244   1.071
58066W        W23227  25.123  43.439  13.094
58067W        W23228  33.598  10.129   0.777
58068W        W23229   2.651  15.074  12.654
58069W        W23230  22.745  14.980  10.860
58070W        W23231  43.460  40.308   4.602
58071W        W23232  24.053  21.759  13.592
58072W        W23233  28.944  42.801  11.190
58073W        W23234  14.388  25.397  13.320
58074W        W23235  38.516  27.742   3.958
58075W        W23236  26.991  42.540  12.107
58076W        W23237  22.075   3.180   3.674
58077W        W23238   8.720  22.476  11.679
58078W        W23239  13.009   4.698   0.409
58079W        W23240   5.311  44.340  10.109
58080W        W23241  40.396   1.900  10.344
58081W        W23242  20.813   5.728  13.562
58082W        W23243  29.866  14.190  10.417
58083W        W23244  31.924  29.618   1.267
58084W        W23245  27.382  37.909   5.599
58085W        W23246  10.024  35.517   3.641
58086W        W23247   0.036  13.380   1.849
58087W        W23248  27.876   2.425   2.338
58088W        W23249  12.309  23.295  14.892
58089W        W23250  23.649  26.265   4.031
58090W        W23251  36.588  23.559  13.961
58091W        W23252  18.885  17.237  13.317
58092W        W23253  17.472  20.056  11.696
58093W        W23254  24.478  41.345  12.025
58094W        W23255  23.952  26.594  10.272
58095W        W23256   7.946  12.320   3.594
58096W        W23257  29.897  35.297  14.498
58097W        W23258  29.971   0.258  10.548
58098W        W23259  19.355  37.542   1.938
58099W        W23260  19.381  31.000  12.425
58100W        W23261  10.293  30.214   1.672
58101W        W23262   7.430  43.296   2.825
58102W        W23263  36.804  36.991  14.974
58103W        W23264  20.684  21.122   0.623
58104W        W23265  11.881  11.748  13.812
58105W        W23266   9.709  40.864   2.471
58106W        W23267  16.158  38.838  10.196
58107W        W23268  25.700  24.388  10.676
58108W        W23269  33.921   2.731   3.845
58109W        W23270  38.599  25.149  13.407
58110W        W23271  24.690   4.696  11.544
58111W        W23272  33.844  44.542  13.975
58112W        W23273  29.140  35.799  12.482
58113W        W23274   6.175  10.333   1.554
58114W        W23275  34.035   5.345   1.417
58115W        W23276   3.920   0.306  10.213
58116W        W23277  41.548  39.210  13.441
58117W        W23278  28.885  20.033   2.353
58118W        W23279  30.977  10.724  12.398
58119W        W23280  40.907  33.592  12.107
58120W        W23281  29.773   0.485  11.340
58121W        W23282  24.120  23.182  14.626
58122W        W23283  11.909  33.380  12.812
58123W        W23284  25.291  37.459  10.741
58124W        W23285   5.234  10.416  11.846
58125W        W23286  24.764  21.944  12.541
58126W        W23287  24.740  22.196   0.850
58127W        W23288  23.937   4.252   0.277
58128W        W23289  42.938  26.473  12.491
58129W        W23290  44.375  32.502   0.067
58130W        W23291  39.726  34.054  11.498
58131W        W23292  26.519  17.024  12.434
58132W        W23293  43.553  15.266  13.562
58133W        W23294  21.564   5.142   4.677
58134W        W23295   2.584  14.710  13.538
58135W        W23296  33.755   0.977  13.052
58136W        W23297  11.651  38.932  12.896
58137W        W23298  43.292  28.975   1.225
58138W        W23299  21.141   7.691   4.241
58139W        W23300  35.456  24.288  14.032
58140W        W23301  34.888  39.222  14.858
58141W        W23302  13.513  41.974   3.600
58142W        W23303   7.749  12.114   4.020
58143W        W23304  33.713  39.901   1.492
58144W        W23305  13.247   8.215   4.916
58145W        W23306  27.451  35.980   3.352
58146W        W23307  31.595  10.837   3.185
58147W        W23308  42.958   3.635  14.362
58148W        W23309  38.085  35.735   3.301
58149W        W23310  40.139  38.861  13.302
58150W        W23311  32.460  28.175  11.020
58151W        W23312  34.399  18.431   3.128
58152W        W23313  32.053  10.854   1.802
58153W        W23314  37.312  19.485   3.388
58154W        W23315   8.064   4.998   2.462
58155W        W23316  40.945  19.424   3.705
58156W        W23317  29.563  33.014  11.116
58157W        W23318   3.291  28.028   3.717
58158W        W23319   2.798  33.848  10.927
58159W        W23320  37.385   6.143   4.693
58160W        W23321   2.145  30.597   4.046
58161W        W23322  39.633  27.055   0.152
58162W        W23323   1.834   3.332  12.057
58163W        W23324  30.183  41.781  13.921
58164W        W23325  25.523  39.127   4.298
58165W        W23326  19.794   9.170  11.166
58166W        W23327  33.241  22.668   4.512
58167W        W23328  16.568   0.443  14.226
58168W        W23329  19.042  36.578   3.245
58169W        W23330  17.481  30.016   2.667
58170W        W23331   9.177  34.585   3.905
58171W        W23332  11.148  44.943   2.701
58172W        W23333  27.386  12.661  12.241
58173W        W23334  39.475   6.405  13.441
58174W        W23335  44.323  30.535   0.812
58175W        W23336   8.754   0.559   2.773
58176W        W23337  13.167   4.190  12.609
58177W        W23338  39.030  36.933  13.597
58178W        W23339  38.325  36.696   1.158
58179W        W23340  11.108  37.517   5.071
58180W        W23341   5.498  27.047   3.258
58181W        W23342  36.874   8.179   0.393
58182W        W23343  24.468  30.528   2.406
58183W        W23344  33.147  28.555   3.456
58184W        W23345   5.712  21.891   3.492
58185W        W23346  24.236  26.204   0.418
58186W        W23347  40.420  25.506  11.502
58187W        W23348  41.281   7.654  13.245
58188W        W23349  24.208  35.477   0.385
58189W        W23350  31.549   4.438   1.774
58190W        W23351  13.776  26.774   4.697
58191W        W23352  33.773  29.557  13.925
58192W        W23353  24.763   8.970   4.461
58193W        W23354  39.575  29.254  12.426
58194W        W23355  16.820  12.042   1.808
58195W        W23356   5.327  22.652   2.851
58196W        W23357  44.188  41.629  14.607
58197W        W23358   8.151  27.096   0.878
58198W        W23359   1.265  10.847  11.019
58199W        W23360  40.861   9.923  14.284
58200W        W23361  21.394  34.015  13.866
58201W        W23362  41.411  30.544   1.781
58202W        W23363  38.177  38.906   3.293
58203W        W23364  39.757  39.926  13.370
58204W        W23365  34.598   4.827   3.923
58205W        W23366  31.124  31.009   0.302
58206W        W23367  19.321   8.302  11.621
58207W        W23368  34.018  26.409  11.974
58208W        W23369  27.121  11.229   0.732
58209W        W23370  19.087  10.795  10.733
58210W        W23371  16.321  39.962   1.391
58211W        W23372  43.474  37.410  14.363
58212W        W23373  40.768  43.227  11.662
58213W        W23374   4.408   0.482  14.101
58214W        W23375  22.519  24.157   3.084
58215W        W23376  14.489  42.809   2.920
58216W        W23377  43.048  20.646  13.952
58217W        W23378  43.937   6.385  11.559
58218W        W23379  36.348  27.455   2.949
58219W        W23380  36.004  29.001   2.184
58220W        W23381   6.844  22.437  11.598
58221W        W23382  35.585  32.464  13.544
58222W        W23383  26.490   9.840   1.491
58223W        W23384   5.435  31.402  11.682
58224W        W23385  43.765  16.238   0.888
58225W        W23386  43.441  38.432   2.901
58226W        W23387  35.647  43.947  12.866
58227W        W23388  44.421  19.322   0.003
58228W        W23389   2.215  39.874   2.291
58229W        W23390  37.773  36.202   3.197
58230W        W23391  44.547  12.705   1.765
58231W        W23392  11.641   5.939  11.816
58232W        W23393   1.258  34.487   1.401
58233W        W23394  14.782   8.270   2.970
58234W        W23395   1.960   6.344  11.807
58235W        W23396   0.010  15.258   0.544
58236W        W23397  37.526   7.284  12.184
58237W        W23398  42.611   2.255   3.891
58238W        W23399  14.117  27.681   1.892
58239W        W23400  37.862  40.744   0.163
58240W        W23401  42.900   7.371   4.674
58241W        W23402   9.280  36.442   4.435
58242W        W23403  43.454  29.318   3.370
58243W        W23404  42.042  31.403   3.697
58244W        W23405  37.380  15.825  12.410
58245W        W23406   7.691  31.751   2.366
58246W        W23407  42.125  42.465   3.529
58247W        W23408  19.283   7.297   2.790
58248W        W23409  27.474  36.941  10.564
58249W        W23410   2.588   3.641  11.103
58250W        W23411  34.621  25.277   3.516
58251W        W23412  42.351   2.182  12.922
58252W        W23413  19.025  31.563   3.609
58253W        W23414   5.419  27.183  12.193
58254W        W23415  21.168   1.693  10.541
58255W        W23416   0.361   3.198   2.800
58256W        W23417  32.953  25.001   0.907
58257W        W23418  25.859  29.535  13.296
58258W        W23419  22.027  25.195  14.942
58259W        W23420  15.909   4.887  11.033
58260W        W23421  35.932  40.054   1.322
58261W        W23422  29.637  42.001  11.515
58262W        W23423  24.870  37.237   9.814
58263W        W23424  13.643   1.179  13.870
58264W        W23425  18.634  42.250  13.970
58265W        W23426  11.823  27.955   1.705
58266W        W23427  44.268  44.209  11.082
58267W        W23428  22.208  44.251   3.715
58268W        W23429  23.385  25.663  10.983
58269W        W23430   3.769  40.311  11.562
58270W        W23431  39.139  25.631   1.994
58271W        W23432  35.050   2.797  11.902
58272W        W23433   9.271  15.677  10.094
58273W        W23434  13.570  41.352  11.452
58274W        W23435  40.853  20.405   3.817
58275W        W23436   1.407  27.543   0.656
58276W        W23437  17.982   8.845   4.583
58277W        W23438   1.733  22.994   3.598
58278W        W23439  19.511  24.146  11.159
58279W        W23440  32.985   2.747  11.624
58280W        W23441   8.260  39.980   0.659
58281W        W23442  33.905  36.645   2.733
58282W        W23443  44.580  19.580  11.858
58283W        W23444  39.979  11.693   1.346
58284W        W23445  27.707  42.253  12.546
58285W        W23446  24.047  31.988  12.739
58286W        W23447  12.243   5.861   4.689
58287W        W23448  21.227  34.459   2.304
58288W        W23449  18.156  23.646   2.251
58289W        W23450  32.233  44.427  11.039
58290W        W23451  29.366  38.580  13.758
58291W        W23452  36.022  33.144  10.744
58292W        W23453  41.566  35.984   5.189
58293W        W23454  25.756  39.091  13.069
58294W        W23455  12.658   7.621  11.372
58295W        W23456  25.912  36.350  11.691
58296W        W23457  41.955  33.448  14.878
58297W        W23458  15.299  38.245   2.610
58298W        W23459  13.452  31.156   4.115
58299W        W23460  23.507   0.981  12.929
58300W        W23461   2.192  30.894  11.626
58301W        W23462  39.463  18.837  10.766
58302W        W23463  39.229  14.758   2.879
58303W        W23464  19.836  38.141  11.629
58304W        W23465  37.345  30.191   0.882
58305W        W23466   8.943  19.115  12.079
58306W        W23467  22.106  11.936   4.965
58307W        W23468  22.823  20.988   9.810
58308W        W23469  11.209  35.126  13.577
58309W        W23470  40.011  34.306   1.238
58310W        W23471  25.136  16.037  11.205
58311W        W23472  44.240  29.561   1.228
58312W        W23473  20.672   6.222  13.507
58313W        W23474  27.801  25.016  12.519
58314W        W23475  12.077  31.650   4.158
58315W        W23476  42.131  22.146  13.326
58316W        W23477  25.542  26.327   0.741
58317W        W23478  23.566  38.799  12.170
58318W        W23479  34.955  28.192   3.675
58319W        W23480  28.384  10.736   2.418
58320W        W23481  31.977  41.059   0.319
58321W        W23482   8.908   4.747   1.919
58322W        W23483   1.790  37.514  12.493
58323W        W23484  15.277   2.880  14.672
58324W        W23485  34.118  10.372   1.744
58325W        W23486  25.881  20.268  14.688
58326W        W23487  23.571  26.987  12.477
58327W        W23488  30.593  11.245   3.687
58328W        W23489  21.829  16.018  14.487
58329W        W23490  20.535  31.165   0.488
58330W        W23491  17.841   2.299  14.099
58331W        W23492   2.638   2.477   4.192
58332W        W23493  10.405   5.363  13.061
58333W        W23494   2.524  44.725   0.453
58334W        W23495  28.922   6.687  11.687
58335W        W23496  11.615  42.906  12.930
58336W        W23497   8.922  35.640   0.119
58337W        W23498  21.735  39.852   0.740
58338W        W23499  14.632  42.750   4.238
58339W        W23500  19.637  30.434  13.402
58340W        W23501  24.449   5.931   1.818
58341W        W23502  29.493  35.796   4.617
58342W        W23503   0.003  27.491   4.601
58343W        W23504   1.046  21.940   0.389
58344W        W23505  42.806   2.382   2.900
58345W        W23506   9.445  18.098   0.784
58346W        W23507   7.115   4.838  13.078
58347W        W23508  19.551  37.929   3.609
58348W        W23509  37.530   7.156  11.142
58349W        W23510  32.614  20.525   1.777
58350W        W23511  37.569  38.477  11.456
58351W        W23512   5.722   6.053  12.986
58352W        W23513  23.483  36.398  11.135
58353W        W23514  23.151  21.565  14.091
58354W        W23515  35.583  27.190  14.551
58355W        W23516  41.320  29.596  10.694
58356W        W23517  43.260  25.241  14.394
58357W        W23518  44.414  20.703   2.378
58358W        W23519  18.654  13.707  10.938
58359W        W23520  11.317  25.176   1.139
58360W        W23521   3.322  35.992  14.331
58361W        W23522   4.794  11.404   4.684
58362W        W23523  42.944  25.104   1.311
58363W        W23524  23.960  43.342  14.511
58364W        W23525  18.524  19.055  12.652
58365W        W23526  41.496  30.385   2.758
58366W        W23527  20.856  33.607   3.713
58367W        W23528  27.715  17.043   1.040
58368W        W23529  12.552  35.173  13.871
58369W        W23530  27.702  42.838  13.399
58370W        W23531  28.540  16.597   1.935
58371W        W23532   7.816  20.911   1.612
58372W        W23533  19.311  20.144  11.918
58373W        W23534  11.875   3.424  13.384
58374W        W23535   9.051  29.146  12.596
58375W        W23536  24.925  28.051  11.647
58376W        W23537   4.711  38.157   1.398
58377W        W23538  36.937  35.922   1.280
58378W        W23539  32.924  20.614   4.584
58379W        W23540  23.005  26.793  10.332
58380W        W23541  16.783  33.889   3.220
58381W        W23542  35.329  36.146  11.947
58382W        W23543  39.031   4.868  14.808
58383W        W23544  17.345  35.129  12.851
58384W        W23545  23.937  22.126   1.176
58385W        W23546  44.806  18.403   0.555
58386W        W23547   5.363  43.052  11.108
58387W        W23548  37.603  28.575   1.947
58388W        W23549   7.984   0.346  14.199
58389W        W23550  13.882  27.966  10.903
58390W        W23551  28.544  41.756  14.506
58391W        W23552  11.883  13.854   2.963
58392W        W23553  44.785  32.918   4.737
58393W        W23554  31.902  32.509   5.067
58394W        W23555  39.102   2.369  12.703
58395W        W23556  10.351  44.907   0.825
58396W        W23557  38.584  23.043  12.051
58397W        W23558   4.702  27.382  10.516
58398W        W23559  20.086  43.646  14.319
58399W        W23560  12.243  20.176   2.878
58400W        W23561  37.190  33.099   4.432
58401W        W23562  15.291  37.440  11.626
58402W        W23563  40.244   4.826   1.138
58403W        W23564  25.875   0.052   4.237
58404W        W23565  39.047   2.486  11.706
58405W        W23566  37.809  42.939  13.619
58406W        W23567  42.472  20.106  14.708
58407W        W23568  15.711  36.537  14.489
58408W        W23569   1.794  24.705  11.705
58409W        W23570  27.484  28.113  14.873
58410W        W23571   4.550  34.047  11.933
58411W        W23572  38.968  17.685   4.032
58412W        W23573  25.415  43.876  14.447
58413W        W23574  23.954  27.215   1.201
58414W        W23575  19.004  40.745   0.372
58415W        W23576  28.869  24.423   4.950
58416W        W23577  33.789  10.267   2.218
58417W        W23578  24.114   4.296   2.120
58418W        W23579   7.926  34.284  11.587
58419W        W23580  41.402   1.002   4.171
58420W        W23581  25.420   8.149  11.538
58421W        W23582  41.546  38.731  10.833
58422W        W23583  22.233  21.703  12.560
58423W        W23584  18.320  43.368   1.206
58424W        W23585  40.276  28.011   2.759
58425W        W23586  44.903  16.409   1.291
58426W        W23587  10.850  33.972  11.616
58427W        W23588  37.003  39.836   9.991
58428W        W23589  42.279  31.131   3.344
58429W        W23590  38.946  16.287   0.468
58430W        W23591  14.188  20.130  10.706
58431W        W23592   4.642   9.335   4.696
58432W        W23593   1.903  18.777  13.087
58433W        W23594  43.023  16.709  11.197
58434W        W23595  16.170  11.710  10.725
58435W        W23596  20.522  21.351   0.197
58436W        W23597  13.603  31.384  11.487
58437W        W23598   1.247  22.215   0.781
58438W        W23599   6.456   0.638   4.217
58439W        W23600  36.126  18.148  13.586
58440W        W23601  28.934  37.080  11.860
58441W        W23602  27.747  37.477   4.164
58442W        W23603   7.869   0.025   4.638
58443W        W23604  39.561   2.810   1.785
58444W        W23605   5.329   2.917   3.775
58445W        W23606  36.444  15.175  13.810
58446W        W23607  38.318  14.958  11.665
58447W        W23608  19.749  43.920   1.873
58448W        W23609  10.000  14.938   2.701
58449W        W23610  34.392  20.314   4.234
58450W        W23611  24.838  20.635  12.533
58451W        W23612  31.957   2.989  11.970
58452W        W23613  40.470  13.666   3.190
58453W        W23614   5.334   5.199   2.736
58454W        W23615  15.342   3.988   2.033
58455W        W23616   1.681  30.696  12.965
58456W        W23617  20.429   4.015  11.092
58457W        W23618  43.310  40.426  11.172
58458W        W23619   9.268  21.280   1.527
58459W        W23620   9.278  28.605   1.585
58460W        W23621  27.159  41.943   4.786
58461W        W23622  11.527  33.948   3.251
58462W        W23623  32.460   2.333   3.914
58463W        W23624  19.775  18.328   5.663
58464W        W23625  11.311   3.292  14.027
58465W        W23626  33.740  42.531   1.337
58466W        W23627  14.087   5.965  12.522
58467W        W23628   7.914  37.402   1.110
58468W        W23629  10.264  40.395  14.042
58469W        W23630  36.531  14.110   3.886
58470W        W23631  34.034  42.938   1.431
58471W        W23632  25.739  14.116  12.079
58472W        W23633  42.540   4.960  10.717
58473W        W23634  19.208  26.145  13.972
58474W        W23635  43.934  18.710  13.972
58475W        W23636  43.269  30.913   3.071
58476W        W23637   4.241  12.750  13.381
58477W        W23638   6.401  18.187   1.325
58478W        W23639  24.635  15.511  11.886
58479W        W23640  26.189  40.220   1.332
58480W        W23641   4.439   7.738  14.989
58481W        W23642  32.526  40.460  12.972
58482W        W23643  39.872  17.915  11.952
58483W        W23644  10.561  35.454   1.651
58484W        W23645  17.197  36.856   3.258
58485W        W23646  15.433   2.934  14.181
58486W        W23647  29.081  31.172   4.310
58487W        W23648  20.327  16.322  13.528
58488W        W23649  21.383  29.353   4.506
58489W        W23650   5.155  43.565  11.168
58490W        W23651  25.983  20.580   3.441
58491W        W23652  14.692  18.372   2.487
58492W        W23653  13.667  11.404  12.486
58493W        W23654   7.549  38.590   3.913
58494W        W23655   1.786  11.633  14.411
58495W        W23656   9.273  32.348  12.638
58496W        W23657  37.324   4.248  11.015
58497W        W23658  35.587  33.707  12.406
58498W        W23659  36.251   0.914   2.756
58499W        W23660  27.419  12.371   0.885
58500W        W23661  19.867   2.671  12.859
58501W        W23662  38.296  18.186  14.734
58502W        W23663  16.455   0.404  11.626
58503W        W23664  21.960   6.629  14.698
58504W        W23665  28.754  28.699  13.892
58505W        W23666  30.952  22.330  11.673
58506W        W23667  14.610  35.391   4.426
58507W        W23668  40.374   8.644  11.893
58508W        W23669  19.537  34.423   1.419
58509W        W23670  38.371  26.550   2.725
58510W        W23671  26.593  26.578  11.579
58511W        W23672  23.093   2.352  12.562
58512W        W23673   2.197   7.308  12.111
58513W        W23674  15.156   3.492   2.002
58514W        W23675  11.551  34.379   1.888
58515W        W23676   2.487  25.155   4.037
58516W        W23677  10.123  20.623   2.710
58517W        W23678  38.527   6.409  11.080
58518W        W23679  14.507  35.686  13.506
58519W        W23680  36.912  28.714   3.298
58520W        W23681  43.470  29.768  10.940
58521W        W23682  34.644  22.308   1.669
58522W        W23683   9.766  36.074  12.419
58523W        W23684   8.585  25.746  10.003
58524W        W23685  25.645  29.510   2.541
58525W        W23686  22.673  36.840   2.960
58526W        W23687  37.986   7.193  12.441
58527W        W23688  29.661  20.227   1.181
58528W        W23689   4.309  12.388  12.481
58529W        W23690  37.510  19.113  13.969
58530W        W23691  14.294  34.668  11.525
58531W        W23692  22.611  42.190   1.773
58532W        W23693   0.981   5.286  14.163
58533W        W23694  32.899  13.824   2.347
58534W        W23695  15.172  33.043  13.956
58535W        W23696   7.121  36.428   1.930
58536W        W23697  32.203  26.163   1.243
58537W        W23698  13.987  37.404  12.119
58538W        W23699   0.526   9.132  12.863
58539W        W23700  34.510  43.084  12.895
58540W        W23701  41.537  10.837   0.287
58541W        W23702  42.478  41.670   0.334
58542W        W23703  22.707  22.422   0.786
58543W        W23704  30.616  35.028  13.469
58544W        W23705  16.012   9.874   1.463
58545W        W23706  13.275  44.950   2.711
58546W        W23707  35.139  11.775   1.398
58547W        W23708  20.512  21.885  12.040
58548W        W23709  14.201  39.275   3.637
58549W        W23710   1.925  14.129  12.496
58550W        W23711   5.155  43.335   3.407
58551W        W23712   6.615  19.638  11.321
58552W        W23713  37.041  42.966   0.881
58553W        W23714  41.346  43.544  14.367
58554W        W23715  23.098  17.618   4.003
58555W        W23716  39.827   1.321  13.553
58556W        W23717  11.866   2.225   1.411
58557W        W23718   1.527   6.491  12.080
58558W        W23719  11.626  20.611  12.353
58559W        W23720  17.758  17.794  10.839
58560W        W23721  21.508  12.652   3.365
58561W        W23722  28.747  28.155  14.316
58562W        W23723  38.510  25.557   0.801
58563W        W23724  44.887  17.553   0.396
58564W        W23725  34.480  33.280   4.866
58565W        W23726  25.200  17.842  14.313
58566W        W23727  23.571  11.713  14.778
58567W        W23728  38.937  19.025  13.839
58568W        W23729  12.665  13.823  13.937
58569W        W23730  40.965  16.985   1.324
58570W        W23731  24.088   3.546   4.185
58571W        W23732   2.447  13.378  13.835
58572W        W23733  44.150   1.608   0.811
58573W        W23734  27.532  24.095   0.502
58574W        W23735  29.515  39.952   1.713
58575W        W23736  33.787   9.459  11.979
58576W        W23737  21.607   6.633  13.477
58577W        W23738   6.052  18.079  10.539
58578W        W23739  34.114  20.145   0.819
58579W        W23740   4.673  22.446  10.031
58580W        W23741   6.695  37.338  13.125
58581W        W23742  23.458  22.540  14.026
58582W        W23743  16.367   8.225   3.753
58583W        W23744   5.236   6.155   0.852
58584W        W23745   1.773  20.287  13.235
58585W        W23746  28.998   8.950  10.578
58586W        W23747  42.444  32.413   2.334
58587W        W23748  23.800  24.525  12.554
58588W        W23749  33.436  30.128  11.502
58589W        W23750  25.239  30.626  10.772
58590W        W23751  26.723   4.319   3.167
58591W        W23752  41.715  12.083  14.428
58592W        W23753  34.678  35.830  13.818
58593W        W23754  41.548  42.890   3.605
58594W        W23755  39.160  10.738  12.463
58595W        W23756  19.575  33.611   1.559
58596W        W23757  29.453  11.043   4.066
58597W        W23758  18.978  22.753   2.690
58598W        W23759  19.752  15.139   4.057
58599W        W23760  42.021  14.154  14.537
58600W        W23761  21.650  23.737   1.703
58601W        W23762  13.833  11.237   0.014
58602W        W23763  37.565   6.377   3.806
58603W        W23764  27.403  26.327   3.269
58604W        W23765  14.290  30.244  13.575
58605W        W23766   0.379  43.054   2.252
58606W        W23767   7.805  32.994  10.668
58607W        W23768   8.272  13.494  11.939
58608W        W23769  22.151  31.677  10.660
58609W        W23770  14.036  34.671   4.249
58610W        W23771   5.620  25.533  13.208
58611W        W23772  42.093  18.279  14.741
58612W        W23773  30.237   4.082   2.045
58613W        W23774  33.134  21.731   4.043
58614W        W23775  43.577   9.364  14.232
58615W        W23776   2.712  22.404   4.134
58616W        W23777  26.985  41.494   2.119
58617W        W23778  42.976  38.429   3.709
58618W        W23779  40.981  35.982  14.506
58619W        W23780  17.249  32.647   1.432
58620W        W23781   5.541  31.862   3.239
58621W        W23782  39.786   6.242  11.547
58622W        W23783  16.726  39.069   0.214
58623W        W23784  18.686  16.529   0.394
58624W        W23785   9.320  32.549   4.324
58625W        W23786   4.638  17.128   2.722
58626W        W23787  31.592   8.216   0.983
58627W        W23788   5.793  23.755   3.699
58628W        W23789  13.166  34.933  10.253
58629W        W23790  24.733  39.952   0.368
58630W        W23791  20.703  22.034  14.120
58631W        W23792  33.497   2.941   0.758
58632W        W23793  39.990  21.256   0.401
58633W        W23794  35.400   7.916   4.631
58634W        W23795  14.568   1.267  14.993
58635W        W23796   3.898  25.682   0.916
58636W        W23797  18.260  37.440  13.958
58637W        W23798   5.374  26.927  11.269
58638W        W23799  18.119  32.918   2.235
58639W        W23800  23.209  29.764   2.307
58640W        W23801   6.373  39.911  13.267
58641W        W23802  21.720  19.135  13.078
58642W        W23803  15.196  13.700  11.164
58643W        W23804  28.940   4.289  12.049
58644W        W23805  26.065  17.091   2.824
58645W        W23806  35.482  29.634   4.522
58646W        W23807  26.213   4.236  12.814
58647W        W23808  36.609   7.335   2.768
58648W        W23809   6.473  30.684   0.463
58649W        W23810  27.960   2.842  13.508
58650W        W23811   8.172  20.445  12.157
58651W        W23812   4.999  39.550   2.205
58652W        W23813  18.244  18.185   0.728
58653W        W23814  42.719  10.784   1.849
58654W        W23815   1.169  35.877  12.021
58655W        W23816  28.940  33.400  14.908
58656W        W23817  43.374  13.201   0.709
58657W        W23818  17.457   7.926  10.805
58658W        W23819  27.427  23.275  10.279
58659W        W23820  40.141  43.916   4.229
58660W        W23821  40.073  42.570   2.213
58661W        W23822  20.008   4.244  13.838
58662W        W23823  23.202  35.292  14.468
58663W        W23824  25.791  23.985   3.659
58664W        W23825  22.709   1.176  14.390
58665W        W23826  36.444  10.444   0.761
58666W        W23827  34.941  33.382   3.327
58667W        W23828  30.923  27.884   0.343
58668W        W23829  16.858  31.859   1.442
58669W        W23830   7.667  11.575  14.680
58670W        W23831  29.842  13.250  11.911
58671W        W23832  12.637  35.038  12.026
58672W        W23833  33.335  23.034   4.919
58673W        W23834  19.810   8.755  14.945
58674W        W23835  23.575   7.429  14.773
58675W        W23836  18.795   0.499  11.616
58676W        W23837  20.975  21.576   0.424
58677W        W23838  38.165   2.380  12.437
58678W        W23839   4.409  40.100  12.852
58679W        W23840  15.999  14.592   3.157
58680W        W23841  35.868  12.142  11.479
58681W        W23842  10.691  26.326   1.593
58682W        W23843   1.650  28.650   1.021
58683W        W23844   8.989  13.233   0.462
58684W        W23845  26.266  34.865  13.350
58685W        W23846  10.660  34.456  10.492
58686W        W23847  35.319  18.044  14.855
58687W        W23848  21.964  29.395  13.486
58688W        W23849  23.912  21.214   2.120
58689W        W23850   7.094  25.484   9.885
58690W        W23851  44.715  18.462  11.192
58691W        W23852   9.851  11.833   4.500
58692W        W23853   8.282  14.166  13.867
58693W        W23854  17.515  10.813  13.905
58694W        W23855  19.283  34.564   1.834
58695W        W23856  15.201  14.305   0.337
58696W        W23857  12.110  14.229   3.272
58697W        W23858  21.520  37.805   0.783
58698W        W23859  27.661   4.087   0.630
58699W        W23860  35.469   8.423   0.420
58700W        W23861   1.242  22.766   4.160
58701W        W23862  30.617  21.151   0.466
58702W        W23863  33.348  31.381   0.240
58703W        W23864   8.803  25.994   0.857
58704W        W23865  13.945  27.064   0.292
58705W        W23866  24.029  37.280   1.588
58706W        W23867  15.845  22.538  13.054
58707W        W23868  17.365  11.945   0.325
58708W        W23869  14.105   2.768   2.221
58709W        W23870  42.402  25.710  12.499
58710W        W23871  36.367  22.261  13.692
58711W        W23872  28.251  37.273   0.202
58712W        W23873  18.524  41.025  10.095
58713W        W23874  34.960  43.461  11.210
58714W        W23875  39.959  21.776   0.363
58715W        W23876  32.532  13.380  13.492
58716W        W23877  12.372  24.147  12.387
58717W        W23878  31.566   6.509   0.761
58718W        W23879  42.463  22.170  14.868
58719W        W23880  26.602  20.204  12.011
58720W        W23881  39.236  28.261  14.795
58721W        W23882  39.319  41.412   2.775
58722W        W23883  15.222  36.130   1.325
58723W        W23884  12.219  10.757   3.043
58724W        W23885  33.897  37.779  13.547
58725W        W23886  13.956  36.863  13.755
58726W        W23887   3.844  16.675   4.861
58727W        W23888  23.786  43.919   3.189
58728W        W23889  32.122  30.571  13.866
58729W        W23890   5.937  18.029  12.001
58730W        W23891  11.521  24.563  11.605
58731W        W23892  28.995  24.299  11.771
58732W        W23893  19.748  36.908  12.540
58733W        W23894  16.563  32.897   2.183
58734W        W23895  34.324  28.987  12.695
58735W        W23896  43.400  41.588   0.434
58736W        W23897  22.308  19.572  13.950
58737W        W23898  23.242   1.089  12.456
58738W        W23899  28.610  27.258  13.929
58739W        W23900  39.804  41.926   4.793
58740W        W23901  40.549  32.505   1.925
58741W        W23902  13.673  23.939   1.306
58742W        W23903  38.915  39.401  12.351
58743W        W23904  36.478   4.839   3.909
58744W        W23905  10.268  24.019   0.311
58745W        W23906  39.296  30.448  12.939
58746W        W23907  30.985  43.928   3.076
58747W        W23908  39.470   9.868  13.813
58748W        W23909  11.445  13.635  11.452
58749W        W23910  30.836   5.893  13.031
58750W        W23911  43.746  22.487   4.496
58751W        W23912  13.871  30.048   0.308
58752W        W23913  39.848  43.076  11.633
58753W        W23914  42.547  39.328   3.245
58754W        W23915  32.908   1.203   4.658
58755W        W23916  12.287  41.127  14.405
58756W        W23917  15.044  41.655   4.150
58757W        W23918  32.097  18.942   4.193
58758W        W23919  25.573  31.672  12.858
58759W        W23920  31.710  34.207   0.664
58760W        W23921  44.813  41.467  11.292
58761W        W23922  28.967  38.410  13.426
58762W        W23923  30.737  31.540  12.479
58763W        W23924   3.883  43.720  13.452
58764W        W23925  17.807  29.473   2.228
58765W        W23926   1.888   4.091   4.684
58766W        W23927  35.832   7.359   1.982
58767W        W23928   8.759  15.000   0.834
58768W        W23929  12.760  23.485  12.072
58769W        W23930  36.959  15.281   2.352
58770W        W23931  10.759  42.080   1.820
58771W        W23932  16.083  28.175  12.966
58772W        W23933  16.663  34.558  11.543
58773W        W23934  23.010   6.147   1.935
58774W        W23935  23.167  24.736  13.724
58775W        W23936   4.962  37.728  11.580
58776W        W23937   2.155  13.260   3.169
58777W        W23938  21.189  28.166  12.812
58778W        W23939  19.003  23.069  14.909
58779W        W23940  20.471  19.858  13.529
58780W        W23941  15.318  37.637   3.237
58781W        W23942  36.383  38.023  14.922
58782W        W23943  32.660  22.556   2.239
58783W        W23944   5.216  19.756   1.898
58784W        W23945  28.888  12.361  11.994
58785W        W23946  10.261   0.320  13.516
58786W        W23947  38.047   3.406   0.408
58787W        W23948  31.437  44.437  12.393
58788W        W23949   2.385  24.094   2.358
58789W        W23950  30.633   0.229   4.202
58790W        W23951  34.082  27.479   4.269
58791W        W23952  44.932  23.626  14.300
58792W        W23953  11.671  38.545   3.914
58793W        W23954  42.856   8.013  11.460
58794W        W23955  38.758  26.613   4.145
58795W        W23956  41.235  22.762  11.105
58796W        W23957   9.855   3.690   2.621
58797W        W23958   0.205  24.164   3.176
58798W        W23959  40.464  32.105   3.233
58799W        W23960  38.810  44.336   2.328
58800W        W23961   7.370   3.024   4.903
58801W        W23962   4.421  44.313  14.922
58802W        W23963  38.336  34.547   2.851
58803W        W23964   1.292  33.255   2.269
58804W        W23965  32.614   3.589  14.878
58805W        W23966  44.828  29.684   1.842
58806W        W23967   8.805  39.377  11.449
58807W        W23968   9.310  40.325  10.062
58808W        W23969  17.576  28.045  14.994
58809W        W23970  28.740  39.582   1.345
58810W        W23971  21.147  36.226  11.136
58811W        W23972  33.816   0.214   3.354
58812W        W23973   3.242  36.887   0.765
58813W        W23974   2.675  12.040  14.423
58814W        W23975  30.662  31.640  11.615
58815W        W23976  24.211   6.371   4.634
58816W        W23977  38.649  23.103  14.493
58817W        W23978   8.788  24.144   2.792
58818W        W23979  19.262  23.803   9.944
58819W        W23980  40.469  16.696   2.403
58820W        W23981  23.794  11.675  11.479
58821W        W23982  41.096   4.296   2.357
58822W        W23983   4.439  20.989   2.669
58823W        W23984  25.897  17.430   0.299
58824W        W23985  32.161  13.169   2.345
58825W        W23986  22.187  41.917  14.846
58826W        W23987  31.864  13.579   3.225
58827W        W23988  13.271   9.032  13.405
58828W        W23989  35.387  20.686   1.379
58829W        W23990   0.875  24.956   4.120
58830W        W23991  28.045   1.985   1.418
58831W        W23992  22.731  43.325   2.788
58832W        W23993  23.818  17.093  11.604
58833W        W23994  34.126   8.832  10.957
58834W        W23995  16.546  17.081   1.343
58835W        W23996  43.947  38.324   2.728
58836W        W23997  26.358  25.967  13.429
58837W        W23998  43.297  32.782   2.741
58838W        W23999  29.961  39.830  11.964
58839W        W24000   1.403  13.059   0.313
58840W        W24001  24.265  19.525  13.536
58841W        W24002  31.536  42.326   9.891
58842W        W24003  33.972  22.556  12.730
58843W        W24004  44.975  18.538  11.654
58844W        W24005  35.243  37.978  10.280
58845W        W24006  17.744  29.898   3.651
58846W        W24007  30.962  41.798   1.439
58847W        W24008  13.167  11.244  13.774
58848W        W24009   6.670  19.982   1.843
58849W        W24010  28.631  14.753   3.092
58850W        W24011  31.841  37.040   1.210
58851W        W24012  42.388  30.080   3.781
58852W        W24013  41.439  30.112  10.798
58853W        W24014  26.100   4.752   3.679
58854W        W24015  35.842  23.066  13.610
58855W        W24016  33.842   2.939  10.643
58856W        W24017  18.312  25.706   0.958
58857W        W24018  33.466   2.687  10.914
58858W        W24019  43.841  39.430   1.073
58859W        W24020  28.477  35.811  12.933
58860W        W24021  40.866  22.884   3.367
58861W        W24022  21.226  18.530   2.900
58862W        W24023   5.302  25.457  11.428
58863W        W24024   1.665  27.203   2.502
58864W        W24025  21.725  14.124   2.883
58865W        W24026  27.931   3.654   2.222
58866W        W24027  32.184  28.613  12.666
58867W        W24028  25.034   0.558   2.241
58868W        W24029  39.357  32.081   2.743
58869W        W24030  15.803  12.618   3.211
58870W        W24031  44.676  28.969   0.318
58871W        W24032  38.552   4.234   0.437
58872W        W24033   3.306   4.846  14.804
58873W        W24034  12.680  44.867   3.780
58874W        W24035  11.656  44.032   0.878
58875W        W24036  14.634  44.712   1.509
58876W        W24037  41.898  29.110   4.592
58877W        W24038  11.824  40.792   1.359
58878W        W24039   9.948   6.914   0.881
58879W        W24040  31.967  38.362   1.848
58880W        W24041  27.986  18.604   1.810
58881W        W24042  28.881  10.670   2.286
58882W        W24043   0.979  34.035   3.235
58883W        W24044  42.555   6.821  11.178
58884W        W24045  21.281  38.558   1.135
58885W        W24046  40.949  27.008   2.054
58886W        W24047  32.490  33.362  11.552
58887W        W24048  36.045   0.828  12.849
58888W        W24049   4.805   5.919   3.744
58889W        W24050  12.310   9.988  12.371
58890W        W24051  28.362  27.553  13.571
58891W        W24052  36.284   9.143   2.301
58892W        W24053  10.662  21.136   0.959
58893W        W24054  18.284  23.720   1.739
58894W        W24055  41.331  32.992  12.845
58895W        W24056   7.463  34.839  11.413
58896W        W24057  14.091  33.045   2.868
58897W        W24058  35.308  31.505   4.221
58898W        W24059   7.583  42.295   5.045
58899W        W24060  42.942  13.073   2.720
58900W        W24061   0.902  41.735   2.722
58901W        W24062   5.978   6.352   0.748
58902W        W24063  14.666  37.478   4.618
58903W        W24064  21.871  31.504   0.877
58904W        W24065  17.628  39.666  12.138
58905W        W24066  11.819  24.883   2.792
58906W        W24067  24.417  15.030  11.781
58907W        W24068  20.036  38.794  14.951
58908W        W24069  25.233  43.926   4.046
58909W        W24070   0.343  28.930  11.635
58910W        W24071  36.759  26.492   4.193
58911W        W24072   9.672  23.362   0.692
58912W        W24073  14.641  15.219  14.559
58913W        W24074  25.622  24.104   0.067
58914W        W24075  37.002  22.534  12.005
58915W        W24076  34.445  28.096  11.179
58916W        W24077  12.844  13.695  14.463
58917W        W24078  30.224  13.939   1.929
58918W        W24079  19.989  33.477  10.373
58919W        W24080   2.723  21.130  10.530
58920W        W24081  37.749   9.685  12.386
58921W        W24082  21.963  33.765  14.678
58922W        W24083  27.220  19.621   0.037
58923W        W24084   0.463   6.849   0.477
58924W        W24085  19.521  35.901  14.826
58925W        W24086  11.781  36.534  10.068
58926W        W24087  36.606  35.428  13.822
58927W        W24088  41.975  35.728  11.539
58928W        W24089  12.196  36.512   3.624
58929W        W24090  20.077  16.282  12.131
58930W        W24091  11.188   8.184  10.564
58931W        W24092  12.132  41.825  14.958
58932W        W24093  29.591  25.708   3.682
58933W        W24094  35.249  34.901  11.556
58934W        W24095  29.382   7.035   4.254
58935W        W24096   3.149  25.227  12.132
58936W        W24097  28.877  39.870  10.348
58937W        W24098  21.211   8.529  12.116
58938W        W24099  25.132  27.994   3.679
58939W        W24100  38.446   1.328  11.259
58940W        W24101  13.038  37.070  13.947
58941W        W24102   8.708  30.662   0.510
58942W        W24103  28.630  44.508  10.531
58943W        W24104  37.432  10.732   3.215
58944W        W24105   8.119  17.195   2.752
58945W        W24106   6.083   4.263   1.840
58946W        W24107   8.893  28.644  13.490
58947W        W24108   2.282  28.429  13.920
58948W        W24109  43.902  38.321   1.854
58949W        W24110  27.254  28.476   3.028
58950W        W24111   3.921  11.228  11.576
58951W        W24112  39.577  26.627  10.925
58952W        W24113  36.356   3.854   2.904
58953W        W24114   8.217   9.798   3.796
58954W        W24115  11.200  38.169   3.051
58955W        W24116  19.460  12.171  12.425
58956W        W24117  26.979  40.658  12.661
58957W        W24118   8.210  41.574   4.720
58958W        W24119  13.588  15.209  14.803
58959W        W24120  30.438  13.869  12.313
58960W        W24121  36.474   1.850   0.702
58961W        W24122  20.463  31.136   2.018
58962W        W24123   8.923   3.488  11.915
58963W        W24124  31.931   9.194   4.754
58964W        W24125  27.422   6.187   2.682
58965W        W24126  24.693   5.851  14.063
58966W        W24127  31.936   2.005  11.982
58967W        W24128  41.530  10.653   1.257
58968W        W24129  31.052  37.687  13.056
58969W        W24130  42.470  27.867  10.722
58970W        W24131  29.051  30.595  10.027
58971W        W24132  18.909   2.752   3.257
58972W        W24133   4.914  15.578   2.774
58973W        W24134  11.551  23.183  14.437
58974W        W24135  28.964  24.829   0.348
58975W        W24136   1.496  22.996   2.399
58976W        W24137  26.120  24.645   3.716
58977W        W24138   6.276   9.371   3.295
58978W        W24139   9.176  21.232   3.858
58979W        W24140  28.639  14.168   3.210
58980W        W24141   9.241  30.107   3.682
58981W        W24142   3.610   7.809  10.614
58982W        W24143  39.393   2.303   2.559
58983W        W24144   5.211   4.215  14.346
58984W        W24145  31.418  11.323   3.247
58985W        W24146  32.622  34.917   3.166
58986W        W24147  44.028   5.319  11.083
58987W        W24148  10.143  28.176  13.403
58988W        W24149  16.679  25.547   3.311
58989W        W24150  34.422  30.688   4.368
58990W        W24151   5.671  35.825   4.180
58991W        W24152  40.510  17.391  14.961
58992W        W24153  10.183  38.488  13.859
58993W        W24154  19.281   1.618  13.889
58994W        W24155   7.792  37.656  14.337
58995W        W24156  20.344  40.516   3.037
58996W        W24157   7.165  24.505  12.047
58997W        W24158  17.646  42.571  10.660
58998W        W24159  30.959  39.254   1.099
58999W        W24160  19.024  21.710  14.050
59000W        W24161   9.766  12.130   0.333
59001W        W24162  27.192  19.120   3.327
59002W        W24163  33.255   3.380  11.265
59003W        W24164  42.585  13.260  10.793
59004W        W24165  44.484  15.109  12.579
59005W        W24166  19.707  19.056   1.392
59006W        W24167  41.934  38.465   2.278
59007W        W24168  22.194   8.735  14.545
59008W        W24169  36.785   3.506  14.851
59009W        W24170  12.208  26.121  12.892
59010W        W24171  43.254  29.478   1.319
59011W        W24172  13.136  43.028  14.859
59012W        W24173  35.965   9.552  13.451
59013W        W24174  31.336  11.339   1.108
59014W        W24175  12.096  26.223  11.613
59015W        W24176  20.099  40.811   2.680
59016W        W24177  21.279  38.239   2.778
59017W        W24178   4.696  20.821  14.305
59018W        W24179  24.972  20.031  13.035
59019W        W24180  42.981   3.425  12.967
59020W        W24181   8.178   0.017  12.998
59021W        W24182  22.668  32.201   0.863
59022W        W24183  27.130  13.433  12.028
59023W        W24184  44.394  15.772   3.476
59024W        W24185   1.257  39.794  11.540
59025W        W24186  20.611  23.667  14.276
59026W        W24187  13.862  11.373   3.725
59027W        W24188  28.576  26.771   4.371
59028W        W24189  32.997  26.682  14.343
59029W        W24190  32.958  12.486  10.667
59030W        W24191   4.882  38.890  12.889
59031W        W24192  30.232  12.228  11.515
59032W        W24193  18.705   6.582  12.206
59033W        W24194   0.308  39.255   4.678
59034W        W24195  33.349  14.892  13.996
59035W        W24196  16.601  32.522   3.117
59036W        W24197  35.673  11.596   2.832
59037W        W24198  43.383  12.142  11.954
59038W        W24199  24.520  31.359  11.107
59039W        W24200  27.037  31.421  11.194
59040W        W24201  15.613   5.448   2.249
59041W        W24202  39.693  25.073  11.202
59042W        W24203  39.120  14.210   4.217
59043W        W24204  41.215   3.342   4.474
59044W        W24205  13.572  20.458   4.561
59045W        W24206  27.088  43.711  13.868
59046W        W24207  25.878   1.341   0.912
59047W        W24208   1.916  22.749   2.181
59048W        W24209  42.341   7.867   2.078
59049W        W24210   4.754  37.111  10.453
59050W        W24211  13.148  35.056  11.983
59051W        W24212   8.191  34.912   2.625
59052W        W24213  37.331   2.828  12.632
59053W        W24214  26.231  10.644   3.276
59054W        W24215   1.707  12.028   1.366
59055W        W24216   4.521  12.620   4.090
59056W        W24217  39.231  19.984  13.965
59057W        W24218  24.032  28.229   0.354
59058W        W24219  34.306  37.290   2.375
59059W        W24220  24.466  24.052   2.762
59060W        W24221  42.237  41.941  14.443
59061W        W24222   7.848   6.473   0.812
59062W        W24223  20.693  20.838   4.816
59063W        W24224   1.112  40.775   4.901
59064W        W24225  30.897  10.334  10.580
59065W        W24226  23.096  19.779   2.841
59066W        W24227  11.045   8.769   0.688
59067W        W24228   3.252  38.311   1.911
59068W        W24229   9.926  30.006  12.355
59069W        W24230   8.757  31.596  13.672
59070W        W24231  22.962  44.016   4.308
59071W        W24232  37.076   1.334  10.618
59072W        W24233  10.377  28.991  12.060
59073W        W24234  39.319  23.880  13.751
59074W        W24235  15.505  14.720   2.301
59075W        W24236   1.252  14.065   0.326
59076W        W24237  31.391  29.631  12.891
59077W        W24238   5.038  24.144  10.485
59078W        W24239  29.708  35.156  13.250
59079W        W24240   1.319  12.812  14.834
59080W        W24241  14.359  16.595  14.436
59081W        W24242  39.065  16.089  13.604
59082W        W24243  39.441   2.130  13.048
59083W        W24244  16.127  29.060   2.275
59084W        W24245  22.073  41.788  10.219
59085W        W24246  39.002  16.508   1.831
59086W        W24247  11.794  41.272   2.933
59087W        W24248  43.911   0.190   4.544
59088W        W24249  10.852  34.918  12.922
59089W        W24250  18.875  44.491  12.778
59090W        W24251  39.077  11.840  13.162
59091W        W24252  37.950  27.056   4.694
59092W        W24253  26.136  35.543   4.399
59093W        W24254  34.885  32.162  13.315
59094W        W24255  18.684  31.748  14.273
59095W        W24256  18.272  23.928  13.044
59096W        W24257  29.119  17.438   4.502
59097W        W24258  40.424  36.309   3.311
59098W        W24259  39.077  31.405   3.732
59099W        W24260  32.248  15.691  11.487
59100W        W24261  10.931  34.107   0.495
59101W        W24262  33.743  32.947   4.307
59102W        W24263  39.338  20.615   0.891
59103W        W24264  32.951  19.081  12.033
59104W        W24265   0.783  42.978  10.035
59105W        W24266   0.643   0.544   1.303
59106W        W24267  12.834  37.770  10.794
59107W        W24268  22.060  35.646   2.933
59108W        W24269  13.824  38.060   3.696
59109W        W24270  15.092   8.316   4.220
59110W        W24271   8.550  14.674   3.716
59111W        W24272   5.198  43.323  14.369
59112W        W24273  41.402   5.856   1.561
59113W        W24274   9.108  13.629   2.183
59114W        W24275  22.310  17.521   1.783
59115W        W24276  41.299  32.139  10.176
59116W        W24277  31.177  38.787   1.203
59117W        W24278  22.987   6.417   0.538
59118W        W24279   3.204  10.963   1.033
59119W        W24280  13.581  34.466   2.766
59120W        W24281   7.660  17.091   0.484
59121W        W24282  28.938  34.936  13.753
59122W        W24283   4.304  15.034  10.708
59123W        W24284  27.994  22.648  13.034
59124W        W24285   3.693  17.059  11.140
59125W        W24286  43.496  23.620  10.498
59126W        W24287  31.889  13.110   4.912
59127W        W24288   8.397  14.311   0.321
59128W        W24289   3.031  39.827  11.010
59129W        W24290  31.715  39.393  14.962
59130W        W24291  36.762  30.654   3.094
59131W        W24292  14.714   2.513   0.947
59132W        W24293  30.003  21.898   1.920
59133W        W24294  26.630  15.122  14.410
59134W        W24295  34.546  31.139  11.012
59135W        W24296  10.318  28.037   3.807
59136W        W24297   9.469  17.269  10.235
59137W        W24298  31.853  25.966   2.241
59138W        W24299  43.044  29.646  11.256
59139W        W24300   5.213  41.377  12.628
59140W        W24301  33.705   2.774   0.325
59141W        W24302  18.459  28.435   0.803
59142W        W24303  26.530  19.112  14.871
59143W        W24304  29.032  24.728  12.069
59144W        W24305   6.123  20.013  12.468
59145W        W24306  14.473   2.987  13.808
59146W        W24307  32.917  19.766   1.262
59147W        W24308  25.881  20.211  13.480
59148W        W24309   6.871  38.882   0.820
59149W        W24310  32.999  42.871   0.768
59150W        W24311  30.695  36.552  11.690
59151W        W24312  32.137  27.899   1.031
59152W        W24313  30.983  41.500  11.232
59153W        W24314   2.306  33.092   4.423
59154W        W24315   2.941  44.431  12.558
59155W        W24316  10.692  39.365  12.087
59156W        W24317  21.724  17.534  12.408
59157W        W24318  14.625  42.806   1.468
59158W        W24319  35.127  29.676  14.722
59159W        W24320  41.527  16.560   2.122
59160W        W24321  44.549  19.070  12.527
59161W        W24322  40.767   1.693  11.856
59162W        W24323  11.956  22.956   4.878
59163W        W24324   8.717  39.387  14.085
59164W        W24325  38.196   0.986   3.538
59165W        W24326   9.734  25.996   4.210
59166W        W24327  26.276  32.223  14.170
59167W        W24328  11.682  11.849  12.922
59168W        W24329  40.448  42.830   1.464
59169W        W24330  14.250  10.279   3.030
59170W        W24331   5.161  28.418   0.882
59171W        W24332  26.921   7.311  12.050
59172W        W24333  41.344  22.063   2.431
59173W        W24334  36.177  21.692   3.211
59174W        W24335  38.470  11.754  14.063
59175W        W24336  13.290   1.763  10.957
59176W        W24337   1.543  15.456   2.131
59177W        W24338   3.222  41.822  12.015
59178W        W24339  12.381   4.464   1.877
59179W        W24340  18.328  22.906   0.449
59180W        W24341  36.636  12.733  13.391
59181W        W24342  28.677  29.571   4.405
59182W        W24343  12.230  38.961  14.852
59183W        W24344   1.434   6.848   1.805
59184W        W24345  33.998   5.841  11.657
59185W        W24346  37.928   1.040   5.149
59186W        W24347  10.368   2.340   1.978
59187W        W24348  12.726   1.900   0.344
59188W        W24349  41.317  18.553  12.702
59189W        W24350  44.507  15.694  13.932
59190W        W24351  29.358  23.666   2.623
59191W        W24352   1.282  12.978   3.278
59192W        W24353  23.365   2.665  11.585
59193W        W24354  12.793   0.418  11.432
59194W        W24355   7.710  40.862   4.665
59195W        W24356  32.871   5.477   1.394
59196W        W24357  32.622  17.011  12.503
59197W        W24358  44.143  31.100  10.645
59198W        W24359  24.747  18.258   1.742
59199W        W24360  33.471   5.397  11.661
59200W        W24361  36.996   6.455  14.316
59201W        W24362  17.599  39.079   1.449
59202W        W24363   6.127   3.224   4.622
59203W        W24364  28.180   2.776  14.356
59204W        W24365  11.281   2.118   0.475
59205W        W24366  39.895  22.568   3.773
59206W        W24367  41.901  13.125  14.390
59207W        W24368  36.528   1.792   2.924
59208W        W24369  12.240  19.735   2.260
59209W        W24370  44.068  13.214   2.068
59210W        W24371  30.215  30.471  11.068
59211W        W24372  24.560  21.690  13.764
59212W        W24373   6.889  36.537   2.376
59213W        W24374  12.668  36.808  10.501
59214W        W24375  29.371  33.535  14.091
59215W        W24376  31.879  15.038   4.698
59216W        W24377  35.340  28.168   0.076
59217W        W24378  40.518  19.180  12.147
59218W        W24379  23.087  13.088  14.056
59219W        W24380  20.163  25.665  12.910
59220W        W24381  28.407  20.602  12.054
59221W        W24382  11.146  20.827   4.553
59222W        W24383  34.548  37.162  11.049
59223W        W24384  21.870  11.615   4.600
59224W        W24385  20.699  21.943  12.907
59225W        W24386   1.913  18.241   3.121
59226W        W24387  24.767  34.391   3.210
59227W        W24388  15.610  19.245  10.308
59228W        W24389  16.451   3.419   4.004
59229W        W24390  37.935  42.505  13.884
59230W        W24391  25.738  21.433   5.107
59231W        W24392  16.042  42.500   1.900
59232W        W24393   8.507  41.409   2.549
59233W        W24394  42.802  42.443   1.200
59234W        W24395  38.971  30.903   3.226
59235W        W24396  34.321   4.207  14.182
59236W        W24397  30.453  44.526  10.645
59237W        W24398  30.828  27.115  12.174
59238W        W24399  17.824   4.800  10.898
59239W        W24400  11.501  20.528   2.236
59240W        W24401  15.708  28.670   1.321
59241W        W24402  12.790  34.134   4.843
59242W        W24403  29.372  24.201   0.183
59243W        W24404  33.538   4.034  14.829
59244W        W24405  21.746  27.055   0.068
59245W        W24406  32.686  14.942  11.499
59246W        W24407  23.489  19.254   2.716
59247W        W24408  38.815   1.383  13.295
59248W        W24409  42.444   7.732  12.132
59249W        W24410  44.619  35.561   0.468
59250W        W24411  36.455  32.460  14.022
59251W        W24412  39.782  30.954  10.438
59252W        W24413   6.699  11.103  12.911
59253W        W24414   6.731   4.891   4.250
59254W        W24415  35.418  24.159   4.723
59255W        W24416  12.319  11.771   4.657
59256W        W24417  11.720   7.171   2.278
59257W        W24418  40.482  35.407   4.753
59258W        W24419   7.648  21.585  12.443
59259W        W24420  43.454  40.773   1.708
59260W        W24421  44.442   6.028   4.483
59261W        W24422  29.573  37.988   1.725
59262W        W24423  22.934  14.416   3.389
59263W        W24424   6.737  35.119  11.561
59264W        W24425  43.622   0.240   0.919
59265W        W24426  40.872   4.636  14.948
59266W        W24427  32.192  17.532   0.298
59267W        W24428  27.175  18.041  11.181
59268W        W24429  18.182   9.905  13.670
59269W        W24430  16.957  41.460   3.730
59270W        W24431  33.999  43.915  11.007
59271W        W24432  36.581  32.968  14.108
59272W        W24433   2.931   3.749  12.945
59273W        W24434   2.300  34.037  11.536
59274W        W24435  11.906  25.561   1.934
59275W        W24436  24.291   1.272   1.322
59276W        W24437  41.230   3.945   3.651
59277W        W24438  31.123   5.632   2.229
59278W        W24439  36.319  27.569   2.463
59279W        W24440  34.378   9.855   2.822
59280W        W24441  12.358  27.945   1.695
59281W        W24442   5.162  39.840   4.442
59282W        W24443  16.840  16.712  12.570
59283W        W24444   3.527   5.076  13.297
59284W        W24445   5.823  41.550  11.375
59285W        W24446  38.145  16.594  14.480
59286W        W24447  21.185  15.661  11.452
59287W        W24448   7.446   4.432   0.259
59288W        W24449  29.967  34.938  14.895
59289W        W24450  29.877  26.193  14.780
59290W        W24451   7.000   2.351  14.010
59291W        W24452  18.197  31.165   2.746
59292W        W24453   8.781  18.642   4.912
59293W        W24454  22.454  43.245  12.606
59294W        W24455  30.459   2.953   3.637
59295W        W24456  24.250  42.466   0.213
59296W        W24457  35.321   7.626   5.143
59297W        W24458  24.551   5.979  12.932
59298W        W24459  20.091   0.381   2.179
59299W        W24460  14.052  11.602   1.704
59300W        W24461  14.147   0.095   2.351
59301W        W24462  12.056  41.244  12.469
59302W        W24463  33.035   7.167  13.959
59303W        W24464  31.437   6.097  11.046
59304W        W24465  41.559  12.752   2.932
59305W        W24466  19.533  33.250   3.774
59306W        W24467  21.517   2.703   2.541
59307W        W24468  19.766  29.474   1.920
59308W        W24469  23.563  12.561   1.740
59309W        W24470  42.310   1.176   1.902
59310W        W24471   2.791   1.550  14.272
59311W        W24472  40.563  41.575  13.401
59312W        W24473  34.629   2.341  12.499
59313W        W24474  24.963   4.766   3.305
59314W        W24475  10.195   2.966  14.970
59315W        W24476  42.024   3.408  13.997
59316W        W24477   0.765   1.065  13.112
59317W        W24478  31.531  41.689  14.928
59318W        W24479  36.809  40.479  13.841
59319W        W24480  14.311  17.694  14.590
59320W        W24481   1.130  14.357  11.344
59321W        W24482  17.872  14.032   2.602
59322W        W24483  26.201  17.086  11.100
59323W        W24484  42.569  27.647  14.946
59324W        W24485  34.231   4.358   1.558
59325W        W24486  27.579  16.523  12.917
59326W        W24487  35.353  25.465   4.947
59327W        W24488   1.236  20.039   2.786
59328W        W24489  12.517  44.505  14.478
59329W        W24490  30.441  16.048  10.742
59330W        W24491  41.428  25.449   0.105
59331W        W24492  41.918  33.838   1.336
59332W        W24493  44.012  18.360  12.010
59333W        W24494  32.183  38.355   3.537
59334W        W24495  43.829  18.336  13.589
59335W        W24496   7.796  30.664   3.716
59336W        W24497  33.811  22.720   3.174
59337W        W24498  38.385  39.369   3.375
59338W        W24499  41.278  33.932   4.117
59339W        W24500  18.592   8.981  12.788
59340W        W24501  34.859  34.113  11.530
59341W        W24502   1.796  44.374  13.334
59342W        W24503  24.476  17.714  13.322
59343W        W24504  35.117  35.440  13.369
59344W        W24505  29.064   9.588  13.925
59345W        W24506   1.461  38.592   0.824
59346W        W24507  39.349  44.947  13.005
59347W        W24508  34.453  24.104  10.375
59348W        W24509  17.106  28.621   3.704
59349W        W24510  37.476  17.907  14.972
59350W        W24511   5.042  26.700   1.071
59351W        W24512  21.075  29.223   3.658
59352W        W24513  32.209   4.744   1.022
59353W        W24514  25.461  19.393  11.971
59354W        W24515  28.793  24.774  11.595
59355W        W24516  28.480  17.999  11.193
59356W        W24517  18.685  40.896  14.484
59357W        W24518  29.948  35.095   3.086
59358W        W24519  30.052  29.772   2.352
59359W        W24520  35.527  43.223  13.515
59360W        W24521  35.371  13.622  10.742
59361W        W24522   4.326  36.487   4.612
59362W        W24523  19.367   3.851  11.886
59363W        W24524  12.058   6.792   2.561
59364W        W24525  14.333  32.353   3.156
59365W        W24526  25.232  28.208  10.675
59366W        W24527  43.697  24.068   0.919
59367W        W24528  39.803  19.744  11.975
59368W        W24529  16.983   3.926   4.321
59369W        W24530  11.728  42.024  12.656
59370W        W24531  33.530  20.368  11.984
59371W        W24532   4.810   6.708  11.964
59372W        W24533  40.386   5.618  14.574
59373W        W24534  43.891  34.603   4.644
59374W        W24535   9.441  38.471  14.357
59375W        W24536  23.163   2.146   1.290
59376W        W24537  24.608  44.534   4.741
59377W        W24538  22.226  43.696  11.128
59378W        W24539  28.007  27.601  14.419
59379W        W24540   8.723  30.933  14.296
59380W        W24541  27.083  32.659   3.854
59381W        W24542   5.382  11.698   3.276
59382W        W24543  42.769  41.512   3.969
59383W        W24544   6.251  37.977   3.095
59384W        W24545  16.814  14.045   3.182
59385W        W24546  39.967  31.236  14.775
59386W        W24547  41.372  13.629   0.795
59387W        W24548   5.895  33.779   4.158
59388W        W24549  24.425  29.487  12.974
59389W        W24550   6.623  17.199   3.656
59390W        W24551  29.104  39.517   4.291
59391W        W24552  38.515  14.120  11.514
59392W        W24553   2.962   5.504  11.830
59393W        W24554  38.489   5.978   2.788
59394W        W24555  44.299  25.434   1.488
59395W        W24556  21.258  27.947  11.121
59396W        W24557   7.689  10.344   3.509
59397W        W24558  38.929  38.823  11.267
59398W        W24559  11.056  33.463   0.388
59399W        W24560   1.310   2.987   0.936
59400W        W24561   8.157  15.372   3.755
59401W        W24562  23.630   1.705  14.293
59402W        W24563  41.876  20.275   0.447
59403W        W24564  34.071  36.625   0.414
59404W        W24565  39.887  30.131   2.270
59405W        W24566  16.886  23.283   0.855
59406W        W24567  38.446  19.151  10.718
59407W        W24568  26.140  29.217   2.357
59408W        W24569  33.741  31.431  11.570
59409W        W24570  10.897   1.331   4.817
59410W        W24571  38.638  15.357   0.947
59411W        W24572  11.164   6.733   3.662
59412W        W24573   8.930  42.139  11.147
59413W        W24574  21.163  30.439  11.781
59414W        W24575  27.412  24.372   5.351
59415W        W24576  24.617  11.725  13.976
59416W        W24577   2.757  34.408   0.694
59417W        W24578  19.655  43.867   3.862
59418W        W24579  41.932   5.768   1.623
59419W        W24580  15.941  16.747  10.706
59420W        W24581  17.028  44.729  12.889
59421W        W24582   9.475  42.855  10.670
59422W        W24583   9.153   7.856   2.008
59423W        W24584  37.545  30.514  12.489
59424W        W24585  18.156  19.314   1.316
59425W        W24586   5.384  12.101   4.671
59426W        W24587  13.713  39.555  10.667
59427W        W24588  25.559   4.730  12.320
59428W        W24589   6.962  15.760   4.179
59429W        W24590  22.103  33.174  10.697
59430W        W24591  19.027   7.327  12.690
59431W        W24592  38.797  31.129   1.934
59432W        W24593  35.923   0.917  10.814
59433W        W24594  20.782  13.685   2.857
59434W        W24595  32.192  13.765  12.154
59435W        W24596   4.148  10.648   4.141
59436W        W24597   2.708  35.448  12.130
59437W        W24598  38.501  26.280   2.307
59438W        W24599  41.905  37.153   0.735
59439W        W24600  18.313  32.504  12.634
59440W        W24601   4.418  26.221  14.895
59441W        W24602  25.723  40.961   0.710
59442W        W24603  29.674  14.192  14.683
59443W        W24604  27.809  21.704  12.096
59444W        W24605  20.584  41.246  14.768
59445W        W24606  33.440   6.017  10.936
59446W        W24607  19.726  23.461   4.480
59447W        W24608  16.837  42.049   2.333
59448W        W24609   0.532  25.072  11.153
59449W        W24610  22.442  18.187  13.009
59450W        W24611  42.762  34.230   1.968
59451W        W24612  16.749   2.868  10.415
59452W        W24613  17.472   5.675  11.979
59453W        W24614   8.153  31.068  13.914
59454W        W24615   3.989  22.656   3.716
59455W        W24616  43.848   0.790   0.388
59456W        W24617   9.824  13.531   4.202
59457W        W24618  18.688  37.564  14.246
59458W        W24619  39.869  35.979  14.022
59459W        W24620  31.017  28.387  14.535
59460W        W24621  14.237  17.759  10.773
59461W        W24622  36.623  16.587   0.459
59462W        W24623  24.995  28.988   3.395
59463W        W24624   6.212  32.587  12.959
59464W        W24625  15.745  21.912   4.623
59465W        W24626  31.477  30.461  12.368
59466W        W24627  22.228  28.035  10.397
59467W        W24628   3.167  40.498  11.542
59468W        W24629   3.228  41.275   2.385
59469W        W24630   1.867  40.844  12.211
59470W        W24631  38.294  16.643   4.164
59471W        W24632  14.799  40.120   1.215
59472W        W24633   8.269  13.292   1.664
59473W        W24634  28.160  26.075  12.076
59474W        W24635  11.279  39.466  11.648
59475W        W24636  26.016  32.469   0.467
59476W        W24637   7.663  12.663  12.993
59477W        W24638  18.180  31.562  11.641
59478W        W24639  38.975  42.287  14.618
59479W        W24640  17.238   3.427  14.440
59480W        W24641  11.288  28.925   1.331
59481W        W24642  34.619  42.563  12.900
59482W        W24643  18.150  11.444  13.538
59483W        W24644  25.655   9.167   1.840
59484W        W24645  35.714  14.123  12.511
59485W        W24646  40.092  31.317  11.183
59486W        W24647  29.595  43.798  14.365
59487W        W24648  20.789  17.417  11.669
59488W        W24649   4.747  37.050   2.832
59489W        W24650  15.363   3.263  11.885
59490W        W24651  28.643  15.394  11.197
59491W        W24652  34.013  42.866  14.742
59492W        W24653  33.596  32.289   0.761
59493W        W24654  15.708  16.914   2.686
59494W        W24655   0.191  22.471   3.840
59495W        W24656  11.805   5.902   1.833
59496W        W24657  21.769  24.527  14.393
59497W        W24658  22.010  39.372  11.485
59498W        W24659   0.323  41.086   1.520
59499W        W24660   3.926   2.920  11.896
59500W        W24661  39.872  43.088  10.706
59501W        W24662  34.872  30.107   2.822
59502W        W24663  38.609  22.639  13.269
59503W        W24664  16.104  20.822  12.455
59504W        W24665   7.398  36.472  13.539
59505W        W24666  12.528  15.232   4.453
59506W        W24667   5.823  27.793  12.868
59507W        W24668  40.589   1.765   2.564
59508W        W24669  20.678   6.329   3.881
59509W        W24670   3.763  17.337   1.744
59510W        W24671  42.809   2.060  12.064
59511W        W24672  21.982  30.689  14.269
59512W        W24673  41.928  25.976  12.539
59513W        W24674  18.511  42.450  14.444
59514W        W24675   2.741  11.176   4.133
59515W        W24676   9.924  19.654  10.682
59516W        W24677  39.329  38.131   2.036
59517W        W24678   9.786  31.665   0.738
59518W        W24679  28.081   5.298  14.528
59519W        W24680  41.352  35.432   4.587
59520W        W24681  14.708   6.296  14.489
59521W        W24682   0.885   9.616   0.907
59522W        W24683  33.917  16.322   2.176
59523W        W24684  14.753  22.522  14.729
59524W        W24685   5.438   4.606  12.465
59525W        W24686  22.189  28.691  12.814
59526W        W24687   4.311  24.765  13.055
59527W        W24688  30.464  29.801   3.468
59528W        W24689  41.336   0.175  10.633
59529W        W24690  43.756  11.843  12.178
59530W        W24691  20.608  30.799  12.480
59531W        W24692  37.092  17.590   2.714
59532W        W24693  34.084   2.269  12.077
59533W        W24694  17.716  23.644   4.107
59534W        W24695  33.309  42.379   2.192
59535W        W24696   9.267   1.705  11.133
59536W        W24697  24.877  14.399   0.374
59537W        W24698  26.729  19.629  14.848
59538W        W24699  36.973  33.676   0.379
59539W        W24700   6.712   5.224  14.356
59540W        W24701  26.049  28.776  11.301
59541W        W24702   9.323  30.011  12.172
59542W        W24703  28.871  30.350   2.687
59543W        W24704  10.647  15.361   4.866
59544W        W24705   0.584   0.052  12.894
59545W        W24706  44.893  22.820  12.817
59546W        W24707   6.408  13.926   2.754
59547W        W24708   1.464   1.979   1.097
59548W        W24709  13.302  25.141   3.174
59549W        W24710  35.826  43.519   4.905
59550W        W24711   4.835   1.835   4.077
59551W        W24712  16.295  36.649  13.072
59552W        W24713  10.278  40.865  11.046
59553W        W24714  39.801  39.397  11.222
59554W        W24715  42.777   5.694   1.036
59555W        W24716  20.819   7.479  14.685
59556W        W24717  11.142  27.240   2.907
59557W        W24718   4.035  31.428  10.703
59558W        W24719  32.954   6.823  10.665
59559W        W24720  38.317  44.246  13.230
59560W        W24721   4.447  38.941   3.705
59561W        W24722  34.466   9.353  11.607
59562W        W24723  37.586  28.511   0.441
59563W        W24724  22.452   9.955   4.930
59564W        W24725  29.959  28.963   1.205
59565W        W24726   3.873  42.503   2.311
59566W        W24727  41.524  17.818   3.135
59567W        W24728  38.889  15.121   0.204
59568W        W24729   1.737  17.768   3.211
59569W        W24730  26.314  23.462   1.222
59570W        W24731  30.580  33.617   2.819
59571W        W24732   8.759  34.781   1.243
59572W        W24733   0.542   9.681   4.084
59573W        W24734  24.003  37.522  11.510
59574W        W24735   7.171   9.805   4.138
59575W        W24736   5.007  28.904   0.753
59576W        W24737  44.324  40.014   3.436
59577W        W24738   4.592  36.122  11.222
59578W        W24739  11.369  14.314  13.746
59579W        W24740  32.661   9.459  14.906
59580W        W24741  40.351  43.210   1.105
59581W        W24742   2.439  44.386  10.259
59582W        W24743   2.536   0.008   2.345
59583W        W24744   6.817  12.139  11.970
59584W        W24745  32.623   5.226  13.041
59585W        W24746  24.959  12.402  13.428
59586W        W24747  31.417  18.518   2.407
59587W        W24748   8.861  21.631   3.693
59588W        W24749   3.939  43.833  14.470
59589W        W24750  32.083   6.369   0.492
59590W        W24751  43.712  10.721  13.039
59591W        W24752   2.416  26.440  12.495
59592W        W24753   5.727  14.159   3.610
59593W        W24754   1.474  12.288   4.499
59594W        W24755  24.588  11.913  11.820
59595W        W24756   5.304  32.932  14.399
59596W        W24757  31.558  41.307   2.747
59597W        W24758  23.469  12.868   0.783
59598W        W24759  33.506  31.569   2.161
59599W        W24760  11.473  12.303   4.659
59600W        W24761  37.142  37.854  14.454
59601W        W24762   2.871  41.043   4.486
59602W        W24763  27.615   4.855   4.022
59603W        W24764  23.186  29.403  13.268
59604W        W24765   6.810  14.592  10.751
59605W        W24766  22.907  35.142  10.634
59606W        W24767  11.625   8.760   2.452
59607W        W24768   8.213   2.962   5.045
59608W        W24769  13.303   9.903   2.654
59609W        W24770  12.117  10.418  11.503
59610W        W24771  13.142   4.872   3.201
59611W        W24772   2.394  15.411  10.974
59612W        W24773  10.173  28.415  10.724
59613W        W24774  38.490  39.505   2.386
59614W        W24775   5.820  34.723  13.312
59615W        W24776  43.969   7.766  11.698
59616W        W24777   3.226  22.933   3.042
59617W        W24778   4.899   9.807  12.033
59618W        W24779  13.134  16.735   2.476
59619W        W24780  13.454  44.200   1.778
59620W        W24781  20.217   8.209  13.599
59621W        W24782  22.898  34.648   2.833
59622W        W24783  17.547   0.238   4.553
59623W        W24784  23.057  15.081  12.987
59624W        W24785  40.893  19.650  11.154
59625W        W24786   9.678  42.407   3.571
59626W        W24787  11.575   9.711   3.294
59627W        W24788   4.972  42.886  12.922
59628W        W24789   6.236  39.462  12.186
59629W        W24790  25.588  18.183   0.981
59630W        W24791  33.402  39.848   1.904
59631W        W24792  12.264  37.346   1.591
59632W        W24793  11.700  41.892  14.565
59633W        W24794   6.260   5.674  12.520
59634W        W24795  27.220  32.972   0.363
59635W        W24796   1.353   9.096   2.239
59636W        W24797   1.703  39.999   3.227
59637W        W24798  22.549  35.440  12.571
59638W        W24799  11.582  33.610   4.554
59639W        W24800  40.633   8.895   1.277
59640W        W24801   7.646  18.285   1.939
59641W        W24802  26.753  21.222   0.507
59642W        W24803  34.024  26.131   0.308
59643W        W24804  43.983  15.561  13.594
59644W        W24805   7.276  38.569  11.665
59645W        W24806  41.428  38.068  11.180
59646W        W24807  12.251   4.287   3.787
59647W        W24808  12.897  25.700   2.334
59648W        W24809  16.352  41.941   3.320
59649W        W24810  33.657  27.506  11.634
59650W        W24811  41.844  16.341   3.322
59651W        W24812  37.544   2.993  13.481
59652W        W24813  35.441  44.317   1.443
59653W        W24814  35.090   9.297   3.417
59654W        W24815  17.207  11.592  11.617
59655W        W24816   8.030  28.866   2.709
59656W        W24817  15.536  20.715   0.039
59657W        W24818   0.371  31.952   0.992
59658W        W24819  22.985  20.184   4.052
59659W        W24820  36.698   1.387   4.587
59660W        W24821  35.331  31.450   3.232
59661W        W24822  29.566   0.825   4.635
59662W        W24823  41.924   9.486   2.083
59663W        W24824  34.114  34.099  13.982
59664W        W24825  41.509   3.385  13.860
59665W        W24826  21.260  28.234   3.746
59666W        W24827   2.651  27.062  10.935
59667W        W24828  20.581  21.882  10.154
59668W        W24829  43.345   0.507   4.668
59669W        W24830  30.603   4.373  11.644
59670W        W24831  38.366   7.941   0.310
59671W        W24832  27.007   3.738   3.206
59672W        W24833   3.057  10.250  11.853
59673W        W24834  26.544  33.358  11.607
59674W        W24835  19.479  20.969   1.806
59675W        W24836   7.835  14.157  10.688
59676W        W24837  30.437  15.796   1.466
59677W        W24838  26.472  19.816   0.703
59678W        W24839  28.155  17.218  12.566
59679W        W24840  44.835  35.660  12.101
59680W        W24841  26.487  38.489   0.845
59681W        W24842  30.608  20.461  13.295
59682W        W24843  12.318  34.301   0.374
59683W        W24844  31.322   6.968  13.807
59684W        W24845  44.569  36.158  14.487
59685W        W24846   3.458  21.222  12.588
59686W        W24847  21.670  20.129  11.074
59687W        W24848  20.529   0.901   2.700
59688W        W24849   4.499  18.836  11.856
59689W        W24850  42.288  29.217   2.721
59690W        W24851  31.735  17.531  13.817
59691W        W24852  12.646  39.305   3.256
59692W        W24853  10.778   4.632  11.318
59693W        W24854   6.190  18.710   3.271
59694W        W24855  25.088   9.001  11.166
59695W        W24856  44.222  22.184  12.381
59696W        W24857  44.419  28.453  12.927
59697W        W24858   2.209  18.811   1.682
59698W        W24859  22.466  22.037  12.970
59699W        W24860  34.101   2.262  12.598
59700W        W24861  37.097   8.712  14.524
59701W        W24862  43.450  38.393  14.084
59702W        W24863  23.803  14.763   4.566
59703W        W24864  22.472  16.208  11.206
59704W        W24865  26.639  13.340   2.646
59705W        W24866  44.063  35.203  14.050
59706W        W24867  10.172  22.757  14.891
59707W        W24868  12.259  44.246   1.897
59708W        W24869  36.105   4.787  11.414
59709W        W24870   0.874  11.830  13.446
59710W        W24871  26.594  25.963   2.019
59711W        W24872  26.985  40.341  13.409
59712W        W24873  33.467   3.517  11.707
59713W        W24874  40.609  36.071   1.333
59714W        W24875  15.438   0.341  12.611
59715W        W24876  11.885  17.565   4.551
59716W        W24877  18.021   3.217  13.802
59717W        W24878  14.142   0.695  10.544
59718W        W24879   0.998  17.652   1.739
59719W        W24880  15.878  14.324   2.714
59720W        W24881  24.569  27.235   4.657
59721W        W24882  23.115  25.919  12.659
59722W        W24883  42.643  31.421  11.953
59723W        W24884  26.024   1.177  14.504
59724W        W24885  37.155  35.656  10.712
59725W        W24886  19.542  30.597   3.796
59726W        W24887  16.601  14.269  11.103
59727W        W24888   8.271  22.596   0.307
59728W        W24889  37.981  19.598   0.645
59729W        W24890  30.892  13.345   1.855
59730W        W24891  18.831  14.371   1.822
59731W        W24892   5.463  28.259  10.176
59732W        W24893  42.980   3.533   2.141
59733W        W24894  23.478  19.479  14.568
59734W        W24895  22.581  36.389   1.802
59735W        W24896   3.928  44.977   4.187
59736W        W24897  16.354   6.629  10.884
59737W        W24898  35.106  33.080  11.291
59738W        W24899   7.876  28.591  13.644
59739W        W24900  22.690  15.168   1.829
59740W        W24901   9.570  39.397   1.745
59741W        W24902  13.999   0.202  10.566
59742W        W24903   3.480  11.674   3.105
59743W        W24904   6.396  23.333  10.272
59744W        W24905  13.359  44.101   4.968
59745W        W24906  28.711  37.262  11.085
59746W        W24907  39.067  20.786   0.460
59747W        W24908  42.274  25.282   2.137
59748W        W24909  13.212  22.645   4.666
59749W        W24910  28.967   4.376  14.326
59750W        W24911  20.356  25.906  13.489
59751W        W24912  43.190   2.918   4.163
59752W        W24913  42.074   7.700  13.946
59753W        W24914  16.500  34.356   4.109
59754W        W24915   9.760  24.635   3.891
59755W        W24916  15.009   0.274  13.543
59756W        W24917  43.208  29.955   2.004
59757W        W24918  20.147  23.408   2.788
59758W        W24919   0.051   2.134  12.056
59759W        W24920  10.712  43.661   0.709
59760W        W24921  21.539   3.042   0.862
59761W        W24922  19.530  42.396  13.610
59762W        W24923  19.198  22.131   1.329
59763W        W24924  17.988  17.225   2.373
59764W        W24925  39.081  26.627   0.982
59765W        W24926   4.606  30.486   4.582
59766W        W24927  31.161  32.917  13.925
59767W        W24928  23.238   9.734  13.151
59768W        W24929  26.493  32.238  10.839
59769W        W24930  38.362   8.880   2.617
59770W        W24931  20.620  17.868   4.934
59771W        W24932   6.758  41.125   1.393
59772W        W24933  24.245   5.036  10.719
59773W        W24934   8.927   7.284   0.400
59774W        W24935  44.732  42.381   2.820
59775W        W24936   5.720  30.016   0.775
59776W        W24937  40.453  41.327   2.277
59777W        W24938  39.822  30.331   1.411
59778W        W24939  21.233   9.061   1.712
59779W        W24940   1.246   1.793   2.128
59780W        W24941   2.211  35.729  14.361
59781W        W24942  27.599  44.356   3.482
59782W        W24943  10.471  10.306   3.019
59783W        W24944  26.667  14.491   0.413
59784W        W24945  11.766  31.700   2.289
59785W        W24946   5.722  10.558   3.250
59786W        W24947  28.173  43.341   4.149
59787W        W24948  44.026  24.419  13.535
59788W        W24949  35.059  15.286  13.034
59789W        W24950  25.064  16.440  14.426
59790W        W24951  38.308  23.237   2.703
59791W        W24952  13.230  24.662   3.363
59792W        W24953  12.629  22.708  13.969
59793W        W24954  16.327  29.496  13.902
59794W        W24955   0.475  35.333  13.875
59795W        W24956  29.636  37.452  12.659
59796W        W24957  32.278   3.246   4.331
59797W        W24958  39.840  10.660   4.405
59798W        W24959   4.838   5.501  12.854
59799W        W24960  27.066  36.573   1.123
59800W        W24961  27.612  29.305   4.622
59801W        W24962  28.188  11.443   3.772
59802W        W24963  24.068  14.252   3.688
59803W        W24964   8.610  43.772   1.284
59804W        W24965  15.959  19.638   2.358
59805W        W24966  12.546  14.377   4.147
59806W        W24967  13.225   5.865   2.579
59807W        W24968   9.335  24.588   4.165
59808W        W24969   5.449  44.352   1.025
59809W        W24970  28.980   0.159   1.828
59810W        W24971  43.017   5.777   3.313
59811W        W24972  24.928   5.714   1.806
59812W        W24973  44.450   4.337  14.508
59813W        W24974  22.649  34.451   1.773
59814W        W24975  32.577   4.684   2.548
59815W        W24976  37.334   3.131   3.755
59816W        W24977  19.099  11.328   0.407
59817W        W24978  19.094   0.014   1.279
59818W        W24979  42.101  19.742  13.719
59819W        W24980   5.301  14.717   0.218
59820W        W24981  31.547  31.907   4.189
59821W        W24982  12.367  27.567   4.666
59822W        W24983  20.053   7.395   0.418
59823W        W24984  43.367  36.046   1.657
59824W        W24985  16.658  20.106   0.629
59825W        W24986  12.408   0.316   1.813
59826W        W24987  26.387   6.111  12.836
59827W        W24988  23.989   9.664  11.569
59828W        W24989  27.932  15.086  12.899
59829W        W24990  22.162   6.971  13.103
59830W        W24991   3.236   4.682  12.866
59831W        W24992  14.096   6.925   2.288
59832W        W24993   7.882  38.286   0.870
59833W        W24994   1.388  21.611  10.406
59834W        W24995  18.857  11.426  11.034
59835W        W24996  41.793   1.183  13.737
59836W        W24997   6.307   7.183  11.641
59837W        W24998  27.599  19.073   2.487
59838W        W24999  35.962  10.274   4.843
59839W        W25000  19.183   8.879   1.748
59840W        W25001   0.357  23.532  12.641
59841W        W25002   1.269  35.849  10.240
59842W        W25003  15.281   5.465  12.413
59843W        W25004   5.905  34.375  12.953
59844W        W25005   2.284  36.458   2.185
59845W        W25006   2.184  31.696  14.031
59846W        W25007  34.418  24.493   2.314
59847W        W25008   0.079   8.942  10.685
59848W        W25009  27.354  20.548  11.909
59849W        W25010  30.213  31.231   3.580
59850W        W25011  23.096  28.971  12.405
59851W        W25012  34.154  42.918   3.212
59852W        W25013  14.196  27.099   3.743
59853W        W25014  14.212  33.684   4.488
59854W        W25015  13.861  14.125   1.918
59855W        W25016  15.302  35.576  12.049
59856W        W25017  23.479  14.220   5.001
59857W        W25018  44.787  34.900   0.409
59858W        W25019   1.296  20.569  11.283
59859W        W25020   5.464  28.058   4.631
59860W        W25021  27.239  30.927   1.134
59861W        W25022   0.937  37.142  11.606
59862W        W25023  24.091  28.238   5.193
59863W        W25024  39.417  20.724   4.918
59864W        W25025  44.940  42.277   1.357
59865W        W25026  43.281  39.238   2.004
59866W        W25027  36.086  38.521   0.359
59867W        W25028  43.679   6.953  14.128
59868W        W25029  15.701  38.056  13.477
59869W        W25030  38.945  36.484   3.389
59870W        W25031   9.487  40.935  10.587
59871W        W25032   8.666  39.520  12.408
59872W        W25033   2.269  38.023   0.347
59873W        W25034  25.505  11.634   2.264
59874W        W25035  33.564  13.108  10.988
59875W        W25036  24.085  37.864   2.422
59876W        W25037  39.377  19.796  13.405
59877W        W25038  23.073   4.223   2.190
59878W        W25039  34.869  18.935  14.824
59879W        W25040   0.410  37.640  14.073
59880W        W25041  41.560   9.889  10.725
59881W        W25042  12.633  19.277   1.818
59882W        W25043  18.039  12.740   2.182
59883W        W25044  32.097  16.330  14.546
59884W        W25045  30.589  40.726   1.871
59885W        W25046  43.719  21.552   2.842
59886W        W25047  38.863  18.834  14.344
59887W        W25048   5.458   3.212   2.287
59888W        W25049   4.622  10.468   1.299
59889W        W25050  17.202  15.634  11.214
59890W        W25051  25.471  36.349   0.286
59891W        W25052  34.441   6.689   1.492
59892W        W25053  13.597   4.499   4.301
59893W        W25054   6.545  29.033   3.678
59894W        W25055  37.431  42.408  12.999
59895W        W25056   5.741  43.138   3.703
59896W        W25057   0.357  22.736   1.736
59897W        W25058  23.192   4.727   2.348
59898W        W25059  17.273  29.350  14.459
59899W        W25060  30.541   8.102   1.449
59900W        W25061  24.714  35.614  14.499
59901W        W25062   7.440  32.643  12.467
59902W        W25063  41.470  10.268   2.371
59903W        W25064  40.553   1.398   1.346
59904W        W25065  40.323   1.256  13.376
59905W        W25066  15.604   5.848  12.533
59906W        W25067  25.748  40.591  11.945
59907W        W25068  27.179  24.191  11.103
59908W        W25069  28.411  39.889   0.691
59909W        W25070  27.556   0.394   0.045
59910W        W25071   7.989   4.500   4.206
59911W        W25072  13.114   2.413   1.856
59912W        W25073  20.110  37.470  11.025
59913W        W25074  43.016  26.071  14.298
59914W        W25075   7.039  34.408  12.943
59915W        W25076  15.128  34.245   1.891
59916W        W25077   6.698   0.769   1.424
59917W        W25078   2.921  21.520   3.600
59918W        W25079   8.249  30.634  14.880
59919W        W25080  36.037  43.467   0.280
59920W        W25081  35.964  19.106   3.820
59921W        W25082   5.776  19.755  11.201
59922W        W25083  23.546  23.195  12.357
59923W        W25084  12.162   5.973  14.559
59924W        W25085  34.689  33.433   3.802
59925W        W25086  30.275  36.045  11.032
59926W        W25087  15.880  32.115  12.063
59927W        W25088  19.716  11.912  13.955
59928W        W25089   9.581  17.027  13.430
59929W        W25090  21.188   1.760   0.068
59930W        W25091   4.787  14.538   2.367
59931W        W25092  39.060  13.542  11.980
59932W        W25093  40.534   4.655  14.458
59933W        W25094  34.306  27.285  12.371
59934W        W25095   0.887   1.483  14.927
59935W        W25096  18.998   1.842   5.011
59936W        W25097  34.763   9.560  12.943
59937W        W25098   1.406  42.406  13.117
59938W        W25099   1.206  18.805  11.103
59939W        W25100  40.018  13.380  11.644
59940W        W25101  18.682  14.532   5.441
59941W        W25102   4.866  10.198   5.275
59942W        W25103  27.454  35.439  14.724
59943W        W25104   6.263  38.324   3.679
59944W        W25105   8.884  30.011  10.749
59945W        W25106   6.638  37.583  13.966
59946W        W25107  27.683  23.670   1.450
59947W        W25108  26.215  33.444   2.335
59948W        W25109  36.409  30.255   4.677
59949W        W25110  11.571   3.909  14.549
59950W        W25111  32.613  33.993   0.702
59951W        W25112  25.562  17.693  11.230
59952W        W25113  38.656  28.794   3.672
59953W        W25114  29.412  29.565  11.376
59954W        W25115  11.624  37.037   1.357
59955W        W25116  14.946   7.333  10.289
59956W        W25117  44.757  37.918  13.917
59957W        W25118   0.725  28.432   2.688
59958W        W25119  24.046  13.583   1.158
59959W        W25120   5.155  24.584   0.427
59960W        W25121   3.125  44.996   2.902
59961W        W25122  28.391  29.059   0.264
59962W        W25123  20.146  43.490  12.023
59963W        W25124  31.630   5.749   4.701
59964W        W25125  10.697  11.953   0.421
59965W        W25126   7.200   7.658   1.755
59966W        W25127  31.437  26.413   3.727
59967W        W25128   1.317  15.324  14.824
59968W        W25129  22.536  11.593   0.055
59969W        W25130  29.473   2.023   4.639
59970W        W25131  10.792   5.739   3.968
59971W        W25132  22.777   3.271  12.850
59972W        W25133  38.615  27.629  14.938
59973W        W25134  21.265  17.613   2.704
59974W        W25135  32.583  14.681   4.854
59975W        W25136  30.445  31.443  12.029
59976W        W25137  42.105  34.391  11.740
59977W        W25138  31.586  31.942  12.160
59978W        W25139  14.659  27.551  10.758
59979W        W25140   6.722  29.051  11.061
59980W        W25141  12.755   4.217  13.489
59981W        W25142   6.285  10.417   2.081
59982W        W25143   0.480  37.796   1.888
59983W        W25144   2.973  41.274  14.758
59984W        W25145  26.105  29.965  14.439
59985W        W25146   4.312  44.333  14.069
59986W        W25147  16.846  20.143   3.625
59987W        W25148  44.792  34.387   0.509
59988W        W25149  43.041   7.337   0.349
59989W        W25150   3.780  23.193   0.489
59990W        W25151  40.381  31.082   3.151
59991W        W25152  23.319  10.662  12.886
59992W        W25153  19.208  36.038  13.466
59993W        W25154  43.614  34.201   5.434
59994W        W25155   7.216  18.414  11.513
59995W        W25156  40.477  19.081   0.975
59996W        W25157   3.322  41.933   3.537
59997W        W25158  40.097  27.561   1.808
59998W        W25159  29.479  37.729   4.527
59999W        W25160  17.220  44.814   0.933
60000W        W25161  18.098  29.991   3.293
60001W        W25162  10.583  14.058  11.641
60002W        W25163  26.478  40.082  14.255
60003W        W25164  24.786   4.498   1.650
60004W        W25165  12.818   2.903  14.770
60005W        W25166   9.192  35.814   4.131
60006W        W25167  21.550  37.588  13.513
60007W        W25168   0.201  11.310   4.665
60008W        W25169  38.965  25.269  14.782
60009W        W25170   0.591   1.121   0.282
60010W        W25171  21.353   8.870  13.419
60011W        W25172  16.402  33.073   4.643
60012W        W25173   9.094  30.876  13.944
60013W        W25174  28.486  14.373   2.770
60014W        W25175  39.252   5.426   1.618
60015W        W25176   1.976  38.383   0.037
60016W        W25177  23.655  19.119   9.466
60017W        W25178  27.049  38.046   1.274
60018W        W25179  16.096  26.059  11.448
60019W        W25180  43.868   2.508   3.246
60020W        W25181  15.623  21.536   3.369
60021W        W25182  28.958  29.891   0.025
60022W        W25183  16.573  10.860  14.895
60023W        W25184  33.930  37.448   3.121
60024W        W25185  23.459  15.683  10.399
60025W        W25186   2.949  40.540  13.837
60026W        W25187  31.238  25.006  14.940
60027W        W25188  29.626  40.485  12.465
60028W        W25189   9.220   0.225  11.637
60029W        W25190  30.907  30.756  13.534
60030W        W25191  15.106  34.600  10.718
60031W        W25192  40.029   1.212   4.041
60032W        W25193  35.537  40.336   5.180
60033W        W25194  25.698  23.878  11.779
60034W        W25195  30.327  27.051  14.529
60035W        W25196  37.499  28.974  11.558
60036W        W25197  37.524  21.039  14.988
60037W        W25198  33.520   0.960   3.829
60038W        W25199  34.357  12.782   4.791
60039W        W25200  13.457  14.347  11.074
60040W        W25201  17.101  23.543  11.618
60041W        W25202  42.743  32.901  14.844
60042W        W25203   8.275  25.661  13.755
60043W        W25204  31.187   3.067   1.248
60044W        W25205  28.106  23.039  11.155
60045W        W25206  26.416   2.417  11.567
60046W        W25207  28.995  18.627  14.617
60047W        W25208  11.427   0.889  12.999
60048W        W25209  19.017  12.202   0.742
60049W        W25210  32.342  13.616   4.286
60050W        W25211  20.729  30.362  10.779
60051W        W25212  24.631   0.672   4.309
60052W        W25213   9.115  10.134  13.148
60053W        W25214  36.810  34.439  14.861
60054W        W25215   6.399  27.962  12.822
60055W        W25216  13.397  34.532   1.343
60056W        W25217   1.839  20.684   2.860
60057W        W25218  18.211  16.226   0.867
60058W        W25219   1.865  39.593  13.270
60059W        W25220  30.983  33.571   4.136
60060W        W25221  20.681  27.455  14.446
60061W        W25222  37.315  36.814  12.897
60062W        W25223  37.049   0.420   0.960
60063W        W25224   4.670  37.530   2.161
60064W        W25225  13.097  16.327   4.625
60065W        W25226  38.058  40.391   4.534
60066W        W25227  31.315   9.846  12.422
60067W        W25228  10.484  37.982   1.185
60068W        W25229   6.822   7.148  11.232
60069W        W25230   9.226  33.547  11.225
60070W        W25231  41.771  44.549   4.070
60071W        W25232  24.518  27.899   2.378
60072W        W25233  15.423  16.042  14.004
60073W        W25234  43.909   6.798  12.608
60074W        W25235  16.959  41.004   0.075
60075W        W25236  20.821  19.164  13.262
60076W        W25237  19.359  38.536  12.205
60077W        W25238  38.071  11.585   2.197
60078W        W25239  36.008  35.160   0.252
60079W        W25240  22.046   4.866  11.216
60080W        W25241  32.776  34.955   0.319
60081W        W25242  35.344  26.522   2.595
60082W        W25243   1.378  15.973   4.537
60083W        W25244  42.936  37.965   0.492
60084W        W25245   1.332  22.549  10.779
60085W        W25246  32.312  13.496  14.436
60086W        W25247   4.850  17.331   4.594
60087W        W25248   6.732  30.250   4.214
60088W        W25249   6.168  13.287   0.409
60089W        W25250   9.651  35.565  11.559
60090W        W25251  25.038  12.683  12.363
60091W        W25252  23.126  31.657  10.691
60092W        W25253  29.649  22.002   5.228
60093W        W25254  26.470  13.156  13.056
60094W        W25255  44.156  37.177   3.441
60095W        W25256  14.743   0.229   3.427
60096W        W25257  32.419   4.953  11.760
60097W        W25258  33.496   6.045  13.821
60098W        W25259  38.427   3.201   1.407
60099W        W25260  32.844  32.315   3.333
60100W        W25261  26.965  24.651   2.815
60101W        W25262  34.865  12.941   1.407
60102W        W25263   0.700  25.099  12.696
60103W        W25264  12.832  35.460   2.105
60104W        W25265   4.527   7.952   0.466
60105W        W25266  31.796   5.226   2.765
60106W        W25267   1.944  30.126   4.060
60107W        W25268   6.787  13.118  14.793
60108W        W25269   9.457   5.022   4.483
60109W        W25270   7.288   8.692  14.737
60110W        W25271  41.801  31.974   2.396
60111W        W25272  40.864  10.018   1.513
60112W        W25273   5.714  25.735  11.266
60113W        W25274  26.660  29.962  14.411
60114W        W25275  34.872  37.745  11.976
60115W        W25276  14.598  44.215  11.566
60116W        W25277   3.339  25.990  11.683
60117W        W25278   0.043  43.317   4.501
60118W        W25279   4.990   8.776  12.999
60119W        W25280   4.178  15.224  13.444
60120W        W25281  36.522  37.841   4.255
60121W        W25282  25.116  30.540  14.739
60122W        W25283  17.163  10.353   3.533
60123W        W25284  38.901   1.488  14.554
60124W        W25285  40.613  22.077   3.178
60125W        W25286  17.046  35.785  11.568
60126W        W25287  36.386  21.124   0.496
60127W        W25288  35.995  28.353   4.994
60128W        W25289  34.373  36.517  13.577
60129W        W25290   5.178  44.447  10.617
60130W        W25291  24.424  33.265  11.086
60131W        W25292   6.707  15.274   3.998
60132W        W25293  17.551  34.664  12.022
60133W        W25294   7.838  17.592  11.636
60134W        W25295  12.161  40.397  13.306
60135W        W25296  44.567  10.817   2.348
60136W        W25297  15.106   2.489   1.271
60137W        W25298  21.093  31.087  13.325
60138W        W25299  44.016   6.658   3.814
60139W        W25300  32.337  15.250  11.256
60140W        W25301   8.450  36.978   3.286
60141W        W25302   4.431  17.492   3.032
60142W        W25303  12.242   3.986  10.752
60143W        W25304  28.526  26.128  13.374
60144W        W25305  22.673   4.681  12.708
60145W        W25306  41.485   9.292   3.579
60146W        W25307  35.500  16.655   2.463
60147W        W25308   1.368   5.909   4.609
60148W        W25309  13.251  13.620  12.177
60149W        W25310   0.165  43.199  11.750
60150W        W25311   3.873  41.178   0.647
60151W        W25312   8.303  21.677  12.981
60152W        W25313  29.497  19.801   0.262
60153W        W25314  32.741  37.426   0.222
60154W        W25315   9.707  27.526   3.193
60155W        W25316  37.099  13.265  12.389
60156W        W25317  32.121  30.466  11.124
60157W        W25318  35.586  21.315   4.097
60158W        W25319  12.876  33.061  11.574
60159W        W25320   5.598  29.012   3.415
60160W        W25321  35.869   5.337  13.429
60161W        W25322   2.743  11.977   5.677
60162W        W25323   4.532  31.562  10.690
60163W        W25324  28.488  33.690   1.650
60164W        W25325   2.026   9.332  14.803
60165W        W25326  11.395   2.046   1.006
60166W        W25327  38.383  17.646  13.986
60167W        W25328  30.928   8.153  11.557
60168W        W25329  36.958  25.410   1.912
60169W        W25330   0.348  19.648   0.942
60170W        W25331   9.521   3.196  12.463
60171W        W25332  30.787  20.728   3.298
60172W        W25333  31.446  29.497   3.205
60173W        W25334  29.786   8.811   1.815
60174W        W25335  18.078  31.147  12.851
60175W        W25336  36.421  24.685  12.796
60176W        W25337  11.046  27.023  11.571
60177W        W25338  21.641  18.666   2.638
60178W        W25339  36.819   1.877  12.376
60179W        W25340  44.902  35.490   1.085
60180W        W25341  34.047  10.665  11.613
60181W        W25342  17.515   4.405  11.065
60182W        W25343   5.475  23.356   3.745
60183W        W25344  28.469  24.263   0.869
60184W        W25345   8.061  12.964   0.024
60185W        W25346   6.738  19.119   0.764
60186W        W25347  16.744  41.576  11.579
60187W        W25348  17.350  30.402   0.263
60188W        W25349  43.581  41.938  10.552
60189W        W25350  10.899  15.118  12.345
60190W        W25351  13.742  43.083   1.014
60191W        W25352  26.854  34.445   4.800
60192W        W25353  19.707  21.540  12.459
60193W        W25354   3.413   6.769  12.109
60194W        W25355  34.844  35.939  12.011
60195W        W25356  41.994  42.449  14.031
60196W        W25357  15.867   9.801   4.436
60197W        W25358  22.146  25.113  11.667
60198W        W25359  34.441  36.395   2.396
60199W        W25360  14.195  17.833   3.761
60200W        W25361   6.184  44.025   2.696
60201W        W25362  30.196  11.871   3.285
60202W        W25363  33.542   6.172  10.444
60203W        W25364  43.011  43.097  12.091
60204W        W25365   9.919  23.527   1.685
60205W        W25366  15.837  13.392   0.369
60206W        W25367   8.681  34.858  12.999
60207W        W25368  33.967   0.271  11.080
60208W        W25369  13.361  15.467  10.472
60209W        W25370   5.674   2.467   0.790
60210W        W25371  41.022  30.264  11.778
60211W        W25372  43.770   5.607   2.859
60212W        W25373  35.266   0.970  14.762
60213W        W25374  41.059  40.872   2.746
60214W        W25375   8.158  39.903  13.057
60215W        W25376  21.249  22.071   3.495
60216W        W25377  27.686  15.628  10.684
60217W        W25378   7.685   8.187  13.514
60218W        W25379  23.635   9.700   1.851
60219W        W25380  38.087   2.827   2.256
60220W        W25381  13.036  24.584   0.837
60221W        W25382   0.488   7.668   1.341
60222W        W25383  25.647  29.538   1.640
60223W        W25384  11.918  39.934   3.207
60224W        W25385  12.385  42.031  12.762
60225W        W25386  16.232  22.000  10.754
60226W        W25387  34.455  26.039   4.009
60227W        W25388  19.638  32.719   0.224
60228W        W25389   2.550  10.303  11.970
60229W        W25390  18.726  29.582  12.928
60230W        W25391   7.689   0.251  11.159
60231W        W25392  12.415  39.031  13.365
60232W        W25393  14.102   3.463   0.683
60233W        W25394  44.427  15.856  14.452
60234W        W25395  41.848   2.934   0.194
60235W        W25396   9.897   7.434   2.242
60236W        W25397  15.215  15.884  10.615
60237W        W25398  22.954  11.586   5.435
60238W        W25399   9.322  43.182   0.793
60239W        W25400  15.759   3.811   1.201
60240W        W25401   8.349  39.743  14.943
60241W        W25402  20.231  14.284   0.365
60242W        W25403  17.200  25.891  13.890
60243W        W25404  39.197  33.572   2.467
60244W        W25405  13.686   3.200   3.225
60245W        W25406   4.593   4.465  11.763
60246W        W25407  43.977   7.283  13.820
60247W        W25408  39.323  37.146  10.550
60248W        W25409  11.194  10.113  13.337
60249W        W25410   2.148  13.322   0.857
60250W        W25411  38.589   5.405  12.485
60251W        W25412  25.740  18.322   1.480
60252W        W25413  16.466  13.901  10.755
60253W        W25414  20.152  13.214   3.576
60254W        W25415   7.304   8.719   1.818
60255W        W25416  20.527  34.117  14.379
60256W        W25417  26.027   2.897  11.106
60257W        W25418  22.236  35.158  11.289
60258W        W25419  15.184  38.800   3.756
60259W        W25420  22.045  19.896  13.634
60260W        W25421  38.344  15.722  13.604
60261W        W25422  17.223  23.722   3.957
60262W        W25423   3.900  28.948  14.831
60263W        W25424  43.841  36.443   0.797
60264W        W25425  44.089   8.899  10.833
60265W        W25426  20.956  24.643  14.040
60266W        W25427  13.386  32.732  14.521
60267W        W25428  35.825   6.841   2.579
60268W        W25429   9.799  28.259   2.312
60269W        W25430  33.607  28.621  11.630
60270W        W25431   6.770  13.831   3.639
60271W        W25432  11.123  25.525   2.343
60272W        W25433  39.567   6.747  12.740
60273W        W25434  18.726  35.312  13.279
60274W        W25435  34.441  24.981  10.447
60275W        W25436  22.168  28.186   0.285
60276W        W25437  44.794  37.714   1.665
60277W        W25438  32.159  40.336   3.360
60278W        W25439  29.009  18.150   3.250
60279W        W25440   5.337  21.700  13.726
60280W        W25441   0.804  31.804  10.440
60281W        W25442  41.288  42.612   1.781
60282W        W25443   0.561  37.488  11.494
60283W        W25444  32.454  14.245   0.949
60284W        W25445  13.209  18.679   1.481
60285W        W25446  14.830  10.743  11.968
60286W        W25447  34.354  41.272  12.851
60287W        W25448  18.571  33.799  12.549
60288W        W25449  26.781  29.763  11.564
60289W        W25450  36.252  38.258  12.026
60290W        W25451  26.269  22.659   0.731
60291W        W25452  35.350   2.278   3.243
60292W        W25453   5.800  32.623  12.060
60293W        W25454  32.672  33.784  11.120
60294W        W25455   6.792   7.651   3.275
60295W        W25456   0.242  41.881  14.286
60296W        W25457  42.357  42.384  11.809
60297W        W25458  10.257  31.515   1.013
60298W        W25459  35.876  17.664   4.017
60299W        W25460  21.103   3.492  13.655
60300W        W25461  44.655  20.291   3.526
60301W        W25462  40.287   2.916  11.042
60302W        W25463  17.764  31.592   2.040
60303W        W25464  36.984   3.228   1.642
60304W        W25465  27.440  40.787  14.386
60305W        W25466   5.433  30.935   2.387
60306W        W25467   0.810  23.749  12.455
60307W        W25468   9.605  12.596   3.362
60308W        W25469  32.613   7.873   1.742
60309W        W25470  32.939  38.434  11.909
60310W        W25471  18.379  37.275  13.455
60311W        W25472   6.371  32.825  12.489
60312W        W25473   4.139  41.241   2.485
60313W        W25474  24.697  39.808   1.278
60314W        W25475   6.884   0.523   2.628
60315W        W25476  44.593  25.454  12.870
60316W        W25477  43.962  37.117   1.231
60317W        W25478  36.809  19.327   0.039
60318W        W25479  43.552  11.655  11.247
60319W        W25480   6.920  11.810   2.936
60320W        W25481  26.683   0.991   0.682
60321W        W25482   4.729  13.848  12.459
60322W        W25483  22.287  11.877   3.386
60323W        W25484  33.005  34.573  12.405
60324W        W25485  14.366  33.981   2.831
60325W        W25486  40.789  21.986  12.070
60326W        W25487   0.160  30.410   0.314
60327W        W25488   7.307  40.446   4.084
60328W        W25489  29.020   8.328  11.592
60329W        W25490  28.181  15.825  10.618
60330W        W25491   9.613  25.699   2.873
60331W        W25492   9.998  18.482   2.822
60332W        W25493  35.757  30.455  11.971
60333W        W25494  33.433  28.205  12.167
60334W        W25495  19.222  34.278   2.265
60335W        W25496  19.666  43.343  12.197
60336W        W25497  36.526   8.660   4.088
60337W        W25498   7.255  12.108  11.116
60338W        W25499  14.089  40.482   4.466
60339W        W25500   0.502  18.257  12.834
60340W        W25501  38.887   8.721   1.761
60341W        W25502   2.611  37.574   4.603
60342W        W25503  39.650  27.007  12.464
60343W        W25504  27.642  33.423   4.672
60344W        W25505  39.498  10.899   2.090
60345W        W25506   2.776   9.298   4.142
60346W        W25507  31.273  24.313  13.801
60347W        W25508  40.818   1.762   4.078
60348W        W25509   6.348  43.825   3.164
60349W        W25510  18.580  33.090   4.916
60350W        W25511  10.311  17.434   2.957
60351W        W25512  22.162  35.634  14.422
60352W        W25513  41.843  21.015   1.990
60353W        W25514  35.633  27.525   4.564
60354W        W25515  42.970   6.491   1.437
60355W        W25516   9.659  15.717   1.268
60356W        W25517   5.553  12.772   3.856
60357W        W25518   9.397   4.699  11.582
60358W        W25519  37.057  14.092  13.824
60359W        W25520  22.300  10.457   1.118
60360W        W25521  33.918  21.604  13.817
60361W        W25522  23.952  34.051   3.368
60362W        W25523   5.166  30.007   2.750
60363W        W25524  10.122  25.901  10.690
60364W        W25525  15.052   0.532  14.383
60365W        W25526  37.497  18.472   4.540
60366W        W25527  28.914  18.297   0.349
60367W        W25528  14.138  13.262   0.333
60368W        W25529  44.453  25.232   4.164
60369W        W25530  14.745  41.515   0.426
60370W        W25531   3.949  10.115  14.740
60371W        W25532  28.025   9.871   0.387
60372W        W25533  25.195  13.509  13.410
60373W        W25534  30.619  13.592   4.513
60374W        W25535  30.363  18.059   4.185
60375W        W25536  39.258  13.153  14.522
60376W        W25537  38.822   0.877  12.940
60377W        W25538  44.439  37.313  10.493
60378W        W25539  35.778  40.695  12.458
60379W        W25540  35.125  26.113  14.349
60380W        W25541   1.002  35.941   1.630
60381W        W25542  13.485   7.427  14.275
60382W        W25543  19.824  21.932  11.215
60383W        W25544  32.923  22.584   3.056
60384W        W25545  13.545  28.363   3.753
60385W        W25546   9.395  33.667   0.723
60386W        W25547  39.473   5.846  11.475
60387W        W25548  34.839  11.893  10.445
60388W        W25549   7.953   3.719   4.664
60389W        W25550  27.947   2.864   0.033
60390W        W25551   7.014   5.221   2.277
60391W        W25552  23.067  17.045   2.696
60392W        W25553  34.482   1.912  11.086
60393W        W25554  20.804   2.398   4.733
60394W        W25555   3.001   5.198   3.546
60395W        W25556  16.481  19.991  10.716
60396W        W25557  11.261  20.685   0.866
60397W        W25558  42.590  41.941  10.674
60398W        W25559  12.234  37.596  12.935
60399W        W25560  30.456  35.598   1.966
60400W        W25561   1.790  32.634   0.922
60401W        W25562   8.193  42.335   3.402
60402W        W25563  21.738  34.469   2.405
60403W        W25564  16.386  16.135  12.973
60404W        W25565  31.156  42.761   1.606
60405W        W25566  31.191   4.005   3.610
60406W        W25567  14.153   9.785   3.671
60407W        W25568   8.391  42.890   4.159
60408W        W25569  31.619  16.630   0.452
60409W        W25570  19.331  24.083   4.594
60410W        W25571   1.946  24.792  13.937
60411W        W25572  15.783  43.366   2.794
60412W        W25573   3.533  28.545   1.668
60413W        W25574   5.495  27.580   0.996
60414W        W25575  31.651  30.696   9.917
60415W        W25576  37.417  30.721  13.854
60416W        W25577  16.734  42.326  11.074
60417W        W25578  14.777  19.195   1.463
60418W        W25579  22.673  11.569  12.559
60419W        W25580   2.393  43.881  11.975
60420W        W25581  44.880   7.175   3.580
60421W        W25582  35.295  16.277  14.887
60422W        W25583  20.521  19.570   4.833
60423W        W25584  16.652  28.398   3.835
60424W        W25585  44.795  18.729   4.822
60425W        W25586   9.181  27.402   4.996
60426W        W25587  41.947  37.338  12.015
60427W        W25588  30.421   7.251  11.831
60428W        W25589  20.331   0.087   4.160
60429W        W25590   7.385   5.119   1.041
60430W        W25591  31.061  20.960   3.657
60431W        W25592  27.212  21.008   3.199
60432W        W25593  17.932   0.776   0.693
60433W        W25594  17.821  27.816  11.679
60434W        W25595  35.844  28.235   3.299
60435W        W25596  21.044  15.116   1.731
60436W        W25597  43.880   7.330  14.845
60437W        W25598   4.244  13.086  14.301
60438W        W25599  28.822  39.253   0.005
60439W        W25600  40.894  32.051  13.477
60440W        W25601  16.723  38.291   5.385
60441W        W25602  38.385  14.379  14.363
60442W        W25603  31.621  43.656  11.399
60443W        W25604   8.423  33.054   1.416
60444W        W25605   8.224   6.850   1.195
60445W        W25606  39.907  31.482   4.378
60446W        W25607  18.211   5.941   3.701
60447W        W25608   1.489  28.026   1.261
60448W        W25609  40.146   1.883  13.055
60449W        W25610  42.528   4.883   0.186
60450W        W25611  26.205  29.499  10.383
60451W        W25612  30.177  26.279  12.899
60452W        W25613   2.321  34.831   0.816
60453W        W25614  13.752  11.678  13.052
60454W        W25615  42.066  33.697  11.799
60455W        W25616  25.688  36.850   4.164
60456W        W25617  43.863  33.505  10.631
60457W        W25618  19.570  22.702   5.090
60458W        W25619  33.472  19.729   3.659
60459W        W25620  34.563  33.847  13.027
60460W        W25621  26.157   4.885   4.997
60461W        W25622   9.850  21.530   3.225
60462W        W25623   9.694   7.444   3.666
60463W        W25624  37.890  23.453   1.938
60464W        W25625  44.659  24.120  12.988
60465W        W25626  37.073  42.290  14.321
60466W        W25627  33.433  27.952   2.791
60467W        W25628  23.017  34.860   1.159
60468W        W25629   8.957   3.254   3.498
60469W        W25630  41.165  42.764  14.326
60470W        W25631  32.540  41.909  12.100
60471W        W25632  40.512  27.126  12.029
60472W        W25633  23.694  18.324  11.184
60473W        W25634  19.194   7.254  10.818
60474W        W25635  33.849  23.288  14.391
60475W        W25636  25.641  29.787   2.082
60476W        W25637  28.413  32.384   0.454
60477W        W25638  40.031  37.618  12.353
60478W        W25639  44.268   4.058   4.204
60479W        W25640   8.211  15.673  10.863
60480W        W25641   0.807  24.204  11.589
60481W        W25642   6.059  34.701  13.767
60482W        W25643   2.702  16.575   3.312
60483W        W25644  28.468  30.040   1.672
60484W        W25645  12.121  11.665  10.808
60485W        W25646  30.559  37.950   0.330
60486W        W25647  21.633  41.942  13.347
60487W        W25648  13.565  23.998   4.241
60488W        W25649  13.559  43.374   0.173
60489W        W25650  42.060  25.137   4.721
60490W        W25651   8.285  44.151   2.685
60491W        W25652  17.066  25.588  12.935
60492W        W25653  17.261  37.155   1.043
60493W        W25654  28.770  10.149   1.516
60494W        W25655  33.972   3.219   0.766
60495W        W25656  17.525  25.555   0.613
60496W        W25657  23.035   1.823  11.534
60497W        W25658   8.823  12.783   0.776
60498W        W25659  34.634  23.314  14.814
60499W        W25660  43.523   4.293  11.569
60500W        W25661  33.065  25.493  12.721
60501W        W25662  43.867   4.119  11.953
60502W        W25663  13.198  27.918   0.863
60503W        W25664  32.403  43.971   3.361
60504W        W25665  33.367   5.978   1.436
60505W        W25666  38.064   8.360   0.375
60506W        W25667  23.045  38.876  14.020
60507W        W25668  12.263  38.079  10.610
60508W        W25669  22.894   5.850   3.338
60509W        W25670  20.799  17.816  12.013
60510W        W25671  29.155  44.935   3.594
60511W        W25672   4.921  35.242   0.788
60512W        W25673  44.023   2.887  11.567
60513W        W25674  33.561  28.840  13.598
60514W        W25675  34.447   2.517   0.726
60515W        W25676  21.029  12.066  14.107
60516W        W25677  24.893  30.184   4.651
60517W        W25678  28.007   3.458   3.629
60518W        W25679   6.366  15.450  10.587
60519W        W25680  13.262  35.108  10.734
60520W        W25681   1.930  14.460   1.386
60521W        W25682  14.029  44.583   2.321
60522W        W25683  21.801  28.588   2.663
60523W        W25684  31.939  43.330   1.881
60524W        W25685  19.212  24.616   1.623
60525W        W25686  28.165  37.326  12.536
60526W        W25687  39.470  35.641   3.254
60527W        W25688  21.705  38.900   4.764
60528W        W25689  34.333  35.088  10.606
60529W        W25690  25.036  13.588  11.584
60530W        W25691  43.310   5.219   1.381
60531W        W25692  38.358  20.905  14.755
60532W        W25693  13.410  31.106   1.855
60533W        W25694  28.542  35.564  11.601
60534W        W25695  15.683   1.375  10.960
60535W        W25696  27.808  38.266   3.600
60536W        W25697  32.228  43.898  11.515
60537W        W25698  39.462   7.613   4.090
60538W        W25699  42.360  44.228   1.239
60539W        W25700   3.812  34.678   1.855
60540W        W25701  18.261  41.972   4.384
60541W        W25702  24.216  21.253  12.115
60542W        W25703  23.736  23.763  12.979
60543W        W25704  19.188  36.403  13.886
60544W        W25705   4.198  34.497  14.815
60545W        W25706   4.393   9.113  14.772
60546W        W25707   2.183  25.551  13.715
60547W        W25708  22.065   6.338   0.129
60548W        W25709  22.566  15.058   4.142
60549W        W25710  11.902   2.967   2.811
60550W        W25711   8.691   2.325  14.113
60551W        W25712  33.924  31.250   1.436
60552W        W25713   8.629  44.490  14.764
60553W        W25714   6.886  16.381   2.639
60554W        W25715  21.986   8.511   3.260
60555W        W25716  14.670   1.797  12.442
60556W        W25717  33.375  18.172   4.201
60557W        W25718  34.156  23.028   3.380
60558W        W25719   5.182  10.826   1.844
60559W        W25720   1.522  38.925   1.215
60560W        W25721  39.111  40.839  11.944
60561W        W25722  14.779  32.678  13.767
60562W        W25723  44.112  20.706   5.148
60563W        W25724   2.281  10.682   2.284
60564W        W25725   1.370  27.031   0.724
60565W        W25726  20.792   3.908  10.730
60566W        W25727  37.040   8.012   4.070
60567W        W25728  36.508  24.580  13.827
60568W        W25729   1.770  40.823   1.266
60569W        W25730  17.930  30.152   1.903
60570W        W25731  32.984   4.910   2.228
60571W        W25732   3.144  15.268  12.842
60572W        W25733   4.144  22.601  13.255
60573W        W25734   7.280  39.167  14.758
60574W        W25735   5.787  30.595  11.588
60575W        W25736  30.541   4.940   2.791
60576W        W25737  21.471   9.582  13.512
60577W        W25738   2.480  12.173  13.487
60578W        W25739  41.065   5.205   2.301
60579W        W25740  40.998  14.257   3.683
60580W        W25741  38.438   2.218   3.971
60581W        W25742  28.638   0.770  11.533
60582W        W25743  17.470  28.175  10.252
60583W        W25744  29.227  44.721  14.448
60584W        W25745  16.346  19.718  11.866
60585W        W25746  17.821  29.878  14.789
60586W        W25747  38.683  14.181   3.945
60587W        W25748   2.330  21.427  10.691
60588W        W25749   6.431  41.456   0.515
60589W        W25750  27.830  11.836  14.492
60590W        W25751  25.623  15.580  12.223
60591W        W25752  34.373  15.747   1.210
60592W        W25753  40.215  37.277  12.020
60593W        W25754  42.961  38.049   0.995
60594W        W25755  44.307  39.633   2.753
60595W        W25756  24.355  33.837   1.997
60596W        W25757  31.893  31.967  11.612
60597W        W25758  20.769  36.924  14.843
60598W        W25759  31.795  36.563   1.773
60599W        W25760  33.103  12.201  12.985
60600W        W25761   2.599  32.105   5.017
60601W        W25762  21.859  38.614  10.285
60602W        W25763  42.962  41.030   4.025
60603W        W25764  22.733  42.693  14.367
60604W        W25765   5.447  32.094   2.345
60605W        W25766  10.116  38.653   2.890
60606W        W25767  32.612  43.939   4.315
60607W        W25768  36.083  14.370   2.712
60608W        W25769  28.051  31.103  10.613
60609W        W25770  23.795  30.460  10.754
60610W        W25771  25.036   4.800  12.070
60611W        W25772  38.447  10.440  11.921
60612W        W25773  38.386   7.717  11.705
60613W        W25774  31.589   0.492   4.275
60614W        W25775  35.413  14.737   2.847
60615W        W25776   9.257  10.388  10.341
60616W        W25777  22.641  42.784   4.132
60617W        W25778  17.763  28.518   0.051
60618W        W25779  32.517  41.903  13.969
60619W        W25780  43.947  12.827  12.098
60620W        W25781  15.471  35.672   1.286
60621W        W25782  32.960   5.952  11.108
60622W        W25783  27.643   7.744  12.407
60623W        W25784  40.077  28.008  13.091
60624W        W25785  19.630   4.664   3.925
60625W        W25786  26.060   5.125  11.439
60626W        W25787  33.018  44.428  13.378
60627W        W25788  12.129  32.658  11.583
60628W        W25789  14.723  14.537   3.366
60629W        W25790  30.100  16.156  12.098
60630W        W25791  41.272  42.885  13.148
60631W        W25792  42.184  10.841   4.729
60632W        W25793  21.308  29.126   1.695
60633W        W25794  24.246  18.315   0.734
60634W        W25795  38.302  39.372   3.875
60635W        W25796  39.910   6.733   3.393
60636W        W25797   7.424  18.815  12.452
60637W        W25798  11.659  19.642  12.851
60638W        W25799  21.481  28.566  11.495
60639W        W25800  14.638   5.844   2.393
60640W        W25801  42.789  30.620  10.740
60641W        W25802   8.919  31.247   5.120
60642W        W25803  40.344  30.901  12.053
60643W        W25804  43.513  33.338   1.505
60644W        W25805   1.367  20.536  12.618
60645W        W25806  36.793   7.301  10.456
60646W        W25807  26.202   4.626   2.297
60647W        W25808  19.562   5.802   2.778
60648W        W25809  28.586  24.796  13.891
60649W        W25810  26.485  30.622  12.139
60650W        W25811  23.111  26.313  10.731
60651W        W25812   8.282  37.057   4.246
60652W        W25813  14.002   9.352   3.915
60653W        W25814   2.299   1.369  11.385
60654W        W25815   9.705  15.273  12.812
60655W        W25816  22.558  31.357   2.804
60656W        W25817  13.093   6.350  11.894
60657W        W25818   3.424  12.124   2.872
60658W        W25819  35.961  15.735  13.821
60659W        W25820  36.684  18.156   4.266
60660W        W25821  23.012   7.958   3.841
60661W        W25822  41.163  26.263  13.534
60662W        W25823  23.606  40.410   3.516
60663W        W25824  18.611  19.367   4.982
60664W        W25825   5.943  40.178  11.607
60665W        W25826  29.185  23.029  12.982
60666W        W25827  33.632  43.843   3.030
60667W        W25828   9.648  36.573   3.155
60668W        W25829  10.317  21.277  14.799
60669W        W25830  36.001   9.765  10.505
60670W        W25831   4.915   8.785   2.190
60671W        W25832  15.329  41.027   1.309
60672W        W25833   9.509  12.240   4.551
60673W        W25834  21.753  15.702  11.380
60674W        W25835  39.299  28.151   2.868
60675W        W25836   4.334  24.431  10.610
60676W        W25837   1.723  16.837   3.144
60677W        W25838  32.487  12.747  13.969
60678W        W25839  12.912  15.861  11.182
60679W        W25840  21.769  22.218   2.644
60680W        W25841   9.195  34.639  13.516
60681W        W25842  15.097   8.821  14.381
60682W        W25843  15.700  15.801   1.391
60683W        W25844  17.216  31.728  12.650
60684W        W25845  31.261  43.956  11.641
60685W        W25846  32.857  39.233   1.322
60686W        W25847  25.247   8.891  12.077
60687W        W25848  40.547  36.345  14.806
60688W        W25849  25.779  18.807   4.551
60689W        W25850  38.657  21.734  11.239
60690W        W25851  10.794   9.840  11.409
60691W        W25852  35.001  40.617   4.774
60692W        W25853   7.982   6.488  12.547
60693W        W25854  17.051  18.491   0.360
60694W        W25855  37.398  20.644  12.045
60695W        W25856  29.404  38.373  10.512
60696W        W25857  12.132  10.929  11.540
60697W        W25858  35.595   8.691   1.265
60698W        W25859  12.041   5.652  13.318
60699W        W25860   0.922  16.863  13.267
60700W        W25861  36.893  15.864  13.313
60701W        W25862  13.453  42.839   9.588
60702W        W25863  20.970   7.792   1.251
60703W        W25864  39.419  30.637  13.934
60704W        W25865   4.132  33.590  12.462
60705W        W25866   8.682  25.540  11.789
60706W        W25867  39.871  42.535   4.469
60707W        W25868  21.007  11.287   0.440
60708W        W25869  11.642  43.830  12.180
60709W        W25870  31.635  10.614   3.650
60710W        W25871  22.188   8.303  13.301
60711W        W25872  34.042  17.752  12.461
60712W        W25873  20.066  17.711  14.468
60713W        W25874  17.187  11.462   0.268
60714W        W25875  42.969  31.109  10.776
60715W        W25876  14.964   5.870  13.360
60716W        W25877  36.473  15.196   0.854
60717W        W25878  41.408  12.735  12.873
60718W        W25879  28.732  13.858   0.425
60719W        W25880  39.589  43.483  13.947
60720W        W25881  32.377  25.256  14.902
60721W        W25882  13.804   6.530  10.447
60722W        W25883  40.983   5.316  10.693
60723W        W25884  13.783   1.302   1.651
60724W        W25885  13.593   7.450   4.773
60725W        W25886  22.319   1.465   3.089
60726W        W25887  41.384  20.830   2.757
60727W        W25888  17.714   0.849  10.097
60728W        W25889  41.859   7.127  14.375
60729W        W25890   0.750  26.902   1.263
60730W        W25891  27.817   2.546  10.701
60731W        W25892   7.304  22.723   5.032
60732W        W25893  32.151   7.614  14.014
60733W        W25894  33.497   5.043  14.853
60734W        W25895  27.049  14.838   1.178
60735W        W25896  35.857   4.243  13.390
60736W        W25897  17.953   3.649   4.089
60737W        W25898  43.163  26.876   3.942
60738W        W25899  21.821  10.739  14.395
60739W        W25900  42.781  26.495   0.999
60740W        W25901  18.163  34.175   2.903
60741W        W25902  33.176  19.040  13.996
60742W        W25903  18.609  43.917   1.658
60743W        W25904   6.406  24.613   4.396
60744W        W25905  22.771   3.877  14.934
60745W        W25906  33.483  26.649  14.565
60746W        W25907   9.559   3.896  11.899
60747W        W25908  23.951   2.795  14.423
60748W        W25909  18.753  42.343   3.336
60749W        W25910  31.723   4.719   0.821
60750W        W25911  37.510  10.957  14.286
60751W        W25912  40.013   4.798   1.587
60752W        W25913  34.996  28.509   0.313
60753W        W25914   7.377  19.825  10.580
60754W        W25915  34.926   4.356   4.061
60755W        W25916  26.468  31.149   0.052
60756W        W25917  30.220  40.253   3.289
60757W        W25918  39.556  41.697   0.520
60758W        W25919  31.868  40.939   1.794
60759W        W25920  36.093  15.861   0.909
60760W        W25921  37.358  29.725  13.585
60761W        W25922  12.044  26.488   0.997
60762W        W25923  16.282   4.362   0.290
60763W        W25924  25.168  28.505   4.157
60764W        W25925  22.725  44.386  14.973
60765W        W25926  35.413  14.297   1.258
60766W        W25927  19.614  13.936   3.305
60767W        W25928  15.137  22.306  11.031
60768W        W25929   2.068  38.978  12.507
60769W        W25930   0.654  31.487   2.406
60770W        W25931  14.233  30.251  12.597
60771W        W25932  27.637  42.548  10.719
60772W        W25933  24.021  28.722   0.471
60773W        W25934  41.060  26.634   3.397
60774W        W25935  41.633  27.505  14.872
60775W        W25936  13.455  38.588  13.994
60776W        W25937   4.367   6.806  12.201
60777W        W25938  28.885   1.717  14.588
60778W        W25939  12.283  42.581  13.564
60779W        W25940  30.233  41.499  12.681
60780W        W25941  43.499   8.289   2.399
60781W        W25942  30.716   9.241  14.299
60782W        W25943  38.831   3.366   3.983
60783W        W25944   1.758  35.468  14.230
60784W        W25945   1.708  17.581   2.715
60785W        W25946  11.115   2.358  11.203
60786W        W25947  20.483  13.288   0.829
60787W        W25948  33.236  15.173  12.358
60788W        W25949  23.536   6.218   3.722
60789W        W25950  31.444   5.149  12.620
60790W        W25951   4.819  43.869   2.046
60791W        W25952  10.128  30.435  12.153
60792W        W25953  41.434  21.362  13.556
60793W        W25954  23.095   0.180   0.504
60794W        W25955  33.473  21.439  13.502
60795W        W25956  22.229  42.225  12.355
60796W        W25957  42.352   3.417   3.282
60797W        W25958  35.268  32.478   2.206
60798W        W25959   5.372  28.759  13.764
60799W        W25960  36.366  40.462  10.424
60800W        W25961  22.988  35.555   1.875
60801W        W25962   4.294  29.501   0.853
60802W        W25963  22.507  12.089   3.846
60803W        W25964  23.025  12.373  14.942
60804W        W25965  42.611  19.750   0.995
60805W        W25966  18.072   8.912   3.690
60806W        W25967   8.835  15.335  13.559
60807W        W25968  36.142  31.049   0.884
60808W        W25969  20.662   8.707   3.747
60809W        W25970  12.693  44.391  10.714
60810W        W25971   3.103   4.938  10.717
60811W        W25972   6.761  43.923   0.884
60812W        W25973   2.641   1.864   2.060
60813W        W25974  30.994  40.127   2.877
60814W        W25975  21.314  37.708   0.311
60815W        W25976  39.353   4.622   1.324
60816W        W25977   2.267  39.322   3.988
60817W        W25978  19.155   3.851   4.293
60818W        W25979  28.898  26.195  12.403
60819W        W25980   6.720  11.256   1.549
60820W        W25981  16.649  35.311   3.759
60821W        W25982  26.755  31.631   4.921
60822W        W25983  31.678  17.852  12.957
60823W        W25984  16.245  25.501  12.921
60824W        W25985  14.830   8.659   1.344
60825W        W25986  31.037   3.057   2.603
60826W        W25987  39.341  29.528   2.621
60827W        W25988   9.193  14.855   4.139
60828W        W25989  32.213   7.117  14.028
60829W        W25990  17.232  14.674  13.751
60830W        W25991  33.604  31.110  13.983
60831W        W25992  14.555  26.050   0.241
60832W        W25993  26.150   3.239  14.416
60833W        W25994  41.170  19.815  12.479
60834W        W25995  19.503  11.070   1.678
60835W        W25996  12.774  27.445  11.219
60836W        W25997  44.446   6.379  11.434
60837W        W25998  35.032  43.030   4.450
60838W        W25999  16.548  32.889   4.153
60839W        W26000  13.717  30.059  14.793
60840W        W26001  43.899  24.700  11.565
60841W        W26002   8.292   2.057  11.949
60842W        W26003  17.006  37.109   2.842
60843W        W26004  39.340  37.532  10.184
60844W        W26005  12.918  15.880   0.815
60845W        W26006  11.540  22.760  10.170
60846W        W26007   1.444  27.994   3.133
60847W        W26008   5.985  28.998   3.077
60848W        W26009   7.886  27.138   3.153
60849W        W26010  16.779  18.688  11.467
60850W        W26011  12.411  42.438  10.713
60851W        W26012  41.835  44.562   9.666
60852W        W26013  22.685  27.139   3.707
60853W        W26014   7.999   1.729  10.768
60854W        W26015   9.848  30.171  13.057
60855W        W26016  32.005  26.601   2.075
60856W        W26017  19.328  21.340   4.602
60857W        W26018  19.466  35.525   3.220
60858W        W26019  39.971  13.310   0.930
60859W        W26020  44.375  30.126   0.062
60860W        W26021  29.678  19.310   0.316
60861W        W26022   1.043  30.859  10.348
60862W        W26023   1.460  42.900  10.808
60863W        W26024   1.368   5.597  14.308
60864W        W26025  25.772  12.899   4.051
60865W        W26026   2.192  33.934   4.837
60866W        W26027  27.466  38.335  11.890
60867W        W26028  42.979  24.916   4.215
60868W        W26029  40.327  22.194   3.621
60869W        W26030  25.687  35.002  14.827
60870W        W26031  35.895  42.548  13.913
60871W        W26032  34.632  14.638  12.970
60872W        W26033  30.772   9.779   1.867
60873W        W26034   3.849   1.635  10.431
60874W        W26035  20.966   5.094  14.250
60875W        W26036  34.970   8.449   2.311
60876W        W26037  18.808  16.652   1.533
60877W        W26038  14.204   4.266   2.660
60878W        W26039   2.295  43.475   2.320
60879W        W26040  23.165  33.475   4.700
60880W        W26041   3.425   7.594   1.164
60881W        W26042  27.964  41.652  13.009
60882W        W26043  18.045  17.204  14.435
60883W        W26044  27.753  36.166  13.884
60884W        W26045  10.823  43.523  13.404
60885W        W26046  16.053  20.129  11.959
60886W        W26047  22.040  21.104   1.782
60887W        W26048  44.542  37.504   4.016
60888W        W26049  35.802  43.003   0.220
60889W        W26050  16.830  34.316   4.627
60890W        W26051  43.928  15.889   3.677
60891W        W26052  41.491   6.530   2.273
60892W        W26053   8.185  33.093  13.983
60893W        W26054  15.764  41.851  10.900
60894W        W26055   9.802   4.188  11.553
60895W        W26056  41.484   8.346   2.217
60896W        W26057  42.372   1.961   2.171
60897W        W26058  11.674  23.466  13.144
60898W        W26059  29.491  24.143  13.375
60899W        W26060  29.744  26.461   1.928
60900W        W26061  27.073  14.758  13.306
60901W        W26062  35.360  37.386   2.377
60902W        W26063  35.439  12.674  13.093
60903W        W26064   9.809  11.302   0.832
60904W        W26065  42.048   5.786  13.895
60905W        W26066   8.767  36.915   4.118
60906W        W26067  28.546  42.710   2.227
60907W        W26068   3.675  29.044  14.386
60908W        W26069  13.335  10.707   2.281
60909W        W26070  18.087  29.053  12.884
60910W        W26071  28.980  25.589   1.122
60911W        W26072  31.676  17.750  11.312
60912W        W26073  26.175   7.232  10.634
60913W        W26074  39.362  11.738   4.620
60914W        W26075  39.023  13.205   2.393
60915W        W26076  37.011  41.642   3.168
60916W        W26077  12.849  26.937  13.461
60917W        W26078  22.237  20.839   3.675
60918W        W26079  20.584  40.473  13.843
60919W        W26080  20.534   4.468   0.344
60920W        W26081   5.308  14.640  11.150
60921W        W26082  27.943  36.071   1.653
60922W        W26083  15.307   4.782  10.596
60923W        W26084   9.058  34.425   0.242
60924W        W26085  17.012  24.120  11.632
60925W        W26086  17.326  12.179  10.772
60926W        W26087  37.957  20.617  12.046
60927W        W26088  23.602  31.981   1.502
60928W        W26089  22.645  41.214  14.900
60929W        W26090   1.197   8.924  14.800
60930W        W26091  30.238   9.738   4.564
60931W        W26092  31.935  32.400   0.680
60932W        W26093  14.096  35.442   3.816
60933W        W26094   8.459  39.554   0.436
60934W        W26095  14.251  21.380  13.739
60935W        W26096  18.353   2.580  11.943
60936W        W26097  44.562  19.863   2.361
60937W        W26098  22.686  43.510  14.013
60938W        W26099   7.629  42.747  12.333
60939W        W26100   4.915  14.480  13.162
60940W        W26101  27.970  27.562   4.296
60941W        W26102  20.661  25.681   1.489
60942W        W26103  18.783  44.326   1.966
60943W        W26104   5.179  35.430   3.029
60944W        W26105  20.545  12.812   4.275
60945W        W26106  25.802  14.818  11.134
60946W        W26107   3.816  29.372   1.057
60947W        W26108  11.698  43.034   4.492
60948W        W26109  36.359  18.748  14.399
60949W        W26110  11.457  41.548   0.536
60950W        W26111  20.102  17.939  13.992
60951W        W26112  15.061   3.752  11.239
60952W        W26113  29.991  30.801   4.966
60953W        W26114  17.730  43.921  13.821
60954W        W26115  29.404  40.018  12.043
60955W        W26116   8.656  27.435   2.573
60956W        W26117  34.724  21.783   2.442
60957W        W26118   5.847  32.129   1.389
60958W        W26119   1.210  37.823  13.537
60959W        W26120  26.269  23.984   9.797
60960W        W26121   7.122  35.129   3.711
60961W        W26122  22.642  30.664  13.457
60962W        W26123  33.469   2.990   3.844
60963W        W26124  16.422  21.652   2.678
60964W        W26125   4.893   5.890   1.150
60965W        W26126  35.302  34.867  13.955
60966W        W26127  10.375  43.286  10.673
60967W        W26128  28.171  22.495  11.172
60968W        W26129   3.339   4.020  10.719
60969W        W26130  24.106   9.824   0.046
60970W        W26131  25.113  33.022  13.785
60971W        W26132  15.202  11.141   3.840
60972W        W26133  24.931  15.091  11.833
60973W        W26134  20.499  31.492  12.010
60974W        W26135   6.865  35.077   3.193
60975W        W26136  28.873  35.118   4.063
60976W        W26137  15.818  15.187  13.056
60977W        W26138  11.847  22.957  14.052
60978W        W26139  38.358  19.137  14.506
60979W        W26140  20.854  27.578   3.133
60980W        W26141   0.743  44.318  10.718
60981W        W26142  33.350   3.978  12.612
60982W        W26143  14.568  40.864   5.146
60983W        W26144  25.561  16.225  14.417
60984W        W26145  12.216  40.330   4.216
60985W        W26146  44.537   7.376  13.874
60986W        W26147   8.969  28.651   2.886
60987W        W26148   8.966  42.720   4.882
60988W        W26149  24.605  30.054   4.211
60989W        W26150   0.501  34.391   3.603
60990W        W26151   6.609  12.817   4.580
60991W        W26152  27.798  21.471  12.978
60992W        W26153  26.383  16.673   2.833
60993W        W26154  16.299  29.399  11.521
60994W        W26155  35.137  12.449   2.521
60995W        W26156  43.313  42.426   1.260
60996W        W26157  10.363   5.730   1.534
60997W        W26158  19.708  33.508  14.552
60998W        W26159  20.964  19.236   0.739
60999W        W26160  18.191   1.413   3.935
61000W        W26161  11.068  26.467  11.603
61001W        W26162  39.538  13.387   0.370
61002W        W26163  11.132  31.496  11.598
61003W        W26164  15.534  27.897   2.565
61004W        W26165   6.179  22.415  11.272
61005W        W26166  10.191  27.923   2.259
61006W        W26167   9.484  24.999  13.832
61007W        W26168  42.537  15.767  11.831
61008W        W26169  42.065  23.026   3.751
61009W        W26170  24.464   5.653  11.593
61010W        W26171   5.731  21.666  10.453
61011W        W26172  18.815   5.266  14.693
61012W        W26173  20.281  25.193   4.942
61013W        W26174  28.211  11.173  12.405
61014W        W26175  10.603  37.105  13.333
61015W        W26176  20.234  13.224   4.093
61016W        W26177  25.926  42.402   1.865
61017W        W26178  21.880  25.896   1.486
61018W        W26179  14.774  18.182  13.387
61019W        W26180  13.856  32.054   4.398
61020W        W26181   1.185  38.527  14.420
61021W        W26182   7.155  25.819  12.512
61022W        W26183  41.135   2.074  12.769
61023W        W26184   1.972   5.970   1.369
61024W        W26185  17.875  41.842  14.830
61025W        W26186   4.405  38.797  10.749
61026W        W26187  14.119  25.104   4.594
61027W        W26188  30.556  41.252   0.793
61028W        W26189  36.527  42.486   2.295
61029W        W26190  12.809  42.790  13.525
61030W        W26191  27.914  22.103  13.929
61031W        W26192  12.525  20.675   2.279
61032W        W26193  22.594   1.397  12.996
61033W        W26194  24.516   4.411  13.854
61034W        W26195   9.368   5.790  14.446
61035W        W26196  18.808   7.895  12.038
61036W        W26197  17.597  34.195  13.405
61037W        W26198  44.496   0.552  12.933
61038W        W26199  21.487  11.158  14.487
61039W        W26200  42.757  10.433  12.074
61040W        W26201  27.149  29.480  12.935
61041W        W26202  41.785  33.596  13.800
61042W        W26203   8.910  21.526  14.862
61043W        W26204  35.818  41.372   1.692
61044W        W26205  31.961  18.856  13.604
61045W        W26206  11.770  26.956   0.848
61046W        W26207  28.064  34.856  10.016
61047W        W26208  27.770  17.519   2.258
61048W        W26209  30.000  27.412   0.333
61049W        W26210   0.047  14.061  12.575
61050W        W26211  17.129  33.098  12.691
61051W        W26212  18.139  37.819   4.237
61052W        W26213   2.946  36.103  12.858
61053W        W26214   0.898  33.459   5.050
61054W        W26215  16.789  16.711   0.137
61055W        W26216  27.926   9.731  12.398
61056W        W26217  35.949  14.361   4.303
61057W        W26218  13.695   8.873  12.373
61058W        W26219  29.491  41.901  12.443
61059W        W26220  17.069   2.455  11.069
61060W        W26221  25.995  41.356   5.269
61061W        W26222  44.034   4.195   1.406
61062W        W26223   4.984  18.025  11.952
61063W        W26224  23.515   9.395  12.391
61064W        W26225  19.175  37.506  14.018
61065W        W26226   1.544  15.127  11.505
61066W        W26227  42.986  31.365   0.402
61067W        W26228   2.311  12.219   5.890
61068W        W26229  29.010  41.758  14.896
61069W        W26230  42.850   5.899  12.396
61070W        W26231   0.950  21.817   3.986
61071W        W26232  37.051   4.825   4.548
61072W        W26233  28.696  17.257  12.719
61073W        W26234  41.501  17.776  13.888
61074W        W26235  26.179  10.345   3.695
61075W        W26236  19.978  33.498  11.592
61076W        W26237  43.837  39.109   0.241
61077W        W26238  34.357  13.792   4.706
61078W        W26239  29.152  40.321  11.698
61079W        W26240  12.017  17.088  13.342
61080W        W26241  32.905   9.724   3.838
61081W        W26242   7.942  13.389  11.128
61082W        W26243  40.301  26.870  11.156
61083W        W26244  21.583  27.106   3.300
61084W        W26245  27.560  34.833  11.984
61085W        W26246   4.166  32.041   0.897
61086W        W26247  20.025  41.932   2.026
61087W        W26248  23.866  24.914   2.852
61088W        W26249  35.147   0.334   0.993
61089W        W26250   9.916  31.076  11.937
61090W        W26251  11.122  37.392  11.040
61091W        W26252  29.661  10.635   1.613
61092W        W26253   6.600   8.140   1.272
61093W        W26254  42.094  37.400   0.320
61094W        W26255  32.435  21.929   3.128
61095W        W26256  37.310  36.520  14.364
61096W        W26257  29.241  13.075   0.824
61097W        W26258  32.372  13.639   3.246
61098W        W26259  41.196  27.228  11.025
61099W        W26260  25.951  13.719   0.685
61100W        W26261   2.802  37.786   3.750
61101W        W26262   3.853  23.010   4.585
61102W        W26263   7.138   6.364   3.206
61103W        W26264  38.048  37.401   1.711
61104W        W26265  31.999   4.257  14.114
61105W        W26266  22.584  28.418   0.515
61106W        W26267  34.244  39.181   3.659
61107W        W26268  13.159  15.731   1.274
61108W        W26269  44.011  27.148   2.034
61109W        W26270  15.370  25.588  13.052
61110W        W26271   8.213   7.813   0.536
61111W        W26272  19.543  22.545  13.509
61112W        W26273   6.175  37.679   2.165
61113W        W26274  20.565  30.253   4.196
61114W        W26275  20.695  39.868   0.935
61115W        W26276  32.228  27.443  13.881
61116W        W26277   0.947  26.060  12.900
61117W        W26278  17.565   3.921   2.436
61118W        W26279  34.869   5.308  13.533
61119W        W26280   3.821   8.250  12.882
61120W        W26281  14.243   5.887   0.694
61121W        W26282  30.162  27.975  13.141
61122W        W26283   1.548  30.142   4.856
61123W        W26284  42.483  14.654   3.143
61124W        W26285  38.394  16.172   2.645
61125W        W26286  26.358   8.157   1.783
61126W        W26287  22.660  32.893   2.618
61127W        W26288  35.892  35.437  11.238
61128W        W26289  44.863  36.552  12.189
61129W        W26290  21.694   7.762  12.680
61130W        W26291   0.853   0.701   0.463
61131W        W26292  42.866  24.045   3.931
61132W        W26293  29.795  19.046  11.120
61133W        W26294  17.536  19.311  11.833
61134W        W26295  26.632  21.677  11.245
61135W        W26296   0.351  11.178  11.846
61136W        W26297  38.401   9.259   2.139
61137W        W26298  21.296  15.777   0.986
61138W        W26299  36.297  28.557  10.589
61139W        W26300  34.379  10.721  14.018
61140W        W26301  23.968  23.294  13.128
61141W        W26302  39.397  32.409   0.934
61142W        W26303  21.891  19.418  11.482
61143W        W26304  37.661  22.077   3.434
61144W        W26305  19.566   8.386  12.048
61145W        W26306  10.305  34.986   4.866
61146W        W26307   4.430  29.505   2.874
61147W        W26308   2.364  23.076   0.930
61148W        W26309  30.428  14.353  12.446
61149W        W26310  34.510  16.814   0.437
61150W        W26311  22.742   4.791   1.017
61151W        W26312   1.448  14.212  12.279
61152W        W26313  13.470   4.991  12.996
61153W        W26314  32.702  16.450  12.487
61154W        W26315  36.578  10.182   5.037
61155W        W26316  15.361  29.122  12.570
61156W        W26317   3.988  29.430  14.550
61157W        W26318  36.686   1.723  14.529
61158W        W26319  22.386  24.187   2.575
61159W        W26320  12.607  12.271  14.912
61160W        W26321  12.756   0.865   1.816
61161W        W26322  28.478  35.496   1.479
61162W        W26323   6.760  19.187   1.302
61163W        W26324  34.870  25.829   1.821
61164W        W26325  22.936  31.471  11.973
61165W        W26326  23.679   5.290   3.957
61166W        W26327  44.149  25.375   2.011
61167W        W26328  10.688  32.705   4.431
61168W        W26329   8.986  37.531   3.709
61169W        W26330  19.791   5.341   4.023
61170W        W26331  17.107  39.047   5.041
61171W        W26332  33.827   8.742  12.261
61172W        W26333   9.821  44.391  12.415
61173W        W26334  11.631  15.839   2.764
61174W        W26335  27.006  17.545  12.049
61175W        W26336  14.703  39.513   1.012
61176W        W26337   9.635  25.392   2.429
61177W        W26338   2.487  22.867   0.465
61178W        W26339  35.114   8.945   2.489
61179W        W26340  30.122   5.338  10.992
61180W        W26341  27.452  27.642   1.172
61181W        W26342  39.848  19.055  11.512
61182W        W26343  19.651   5.003  10.735
61183W        W26344  19.577  30.426  10.336
61184W        W26345  12.895   2.965   1.395
61185W        W26346   9.412  40.852   0.017
61186W        W26347  21.287  39.314  11.473
61187W        W26348  20.592  32.314  12.499
61188W        W26349  15.919  36.387   3.145
61189W        W26350  27.434  29.693   4.263
61190W        W26351  43.765  24.453  14.410
61191W        W26352  43.800  11.484   4.237
61192W        W26353  22.260  11.653   3.828
61193W        W26354  11.051  31.256  11.087
61194W        W26355  20.984  25.821   2.295
61195W        W26356  37.476  43.804  12.813
61196W        W26357  37.019  11.596  12.043
61197W        W26358   7.410  36.194  11.228
61198W        W26359   8.407   9.417   4.686
61199W        W26360   5.908  26.607   4.020
61200W        W26361  13.301   9.684   3.261
61201W        W26362  18.741  30.025   4.554
61202W        W26363   5.687   4.668   3.602
61203W        W26364  38.857  43.110  11.557
61204W        W26365  20.962  44.495   0.242
61205W        W26366  43.529  28.688  14.010
61206W        W26367  16.640  30.172  11.860
61207W        W26368   8.239   5.538   1.762
61208W        W26369  21.659   0.795   4.266
61209W        W26370  34.746  13.687   2.801
61210W        W26371  21.590  15.452   4.182
61211W        W26372  15.320   9.694  12.169
61212W        W26373  35.606  38.476   2.660
61213W        W26374   2.817  29.927   3.597
61214W        W26375  11.058  17.194  13.594
61215W        W26376  31.068  20.486   4.578
61216W        W26377  28.427  22.141   1.919
61217W        W26378  21.105  27.836  12.045
61218W        W26379   2.156  24.986   2.641
61219W        W26380   7.186  20.799  12.990
61220W        W26381  25.540  25.979  11.634
61221W        W26382  26.180   6.567  11.384
61222W        W26383  40.806  35.883  11.070
61223W        W26384   4.714   2.189   4.426
61224W        W26385  19.737  10.392   2.064
61225W        W26386  28.986  27.574  13.504
61226W        W26387  30.577  32.166   3.630
61227W        W26388  35.984  44.603  11.590
61228W        W26389  13.235   3.826   2.665
61229W        W26390  14.876  20.662   0.879
61230W        W26391  13.625  29.884  10.769
61231W        W26392  40.827  12.292  11.909
61232W        W26393  21.712  21.515  12.176
61233W        W26394  11.837  31.083   4.512
61234W        W26395  11.307  23.667  14.284
61235W        W26396  31.789   0.869  10.901
61236W        W26397  35.503   0.267   1.418
61237W        W26398  11.820   9.281   3.168
61238W        W26399  16.320   6.451  14.298
61239W        W26400   0.848  15.836  13.340
61240W        W26401  29.087   2.783   2.116
61241W        W26402  39.581  42.837   3.075
61242W        W26403   8.318  30.946   3.568
61243W        W26404  22.761   2.283   0.961
61244W        W26405  16.836   9.955   3.609
61245W        W26406  32.345  17.058   0.419
61246W        W26407  38.315  21.437  12.567
61247W        W26408  13.663   1.906   0.405
61248W        W26409  30.389  42.166   4.134
61249W        W26410  39.296  38.601   0.962
61250W        W26411  25.354  11.237  12.999
61251W        W26412   4.157   5.288  10.706
61252W        W26413  41.939   4.202  13.542
61253W        W26414  38.770   0.266   0.895
61254W        W26415  33.068  26.839  13.046
61255W        W26416  44.238  42.413   2.938
61256W        W26417  28.214   4.181   4.156
61257W        W26418  14.454  39.238   0.178
61258W        W26419  24.973  43.215  12.590
61259W        W26420  24.991  20.306  14.938
61260W        W26421  35.386  26.150   2.202
61261W        W26422   7.945  16.095   1.403
61262W        W26423  30.995  39.545  10.125
61263W        W26424  26.153  21.971   0.254
61264W        W26425   9.719   9.448   0.877
61265W        W26426  12.658  19.330  13.385
61266W        W26427  25.096  24.178  13.509
61267W        W26428  13.375  19.200   4.153
61268W        W26429  19.768  40.099   9.961
61269W        W26430   6.972  35.485   0.469
61270W        W26431  38.368  35.852  11.888
61271W        W26432   0.369  10.231  11.474
61272W        W26433  29.602  36.470  12.485
61273W        W26434  32.916  27.655  13.441
61274W        W26435  23.706  28.149   1.276
61275W        W26436   8.784  20.795   2.369
61276W        W26437  18.233  43.104  12.411
61277W        W26438  17.082  39.064  13.948
61278W        W26439  18.984   3.328  13.495
61279W        W26440   3.419  25.447   0.246
61280W        W26441   4.324  11.851   2.226
61281W        W26442  25.630  13.354   0.401
61282W        W26443  12.142  40.143  14.173
61283W        W26444  19.262   0.415  12.852
61284W        W26445  22.577  30.474   1.287
61285W        W26446   8.483  26.861   5.462
61286W        W26447   8.335   6.062   1.674
61287W        W26448  14.360  28.000  10.697
61288W        W26449  44.362  28.686  12.455
61289W        W26450  36.657  29.440  12.953
61290W        W26451  41.246  15.542  14.272
61291W        W26452  18.953  16.253   1.807
61292W        W26453  19.119  30.072  12.875
61293W        W26454  16.889   7.931  13.652
61294W        W26455   8.206  39.363   3.130
61295W        W26456  23.697   1.581  11.627
61296W        W26457   7.631  29.989   4.241
61297W        W26458  44.035  27.459  12.578
61298W        W26459  29.603  16.041   3.911
61299W        W26460  29.512   2.537  10.810
61300W        W26461   2.405  37.658  14.979
61301W        W26462   8.769  19.616  12.075
61302W        W26463  21.916  22.622  13.006
61303W        W26464  38.899  10.685   3.542
61304W        W26465  36.921  37.143  12.668
61305W        W26466  44.411  21.627  11.114
61306W        W26467  12.629  30.546   0.950
61307W        W26468  41.940   8.822   0.897
61308W        W26469  26.550  39.060   3.130
61309W        W26470  21.092  35.219   0.018
61310W        W26471  32.854   9.266   1.291
61311W        W26472  38.510  24.490   2.520
61312W        W26473  34.341  19.161  12.443
61313W        W26474   5.360  13.712  11.186
61314W        W26475  35.330  18.714   1.024
61315W        W26476   3.857  12.534  12.072
61316W        W26477  12.359  26.947   2.293
61317W        W26478  29.480  21.062  13.059
61318W        W26479  42.371  43.176   0.651
61319W        W26480  25.721   5.212  13.601
61320W        W26481  26.041   3.686   1.351
61321W        W26482   6.421  12.800   3.243
61322W        W26483  33.451   3.183  10.860
61323W        W26484   6.312  31.555  10.258
61324W        W26485  35.806  15.706  10.503
61325W        W26486  34.964  35.392  12.107
61326W        W26487  19.731  13.297  14.421
61327W        W26488  36.925  16.196   2.358
61328W        W26489  32.777  43.408  14.853
61329W        W26490  20.590   0.711  13.880
61330W        W26491  19.914  34.738  14.546
61331W        W26492  43.048  35.303  14.835
61332W        W26493  20.793   8.084   4.159
61333W        W26494  30.188  39.621  12.384
61334W        W26495  24.535  29.585  10.757
61335W        W26496  44.729   5.815   4.880
61336W        W26497  19.321  44.765  12.088
61337W        W26498  16.242  35.598  13.493
61338W        W26499  20.216  20.699   2.443
61339W        W26500  19.642  18.692   5.337
61340W        W26501  22.656  33.207   4.725
61341W        W26502  10.792  41.308  13.877
61342W        W26503  30.155   0.386   0.234
61343W        W26504  32.194  21.154  12.505
61344W        W26505  38.727  28.105  14.713
61345W        W26506   3.191  12.542  12.564
61346W        W26507  12.526  40.248  13.827
61347W        W26508  12.272  16.370   4.070
61348W        W26509  42.064  17.289  12.494
61349W        W26510   9.436   5.263   4.031
61350W        W26511  41.316  41.326   2.682
61351W        W26512  13.835  22.719  11.970
61352W        W26513  35.487  32.942   2.271
61353W        W26514   2.276  40.592   1.280
61354W        W26515  40.547   0.451  13.071
61355W        W26516  10.298  29.010  14.408
61356W        W26517  33.849   8.305   2.884
61357W        W26518  23.557  44.535   4.019
61358W        W26519  15.751  23.817  10.565
61359W        W26520   7.677  15.640  11.089
61360W        W26521  17.820  17.819   2.914
61361W        W26522  43.854  22.876  10.470
61362W        W26523  20.290  20.835  13.401
61363W        W26524   6.330  23.009   0.168
61364W        W26525  32.495  17.120  10.225
61365W        W26526  27.065   6.326  12.232
61366W        W26527  25.533   3.015   1.151
61367W        W26528  18.105   5.810   2.324
61368W        W26529  31.453   0.968   0.867
61369W        W26530  10.181   4.260  12.380
61370W        W26531  13.113  24.619  11.304
61371W        W26532  10.015  37.121   5.094
61372W        W26533   1.762  17.211  13.802
61373W        W26534   4.677  18.739   3.680
61374W        W26535  37.460   6.349  14.509
61375W        W26536   7.970   9.347   3.900
61376W        W26537   1.843  40.294   1.306
61377W        W26538   2.041  37.793   4.711
61378W        W26539  25.077  19.714   0.092
61379W        W26540   3.041  43.988  13.357
61380W        W26541  16.354   7.840   4.135
61381W        W26542  36.899  32.396  14.322
61382W        W26543  37.920  13.025  12.642
61383W        W26544  11.754  17.096   4.027
61384W        W26545   1.253  14.419   3.189
61385W        W26546  11.755  15.575  11.666
61386W        W26547  30.930  24.378   0.728
61387W        W26548  24.646  31.567   2.315
61388W        W26549  43.486  24.497  10.843
61389W        W26550  42.526  27.125  14.925
61390W        W26551  41.849   0.345  10.667
61391W        W26552  17.754  26.018   4.641
61392W        W26553  26.083   8.423  12.855
61393W        W26554  26.269  24.991   1.188
61394W        W26555  40.210  18.186   1.264
61395W        W26556   0.724  30.047  10.885
61396W        W26557  15.727  35.940  10.426
61397W        W26558  34.091   1.723  12.598
61398W        W26559  17.112  20.071   2.074
61399W        W26560  29.212  25.831   1.511
61400W        W26561  30.087  44.796  13.050
61401W        W26562  22.886  23.215  13.973
61402W        W26563   0.842  13.897   1.950
61403W        W26564  42.898  17.980  13.562
61404W        W26565  17.923   4.346  14.657
61405W        W26566  41.983   1.788  11.588
61406W        W26567  14.584  39.005  10.769
61407W        W26568  12.741  42.862   1.792
61408W        W26569   3.476  18.321   2.728
61409W        W26570   1.598  10.252   1.658
61410W        W26571  17.306  16.185   2.103
61411W        W26572  32.969  16.471  12.055
61412W        W26573  26.935   1.011  10.403
61413W        W26574  31.077  17.381  12.409
61414W        W26575   1.199  29.992  12.607
61415W        W26576  19.354   1.650  12.137
61416W        W26577  24.610   4.688  14.309
61417W        W26578   3.823  27.548  11.572
61418W        W26579  18.562  44.989   2.778
61419W        W26580  28.614  37.194   3.161
61420W        W26581  41.877   6.497   4.698
61421W        W26582  10.338  10.225   0.631
61422W        W26583  11.334  44.259  13.481
61423W        W26584  44.558  33.274  11.118
61424W        W26585   1.535  42.423   2.671
61425W        W26586  11.221  42.840  14.665
61426W        W26587  16.234  18.040  14.840
61427W        W26588  25.249  20.206   0.385
61428W        W26589  29.723  10.956  11.810
61429W        W26590   5.371  38.387   0.175
61430W        W26591  30.039  28.734  12.189
61431W        W26592   0.859  20.630   3.094
61432W        W26593  33.974   3.654   3.885
61433W        W26594  15.259  30.376  11.591
61434W        W26595   4.683  22.342  14.204
61435W        W26596  29.969  14.561  12.541
61436W        W26597  41.591  31.255   4.904
61437W        W26598   0.543  24.536  13.466
61438W        W26599  10.500  16.470  10.121
61439W        W26600  15.815  19.494  10.692
61440W        W26601   0.449  43.674  11.652
61441W        W26602  28.909  30.956  10.490
61442W        W26603  14.093  14.506  11.547
61443W        W26604  40.128  15.683   0.052
61444W        W26605   7.210  33.164   1.803
61445W        W26606  24.832  20.094   3.106
61446W        W26607  11.905  12.967   0.946
61447W        W26608  23.002  15.346   4.083
61448W        W26609   4.248  37.946   2.959
61449W        W26610  24.313  40.312  12.989
61450W        W26611  31.066   0.707   3.182
61451W        W26612  28.610  19.189   1.456
61452W        W26613  36.314  27.444  13.158
61453W        W26614   8.184  10.900  13.986
61454W        W26615  28.291  39.920   3.130
61455W        W26616  36.155   5.588  10.495
61456W        W26617  42.044  15.946  14.972
61457W        W26618   2.857  33.977   3.177
61458W        W26619   7.857  39.102  11.312
61459W        W26620  30.622  16.209   1.093
61460W        W26621  13.309  27.085   4.718
61461W        W26622   8.636  41.994   0.662
61462W        W26623  20.044  27.432  11.578
61463W        W26624   3.314  34.841  11.643
61464W        W26625  17.588  40.216   3.241
61465W        W26626  22.167  22.252   2.238
61466W        W26627   9.145  42.558  13.911
61467W        W26628  31.336  22.446  13.504
61468W        W26629  31.583  44.073  10.713
61469W        W26630  25.912  11.690   4.498
61470W        W26631  38.822  29.497   4.455
61471W        W26632  18.760  25.236   4.128
61472W        W26633  32.117  35.005   3.844
61473W        W26634  27.727  23.394   5.373
61474W        W26635  21.150  20.153   3.240
61475W        W26636  20.568   9.019  11.536
61476W        W26637  37.021   6.386   3.021
61477W        W26638  12.703  32.237  13.032
61478W        W26639  17.771   6.760  12.167
61479W        W26640  40.372  11.563  10.515
61480W        W26641  19.079   8.186  11.175
61481W        W26642  10.823  28.417  11.139
61482W        W26643  41.672  18.568  13.486
61483W        W26644  30.480  19.781  10.231
61484W        W26645  20.287  36.373   4.293
61485W        W26646  34.779  21.832   1.557
61486W        W26647  21.998   1.170  14.080
61487W        W26648  23.045  31.909  14.736
61488W        W26649   3.510  17.020   3.156
61489W        W26650  25.757  44.486  10.478
61490W        W26651  22.410  29.692  11.938
61491W        W26652  40.985   1.543  12.974
61492W        W26653  34.547  13.601   4.253
61493W        W26654  36.094  44.416   0.334
61494W        W26655  28.871  17.508   1.016
61495W        W26656  41.313  43.296  10.910
61496W        W26657  23.913  37.808  12.906
61497W        W26658  35.988   4.764  10.913
61498W        W26659  44.235   4.716  10.679
61499W        W26660  44.978  40.492   4.522
61500W        W26661  33.444  22.470   1.121
61501W        W26662  25.704  22.646   3.783
61502W        W26663  42.324  29.206  13.448
61503W        W26664  25.684   9.660   3.987
61504W        W26665  23.213   0.896  11.312
61505W        W26666  25.330  29.635  13.098
61506W        W26667  32.557  25.688  10.873
61507W        W26668  13.440   2.883  13.876
61508W        W26669  37.417   6.593  14.061
61509W        W26670  15.628  25.036  12.000
61510W        W26671  38.432  42.404   2.721
61511W        W26672  19.809  25.288   4.329
61512W        W26673   0.110  29.995   4.941
61513W        W26674  28.006  38.513   0.760
61514W        W26675   5.275  17.722  11.644
61515W        W26676  31.372  17.173   1.386
61516W        W26677   6.764  36.055  11.802
61517W        W26678  33.886  18.846  11.240
61518W        W26679   6.683  33.902   2.759
61519W        W26680  25.978  30.262  12.644
61520W        W26681  31.260   3.923   4.439
61521W        W26682   8.977  29.124   4.593
61522W        W26683  35.038  10.081   3.911
61523W        W26684  21.460  10.238   4.605
61524W        W26685  32.920   8.462   2.877
61525W        W26686  19.631   9.726   3.393
61526W        W26687  30.458  37.836  14.272
61527W        W26688  37.321  40.573   4.650
61528W        W26689   6.785  23.676   0.357
61529W        W26690  20.547  33.240   1.190
61530W        W26691  19.468  36.169  11.119
61531W        W26692   7.582  20.022  14.608
61532W        W26693  28.550  41.447   3.107
61533W        W26694   3.032  13.594  14.993
61534W        W26695  32.646  41.551   1.740
61535W        W26696   3.130  42.900   4.468
61536W        W26697   2.193  35.588   1.222
61537W        W26698  23.923  29.973   1.427
61538W        W26699  12.863  32.718   2.413
61539W        W26700   3.329  29.830   2.782
61540W        W26701  41.957  37.412  13.622
61541W        W26702   8.510  37.885  11.200
61542W        W26703  34.329  10.223  13.878
61543W        W26704  40.574  42.794  12.897
61544W        W26705   2.721  41.518   4.662
61545W        W26706  10.392  26.157  12.587
61546W        W26707  30.563  22.668   1.344
61547W        W26708  17.141  40.756   3.565
61548W        W26709  38.582   5.752  11.746
61549W        W26710   8.344  42.710   0.705
61550W        W26711  13.827  34.489  11.672
61551W        W26712  23.307  13.218   4.490
61552W        W26713  32.146  43.775  12.045
61553W        W26714   6.123  16.162   2.317
61554W        W26715  39.915  27.662  14.605
61555W        W26716  17.293  24.191   1.159
61556W        W26717  15.590   9.403   3.686
61557W        W26718  18.219  12.633   3.210
61558W        W26719  16.852  23.472   4.189
61559W        W26720  22.054  26.908   2.175
61560W        W26721   3.467  30.881  12.054
61561W        W26722  36.157  20.043   0.958
61562W        W26723  29.921   8.852  10.555
61563W        W26724  36.318  25.509  12.919
61564W        W26725  42.923  41.539  12.435
61565W        W26726  40.344  44.537   1.729
61566W        W26727   8.661  11.104   3.668
61567W        W26728  15.358   6.605  13.923
61568W        W26729  34.588  28.701   1.640
61569W        W26730  26.965  12.419  12.068
61570W        W26731  10.557   8.901  14.935
61571W        W26732   8.469  27.911  13.146
61572W        W26733   2.997   8.085   3.565
61573W        W26734  44.852   2.129   0.145
61574W        W26735  33.621  22.539  11.027
61575W        W26736  33.199  35.077   1.443
61576W        W26737  19.195  29.367  14.587
61577W        W26738  11.148  40.797   3.626
61578W        W26739  11.847  18.222  14.902
61579W        W26740  31.573  38.604  14.642
61580W        W26741   1.382  20.546   0.774
61581W        W26742  12.042   9.225   4.470
61582W        W26743  19.039  11.304   3.602
61583W        W26744   6.428  37.867   1.750
61584W        W26745  32.547  32.944   1.225
61585W        W26746  10.324  21.607  11.169
61586W        W26747  10.178  35.426  11.506
61587W        W26748  25.134  12.930   2.402
61588W        W26749  19.514  36.572   4.096
61589W        W26750  35.844  13.621   2.410
61590W        W26751  13.383  25.724  14.405
61591W        W26752  26.501  29.937   2.241
61592W        W26753  36.346  17.311   2.343
61593W        W26754  13.104  24.736  11.837
61594W        W26755   3.965  42.536  10.730
61595W        W26756  38.856  16.839   3.056
61596W        W26757  36.329  21.597   1.273
61597W        W26758  15.147   3.625   4.314
61598W        W26759   7.659  19.671   0.320
61599W        W26760  18.604  24.144  14.363
61600W        W26761   8.900  41.294   2.924
61601W        W26762  36.927  25.677   4.703
61602W        W26763  32.900  37.524   2.874
61603W        W26764  38.274   8.691   3.886
61604W        W26765  30.410  14.096   3.261
61605W        W26766  28.855  33.070   3.385
61606W        W26767  15.298  44.621  12.074
61607W        W26768  21.734  41.907   2.267
61608W        W26769  13.516  21.579   2.445
61609W        W26770  10.428  26.969   1.330
61610W        W26771  32.653   7.355  13.303
61611W        W26772   9.731  33.989  13.630
61612W        W26773  19.881   8.393   4.172
61613W        W26774  22.956  24.763  10.296
61614W        W26775  12.247  43.059  14.344
61615W        W26776  19.019   7.814  12.499
61616W        W26777  23.987  44.870   4.152
61617W        W26778  28.062  34.376  14.920
61618W        W26779  20.176  11.353  10.560
61619W        W26780  14.266  15.117   2.963
61620W        W26781  26.963  29.309  14.829
61621W        W26782  29.840  42.834  10.102
61622W        W26783  25.675  20.018  10.757
61623W        W26784  32.512  40.424   2.946
61624W        W26785  33.318  13.279  14.731
61625W        W26786  31.327  37.764  13.961
61626W        W26787   1.596  17.086  12.795
61627W        W26788  11.830  44.011  11.734
61628W        W26789  34.158   3.014   0.313
61629W        W26790  24.593   9.074   9.947
61630W        W26791   0.907  11.089  11.535
61631W        W26792  43.446  29.903   1.545
61632W        W26793  43.989  27.612   1.738
61633W        W26794  31.107  37.133  13.980
61634W        W26795   4.413  42.946   3.631
61635W        W26796  43.951  29.189   4.093
61636W        W26797  41.375   4.198   4.091
61637W        W26798  13.388  21.748  13.007
61638W        W26799   1.954  26.138  10.392
61639W        W26800  31.327  29.124  14.943
61640W        W26801   8.289  25.400  10.250
61641W        W26802  40.764  37.837   3.651
61642W        W26803  42.804  23.235   0.405
61643W        W26804  10.141  40.338   1.719
61644W        W26805  39.958   4.693   2.082
61645W        W26806  20.139  36.065  12.585
61646W        W26807   4.199   1.027   3.617
61647W        W26808  33.117  26.197   4.983
61648W        W26809   3.395   2.694  13.151
61649W        W26810   9.781   4.177  12.709
61650W        W26811  21.122  21.285  11.113
61651W        W26812  32.873  36.010  11.108
61652W        W26813  37.343  26.479   1.394
61653W        W26814  43.880   9.768  11.481
61654W        W26815  11.411  26.067   1.215
61655W        W26816  38.513  38.131  13.856
61656W        W26817  43.965   8.619  13.584
61657W        W26818  10.770  26.441   4.516
61658W        W26819  10.296  41.048  12.286
61659W        W26820   0.805  17.664   3.732
61660W        W26821  42.211  19.408  13.337
61661W        W26822  14.693  14.316   2.355
61662W        W26823   1.574  13.215  13.031
61663W        W26824  36.877   6.715  14.783
61664W        W26825  27.945  42.208  11.633
61665W        W26826  10.999  28.650  11.547
61666W        W26827  27.470  39.191   2.776
61667W        W26828  34.935  16.095  13.952
61668W        W26829  15.657  11.240   1.772
61669W        W26830  14.672   9.748   4.585
61670W        W26831  17.708  11.401   2.750
61671W        W26832  16.573  38.407  13.681
61672W        W26833  38.646   5.774   1.737
61673W        W26834  29.936  23.662   0.753
61674W        W26835  30.491  32.114  11.521
61675W        W26836  13.597   6.404  13.552
61676W        W26837  13.789  26.237   4.106
61677W        W26838   7.346  41.043  12.940
61678W        W26839  19.122  16.724   1.948
61679W        W26840  27.185  16.663   3.190
61680W        W26841  29.695  15.337  12.110
61681W        W26842  43.459   3.934  12.910
61682W        W26843   3.800  10.165  13.109
61683W        W26844  23.275  30.530  12.901
61684W        W26845  14.640  38.776   2.631
61685W        W26846   6.871  30.866  12.069
61686W        W26847  29.352  34.663  11.998
61687W        W26848  44.460  21.491  14.645
61688W        W26849  41.292   6.772  13.487
61689W        W26850  10.701  13.752   3.108
61690W        W26851  41.783  41.038   3.227
61691W        W26852  13.868  16.362   1.635
61692W        W26853   9.243  18.075  10.577
61693W        W26854  35.048  23.166   4.793
61694W        W26855  21.879  18.280   0.314
61695W        W26856  19.673  12.458  13.973
61696W        W26857  32.582  17.628   2.101
61697W        W26858  44.394  31.202  12.408
61698W        W26859  37.056  15.072  12.028
61699W        W26860  44.256  43.908   2.885
61700W        W26861  37.358  13.663   4.325
61701W        W26862  40.947  12.723   0.033
61702W        W26863  41.378   2.715   0.038
61703W        W26864  21.592  18.339   3.211
61704W        W26865  12.532  38.066  12.174
61705W        W26866  10.127  18.086   3.694
61706W        W26867   0.802   2.253   1.325
61707W        W26868   0.482  40.251   3.795
61708W        W26869  25.883  44.575   2.096
61709W        W26870  23.541  35.418  11.044
61710W        W26871   1.734  13.356   2.210
61711W        W26872  38.891  41.479   0.924
61712W        W26873  14.255   0.577   2.157
61713W        W26874  40.769  12.512   2.623
61714W        W26875  10.378  39.893   0.954
61715W        W26876   0.339  43.569   2.247
61716W        W26877  10.196  21.265  10.271
61717W        W26878  37.596   0.760   4.202
61718W        W26879   5.877   8.753  10.287
61719W        W26880   0.294  44.811  13.871
61720W        W26881  35.414  35.343  12.953
61721W        W26882  10.601  15.771   2.618
61722W        W26883  20.075  30.942   0.240
61723W        W26884  44.639  10.354   0.359
61724W        W26885  30.042  36.410  12.754
61725W        W26886  30.545  37.828  11.161
61726W        W26887  15.293  19.745  11.876
61727W        W26888  42.097  20.193   1.850
61728W        W26889  41.415   6.016   3.834
61729W        W26890  35.571  24.161  12.983
61730W        W26891   5.874  15.325  10.674
61731W        W26892  17.767  42.567  11.153
61732W        W26893  39.149  32.543   2.746
61733W        W26894  31.889  43.589  10.957
61734W        W26895  44.838  28.560   0.711
61735W        W26896   4.875   1.272   1.757
61736W        W26897  22.561  41.924  11.098
61737W        W26898  15.048   5.102   2.121
61738W        W26899  21.253  16.817  14.325
61739W        W26900   3.729  23.170  14.872
61740W        W26901   3.822  28.950  12.845
61741W        W26902   0.251  14.253  14.985
61742W        W26903   1.736  16.318   3.151
61743W        W26904  17.237  41.144   4.512
61744W        W26905   7.787  18.561  10.702
61745W        W26906   3.306  43.861  11.081
61746W        W26907  11.284  37.326   3.221
61747W        W26908  11.640   5.420   1.824
61748W        W26909  29.072  13.136  10.691
61749W        W26910  11.373   9.404  14.377
61750W        W26911   4.846  11.910   4.622
61751W        W26912  33.937  24.189  14.352
61752W        W26913   0.259   3.135   4.255
61753W        W26914   1.290  14.390  10.837
61754W        W26915  16.672  36.606  10.848
61755W        W26916  19.115  44.337  12.329
61756W        W26917  37.452  41.783   4.120
61757W        W26918   6.353  16.160  12.496
61758W        W26919  39.061  33.048   4.899
61759W        W26920  24.900   1.865   4.323
61760W        W26921  18.115  43.468  13.186
61761W        W26922  32.648  37.452   1.156
61762W        W26923  44.266   7.396  12.053
61763W        W26924  44.087  13.777   1.056
61764W        W26925  42.381  28.872  10.663
61765W        W26926   6.893  17.224  12.869
61766W        W26927  23.107  33.061  10.715
61767W        W26928   1.452  40.246  13.797
61768W        W26929   3.732  15.638  11.030
61769W        W26930  35.304  38.451  11.714
61770W        W26931  31.459  24.062  13.013
61771W        W26932  20.886  38.330   2.395
61772W        W26933  12.035   0.300   4.468
61773W        W26934   5.952  34.167  13.581
61774W        W26935   5.271  40.909   0.041
61775W        W26936  29.152  28.615   0.690
61776W        W26937  15.617   6.283  10.049
61777W        W26938   6.582  35.149   0.469
61778W        W26939   8.920  42.774   2.905
61779W        W26940  28.592   2.565   0.217
61780W        W26941  34.536  27.948  12.876
61781W        W26942  15.344  18.177  11.445
61782W        W26943  32.110  20.358  14.256
61783W        W26944   0.396  18.265  13.771
61784W        W26945  24.217  24.944   5.068
61785W        W26946  40.821  13.708   4.729
61786W        W26947  33.658  18.605   0.228
61787W        W26948  11.643   6.108   0.414
61788W        W26949  42.509   2.763  11.689
61789W        W26950   9.307   9.265   1.887
61790W        W26951  34.371  11.760   4.802
61791W        W26952  32.103  30.442   4.718
61792W        W26953  13.706   3.812  14.936
61793W        W26954  15.735  12.940   2.802
61794W        W26955   6.216  22.255   0.874
61795W        W26956  28.672  11.317  10.338
61796W        W26957  23.697  42.370   2.739
61797W        W26958   7.536   5.175   0.554
61798W        W26959  27.551  42.289   4.525
61799W        W26960  42.561   2.473  13.876
61800W        W26961  34.016  28.942   1.833
61801W        W26962  41.103  20.038  12.031
61802W        W26963  39.961  29.024  14.985
61803W        W26964  27.461  26.279   4.189
61804W        W26965   3.751  16.284  12.626
61805W        W26966   3.784   2.287   1.150
61806W        W26967  39.021   7.170   4.323
61807W        W26968  44.503  12.577   4.147
61808W        W26969  10.952  33.384  14.886
61809W        W26970   7.820  33.432  10.381
61810W        W26971  30.703  35.555   4.119
61811W        W26972  34.499  34.984   2.830
61812W        W26973  41.993  40.258  14.806
61813W        W26974  42.812  43.007   4.655
61814W        W26975  24.476  23.091  13.435
61815W        W26976  25.053  15.390  13.446
61816W        W26977   2.432  21.733  14.042
61817W        W26978   4.143  22.135   2.401
61818W        W26979  23.579  44.317   2.362
61819W        W26980  20.892  34.500   2.734
61820W        W26981  10.149  29.543   4.654
61821W        W26982  18.787  26.974   0.759
61822W        W26983  10.598   1.323   0.470
61823W        W26984  20.542  34.698  12.887
61824W        W26985   2.002  27.617  13.596
61825W        W26986  42.842  14.573   0.045
61826W        W26987   3.173   6.796  14.713
61827W        W26988  15.027  36.705   0.833
61828W        W26989   1.802  12.934  13.882
61829W        W26990  39.264  23.961   3.940
61830W        W26991  43.962  29.871  13.851
61831W        W26992  40.295  18.205   3.567
61832W        W26993  30.644  14.478  14.338
61833W        W26994  19.831  42.720   2.613
61834W        W26995   2.157  34.191  14.996
61835W        W26996   3.715  18.599   1.830
61836W        W26997  14.334  13.507  11.447
61837W        W26998  12.858  39.033   2.890
61838W        W26999  13.811   7.766  13.427
61839W        W27000  40.513   5.000  10.148
61840W        W27001   5.175  23.030  13.979
61841W        W27002  30.228  17.485  12.283
61842W        W27003   0.127   7.498   4.626
61843W        W27004  31.895  19.486   0.282
61844W        W27005  17.577  17.063   0.370
61845W        W27006  42.984  25.586   0.539
61846W        W27007   5.790  23.306   1.834
61847W        W27008  38.122  11.430  14.787
61848W        W27009  21.751  15.767  14.023
61849W        W27010  13.827  44.054   4.495
61850W        W27011   2.757  26.837  12.562
61851W        W27012  43.885  37.004   2.590
61852W        W27013   5.493   8.820   0.890
61853W        W27014  24.011   7.016  14.295
61854W        W27015  40.442  38.321  11.992
61855W        W27016  22.615  17.115   2.912
61856W        W27017  36.914   5.969   1.290
61857W        W27018  25.646  20.645  13.345
61858W        W27019  14.261  17.380  11.266
61859W        W27020  11.186  22.300   1.848
61860W        W27021  11.257  12.152  13.839
61861W        W27022   5.634  21.483   3.179
61862W        W27023  23.635  41.464   1.448
61863W        W27024  16.287  21.039   2.255
61864W        W27025  28.522  33.160   3.008
61865W        W27026  11.327  27.427  11.411
61866W        W27027  36.345  35.063   2.982
61867W        W27028  22.062  21.554   0.260
61868W        W27029   3.893  28.470  13.991
61869W        W27030  15.471  12.915  14.020
61870W        W27031  28.576   6.331   3.878
61871W        W27032  38.496   3.690  12.921
61872W        W27033  16.786  15.650  13.861
61873W        W27034  18.783   7.299  10.427
61874W        W27035   3.073   7.974   1.259
61875W        W27036  41.511  40.105   4.542
61876W        W27037  35.012  17.030  14.821
61877W        W27038   4.358   5.851   0.924
61878W        W27039  33.112  42.994   5.141
61879W        W27040  42.981  32.229   4.698
61880W        W27041  28.022   9.117  13.931
61881W        W27042   5.281   3.553  13.505
61882W        W27043   1.329   8.959  12.376
61883W        W27044  16.215   8.268   1.326
61884W        W27045  30.586  31.045   2.679
61885W        W27046  30.111  26.641  14.912
61886W        W27047  37.000  40.076   3.221
61887W        W27048  10.406   3.840  11.611
61888W        W27049  37.350  19.096   3.736
61889W        W27050  37.238   0.460   2.733
61890W        W27051  16.610  16.219   4.268
61891W        W27052  43.575  31.388  13.099
61892W        W27053  31.909   3.965  11.030
61893W        W27054  19.987  19.893   4.108
61894W        W27055  22.170  42.774  12.042
61895W        W27056  34.048  24.696   3.648
61896W        W27057  33.655  11.806   2.747
61897W        W27058   8.036  30.478  13.224
61898W        W27059  40.734   3.136   1.673
61899W        W27060   1.171   4.868   4.813
61900W        W27061  32.499   7.410  14.361
61901W        W27062  32.179  35.865  13.228
61902W        W27063  30.973  24.687  13.583
61903W        W27064  34.318   8.355  11.138
61904W        W27065   3.950  13.539   1.821
61905W        W27066   9.652  44.535  14.828
61906W        W27067   3.876  25.091  13.432
61907W        W27068  13.363  40.188   5.010
61908W        W27069  38.513  25.053   3.845
61909W        W27070  19.272  17.095  12.069
61910W        W27071  28.086  43.806  10.584
61911W        W27072  26.276  40.487   5.264
61912W        W27073  27.456  34.110  13.421
61913W        W27074  28.691   0.389  14.077
61914W        W27075   6.963  27.080   3.413
61915W        W27076  10.464  25.176   2.637
61916W        W27077  33.330  26.774  13.518
61917W        W27078   8.890  33.969   4.446
61918W        W27079   4.946  44.299  11.978
61919W        W27080  17.178  44.159   0.923
61920W        W27081  24.967   1.990  14.819
61921W        W27082  41.575  35.558   3.298
61922W        W27083  27.003  33.452  11.829
61923W        W27084   6.838  28.419   4.679
61924W        W27085   3.210  17.462  12.581
61925W        W27086  13.721  19.976  12.097
61926W        W27087  40.592  18.110  13.033
61927W        W27088  19.369  32.946   0.907
61928W        W27089  42.837   6.302  14.370
61929W        W27090   8.225  28.704  11.609
61930W        W27091   4.628  38.949  14.242
61931W        W27092  32.877  22.279  11.497
61932W        W27093  32.460  15.288  12.024
61933W        W27094  10.709  34.352   3.404
61934W        W27095  26.920  23.561   1.956
61935W        W27096  41.958  33.324   1.226
61936W        W27097  36.337  17.240  12.420
61937W        W27098  20.939  41.263   4.375
61938W        W27099   9.819  16.116   4.379
61939W        W27100   7.830  24.987  11.094
61940W        W27101  39.789  23.333  12.836
61941W        W27102  13.539  30.088   0.780
61942W        W27103  10.460   9.594  13.925
61943W        W27104  26.041  20.237  11.053
61944W        W27105  22.050   6.384   3.850
61945W        W27106  25.888   6.627   3.889
61946W        W27107  20.575   7.765   2.812
61947W        W27108   1.227  21.702   1.335
61948W        W27109  40.024  13.635   2.437
61949W        W27110  29.747   9.428   3.750
61950W        W27111  29.410  15.167  13.996
61951W        W27112  10.004  12.259   4.756
61952W        W27113  16.186  23.564  10.719
61953W        W27114   7.775  23.512   1.362
61954W        W27115  33.015  19.603  12.027
61955W        W27116  31.485   3.041   3.416
61956W        W27117   7.620  28.978  13.088
61957W        W27118  41.019  28.002  13.928
61958W        W27119  23.688  23.705  12.282
61959W        W27120  10.759  14.703   4.535
61960W        W27121  37.779   7.838   5.029
61961W        W27122  23.712  26.867   2.672
61962W        W27123   5.401  13.821   1.468
61963W        W27124  33.468  25.701  12.346
61964W        W27125  36.441   2.029   5.069
61965W        W27126  16.484  43.287  12.956
61966W        W27127  35.917   6.297  13.397
61967W        W27128   3.691   6.077  14.363
61968W        W27129  33.340   5.890   3.709
61969W        W27130   4.188  24.030   0.374
61970W        W27131  25.031  20.050  14.486
61971W        W27132   9.852  29.025  11.988
61972W        W27133  30.411  21.535   0.742
61973W        W27134  27.062  37.950   2.214
61974W        W27135   7.709  44.491  10.653
61975W        W27136   1.406  33.706   4.584
61976W        W27137  27.930   2.748  11.157
61977W        W27138  23.954  29.500   5.154
61978W        W27139  40.233  17.202   1.682
61979W        W27140   0.712  34.481  13.712
61980W        W27141  40.840  28.443   2.211
61981W        W27142  30.984  16.154   2.013
61982W        W27143  23.557  30.324  12.484
61983W        W27144  24.460   6.001   4.907
61984W        W27145  43.687  22.710   1.298
61985W        W27146   1.385  44.230   1.476
61986W        W27147   1.773  41.343   2.066
61987W        W27148   3.899  27.683   4.220
61988W        W27149  25.622  17.043   3.124
61989W        W27150  44.941  43.426  12.242
61990W        W27151  19.767  32.946  10.907
61991W        W27152  21.685  14.848  12.516
61992W        W27153   7.875  31.089  13.342
61993W        W27154   4.419  32.563   3.600
61994W        W27155  37.930  27.370  12.920
61995W        W27156  36.665  44.933   0.925
61996W        W27157   5.863  44.358  10.980
61997W        W27158  15.503  15.127  14.873
61998W        W27159  18.297  21.539  12.428
61999W        W27160   7.772  33.806  11.712
62000W        W27161  33.432  34.563  10.014
62001W        W27162  14.308  21.648   3.646
62002W        W27163  22.554  18.242  10.833
62003W        W27164  19.174  14.624   5.635
62004W        W27165  17.288  14.892   1.849
62005W        W27166  39.360  16.121   1.750
62006W        W27167  18.572  10.242  12.486
62007W        W27168  22.522   8.291  12.923
62008W        W27169  28.275  26.560   1.423
62009W        W27170  19.057  28.028  10.781
62010W        W27171   3.736  44.428  10.409
62011W        W27172  22.650  26.400  13.540
62012W        W27173  17.123  20.604   4.522
62013W        W27174  38.567  13.695   3.782
62014W        W27175   0.295  20.080  14.004
62015W        W27176  30.903  33.077  10.661
62016W        W27177  17.731  23.778  11.432
62017W        W27178  41.859  27.014  12.514
62018W        W27179  11.818  22.829   3.801
62019W        W27180  25.278  22.020   2.613
62020W        W27181  38.433  36.369  12.133
62021W        W27182   2.859  22.371   0.035
62022W        W27183  19.323  18.301   4.636
62023W        W27184  15.580  17.216   0.503
62024W        W27185  38.492  14.436   2.241
62025W        W27186  42.353  37.190   5.510
62026W        W27187  35.030   5.565  10.528
62027W        W27188  39.763  17.006   1.679
62028W        W27189  40.676  23.482  11.457
62029W        W27190  41.257   6.738  12.103
62030W        W27191  25.059  42.903  14.383
62031W        W27192  18.979  36.528   4.138
62032W        W27193  10.808  43.582   3.155
62033W        W27194  40.254  17.193   3.116
62034W        W27195  27.673  14.693   0.427
62035W        W27196   9.375   1.950  10.687
62036W        W27197  21.809  20.127   2.399
62037W        W27198  17.472  28.979   4.017
62038W        W27199   4.481  31.646   3.704
62039W        W27200  15.113  34.713  12.118
62040W        W27201  22.232  36.787  12.964
62041W        W27202  12.769   7.805  13.587
62042W        W27203  38.615  33.034   1.234
62043W        W27204  23.203  23.523   5.369
62044W        W27205  31.233  17.701  13.959
62045W        W27206  38.580  36.520  12.600
62046W        W27207  10.597  17.112   0.502
62047W        W27208  31.550  41.694  14.047
62048W        W27209  17.756  16.364  12.448
62049W        W27210  36.168  43.293  12.512
62050W        W27211  35.899   7.891   1.758
62051W        W27212  38.874   8.341  12.510
62052W        W27213   7.834   0.692  12.932
62053W        W27214  43.780  31.354  14.935
62054W        W27215   1.632  36.423  14.527
62055W        W27216  27.577  36.346  12.952
62056W        W27217  29.229  43.515   4.095
62057W        W27218  21.541   3.536  13.388
62058W        W27219   4.167   9.325   3.242
62059W        W27220   3.585  16.018  14.064
62060W        W27221  33.360  38.016   0.017
62061W        W27222  13.991   2.888  10.786
62062W        W27223  11.743  41.700   1.366
62063W        W27224  14.330  28.511   1.352
62064W        W27225  19.687  21.606   1.522
62065W        W27226   4.492  26.784   3.226
62066W        W27227  29.655  26.597  11.130
62067W        W27228   3.176  35.364   5.606
62068W        W27229   3.799  36.028  13.493
62069W        W27230  25.368  29.846   3.810
62070W        W27231  26.515  29.403   2.022
62071W        W27232  17.525   0.443  14.342
62072W        W27233  19.960  18.599  10.214
62073W        W27234  42.290  29.044   3.987
62074W        W27235  32.358   2.831  13.326
62075W        W27236  43.772   8.691  11.794
62076W        W27237  11.562  35.115   2.429
62077W        W27238   6.589  15.630   1.765
62078W        W27239  18.775  37.287   4.585
62079W        W27240  10.782  10.125   2.284
62080W        W27241  34.094  25.481  12.988
62081W        W27242  22.556   8.492  11.128
62082W        W27243  17.048  31.889  13.525
62083W        W27244  18.098  33.905   0.005
62084W        W27245  12.351  27.479   0.444
62085W        W27246   6.447   6.363   0.982
62086W        W27247  41.002  27.961  14.952
62087W        W27248  12.746  21.968  11.865
62088W        W27249  27.932  16.138   0.845
62089W        W27250  34.938  19.528  10.788
62090W        W27251  43.476   7.436  12.543
62091W        W27252  14.559  44.126   5.103
62092W        W27253  40.646  43.820   4.130
62093W        W27254  35.258  22.095  13.383
62094W        W27255  10.415   0.205  12.370
62095W        W27256  31.477  13.150  14.345
62096W        W27257   2.844  19.689   3.923
62097W        W27258   2.050  36.047   4.733
62098W        W27259  31.919  15.560  14.935
62099W        W27260  37.636  14.777   1.255
62100W        W27261  37.012  43.016   2.172
62101W        W27262   2.781  21.663  14.420
62102W        W27263  44.767  38.386   4.150
62103W        W27264  26.182  34.050  10.524
62104W        W27265  29.088   9.375  13.428
62105W        W27266   2.337  13.757   2.567
62106W        W27267   1.619  24.812  14.344
62107W        W27268   9.394  11.685  10.696
62108W        W27269  20.693   9.461  13.149
62109W        W27270  16.921  40.920   2.870
62110W        W27271  32.332  18.201  10.713
62111W        W27272   9.099   5.962  10.551
62112W        W27273   1.409  22.607  13.047
62113W        W27274  31.903  15.626  13.948
62114W        W27275   7.788  20.502  14.736
62115W        W27276   3.220   5.764   3.374
62116W        W27277  15.254   0.714  12.060
62117W        W27278  28.600  14.642  11.886
62118W        W27279  40.084   2.225   0.810
62119W        W27280  10.312   7.904   3.101
62120W        W27281  16.626  26.098   2.791
62121W        W27282   4.491  12.149   2.839
62122W        W27283  18.246   0.727   1.642
62123W        W27284  14.612  25.703   3.636
62124W        W27285   5.407  27.586   2.004
62125W        W27286  21.131   9.993  12.441
62126W        W27287  11.121  17.310   1.183
62127W        W27288  21.263  36.480   4.591
62128W        W27289  31.991  17.119   0.026
62129W        W27290  21.821  36.448  13.836
62130W        W27291   6.062  42.116   2.623
62131W        W27292  35.620  35.031   0.602
62132W        W27293  35.637  10.393  11.587
62133W        W27294   0.279  38.630  14.042
62134W        W27295  14.437  22.400  11.596
62135W        W27296  37.928  25.168  13.501
62136W        W27297   7.458  21.466   1.214
62137W        W27298  42.202  17.197   1.963
62138W        W27299   4.355  31.355   4.123
62139W        W27300  14.730   9.553   3.343
62140W        W27301  40.747  31.898  13.006
62141W        W27302  44.557   0.514   3.183
62142W        W27303  13.046  42.064   3.411
62143W        W27304   0.396   1.343  14.860
62144W        W27305  39.462  38.470   0.458
62145W        W27306  33.105  24.646  12.930
62146W        W27307   0.545  39.809  13.344
62147W        W27308   5.814   7.808   0.267
62148W        W27309  14.770  32.617   0.313
62149W        W27310  32.961   1.714   4.806
62150W        W27311   8.866  35.271   1.395
62151W        W27312  37.816  32.504   1.215
62152W        W27313   1.078  23.217   2.632
62153W        W27314  30.035  43.705   2.566
62154W        W27315  21.321  31.133   2.568
62155W        W27316  15.381   6.709   2.915
62156W        W27317  19.192  11.324  12.422
62157W        W27318   5.839  35.159  13.613
62158W        W27319  32.099  20.076  12.015
62159W        W27320  40.409  30.676   1.243
62160W        W27321  10.309   4.046   1.490
62161W        W27322   2.536  20.575  14.820
62162W        W27323  26.658  35.655   2.808
62163W        W27324  30.970  27.707  13.278
62164W        W27325  41.117  38.059  14.965
62165W        W27326  22.422  12.348  13.923
62166W        W27327  29.918  11.682  12.867
62167W        W27328  16.893  33.090   4.474
62168W        W27329  43.022  23.976  13.820
62169W        W27330  37.120  42.024  12.927
62170W        W27331  41.231   3.234   3.154
62171W        W27332  22.095   2.181   2.161
62172W        W27333  29.974   6.929  14.986
62173W        W27334  18.677  40.745   0.821
62174W        W27335  40.320   6.290   4.662
62175W        W27336  33.062  28.035   2.170
62176W        W27337   7.207  19.845   4.479
62177W        W27338  37.610  25.027  14.508
62178W        W27339  21.831  18.554  11.767
62179W        W27340  35.557  20.053   0.591
62180W        W27341  16.656  43.778  12.968
62181W        W27342   7.637  38.919  13.926
62182W        W27343  30.161   9.202   3.934
62183W        W27344  40.562  34.077   3.314
62184W        W27345  42.771  19.369   1.792
62185W        W27346   2.743  30.704  11.588
62186W        W27347  37.398  16.863   0.826
62187W        W27348   3.982  42.954  10.396
62188W        W27349  10.647  33.341   3.588
62189W        W27350  14.373   0.854  13.317
62190W        W27351  27.696  24.918   0.774
62191W        W27352  13.098  41.529  13.875
62192W        W27353   1.871  19.707  14.897
62193W        W27354   6.178  30.132   1.788
62194W        W27355   8.688  27.568   3.562
62195W        W27356  14.122   6.614   1.873
62196W        W27357  19.217  34.190   4.142
62197W        W27358   6.870   5.934  14.935
62198W        W27359  18.996  41.867   2.160
62199W        W27360  27.087  38.057   3.639
62200W        W27361   6.868  15.378  12.089
62201W        W27362  14.197  41.277   1.829
62202W        W27363  10.707   2.952  14.500
62203W        W27364   7.896  42.023  11.640
62204W        W27365  21.092   2.761   0.812
62205W        W27366  14.327   1.348   4.305
62206W        W27367   8.756   4.486  12.086
62207W        W27368  27.398  31.605  13.910
62208W        W27369  28.948  20.405  12.964
62209W        W27370  19.174   3.336  12.207
62210W        W27371  30.999  40.784   3.759
62211W        W27372  39.545  24.696   0.385
62212W        W27373  12.104   1.717  14.967
62213W        W27374  27.942   3.176   3.176
62214W        W27375  10.927  44.019   2.431
62215W        W27376   0.233  24.306   4.161
62216W        W27377  36.033  14.251  13.397
62217W        W27378  38.015   7.233  14.959
62218W        W27379  27.142  44.024   2.094
62219W        W27380  19.064  32.596  11.869
62220W        W27381  37.225  27.552   4.758
62221W        W27382  28.533   3.411  13.143
62222W        W27383  25.166  19.318   0.455
62223W        W27384  26.249  20.640  12.720
62224W        W27385  26.642  22.728  10.260
62225W        W27386  44.888  31.880   0.470
62226W        W27387  40.283  12.694   1.429
62227W        W27388  19.602  30.960  14.304
62228W        W27389   8.656  36.017  12.253
62229W        W27390  36.676  29.761  14.283
62230W        W27391  20.152  18.261   0.386
62231W        W27392  43.583  16.340   3.292
62232W        W27393  10.467   4.712   3.691
62233W        W27394  34.013  26.475  12.891
62234W        W27395  14.264  29.425   2.392
62235W        W27396  33.687  19.168   0.221
62236W        W27397  40.580   3.176  10.701
62237W        W27398  18.660  14.011   4.511
62238W        W27399  31.062  38.785  10.664
62239W        W27400  13.752  39.169   2.844
62240W        W27401  32.002  36.118   1.669
62241W        W27402  41.608   6.462  11.888
62242W        W27403  19.481  22.723  11.512
62243W        W27404  36.759  14.480  14.022
62244W        W27405  19.100  33.315  13.344
62245W        W27406  18.366  21.796  11.521
62246W        W27407  17.915  36.418   0.259
62247W        W27408  19.956  20.199   0.321
62248W        W27409  20.811  16.328   1.253
62249W        W27410  12.543  42.253   2.655
62250W        W27411  14.231   7.719   2.859
62251W        W27412   9.771  20.501  14.537
62252W        W27413  32.637  22.608  12.203
62253W        W27414  44.348   6.614  12.759
62254W        W27415  31.699  37.769   3.201
62255W        W27416  20.780  21.133  11.520
62256W        W27417  43.251  14.872  12.779
62257W        W27418  24.763  28.431  10.570
62258W        W27419   6.808  17.091  12.381
62259W        W27420   4.295  39.691  14.189
62260W        W27421  33.451   7.155  14.334
62261W        W27422  35.433  23.531  10.689
62262W        W27423   7.962  33.526   2.734
62263W        W27424  38.509   5.876   4.287
62264W        W27425   8.669  22.091   0.803
62265W        W27426   4.281  27.562   3.419
62266W        W27427  35.402  19.797  10.754
62267W        W27428  26.829  16.801   4.192
62268W        W27429  34.948  17.280  14.342
62269W        W27430  19.052  44.900   2.912
62270W        W27431  14.713   3.733   3.152
62271W        W27432  36.610   2.665  12.902
62272W        W27433  23.524  10.081   3.317
62273W        W27434   4.305  11.829   4.643
62274W        W27435   6.868   5.802   0.441
62275W        W27436   9.956  35.595  12.373
62276W        W27437   3.849  12.701   0.879
62277W        W27438  10.369  11.799  10.821
62278W        W27439   6.500  13.196  10.749
62279W        W27440  27.972  15.659   0.547
62280W        W27441   5.039   0.894   2.696
62281W        W27442  24.272  13.052  14.744
62282W        W27443  34.548  11.519  13.606
62283W        W27444   7.751  40.291   2.206
62284W        W27445   3.131  27.663   5.474
62285W        W27446   0.249  30.007   4.095
62286W        W27447  34.323  30.638  12.565
62287W        W27448  33.980  21.793   1.902
62288W        W27449  13.634   0.007   3.734
62289W        W27450  39.249   3.226   1.733
62290W        W27451  26.545  28.044   0.279
62291W        W27452  23.959  14.879  12.011
62292W        W27453  12.115   1.192  11.138
62293W        W27454   4.947  10.899  10.969
62294W        W27455  36.202  41.695  12.943
62295W        W27456  40.337  38.311   3.188
62296W        W27457  13.214  11.409   0.742
62297W        W27458  36.036  42.390   2.101
62298W        W27459  14.423  40.592  13.313
62299W        W27460   6.813  40.502  12.012
62300W        W27461  23.098  28.541  14.379
62301W        W27462  26.930   3.964  14.378
62302W        W27463   9.005  14.274  14.508
62303W        W27464  37.071  21.673  13.611
62304W        W27465  41.116   8.401  10.704
62305W        W27466  26.977  38.521  12.852
62306W        W27467  44.445  42.914  11.901
62307W        W27468  36.496  41.237  10.949
62308W        W27469  30.783  22.460   2.729
62309W        W27470  18.829   0.894   2.325
62310W        W27471  19.824  43.013   3.621
62311W        W27472  24.813  17.005   2.693
62312W        W27473   9.293  41.149   2.565
62313W        W27474   3.374  34.633   4.622
62314W        W27475  19.640  16.541  12.446
62315W        W27476  23.837  22.227  13.768
62316W        W27477  26.497  36.693   2.889
62317W        W27478  37.462   6.203   1.870
62318W        W27479  22.041   8.780   2.446
62319W        W27480  39.172  15.584   0.351
62320W        W27481  28.112  10.731   1.410
62321W        W27482  38.924  40.796  14.821
62322W        W27483  11.626   9.839   2.357
62323W        W27484  24.001   0.855   1.188
62324W        W27485   3.377   7.122   0.166
62325W        W27486  36.535  19.992  11.972
62326W        W27487   2.807  31.128  13.471
62327W        W27488  18.649  15.565  11.110
62328W        W27489  35.682  22.626  14.327
62329W        W27490  34.808  41.491  12.688
62330W        W27491  31.985  27.637   1.432
62331W        W27492   3.470  25.390   0.776
62332W        W27493  19.265  26.457   2.689
62333W        W27494  18.743  23.105  11.931
62334W        W27495  34.343  12.858  13.937
62335W        W27496  27.183  36.581  12.096
62336W        W27497  25.823  32.464  13.911
62337W        W27498   2.558   1.967   1.206
62338W        W27499  32.435   5.352   3.513
62339W        W27500  15.794  19.532   3.328
62340W        W27501  29.145  21.491  14.896
62341W        W27502  33.959  43.106   1.910
62342W        W27503   8.871  16.092   0.227
62343W        W27504  24.742   9.955  13.447
62344W        W27505  22.137  28.701   0.295
62345W        W27506  35.537  41.454   3.372
62346W        W27507  34.518   4.359   3.739
62347W        W27508  44.502  20.297  10.361
62348W        W27509  17.000  26.154  10.604
62349W        W27510   4.975  36.142   2.630
62350W        W27511  23.572  18.505   1.832
62351W        W27512  18.483  26.724  14.029
62352W        W27513   6.136  40.524  12.514
62353W        W27514  19.129  29.153  13.324
62354W        W27515  14.790  18.160   2.965
62355W        W27516   1.887  39.303   1.260
62356W        W27517  37.417  33.952   3.205
62357W        W27518  12.182  34.849   1.824
62358W        W27519  10.293  37.913  12.455
62359W        W27520  24.669  41.093  14.040
62360W        W27521   5.775  33.117  14.445
62361W        W27522  17.697  44.228  14.222
62362W        W27523  42.817  34.340   1.443
62363W        W27524   6.341  21.152  14.993
62364W        W27525   8.307  12.752   0.913
62365W        W27526  12.330  33.449  14.251
62366W        W27527  44.960  18.432  14.023
62367W        W27528  11.983  21.615  11.379
62368W        W27529  17.550  18.336   2.880
62369W        W27530   0.988  43.068  12.119
62370W        W27531   0.400  37.151  14.212
62371W        W27532  19.025  12.425   3.758
62372W        W27533  40.029   6.922   1.901
62373W        W27534  31.576   4.420  13.125
62374W        W27535  38.998  36.511   2.861
62375W        W27536  31.952  27.968  14.480
62376W        W27537  29.481  35.070  14.952
62377W        W27538  16.838  33.096   1.780
62378W        W27539  20.040   3.148  11.655
62379W        W27540   2.246  10.998  10.281
62380W        W27541  14.085  41.430   3.269
62381W        W27542  32.114  31.487  13.121
62382W        W27543  36.178  10.036   2.382
62383W        W27544   1.922  16.144  11.057
62384W        W27545  19.338   6.121   0.483
62385W        W27546  29.684  35.839  13.354
62386W        W27547   4.611  42.307   1.370
62387W        W27548  43.940  43.091   1.721
62388W        W27549   1.709  25.802  10.665
62389W        W27550  30.115  28.173   1.654
62390W        W27551  29.144  40.310  12.576
62391W        W27552  37.592  25.237   4.108
62392W        W27553   7.121  12.791  13.895
62393W        W27554  42.958  29.726  12.917
62394W        W27555  26.920  19.733   1.493
62395W        W27556   2.251   5.990  13.197
62396W        W27557  22.035  37.963   1.980
62397W        W27558  25.714  22.283  12.664
62398W        W27559  25.113  26.141   0.477
62399W        W27560  16.200  37.362   4.165
62400W        W27561   3.371   7.014  13.478
62401W        W27562  30.077  22.795   0.261
62402W        W27563  39.940  43.289  11.182
62403W        W27564  12.136  22.530  12.084
62404W        W27565  16.771  28.707   1.947
62405W        W27566  44.852  39.202   1.458
62406W        W27567   2.059  21.693   2.261
62407W        W27568  21.143  36.600  10.786
62408W        W27569   4.748   5.024   4.144
62409W        W27570   9.639  16.572   4.869
62410W        W27571  29.139   2.443   4.385
62411W        W27572  13.297  41.083   3.194
62412W        W27573  17.690  35.464  12.407
62413W        W27574   0.941  27.729   3.658
62414W        W27575  18.501  16.189  13.804
62415W        W27576   8.707  13.963  14.974
62416W        W27577   2.025  28.116   2.143
62417W        W27578  18.294  11.732   3.226
62418W        W27579  16.193  26.351   2.681
62419W        W27580  12.851   6.949  13.897
62420W        W27581  40.402  27.190   3.239
62421W        W27582  28.349  12.099   0.762
62422W        W27583  37.734  41.757  12.058
62423W        W27584  44.397  27.245   3.215
62424W        W27585  28.512  15.620  12.440
62425W        W27586  18.998   6.672   3.179
62426W        W27587  32.478  36.589  13.333
62427W        W27588  23.668  23.416  13.960
62428W        W27589  33.604  37.337  14.018
62429W        W27590  18.584  42.912  11.647
62430W        W27591  19.613  44.234  13.922
62431W        W27592  18.532  19.108   4.279
62432W        W27593   2.350   8.720  11.059
62433W        W27594  27.289  41.040  12.544
62434W        W27595  33.379  18.235  12.857
62435W        W27596   2.331  33.129   1.866
62436W        W27597  24.479   3.325  11.625
62437W        W27598  27.890   7.435  11.857
62438W        W27599  11.589  28.397   4.480
62439W        W27600  12.825  13.654  11.335
62440W        W27601  37.551  10.829  10.574
62441W        W27602  20.181  24.480   2.678
62442W        W27603  43.821  41.635   1.226
62443W        W27604  25.037  26.642  14.395
62444W        W27605  36.067  33.473   1.908
62445W        W27606  27.121  24.424   1.400
62446W        W27607  42.857  30.317   3.905
62447W        W27608  43.372  43.757  13.633
62448W        W27609  36.673  24.244   0.958
62449W        W27610  32.474  15.763   2.911
62450W        W27611   2.896  34.628  14.376
62451W        W27612  17.008  37.608  10.201
62452W        W27613  44.384  34.503  10.305
62453W        W27614  18.745   6.213   4.504
62454W        W27615  40.988  23.719  10.688
62455W        W27616   0.251   8.750   5.123
62456W        W27617  32.514  41.257  14.881
62457W        W27618   3.514  28.956   3.279
62458W        W27619   5.958  17.735  13.933
62459W        W27620  17.879  13.849  11.424
62460W        W27621  21.460  18.370  14.449
62461W        W27622  11.872  44.829  14.462
62462W        W27623   0.149  39.878  13.026
62463W        W27624  22.878  34.977   4.950
62464W        W27625   0.909   9.780   4.591
62465W        W27626  39.380   0.276   1.645
62466W        W27627  35.631  29.168   4.310
62467W        W27628  11.414   4.547   4.058
62468W        W27629  10.149  32.218   3.450
62469W        W27630  32.797  19.748  12.490
62470W        W27631  21.259   8.165   0.308
62471W        W27632   1.006   3.909  12.855
62472W        W27633  21.752  25.057  13.835
62473W        W27634  32.431  16.280  12.102
62474W        W27635  11.974  43.410   1.773
62475W        W27636  39.936   4.802   3.676
62476W        W27637  38.542  34.898   0.907
62477W        W27638   2.345  28.535  11.182
62478W        W27639   2.499   4.851   3.667
62479W        W27640  18.489  31.432   0.564
62480W        W27641  35.092   8.747   0.284
62481W        W27642  10.196  26.733   0.940
62482W        W27643  38.829  15.729   2.471
62483W        W27644  34.387  19.648  13.989
62484W        W27645  20.511  34.812   1.308
62485W        W27646  15.840  31.964   5.035
62486W        W27647  21.952  13.725  10.327
62487W        W27648   9.572  12.764   2.169
62488W        W27649  26.452   5.839  14.587
62489W        W27650  37.333  13.252   3.230
62490W        W27651  22.467   7.897  13.969
62491W        W27652  18.260  10.622   1.738
62492W        W27653   1.222   2.036  11.703
62493W        W27654   7.969   9.869   1.655
62494W        W27655  39.163  22.236   4.715
62495W        W27656  24.503  14.559  13.980
62496W        W27657  19.575  22.035  13.542
62497W        W27658  16.398   1.951   2.862
62498W        W27659  10.806  13.240  14.932
62499W        W27660  11.147   3.930   0.273
62500W        W27661  38.272  42.817  12.904
62501W        W27662  39.089  26.228   4.058
62502W        W27663  26.039  38.496  13.815
62503W        W27664  24.615  35.762  10.648
62504W        W27665  28.577  41.907  11.652
62505W        W27666   5.323  25.942  13.341
62506W        W27667  16.189   2.249  13.338
62507W        W27668  23.066   6.678   1.002
62508W        W27669   9.377  42.851   1.733
62509W        W27670   0.552  24.434  12.183
62510W        W27671  44.072  40.871   9.759
62511W        W27672  15.840  41.931   3.259
62512W        W27673  10.881  40.007  12.968
62513W        W27674   3.883  15.025  13.886
62514W        W27675  28.913  20.681  11.938
62515W        W27676   8.395  29.305   2.710
62516W        W27677  26.189  28.211   2.328
62517W        W27678  12.917  43.624  12.973
62518W        W27679  35.595  32.831  10.622
62519W        W27680   9.441  24.489  13.713
62520W        W27681   2.368   6.721   0.377
62521W        W27682  21.508   2.240   2.820
62522W        W27683   8.256   1.716   1.175
62523W        W27684  36.853  41.278  12.272
62524W        W27685  39.821  31.891  10.705
62525W        W27686  38.353  11.150   2.603
62526W        W27687  33.518  44.064  14.831
62527W        W27688   2.259  34.875   1.352
62528W        W27689   9.167  17.250   0.377
62529W        W27690  38.520  38.166   2.955
62530W        W27691  44.210  27.399   1.299
62531W        W27692  29.199   5.434   4.005
62532W        W27693  44.130  22.672   3.826
62533W        W27694   1.865  18.273   4.575
62534W        W27695  30.022  15.777   4.942
62535W        W27696  18.349  30.397  10.709
62536W        W27697  26.077   3.148   2.488
62537W        W27698  35.441  14.104  14.891
62538W        W27699   4.734  38.366   1.879
62539W        W27700   1.267  32.649   3.733
62540W        W27701  13.560  26.059  10.672
62541W        W27702  12.354   2.753   2.573
62542W        W27703  42.680  16.073  14.900
62543W        W27704  38.486  44.394  12.164
62544W        W27705  12.304  40.370   1.197
62545W        W27706  22.492  42.375   2.250
62546W        W27707  11.310  34.038  12.412
62547W        W27708   4.681  26.000   0.439
62548W        W27709  42.630  15.097   2.919
62549W        W27710  14.145  39.812  10.555
62550W        W27711  29.187  18.543  11.143
62551W        W27712  43.894  31.904   2.236
62552W        W27713  25.540  16.770  12.674
62553W        W27714  21.808   8.291   4.064
62554W        W27715  22.084  44.834  13.001
62555W        W27716  18.845   1.043  13.489
62556W        W27717  34.474   3.982   0.159
62557W        W27718   1.366   4.512   1.724
62558W        W27719   0.656  11.369  13.589
62559W        W27720  32.419   8.956  10.138
62560W        W27721  34.933  36.502  10.650
62561W        W27722  28.446  44.492   2.856
62562W        W27723  29.464  38.893   2.295
62563W        W27724  43.842  40.365   4.228
62564W        W27725  12.773  10.201  12.923
62565W        W27726  31.939  35.793  12.022
62566W        W27727  11.650  21.249  13.157
62567W        W27728   5.236   4.690   0.808
62568W        W27729  10.785  38.286   2.407
62569W        W27730  38.115  27.112  13.763
62570W        W27731   9.877  17.192  10.881
62571W        W27732  10.595  20.544   4.946
62572W        W27733  20.251   4.916  11.496
62573W        W27734  36.504  43.057   4.559
62574W        W27735  11.311  32.793   3.290
62575W        W27736  25.137   4.772  10.687
62576W        W27737   5.940  31.495  11.625
62577W        W27738   1.524  28.002   0.333
62578W        W27739   2.748   5.688  10.974
62579W        W27740   1.829   5.704   2.689
62580W        W27741  40.035  11.184   1.321
62581W        W27742  34.346   6.768  11.580
62582W        W27743  23.624  37.857  13.330
62583W        W27744  41.261   7.830   4.535
62584W        W27745  34.568  32.190  13.795
62585W        W27746  32.496   2.831   4.134
62586W        W27747  36.636  44.255  10.842
62587W        W27748  16.356  32.056  12.897
62588W        W27749  24.222  14.383   1.707
62589W        W27750  30.484  23.275  13.961
62590W        W27751  35.002  22.929   3.927
62591W        W27752  26.537  30.942   2.864
62592W        W27753   3.084   3.030  13.379
62593W        W27754  11.225  11.897  11.144
62594W        W27755  24.872  29.010   2.197
62595W        W27756   7.185  20.216   0.848
62596W        W27757  23.470   8.994   1.327
62597W        W27758  37.357  15.205  13.921
62598W        W27759   0.295   1.382  13.512
62599W        W27760  13.197  22.719   1.741
62600W        W27761  19.247  18.852   2.623
62601W        W27762   6.627   7.462  12.144
62602W        W27763  34.065  22.558   3.627
62603W        W27764  15.140  43.990  13.111
62604W        W27765  23.662  40.446   0.875
62605W        W27766   5.306  21.264   2.475
62606W        W27767  25.715  40.040   3.249
62607W        W27768  35.643  15.359  14.926
62608W        W27769  29.790  44.378  13.741
62609W        W27770   4.018  28.451   2.801
62610W        W27771  23.061  17.716  11.542
62611W        W27772  41.225  10.673   1.662
62612W        W27773   2.687  38.467  13.498
62613W        W27774  44.361  38.561   3.577
62614W        W27775  34.080  31.712  14.500
62615W        W27776   5.843  14.960   1.492
62616W        W27777  17.059  32.587   0.937
62617W        W27778  42.062  31.940  13.926
62618W        W27779  42.947   0.050   2.449
62619W        W27780  37.769  24.225  10.798
62620W        W27781   9.160  29.368   2.296
62621W        W27782   0.728  23.410   0.407
62622W        W27783  13.553  16.438  10.767
62623W        W27784   3.218  26.949  11.465
62624W        W27785   6.270  44.426  12.926
62625W        W27786  29.615  39.132  14.961
62626W        W27787   7.362   8.197  14.539
62627W        W27788  19.833  20.083  11.915
62628W        W27789  44.933  31.496  10.732
62629W        W27790  41.191  20.649   4.144
62630W        W27791   6.665  35.467   0.874
62631W        W27792  20.639  24.181   1.895
62632W        W27793  44.250  34.355   2.788
62633W        W27794  21.899  39.581   2.749
62634W        W27795  23.112   7.711  14.739
62635W        W27796  12.716   2.924   4.357
62636W        W27797  18.551  26.798  13.004
62637W        W27798  20.163  20.003   3.250
62638W        W27799  38.312  25.256   2.201
62639W        W27800  27.193  17.558   0.559
62640W        W27801  36.842  20.304  14.867
62641W        W27802  23.697  23.426   4.477
62642W        W27803  32.082  36.154   0.325
62643W        W27804  17.595  15.833   4.930
62644W        W27805   9.632  43.874   1.458
62645W        W27806  19.703  15.546  12.402
62646W        W27807  21.217  39.126   4.870
62647W        W27808  40.620  34.985  13.918
62648W        W27809  11.749  37.365  14.908
62649W        W27810  25.912  20.507   1.246
62650W        W27811  42.981  27.456   0.787
62651W        W27812  16.804  30.954  13.114
62652W        W27813   3.116  27.902  14.173
62653W        W27814  40.441  35.345  12.008
62654W        W27815  11.187  27.230   4.738
62655W        W27816  18.368  33.017   0.886
62656W        W27817  36.363  10.208   3.591
62657W        W27818  25.170  25.929  11.274
62658W        W27819  32.386  18.530  14.533
62659W        W27820  28.012   6.706   1.333
62660W        W27821  42.271  11.234  14.401
62661W        W27822  29.633   5.536  14.249
62662W        W27823   1.719  34.406   4.104
62663W        W27824  39.843  12.617   2.273
62664W        W27825  33.195  41.202   3.513
62665W        W27826  41.554  35.211   2.195
62666W        W27827  12.593   0.898  11.565
62667W        W27828  35.583  37.923   3.166
62668W        W27829   9.715  44.862   0.558
62669W        W27830  34.065  25.127   1.835
62670W        W27831  41.994   2.870   3.605
62671W        W27832  31.667  28.546   0.756
62672W        W27833  43.280  42.518  12.158
62673W        W27834  32.325  35.968  10.345
62674W        W27835  41.056   7.197  13.343
62675W        W27836  45.000   5.829  12.924
62676W        W27837  15.248  15.650   0.006
62677W        W27838  37.054   6.837  10.521
62678W        W27839  23.441  26.208  12.915
62679W        W27840  15.212   8.377  10.737
62680W        W27841  31.087  16.133  14.891
62681W        W27842  34.369   3.502   0.348
62682W        W27843   1.519  20.538  14.446
62683W        W27844  33.011   6.972   2.407
62684W        W27845  27.060   2.151   3.269
62685W        W27846  44.934  31.362  11.642
62686W        W27847  32.491  29.483  13.434
62687W        W27848  19.542  21.773   2.708
62688W        W27849  18.816  39.785  13.351
62689W        W27850  19.504  23.073   1.235
62690W        W27851   2.859  39.065  13.336
62691W        W27852   2.818  11.135   1.813
62692W        W27853   5.828   0.950   2.667
62693W        W27854   1.744  22.241   0.941
62694W        W27855   9.100   0.992   1.402
62695W        W27856   7.449  31.288  14.412
62696W        W27857   6.528  14.823   2.041
62697W        W27858  34.028  14.652  11.761
62698W        W27859  34.564   8.090   3.145
62699W        W27860   8.387  33.389   0.729
62700W        W27861  42.471   7.283   1.658
62701W        W27862  38.515  43.416  11.185
62702W        W27863  37.095   3.684  11.621
62703W        W27864  37.663  13.214   4.120
62704W        W27865  34.038  15.673  14.901
62705W        W27866  42.207   4.316   3.171
62706W        W27867  42.855  14.769   3.531
62707W        W27868  12.854  32.210   2.315
62708W        W27869  16.838   0.801  11.101
62709W        W27870  22.181  17.065  13.955
62710W        W27871  15.787  26.520  11.982
62711W        W27872  29.678  35.874   4.139
62712W        W27873  41.322  28.635  13.997
62713W        W27874  19.590  14.221   2.811
62714W        W27875   1.139  20.069   3.788
62715W        W27876  14.376  31.912   1.245
62716W        W27877   0.764  44.412   9.928
62717W        W27878  38.401  34.960  13.066
62718W        W27879  42.077  15.371   0.853
62719W        W27880  18.803  19.365   1.776
62720W        W27881  35.047  33.750   2.782
62721W        W27882  41.966  18.105   3.167
62722W        W27883  34.405  14.888   3.589
62723W        W27884  22.619   4.390  14.987
62724W        W27885  31.755  17.681   2.597
62725W        W27886  14.403  18.167  14.417
62726W        W27887  17.593   1.508  13.301
62727W        W27888  30.072   8.247  11.002
62728W        W27889  23.652  37.996   2.110
62729W        W27890   9.789  35.497   0.436
62730W        W27891   3.580  19.622  13.357
62731W        W27892  21.299  40.392  14.388
62732W        W27893   8.556  39.037  10.746
62733W        W27894   0.225  12.925  14.437
62734W        W27895   8.403  34.645  12.507
62735W        W27896  44.983   8.751   3.277
62736W        W27897  26.266  23.971   4.508
62737W        W27898  14.700  36.221   2.722
62738W        W27899  16.824  24.573   3.515
62739W        W27900  40.990  37.935  10.710
62740W        W27901   6.745  24.504  12.599
62741W        W27902  36.568  18.067  13.955
62742W        W27903  18.566  38.464  12.542
62743W        W27904  15.430   2.113   3.144
62744W        W27905  15.596  31.655   4.692
62745W        W27906  15.544   7.604   3.303
62746W        W27907  27.889  14.797  13.464
62747W        W27908  41.823  36.068   4.590
62748W        W27909  37.467  12.107   0.428
62749W        W27910  13.976  12.763   0.238
62750W        W27911  24.087  29.135   0.169
62751W        W27912  14.041  10.860  14.734
62752W        W27913   3.235   4.873   3.191
62753W        W27914  27.156  18.218   2.217
62754W        W27915   3.811  28.000  12.868
62755W        W27916  23.337  19.197  12.135
62756W        W27917   7.875  12.082  13.415
62757W        W27918  43.913  41.539  13.322
62758W        W27919  30.630  26.335  11.105
62759W        W27920  34.478   2.474   1.942
62760W        W27921  34.311  28.748  12.105
62761W        W27922  39.170   4.078  14.526
62762W        W27923  44.239  15.957  10.302
62763W        W27924  24.967  31.610  11.121
62764W        W27925  16.778  14.626   0.986
62765W        W27926  10.322  14.281   0.090
62766W        W27927  10.523  21.705  12.352
62767W        W27928  17.334  33.040   0.865
62768W        W27929  40.520  16.959   0.847
62769W        W27930  15.554  22.427   2.840
62770W        W27931  34.928  24.105   4.526
62771W        W27932  26.098  32.001  11.224
62772W        W27933  35.777  40.930  13.348
62773W        W27934  20.842   2.004  13.361
62774W        W27935  25.857  37.304   9.852
62775W        W27936   9.378  31.803  13.882
62776W        W27937   5.290  27.476   3.496
62777W        W27938  20.024  34.232  14.513
62778W        W27939   3.281  16.304   2.726
62779W        W27940  35.063  34.424   0.441
62780W        W27941  14.059  32.243  14.919
62781W        W27942  20.755  10.229   4.098
62782W        W27943  39.058  13.353  14.996
62783W        W27944  10.817   7.732   3.020
62784W        W27945   5.825  38.404  11.821
62785W        W27946  10.711  22.754   0.292
62786W        W27947  11.796  33.895   1.922
62787W        W27948  11.095  42.439  14.385
62788W        W27949  35.694  20.875  12.362
62789W        W27950  36.960   9.784   0.373
62790W        W27951  44.225   7.693  13.015
62791W        W27952  36.906  24.244   1.435
62792W        W27953  12.517   8.869  12.001
62793W        W27954  10.112  15.374   2.438
62794W        W27955  28.032  28.084  14.849
62795W        W27956  26.692  25.942   2.904
62796W        W27957  17.301  28.565  13.692
62797W        W27958   5.005  31.423   4.896
62798W        W27959  12.360  18.628  12.132
62799W        W27960  36.603   7.452   0.817
62800W        W27961   6.267  43.751   0.773
62801W        W27962  41.457  24.978  13.840
62802W        W27963  39.834  39.568  12.035
62803W        W27964  21.809  19.073   0.896
62804W        W27965  26.021   8.955  10.274
62805W        W27966  39.652  15.660   0.220
62806W        W27967  18.109  36.571  10.791
62807W        W27968  17.756  33.885  10.812
62808W        W27969  23.448  26.526  11.157
62809W        W27970  12.621   1.297  11.118
62810W        W27971  34.502  11.100   0.801
62811W        W27972  17.325   7.985   1.917
62812W        W27973  44.213  18.137   3.259
62813W        W27974   1.039  43.584   1.289
62814W        W27975  29.117  23.249  14.522
62815W        W27976  22.493  40.965  11.196
62816W        W27977  34.931  31.446   2.849
62817W        W27978  13.584  10.782   0.007
62818W        W27979  21.769  13.276   1.735
62819W        W27980  31.310  16.590   1.829
62820W        W27981   6.888   3.198   1.570
62821W        W27982   1.875   3.701  11.558
62822W        W27983  27.398  23.777  10.178
62823W        W27984   4.372  11.787  14.851
62824W        W27985  11.385  18.547   0.669
62825W        W27986  41.008  44.436   4.732
62826W        W27987  12.055  20.838  12.460
62827W        W27988  10.712  13.828   0.678
62828W        W27989   1.226  40.879   2.276
62829W        W27990   1.967  39.935   4.551
62830W        W27991  34.906   5.101  12.094
62831W        W27992   9.822  10.086  14.556
62832W        W27993  14.367   9.399   4.847
62833W        W27994  40.473  15.806  12.167
62834W        W27995   5.010   5.134  13.769
62835W        W27996  44.764  16.191   0.857
62836W        W27997  16.762  17.674  12.421
62837W        W27998  16.799  23.646  11.217
62838W        W27999  20.268  30.678   4.351
62839W        W28000  21.705   8.252   2.726
62840W        W28001  38.199  13.257  14.794
62841W        W28002  33.218  32.957   1.783
62842W        W28003  42.961  10.107  13.027
62843W        W28004  15.344  11.049   2.722
62844W        W28005   9.413  44.310  10.594
62845W        W28006  38.028  43.362   1.346
62846W        W28007  41.383  40.803   2.311
62847W        W28008  43.317  32.706  13.487
62848W        W28009   6.389   6.334  11.097
62849W        W28010   8.385  19.636   1.205
62850W        W28011  27.979  24.583  11.206
62851W        W28012  25.756  44.439  10.996
62852W        W28013  20.413   3.023  14.064
62853W        W28014  24.016  24.268   0.003
62854W        W28015   7.119  29.916   4.148
62855W        W28016  36.835  15.816  12.456
62856W        W28017  12.622  32.515   0.957
62857W        W28018  36.184  24.647  11.899
62858W        W28019  10.657  25.415  13.992
62859W        W28020  31.926  37.368  13.411
62860W        W28021  15.603   0.543   2.874
62861W        W28022  20.332  32.265  10.909
62862W        W28023  30.670   8.033   0.602
62863W        W28024  19.986   7.411  12.478
62864W        W28025  24.698  12.943  12.694
62865W        W28026  24.750  43.312   1.694
62866W        W28027   0.942   4.420   4.671
62867W        W28028   9.654  17.937   3.571
62868W        W28029  43.321  34.475   1.275
62869W        W28030  28.101  33.356   2.826
62870W        W28031  15.811  28.944   0.898
62871W        W28032   8.723  18.812  10.714
62872W        W28033  38.375  34.599   4.872
62873W        W28034  29.049  36.192  10.529
62874W        W28035  28.524  39.127   1.377
62875W        W28036  24.196   3.823   1.346
62876W        W28037  19.436  13.365   4.616
62877W        W28038  44.357  11.119   0.947
62878W        W28039  19.134  25.646  12.141
62879W        W28040   5.735  25.156   2.904
62880W        W28041  28.654  43.445   2.567
62881W        W28042  10.204  40.477   3.829
62882W        W28043  19.533  11.369   4.568
62883W        W28044  10.356  24.172   3.229
62884W        W28045   0.130  37.906  14.890
62885W        W28046   6.391  21.525   2.752
62886W        W28047  42.650  14.854   2.209
62887W        W28048  44.922   2.715   1.215
62888W        W28049  24.019  27.720   0.390
62889W        W28050  27.392  15.311   5.423
62890W        W28051  14.758   1.223   1.300
62891W        W28052  37.660  35.002  11.101
62892W        W28053  33.489   4.428   4.146
62893W        W28054  18.468  25.634   3.821
62894W        W28055   0.837  41.415  11.119
62895W        W28056  25.084  37.851   1.790
62896W        W28057  17.193  44.751  14.923
62897W        W28058   3.753   7.611   3.761
62898W        W28059   1.339  42.993   4.558
62899W        W28060   9.249  22.461   2.481
62900W        W28061  23.491   4.015  11.161
62901W        W28062  34.971  39.287  13.297
62902W        W28063  16.119  30.035  14.059
62903W        W28064  26.669  40.494  12.309
62904W        W28065  36.988   3.059   4.449
62905W        W28066  38.926   5.216  11.219
62906W        W28067  26.550  26.935   3.116
62907W        W28068  34.797   7.376   1.303
62908W        W28069  27.569   0.793   1.351
62909W        W28070   1.679   3.642  14.345
62910W        W28071   8.571  33.956  12.000
62911W        W28072  42.124  22.224  12.005
62912W        W28073  25.149  13.685  12.545
62913W        W28074  12.052  25.199   0.485
62914W        W28075   7.735   0.306   2.279
62915W        W28076  14.617  35.420   3.806
62916W        W28077  17.722   2.040  13.387
62917W        W28078  14.059  24.945   1.416
62918W        W28079  38.959  11.427   1.846
62919W        W28080   4.834  15.990   0.337
62920W        W28081   9.723  13.308  14.526
62921W        W28082  18.177   9.318  12.870
62922W        W28083  29.200   2.374   3.797
62923W        W28084  24.625  33.559   0.760
62924W        W28085  10.387  29.512  13.590
62925W        W28086  41.566  26.014   3.844
62926W        W28087  28.411  14.782  14.715
62927W        W28088  20.725  38.825  12.942
62928W        W28089  16.569   1.307  14.791
62929W        W28090  36.963  27.934   0.430
62930W        W28091  19.348  39.653  14.219
62931W        W28092  34.018   0.870   3.936
62932W        W28093  36.982  27.267   0.047
62933W        W28094  27.708  19.971  12.644
62934W        W28095  10.215  30.895   2.304
62935W        W28096  15.645  44.308  10.707
62936W        W28097   0.919  38.363  13.817
62937W        W28098  36.537   3.155   1.315
62938W        W28099   9.801  16.144  14.376
62939W        W28100  44.155   6.385  13.596
62940W        W28101   9.133  39.367   1.033
62941W        W28102   9.262  22.793   4.189
62942W        W28103  32.421  14.725  12.505
62943W        W28104  34.162  11.829  12.568
62944W        W28105  15.018  34.367  13.407
62945W        W28106  37.337  36.933  14.905
62946W        W28107   9.372  37.174  11.598
62947W        W28108  38.614  17.779   0.490
62948W        W28109  28.632  38.801  12.103
62949W        W28110  34.637  29.583  11.930
62950W        W28111   3.924  21.768  11.579
62951W        W28112  36.125  38.306   3.718
62952W        W28113   5.142  44.114  11.109
62953W        W28114  25.154  36.290   1.788
62954W        W28115  26.100  30.392  13.162
62955W        W28116  36.287   8.894   3.672
62956W        W28117  23.185  10.643   4.564
62957W        W28118  17.133  25.437   2.219
62958W        W28119  39.014   1.267  12.000
62959W        W28120  15.698  14.168  11.646
62960W        W28121  19.250   2.994   1.427
62961W        W28122  14.763  29.981   4.594
62962W        W28123  15.775  30.482  11.478
62963W        W28124  30.645  23.076  10.314
62964W        W28125  25.603  44.363   3.068
62965W        W28126  32.981  24.994  11.955
62966W        W28127  10.382  17.154  10.753
62967W        W28128  20.175  39.151  11.690
62968W        W28129  21.607  40.822   4.847
62969W        W28130  31.824   3.405   1.734
62970W        W28131   1.053  12.672   3.629
62971W        W28132  28.722  18.078  13.972
62972W        W28133   0.955  11.183  13.192
62973W        W28134  18.672  44.305  13.809
62974W        W28135   5.465   8.789  12.082
62975W        W28136  37.806  31.608  11.521
62976W        W28137   4.121  14.790   1.590
62977W        W28138  14.720   7.682  13.268
62978W        W28139  13.187  43.680  11.167
62979W        W28140  26.179   8.864   1.038
62980W        W28141  38.913  11.110  11.087
62981W        W28142   0.919  42.942  14.926
62982W        W28143   0.425  38.017  13.126
62983W        W28144  40.901  20.050  10.726
62984W        W28145  22.449  23.714   2.776
62985W        W28146  33.127  17.780  10.644
62986W        W28147  13.829  32.376   3.260
62987W        W28148  15.661  29.549  12.640
62988W        W28149  15.091  37.165  14.908
62989W        W28150  19.057  14.773   0.211
62990W        W28151  25.668   8.630   0.063
62991W        W28152  15.893  41.067   3.021
62992W        W28153  37.294  10.167   3.169
62993W        W28154  37.301  39.381   1.229
62994W        W28155   3.154  10.764   4.015
62995W        W28156  25.248   2.403   4.972
62996W        W28157  33.930  22.249   5.010
62997W        W28158   0.903  39.866   5.191
62998W        W28159  20.738  39.364   4.368
62999W        W28160  12.926  36.286   0.857
63000W        W28161  23.141  32.032   0.687
63001W        W28162  16.608  27.656   0.476
63002W        W28163   9.329  21.523   2.493
63003W        W28164  17.547  42.951  11.416
63004W        W28165  19.201  41.352   2.238
63005W        W28166  16.212  17.242  12.869
63006W        W28167   9.792  25.146   3.709
63007W        W28168  38.150  44.353   0.429
63008W        W28169  40.872  24.282   1.477
63009W        W28170  30.890  27.306  11.180
63010W        W28171  14.645  27.640  14.388
63011W        W28172  26.712  24.619   3.269
63012W        W28173  37.285  10.772   4.599
63013W        W28174  44.326  14.121  12.014
63014W        W28175  17.784  41.980   3.684
63015W        W28176  22.008  26.631   2.657
63016W        W28177  26.650   8.637   1.356
63017W        W28178   4.412  24.598   1.446
63018W        W28179  14.069  21.050  11.598
63019W        W28180  13.555  19.646  13.483
63020W        W28181   5.105  27.306   3.993
63021W        W28182  19.205   7.568  14.434
63022W        W28183  24.124  44.694   3.687
63023W        W28184  12.826  12.812  14.365
63024W        W28185  19.936   6.161   2.839
63025W        W28186  30.740  20.014   2.795
63026W        W28187  14.261  14.843  11.066
63027W        W28188  31.991  33.130   2.380
63028W        W28189   9.832  35.139   3.959
63029W        W28190  39.230  40.321   0.358
63030W        W28191   1.616  27.280  13.110
63031W        W28192  32.442  28.616   2.212
63032W        W28193  35.177  30.357  12.021
63033W        W28194  28.946  20.072   3.698
63034W        W28195  16.409  35.298   4.236
63035W        W28196  37.563  40.914   4.141
63036W        W28197  40.365  44.313  10.767
63037W        W28198   3.227  43.523   2.773
63038W        W28199  24.733   7.756  11.676
63039W        W28200   9.620  23.183  13.670
63040W        W28201   9.494  20.133  12.995
63041W        W28202  29.573  33.087  12.980
63042W        W28203  42.790  31.902  13.597
63043W        W28204   5.191  44.420  11.529
63044W        W28205   6.706  36.319   4.766
63045W        W28206  11.219  41.871  13.737
63046W        W28207   4.170  15.057   0.128
63047W        W28208  30.525   9.093  10.722
63048W        W28209  12.888  36.568  13.840
63049W        W28210  18.174   7.427   2.627
63050W        W28211  32.917  19.764   2.229
63051W        W28212  29.115  20.051  11.561
63052W        W28213  23.147  42.504   4.784
63053W        W28214  21.626  28.917   0.385
63054W        W28215  20.335  21.797   5.084
63055W        W28216  23.038  30.110   0.349
63056W        W28217  30.728  35.724  12.498
63057W        W28218  15.334  22.005   1.913
63058W        W28219  40.523  10.895   0.447
63059W        W28220   8.790  16.205   2.917
63060W        W28221  43.917   2.372  12.456
63061W        W28222  26.920  31.251   2.732
63062W        W28223  31.620  29.536  10.967
63063W        W28224  16.488  27.653   1.496
63064W        W28225  34.843  16.583   0.738
63065W        W28226   4.444  12.180   0.485
63066W        W28227  38.786  20.329   3.482
63067W        W28228   0.253  13.811  10.139
63068W        W28229  34.551  23.540  12.835
63069W        W28230   8.835  27.803  12.052
63070W        W28231  29.499  28.647   3.267
63071W        W28232   3.092  23.610   3.646
63072W        W28233  20.166  11.710  13.853
63073W        W28234  28.693  11.879  11.120
63074W        W28235  26.181  36.300  12.537
63075W        W28236  13.186  32.895  10.997
63076W        W28237  11.702  36.189  11.087
63077W        W28238  38.904  29.487   0.897
63078W        W28239  13.633   8.131  13.091
63079W        W28240  31.147  28.166  14.964
63080W        W28241  35.888  21.765  12.500
63081W        W28242  13.831  31.981  12.896
63082W        W28243  12.845   9.135  13.661
63083W        W28244  26.935  17.248  14.310
63084W        W28245  15.814   4.765  14.874
63085W        W28246   1.660  22.616   1.339
63086W        W28247  44.340   0.869   3.462
63087W        W28248  36.809  32.763  12.531
63088W        W28249  32.009  36.383   0.782
63089W        W28250  15.401  30.857  11.554
63090W        W28251  35.946   1.224  12.078
63091W        W28252  26.882  23.992  11.524
63092W        W28253  11.111   7.758  12.424
63093W        W28254  31.825  20.794  12.450
63094W        W28255  38.708  39.052  11.652
63095W        W28256  16.572  41.311  11.161
63096W        W28257  35.953  12.294   2.794
63097W        W28258   3.123  41.809  12.968
63098W        W28259  28.526  31.459   0.796
63099W        W28260  37.988  17.254   4.769
63100W        W28261  16.044   1.798   3.809
63101W        W28262  30.844   2.226  14.484
63102W        W28263  25.066  14.628  11.611
63103W        W28264  17.060  10.116  13.329
63104W        W28265  15.735   8.676   0.193
63105W        W28266  31.528  19.289   1.360
63106W        W28267  35.620  11.652  10.781
63107W        W28268  12.173  30.730   4.360
63108W        W28269  37.201  40.088   0.161
63109W        W28270  44.935  42.317   0.464
63110W        W28271   3.479  22.449  11.924
63111W        W28272  13.374  20.138  13.986
63112W        W28273  32.926  20.967   0.229
63113W        W28274  21.114  16.488  12.919
63114W        W28275   6.732   0.727  14.548
63115W        W28276  38.579   6.787   4.303
63116W        W28277  29.447  42.002   3.470
63117W        W28278  25.625  35.585   4.262
63118W        W28279  43.627  39.987   1.052
63119W        W28280  19.942  21.180   1.703
63120W        W28281   4.738  38.037  10.619
63121W        W28282  33.152   7.185   3.955
63122W        W28283   0.053  11.158   1.784
63123W        W28284   6.264   4.963   2.367
63124W        W28285   6.154  37.064   1.319
63125W        W28286  35.860   9.463   2.221
63126W        W28287  36.023  21.720   3.720
63127W        W28288  12.903  28.973  14.406
63128W        W28289  22.740  26.903  14.468
63129W        W28290  44.365  22.215   2.277
63130W        W28291  21.542  38.950  11.705
63131W        W28292  25.041   2.938   2.000
63132W        W28293   6.456   6.842  14.591
63133W        W28294  36.388  43.746  14.973
63134W        W28295  28.470   9.307  13.686
63135W        W28296   1.473  11.102   0.267
63136W        W28297  34.488  36.277   4.726
63137W        W28298  31.229   6.099   0.770
63138W        W28299  10.593  25.553   4.185
63139W        W28300  14.142  15.859   3.158
63140W        W28301  43.849  10.864   0.795
63141W        W28302   5.603  25.465   0.347
63142W        W28303  13.350  29.972  12.926
63143W        W28304   3.334   5.723  12.111
63144W        W28305   5.415  14.190  11.399
63145W        W28306  30.172  31.040   2.309
63146W        W28307  25.639   0.565  11.617
63147W        W28308  40.241  11.595   1.852
63148W        W28309  44.821   9.779   4.358
63149W        W28310  23.269  20.663   5.226
63150W        W28311  12.479  10.843  14.948
63151W        W28312   5.494  15.331   1.309
63152W        W28313  17.259  42.330   2.296
63153W        W28314  36.763  25.578  13.488
63154W        W28315  25.211   5.928  11.177
63155W        W28316   9.605   7.334   2.655
63156W        W28317  27.986  35.406   3.171
63157W        W28318   2.861  21.121  11.993
63158W        W28319  32.842  30.527  14.259
63159W        W28320   5.860  37.521  14.489
63160W        W28321  30.597  12.364   2.680
63161W        W28322  15.717   0.840   0.092
63162W        W28323  43.046  44.010  13.949
63163W        W28324  40.981  36.414   2.700
63164W        W28325  34.000  14.180   4.680
63165W        W28326   9.630   8.613  11.105
63166W        W28327  20.580  31.640   2.785
63167W        W28328  42.898  24.485  13.888
63168W        W28329  24.099  39.315   1.866
63169W        W28330  16.703  10.902   1.714
63170W        W28331  22.567  24.982  13.504
63171W        W28332  22.963   0.714  14.855
63172W        W28333  41.080  14.166   2.182
63173W        W28334   3.393  42.960   3.600
63174W        W28335  14.461   5.021   9.982
63175W        W28336  40.809   9.115  13.059
63176W        W28337  27.292  37.494  12.582
63177W        W28338  25.237   3.837  11.504
63178W        W28339  40.902  43.008  10.627
63179W        W28340  23.692  12.618  10.939
63180W        W28341  40.199  16.400  13.882
63181W        W28342  12.738  29.956  11.272
63182W        W28343  39.551   1.317  11.993
63183W        W28344  22.553  41.116   0.408
63184W        W28345   9.464  30.119   0.386
63185W        W28346  13.808  16.469  11.218
63186W        W28347  25.885   9.269   0.868
63187W        W28348  33.683   8.778   4.491
63188W        W28349  13.402  32.079   4.097
63189W        W28350  37.009  18.081  14.256
63190W        W28351  29.015  36.837  12.307
63191W        W28352   8.860  13.078  11.163
63192W        W28353   7.127  28.071   1.700
63193W        W28354   1.253   6.354  11.121
63194W        W28355  25.291  14.249   4.450
63195W        W28356   8.225  29.578  14.377
63196W        W28357   5.881  41.207   0.489
63197W        W28358   1.717  18.082  12.408
63198W        W28359  12.273   6.491  13.886
63199W        W28360  29.404  42.069   0.010
63200W        W28361   6.003   4.583  14.709
63201W        W28362  17.777  18.680   3.795
63202W        W28363   9.724  14.620   0.224
63203W        W28364  33.924  11.756  14.380
63204W        W28365  34.574   3.508  11.038
63205W        W28366   2.815  17.098   0.869
63206W        W28367   6.179  18.672  14.754
63207W        W28368   0.961  12.422  12.764
63208W        W28369  12.489  18.966   3.326
63209W        W28370  37.633   1.877  14.435
63210W        W28371   1.381   3.423   2.691
63211W        W28372   6.705  30.485  11.682
63212W        W28373  10.427  19.475  10.656
63213W        W28374   1.029   1.717   3.360
63214W        W28375  26.979  33.505   1.046
63215W        W28376  32.789  26.659  12.471
63216W        W28377  27.902   7.684   4.163
63217W        W28378  38.587  29.587  12.987
63218W        W28379  30.465  29.509   1.591
63219W        W28380   4.418  14.824  11.159
63220W        W28381  27.057  24.204   0.316
63221W        W28382   3.738  25.260  12.049
63222W        W28383  36.889   2.309  12.072
63223W        W28384   2.787  26.028   4.289
63224W        W28385   1.850   5.917   3.162
63225W        W28386  10.447  41.520   4.551
63226W        W28387   8.685  30.686   2.237
63227W        W28388   5.294  28.847  14.267
63228W        W28389  18.590  20.050  14.388
63229W        W28390   5.444  26.691   2.843
63230W        W28391  32.961  35.166  11.652
63231W        W28392  22.987  39.297   0.741
63232W        W28393  16.491  22.916  13.805
63233W        W28394   7.533  24.493   3.258
63234W        W28395  32.397  31.866  11.587
63235W        W28396  26.791  24.001  13.924
63236W        W28397   4.436  25.079  11.695
63237W        W28398  17.808  18.163   2.490
63238W        W28399  32.602   4.972   1.259
63239W        W28400  37.014   5.725   0.830
63240W        W28401  25.643   6.481   1.326
63241W        W28402  43.754  32.896  14.972
63242W        W28403  13.386   6.827  10.618
63243W        W28404   2.868  13.792  10.799
63244W        W28405   8.291  17.959   0.311
63245W        W28406   8.666  19.181   1.247
63246W        W28407  36.641  22.105  12.766
63247W        W28408   6.487  41.238  12.939
63248W        W28409  21.148   0.644   1.255
63249W        W28410  36.096  17.903   0.239
63250W        W28411  34.239   1.894  11.774
63251W        W28412   1.542  24.623   1.738
63252W        W28413   1.435  23.013  10.545
63253W        W28414  28.078  40.002   1.769
63254W        W28415  32.387  15.622  14.181
63255W        W28416  16.554  16.770   3.727
63256W        W28417  16.089   6.652   0.412
63257W        W28418  14.513   0.967   3.683
63258W        W28419  30.193  35.159   1.839
63259W        W28420  44.659  25.435   1.857
63260W        W28421   5.065  20.627   3.680
63261W        W28422   3.745  31.291  13.084
63262W        W28423   7.692  17.046  10.889
63263W        W28424   4.324  41.466   4.565
63264W        W28425  37.016  18.230  13.765
63265W        W28426  35.934   8.074   4.694
63266W        W28427  23.249   7.064   1.906
63267W        W28428  22.600  14.710  13.847
63268W        W28429   1.815  41.081   3.917
63269W        W28430  20.785  44.493   0.922
63270W        W28431  30.636  35.558   3.311
63271W        W28432  29.952  12.608  13.316
63272W        W28433  28.058  42.830   4.034
63273W        W28434   2.705  28.625   3.262
63274W        W28435  23.467  41.874   3.709
63275W        W28436   2.060  39.947  11.165
63276W        W28437  36.778  36.168   3.341
63277W        W28438  18.090  26.614   2.345
63278W        W28439  30.173  36.002   4.130
63279W        W28440  20.618  38.536   4.339
63280W        W28441   6.127  26.122  13.288
63281W        W28442  32.654  28.413  12.549
63282W        W28443  33.340  29.988  10.712
63283W        W28444  19.018  33.550  12.445
63284W        W28445  28.132  43.283  10.637
63285W        W28446  34.945  18.674  13.895
63286W        W28447   3.103  18.706   2.740
63287W        W28448  24.817  38.995   0.310
63288W        W28449  15.679  22.782  11.575
63289W        W28450  27.079  12.610   2.742
63290W        W28451  11.124  16.709   2.732
63291W        W28452  19.084  40.099  14.267
63292W        W28453  40.368   4.944   4.632
63293W        W28454  25.432  26.671   3.756
63294W        W28455  22.933  35.753  14.563
63295W        W28456  18.966  29.846  11.087
63296W        W28457   4.395  43.822  14.185
63297W        W28458  43.537  13.299  13.807
63298W        W28459  33.928  34.842  10.200
63299W        W28460  14.168  13.773  13.426
63300W        W28461  11.265  43.390   2.950
63301W        W28462  17.357  11.876   4.874
63302W        W28463  10.719  22.198  13.075
63303W        W28464  32.344  11.375  10.479
63304W        W28465  19.231   5.455   2.584
63305W        W28466  38.381  30.443   4.799
63306W        W28467  32.979   6.398   0.865
63307W        W28468   9.636  20.289  13.518
63308W        W28469  34.429  31.770  10.163
63309W        W28470  24.154  24.068  14.543
63310W        W28471  39.428   9.438   1.261
63311W        W28472   2.321  43.753  12.472
63312W        W28473   8.000   6.217   2.080
63313W        W28474  24.074  33.708   1.565
63314W        W28475  42.806  44.985  12.797
63315W        W28476   9.117  22.700  11.935
63316W        W28477  15.117   8.716   0.744
63317W        W28478  27.618  10.551   2.207
63318W        W28479  27.304  24.128  13.894
63319W        W28480  33.543  20.984   4.176
63320W        W28481  14.643  24.608  14.281
63321W        W28482   3.283  44.535   1.896
63322W        W28483  24.042  18.559  12.845
63323W        W28484  43.949   6.362   2.640
63324W        W28485  31.476  21.209  11.703
63325W        W28486  16.108  20.173   3.105
63326W        W28487   7.178  37.062   1.214
63327W        W28488  37.828   3.237  11.996
63328W        W28489  34.106  27.919  14.319
63329W        W28490  24.233  42.905   3.262
63330W        W28491   1.012  25.755  12.396
63331W        W28492   4.327   4.716  13.418
63332W        W28493  28.967  40.822  11.697
63333W        W28494  13.633   4.713  11.125
63334W        W28495  13.849   0.955  12.099
63335W        W28496  10.819  25.463   1.928
63336W        W28497  12.763  11.946  13.517
63337W        W28498  31.616  28.561  11.551
63338W        W28499  39.961   6.744  10.757
63339W        W28500  29.945   9.715   4.121
63340W        W28501  22.600  18.639  10.176
63341W        W28502   1.958  36.032  10.442
63342W        W28503  33.873   4.862  12.705
63343W        W28504  13.115  44.461   4.672
63344W        W28505  12.931  10.875   3.722
63345W        W28506  25.071   4.425  12.445
63346W        W28507  19.024  33.352  10.518
63347W        W28508  32.867  29.123  11.142
63348W        W28509  21.195  10.274  13.566
63349W        W28510  22.011  21.104   3.230
63350W        W28511  29.525  38.336   3.142
63351W        W28512  32.380  10.681  11.698
63352W        W28513  10.925  32.374   3.510
63353W        W28514  29.566  40.063  11.542
63354W        W28515  44.918  34.445  14.470
63355W        W28516  16.184  28.392   2.673
63356W        W28517  13.320  39.575   1.312
63357W        W28518  28.655  15.312   2.386
63358W        W28519  23.158  15.156   1.569
63359W        W28520  11.582  34.556   3.724
63360W        W28521  18.480  36.094  13.834
63361W        W28522  39.377  28.682   0.699
63362W        W28523  13.887  21.118  14.229
63363W        W28524  32.124  28.457   1.828
63364W        W28525   6.316  17.255   4.611
63365W        W28526  19.159   5.133  10.565
63366W        W28527  17.761   0.933  10.718
63367W        W28528  21.722  12.703  14.720
63368W        W28529  37.470   7.381  14.281
63369W        W28530  30.553  22.567   3.666
63370W        W28531  32.968   9.242  14.484
63371W        W28532  30.531  44.235  14.008
63372W        W28533   7.801   2.835   4.683
63373W        W28534  29.657  31.072   2.409
63374W        W28535  20.712  35.571  14.903
63375W        W28536  12.563   0.407  13.530
63376W        W28537  43.359   2.730  10.640
63377W        W28538  10.184  34.472  11.298
63378W        W28539  20.356   0.877  12.024
63379W        W28540  22.873  28.187  14.983
63380W        W28541  35.381   6.265   3.284
63381W        W28542  12.575   2.976   0.761
63382W        W28543  20.088   2.283  10.486
63383W        W28544  24.616  33.654  14.244
63384W        W28545  18.510   7.279   1.487
63385W        W28546  24.015  39.303   0.859
63386W        W28547  15.087  29.050   0.260
63387W        W28548  22.538  18.118  11.366
63388W        W28549  21.186  40.552   1.659
63389W        W28550  18.744  15.197   0.187
63390W        W28551  12.343  27.794   0.890
63391W        W28552  21.141  36.063   0.538
63392W        W28553  41.393  32.209   1.035
63393W        W28554  31.388  12.839   2.166
63394W        W28555  14.299  42.195  13.847
63395W        W28556  36.872   2.533   3.259
63396W        W28557  38.045  20.352   0.970
63397W        W28558  20.822  23.715   3.770
63398W        W28559  39.086   2.486   0.847
63399W        W28560  43.324  28.920  13.392
63400W        W28561  43.049   7.148  12.452
63401W        W28562  24.993  22.115   0.078
63402W        W28563  31.142  29.439   0.843
63403W        W28564  19.070  16.092  12.007
63404W        W28565  10.037  43.568   3.566
63405W        W28566  39.351  44.013   1.350
63406W        W28567  30.173  15.098  12.027
63407W        W28568   8.820  34.016   0.894
63408W        W28569   0.080  10.617   0.422
63409W        W28570  26.471  26.657   3.686
63410W        W28571   7.846  25.099   1.819
63411W        W28572  33.169  27.907   4.072
63412W        W28573  16.285  33.551   1.581
63413W        W28574  40.468   3.454   3.801
63414W        W28575   8.368   7.256  14.519
63415W        W28576  30.075  40.583  11.077
63416W        W28577  18.715   7.088   0.424
63417W        W28578  16.751  30.764   0.681
63418W        W28579  11.776   5.823  13.828
63419W        W28580   1.839  34.329  14.229
63420W        W28581  35.889   7.834  11.647
63421W        W28582  35.404  21.352   0.367
63422W        W28583  38.445  41.439   4.960
63423W        W28584  30.538   6.331  12.905
63424W        W28585   7.146   5.482   2.743
63425W        W28586  13.802  34.192  13.252
63426W        W28587   4.811  12.621  14.850
63427W        W28588  10.747  39.452   4.611
63428W        W28589  11.338   8.675  10.642
63429W        W28590  25.971  43.299   2.743
63430W        W28591   5.624  28.100   0.992
63431W        W28592   8.844  38.871  13.411
63432W        W28593   8.392  20.656  10.822
63433W        W28594  19.501  13.621  10.604
63434W        W28595  18.736  27.178   1.263
63435W        W28596  36.809  24.194   4.621
63436W        W28597  14.105   3.434   4.626
63437W        W28598  24.605   4.308   4.329
63438W        W28599  39.777  18.228   2.683
63439W        W28600  16.785   0.249   2.716
63440W        W28601  39.695  28.946  12.822
63441W        W28602  27.824  35.150  11.635
63442W        W28603  18.847   9.416  12.666
63443W        W28604  11.709  40.540   0.795
63444W        W28605  17.051  44.545   2.395
63445W        W28606   3.868  23.604   0.183
63446W        W28607   0.135  23.366  14.707
63447W        W28608  31.557   6.541  12.506
63448W        W28609   4.656   8.171  11.918
63449W        W28610  33.363  34.787   3.824
63450W        W28611   9.703   2.375  10.729
63451W        W28612   1.477  33.090   3.566
63452W        W28613  22.276   1.081  12.630
63453W        W28614  34.544  30.043  11.328
63454W        W28615  33.363   6.638   2.597
63455W        W28616  21.468  37.917  14.851
63456W        W28617  17.093  27.071   0.023
63457W        W28618   3.276  22.651  14.911
63458W        W28619  27.422  28.145   1.054
63459W        W28620  31.866  41.415   4.469
63460W        W28621  28.136  26.108   2.196
63461W        W28622  35.079  15.557   2.291
63462W        W28623  43.405  14.086  14.070
63463W        W28624   3.502   2.742   2.234
63464W        W28625  13.252  11.086  12.448
63465W        W28626  23.074  19.848  14.698
63466W        W28627  35.356  13.533   0.768
63467W        W28628  43.981  21.990  10.511
63468W        W28629  20.475  26.711  13.809
63469W        W28630   7.352   6.941   1.306
63470W        W28631   7.460  44.170  13.377
63471W        W28632  27.305  38.111   5.115
63472W        W28633  16.407  34.592   0.856
63473W        W28634  26.080  14.157   0.964
63474W        W28635  12.434  33.388  14.753
63475W        W28636  18.754   1.391   2.121
63476W        W28637  25.254  36.539   1.320
63477W        W28638   0.918  21.332  11.040
63478W        W28639  30.211  34.157   4.024
63479W        W28640  21.582  22.478  12.655
63480W        W28641  31.045   9.232   2.136
63481W        W28642  38.532  28.579   0.351
63482W        W28643  34.442  40.907  13.555
63483W        W28644  27.685   7.396  10.675
63484W        W28645  42.756  11.256  14.568
63485W        W28646  11.673  11.258  14.560
63486W        W28647  23.500  17.239   0.060
63487W        W28648  42.561   1.936   0.288
63488W        W28649  17.963  33.630   4.363
63489W        W28650  44.106  42.024   1.094
63490W        W28651  22.862  24.893   1.594
63491W        W28652  42.480  12.658  13.072
63492W        W28653  19.356  29.161  11.507
63493W        W28654  40.673  35.905  11.961
63494W        W28655  40.434  17.604  13.068
63495W        W28656  33.637  27.054  12.352
63496W        W28657  29.481  12.654   4.278
63497W        W28658  39.378   8.252   0.318
63498W        W28659  27.574   8.923  10.701
63499W        W28660   9.371  17.806  12.903
63500W        W28661   4.771  18.483   4.110
63501W        W28662  30.244   4.803   4.813
63502W        W28663  15.110  38.654  14.689
63503W        W28664  34.866   1.260   2.121
63504W        W28665  10.611  25.227   4.600
63505W        W28666  11.260  44.424  11.162
63506W        W28667  44.688  32.347  13.321
63507W        W28668  31.412  35.881   2.324
63508W        W28669  34.038  41.798  11.153
63509W        W28670  32.108  23.147   0.036
63510W        W28671  41.042  29.619  11.963
63511W        W28672  43.812  16.129  13.804
63512W        W28673  13.017  14.587   4.077
63513W        W28674  34.368  34.537  14.229
63514W        W28675  23.479  22.460  14.936
63515W        W28676  29.385  41.136   3.685
63516W        W28677  15.875  16.972  13.109
63517W        W28678  33.522   1.481  14.926
63518W        W28679  40.371  15.749   3.205
63519W        W28680  15.558   0.412  10.780
63520W        W28681  21.437  10.519  11.586
63521W        W28682  18.120  22.482  11.995
63522W        W28683  11.874  34.470   4.148
63523W        W28684   9.232  33.652  10.176
63524W        W28685  26.258   4.335   1.855
63525W        W28686  13.048  16.731  12.982
63526W        W28687   4.852  29.173   4.104
63527W        W28688  32.795  44.018   2.001
63528W        W28689  43.093  34.591   1.807
63529W        W28690   8.638  41.948   2.460
63530W        W28691  44.796  39.838  14.412
63531W        W28692   1.935   1.224  13.903
63532W        W28693  15.039  38.104   1.174
63533W        W28694  11.144  18.079   3.770
63534W        W28695  42.532  21.819   3.199
63535W        W28696  10.310  18.757  13.996
63536W        W28697  11.281  37.500  14.727
63537W        W28698   9.628   6.599   1.340
63538W        W28699   7.541  26.743   3.129
63539W        W28700  29.920  33.580   4.632
63540W        W28701   7.941  23.192   2.323
63541W        W28702  33.010   4.939  13.380
63542W        W28703  16.220  37.113  13.342
63543W        W28704  16.663  27.931  11.326
63544W        W28705  13.535   3.569  10.264
63545W        W28706  14.764  43.015  12.404
63546W        W28707   6.983  42.311  10.689
63547W        W28708  10.220   5.240   4.680
63548W        W28709   8.897  33.762   3.956
63549W        W28710  18.259   2.845  13.554
63550W        W28711  16.090  38.113   4.785
63551W        W28712   2.265   6.801  11.571
63552W        W28713  13.175  25.151  13.505
63553W        W28714  39.172  20.787  13.621
63554W        W28715   9.596   4.342   4.550
63555W        W28716  22.739  10.846   4.742
63556W        W28717  19.480  39.361   2.251
63557W        W28718   8.604  29.051  13.377
63558W        W28719  11.885  39.467   0.410
63559W        W28720  32.116   8.471   2.467
63560W        W28721   1.748  40.465  13.427
63561W        W28722   0.814  16.615  10.640
63562W        W28723  21.520  37.900   1.855
63563W        W28724  30.962  31.969  11.373
63564W        W28725  28.488  41.566  12.484
63565W        W28726   2.978   0.796  11.075
63566W        W28727  29.346   6.167  13.493
63567W        W28728   6.726  17.886   4.513
63568W        W28729   2.373  16.127   3.203
63569W        W28730  10.148   5.252   1.464
63570W        W28731  28.563  40.946  12.030
63571W        W28732  34.648  40.934   1.427
63572W        W28733  32.525  36.020  11.480
63573W        W28734  43.655  35.592  12.638
63574W        W28735  22.094  36.533   1.971
63575W        W28736  35.438   1.658   0.350
63576W        W28737   1.608  16.144   4.965
63577W        W28738   6.929  10.799   1.630
63578W        W28739  19.100   0.738   1.889
63579W        W28740  32.993  41.477  14.730
63580W        W28741   3.794   9.600   2.388
63581W        W28742  13.623  31.108  11.049
63582W        W28743   9.340  43.959   3.245
63583W        W28744   5.038  10.697   3.955
63584W        W28745  18.566  19.387  14.820
63585W        W28746   1.941  24.289  13.764
63586W        W28747   2.115   8.014   3.585
63587W        W28748  23.465  35.267   1.776
63588W        W28749  31.393  39.998  14.359
63589W        W28750  25.888  41.406   0.921
63590W        W28751  13.858  24.020  12.429
63591W        W28752  28.862  33.960   0.290
63592W        W28753  24.450  25.942   4.987
63593W        W28754  21.703  11.305   2.692
63594W        W28755  44.853   5.492  13.837
63595W        W28756  30.449   8.234  14.021
63596W        W28757  38.876  21.754   3.296
63597W        W28758  12.272   2.830   4.064
63598W        W28759  10.356   3.342   4.570
63599W        W28760  26.979  24.053  10.655
63600W        W28761   8.038  24.655   3.336
63601W        W28762  38.579  35.103   2.245
63602W        W28763  27.335  35.749   0.884
63603W        W28764  18.617   6.455   1.189
63604W        W28765  10.751  41.503  10.647
63605W        W28766  10.823  18.104  14.851
63606W        W28767  30.589   4.913  12.532
63607W        W28768  20.656  44.541  11.608
63608W        W28769  18.672  32.328   0.540
63609W        W28770  42.030  23.191   0.772
63610W        W28771  11.853  39.974   2.686
63611W        W28772  29.524   5.307   2.183
63612W        W28773  11.316  21.604   4.299
63613W        W28774  38.575  14.560   1.356
63614W        W28775  19.969   5.473  13.444
63615W        W28776  10.751  23.756   1.333
63616W        W28777  11.088   3.754   2.889
63617W        W28778  26.649  12.395   1.453
63618W        W28779  10.286  26.943   0.473
63619W        W28780  32.990  13.675  12.995
63620W        W28781   9.277  28.300   5.048
63621W        W28782  38.418   6.747  13.955
63622W        W28783   8.714  16.153   2.025
63623W        W28784  27.523  32.612   4.137
63624W        W28785  24.029  36.441  14.482
63625W        W28786   2.711  34.710   1.143
63626W        W28787  11.422  33.067   1.651
63627W        W28788  42.317  33.880   1.823
63628W        W28789   3.125  43.341  12.351
63629W        W28790   8.795   6.700   4.713
63630W        W28791  12.003  11.728   0.810
63631W        W28792   1.276  18.425  11.980
63632W        W28793  25.987  30.417  14.703
63633W        W28794  22.187  26.117  10.740
63634W        W28795  28.497   5.891  11.868
63635W        W28796  34.551  27.602  14.810
63636W        W28797  22.379  26.682   3.593
63637W        W28798  34.578  35.094  12.306
63638W        W28799  17.378   9.810  13.066
63639W        W28800  23.646  14.125   3.984
63640W        W28801  44.032  39.957   0.710
63641W        W28802  15.590   7.685  11.971
63642W        W28803  24.736  12.827  14.884
63643W        W28804  37.144   6.663   3.879
63644W        W28805  35.038   7.423   9.863
63645W        W28806  29.891   1.391   0.510
63646W        W28807  38.469  23.139   4.592
63647W        W28808  38.526  34.375   0.922
63648W        W28809  20.242  17.077   2.022
63649W        W28810  36.888  42.800   1.717
63650W        W28811  24.992  17.028  12.017
63651W        W28812  44.539  35.537   2.409
63652W        W28813  36.895  10.604   0.964
63653W        W28814  29.457  37.143   0.575
63654W        W28815  29.926  31.147  12.176
63655W        W28816  16.837  39.461  14.196
63656W        W28817  28.979  16.977   3.138
63657W        W28818   6.793  12.573  11.666
63658W        W28819  19.472  28.578   1.741
63659W        W28820   9.220  10.884  11.082
63660W        W28821   0.488   1.451  11.445
63661W        W28822  39.805  21.498  13.995
63662W        W28823  17.248  28.512   1.825
63663W        W28824  15.011  34.137  12.933
63664W        W28825   8.471   0.667  13.794
63665W        W28826  24.414  23.630  14.581
63666W        W28827  20.260   4.381   1.474
63667W        W28828  11.664  30.186   3.303
63668W        W28829  22.361  32.638   1.696
63669W        W28830  37.543  12.949  10.601
63670W        W28831  16.057   9.414  12.012
63671W        W28832   6.658  39.401   4.630
63672W        W28833  11.766  29.008  11.049
63673W        W28834   5.639  25.878  10.771
63674W        W28835  18.037  39.772   0.722
63675W        W28836  25.184  18.873   3.277
63676W        W28837  29.048  16.743   0.298
63677W        W28838  13.838  38.243  13.889
63678W        W28839  16.520  26.663  10.930
63679W        W28840  27.062  15.827  12.592
63680W        W28841   7.847  20.541   1.215
63681W        W28842  19.575  42.913  14.900
63682W        W28843  16.827  37.144  11.003
63683W        W28844  25.063   8.918   0.889
63684W        W28845   7.329  44.584  10.991
63685W        W28846   9.531   6.443   2.254
63686W        W28847   9.665  38.918   1.541
63687W        W28848  14.056   2.199   2.792
63688W        W28849  14.390   8.855  13.922
63689W        W28850   1.332  22.268  12.160
63690W        W28851  23.139   9.606  12.662
63691W        W28852   4.867  38.456  14.078
63692W        W28853  37.977  20.021   0.281
63693W        W28854  16.679  10.819   0.909
63694W        W28855  36.852  21.656   4.357
63695W        W28856   6.306  32.417   1.349
63696W        W28857  13.239  16.332   3.297
63697W        W28858  34.967  21.010  11.213
63698W        W28859  23.128  12.639  10.971
63699W        W28860  35.179  38.141  12.880
63700W        W28861  44.656  29.685   0.938
63701W        W28862  24.084  35.095   3.397
63702W        W28863  25.954  29.465   4.522
63703W        W28864  20.566  15.709   5.591
63704W        W28865  40.928  33.599   2.695
63705W        W28866   2.745  23.285   2.167
63706W        W28867   7.552  19.544   4.100
63707W        W28868  38.945  21.945  12.983
63708W        W28869  33.080  19.611   4.817
63709W        W28870   9.930   3.442  13.489
63710W        W28871  40.807  18.612   2.194
63711W        W28872  24.564  37.543   4.523
63712W        W28873  26.498  13.760  13.778
63713W        W28874  28.125  35.788  10.571
63714W        W28875   5.342  43.988  13.808
63715W        W28876   2.717  15.062   4.614
63716W        W28877  30.598   6.381   0.818
63717W        W28878  24.282  18.770  14.877
63718W        W28879  34.077  42.611   1.836
63719W        W28880  30.923  25.469  11.462
63720W        W28881  10.904   0.737   2.221
63721W        W28882  23.523  24.760   4.148
63722W        W28883  22.202  29.003   1.509
63723W        W28884  32.207   7.077  14.845
63724W        W28885  37.881   0.905  12.450
63725W        W28886   5.361  43.609   0.300
63726W        W28887  28.510  32.324  13.438
63727W        W28888  11.685  22.834   2.897
63728W        W28889  29.109  39.046  11.989
63729W        W28890   4.938  21.133  13.939
63730W        W28891  25.193   6.779   1.804
63731W        W28892  35.919  13.034  11.076
63732W        W28893  35.526   4.225  12.335
63733W        W28894  26.734  28.486   0.955
63734W        W28895  31.976  21.709  13.258
63735W        W28896   9.614   9.377  12.418
63736W        W28897   2.322  17.339   0.112
63737W        W28898   4.485  20.724   2.214
63738W        W28899  42.133  31.820  13.022
63739W        W28900   1.350   7.660   0.102
63740W        W28901  34.950  43.311  12.661
63741W        W28902  44.223  42.440  12.003
63742W        W28903  39.926  33.328  11.024
63743W        W28904  34.454  22.734   4.096
63744W        W28905  27.938   1.556   2.129
63745W        W28906  11.075  43.309  12.424
63746W        W28907  28.273  18.593   2.758
63747W        W28908   8.230  36.542   0.728
63748W        W28909  28.237  42.310   5.175
63749W        W28910  11.075  43.659  14.090
63750W        W28911  26.042  18.018   2.807
63751W        W28912   9.221  18.720   3.127
63752W        W28913  26.723  26.955   4.118
63753W        W28914   7.121  30.581   9.695
63754W        W28915  10.830   0.418  12.031
63755W        W28916  10.439  31.869  13.893
63756W        W28917   8.295  44.153   4.610
63757W        W28918  43.250  27.818  11.949
63758W        W28919  37.020  16.302   1.398
63759W        W28920   8.630  29.154   1.229
63760W        W28921  23.915  28.715  14.452
63761W        W28922  20.053  22.208   9.413
63762W        W28923  42.031  31.081  10.615
63763W        W28924  42.992   7.839  10.994
63764W        W28925   1.384  32.084  12.889
63765W        W28926  25.816  35.089  14.301
63766W        W28927  11.497  14.979   0.449
63767W        W28928   2.204  16.925   3.621
63768W        W28929  35.122  31.427   2.345
63769W        W28930  38.567  36.802  14.775
63770W        W28931  21.643   3.810  12.964
63771W        W28932  10.185  24.794   3.695
63772W        W28933  20.868  16.159  14.339
63773W        W28934  39.954   9.586  12.713
63774W        W28935  43.285  22.609  12.570
63775W        W28936  21.989  10.863   4.131
63776W        W28937  23.078   3.065  14.400
63777W        W28938  33.737  32.509   3.160
63778W        W28939   7.487  14.162  14.663
63779W        W28940  32.602   0.335   0.481
63780W        W28941  35.085  15.528  14.948
63781W        W28942  27.082  16.906  13.951
63782W        W28943   2.606  11.178  11.912
63783W        W28944  30.961  27.651   1.509
63784W        W28945  37.527  22.919   4.292
63785W        W28946   4.624  33.396   3.274
63786W        W28947  41.456  17.210   0.898
63787W        W28948  31.168  16.860   4.237
63788W        W28949   3.503  22.586   3.580
63789W        W28950  34.929  41.680  14.535
63790W        W28951  24.800  21.255  14.869
63791W        W28952   0.840  19.046  12.524
63792W        W28953  38.048  12.789   1.648
63793W        W28954  32.821  17.101   3.601
63794W        W28955  11.799  25.467  11.952
63795W        W28956  42.821  12.859  11.165
63796W        W28957  40.511  43.325   0.209
63797W        W28958  35.816  19.786  12.939
63798W        W28959  23.308  15.177   0.070
63799W        W28960   7.683  34.885   2.739
63800W        W28961  36.401  38.031  11.023
63801W        W28962  21.655  37.090   1.263
63802W        W28963  35.122  42.975  11.231
63803W        W28964  13.812  31.312   1.098
63804W        W28965  21.409  22.862   1.785
63805W        W28966  30.890  20.178   3.331
63806W        W28967  33.208  41.507   0.195
63807W        W28968   2.924  17.659   3.577
63808W        W28969  41.353   4.451  13.786
63809W        W28970   1.531  24.107  12.952
63810W        W28971  39.359   5.239   3.187
63811W        W28972   3.130  10.261   4.164
63812W        W28973  43.729  19.110  12.885
63813W        W28974  16.734  21.968  14.726
63814W        W28975  20.717  30.294  12.520
63815W        W28976   2.320  15.873   4.543
63816W        W28977  17.039  20.102   5.016
63817W        W28978  15.157  44.442  10.725
63818W        W28979  14.031   6.697   2.739
63819W        W28980  39.793   8.648  14.237
63820W        W28981  20.284  31.923   9.899
63821W        W28982  15.753  12.894  13.566
63822W        W28983  32.119   6.932   0.439
63823W        W28984  40.839  18.924   4.601
63824W        W28985  36.101   7.720   2.805
63825W        W28986   2.479   3.845   3.103
63826W        W28987   4.546  20.336   4.096
63827W        W28988  26.953   1.409   0.865
63828W        W28989   7.728  20.700   0.197
63829W        W28990   8.177  12.494  11.980
63830W        W28991  16.300  14.273  13.760
63831W        W28992  36.797  16.125  11.999
63832W        W28993  11.309  43.272  10.680
63833W        W28994   2.744  25.003   0.043
63834W        W28995   3.836  22.900  14.142
63835W        W28996   4.354  12.740  12.027
63836W        W28997  16.806   0.924  14.189
63837W        W28998  18.015  38.161  14.488
63838W        W28999   7.905   7.138   4.946
63839W        W29000  34.821   3.229  11.682
63840W        W29001  36.625  18.504  10.785
63841W        W29002  38.551   2.123   4.465
63842W        W29003   3.659  37.357   3.853
63843W        W29004  26.909   0.793  13.562
63844W        W29005  34.167  42.505   0.079
63845W        W29006  40.968   5.302   3.339
63846W        W29007   5.350  15.678  12.000
63847W        W29008   3.447  42.495  10.766
63848W        W29009  16.851  10.207   2.288
63849W        W29010   7.245  26.480   0.295
63850W        W29011  31.798  33.202  10.483
63851W        W29012  18.266   5.829  14.926
63852W        W29013  43.077  40.253  12.013
63853W        W29014  30.447  33.869   4.408
63854W        W29015  21.300  30.541  14.973
63855W        W29016   1.406  36.820   0.378
63856W        W29017  21.735  27.266   1.393
63857W        W29018  43.793  14.336  11.146
63858W        W29019   8.580  20.299  10.435
63859W        W29020  39.946  42.461   3.959
63860W        W29021  42.109  11.276  10.831
63861W        W29022  43.887   5.465  13.352
63862W        W29023  20.250   4.518   4.195
63863W        W29024  36.524  18.633   2.252
63864W        W29025  34.502   7.444  13.902
63865W        W29026  36.871   6.337   1.671
63866W        W29027  25.020  29.964  13.384
63867W        W29028   9.017  41.686   0.885
63868W        W29029  35.170  37.338   1.124
63869W        W29030  18.302   9.151  11.545
63870W        W29031  32.984  44.212  12.562
63871W        W29032  31.122  29.748  13.396
63872W        W29033  11.660   5.618   0.348
63873W        W29034  10.752  10.408  12.568
63874W        W29035   4.710  24.226   1.206
63875W        W29036  15.670  24.735   0.954
63876W        W29037  13.043  42.919   5.056
63877W        W29038  17.949  29.939   2.389
63878W        W29039  36.479  18.093   0.548
63879W        W29040  26.901  42.883  13.170
63880W        W29041  30.538  22.764  13.941
63881W        W29042   0.676   5.375  13.748
63882W        W29043  22.501   6.851   3.364
63883W        W29044  25.169  39.774   1.756
63884W        W29045  23.507  27.745  12.203
63885W        W29046   8.668  28.118  14.755
63886W        W29047  15.379  30.171  11.128
63887W        W29048  16.221  44.043   3.223
63888W        W29049   5.395   8.844  14.866
63889W        W29050  17.770  18.048   1.139
63890W        W29051  39.369  13.133  13.976
63891W        W29052  43.711  32.939  11.802
63892W        W29053  42.964   0.233  11.097
63893W        W29054  39.438  22.130  12.899
63894W        W29055   4.370  21.202   3.658
63895W        W29056  21.259  25.913  13.020
63896W        W29057  40.254  32.052  12.929
63897W        W29058  43.911  29.402   3.608
63898W        W29059  28.964  37.556  13.024
63899W        W29060  22.008  33.452  13.385
63900W        W29061  16.113  11.523   4.310
63901W        W29062   6.378  40.848   1.186
63902W        W29063  17.266  22.495  11.606
63903W        W29064  31.776  23.109   3.385
63904W        W29065   5.467  20.660  12.764
63905W        W29066  33.471  25.666  10.909
63906W        W29067  42.617   5.435  11.060
63907W        W29068  44.975  14.170  10.417
63908W        W29069   1.712  40.025   2.394
63909W        W29070  34.345  37.082  14.307
63910W        W29071  21.620  34.000  11.666
63911W        W29072  26.257  35.516   4.904
63912W        W29073   6.814  23.409   0.985
63913W        W29074  26.175  25.694  12.064
63914W        W29075  23.030  34.675  10.987
63915W        W29076  36.010  35.022   4.352
63916W        W29077  29.106   8.855  13.384
63917W        W29078  15.252  23.244  12.620
63918W        W29079  27.206  35.105  14.275
63919W        W29080  37.367  39.765  13.791
63920W        W29081  20.701  23.470  13.771
63921W        W29082  28.663  11.605   3.646
63922W        W29083  20.037  25.064   1.831
63923W        W29084  17.553   1.134   1.850
63924W        W29085  28.386   1.283  13.567
63925W        W29086  44.063   7.274   0.313
63926W        W29087  19.628  29.038  12.045
63927W        W29088   8.783  27.940   0.818
63928W        W29089  39.077  44.897  11.127
63929W        W29090  41.589  39.602   4.614
63930W        W29091  29.552  33.006   1.433
63931W        W29092  10.441  44.753   4.055
63932W        W29093  43.900  15.757   0.715
63933W        W29094  26.438   0.434   0.802
63934W        W29095  27.083  16.749  14.490
63935W        W29096  23.728  38.948   2.464
63936W        W29097   7.838  32.668   0.897
63937W        W29098  40.268  40.294  14.311
63938W        W29099   2.755  11.465   3.713
63939W        W29100  22.579  28.607   0.040
63940W        W29101  29.410  26.577  10.663
63941W        W29102  22.251  38.593   4.112
63942W        W29103  25.223  39.254   1.367
63943W        W29104  17.504  10.781  14.843
63944W        W29105  34.138  32.640  14.099
63945W        W29106  29.478  21.083  10.325
63946W        W29107   3.756  13.788  11.623
63947W        W29108  37.085  11.302   2.681
63948W        W29109  14.635  29.701  12.810
63949W        W29110  24.685  20.274   3.576
63950W        W29111  30.614  24.404   4.394
63951W        W29112   3.998  14.717   4.213
63952W        W29113  20.943  25.143  11.226
63953W        W29114  24.031  14.635  14.970
63954W        W29115  16.610  43.949   1.704
63955W        W29116  25.381  29.248  10.786
63956W        W29117  30.933  40.244  12.949
63957W        W29118  41.825   4.714  13.522
63958W        W29119  20.274  38.359  14.756
63959W        W29120  10.903  31.977  11.695
63960W        W29121  34.116  18.637  12.969
63961W        W29122  23.666  32.840   2.773
63962W        W29123   0.606  29.519  12.486
63963W        W29124  24.459  33.969   1.040
63964W        W29125  41.754   3.416   1.816
63965W        W29126  37.095   3.262   0.166
63966W        W29127  37.692  28.434   0.937
63967W        W29128   3.938  33.382  12.921
63968W        W29129  19.596   0.442   4.194
63969W        W29130   7.052   9.090  12.060
63970W        W29131  39.347  42.770   5.106
63971W        W29132  30.692  35.812  14.598
63972W        W29133  15.367  44.651  11.206
63973W        W29134  33.480  43.130   0.844
63974W        W29135  30.430  21.329   4.002
63975W        W29136  21.783  10.645   4.586
63976W        W29137  31.164  32.935  13.410
63977W        W29138  18.444  19.285  10.756
63978W        W29139  17.160  35.005  13.326
63979W        W29140   6.444  36.479  14.442
63980W        W29141  26.735  12.768   4.675
63981W        W29142  22.092   2.934   1.804
63982W        W29143  10.134  19.316   1.761
63983W        W29144   5.745   8.734   2.901
63984W        W29145  11.692   5.832  14.341
63985W        W29146  18.597  20.447   4.239
63986W        W29147  42.319  43.457  14.252
63987W        W29148  33.518  44.838  11.729
63988W        W29149  13.238  24.676  14.404
63989W        W29150  37.157  24.574   3.694
63990W        W29151   5.255  11.831  12.382
63991W        W29152   3.904  13.149  14.931
63992W        W29153  27.327  16.658   1.066
63993W        W29154  14.685  30.499   2.850
63994W        W29155  13.227  26.814  10.954
63995W        W29156   6.753  23.912  13.136
63996W        W29157  28.639   0.042   3.623
63997W        W29158   5.743  21.216  10.167
63998W        W29159  22.010  16.000   0.371
63999W        W29160  21.077  10.817  10.657
64000W        W29161  32.630   7.875  10.808
64001W        W29162  24.441  17.200   4.243
64002W        W29163  42.580  23.035   3.548
64003W        W29164  27.996  24.217   3.621
64004W        W29165  40.015  38.034  10.718
64005W        W29166  41.885  24.782  14.760
64006W        W29167  43.944   7.673  13.453
64007W        W29168  33.448  12.275  11.550
64008W        W29169   4.372   3.442  14.918
64009W        W29170  40.274   1.598  11.737
64010W        W29171   5.081  25.480  13.168
64011W        W29172   2.190  30.058  12.931
64012W        W29173  21.729  36.572   1.266
64013W        W29174  30.252  42.874   0.037
64014W        W29175  35.014  14.218   3.394
64015W        W29176  29.525  39.783  11.064
64016W        W29177  28.236  18.670   4.143
64017W        W29178  32.668  11.234  14.198
64018W        W29179  16.057  23.364   1.572
64019W        W29180  22.715  12.787   1.595
64020W        W29181   4.399   3.962  14.002
64021W        W29182   7.140  21.564   2.143
64022W        W29183   9.222  27.058  14.366
64023W        W29184  12.805  43.738   3.268
64024W        W29185   2.295   8.875  14.865
64025W        W29186  31.907   0.347  11.095
64026W        W29187  34.395  14.251  11.164
64027W        W29188  20.033  34.223  11.097
64028W        W29189  35.760   4.321  11.019
64029W        W29190  42.463   0.391  14.595
64030W        W29191   7.285  25.613   2.254
64031W        W29192   4.904  21.604   2.491
64032W        W29193  13.212  28.336   3.363
64033W        W29194  29.936   2.391   1.325
64034W        W29195  37.842   9.229   4.086
64035W        W29196  34.526  33.429   4.327
64036W        W29197  39.821   0.023   1.842
64037W        W29198   3.851  43.382  12.464
64038W        W29199  42.737  38.063  11.706
64039W        W29200   3.519  15.094   2.368
64040W        W29201  14.313  41.023  12.991
64041W        W29202  25.918   1.448   1.893
64042W        W29203  37.161  34.860   4.201
64043W        W29204   4.955   3.981   0.118
64044W        W29205  43.957  21.606   4.167
64045W        W29206  11.617  25.115   4.803
64046W        W29207  30.908   4.452   3.636
64047W        W29208  34.439  11.529   4.108
64048W        W29209  43.358  41.278  13.052
64049W        W29210  41.875  34.181   0.888
64050W        W29211  11.145  23.731  11.169
64051W        W29212  29.571   8.541   2.245
64052W        W29213  11.372  43.041   2.146
64053W        W29214   3.268   4.972   2.285
64054W        W29215  19.271  23.200  11.957
64055W        W29216  25.533  16.341  12.405
64056W        W29217  12.244  12.761   4.907
64057W        W29218  43.166  32.000  10.598
64058W        W29219   1.034   2.939   3.617
64059W        W29220  32.675  40.171  14.320
64060W        W29221  11.723  12.539  11.886
64061W        W29222  17.463  16.377  12.001
64062W        W29223  44.807  28.245   1.762
64063W        W29224   3.995  29.064   0.692
64064W        W29225  19.672  33.639  12.887
64065W        W29226  31.109  31.254  14.386
64066W        W29227   9.395  14.383  12.038
64067W        W29228  29.536  20.102   3.794
64068W        W29229  18.700  22.176  12.362
64069W        W29230   6.488  32.537   2.850
64070W        W29231  26.963   2.849  12.121
64071W        W29232  38.402  33.989   1.274
64072W        W29233  20.209  40.626   1.765
64073W        W29234  19.995  21.457   0.355
64074W        W29235  31.059  10.620  11.262
64075W        W29236  24.627  36.535   2.661
64076W        W29237  21.329  28.679  10.658
64077W        W29238  18.607  31.321   1.469
64078W        W29239   7.929  13.635   3.677
64079W        W29240  20.162  39.949  13.981
64080W        W29241   3.045  31.575  13.320
64081W        W29242  31.427  37.853   2.353
64082W        W29243  28.149  15.782   3.723
64083W        W29244   4.688  31.175   0.829
64084W        W29245   9.684  16.710   0.150
64085W        W29246  16.490   7.413   1.837
64086W        W29247  13.661  15.538   3.857
64087W        W29248  31.529  15.232   0.018
64088W        W29249   2.244   0.480  12.821
64089W        W29250  43.356  44.742  13.425
64090W        W29251   2.344   0.021  13.667
64091W        W29252  39.750  16.370   3.159
64092W        W29253  13.297   9.281   0.862
64093W        W29254  34.189  25.100  11.503
64094W        W29255  34.083  30.033   4.151
64095W        W29256  27.650  30.766  10.618
64096W        W29257   1.410  11.725  11.094
64097W        W29258  36.735  40.827  11.183
64098W        W29259  38.451  40.601   3.778
64099W        W29260   5.012  18.265   3.654
64100W        W29261   4.410  37.481   2.794
64101W        W29262  44.702  19.760  10.870
64102W        W29263  10.754  19.579  13.918
64103W        W29264  19.988  24.151  13.281
64104W        W29265  41.392  16.632   2.600
64105W        W29266  27.660  18.052   2.404
64106W        W29267   9.585  26.280   0.296
64107W        W29268  31.546  11.099   2.738
64108W        W29269  23.433  30.822  13.560
64109W        W29270  35.543   3.999  11.847
64110W        W29271  37.586  19.062   3.270
64111W        W29272   3.834   4.733  13.552
64112W        W29273  35.875  42.857  12.572
64113W        W29274  13.665  31.925   3.448
64114W        W29275  24.435  43.404   4.281
64115W        W29276  28.175   6.275   2.255
64116W        W29277   3.282  32.859  14.462
64117W        W29278  20.966   5.054   2.692
64118W        W29279   5.644  21.281   0.230
64119W        W29280   4.221  23.233   5.233
64120W        W29281   8.723  41.517   3.371
64121W        W29282  31.504  15.622   2.331
64122W        W29283  32.505  17.275  11.203
64123W        W29284  11.700   9.091   1.183
64124W        W29285  43.693   6.319   1.666
64125W        W29286  42.365  39.336   0.900
64126W        W29287   8.945  37.605  12.825
64127W        W29288  27.058  12.751   1.002
64128W        W29289   0.432  22.376  14.662
64129W        W29290  17.738  14.522   2.709
64130W        W29291   7.669   6.670  12.898
64131W        W29292  27.168  23.791   9.708
64132W        W29293  31.910  10.182  13.952
64133W        W29294   3.795  40.605  14.927
64134W        W29295   1.135  17.205  12.964
64135W        W29296  12.505   6.807   4.026
64136W        W29297  35.554   2.915  11.680
64137W        W29298  25.065   3.196   1.279
64138W        W29299  40.648  44.331   2.088
64139W        W29300   4.400  16.544   3.276
64140W        W29301  41.443   1.964   4.922
64141W        W29302  21.765  39.663   4.380
64142W        W29303  37.363   7.649   1.837
64143W        W29304   6.281  38.606  11.597
64144W        W29305   0.615  23.243   2.387
64145W        W29306  37.595  39.941  10.494
64146W        W29307  19.368  20.256   2.813
64147W        W29308  44.419  41.039  13.318
64148W        W29309  24.983  40.889   0.971
64149W        W29310  26.418   8.405   0.945
64150W        W29311   5.625   4.085   1.026
64151W        W29312  19.259   5.145   3.270
64152W        W29313   4.953  14.621   3.759
64153W        W29314   0.358   8.763  13.851
64154W        W29315  19.976  35.157   2.219
64155W        W29316  12.415  28.095  12.004
64156W        W29317   0.187  10.201   2.745
64157W        W29318  32.187  31.466   1.902
64158W        W29319  33.000   3.796   4.312
64159W        W29320   9.112  34.297   4.884
64160W        W29321  21.467  28.819  11.952
64161W        W29322  24.276  32.416  14.184
64162W        W29323  27.511  40.367   3.170
64163W        W29324   4.290  20.151   4.586
64164W        W29325  26.428  26.989  11.006
64165W        W29326  33.407  18.870  14.852
64166W        W29327  44.982  15.264  12.535
64167W        W29328  15.171  20.228  11.725
64168W        W29329  31.866   3.365   0.334
64169W        W29330  32.558  43.546  11.255
64170W        W29331   9.339  40.912   2.079
64171W        W29332  10.627  10.984   2.410
64172W        W29333  26.457   6.389  14.798
64173W        W29334  29.671   1.214  13.588
64174W        W29335  11.767  44.912   3.844
64175W        W29336   4.669  39.744   4.299
64176W        W29337  11.921  11.241   2.645
64177W        W29338  42.371  26.213   0.986
64178W        W29339  18.306  35.090   0.778
64179W        W29340  12.111  32.920   3.629
64180W        W29341  15.307   0.791  14.765
64181W        W29342  38.493  31.144   2.425
64182W        W29343  16.740  22.471   1.450
64183W        W29344  40.390  21.061   4.526
64184W        W29345  37.695  42.067   0.045
64185W        W29346  26.548   1.193  12.472
64186W        W29347  36.050  21.141   2.417
64187W        W29348  23.853  38.474  13.487
64188W        W29349  35.942  16.827   3.712
64189W        W29350  23.781  16.299   2.224
64190W        W29351  22.794  13.480   0.977
64191W        W29352  27.521  20.975   1.399
64192W        W29353   3.803   0.959  14.543
64193W        W29354   2.688  39.048   2.217
64194W        W29355  41.713  31.030   0.280
64195W        W29356   9.119  10.650   4.479
64196W        W29357   0.486  15.683  11.393
64197W        W29358  27.703  28.723  13.842
64198W        W29359   6.571   0.374   0.238
64199W        W29360  17.648  20.055   2.071
64200W        W29361  11.587  32.942  13.825
64201W        W29362  22.964   3.138   1.475
64202W        W29363  11.137  38.865   1.365
64203W        W29364  40.933  21.051  10.681
64204W        W29365  43.421  34.698   5.503
64205W        W29366  41.021  26.477   0.171
64206W        W29367  18.482   2.427  12.425
64207W        W29368  18.868  33.483   4.752
64208W        W29369  30.488   7.774  13.128
64209W        W29370  14.600  33.573  11.449
64210W        W29371  36.163  24.494  11.023
64211W        W29372  25.187  42.930   0.499
64212W        W29373   1.288   7.001  14.446
64213W        W29374  24.040  33.054  12.553
64214W        W29375  11.421  28.164   2.808
64215W        W29376  25.730   3.710  11.455
64216W        W29377  23.604  44.461  12.862
64217W        W29378   7.727  38.956   5.122
64218W        W29379  23.289  21.098  14.832
64219W        W29380   3.952   9.878   4.148
64220W        W29381  27.545   8.592   0.429
64221W        W29382  10.053  12.839   4.310
64222W        W29383  13.347  20.689   1.042
64223W        W29384   0.901  20.549  11.633
64224W        W29385  19.434  33.845  12.428
64225W        W29386  20.007  17.894   4.907
64226W        W29387  15.401  39.044  14.434
64227W        W29388   6.239  17.458   0.482
64228W        W29389  43.833   6.861   1.260
64229W        W29390  40.091  30.004   1.758
64230W        W29391  24.480  43.743  12.032
64231W        W29392  44.803   2.320   3.232
64232W        W29393  14.230  39.877   3.941
64233W        W29394  41.531   4.655  12.476
64234W        W29395  43.229  33.386   3.709
64235W        W29396  33.384  10.577   2.215
64236W        W29397  27.600   3.034  12.955
64237W        W29398  31.073  36.078  10.648
64238W        W29399  26.415   5.452   1.215
64239W        W29400  19.060  32.577   4.293
64240W        W29401  39.392  41.870   4.120
64241W        W29402  18.503  33.767  13.342
64242W        W29403  33.365  20.452  14.467
64243W        W29404  24.416  34.790   1.867
64244W        W29405   5.961  21.125   5.286
64245W        W29406  40.802  43.498   1.510
64246W        W29407  17.728  18.443  13.818
64247W        W29408   1.019   0.299   0.890
64248W        W29409  25.212  35.292  12.970
64249W        W29410  41.055   1.978  13.269
64250W        W29411  43.106   7.355  10.809
64251W        W29412  28.303   3.318   2.235
64252W        W29413  10.403  22.631  11.618
64253W        W29414  28.447  23.972  10.192
64254W        W29415  38.824  43.922  12.971
64255W        W29416  19.702  20.142  12.953
64256W        W29417  40.600   5.892   2.234
64257W        W29418  26.543  35.336   3.233
64258W        W29419   1.946  39.848  12.046
64259W        W29420   3.410  12.110   3.784
64260W        W29421  28.073  34.376   1.142
64261W        W29422  36.763  38.370  11.524
64262W        W29423   6.046  14.695  14.842
64263W        W29424  33.889  15.514   0.364
64264W        W29425  20.793   8.825  11.983
64265W        W29426  26.473   4.798   3.163
64266W        W29427   2.357  45.000  13.073
64267W        W29428  22.290  40.556   2.925
64268W        W29429  40.807  20.774   1.477
64269W        W29430   2.396   5.085   1.486
64270W        W29431  11.221  14.449   4.711
64271W        W29432  41.974  32.071  12.260
64272W        W29433  24.153  19.037   1.225
64273W        W29434  31.326   5.328   2.605
64274W        W29435  44.847  16.128   1.730
64275W        W29436   5.235   4.403  10.774
64276W        W29437   4.752  33.157  13.178
64277W        W29438  12.174  37.267   0.182
64278W        W29439   1.250   8.671   1.367
64279W        W29440  39.366  41.585  14.947
64280W        W29441  26.031   8.775   4.613
64281W        W29442  30.814  13.058  12.140
64282W        W29443   3.789  17.662   3.253
64283W        W29444  17.292  26.241  11.032
64284W        W29445  20.740  37.673  11.309
64285W        W29446   9.879  24.251   1.048
64286W        W29447  36.612  32.883  10.691
64287W        W29448  27.706  19.064  11.553
64288W        W29449  28.744   1.430  11.057
64289W        W29450  40.004  13.659  14.488
64290W        W29451  12.007  18.819   2.601
64291W        W29452  20.106  12.776  13.816
64292W        W29453  20.809  30.661   0.797
64293W        W29454  40.441  40.761  13.590
64294W        W29455  31.558   6.184   0.368
64295W        W29456  29.998  21.586   4.014
64296W        W29457  27.829  26.492  13.844
64297W        W29458  16.772  35.572  10.782
64298W        W29459  44.920  19.683   4.543
64299W        W29460  11.638  25.455   4.196
64300W        W29461   1.820  14.628   3.657
64301W        W29462  22.704  12.903   0.264
64302W        W29463  35.815   7.523   5.061
64303W        W29464  44.774   3.672  10.816
64304W        W29465  37.259  42.570   4.606
64305W        W29466  10.379  40.860   1.888
64306W        W29467   6.139  34.828  12.919
64307W        W29468   4.110  11.421   0.885
64308W        W29469  39.333  29.460  13.417
64309W        W29470  27.173   4.712  13.344
64310W        W29471  35.065  39.798  13.377
64311W        W29472  19.135   1.221   3.392
64312W        W29473  12.866  32.911  14.426
64313W        W29474  10.373  14.090   2.770
64314W        W29475  10.520  26.115  13.459
64315W        W29476  13.394  21.555   1.376
64316W        W29477   4.341   8.859  12.462
64317W        W29478  33.877  39.784  12.073
64318W        W29479  38.763  19.854   4.246
64319W        W29480  11.185  15.662  10.969
64320W        W29481  34.654  23.761   2.834
64321W        W29482  42.531  13.018   0.479
64322W        W29483  40.135  34.537   2.476
64323W        W29484   7.989  39.997  12.215
64324W        W29485   4.661  35.369   5.031
64325W        W29486   1.279   9.942   3.510
64326W        W29487  19.546  25.280   3.203
64327W        W29488  18.324  32.007   3.081
64328W        W29489  14.187  18.871  13.911
64329W        W29490  43.717   7.095  12.245
64330W        W29491   6.785  20.996   1.810
64331W        W29492  34.331   8.746   3.687
64332W        W29493  19.518  17.002  14.366
64333W        W29494  11.221   5.685   4.741
64334W        W29495  43.468  38.111   1.627
64335W        W29496  33.782  44.358   4.861
64336W        W29497  33.421   8.361   4.640
64337W        W29498  21.602  43.756   2.670
64338W        W29499  38.638  41.760  14.669
64339W        W29500  29.697  38.320  14.827
64340W        W29501  14.011  39.435   0.498
64341W        W29502   0.313  40.528  13.033
64342W        W29503   8.936  15.005  13.976
64343W        W29504  13.444  43.211  11.321
64344W        W29505  28.397   7.455  14.296
64345W        W29506   4.949  34.977   5.244
64346W        W29507  33.335  14.766   1.290
64347W        W29508  31.382  35.797  12.895
64348W        W29509  39.104  20.247  11.114
64349W        W29510  43.022  40.009  11.561
64350W        W29511  22.153  38.650   4.979
64351W        W29512  13.795  31.478  14.032
64352W        W29513  42.543  37.639  10.679
64353W        W29514  26.561  39.053   1.672
64354W        W29515   3.090  21.529  10.600
64355W        W29516  18.361   4.211  11.148
64356W        W29517  10.265   2.881  13.097
64357W        W29518  25.034  22.682   1.811
64358W        W29519  17.207  17.726  13.323
64359W        W29520   2.762  43.655   2.194
64360W        W29521   5.212  28.928  13.305
64361W        W29522  25.604   4.771  12.835
64362W        W29523  22.757  37.412  12.106
64363W        W29524  10.865  24.094  13.787
64364W        W29525  35.636  36.183  11.089
64365W        W29526  23.118  26.725   0.321
64366W        W29527  12.612  32.917  14.874
64367W        W29528   3.114  37.740   4.536
64368W        W29529  34.846   2.753  12.930
64369W        W29530   0.274  23.017  12.528
64370W        W29531  16.687  30.247   3.270
64371W        W29532  43.253  33.664  13.808
64372W        W29533  36.094  42.765   2.462
64373W        W29534  29.422  10.202   2.861
64374W        W29535  21.184  32.935   2.766
64375W        W29536  25.536   2.482  12.211
64376W        W29537  24.973  20.766   0.580
64377W        W29538  23.120   1.676   1.111
64378W        W29539  44.308  28.205  10.761
64379W        W29540  10.284   1.269  10.394
64380W        W29541  33.152  18.836   3.912
64381W        W29542  20.781  29.015   4.755
64382W        W29543  36.299  30.678  11.310
64383W        W29544  11.247  20.763   0.321
64384W        W29545  13.387  27.854  12.076
64385W        W29546  26.947   5.927   3.639
64386W        W29547  33.039  33.368  10.610
64387W        W29548  24.441  10.904   0.825
64388W        W29549  11.678  26.973  12.940
64389W        W29550  10.235  27.926  13.876
64390W        W29551  29.462  38.648   5.013
64391W        W29552  13.799  26.655   1.763
64392W        W29553  10.298   8.439  14.507
64393W        W29554  43.039   4.778  11.581
64394W        W29555  29.094  41.775   0.807
64395W        W29556  11.537  17.091   0.503
64396W        W29557  42.546  18.206  11.723
64397W        W29558  21.814  41.324   1.246
64398W        W29559  21.720  28.639  12.369
64399W        W29560  38.086  36.647  13.924
64400W        W29561  23.473  43.382   0.469
64401W        W29562  29.720  37.895   2.306
64402W        W29563  26.743  35.110   2.817
64403W        W29564   2.478  20.268   2.034
64404W        W29565  32.104  22.242  14.465
64405W        W29566   1.900  15.129   1.904
64406W        W29567   7.888   0.410   4.271
64407W        W29568  17.978  24.209   1.913
64408W        W29569  22.310  40.829  14.896
64409W        W29570  35.199   1.676  11.625
64410W        W29571   0.442   1.835  12.185
64411W        W29572  19.222  10.625   0.891
64412W        W29573  37.409  29.870   2.196
64413W        W29574   0.990  13.740  13.441
64414W        W29575  33.667  38.111   1.018
64415W        W29576  42.398  36.039  14.161
64416W        W29577   0.484  28.063   0.349
64417W        W29578  31.192   9.737   0.905
64418W        W29579  43.329  38.677  11.642
64419W        W29580  25.780  17.151  13.450
64420W        W29581   9.332   3.916  10.839
64421W        W29582  40.882  26.422  11.544
64422W        W29583  27.205  37.444   2.123
64423W        W29584   7.404  25.596   0.226
64424W        W29585  31.482  10.582   1.038
64425W        W29586  33.060   0.206  11.315
64426W        W29587  43.442  28.198  14.943
64427W        W29588  21.199   8.023   2.976
64428W        W29589   9.493  19.557  14.161
64429W        W29590  25.545  34.172   4.055
64430W        W29591  28.067  20.151   1.783
64431W        W29592   2.937  14.068  12.303
64432W        W29593  12.862   4.316   1.679
64433W        W29594  11.249   6.808   1.440
64434W        W29595  24.936  35.294   1.783
64435W        W29596  14.086  36.879  14.878
64436W        W29597  20.397  29.420   3.398
64437W        W29598  42.940   0.366  14.816
64438W        W29599   6.013  25.022  14.752
64439W        W29600  32.570   0.561   0.955
64440W        W29601  30.764  26.936   0.804
64441W        W29602  11.600  26.073   0.290
64442W        W29603  43.354  20.243  10.774
64443W        W29604   2.458  13.362   1.831
64444W        W29605  41.830  25.703  12.968
64445W        W29606  19.634  22.699  12.426
64446W        W29607  18.767  14.735  12.403
64447W        W29608  18.802  20.269  12.074
64448W        W29609   4.181   0.871   4.104
64449W        W29610  35.306  19.712  12.982
64450W        W29611  19.033  43.815   0.332
64451W        W29612  10.199  36.222   0.839
64452W        W29613  31.556  35.443  11.275
64453W        W29614   2.706  20.037   2.842
64454W        W29615  26.478  18.329  12.020
64455W        W29616   7.211  42.536   1.681
64456W        W29617   8.307  24.607   2.247
64457W        W29618   8.252  21.321  14.914
64458W        W29619   1.365  40.311  11.503
64459W        W29620  14.219  35.441  13.841
64460W        W29621  27.974  26.043  11.554
64461W        W29622  35.996   2.203  12.545
64462W        W29623  35.096  32.680  11.616
64463W        W29624   2.311  15.533   2.340
64464W        W29625  41.296  34.617   1.354
64465W        W29626  37.173   4.874  14.306
64466W        W29627   1.008  32.092   2.857
64467W        W29628  34.429   3.338  10.571
64468W        W29629  27.125  44.767   4.129
64469W        W29630  19.945  42.207   3.241
64470W        W29631   2.857  30.030   3.094
64471W        W29632  14.064  26.528  14.744
64472W        W29633  39.266   4.409  11.245
64473W        W29634  21.248  11.611  13.340
64474W        W29635  21.553  36.131   3.760
64475W        W29636  41.144  21.535  10.784
64476W        W29637  18.531   5.642   2.628
64477W        W29638  11.389   8.240  13.404
64478W        W29639  42.148  38.060  14.796
64479W        W29640  36.900  18.534  12.100
64480W        W29641  31.197  13.148  13.095
64481W        W29642  32.528  31.574  10.985
64482W        W29643  28.084  29.675   2.671
64483W        W29644  27.007  36.732   0.275
64484W        W29645  18.211   9.295   1.701
64485W        W29646   4.712  32.864   1.907
64486W        W29647  27.499  38.980  12.696
64487W        W29648  31.124  22.005   4.633
64488W        W29649  19.336   6.801  11.072
64489W        W29650  32.328   5.438   1.973
64490W        W29651  10.894  21.592   0.823
64491W        W29652   0.571  24.179   4.540
64492W        W29653  15.310  22.049  10.604
64493W        W29654  15.714  19.336  11.164
64494W        W29655  13.279  23.917   2.929
64495W        W29656   4.966  35.681  12.053
64496W        W29657  36.802  17.807   0.872
64497W        W29658  39.592  38.532  12.833
64498W        W29659  11.275   8.861   1.629
64499W        W29660  16.749  35.007  11.957
64500W        W29661  31.665  43.483   5.071
64501W        W29662  44.621  13.112  13.638
64502W        W29663  30.515   3.993  14.307
64503W        W29664   2.636  17.337  12.746
64504W        W29665  13.680  27.955   2.732
64505W        W29666  27.999  13.092   2.320
64506W        W29667  23.988  43.784   3.655
64507W        W29668  15.138  27.634  12.331
64508W        W29669   3.964   6.355   1.455
64509W        W29670  24.995  42.829  10.717
64510W        W29671   8.825  33.251  11.413
64511W        W29672  13.321  12.527   4.140
64512W        W29673  37.135  29.562  10.735
64513W        W29674  16.790  26.768   4.071
64514W        W29675  41.379   8.236   4.180
64515W        W29676  19.087   1.024   1.443
64516W        W29677  12.316  29.183   2.788
64517W        W29678  34.634   6.713  13.469
64518W        W29679  20.127  17.454  14.937
64519W        W29680  34.432  13.865   3.335
64520W        W29681  18.295  35.641  10.762
64521W        W29682  42.318   5.833   0.311
64522W        W29683  43.507  28.985  12.908
64523W        W29684  30.561  22.679   3.162
64524W        W29685  43.742  40.883  14.065
64525W        W29686  16.994  18.810   3.441
64526W        W29687  34.027  31.044   4.347
64527W        W29688  28.723   0.337   0.086
64528W        W29689  30.683  36.091   3.296
64529W        W29690   9.791  23.764  12.906
64530W        W29691  35.538  40.599  14.833
64531W        W29692  22.215  39.837  11.353
64532W        W29693  13.696  29.411   1.395
64533W        W29694  25.594  25.404   0.960
64534W        W29695  35.346  18.278   2.985
64535W        W29696  26.773  32.644  14.028
64536W        W29697  28.244   9.591   2.886
64537W        W29698  26.745  39.114   0.313
64538W        W29699  32.581  28.597  14.894
64539W        W29700  21.255  34.827   3.388
64540W        W29701  18.203  26.735  12.608
64541W        W29702  37.312  23.531  10.969
64542W        W29703  24.681  37.507   1.370
64543W        W29704  34.643  15.954   1.802
64544W        W29705  15.238  25.454  12.563
64545W        W29706   0.776   3.392  12.146
64546W        W29707  34.328  30.294  12.195
64547W        W29708   1.506   5.794   2.291
64548W        W29709  36.800  13.598  13.907
64549W        W29710  14.762   4.462   2.745
64550W        W29711  28.458  24.452  11.090
64551W        W29712  28.715  32.903   3.856
64552W        W29713  28.519  29.116   4.167
64553W        W29714  12.461  19.493   1.378
64554W        W29715  28.984   2.738  13.043
64555W        W29716  37.353  37.098  13.438
64556W        W29717  26.004  36.513  10.717
64557W        W29718  13.777  43.846  12.896
64558W        W29719  17.305  25.522  14.718
64559W        W29720  32.718  41.740  11.634
64560W        W29721  15.573  31.884   2.378
64561W        W29722  29.113  17.014  13.007
64562W        W29723  34.585   4.871  13.396
64563W        W29724  39.132  34.051  14.267
64564W        W29725  13.096  40.924   0.884
64565W        W29726  24.783   3.159  14.070
64566W        W29727  23.189  16.727   0.464
64567W        W29728  25.671  42.889   0.340
64568W        W29729  14.657  38.144   1.538
64569W        W29730  22.642  12.600   4.456
64570W        W29731  32.903  36.299   0.849
64571W        W29732  18.531  34.464   1.403
64572W        W29733  26.755  39.026  11.672
64573W        W29734  36.643   9.092  13.745
64574W        W29735  18.737  36.055   0.940
64575W        W29736  28.722   8.542  11.175
64576W        W29737  39.570   9.926  12.778
64577W        W29738  25.924  13.404   2.226
64578W        W29739  14.972  16.110  14.939
64579W        W29740  14.047   9.845  11.382
64580W        W29741  44.018  11.613  11.462
64581W        W29742   0.785   5.211  10.796
64582W        W29743  28.321  26.753  12.717
64583W        W29744  39.116   7.607  12.073
64584W        W29745   9.439  19.247   2.755
64585W        W29746  27.238   1.650   2.475
64586W        W29747  26.419   6.995   2.467
64587W        W29748  29.118  12.398   9.745
64588W        W29749  20.350   7.736  11.097
64589W        W29750  41.576  43.810   2.393
64590W        W29751  23.252   0.656   3.261
64591W        W29752  12.762   3.641   4.951
64592W        W29753  23.454  33.606  14.846
64593W        W29754  27.590   2.534  13.054
64594W        W29755  32.098  33.642   4.889
64595W        W29756   9.374  40.300  11.958
64596W        W29757  11.830  36.767   4.496
64597W        W29758  19.781  44.212  12.077
64598W        W29759  18.155  15.944   1.907
64599W        W29760  42.220  31.492   4.214
64600W        W29761  44.010   2.881   1.813
64601W        W29762  32.639  27.543   1.237
64602W        W29763   0.516  40.893  10.317
64603W        W29764   8.071  10.749  12.277
64604W        W29765  15.715   1.754  14.089
64605W        W29766  36.009  22.113  11.160
64606W        W29767  28.424   2.716   4.116
64607W        W29768  18.114  31.070   4.070
64608W        W29769  41.300  18.550  11.245
64609W        W29770   2.727  16.903  12.454
64610W        W29771  24.678  19.176   1.372
64611W        W29772   2.764  34.638   0.232
64612W        W29773  28.672  37.966   3.898
64613W        W29774   6.583   6.750  11.496
64614W        W29775  12.833  14.746  12.384
64615W        W29776  18.154  24.477  12.165
64616W        W29777  37.141  17.079  12.029
64617W        W29778   1.845  43.212   2.369
64618W        W29779  36.866  31.849  10.275
64619W        W29780  17.581   1.151   1.034
64620W        W29781   8.326  26.059   4.238
64621W        W29782   6.322  30.723  10.885
64622W        W29783  17.809  19.279   2.751
64623W        W29784  40.595  27.958  13.089
64624W        W29785   7.784  27.175  13.408
64625W        W29786  19.172   2.553   3.673
64626W        W29787  18.954  41.563  10.540
64627W        W29788  12.342   9.580   4.238
64628W        W29789  10.611   7.263  13.681
64629W        W29790  24.114  24.454   2.896
64630W        W29791  41.407   2.921   0.500
64631W        W29792   9.766  11.078  14.411
64632W        W29793  33.639   8.791  13.516
64633W        W29794  15.226  26.967  12.527
64634W        W29795  39.826  31.595   3.878
64635W        W29796  36.053  19.113  13.772
64636W        W29797   8.953   4.811  12.444
64637W        W29798  42.825  40.238  11.145
64638W        W29799  31.216  12.326  14.468
64639W        W29800  26.028   9.696  10.590
64640W        W29801  25.624  18.719   5.026
64641W        W29802   7.681  27.086  12.051
64642W        W29803  27.581  25.526   2.592
64643W        W29804  24.108  31.426   3.620
64644W        W29805  21.432  43.245  13.022
64645W        W29806  26.472  13.217   5.478
64646W        W29807  43.475  33.898   4.566
64647W        W29808  21.308  19.309  13.330
64648W        W29809   4.180  37.016   2.828
64649W        W29810  38.038  20.563   3.798
64650W        W29811  26.130  22.725  10.460
64651W        W29812  13.593   1.817   4.956
64652W        W29813  34.941  24.116  10.171
64653W        W29814  11.080  29.979   2.155
64654W        W29815  22.024  16.341  13.373
64655W        W29816  31.993  42.002  14.069
64656W        W29817   4.352   0.808  13.135
64657W        W29818   4.120  44.999   2.728
64658W        W29819  44.926   2.395   4.765
64659W        W29820  22.940   6.867   4.483
64660W        W29821  10.314  41.419  13.986
64661W        W29822  20.228  29.527  12.097
64662W        W29823  39.557  26.929   3.903
64663W        W29824  27.667   8.212   1.792
64664W        W29825   1.339  32.473   1.827
64665W        W29826  14.878  40.369  12.469
64666W        W29827  42.755  30.145   1.797
64667W        W29828  29.636  19.952  12.676
64668W        W29829  12.916   8.223   2.887
64669W        W29830   1.139  20.175   4.639
64670W        W29831  11.376  16.885   2.323
64671W        W29832  32.917  25.747   0.291
64672W        W29833  41.406  34.591  14.048
64673W        W29834  22.181  26.659  10.659
64674W        W29835   1.461  28.611  14.367
64675W        W29836  29.626  21.122   3.805
64676W        W29837  11.462   8.397   2.815
64677W        W29838  40.075  13.752  12.546
64678W        W29839  25.090  33.954  11.038
64679W        W29840   6.279  42.950   4.199
64680W        W29841  16.375   0.921   4.792
64681W        W29842  41.874  15.588  13.481
64682W        W29843  40.020  28.169  14.670
64683W        W29844  37.285  38.101   0.760
64684W        W29845  21.150   3.753  11.163
64685W        W29846  14.644  30.891  13.602
64686W        W29847  16.733   5.355   3.223
64687W        W29848   8.723  32.991   4.953
64688W        W29849  37.416  32.405  13.749
64689W        W29850  39.481   8.473  11.465
64690W        W29851  36.743   9.879  12.989
64691W        W29852  19.487  12.977  13.092
64692W        W29853   9.810  22.754   0.418
64693W        W29854  39.554  38.963   3.597
64694W        W29855  38.928  26.160  13.132
64695W        W29856  23.256  35.969  11.663
64696W        W29857  31.943  23.472   2.619
64697W        W29858  11.783  20.332   2.626
64698W        W29859   5.241  21.780  12.696
64699W        W29860   6.629  29.066  13.322
64700W        W29861  25.751  36.649  13.735
64701W        W29862  11.363  37.926   0.951
64702W        W29863  16.525   6.423   3.682
64703W        W29864  28.171  18.833   1.348
64704W        W29865  21.243   5.698   4.531
64705W        W29866  32.089  43.361  12.397
64706W        W29867  20.192  21.061   4.656
64707W        W29868  37.401  32.043  11.559
64708W        W29869  13.592  29.580   0.899
64709W        W29870  33.064   4.155   0.225
64710W        W29871  22.233  27.104  13.803
64711W        W29872  40.123  14.091   2.209
64712W        W29873  38.087  28.661   1.164
64713W        W29874   0.842  31.368  14.036
64714W        W29875  28.144   6.711   3.181
64715W        W29876  35.497  19.247   2.903
64716W        W29877  39.966  27.068  12.042
64717W        W29878   8.862  41.580   0.405
64718W        W29879  20.017  35.001   2.734
64719W        W29880  22.021  35.315  14.821
64720W        W29881   1.031  34.330   2.692
64721W        W29882  35.352   7.450  14.495
64722W        W29883  28.356  34.539  10.335
64723W        W29884   4.814   7.208  11.180
64724W        W29885   8.660  40.840  13.015
64725W        W29886  13.653   8.884   1.698
64726W        W29887   6.656   3.337   0.790
64727W        W29888  31.707  41.468   1.822
64728W        W29889   9.742  42.408  13.793
64729W        W29890   0.175   3.237   3.700
64730W        W29891  40.500  30.360   2.643
64731W        W29892  10.104  22.786  13.090
64732W        W29893  38.574  25.146   4.368
64733W        W29894  40.308  16.756   3.437
64734W        W29895  24.787  39.051  13.158
64735W        W29896  27.732  22.333   4.583
64736W        W29897  30.626  19.264   0.041
64737W        W29898  29.081   1.996   1.260
64738W        W29899  21.639   8.205  12.412
64739W        W29900   1.730  24.754   1.256
64740W        W29901  26.925  19.249   3.768
64741W        W29902  12.164  38.958   4.605
64742W        W29903  13.751   3.740  11.110
64743W        W29904  30.957  18.454   0.598
64744W        W29905  23.923  20.339   1.625
64745W        W29906   1.047  15.225  11.212
64746W        W29907  27.784  26.588   1.262
64747W        W29908  30.698  39.531  12.458
64748W        W29909  41.465   0.375  13.543
64749W        W29910  37.954   2.378   3.859
64750W        W29911  15.690   3.207  13.068
64751W        W29912  15.143  17.033   2.646
64752W        W29913   5.917   4.415   2.353
64753W        W29914  16.370   9.892  10.813
64754W        W29915  24.673  26.075  13.989
64755W        W29916   5.672   6.652   2.307
64756W        W29917  35.969  41.925   1.650
64757W        W29918  44.633  18.268   2.447
64758W        W29919  10.416  27.951   0.317
64759W        W29920  20.777  17.076  13.269
64760W        W29921  16.736  40.062   0.547
64761W        W29922  12.879  15.245   2.602
64762W        W29923  14.096   5.848   4.244
64763W        W29924  20.558  38.665   3.790
64764W        W29925  27.968  17.205  10.572
64765W        W29926  17.384  25.576  12.543
64766W        W29927   9.975  21.071  11.813
64767W        W29928  43.358  37.179  13.517
64768W        W29929  36.154  25.709   1.244
64769W        W29930  39.279  26.674   4.259
64770W        W29931   3.429  35.883   4.537
64771W        W29932  37.806  18.311  14.885
64772W        W29933  33.835  37.709  11.153
64773W        W29934   7.248  33.417   1.331
64774W        W29935  32.252  44.270  11.909
64775W        W29936  27.637  29.551  12.539
64776W        W29937  10.771  30.119  14.896
64777W        W29938  17.553  10.828   1.404
64778W        W29939  33.041  39.806   0.946
64779W        W29940  17.078  41.820  12.069
64780W        W29941  32.778   9.239  11.221
64781W        W29942  23.998  31.695   1.291
64782W        W29943  29.335  25.264   1.360
64783W        W29944  25.083  40.018   3.612
64784W        W29945  31.723  10.733  11.929
64785W        W29946  41.049  26.015   3.852
64786W        W29947   7.519  43.940   1.346
64787W        W29948  42.272  22.232   2.990
64788W        W29949   6.969  41.418  12.922
64789W        W29950  18.230   8.667  11.744
64790W        W29951   3.839   1.202   0.010
64791W        W29952  10.609   6.202   4.118
64792W        W29953  42.108  42.361   2.005
64793W        W29954  32.002  20.185   4.654
64794W        W29955  12.176  25.096  11.945
64795W        W29956  18.555  37.843   1.866
64796W        W29957  33.670  18.235   2.849
64797W        W29958   0.847  21.665  12.170
64798W        W29959  31.166   6.109  13.429
64799W        W29960  39.882   4.662   0.758
64800W        W29961  17.036   3.307  10.410
64801W        W29962  16.168  22.958  13.068
64802W        W29963   2.754  32.915   4.555
64803W        W29964  10.563   8.088   0.886
64804W        W29965  38.097  35.328   2.215
64805W        W29966   5.157  35.390   0.158
64806W        W29967  11.149   5.453  14.827
64807W        W29968  20.069  25.964   0.862
64808W        W29969  28.685  43.935  12.790
64809W        W29970  40.526  23.216   3.648
64810W        W29971  24.400   1.741   4.200
64811W        W29972  33.188  12.876  12.635
64812W        W29973   8.749   4.489   3.293
64813W        W29974  43.944  20.771  10.900
64814W        W29975   8.717  26.866  14.297
64815W        W29976  40.457  11.646  12.921
64816W        W29977  42.432  20.464  13.355
64817W        W29978   2.978  36.640   2.415
64818W        W29979   4.420  37.434  13.454
64819W        W29980   9.353  15.718  12.280
64820W        W29981  38.406  22.672  12.793
64821W        W29982  31.109  20.717  11.742
64822W        W29983   5.659  11.381   3.892
64823W        W29984   5.739   5.922  12.050
64824W        W29985  11.588  13.661   1.157
64825W        W29986  41.071   6.920  11.643
64826W        W29987   3.746  22.744   1.796
64827W        W29988  24.200  35.545   1.270
64828W        W29989  21.997  20.095   0.354
64829W        W29990  29.122  36.148   4.792
64830W        W29991   1.582  11.722   9.849
64831W        W29992  11.142   5.831  10.517
64832W        W29993  41.317  13.892   0.344
64833W        W29994  25.072  30.224  12.886
64834W        W29995   0.161  38.289   3.223
64835W        W29996  33.983   4.231   3.778
64836W        W29997  26.881   1.411   1.885
64837W        W29998  31.317   4.889  13.042
64838W        W29999  41.217   8.334  14.489
64839W        W30000   9.131  17.582  10.476
64840W        W30001  32.522  18.815  12.868
64841W        W30002   9.466  18.797  14.836
64842W        W30003  31.589  32.864   2.177
64843W        W30004  29.945  30.328   1.800
64844W        W30005  31.504  39.221  12.345
64845W        W30006  41.203  18.960  13.047
64846W        W30007  41.755  39.430  11.063
64847W        W30008  22.899  18.066   1.269
64848W        W30009   8.948  27.141  11.159
64849W        W30010  25.661   9.841  13.025
64850W        W30011  37.904  44.992   4.049
64851W        W30012   3.938  32.452  13.841
64852W        W30013  37.929  37.802   1.973
64853W        W30014  26.202   6.493  13.452
64854W        W30015  44.320  22.232   0.034
64855W        W30016   7.203  31.819   0.364
64856W        W30017  20.078   7.900   2.711
64857W        W30018  36.523  23.577  11.634
64858W        W30019  39.655  29.654  13.872
64859W        W30020  35.008  43.934   4.713
64860W        W30021  40.272  14.898   2.950
64861W        W30022  18.364  43.383   4.470
64862W        W30023  21.489  25.300  14.958
64863W        W30024  15.885  18.122   3.672
64864W        W30025  42.929   5.745   1.921
64865W        W30026  21.414  44.589   4.913
64866W        W30027  14.603  26.840   0.849
64867W        W30028  16.195  21.069  13.814
64868W        W30029  17.644  19.952  13.528
64869W        W30030  34.969  21.341  12.803
64870W        W30031  16.016  30.183   2.291
64871W        W30032  42.562  13.309   4.538
64872W        W30033   7.124  15.966  11.562
64873W        W30034  14.152  29.181  11.226
64874W        W30035  15.250   1.651   0.484
64875W        W30036  38.267  27.551   2.441
64876W        W30037  43.801  23.906  13.517
64877W        W30038  40.622  14.717  11.661
64878W        W30039   6.446  11.605   1.305
64879W        W30040   8.325  17.729  11.424
64880W        W30041   8.405  11.830   4.136
64881W        W30042  26.488   3.992   2.216
64882W        W30043  11.762  37.404  13.552
64883W        W30044  44.911   5.741   3.836
64884W        W30045   9.082  24.901   3.219
64885W        W30046  10.480  12.160  12.475
64886W        W30047  30.225   8.785   3.638
64887W        W30048   9.491  35.143   0.759
64888W        W30049  19.156   7.728   2.555
64889W        W30050  23.524   6.188   1.290
64890W        W30051   7.234   8.826  11.667
64891W        W30052  31.352  44.766   2.880
64892W        W30053   4.367  42.161  11.867
64893W        W30054  25.448  34.826  12.923
64894W        W30055   2.209  26.546   4.080
64895W        W30056  33.452  11.681   1.383
64896W        W30057  22.914  30.087   1.378
64897W        W30058  21.021  38.862   2.354
64898W        W30059  34.063  26.917  11.181
64899W        W30060  17.236  37.000   3.739
64900W        W30061  12.900   6.802   2.436
64901W        W30062  40.349  12.252   3.188
64902W        W30063  11.292  31.478   1.370
64903W        W30064  32.034  12.580   4.734
64904W        W30065  21.763   5.875  11.287
64905W        W30066  26.905  33.822  12.506
64906W        W30067  40.740   1.837  11.178
64907W        W30068   6.723  27.417  14.502
64908W        W30069   8.436  26.117  12.505
64909W        W30070  33.120  23.613  14.564
64910W        W30071  32.746  23.031  11.488
64911W        W30072  22.367  24.446   3.620
64912W        W30073  41.842  21.048  13.380
64913W        W30074  11.113  16.555  14.239
64914W        W30075   6.747  12.244  11.010
64915W        W30076  14.668  35.794   1.169
64916W        W30077  37.320  13.219  14.280
64917W        W30078   2.669   1.390   0.855
64918W        W30079  29.952  25.143   3.160
64919W        W30080  19.112  25.039   3.783
64920W        W30081  42.046   4.167   0.893
64921W        W30082  41.864  44.213   2.576
64922W        W30083  40.862  16.051   2.411
64923W        W30084   5.956  39.295   2.291
64924W        W30085  41.711  40.900   4.754
64925W        W30086  13.258  39.035  10.927
64926W        W30087  31.925  29.104  13.572
64927W        W30088  29.427  26.715   4.494
64928W        W30089  22.058  39.339   3.616
64929W        W30090   2.296  15.826  13.891
64930W        W30091  33.018  35.117  13.063
64931W        W30092  36.083  37.587  10.779
64932W        W30093   7.135  39.832   1.810
64933W        W30094  28.119  36.570  14.801
64934W        W30095  38.436   7.219   0.469
64935W        W30096  18.233  19.848   4.104
64936W        W30097   5.672   3.158   0.111
64937W        W30098  26.562   1.013   1.701
64938W        W30099  30.844  21.811   3.125
64939W        W30100  25.749  15.762   0.300
64940W        W30101  39.842   7.282  13.157
64941W        W30102   0.436  16.608   2.615
64942W        W30103  25.116  21.102   2.158
64943W        W30104  33.627  38.872   0.474
64944W        W30105   5.472  29.581   2.712
64945W        W30106  22.215  24.585   3.159
64946W        W30107  16.583  24.970  14.569
64947W        W30108  29.618   5.203  13.489
64948W        W30109  12.265   4.141   2.386
64949W        W30110  38.355   4.809   1.447
64950W        W30111  12.258  13.667   2.627
64951W        W30112  38.546  44.298  10.841
64952W        W30113  15.076  37.256  12.908
64953W        W30114  40.391  40.541   4.566
64954W        W30115   1.343  15.125  13.298
64955W        W30116  15.103  18.741   1.324
64956W        W30117   0.032  29.687  12.845
64957W        W30118  33.102  36.413   3.086
64958W        W30119  38.993   1.985  11.515
64959W        W30120  31.812   4.903  12.919
64960W        W30121   9.315   4.944   1.687
64961W        W30122   3.974  30.040  11.191
64962W        W30123  19.587  38.456   4.160
64963W        W30124   9.405  15.829  10.613
64964W        W30125   5.215  26.146   0.748
64965W        W30126  22.971  40.245   4.594
64966W        W30127   6.155   9.369  13.932
64967W        W30128  18.145  14.751   4.112
64968W        W30129  37.453  38.326  12.372
64969W        W30130  43.240   0.838  13.108
64970W        W30131  18.256   6.149   4.166
64971W        W30132  10.870  37.449  13.598
64972W        W30133   5.688  28.726  10.136
64973W        W30134   6.405   7.459  11.199
64974W        W30135  33.948  24.607   2.737
64975W        W30136  44.521  31.968  12.179
64976W        W30137  34.192  39.180  11.622
64977W        W30138  40.032  30.912   3.495
64978W        W30139  44.190  42.815   0.479
64979W        W30140  16.219  21.973  13.976
64980W        W30141  20.444  18.292   2.607
64981W        W30142  25.200  18.747  10.542
64982W        W30143  44.028  30.789  14.362
64983W        W30144  17.110  34.462  13.446
64984W        W30145   4.391  38.617  13.932
64985W        W30146  41.098  25.482  14.695
64986W        W30147  11.589  19.157   1.875
64987W        W30148  24.670  25.214   3.372
64988W        W30149  12.287   6.380   2.316
64989W        W30150   5.865   7.887  13.290
64990W        W30151   5.753  17.511  13.433
64991W        W30152   2.216  31.727   3.333
64992W        W30153  44.340   3.563  13.444
64993W        W30154  30.494  40.943  12.810
64994W        W30155   6.497  30.742   4.091
64995W        W30156  26.638  18.276   1.197
64996W        W30157   2.993  39.597   0.884
64997W        W30158   2.256  30.850  12.475
64998W        W30159  32.904  20.238   0.932
64999W        W30160  28.107  42.461   2.276
65000W        W30161  36.141   1.825   4.203
65001W        W30162  20.383   5.980   4.097
65002W        W30163   2.311  36.963   1.400
65003W        W30164   0.247  32.077  14.113
65004W        W30165  28.228   7.632  10.666
65005W        W30166  16.273  36.988   1.302
65006W        W30167  18.978  30.119   1.871
65007W        W30168  26.441  23.043  14.070
65008W        W30169  12.367  31.525   0.435
65009W        W30170  35.502  21.457   4.757
65010W        W30171  32.178  18.060  13.985
65011W        W30172  23.776   4.120  12.985
65012W        W30173  16.880  13.524   3.282
65013W        W30174  21.159  40.124   9.653
65014W        W30175   9.443   2.901   0.118
65015W        W30176  32.418  14.865  13.513
65016W        W30177   6.251  10.928  10.216
65017W        W30178  19.692  14.591  12.046
65018W        W30179  38.821   6.608  12.962
65019W        W30180   1.923  17.048   0.932
65020W        W30181  43.571   2.942  12.436
65021W        W30182  43.212   0.834  10.489
65022W        W30183   0.881  17.111  11.901
65023W        W30184  20.717   0.852  11.083
65024W        W30185   9.290  19.797   3.438
65025W        W30186  16.388  40.177   3.309
65026W        W30187  38.598   8.240  10.448
65027W        W30188   5.047  31.508  10.702
65028W        W30189  16.405  39.769  11.570
65029W        W30190   8.201  15.623  13.952
65030W        W30191  20.838  40.042   3.689
65031W        W30192  24.004  14.294   2.686
65032W        W30193   8.598  12.845   1.365
65033W        W30194  24.384   0.960  13.851
65034W        W30195  43.786   0.389   2.682
65035W        W30196  24.403  14.806  12.761
65036W        W30197  12.819   3.089   4.845
65037W        W30198  25.459  24.456   4.088
65038W        W30199  41.270  15.815   2.880
65039W        W30200  33.130  23.339   1.233
65040W        W30201  13.127  19.960   1.420
65041W        W30202   5.955  30.558  14.068
65042W        W30203  30.140  13.392   4.404
65043W        W30204  37.553  30.338   2.447
65044W        W30205   9.807   2.988  14.379
65045W        W30206  30.881  14.403  11.533
65046W        W30207   5.959  26.909   3.073
65047W        W30208  37.579   5.827  14.526
65048W        W30209  17.746  42.241   2.335
65049W        W30210   0.781  30.581   2.142
65050W        W30211  28.570  36.050  10.682
65051W        W30212   1.924  29.579  11.187
65052W        W30213   9.522  21.433  14.457
65053W        W30214  28.602  12.187   4.038
65054W        W30215   8.810  30.999  10.571
65055W        W30216  39.385  17.101  14.375
65056W        W30217  16.755  37.127  14.266
65057W        W30218   6.725  32.052   0.445
65058W        W30219  18.519  43.072   0.463
65059W        W30220  25.998   8.224   0.027
65060W        W30221  19.231  27.717  12.060
65061W        W30222  16.998  39.415   2.263
65062W        W30223   4.755  23.847   2.103
65063W        W30224  42.293   8.351   1.399
65064W        W30225  44.954  30.910   2.466
65065W        W30226   8.392  41.346  13.117
65066W        W30227   3.834   8.711   0.417
65067W        W30228  27.481  26.039  11.767
65068W        W30229  18.376   7.993   3.727
65069W        W30230  27.892  27.960   0.892
65070W        W30231  43.310  28.065   4.713
65071W        W30232  41.497  32.928   0.432
65072W        W30233  25.527  17.876   4.367
65073W        W30234  23.705   3.781  11.561
65074W        W30235   3.236  28.146  12.033
65075W        W30236  31.210  17.587  11.170
65076W        W30237  26.884  14.719   5.016
65077W        W30238  19.798  24.926  12.916
65078W        W30239  25.731  35.584  14.459
65079W        W30240   5.977   3.017  12.070
65080W        W30241  35.009  40.314   1.029
65081W        W30242   9.498  22.693  11.397
65082W        W30243  25.696  28.675  13.357
65083W        W30244  41.216  18.244   3.900
65084W        W30245  38.909  11.413   4.111
65085W        W30246  18.743  27.508  11.268
65086W        W30247   4.699  44.127   3.499
65087W        W30248   5.124  26.843   3.716
65088W        W30249   3.464  15.762   0.333
65089W        W30250  43.275  20.097   3.703
65090W        W30251  19.231  23.798  13.348
65091W        W30252  30.557  26.353  13.800
65092W        W30253  12.256  23.546   2.755
65093W        W30254  34.636  23.696   1.961
65094W        W30255  36.551   8.875   4.566
65095W        W30256  14.389  26.935  13.878
65096W        W30257   9.169  32.086   1.180
65097W        W30258  24.034   6.977  10.465
65098W        W30259  29.464  15.618  11.668
65099W        W30260   2.291  41.433   2.395
65100W        W30261  22.484  13.604  10.374
65101W        W30262  29.619  26.588   3.250
65102W        W30263   7.391  42.288   3.591
65103W        W30264   8.180  18.007  14.315
65104W        W30265  14.172  32.939  12.014
65105W        W30266  18.718  22.981  13.789
65106W        W30267  31.351  25.033   5.220
65107W        W30268   4.984   5.904  11.597
65108W        W30269  40.461  24.884  10.770
65109W        W30270  41.982   1.791   4.681
65110W        W30271   4.288  31.174  12.429
65111W        W30272  24.572   0.874   3.450
65112W        W30273  10.352  16.894   2.259
65113W        W30274   0.075  40.874  14.544
65114W        W30275   8.620  22.499  14.927
65115W        W30276  12.817  30.461  13.404
65116W        W30277  22.679  13.685   2.787
65117W        W30278  36.519   9.510  12.022
65118W        W30279  28.161  25.627   3.240
65119W        W30280  30.954  17.293  11.504
65120W        W30281  16.792  15.326   4.025
65121W        W30282  21.960   9.844  14.398
65122W        W30283  38.553  32.927  12.054
65123W        W30284   7.822  11.382   3.602
65124W        W30285  39.020  36.370  11.475
65125W        W30286  44.967   5.228   3.632
65126W        W30287  16.794  42.356   0.419
65127W        W30288  23.435   2.353   2.220
65128W        W30289  39.635  24.436   2.018
65129W        W30290  12.372   4.769   2.729
65130W        W30291  35.039  33.924  11.974
65131W        W30292   4.471  17.979  11.979
65132W        W30293  18.256  14.239   4.272
65133W        W30294   1.830   8.669  13.870
65134W        W30295   9.929  26.537   3.110
65135W        W30296  11.638  35.837  10.681
65136W        W30297  10.364  43.011   0.708
65137W        W30298  35.490  33.830  12.913
65138W        W30299   6.239  19.926  11.094
65139W        W30300  35.555  43.074   5.094
65140W        W30301  13.744   9.184  13.530
65141W        W30302   7.306  23.699   3.836
65142W        W30303  29.445   6.858   2.716
65143W        W30304  20.393   5.681  12.037
65144W        W30305  20.270  30.582  14.905
65145W        W30306  42.642  32.379  14.841
65146W        W30307  13.761  14.868   1.416
65147W        W30308   8.733  34.462  14.807
65148W        W30309  36.283   3.618   1.278
65149W        W30310  13.814  17.921   2.700
65150W        W30311  30.661  14.774   0.236
65151W        W30312  41.445   0.348   3.699
65152W        W30313  18.253   7.333  10.530
65153W        W30314   0.024  34.868   0.886
65154W        W30315   8.858   2.693  12.844
65155W        W30316  20.235   5.349   0.327
65156W        W30317  29.532  10.627  14.486
65157W        W30318  44.870  33.939   4.536
65158W        W30319  14.125  39.570  11.050
65159W        W30320   0.764  29.871   3.290
65160W        W30321  39.516   9.069  14.339
65161W        W30322   8.226  43.307   3.318
65162W        W30323  28.327  24.159   0.365
65163W        W30324  14.184  38.082   1.371
65164W        W30325  23.105  35.642   3.822
65165W        W30326  22.682  31.668  13.503
65166W        W30327   1.527   9.149   3.235
65167W        W30328  38.414   7.413  11.259
65168W        W30329  33.057  11.333  10.671
65169W        W30330   9.251  37.705  11.637
65170W        W30331  31.517   3.236   2.475
65171W        W30332  39.770   3.576   0.073
65172W        W30333   5.867  17.801   3.579
65173W        W30334  40.128  25.798  12.963
65174W        W30335   3.487  27.463   1.226
65175W        W30336  44.478  33.552   1.768
65176W        W30337  14.753  27.333   0.895
65177W        W30338  11.708  27.481  12.950
65178W        W30339  35.465  42.280   3.342
65179W        W30340  20.931   1.104  11.481
65180W        W30341  13.482   9.013   4.601
65181W        W30342  32.909  20.626   1.349
65182W        W30343  43.692   3.820   1.530
65183W        W30344  39.179  34.002   3.703
65184W        W30345  38.049  41.050   1.813
65185W        W30346   6.986  17.807  12.009
65186W        W30347  29.027  25.466  12.916
65187W        W30348  20.960  30.571  10.355
65188W        W30349   6.083  10.634   2.844
65189W        W30350  41.457  30.498  13.864
65190W        W30351  16.549  26.055  13.498
65191W        W30352  29.651  15.854  12.118
65192W        W30353  42.898   8.448   3.538
65193W        W30354  21.307  17.472  10.615
65194W        W30355  36.194   6.815  14.239
65195W        W30356  28.499  16.092   1.761
65196W        W30357   4.952  29.338   4.589
65197W        W30358  33.473  34.929  13.291
65198W        W30359  18.721   3.286  12.515
65199W        W30360  18.322   9.687   0.426
65200W        W30361  17.340  18.055   0.426
65201W        W30362   3.390   8.330  11.590
65202W        W30363   1.893  24.539   2.731
65203W        W30364  33.327  23.340   0.763
65204W        W30365  22.113  19.544   1.819
65205W        W30366  14.843  28.881   4.730
65206W        W30367   2.930  43.351   4.709
65207W        W30368  24.815  26.019   1.273
65208W        W30369  15.144  28.553  10.717
65209W        W30370  26.393  31.643   3.437
65210W        W30371  12.883  21.738   0.335
65211W        W30372  18.945  32.184   4.636
65212W        W30373  12.649   8.883   0.543
65213W        W30374  18.731  19.873  14.860
65214W        W30375  37.944  41.481   3.024
65215W        W30376  30.869  12.884   1.260
65216W        W30377   8.170  22.166  13.670
65217W        W30378   9.926  37.737  14.096
65218W        W30379  39.805  32.612  11.680
65219W        W30380  32.045  20.603  12.005
65220W        W30381  17.773  25.909  14.760
65221W        W30382  36.507   8.782  12.454
65222W        W30383  40.750  31.584  10.698
65223W        W30384  29.664  33.187   3.184
65224W        W30385   4.953  14.732   4.252
65225W        W30386   8.649  26.077   2.184
65226W        W30387  13.623  14.097  14.252
65227W        W30388   4.119  30.887   4.040
65228W        W30389  35.118  25.824   0.570
65229W        W30390  34.032  11.174   3.297
65230W        W30391  40.819  28.039  14.450
65231W        W30392  33.925  44.222  12.454
65232W        W30393  37.481  37.276   1.323
65233W        W30394  11.377   1.597   0.442
65234W        W30395  39.741  34.102  13.387
65235W        W30396   4.278  24.019   2.217
65236W        W30397   9.708   1.426  11.152
65237W        W30398  15.653  12.462  13.879
65238W        W30399  29.174   2.366  13.401
65239W        W30400  21.303   7.212  10.809
65240W        W30401  10.170  35.846  14.411
65241W        W30402  29.997  10.339  10.714
65242W        W30403  16.735  34.206   2.624
65243W        W30404  12.200   3.381   0.830
65244W        W30405  18.227  30.511   4.144
65245W        W30406   5.521  33.245  10.506
65246W        W30407  23.604  15.276   1.221
65247W        W30408  33.581  26.847   0.939
65248W        W30409  14.374  28.426   3.255
65249W        W30410  15.722  23.153  13.792
65250W        W30411  44.445   4.343   1.114
65251W        W30412  44.023  13.142   2.583
65252W        W30413   9.228  11.655   3.881
65253W        W30414  23.338  39.218   2.255
65254W        W30415  28.975   6.887   0.975
65255W        W30416  27.169   5.654  12.695
65256W        W30417  42.528   1.006   2.443
65257W        W30418  22.001   4.688   0.298
65258W        W30419   0.733  28.496  10.724
65259W        W30420   1.590  42.345  11.624
65260W        W30421   2.844  40.051  11.444
65261W        W30422  43.989  35.301  14.784
65262W        W30423  31.598   9.746   4.194
65263W        W30424  16.261   9.129   1.917
65264W        W30425  15.241   8.861   0.263
65265W        W30426  32.161   4.721   4.712
65266W        W30427  13.759  40.083  10.721
65267W        W30428  22.136  23.066   0.072
65268W        W30429   1.633   8.219  14.151
65269W        W30430  24.403  17.085   2.994
65270W        W30431  31.501  29.240  13.831
65271W        W30432  22.484   7.097  13.475
65272W        W30433  25.967  42.549   3.784
65273W        W30434  11.660  26.284   4.656
65274W        W30435  20.470  20.717   0.880
65275W        W30436  19.733   1.301  12.975
65276W        W30437  20.391  30.082  12.863
65277W        W30438  41.392  20.192  11.586
65278W        W30439  19.695  28.677  10.716
65279W        W30440   3.313  19.844   4.159
65280W        W30441  24.989  15.046   2.834
65281W        W30442   9.339   4.324   4.103
65282W        W30443  41.198  30.903   0.403
65283W        W30444   4.058  30.538   4.583
65284W        W30445  37.107  22.599   0.321
65285W        W30446  20.074  33.033   4.495
65286W        W30447  13.601  18.211   0.498
65287W        W30448  26.848  19.608   1.000
65288W        W30449  11.864  37.416  12.596
65289W        W30450   7.482  21.196  10.050
65290W        W30451  13.622  39.578  13.865
65291W        W30452  20.359   6.020   3.137
65292W        W30453  22.026  43.171  11.115
65293W        W30454  31.159   6.680   2.198
65294W        W30455  28.357  34.936  10.674
65295W        W30456  35.316  40.451  12.511
65296W        W30457  35.835  36.682   2.465
65297W        W30458  17.866  43.989   5.061
65298W        W30459   5.079  42.669   4.535
65299W        W30460   4.705  32.590  14.304
65300W        W30461   2.335  14.340   4.846
65301W        W30462   0.780   4.453   2.881
65302W        W30463   4.316  29.228  10.942
65303W        W30464  28.208   2.286  12.139
65304W        W30465  19.098  33.711   0.848
65305W        W30466   1.395  31.080  13.405
65306W        W30467   2.839   6.321   3.301
65307W        W30468  19.994  31.848   2.839
65308W        W30469  42.916  20.045  13.014
65309W        W30470  14.660   3.697  10.593
65310W        W30471  14.247  30.993  12.935
65311W        W30472  27.177  41.994   4.273
65312W        W30473  24.431   6.408   1.198
65313W        W30474  13.097  30.015   3.179
65314W        W30475   9.352  17.356   1.790
65315W        W30476  17.661  24.172   3.237
65316W        W30477  43.325  19.775  10.548
65317W        W30478   1.084  14.884  11.623
65318W        W30479  22.247  44.341  14.738
65319W        W30480  20.116  14.677   4.050
65320W        W30481  31.343  27.830   3.490
65321W        W30482  16.540  17.827   0.824
65322W        W30483  12.659  22.284  10.441
65323W        W30484  16.736  32.669  12.574
65324W        W30485  37.567  23.659   0.860
65325W        W30486   8.257  41.940   4.350
65326W        W30487   7.771   9.562   2.501
65327W        W30488  19.010  39.140  12.514
65328W        W30489  28.183  43.921  12.509
65329W        W30490  10.803  12.260  13.514
65330W        W30491  15.494  30.470   3.578
65331W        W30492  23.566  22.735   0.384
65332W        W30493  25.587   8.694   2.764
65333W        W30494  23.052  30.643   3.950
65334W        W30495   7.892  35.610   2.222
65335W        W30496  20.522  24.528   4.106
65336W        W30497  36.545  10.807  11.696
65337W        W30498   7.612  37.879   2.754
65338W        W30499  24.501  14.763   1.434
65339W        W30500  28.937  22.519   0.729
65340W        W30501  28.677  17.080   4.855
65341W        W30502  35.485  31.114  14.653
65342W        W30503   2.526  44.552   3.272
65343W        W30504  31.870  28.508  10.591
65344W        W30505  23.639  19.555  13.105
65345W        W30506  17.823  27.242   0.191
65346W        W30507  42.875  29.687   2.708
65347W        W30508  23.699  43.920   4.075
65348W        W30509  18.797  17.192  12.293
65349W        W30510  40.531  24.128   2.267
65350W        W30511  20.321  23.676   3.660
65351W        W30512  17.225  39.960  11.988
65352W        W30513  44.979  19.672   1.661
65353W        W30514   0.562  43.966  12.049
65354W        W30515  37.819  23.218  13.872
65355W        W30516  43.778   0.509  13.443
65356W        W30517  19.047   7.954   1.322
65357W        W30518   3.261  43.028   1.844
65358W        W30519  28.711  38.686   0.062
65359W        W30520  12.101  15.674  11.140
65360W        W30521  36.860  43.845   0.542
65361W        W30522   7.890  19.614  11.678
65362W        W30523  38.392  31.884  11.196
65363W        W30524  33.283   5.437  14.618
65364W        W30525  16.399  44.603  12.068
65365W        W30526   6.608   8.223  13.407
65366W        W30527   9.433  30.531   0.833
65367W        W30528   8.185  40.407  14.414
65368W        W30529  37.485   8.782   2.273
65369W        W30530   2.369  11.689   1.217
65370W        W30531  21.572  21.794   1.739
65371W        W30532  40.989  13.057   4.636
65372W        W30533   9.288  29.548   4.517
65373W        W30534  20.804  42.788   4.645
65374W        W30535  40.371  21.207   1.704
65375W        W30536  30.539  38.783   3.207
65376W        W30537   3.794  30.051   3.871
65377W        W30538  41.618  13.673  11.497
65378W        W30539  24.197   8.329   4.095
65379W        W30540  34.128  23.291   0.379
65380W        W30541  42.224   8.705  12.986
65381W        W30542  44.995  17.932   2.580
65382W        W30543  16.688  16.971  14.135
65383W        W30544  24.972  19.577   2.766
65384W        W30545  25.610  32.147  11.182
65385W        W30546  39.190   9.823   1.505
65386W        W30547   0.394  19.729  11.149
65387W        W30548  14.253  15.126  10.645
65388W        W30549   4.179  21.120   4.514
65389W        W30550  25.477  13.888   9.798
65390W        W30551  12.309   3.760   2.837
65391W        W30552  10.705  41.929  10.944
65392W        W30553  22.707  14.331  14.484
65393W        W30554  43.076  16.202  12.337
65394W        W30555  32.214  24.502   0.510
65395W        W30556  40.359  44.802   0.482
65396W        W30557  41.844  25.612  14.808
65397W        W30558  22.817   1.043   0.295
65398W        W30559  17.292  44.038   3.240
65399W        W30560  43.073  19.620   3.026
65400W        W30561  35.637  41.863   2.643
65401W        W30562  20.685  24.190  11.227
65402W        W30563  30.211   3.943   0.105
65403W        W30564  37.129  40.342   1.309
65404W        W30565  28.514  20.530   4.260
65405W        W30566  31.098  18.032   3.763
65406W        W30567   6.233  33.562  14.774
65407W        W30568  25.304  11.871  12.291
65408W        W30569  20.048  35.884   1.806
65409W        W30570  19.626  32.893   2.824
65410W        W30571  41.623  19.737  11.645
65411W        W30572  44.375  42.782  12.389
65412W        W30573   7.880  19.982   2.599
65413W        W30574  10.332  17.567  14.281
65414W        W30575   0.093  23.080  11.794
65415W        W30576  14.852   8.384  12.122
65416W        W30577  23.415  34.346  14.197
65417W        W30578   9.664  39.972   2.575
65418W        W30579  20.665   4.837  13.479
65419W        W30580  18.018  33.746  12.520
65420W        W30581  16.585  36.355  12.194
65421W        W30582  20.280  29.123   1.651
65422W        W30583  37.164  22.785  14.305
65423W        W30584  41.336   5.760  12.003
65424W        W30585  42.650  26.847   4.124
65425W        W30586  35.621  42.345   2.388
65426W        W30587   0.601   4.946  14.093
65427W        W30588  38.392  13.690   0.406
65428W        W30589   9.463  28.359  10.063
65429W        W30590  27.219  43.166  14.972
65430W        W30591  29.315  17.887  11.570
65431W        W30592   3.378  13.383  12.372
65432W        W30593   1.914  25.530   4.426
65433W        W30594   4.836  25.518   1.368
65434W        W30595  34.443  13.841   0.429
65435W        W30596  16.948  16.246   0.344
65436W        W30597  21.108  12.240  13.051
65437W        W30598  39.022  11.016  10.592
65438W        W30599  34.529  20.947  14.177
65439W        W30600  18.194  32.104   4.022
65440W        W30601  37.441  37.618  10.570
65441W        W30602  40.840  17.027   2.255
65442W        W30603  27.575  31.606  12.094
65443W        W30604  17.600  22.811  13.354
65444W        W30605  21.701   0.544   3.287
65445W        W30606  30.364  22.189   1.322
65446W        W30607  27.142  15.605  10.727
65447W        W30608  39.227  40.239  14.303
65448W        W30609  40.533   4.765   1.627
65449W        W30610  21.538  10.771  14.837
65450W        W30611   7.873  12.151  12.185
65451W        W30612  38.406  42.335  11.380
65452W        W30613  42.015  22.724  14.417
65453W        W30614  13.688  43.253   1.480
65454W        W30615   1.844  16.576   2.703
65455W        W30616  18.033  18.208  10.667
65456W        W30617  31.885   6.195   4.622
65457W        W30618   3.789  43.843  12.111
65458W        W30619  42.322  17.122  14.522
65459W        W30620  24.150  14.853  14.514
65460W        W30621  14.761   4.241  14.425
65461W        W30622  35.935   3.795  11.083
65462W        W30623  17.181  23.244  14.489
65463W        W30624   0.939  26.720   3.752
65464W        W30625  10.586  18.887   0.244
65465W        W30626  15.192  15.095   1.820
65466W        W30627  16.787  38.826  13.447
65467W        W30628  15.532  44.845  14.129
65468W        W30629   8.928  18.079   4.226
65469W        W30630  41.513   8.687   1.770
65470W        W30631  34.074  20.272   3.312
65471W        W30632   8.186  20.158  10.726
65472W        W30633  13.480  44.137  13.807
65473W        W30634  32.624  40.439  14.777
65474W        W30635  27.595  12.344  13.956
65475W        W30636  11.889  44.786   2.412
65476W        W30637  34.458   0.412  11.191
65477W        W30638  40.033  16.622  14.838
65478W        W30639   4.733  43.831  12.060
65479W        W30640  33.728  36.952  10.751
65480W        W30641   6.765  26.722   2.089
65481W        W30642  23.741   0.837  13.595
65482W        W30643  25.967  41.989  10.722
65483W        W30644   9.573   0.921   4.420
65484W        W30645  10.479  36.163   0.401
65485W        W30646  17.349   6.641  11.170
65486W        W30647  29.459  29.658   0.025
65487W        W30648  12.990  25.415  12.982
65488W        W30649  39.858  20.460  11.559
65489W        W30650   2.612  28.005  14.318
65490W        W30651  33.461  39.531   0.717
65491W        W30652  19.882  40.529   4.898
65492W        W30653  23.476   9.177  13.711
65493W        W30654  18.442  32.515   0.975
65494W        W30655  21.252  31.958   3.552
65495W        W30656  14.171  39.399   2.647
65496W        W30657  16.836  14.160  14.342
65497W        W30658  17.332  22.550   0.432
65498W        W30659  43.409   4.444   0.717
65499W        W30660   5.996  42.217   0.449
65500W        W30661   4.103  29.525   2.206
65501W        W30662  38.095   3.359  12.923
65502W        W30663  18.766  15.265  14.355
65503W        W30664  43.093  12.654  13.881
65504W        W30665  39.390  22.783   3.714
65505W        W30666  40.516  31.454  13.589
65506W        W30667   8.608  24.184   3.743
65507W        W30668  11.396  44.496   2.616
65508W        W30669  16.636   5.845   1.244
65509W        W30670   6.308  27.521  12.576
65510W        W30671  34.719  26.321  11.145
65511W        W30672  35.337  14.594  11.583
65512W        W30673   0.476  26.065   1.418
65513W        W30674   3.463  34.178   0.796
65514W        W30675  10.179  38.418   3.790
65515W        W30676  18.028  34.596   0.704
65516W        W30677  31.659  27.650  10.210
65517W        W30678   8.244   6.056  13.606
65518W        W30679  30.445  41.569  11.722
65519W        W30680   1.384  19.884  11.920
65520W        W30681  10.317  37.447  14.903
65521W        W30682  15.055  23.730   0.896
65522W        W30683  41.534  16.743  12.150
65523W        W30684  36.675  17.113   1.254
65524W        W30685  16.416  42.488  11.443
65525W        W30686  17.348  36.091  11.850
65526W        W30687  23.233  10.910  13.326
65527W        W30688  13.364  17.636   1.647
65528W        W30689  15.693  28.218   2.198
65529W        W30690  23.408  28.007   1.697
65530W        W30691   0.204   3.501   1.182
65531W        W30692  16.774  26.196  11.064
65532W        W30693  34.389   3.416  11.934
65533W        W30694  36.634   8.172  11.547
65534W        W30695   3.479  41.223  13.857
65535W        W30696  37.533  38.201   9.698
65536W        W30697  24.379  17.267   3.724
65537W        W30698   7.750  17.524  12.512
65538W        W30699  20.500   9.311   2.777
65539W        W30700  14.776  32.545  14.268
65540W        W30701  20.815  21.421  11.991
65541W        W30702   9.686  17.318   2.254
65542W        W30703   0.232  40.971   2.507
65543W        W30704  43.941  39.482   0.568
65544W        W30705  39.752   2.391  13.820
65545W        W30706  27.712   3.204  11.137
65546W        W30707   6.289  39.107  14.919
65547W        W30708  24.683  42.883   0.454
65548W        W30709  21.082   2.845   4.823
65549W        W30710  16.108  36.193  12.247
65550W        W30711   2.744   2.433  13.810
65551W        W30712  22.997   8.433  11.385
65552W        W30713  44.521   2.806  14.782
65553W        W30714  36.892  25.678  14.375
65554W        W30715  21.115   5.175  11.274
65555W        W30716   8.744  16.804   1.386
65556W        W30717  16.213   7.805  14.512
65557W        W30718  18.116   5.576  11.528
65558W        W30719  25.543  34.391   3.568
65559W        W30720  32.886  30.583   0.591
65560W        W30721  25.807  19.290   2.888
65561W        W30722  24.148   2.861   4.996
65562W        W30723  19.206  13.300  13.472
65563W        W30724  12.723  18.538   3.112
65564W        W30725  16.790  39.351  10.744
65565W        W30726   6.446   2.889   4.400
65566W        W30727  27.226  31.344  13.471
65567W        W30728   7.856  19.289   4.954
65568W        W30729  31.819  18.519   4.140
65569W        W30730  12.909  19.039   3.641
65570W        W30731  31.092  29.522   2.255
65571W        W30732   3.074  33.852  14.741
65572W        W30733  30.180  20.610   4.281
65573W        W30734  27.211  17.259   2.919
65574W        W30735  27.975  17.278   3.267
65575W        W30736  16.563  23.213   1.689
65576W        W30737  44.940  25.044   2.134
65577W        W30738  21.920  41.637   2.644
65578W        W30739   5.184  29.577   4.983
65579W        W30740   7.963   5.968   0.841
65580W        W30741  36.967   0.530  12.830
65581W        W30742   4.180  34.973   4.690
65582W        W30743  22.214   0.940  13.487
65583W        W30744   3.710  20.792   4.229
65584W        W30745  36.005   0.784  11.816
65585W        W30746  36.404  21.655   4.657
65586W        W30747  44.888  29.405  13.623
65587W        W30748  37.143  21.250  13.294
65588W        W30749  11.577  37.923  10.043
65589W        W30750  43.881   0.842  11.622
65590W        W30751  41.903  18.638  10.935
65591W        W30752   9.373  25.724  14.826
65592W        W30753  36.828   1.781  10.498
65593W        W30754  18.693  25.590  14.806
65594W        W30755  40.519  20.929  13.397
65595W        W30756  10.350  36.994   3.611
65596W        W30757  38.770  12.227  12.091
65597W        W30758   9.356   9.088   2.383
65598W        W30759   9.733  25.689  10.328
65599W        W30760  18.596  30.571  13.819
65600W        W30761  14.991   9.866  12.521
65601W        W30762  31.837  30.679  14.338
65602W        W30763  35.469  34.634  13.490
65603W        W30764  11.792   2.166  12.529
65604W        W30765  39.234   3.394  10.756
65605W        W30766  22.895  20.242   2.492
65606W        W30767  15.227  38.719   1.998
65607W        W30768  14.085  38.310   0.670
65608W        W30769  30.074  22.704   1.560
65609W        W30770  39.748  31.592  12.381
65610W        W30771  32.557  33.988   2.693
65611W        W30772  19.516   8.085   1.496
65612W        W30773  12.092  19.322   4.591
65613W        W30774  38.632  29.284   3.816
65614W        W30775  10.151  30.034   0.681
65615W        W30776  44.857   7.213   1.905
65616W        W30777  44.921  13.065  14.046
65617W        W30778   6.307  38.420  14.110
65618W        W30779  19.304  28.279  11.174
65619W        W30780  15.235  31.826   1.968
65620W        W30781  34.972   0.511  12.079
65621W        W30782   9.717  34.362  12.114
65622W        W30783  36.750  16.651   2.734
65623W        W30784  20.530  10.593  11.690
65624W        W30785   9.348  27.190   3.573
65625W        W30786  33.066  15.816   3.200
65626W        W30787  41.161  24.319  14.854
65627W        W30788   9.134  23.017  12.924
65628W        W30789  37.586  12.110  13.148
65629W        W30790  36.098   0.415   3.390
65630W        W30791  10.843  36.057  11.890
65631W        W30792  35.421   1.270  12.364
65632W        W30793  17.313   5.705  11.096
65633W        W30794   5.147   2.076   1.986
65634W        W30795  16.696  42.359  14.263
65635W        W30796  18.770  12.969  13.511
65636W        W30797  22.789  20.558   1.205
65637W        W30798  26.685   6.195  13.273
65638W        W30799   1.387  43.776   2.323
65639W        W30800  44.498  30.655   2.618
65640W        W30801   0.362  16.172   1.836
65641W        W30802  13.579   8.511   4.644
65642W        W30803  41.906  42.381  13.512
65643W        W30804  26.539  32.397   0.379
65644W        W30805  13.441  34.210   0.930
65645W        W30806  42.787  17.388   4.987
65646W        W30807   5.838  39.545   0.474
65647W        W30808   2.886  23.163   1.691
65648W        W30809  13.792  43.227   2.324
65649W        W30810  15.842  39.029  13.356
65650W        W30811  42.227  37.318  14.059
65651W        W30812  41.342  29.720   1.967
65652W        W30813  29.162  33.993  14.326
65653W        W30814  27.140  27.765   4.108
65654W        W30815  42.568  30.177   2.679
65655W        W30816  34.471  28.487   2.171
65656W        W30817  39.974   1.179   3.145
65657W        W30818  18.982  30.292  11.359
65658W        W30819  39.824  42.840   4.861
65659W        W30820   4.499  18.722   4.523
65660W        W30821  24.810  15.735  12.901
65661W        W30822  12.312   7.288   1.930
65662W        W30823  29.750  39.387  12.190
65663W        W30824   1.313  39.427   1.025
65664W        W30825  20.898  21.744  11.067
65665W        W30826  33.290  30.393   1.906
65666W        W30827  25.444  23.035   2.695
65667W        W30828  31.090   9.912   0.423
65668W        W30829  10.839   7.128   3.260
65669W        W30830  15.665   6.008  10.492
65670W        W30831   0.315  27.466  12.668
65671W        W30832  27.952  20.127   4.592
65672W        W30833  38.285  14.466   3.161
65673W        W30834  42.005  26.677   1.262
65674W        W30835  11.230   9.217   4.820
65675W        W30836  37.231  23.919   2.799
65676W        W30837  15.162  22.796   2.310
65677W        W30838   6.286  21.708   1.750
65678W        W30839  34.832  28.111  13.619
65679W        W30840  36.595   9.904  11.704
65680W        W30841   9.617  37.480   5.192
65681W        W30842  42.031   7.822   3.222
65682W        W30843   9.320  33.939   1.145
65683W        W30844  18.002  15.490   1.731
65684W        W30845  31.933  19.540  14.015
65685W        W30846  43.826  34.399  13.569
65686W        W30847  36.328   8.943  10.911
65687W        W30848  15.703   8.939   1.695
65688W        W30849  25.720  26.479  11.609
65689W        W30850  17.019  24.164  13.364
65690W        W30851  11.914  17.207  10.716
65691W        W30852  29.106   6.901  11.268
65692W        W30853  11.847  10.592   1.713
65693W        W30854   0.756  13.592  12.185
65694W        W30855  24.756  25.624   1.810
65695W        W30856  11.230  37.799   3.402
65696W        W30857   3.214  10.944  13.415
65697W        W30858  27.897  22.111  13.017
65698W        W30859   1.954   9.765   3.740
65699W        W30860   9.814  30.523  14.392
65700W        W30861  41.552   1.210   0.505
65701W        W30862  10.217  35.341   3.204
65702W        W30863   9.379  11.858  14.749
65703W        W30864  37.636   5.661  13.258
65704W        W30865  12.085  31.713  11.635
65705W        W30866   5.331  44.341  14.810
65706W        W30867  27.181  20.942   0.618
65707W        W30868  24.241  43.271   2.893
65708W        W30869  43.524   2.344  11.036
65709W        W30870  24.527  22.026  12.085
65710W        W30871  32.471   9.714  11.669
65711W        W30872  19.694  39.366   4.481
65712W        W30873  44.189  31.988  10.766
65713W        W30874   2.680   7.701   3.768
65714W        W30875  28.603  20.291  14.048
65715W        W30876  35.572  41.496  14.916
65716W        W30877   2.990   5.379   3.055
65717W        W30878  17.082  35.631   3.696
65718W        W30879   6.234  25.685  12.106
65719W        W30880  44.595  23.229  14.250
65720W        W30881  28.060   6.464   2.716
65721W        W30882   3.302  36.510  10.635
65722W        W30883  24.759  42.428   0.220
65723W        W30884  42.102  35.958   1.030
65724W        W30885  29.929   3.871  12.094
65725W        W30886   9.899  20.185  12.295
65726W        W30887  13.236   3.535  11.026
65727W        W30888   4.288   3.520  11.047
65728W        W30889  37.000  38.092  13.055
65729W        W30890  38.641  19.921   1.386
65730W        W30891   4.131  32.984   0.482
65731W        W30892  38.968  35.658   0.752
65732W        W30893  28.079   4.257  14.919
65733W        W30894   2.944  44.464   3.565
65734W        W30895   8.826   5.360  10.662
65735W        W30896   9.247   8.424  13.120
65736W        W30897  21.700  28.027   4.393
65737W        W30898   0.191  30.737  13.991
65738W        W30899   7.226   2.477  10.736
65739W        W30900  41.873  20.538  13.382
65740W        W30901   0.300   1.404   1.866
65741W        W30902  38.049  39.965   0.366
65742W        W30903  11.633   5.410  13.073
65743W        W30904  23.371  20.276  14.780
65744W        W30905  30.207  36.932  12.001
65745W        W30906   3.387   6.239  10.583
65746W        W30907  17.709  35.718  11.962
65747W        W30908   3.260  21.542   1.165
65748W        W30909  22.306  25.280  13.018
65749W        W30910  31.516  30.011  10.678
65750W        W30911  20.208   1.378  10.428
65751W        W30912  21.480  44.918   2.800
65752W        W30913  19.041  15.302  14.803
65753W        W30914  40.690   8.137  13.157
65754W        W30915  31.242  38.166  12.941
65755W        W30916  37.436  44.484  13.466
65756W        W30917  17.135   6.237   2.429
65757W        W30918   6.565  30.086  13.992
65758W        W30919  31.976  39.490  14.055
65759W        W30920  44.883  22.437   0.900
65760W        W30921  30.881  40.965  12.423
65761W        W30922  38.783  27.273  12.048
65762W        W30923  35.410  39.903  13.017
65763W        W30924  33.796  18.250  13.127
65764W        W30925  17.757  21.214  10.797
65765W        W30926  23.097  14.344  14.852
65766W        W30927  18.185   2.155   2.292
65767W        W30928  27.215   1.354  12.811
65768W        W30929  39.329  33.195   3.198
65769W        W30930   3.247   8.924  12.820
65770W        W30931   1.210   1.201  13.328
65771W        W30932  13.643  28.922   2.856
65772W        W30933  42.816   1.300   2.746
65773W        W30934  37.183  41.869   3.647
65774W        W30935  41.959  38.926  13.329
65775W        W30936  36.282  22.486  12.594
65776W        W30937  21.281  21.420   4.307
65777W        W30938  29.676   2.457   2.679
65778W        W30939   8.402  44.984   2.003
65779W        W30940  28.463  38.900   2.383
65780W        W30941  28.527  25.100   2.537
65781W        W30942   0.694  29.893  14.019
65782W        W30943  13.736  37.903   1.149
65783W        W30944  32.825   7.848  13.472
65784W        W30945   6.709  23.690  11.921
65785W        W30946  18.223  13.109  10.747
65786W        W30947  10.403  37.604   0.831
65787W        W30948  33.118  37.089   0.365
65788W        W30949   6.960   3.507   1.173
65789W        W30950   8.276   0.340  10.465
65790W        W30951  39.372  17.016   3.052
65791W        W30952  29.443   6.825  14.900
65792W        W30953   7.929  29.484   1.817
65793W        W30954  39.389  16.528  14.876
65794W        W30955  11.401   4.926   1.066
65795W        W30956  22.249  25.175  13.913
65796W        W30957  29.626   5.365   3.126
65797W        W30958  30.497  34.079  13.606
65798W        W30959  43.816  19.128   3.272
65799W        W30960  25.709   1.013   1.289
65800W        W30961  33.449  19.757   2.307
65801W        W30962  30.514  17.059   2.157
65802W        W30963  42.669  38.430   4.122
65803W        W30964  27.951  19.531   3.652
65804W        W30965  11.948  40.346  10.037
65805W        W30966   7.424   2.326   3.930
65806W        W30967  38.272  14.658   2.664
65807W        W30968  13.358  35.560   1.633
65808W        W30969  18.415  19.634   0.251
65809W        W30970   2.842  28.252  13.884
65810W        W30971  10.431  26.860  13.221
65811W        W30972  17.728  29.456  12.869
65812W        W30973   4.959  23.723   4.167
65813W        W30974  39.885  24.914   0.738
65814W        W30975  24.184  15.676   0.252
65815W        W30976  34.301  35.815   3.265
65816W        W30977  25.838  44.010   1.190
65817W        W30978  14.793  42.925   1.962
65818W        W30979  37.377  15.066   3.659
65819W        W30980  22.013  13.662  13.076
65820W        W30981   6.445  19.116  14.855
65821W        W30982  27.546   8.414  10.843
65822W        W30983  43.695   8.960  14.974
65823W        W30984  14.279  18.594   5.084
65824W        W30985  27.145  22.990  12.437
65825W        W30986  44.955  18.819  12.082
65826W        W30987  13.272   7.732  13.292
65827W        W30988  24.349  12.125  14.724
65828W        W30989   4.225   1.266  10.621
65829W        W30990  11.851  29.594  13.346
65830W        W30991  37.432  36.724   2.154
65831W        W30992   2.269  35.009  12.618
65832W        W30993  44.835  21.788  12.088
65833W        W30994   4.177   1.219   2.880
65834W        W30995  30.487  17.189  10.741
65835W        W30996  23.829  20.909  12.076
65836W        W30997  26.569  41.828  14.058
65837W        W30998  15.987  13.812   1.375
65838W        W30999  42.016  42.880   1.391
65839W        W31000  23.017  15.871   0.492
65840W        W31001  40.280  27.337  14.372
65841W        W31002  13.954  16.827   1.861
65842W        W31003   0.517  11.197  14.888
65843W        W31004  31.190   6.607   3.161
65844W        W31005   4.907  22.261  11.225
65845W        W31006  42.514   4.447  10.773
65846W        W31007   4.366   0.203   2.277
65847W        W31008  30.588   9.594  14.738
65848W        W31009   9.194  19.273   4.311
65849W        W31010  40.893  37.854   1.445
65850W        W31011  14.909   3.426   0.475
65851W        W31012  30.912  44.537   2.584
65852W        W31013  39.738   1.062   3.615
65853W        W31014  34.540  32.393   1.741
65854W        W31015  14.044   7.934  12.093
65855W        W31016  28.321  34.627   1.944
65856W        W31017  34.578  28.740   3.214
65857W        W31018  14.914  34.398   4.604
65858W        W31019  42.292   9.305  12.811
65859W        W31020  34.082  29.703   1.237
65860W        W31021  41.958   8.114   2.294
65861W        W31022  39.023  21.300   1.281
65862W        W31023   0.911  38.365   3.594
65863W        W31024  14.080  19.539  11.667
65864W        W31025   9.542  34.531   4.721
65865W        W31026  17.857  39.988   2.885
65866W        W31027  41.044   4.346  13.072
65867W        W31028  16.100   3.159   3.676
65868W        W31029  33.329  30.720   2.716
65869W        W31030   1.226  26.932  11.146
65870W        W31031  38.597  38.082   1.338
65871W        W31032  40.673  44.866  13.461
65872W        W31033   9.744  16.212  11.283
65873W        W31034  21.041  37.797  13.484
65874W        W31035  18.724  35.418  12.768
65875W        W31036  26.509  27.442  11.928
65876W        W31037   4.371  40.829  13.521
65877W        W31038   8.908  24.552   4.889
65878W        W31039  37.807  37.370  10.853
65879W        W31040   1.622  44.739  12.523
65880W        W31041  28.871  29.874   1.401
65881W        W31042   8.647   9.235  11.139
65882W        W31043   0.972  41.901  10.958
65883W        W31044   0.857   9.244   2.374
65884W        W31045  41.617  42.370   3.525
65885W        W31046  12.390  15.138   3.602
65886W        W31047  19.118  33.008   2.743
65887W        W31048  12.741  44.625   2.305
65888W        W31049  17.104  17.786  11.517
65889W        W31050  29.359  31.411  13.795
65890W        W31051  10.843  34.583   2.974
65891W        W31052  12.083  30.450  12.961
65892W        W31053  38.410  33.391   0.897
65893W        W31054  23.754  12.915  12.576
65894W        W31055   5.845  28.160   0.118
65895W        W31056  28.735   9.046  11.033
65896W        W31057   3.479  38.062  14.541
65897W        W31058  31.992   5.703   2.722
65898W        W31059  44.412  34.030  12.380
65899W        W31060  23.784  28.678   3.946
65900W        W31061  21.214  31.437   2.130
65901W        W31062  14.515   4.511   3.604
65902W        W31063   6.869  32.383  12.016
65903W        W31064  17.758  23.695   4.626
65904W        W31065   4.894  44.647  11.073
65905W        W31066  34.372  21.002   0.310
65906W        W31067  17.885   7.232  11.975
65907W        W31068  33.093  16.365  13.258
65908W        W31069  39.226  31.556  12.424
65909W        W31070  42.356  31.832  11.120
65910W        W31071  13.396   1.241  11.655
65911W        W31072  18.721  39.060   2.479
65912W        W31073  35.479  17.722  11.971
65913W        W31074  43.681  17.144   0.348
65914W        W31075  40.565  36.845  14.922
65915W        W31076  19.086  33.848  10.691
65916W        W31077  22.259  27.660   3.614
65917W        W31078   0.336  29.733  12.024
65918W        W31079   2.400  32.538  12.470
65919W        W31080  28.858  21.531  11.940
65920W        W31081  26.774  10.163  12.737
65921W        W31082  14.371  14.132   3.977
65922W        W31083  21.078  30.554  12.269
65923W        W31084   7.977  23.727   2.245
65924W        W31085  12.159   7.334  14.540
65925W        W31086  26.965  25.145   4.088
65926W        W31087   2.764  38.949   3.135
65927W        W31088  17.082  28.657  10.672
65928W        W31089  33.229  44.492  12.919
65929W        W31090  24.527  23.261  14.961
65930W        W31091  42.006  39.291   4.543
65931W        W31092  24.047  21.017  12.525
65932W        W31093  36.389  20.926   4.768
65933W        W31094  23.003   4.344  13.689
65934W        W31095  31.516  15.055   1.411
65935W        W31096  41.873  13.902   2.920
65936W        W31097   7.220  41.399  14.400
65937W        W31098  35.893  24.531   2.619
65938W        W31099   8.753  24.009  11.623
65939W        W31100  30.063  22.219  10.737
65940W        W31101  38.216  10.199   2.201
65941W        W31102   6.291   8.052  12.690
65942W        W31103   1.356  41.335   0.523
65943W        W31104  35.379  35.635  11.955
65944W        W31105   2.047  42.764   2.278
65945W        W31106  29.707  32.517  11.188
65946W        W31107  32.254  33.430   2.726
65947W        W31108  15.066   1.254  14.836
65948W        W31109  35.476   1.977   3.686
65949W        W31110  19.310   4.305  11.608
65950W        W31111   5.730  19.454  11.670
65951W        W31112   4.808  42.462   4.056
65952W        W31113  16.747   2.232   4.336
65953W        W31114  10.353  41.926  12.765
65954W        W31115  18.338  30.356   1.392
65955W        W31116  36.926  21.710  11.441
65956W        W31117  38.766  21.624   4.340
65957W        W31118  11.206  24.605  10.722
65958W        W31119  23.058  22.523  12.516
65959W        W31120  42.245  17.121   0.514
65960W        W31121  14.447  34.000   1.817
65961W        W31122  22.967  18.489   4.059
65962W        W31123  15.582  32.502   0.515
65963W        W31124   0.278  43.342   1.800
65964W        W31125  19.035  15.632  13.589
65965W        W31126  34.344  28.110   3.273
65966W        W31127  15.856  12.755   3.708
65967W        W31128  30.736  19.289  13.025
65968W        W31129  11.614  27.896   4.412
65969W        W31130  34.372  29.299  13.502
65970W        W31131  16.563   7.015  13.310
65971W        W31132  18.553  10.274   2.754
65972W        W31133  25.637  12.819   1.183
65973W        W31134  16.911  11.646  12.048
65974W        W31135   7.299   8.228   0.562
65975W        W31136  29.301   9.166   3.785
65976W        W31137   1.544  37.393   2.563
65977W        W31138  22.758  36.422   0.842
65978W        W31139   5.009   6.284  11.188
65979W        W31140  20.963  23.076  13.511
65980W        W31141   7.028  44.847  10.666
65981W        W31142   9.890  44.021  10.743
65982W        W31143  12.765  24.609   2.174
65983W        W31144  35.624  24.176   0.429
65984W        W31145   8.286  20.170  11.739
65985W        W31146  19.243   8.653  13.358
65986W        W31147  19.747  29.494  12.285
65987W        W31148  27.071  38.409  13.366
65988W        W31149   2.774  16.124   3.577
65989W        W31150  18.647  21.866   2.762
65990W        W31151  21.281   2.907  14.914
65991W        W31152   4.066   1.738   0.625
65992W        W31153  33.022  34.254   0.896
65993W        W31154  16.875   1.990   2.348
65994W        W31155  41.160  21.881   3.805
65995W        W31156  21.573  31.350  10.752
65996W        W31157   8.286  41.761   3.846
65997W        W31158  42.607  11.957  11.088
65998W        W31159  25.205   9.735   4.174
65999W        W31160  39.828  44.821  13.253
66000W        W31161  37.903   9.137   4.614
66001W        W31162   5.025  44.944  10.633
66002W        W31163  33.111   4.706   3.342
66003W        W31164  43.636  21.012   0.825
66004W        W31165  25.275   5.241   4.093
66005W        W31166  10.967  12.661   4.031
66006W        W31167  43.100  23.503   4.572
66007W        W31168  35.614   7.562   2.713
66008W        W31169  43.365  38.769   3.823
66009W        W31170  13.167  14.852  11.628
66010W        W31171  40.557  26.887  14.523
66011W        W31172  30.016  25.993   1.840
66012W        W31173   1.312  41.775  14.233
66013W        W31174  10.317  13.652  12.776
66014W        W31175  37.267   2.374   2.056
66015W        W31176   4.223   0.745   1.299
66016W        W31177  10.804  36.940  13.780
66017W        W31178  13.231  31.041  10.738
66018W        W31179   4.261  10.293   3.362
66019W        W31180  40.353   2.914   0.195
66020W        W31181  11.086  26.662  13.778
66021W        W31182  32.127  15.161  14.088
66022W        W31183  27.927   7.343   2.195
66023W        W31184   5.701  17.272  12.944
66024W        W31185  38.826  27.040   0.778
66025W        W31186   0.985   4.952  13.755
66026W        W31187  37.071  26.608   2.351
66027W        W31188  41.448   2.649   1.464
66028W        W31189  19.580   3.271   4.159
66029W        W31190  40.977  10.910  13.340
66030W        W31191  15.181  38.942  10.572
66031W        W31192  35.865  44.769  11.062
66032W        W31193   2.748  12.234  12.525
66033W        W31194  23.173   1.456  14.347
66034W        W31195  30.084   2.274  14.910
66035W        W31196  11.363  37.999  14.152
66036W        W31197  30.906   1.296   4.558
66037W        W31198   8.751  13.787  10.450
66038W        W31199  30.450  13.065  10.593
66039W        W31200  33.878  25.368  12.045
66040W        W31201  10.550  32.081  13.059
66041W        W31202  11.659  13.191  11.669
66042W        W31203  11.568   1.400  13.144
66043W        W31204  12.874  31.507  13.771
66044W        W31205   9.715  28.662  10.741
66045W        W31206  42.085  19.382  14.992
66046W        W31207  29.454  19.508  12.553
66047W        W31208  12.114  25.392   1.470
66048W        W31209  15.370   6.639   4.943
66049W        W31210  19.302  10.203   3.354
66050W        W31211  10.144  23.217   0.842
66051W        W31212   7.948   8.703  12.884
66052W        W31213  29.833  43.007  11.060
66053W        W31214  35.879  10.485   2.440
66054W        W31215  39.719  37.492  10.678
66055W        W31216  38.860  13.092  11.087
66056W        W31217  12.514  23.529   2.260
66057W        W31218  28.036  10.455   2.723
66058W        W31219  10.100   6.167  10.963
66059W        W31220  18.798  13.212   4.157
66060W        W31221  16.742  38.312   0.681
66061W        W31222  21.070  18.691  12.016
66062W        W31223  15.162  11.680  10.448
66063W        W31224  21.020   3.420  10.717
66064W        W31225   7.795   1.025  12.545
66065W        W31226   4.318  19.619   4.510
66066W        W31227  34.694   2.678  14.376
66067W        W31228   9.798  10.141  13.994
66068W        W31229  31.641  11.850  14.899
66069W        W31230  16.689  21.757  11.638
66070W        W31231  11.414   4.955   1.796
66071W        W31232  15.728  26.412   2.232
66072W        W31233   9.148  42.192   0.797
66073W        W31234  37.299   6.978   4.310
66074W        W31235  24.806  10.603  13.889
66075W        W31236  38.008  18.286   1.147
66076W        W31237  27.926  16.298   4.622
66077W        W31238  12.965  20.946   2.283
66078W        W31239  43.409  27.405  14.506
66079W        W31240  10.465  33.832  12.557
66080W        W31241   9.137  43.147  11.986
66081W        W31242  39.821   3.444   4.000
66082W        W31243   1.381  25.764  13.067
66083W        W31244  41.447  21.126   1.319
66084W        W31245   8.281  11.075  11.898
66085W        W31246  15.636  17.594  10.593
66086W        W31247  37.589  38.850  11.090
66087W        W31248  26.109  25.093   2.341
66088W        W31249  28.649  13.644   1.352
66089W        W31250  36.515   3.991  14.401
66090W        W31251   4.839  40.104  10.327
66091W        W31252  36.822  16.799   1.751
66092W        W31253   2.029  22.651   0.340
66093W        W31254  30.598  18.523   1.870
66094W        W31255  29.378  37.833   3.143
66095W        W31256  10.481  17.100  14.976
66096W        W31257  25.340  17.261   1.444
66097W        W31258   2.625   8.946  14.370
66098W        W31259  27.518  41.988  13.628
66099W        W31260   2.870  26.932   1.737
66100W        W31261   0.115  41.391  14.434
66101W        W31262   1.719  17.556   5.546
66102W        W31263  42.970   7.218   1.797
66103W        W31264  19.235   4.933   3.737
66104W        W31265  28.665   6.831   1.430
66105W        W31266   3.791  39.774   3.419
66106W        W31267  26.031  33.096  13.753
66107W        W31268   3.428  24.833   4.486
66108W        W31269  20.703   4.900  10.945
66109W        W31270  39.971  44.268  12.442
66110W        W31271  18.790  15.190  13.448
66111W        W31272  44.030  37.646   3.879
66112W        W31273  32.689  18.547  12.455
66113W        W31274  33.080  28.138  12.544
66114W        W31275  34.395  37.446   4.811
66115W        W31276  17.775  11.850   3.184
66116W        W31277  14.549  37.176   1.876
66117W        W31278  17.096  36.834   2.380
66118W        W31279   0.300  37.196  10.721
66119W        W31280  22.755  20.289  14.077
66120W        W31281  41.447  24.502  10.548
66121W        W31282  26.470  33.767   4.144
66122W        W31283  44.779   3.298   4.055
66123W        W31284  28.583  36.580  12.415
66124W        W31285   3.360   1.436  10.887
66125W        W31286  13.254   7.799   2.759
66126W        W31287  10.838  25.960  11.978
66127W        W31288   6.221   3.273   1.882
66128W        W31289  37.156  14.375  12.529
66129W        W31290   4.865  29.695   0.231
66130W        W31291  33.612  12.162  14.502
66131W        W31292  16.069  37.865   3.593
66132W        W31293  19.283  31.890  13.060
66133W        W31294  27.130  12.747  14.725
66134W        W31295   4.168   9.134   4.580
66135W        W31296  23.869  43.134   0.860
66136W        W31297  11.077   9.664   3.307
66137W        W31298   7.898   8.153  14.406
66138W        W31299  12.283  34.343   1.361
66139W        W31300  24.482   0.717  10.922
66140W        W31301  19.559   4.427  11.082
66141W        W31302  31.372  19.028  10.633
66142W        W31303  29.876  38.329   0.899
66143W        W31304  14.594  35.052  14.745
66144W        W31305  29.119  35.390  10.729
66145W        W31306   9.171  29.583   0.364
66146W        W31307  13.824   8.401  12.074
66147W        W31308  36.382   9.102  14.652
66148W        W31309   7.926  37.941  13.909
66149W        W31310  39.447  27.673   4.499
66150W        W31311  38.083  28.399   0.554
66151W        W31312  29.540  44.978  10.673
66152W        W31313  44.516  31.402  14.355
66153W        W31314  18.827  40.403  14.610
66154W        W31315  20.265  25.481   4.151
66155W        W31316  34.131  13.775   0.008
66156W        W31317   0.025  39.580   4.057
66157W        W31318  14.815  13.721  11.604
66158W        W31319   1.003  29.938  13.628
66159W        W31320  19.682  12.164  14.418
66160W        W31321  41.768   4.486  11.205
66161W        W31322  39.406  22.449   4.159
66162W        W31323  35.334  19.360   2.435
66163W        W31324   0.024  22.571  13.776
66164W        W31325  23.238  37.819  12.960
66165W        W31326  12.293  37.506   4.650
66166W        W31327  35.967  18.123   0.685
66167W        W31328  13.652  26.542   3.194
66168W        W31329   4.547  21.174   1.355
66169W        W31330   4.866   4.777   2.121
66170W        W31331  32.002  13.470  12.849
66171W        W31332   6.988  31.896  11.910
66172W        W31333  23.575  37.097  11.631
66173W        W31334  19.252  37.584  12.909
66174W        W31335  25.719  11.176   1.256
66175W        W31336   1.080  30.452   4.078
66176W        W31337  15.471  43.824  10.699
66177W        W31338   9.698   4.320  12.190
66178W        W31339  10.786  24.931  13.007
66179W        W31340  10.218   0.977  13.986
66180W        W31341  36.017  39.514  14.442
66181W        W31342  28.229  25.581  11.960
66182W        W31343  15.519  14.690  10.354
66183W        W31344   9.294  21.988  13.784
66184W        W31345  10.319  29.417   3.175
66185W        W31346   3.697  11.198   3.730
66186W        W31347   6.191   6.904  10.282
66187W        W31348  13.815  14.511  13.986
66188W        W31349   5.399  23.972  11.419
66189W        W31350  21.779  10.295  11.990
66190W        W31351  29.185  32.687  11.106
66191W        W31352  35.326   8.755   3.709
66192W        W31353  11.915   7.153  11.466
66193W        W31354  28.158  26.110  14.028
66194W        W31355  17.794  24.668  12.568
66195W        W31356  31.036  25.050   4.824
66196W        W31357  27.486  44.057  13.044
66197W        W31358  20.492  19.560   3.282
66198W        W31359   9.591  20.251   0.994
66199W        W31360   1.240  23.712   1.846
66200W        W31361   5.752  34.650   1.791
66201W        W31362  23.947  40.227   1.836
66202W        W31363  40.414  24.422   1.722
66203W        W31364  14.018  22.229   1.802
66204W        W31365  40.405  33.936   4.709
66205W        W31366  30.486  22.085   3.844
66206W        W31367  30.607  28.436   4.717
66207W        W31368  23.703  23.921  14.717
66208W        W31369  32.262  20.653   3.085
66209W        W31370  18.822   1.377   3.752
66210W        W31371  21.251  42.820   2.432
66211W        W31372  40.644  29.922  12.017
66212W        W31373  32.305  10.697  13.422
66213W        W31374  35.860  38.034   2.738
66214W        W31375  21.043  25.110   4.303
66215W        W31376  28.843   1.383   3.708
66216W        W31377  26.484   5.910   0.984
66217W        W31378  31.101  30.720   4.481
66218W        W31379  30.196  18.329  11.455
66219W        W31380  19.744  29.971  14.083
66220W        W31381  16.215  16.355   3.649
66221W        W31382  10.841   1.738  12.513
66222W        W31383   1.501  43.910  13.624
66223W        W31384  35.725  32.880  14.895
66224W        W31385  34.524  17.464  13.975
66225W        W31386  24.028   4.413  12.557
66226W        W31387  11.655   1.989  12.061
66227W        W31388  15.285  31.374   1.736
66228W        W31389  13.591  32.551  12.165
66229W        W31390  39.731  24.412   0.787
66230W        W31391  15.153  19.828   0.665
66231W        W31392  41.755  31.589  14.412
66232W        W31393  30.477   3.766  13.444
66233W        W31394  25.047   4.491   2.653
66234W        W31395  19.077   0.542   4.184
66235W        W31396  39.772  40.752   0.899
66236W        W31397   0.619  10.872  14.044
66237W        W31398  15.203  19.298  14.338
66238W        W31399  24.480  27.828  12.556
66239W        W31400  16.376   4.895   0.999
66240W        W31401  44.076  33.481  14.879
66241W        W31402  22.681  29.372   4.118
66242W        W31403  36.438  31.140  11.476
66243W        W31404  27.226  15.657  14.939
66244W        W31405  12.382  39.416   0.390
66245W        W31406  11.592  13.300   2.930
66246W        W31407  10.319   1.443  14.964
66247W        W31408  37.871  13.656   4.315
66248W        W31409  39.349  14.295   3.647
66249W        W31410  30.430  36.524   1.901
66250W        W31411  13.111   2.098   1.352
66251W        W31412  36.638   2.113  11.662
66252W        W31413  17.228  39.561  13.839
66253W        W31414  13.734  27.555   0.247
66254W        W31415  17.348  29.152  12.207
66255W        W31416  24.910  22.950  14.743
66256W        W31417   5.431  27.714  12.078
66257W        W31418  34.237  44.459  14.304
66258W        W31419  37.558  12.290   4.853
66259W        W31420  21.179  42.118  14.782
66260W        W31421  28.082   9.092  10.722
66261W        W31422  26.474  26.399   0.952
66262W        W31423  38.102  16.651  12.817
66263W        W31424  36.550  10.983   2.174
66264W        W31425  35.018  14.699   3.221
66265W        W31426  38.984  41.608  11.232
66266W        W31427  16.825  10.416   1.796
66267W        W31428  14.220  24.012   4.069
66268W        W31429   6.411  26.781   2.867
66269W        W31430  42.597  19.048  12.029
66270W        W31431  40.861  30.369   1.269
66271W        W31432   3.700  43.780   2.807
66272W        W31433  16.877  36.431  13.549
66273W        W31434  22.023  35.383  12.584
66274W        W31435   9.618  38.830   2.847
66275W        W31436  41.449  12.829  12.005
66276W        W31437  18.193  12.719  12.071
66277W        W31438  19.778  37.292  10.657
66278W        W31439  22.086   6.994  14.351
66279W        W31440  17.033  29.464   0.978
66280W        W31441  20.694  18.736   3.858
66281W        W31442   7.256  10.961  11.034
66282W        W31443  25.353  19.551  10.081
66283W        W31444  14.096   5.645  11.542
66284W        W31445   8.885  17.628  12.982
66285W        W31446  26.481  26.314   1.663
66286W        W31447  21.484   5.822  14.898
66287W        W31448  10.807  20.185  12.217
66288W        W31449   0.883  19.814  12.115
66289W        W31450  32.451  39.390  13.856
66290W        W31451  13.827  35.084  13.379
66291W        W31452   3.707  20.757   3.348
66292W        W31453   1.969  15.153  10.806
66293W        W31454  29.546   7.441   3.131
66294W        W31455  12.690  12.119   0.395
66295W        W31456  44.429  27.155   2.342
66296W        W31457  11.079   3.035  11.879
66297W        W31458  24.160  29.750   2.383
66298W        W31459  19.418  14.946   3.104
66299W        W31460  23.696   5.464  14.844
66300W        W31461  19.215   3.177   3.295
66301W        W31462   1.775   7.156   4.618
66302W        W31463  40.552  31.974   0.956
66303W        W31464  33.430  21.214  14.984
66304W        W31465   8.830  33.932   2.403
66305W        W31466  37.175  25.712   1.525
66306W        W31467  43.577   6.065   4.139
66307W        W31468  38.360  19.861   1.823
66308W        W31469  39.818  39.355  12.503
66309W        W31470  18.715  10.394   2.262
66310W        W31471  18.621   7.281   2.882
66311W        W31472  39.127  12.072   0.041
66312W        W31473  10.746  22.210   1.161
66313W        W31474   3.578  19.426   3.982
66314W        W31475  37.507  42.333  12.078
66315W        W31476  40.939  28.060   3.385
66316W        W31477  36.357  39.106  14.857
66317W        W31478  41.327  40.459   0.855
66318W        W31479  23.961   7.900   3.829
66319W        W31480   9.136   2.557   4.322
66320W        W31481  25.407   1.776  12.944
66321W        W31482  13.297   9.591   0.411
66322W        W31483  41.412  40.277  10.658
66323W        W31484  32.538   7.912  14.450
66324W        W31485  39.037  26.982   3.907
66325W        W31486  34.554  22.776  14.050
66326W        W31487  42.004  11.706  11.641
66327W        W31488  37.974  30.466  10.779
66328W        W31489  33.551   7.952   2.274
66329W        W31490  37.569  16.289  11.564
66330W        W31491  25.962   0.902   3.782
66331W        W31492  11.315  43.259  13.885
66332W        W31493  31.555  27.667   4.685
66333W        W31494  35.030   4.916  11.247
66334W        W31495  20.317   6.418  10.671
66335W        W31496  26.528   7.627  12.985
66336W        W31497  43.457  12.817   4.428
66337W        W31498  20.629   7.595   4.137
66338W        W31499   5.898  21.883  14.654
66339W        W31500  21.592  21.505  11.652
66340W        W31501  44.953  27.440   2.816
66341W        W31502  37.452  29.357   3.409
66342W        W31503  29.906  30.238   2.668
66343W        W31504  25.715  32.639  11.202
66344W        W31505  39.954   7.914   1.865
66345W        W31506   6.393  29.786  10.713
66346W        W31507  24.108  18.373   2.632
66347W        W31508  40.450   6.025  10.513
66348W        W31509  12.975   3.392  14.673
66349W        W31510  28.019  20.746   2.625
66350W        W31511   6.973  18.816  11.206
66351W        W31512   2.401  34.559  11.424
66352W        W31513   1.770   0.634  12.602
66353W        W31514  12.877  29.981  13.159
66354W        W31515  31.387  44.275  14.058
66355W        W31516   5.191  22.633  13.361
66356W        W31517  44.038  24.710   2.888
66357W        W31518  35.890   9.846  14.736
66358W        W31519  21.021  11.628   2.897
66359W        W31520   3.847  30.711   2.069
66360W        W31521  26.496  14.049   4.099
66361W        W31522  24.817  30.705   2.745
66362W        W31523  39.018   5.301   4.632
66363W        W31524  17.204  37.881   3.328
66364W        W31525  20.088  27.177  11.135
66365W        W31526  35.183  14.617   1.905
66366W        W31527  14.229   3.747  11.334
66367W        W31528   3.963   5.592  11.586
66368W        W31529  18.587   6.767   2.888
66369W        W31530  10.905  11.856  12.508
66370W        W31531  43.765   2.756   3.708
66371W        W31532  10.852  20.769  10.943
66372W        W31533  23.314  11.771   3.706
66373W        W31534  35.014  17.610   3.148
66374W        W31535  37.849  20.722  14.732
66375W        W31536   3.057   7.222  14.429
66376W        W31537  14.781  33.039   1.871
66377W        W31538  20.680  39.426   1.799
66378W        W31539  32.166  35.660   3.337
66379W        W31540  35.393   0.921   2.765
66380W        W31541  22.635  26.780  12.156
66381W        W31542  19.598  36.370  13.519
66382W        W31543  22.246   6.875   3.826
66383W        W31544  41.363   6.872   2.699
66384W        W31545   5.257  42.499   2.144
66385W        W31546  30.942   9.369   1.141
66386W        W31547  12.168  19.640  10.712
66387W        W31548  25.452  16.390  10.203
66388W        W31549  10.375  27.867  12.893
66389W        W31550  17.176   2.986   4.630
66390W        W31551  39.806  13.644  13.984
66391W        W31552  16.785  32.592  11.655
66392W        W31553  10.574  33.321   0.219
66393W        W31554  16.724  23.449   2.598
66394W        W31555  11.417   0.870   3.320
66395W        W31556  35.477   3.325  11.406
66396W        W31557   7.140  22.655   2.439
66397W        W31558   9.761  37.560  12.799
66398W        W31559  30.032  34.219  13.419
66399W        W31560  36.548  43.971  12.346
66400W        W31561  32.481  17.604  13.317
66401W        W31562  12.778  22.685   1.374
66402W        W31563  17.008  19.449  11.134
66403W        W31564  24.914   9.644  11.762
66404W        W31565   0.421  23.195  10.815
66405W        W31566  40.868  29.641   1.685
66406W        W31567  18.764  25.126   1.282
66407W        W31568  30.230  18.799  13.813
66408W        W31569  36.031  25.044   3.393
66409W        W31570  38.573  14.850   4.045
66410W        W31571  37.783   9.619   4.437
66411W        W31572   4.768   4.149  12.116
66412W        W31573  26.701  23.660   1.490
66413W        W31574  17.760  36.513  11.639
66414W        W31575  39.422  12.542   4.639
66415W        W31576  16.242  35.304  13.027
66416W        W31577  16.890  27.829  10.312
66417W        W31578  16.090  22.320   0.858
66418W        W31579  38.841  31.829   5.269
66419W        W31580  38.199   2.194  14.833
66420W        W31581  18.135  15.542   2.221
66421W        W31582  10.729  19.587   1.454
66422W        W31583  14.181  24.080  13.096
66423W        W31584  18.322   2.377   4.395
66424W        W31585  21.022  18.226  11.742
66425W        W31586  12.145   1.360   4.158
66426W        W31587  30.060   0.707  12.926
66427W        W31588   7.038  12.785   1.234
66428W        W31589  20.036  28.421   2.845
66429W        W31590  35.355   8.928  13.566
66430W        W31591  29.090  32.010  12.453
66431W        W31592   3.006  41.317  11.228
66432W        W31593   8.486   5.771   2.667
66433W        W31594  38.295   7.662   3.621
66434W        W31595  15.375  37.518   5.032
66435W        W31596  12.615  32.741  13.051
66436W        W31597  18.086   4.119  11.623
66437W        W31598  36.650  25.106   1.661
66438W        W31599  28.379  23.338  12.852
66439W        W31600  38.369  29.192   4.262
66440W        W31601  35.191   8.213   4.081
66441W        W31602  26.210  44.231   3.869
66442W        W31603   0.236  29.961   1.078
66443W        W31604  32.381  32.952  12.827
66444W        W31605  37.087  36.053   1.775
66445W        W31606  28.522  22.034  14.351
66446W        W31607   4.034   7.987   1.813
66447W        W31608  11.303   5.392   0.856
66448W        W31609  43.421  31.493  14.241
66449W        W31610  36.396  21.614  12.862
66450W        W31611   9.749   6.322  12.498
66451W        W31612  11.218   0.907  12.507
66452W        W31613  35.004   4.113  11.496
66453W        W31614   5.681  42.909   0.838
66454W        W31615  24.010  21.527   5.497
66455W        W31616  15.921  11.238   0.767
66456W        W31617   8.272  18.131   1.254
66457W        W31618  10.449  15.652   1.720
66458W        W31619  37.409  27.587  11.929
66459W        W31620   7.918  15.980  13.416
66460W        W31621  24.045  40.736   0.276
66461W        W31622  10.828  18.761  10.650
66462W        W31623  44.722  30.189  14.686
66463W        W31624  41.951  30.623   1.979
66464W        W31625  18.796  18.027  14.467
66465W        W31626  40.970  41.484   0.794
66466W        W31627   1.539   9.801   1.887
66467W        W31628  30.778   4.183  12.110
66468W        W31629  28.181  23.776  14.271
66469W        W31630   5.286   3.842   3.367
66470W        W31631   3.661   5.019  10.738
66471W        W31632  35.554  13.602  14.831
66472W        W31633  23.278  35.241   0.379
66473W        W31634  30.003  14.347   1.105
66474W        W31635  44.082  13.364   3.807
66475W        W31636   5.430   2.745   0.357
66476W        W31637  21.840  29.499   2.355
66477W        W31638  39.377  37.291  13.361
66478W        W31639   4.856  11.084   0.844
66479W        W31640  41.812  41.207   0.567
66480W        W31641  11.233  34.352  14.772
66481W        W31642  38.528  44.512   2.721
66482W        W31643  23.679  42.441   4.708
66483W        W31644  13.647  28.566  13.785
66484W        W31645  34.461   7.660  10.766
66485W        W31646  35.650  36.162   1.936
66486W        W31647  30.932  39.316   4.595
66487W        W31648  22.284  24.241  12.951
66488W        W31649  36.489  21.474  11.500
66489W        W31650  25.181   2.720   1.421
66490W        W31651  28.996  38.404   1.155
66491W        W31652   2.824  16.090  11.079
66492W        W31653  29.949  15.165   1.012
66493W        W31654  20.574  10.341   1.374
66494W        W31655  31.003   2.446  10.739
66495W        W31656  18.583  12.415   1.340
66496W        W31657  30.193  31.093   0.753
66497W        W31658  43.305  11.374   4.304
66498W        W31659   7.317  44.828  11.431
66499W        W31660  10.091  26.621  10.140
66500W        W31661   8.886  22.034  10.937
66501W        W31662  19.116  28.113  12.910
66502W        W31663   0.834  34.304  14.706
66503W        W31664  35.403  35.927   2.423
66504W        W31665  22.423  32.967   2.148
66505W        W31666  31.565  15.737  13.049
66506W        W31667  35.957   1.209   0.408
66507W        W31668  26.629  29.474  11.987
66508W        W31669  41.397   5.156  12.434
66509W        W31670  17.672  27.284   2.735
66510W        W31671   8.001  41.518  13.795
66511W        W31672   5.757  18.471   4.282
66512W        W31673   0.534  26.768   0.217
66513W        W31674  11.804  34.356   3.305
66514W        W31675  25.641  21.233   4.311
66515W        W31676  25.576  13.947  10.322
66516W        W31677  17.597  43.424   0.380
66517W        W31678  11.661   8.667   1.947
66518W        W31679  10.619  33.135  10.688
66519W        W31680  40.895   2.523   2.387
66520W        W31681  17.059  41.655   5.419
66521W        W31682  41.427   6.871  12.561
66522W        W31683  26.470   1.143   3.690
66523W        W31684  15.186  35.041  10.435
66524W        W31685  37.686  38.816   3.221
66525W        W31686  40.727  39.324   1.705
66526W        W31687   3.986  18.147  11.997
66527W        W31688   8.570  30.105   4.630
66528W        W31689   6.180  22.848  10.351
66529W        W31690   6.312  21.132   3.488
66530W        W31691  17.801  18.217  11.147
66531W        W31692   6.450  21.631   3.578
66532W        W31693  42.030  37.628  10.714
66533W        W31694  11.561  15.171  13.356
66534W        W31695   6.123   1.032   0.398
66535W        W31696   7.403  30.051  12.087
66536W        W31697  12.240  44.306   1.378
66537W        W31698  42.517  24.960  12.908
66538W        W31699  43.589  43.469  11.079
66539W        W31700   3.882  12.933  13.026
66540W        W31701   7.641  32.070   3.697
66541W        W31702   2.798  25.709  12.955
66542W        W31703  22.078  29.712   0.401
66543W        W31704  44.973  26.225   1.440
66544W        W31705  17.870  42.085  11.684
66545W        W31706  26.173  28.688  14.756
66546W        W31707   9.888   8.350  14.223
66547W        W31708  41.073  18.103  12.908
66548W        W31709  18.330  37.396  11.612
66549W        W31710  29.091   1.841  13.580
66550W        W31711  14.121  15.021  11.506
66551W        W31712  37.089  14.711  11.143
66552W        W31713  36.468   7.966   3.102
66553W        W31714  36.394  31.059   1.902
66554W        W31715  14.672   0.077   1.899
66555W        W31716  36.561  40.358   3.149
66556W        W31717   6.763  13.601  11.703
66557W        W31718  11.093  20.900  12.650
66558W        W31719   4.310  38.340   2.176
66559W        W31720  20.758   8.634  13.856
66560W        W31721  30.501  35.803   4.536
66561W        W31722  10.155  19.704   2.176
66562W        W31723   8.319  32.898   0.926
66563W        W31724  39.415  17.636   1.354
66564W        W31725  11.098   0.465   1.189
66565W        W31726  16.344   9.621   2.735
66566W        W31727  27.882  10.712   5.075
66567W        W31728  23.362  37.493   0.743
66568W        W31729  11.193   2.301  10.633
66569W        W31730  44.468  18.581   3.179
66570W        W31731  32.924  27.081   1.375
66571W        W31732  35.405  18.365  11.454
66572W        W31733  24.043  28.670  12.621
66573W        W31734  26.493   2.210  12.505
66574W        W31735  33.024  24.096  13.768
66575W        W31736  31.045  19.725   0.733
66576W        W31737   4.352  34.447  12.224
66577W        W31738  10.211  35.370  12.803
66578W        W31739  26.211  16.820  13.483
66579W        W31740  19.015  31.170   4.210
66580W        W31741  38.282  12.805   0.379
66581W        W31742   9.077  19.692   1.931
66582W        W31743  23.647  22.025  13.338
66583W        W31744  20.525  36.026   2.737
66584W        W31745  22.957  22.040  14.257
66585W        W31746  19.363   1.690   0.455
66586W        W31747  10.049   6.204   0.353
66587W        W31748  43.471  27.532   2.898
66588W        W31749  32.588  19.977   3.535
66589W        W31750  41.495  11.791   3.128
66590W        W31751  37.565  16.613   3.078
66591W        W31752  26.644  13.276  12.192
66592W        W31753  35.989  35.498   3.250
66593W        W31754   2.696  33.606  13.439
66594W        W31755  28.533   4.796  14.013
66595W        W31756  28.721  19.959  12.679
66596W        W31757  11.637  31.945   2.820
66597W        W31758   6.617  28.573  11.848
66598W        W31759  13.308  36.229  13.780
66599W        W31760  44.427   8.866   3.443
66600W        W31761   6.443  38.890   4.884
66601W        W31762  39.585  20.053   3.178
66602W        W31763  21.414  38.940   3.873
66603W        W31764  11.776  14.678  13.483
66604W        W31765   7.466  16.113   1.246
66605W        W31766   0.451  10.775  14.518
66606W        W31767  27.664  10.655   4.596
66607W        W31768  27.795   5.205  13.774
66608W        W31769  22.218   8.683   4.500
66609W        W31770  27.297  42.253   3.849
66610W        W31771  26.678  44.427   0.791
66611W        W31772  22.630  42.528  12.965
66612W        W31773  17.764  20.897   3.183
66613W        W31774  18.305  26.926   3.327
66614W        W31775  18.973  26.516   3.585
66615W        W31776   2.749  24.791  13.039
66616W        W31777  29.559  42.974  10.556
66617W        W31778  21.717  33.052  14.951
66618W        W31779  15.639   9.689   4.881
66619W        W31780  22.509  15.708   2.689
66620W        W31781  29.963  27.266  12.463
66621W        W31782  13.744  22.693   1.939
66622W        W31783  26.985  25.049   3.276
66623W        W31784  32.361  14.281  14.940
66624W        W31785  14.442  17.703   0.938
66625W        W31786  43.518  32.853  14.516
66626W        W31787  26.963   0.749   3.699
66627W        W31788   9.113  42.241  14.338
66628W        W31789   8.273  33.447   1.951
66629W        W31790  36.815  16.544  11.175
66630W        W31791  19.808  43.746   2.664
66631W        W31792   7.624  14.747  13.069
66632W        W31793   2.485  42.039  10.722
66633W        W31794  14.675  41.200  12.090
66634W        W31795  13.621  40.990   5.600
66635W        W31796   1.038  30.368  11.493
66636W        W31797   7.924  13.283   4.795
66637W        W31798  31.968  31.423   0.384
66638W        W31799   2.502  43.001   2.320
66639W        W31800  29.113  36.454   3.943
66640W        W31801  43.952   4.171  10.657
66641W        W31802  23.838   1.522  10.693
66642W        W31803  19.082  13.838   3.763
66643W        W31804  43.954  32.521   4.617
66644W        W31805   9.831  30.630  11.701
66645W        W31806  27.899   4.517   0.384
66646W        W31807  13.649  33.215   2.427
66647W        W31808  15.012  12.897   2.323
66648W        W31809  31.996  19.017  11.187
66649W        W31810  23.812  34.584  12.464
66650W        W31811   8.946   9.748   3.128
66651W        W31812  25.964  14.286  12.515
66652W        W31813  12.259  41.477   3.781
66653W        W31814  16.714  41.905   3.687
66654W        W31815  30.699  32.617   2.723
66655W        W31816  17.748  11.686   0.080
66656W        W31817   3.701  35.165   1.734
66657W        W31818  44.944   2.235   0.641
66658W        W31819   4.587  39.664  10.526
66659W        W31820  35.174  24.767  12.821
66660W        W31821  26.041  18.967  13.948
66661W        W31822  25.638  39.576   5.008
66662W        W31823  26.382   1.374   4.165
66663W        W31824  23.177  19.635  11.916
66664W        W31825   6.737  16.613   4.256
66665W        W31826  15.817  36.959  14.204
66666W        W31827  26.459  40.490   0.899
66667W        W31828   2.405  13.347  13.324
66668W        W31829  39.459  27.479  12.552
66669W        W31830   0.661  40.021   3.384
66670W        W31831  24.143  20.081  14.429
66671W        W31832  39.623   9.173   0.365
66672W        W31833  15.547  28.933   2.689
66673W        W31834  25.062  32.630  11.710
66674W        W31835   6.739  26.380  14.379
66675W        W31836  13.387  41.884  11.488
66676W        W31837  40.990  20.319   0.034
66677W        W31838  22.131  26.336  14.869
66678W        W31839   4.370  18.446  12.203
66679W        W31840  34.937  23.792   2.384
66680W        W31841  22.194  19.535  10.599
66681W        W31842  23.029  36.761   3.333
66682W        W31843   2.901  21.618  13.800
66683W        W31844  32.575  34.097  14.748
66684W        W31845  31.631  22.462  14.400
66685W        W31846  13.262   2.709   0.665
66686W        W31847  27.487  35.294   4.305
66687W        W31848   0.683  42.833  12.875
66688W        W31849   4.270  21.630   1.279
66689W        W31850  39.910  33.628  11.678
66690W        W31851  15.658  10.809   4.642
66691W        W31852  32.736  44.487  11.047
66692W        W31853  11.107  12.674   1.360
66693W        W31854   5.682  30.694  14.502
66694W        W31855  39.550   7.267  11.173
66695W        W31856   2.445  15.622  13.425
66696W        W31857  35.489  22.605   0.886
66697W        W31858  43.903  17.403  12.338
66698W        W31859  25.123  40.037   2.742
66699W        W31860   6.233  30.302   4.098
66700W        W31861  42.301  19.142   3.645
66701W        W31862  36.101  19.175   0.913
66702W        W31863  12.274   7.709  13.358
66703W        W31864  12.343  32.130   1.189
66704W        W31865  10.269  34.986   2.806
66705W        W31866  22.158  31.127   3.862
66706W        W31867  39.769  43.949  12.030
66707W        W31868  33.158  36.423  12.573
66708W        W31869   1.910  36.788  12.021
66709W        W31870   0.389  41.405   2.272
66710W        W31871   5.603   8.376   2.335
66711W        W31872   9.823   1.007  10.367
66712W        W31873  20.592   7.289   4.940
66713W        W31874   9.798   9.074   3.084
66714W        W31875  33.490  44.732  10.681
66715W        W31876  23.543  34.367   1.182
66716W        W31877  23.427  35.889  14.507
66717W        W31878  19.777  29.046  11.125
66718W        W31879   9.765  26.754   1.260
66719W        W31880   4.942  29.565  12.109
66720W        W31881  39.043   0.357  12.023
66721W        W31882   4.928   0.111   0.218
66722W        W31883   6.392   0.313  10.766
66723W        W31884   0.871  41.846   3.234
66724W        W31885  34.432  10.701   3.701
66725W        W31886   7.187  10.185   2.896
66726W        W31887  21.255  44.087  12.717
66727W        W31888  35.122  12.648  14.925
66728W        W31889   6.693  20.167  11.189
66729W        W31890  18.294  10.310  14.720
66730W        W31891   9.006  38.099   2.318
66731W        W31892   3.170  25.259   4.763
66732W        W31893   4.386  36.901   1.646
66733W        W31894   1.974   1.820  12.992
66734W        W31895   3.786  36.668  10.506
66735W        W31896  37.836  42.821   1.166
66736W        W31897   6.343  36.390  11.028
66737W        W31898  34.332  23.610   4.238
66738W        W31899  42.954  11.590   2.484
66739W        W31900  13.344  14.579   1.231
66740W        W31901  14.393   0.893   0.314
66741W        W31902  42.110  21.505   3.265
66742W        W31903   6.858  37.890   4.812
66743W        W31904  29.041  30.909  11.442
66744W        W31905  21.513  27.747   1.478
66745W        W31906  43.620  19.161   1.884
66746W        W31907  18.898  13.439  12.447
66747W        W31908  16.718  42.917   0.832
66748W        W31909   7.380  37.335   3.519
66749W        W31910  11.547  25.960   3.673
66750W        W31911  36.927   5.935  12.846
66751W        W31912  17.272   5.229   4.302
66752W        W31913  28.060   5.256   0.963
66753W        W31914  13.292   1.726  11.452
66754W        W31915   3.660  14.096   3.747
66755W        W31916   4.368   4.817   3.798
66756W        W31917  39.696   5.402  14.820
66757W        W31918  26.696  37.629   3.768
66758W        W31919  18.573  17.549   1.918
66759W        W31920   2.756  14.411   0.323
66760W        W31921   1.541   8.158   1.462
66761W        W31922  38.174  41.949   3.693
66762W        W31923  42.329  16.633  11.330
66763W        W31924  12.276   8.431  14.078
66764W        W31925  33.679  32.114   1.335
66765W        W31926   7.098  40.913  13.385
66766W        W31927  30.426  30.661  13.346
66767W        W31928  36.537  31.846  14.835
66768W        W31929  19.554  19.312   0.955
66769W        W31930  24.246   4.340  12.079
66770W        W31931  20.833  26.645   4.620
66771W        W31932   3.061  10.176   4.696
66772W        W31933  36.032  27.143   4.612
66773W        W31934  29.582  21.206   2.350
66774W        W31935  28.937  35.367   3.245
66775W        W31936  28.178   8.982   1.434
66776W        W31937  17.225  30.447  11.598
66777W        W31938   7.843  43.339   1.491
66778W        W31939  23.617  13.920  11.163
66779W        W31940  20.100   2.712  11.388
66780W        W31941  20.430  42.536  13.912
66781W        W31942   0.706  32.919  13.938
66782W        W31943  21.763  44.814  12.610
66783W        W31944  17.699   0.994  13.135
66784W        W31945   9.973  27.929   4.360
66785W        W31946  19.177   2.826  11.383
66786W        W31947  26.972   9.882   1.317
66787W        W31948   3.509  25.149  12.493
66788W        W31949  40.823  43.904  12.670
66789W        W31950  11.667  24.970  11.877
66790W        W31951  39.799  11.311   0.867
66791W        W31952  25.072  19.856  13.531
66792W        W31953   8.475   5.977   0.896
66793W        W31954  17.657   4.785  12.468
66794W        W31955  14.289  37.448   3.172
66795W        W31956  13.541  29.067   0.241
66796W        W31957  28.158  30.609   9.933
66797W        W31958  41.878  40.358  13.879
66798W        W31959  42.374  23.556   2.721
66799W        W31960  19.467   5.564  13.545
66800W        W31961  40.240   9.304   2.654
66801W        W31962  21.700  24.689   4.113
66802W        W31963  32.917  12.878  14.760
66803W        W31964  41.199  14.222  14.232
66804W        W31965  21.210  16.776  13.314
66805W        W31966  11.643  14.701  14.405
66806W        W31967  39.799  13.163  14.519
66807W        W31968  33.386  20.324  12.979
66808W        W31969  24.309  24.527  14.413
66809W        W31970   6.470  31.678   3.449
66810W        W31971  44.284   3.746   4.657
66811W        W31972  13.588  17.309  13.400
66812W        W31973   1.152  23.038  11.536
66813W        W31974  33.172  42.893   2.226
66814W        W31975  36.882   5.930   0.350
66815W        W31976  40.450  27.031   1.358
66816W        W31977  11.299  37.536  13.345
66817W        W31978  28.729  15.705  11.999
66818W        W31979  12.789  30.375  10.781
66819W        W31980   8.450  15.212  10.894
66820W        W31981   8.407   0.992  11.131
66821W        W31982  36.545  24.527  14.962
66822W        W31983  10.944  44.309   3.934
66823W        W31984  12.219   0.279   0.786
66824W        W31985  38.628  22.449  11.589
66825W        W31986  36.903  25.734  12.598
66826W        W31987  11.201  43.825   0.751
66827W        W31988  11.236   2.065   2.164
66828W        W31989   7.156  25.489   5.506
66829W        W31990   4.361  34.417   3.757
66830W        W31991  27.604   3.951  10.684
66831W        W31992   7.813   9.066   3.463
66832W        W31993   5.810  23.100   4.939
66833W        W31994  19.241  10.327   3.867
66834W        W31995  14.498  27.717  10.272
66835W        W31996  32.365  16.949  14.560
66836W        W31997  44.603  34.478  11.699
66837W        W31998  12.859  27.887   1.768
66838W        W31999  23.769  18.076   0.841
66839W        W32000  27.642  31.820  10.637
66840W        W32001  41.078   5.010   0.836
66841W        W32002  20.027  35.522  10.805
66842W        W32003   5.082  25.184  14.023
66843W        W32004  11.713  21.405  14.936
66844W        W32005  23.448   9.233  14.222
66845W        W32006  16.210  19.286   3.583
66846W        W32007  44.990  20.319   0.944
66847W        W32008  30.914  44.340  12.364
66848W        W32009  40.137   9.223  10.750
66849W        W32010  44.272  24.487  11.833
66850W        W32011  16.364  24.293   3.687
66851W        W32012  24.143  12.312   0.720
66852W        W32013  31.381  35.508   3.750
66853W        W32014   7.934  36.217  14.316
66854W        W32015  32.677  10.330  13.448
66855W        W32016  44.820  13.243   2.829
66856W        W32017   3.074  11.164  14.050
66857W        W32018   5.826  36.689  11.778
66858W        W32019  30.712   4.121  11.200
66859W        W32020  16.568  18.169  13.158
66860W        W32021  42.484  22.520  13.507
66861W        W32022  43.954  38.253  14.329
66862W        W32023  11.983   0.380  12.148
66863W        W32024  38.020  42.831   4.639
66864W        W32025  22.309   7.222   0.552
66865W        W32026  23.127  12.415   4.200
66866W        W32027  13.732  28.680   4.134
66867W        W32028  26.135   8.854   0.070
66868W        W32029  27.540  28.376  12.022
66869W        W32030  37.972  37.789   4.858
66870W        W32031  24.041  32.888   0.051
66871W        W32032  43.248   9.764   0.522
66872W        W32033  12.622   2.257  13.057
66873W        W32034  28.470  40.488   2.730
66874W        W32035  26.756  14.212  13.865
66875W        W32036  26.645  33.202   9.989
66876W        W32037  39.880   8.221  12.568
66877W        W32038  33.522  42.153   5.019
66878W        W32039  23.589   8.751  14.359
66879W        W32040   2.332   4.699  13.918
66880W        W32041  21.725   4.011  14.272
66881W        W32042  37.110  25.364  14.739
66882W        W32043  32.068  18.741   0.742
66883W        W32044  38.727  11.412  14.424
66884W        W32045  40.321  18.291   4.955
66885W        W32046  12.773   6.421  12.331
66886W        W32047   6.882  34.339  12.426
66887W        W32048   4.041   2.304  12.525
66888W        W32049   0.225  30.625   3.741
66889W        W32050  44.519  28.505   4.460
66890W        W32051  28.995  44.698  12.104
66891W        W32052  23.118  31.157   0.338
66892W        W32053   6.291  22.498   0.386
66893W        W32054  31.614   0.050   4.695
66894W        W32055  41.806  27.053  13.509
66895W        W32056  24.621  15.098  12.268
66896W        W32057  39.411  12.023  14.412
66897W        W32058  15.888  26.487  10.109
66898W        W32059  21.601  17.419  11.923
66899W        W32060  27.270  44.310   3.865
66900W        W32061  42.964  17.910  14.542
66901W        W32062  17.108   2.237  12.286
66902W        W32063  22.052  21.575  14.687
66903W        W32064  41.101   8.965  12.393
66904W        W32065  13.126  29.556   4.442
66905W        W32066  14.319  13.674  10.960
66906W        W32067  27.601  33.536   3.621
66907W        W32068  40.988  29.234   4.500
66908W        W32069  32.054  20.701   3.818
66909W        W32070  44.037   2.268  12.934
66910W        W32071   9.676  32.914  12.216
66911W        W32072  19.035   6.390  11.148
66912W        W32073  41.040  44.100  13.082
66913W        W32074  29.923  25.293   3.659
66914W        W32075   1.376  39.872   0.767
66915W        W32076   7.076  27.080   3.937
66916W        W32077   3.808  29.236   4.971
66917W        W32078   9.203  39.645  11.639
66918W        W32079  27.136  43.916  14.355
66919W        W32080  19.010  27.439   0.882
66920W        W32081   6.526  23.202   3.692
66921W        W32082   1.863   0.721   4.005
66922W        W32083  17.566   9.766   4.667
66923W        W32084  33.396  40.473   4.461
66924W        W32085  29.087  40.097   1.429
66925W        W32086  14.088   6.280   4.534
66926W        W32087  31.898  11.569   0.248
66927W        W32088  34.584  16.668  10.624
66928W        W32089  25.659  21.569  13.903
66929W        W32090  30.256  39.729   3.360
66930W        W32091  19.605  26.122   4.359
66931W        W32092   9.876  40.505   4.596
66932W        W32093  32.954  42.288   4.013
66933W        W32094   8.787  31.349   0.888
66934W        W32095  43.124   3.424   0.392
66935W        W32096   8.492   4.017   0.889
66936W        W32097  42.495  13.011  11.636
66937W        W32098  26.417  27.961  11.269
66938W        W32099   6.945  19.633  11.875
66939W        W32100   6.887  27.758  13.389
66940W        W32101  18.148  42.918  13.264
66941W        W32102  32.887   5.881   2.752
66942W        W32103  12.633  44.166  13.734
66943W        W32104  19.964  37.806   0.085
66944W        W32105  14.734  27.400  12.534
66945W        W32106  42.730  37.238   3.663
66946W        W32107   5.069   8.301   2.277
66947W        W32108  27.882  42.351   0.868
66948W        W32109  43.767  10.210   2.312
66949W        W32110   1.551  14.402  10.391
66950W        W32111  22.071  26.335   1.257
66951W        W32112   6.799   2.474   2.275
66952W        W32113  11.444  37.311  11.444
66953W        W32114  28.106  17.030  13.405
66954W        W32115  28.002  12.034  13.811
66955W        W32116  25.208   9.775   5.025
66956W        W32117   1.028  10.685  10.597
66957W        W32118   6.895  10.892  12.086
66958W        W32119  19.199  25.099  10.792
66959W        W32120  24.242  37.691  12.348
66960W        W32121  10.211   2.677  12.131
66961W        W32122  14.589   6.835   0.887
66962W        W32123   6.378   6.243   0.377
66963W        W32124  11.325  15.510   4.202
66964W        W32125  28.547  29.168   1.746
66965W        W32126  28.637  40.154   4.931
66966W        W32127   2.385  33.028   3.408
66967W        W32128   0.081  10.204   1.745
66968W        W32129   8.662  21.895  12.355
66969W        W32130  27.183   8.891   1.183
66970W        W32131  40.010   5.814  14.881
66971W        W32132   6.551  12.621  14.833
66972W        W32133   1.408  28.914  11.323
66973W        W32134  16.980  29.101  10.398
66974W        W32135   3.859  39.820  11.686
66975W        W32136  42.610  27.214  12.031
66976W        W32137   4.695  16.288  14.938
66977W        W32138  26.911  18.752  13.528
66978W        W32139  39.117  44.647  12.613
66979W        W32140   0.397  13.589  13.427
66980W        W32141   4.776  28.074  12.989
66981W        W32142  31.159   5.706  10.670
66982W        W32143  28.026   2.313  12.630
66983W        W32144  24.195  16.326  12.048
66984W        W32145  14.655  12.766   2.683
66985W        W32146  22.631  25.116  12.525
66986W        W32147  37.954  21.450  11.063
66987W        W32148  26.761  41.484  12.042
66988W        W32149  30.438  44.315  14.524
66989W        W32150  28.889  31.396   2.208
66990W        W32151  44.862  23.627   2.793
66991W        W32152   4.153   9.389  11.563
66992W        W32153  33.947  41.120  12.434
66993W        W32154   7.151  22.911  14.431
66994W        W32155   2.891   8.136  14.375
66995W        W32156  12.395  20.766   3.592
66996W        W32157  30.054  33.462   3.664
66997W        W32158   8.396  16.558  10.909
66998W        W32159  34.309  13.053  10.734
66999W        W32160  39.214  43.831  10.211
67000W        W32161  11.900  37.740   2.726
67001W        W32162   6.304   0.956  12.843
67002W        W32163   8.367  18.795   2.223
67003W        W32164  42.777  19.406   0.388
67004W        W32165   6.143  13.569   2.437
67005W        W32166  17.070  37.901  10.635
67006W        W32167  39.040  10.998  14.404
67007W        W32168  16.023  17.991   0.786
67008W        W32169  17.175  34.361   0.254
67009W        W32170  18.509  18.570   2.155
67010W        W32171  26.637  13.052   0.466
67011W        W32172  35.313  43.409  13.028
67012W        W32173  34.448  22.779  12.671
67013W        W32174  13.249  12.253   1.884
67014W        W32175   8.249  11.859  11.464
67015W        W32176  24.766   7.779   1.738
67016W        W32177   9.716   3.729   3.148
67017W        W32178  24.878  37.378   2.687
67018W        W32179  40.951   5.495   0.881
67019W        W32180  21.206  12.765  10.315
67020W        W32181  24.524  15.134   3.712
67021W        W32182   4.314   2.060   1.964
67022W        W32183  12.369  32.042  14.824
67023W        W32184  25.460   7.884   3.167
67024W        W32185   8.660  29.004   3.137
67025W        W32186  32.895  10.869   2.756
67026W        W32187  22.939  20.249   0.708
67027W        W32188   7.739  27.693   2.314
67028W        W32189  13.655  19.105   0.468
67029W        W32190  17.104  39.348   2.767
67030W        W32191  25.952   1.813  12.670
67031W        W32192  14.811  31.490   4.740
67032W        W32193  38.664  15.274   3.144
67033W        W32194  27.032  21.994   0.793
67034W        W32195   3.572  26.533   3.589
67035W        W32196  43.821  17.026  12.648
67036W        W32197  16.573  25.114   4.398
67037W        W32198   1.752  12.425  13.752
67038W        W32199  14.846  32.146   1.894
67039W        W32200  38.022  12.104   1.378
67040W        W32201  14.154   1.819   4.104
67041W        W32202  32.637   3.053  10.754
67042W        W32203  44.871  37.318  14.769
67043W        W32204  43.975   0.083  10.439
67044W        W32205  27.454  20.280   2.025
67045W        W32206  35.828  41.943   3.633
67046W        W32207  41.568  10.344   1.876
67047W        W32208  30.182  13.155  12.873
67048W        W32209  12.261   5.925  12.002
67049W        W32210  28.665  36.515   3.720
67050W        W32211  23.959  30.536  12.177
67051W        W32212  38.424  23.409  11.679
67052W        W32213  28.944   6.273   4.687
67053W        W32214   7.654   0.844   2.247
67054W        W32215   6.670  22.065  14.906
67055W        W32216  24.564  28.010   0.296
67056W        W32217  30.971  37.082  11.534
67057W        W32218  40.456  32.419  13.242
67058W        W32219  40.138  44.015   0.919
67059W        W32220  27.251  26.555   0.414
67060W        W32221  25.053   9.619   3.692
67061W        W32222   5.758  25.543  12.707
67062W        W32223  13.903   5.166  13.209
67063W        W32224   2.793   7.802   2.336
67064W        W32225  40.917  32.139   4.106
67065W        W32226  40.065  39.930  10.528
67066W        W32227  13.156  43.385   2.303
67067W        W32228  17.643   6.222   0.027
67068W        W32229  29.011  12.626   0.772
67069W        W32230  15.567  41.112   0.530
67070W        W32231  39.169   3.195  13.911
67071W        W32232  42.838  40.512  10.242
67072W        W32233   6.803  32.674  13.864
67073W        W32234   2.679  21.689   3.166
67074W        W32235  31.328  42.372   2.303
67075W        W32236  40.115  10.439   2.732
67076W        W32237  20.226  40.334   4.561
67077W        W32238  38.570   1.244  10.773
67078W        W32239  16.280  32.595  12.878
67079W        W32240  37.941   3.885  10.660
67080W        W32241  26.650   3.181   5.069
67081W        W32242  22.499   3.794  13.500
67082W        W32243  27.633  29.229  10.818
67083W        W32244  41.597  37.001  14.017
67084W        W32245  39.114  20.247   3.083
67085W        W32246  14.625  11.222  13.979
67086W        W32247  23.232  20.202   5.048
67087W        W32248  25.760  19.425   4.944
67088W        W32249  34.574   9.779   2.356
67089W        W32250  19.767  14.373  10.228
67090W        W32251   8.889  16.526  14.493
67091W        W32252  31.317  25.618  12.344
67092W        W32253  39.964  10.219   4.121
67093W        W32254  30.546  21.622   3.602
67094W        W32255  42.425  28.786   1.835
67095W        W32256   2.938  34.079  13.451
67096W        W32257   3.562  11.238   2.296
67097W        W32258  19.637  15.136   4.605
67098W        W32259  10.268  19.863   4.576
67099W        W32260  33.357  34.288   3.178
67100W        W32261  43.419  38.295   1.095
67101W        W32262  41.263   8.823  12.869
67102W        W32263   6.815  39.986   1.411
67103W        W32264   7.870   8.261   0.357
67104W        W32265  20.467  28.898  13.470
67105W        W32266  35.344  18.770   2.798
67106W        W32267  19.261  33.668   5.028
67107W        W32268   9.993  43.007  10.488
67108W        W32269   5.180  30.113  14.583
67109W        W32270  18.840  36.420  14.499
67110W        W32271  27.982  39.343  12.524
67111W        W32272   8.770  38.932   0.750
67112W        W32273   0.168   1.879   1.667
67113W        W32274   1.071  22.321   3.957
67114W        W32275  36.694   9.276   1.930
67115W        W32276   6.168  29.738  11.174
67116W        W32277  18.088  30.920  11.992
67117W        W32278  37.513   3.866   0.004
67118W        W32279  14.173  31.909  11.250
67119W        W32280  16.300  15.077  14.384
67120W        W32281   9.865  19.019  13.985
67121W        W32282   3.895  11.554   3.406
67122W        W32283  12.329  13.630  12.050
67123W        W32284  16.720  43.603   2.099
67124W        W32285  42.301  41.267  13.884
67125W        W32286  33.054  38.417  14.767
67126W        W32287   3.452   4.926   3.641
67127W        W32288  20.554  19.031   0.254
67128W        W32289  40.421   0.543  11.520
67129W        W32290   5.338  17.628  14.236
67130W        W32291  38.355  10.985   0.580
67131W        W32292  19.739   1.357   1.681
67132W        W32293   8.659  26.265  11.063
67133W        W32294  14.655  17.865   2.590
67134W        W32295  25.066  12.988   4.271
67135W        W32296  41.926   9.842  12.097
67136W        W32297  38.118   0.949  10.544
67137W        W32298   1.809   9.055  12.507
67138W        W32299  28.752  19.848   0.831
67139W        W32300  22.364  22.650   1.497
67140W        W32301  35.445  42.762   4.632
67141W        W32302  32.127  31.489  10.682
67142W        W32303   4.280  13.057   4.258
67143W        W32304   0.012  35.859  14.492
67144W        W32305  41.527   2.304   4.085
67145W        W32306   7.166  12.893   0.387
67146W        W32307  18.796  21.103  14.839
67147W        W32308  29.979  33.536  10.581
67148W        W32309   3.859   1.577  11.508
67149W        W32310  12.204   6.726   3.594
67150W        W32311   6.861  31.004   3.833
67151W        W32312   4.359   6.885  11.695
67152W        W32313  23.126  33.966   1.698
67153W        W32314  40.470  28.695   1.822
67154W        W32315  27.526  44.979   0.669
67155W        W32316   4.851  36.831   1.852
67156W        W32317  28.463  24.102   2.874
67157W        W32318   8.234  21.160  10.642
67158W        W32319  43.164  23.116  12.774
67159W        W32320  37.192   3.696  12.518
67160W        W32321  19.717   7.926   4.310
67161W        W32322  22.086   6.159  13.817
67162W        W32323  44.969  20.497   4.087
67163W        W32324  14.347  38.570  11.448
67164W        W32325  12.371  32.690   3.226
67165W        W32326  20.991  44.212  10.303
67166W        W32327  33.221  32.057   4.637
67167W        W32328  11.891  39.448   1.428
67168W        W32329  15.331  10.146   0.795
67169W        W32330  34.330  39.887  12.938
67170W        W32331   9.721  41.891   4.868
67171W        W32332  42.542  14.130  14.345
67172W        W32333  25.038   5.462   2.644
67173W        W32334  27.171   4.458  10.836
67174W        W32335  31.104  21.655   1.490
67175W        W32336  41.468   0.756   0.160
67176W        W32337  39.314   2.716   4.187
67177W        W32338  25.252   2.435  13.020
67178W        W32339   4.687  16.376   1.308
67179W        W32340  28.493   8.964  12.830
67180W        W32341  43.124   9.243   0.702
67181W        W32342   4.217  11.080  14.337
67182W        W32343  34.670  38.015  12.949
67183W        W32344  20.447  31.517   3.691
67184W        W32345  32.770  15.937  13.409
67185W        W32346  39.391  30.119   0.288
67186W        W32347  20.198   4.055  12.506
67187W        W32348  33.029  25.040  12.478
67188W        W32349  44.903  37.586   3.339
67189W        W32350  17.521  36.055  13.500
67190W        W32351  28.744  26.719   0.278
67191W        W32352  12.597  42.431   4.076
67192W        W32353   4.728  40.719   1.769
67193W        W32354  18.935  18.186  14.962
67194W        W32355  20.215  16.803  12.186
67195W        W32356  32.222   0.857   4.606
67196W        W32357   4.478  13.681   1.845
67197W        W32358  10.704  13.661  14.681
67198W        W32359  26.579  35.507   1.545
67199W        W32360  30.004  25.602  13.929
67200W        W32361  21.725  37.453  14.839
67201W        W32362  27.914  38.042  12.157
67202W        W32363  22.020  23.033  14.587
67203W        W32364   2.292  27.264  11.701
67204W        W32365  10.377  38.650   0.686
67205W        W32366  19.667  44.425  13.423
67206W        W32367  32.429  43.352   0.225
67207W        W32368   2.558  15.851   0.283
67208W        W32369  36.874  35.218  10.749
67209W        W32370  28.585  12.661  13.145
67210W        W32371  38.056  29.459  12.895
67211W        W32372  18.061  25.049   1.992
67212W        W32373  14.187  37.803  12.940
67213W        W32374  33.826   5.809   0.726
67214W        W32375   7.885  20.701  13.821
67215W        W32376  10.896   9.013   1.307
67216W        W32377  44.547  20.743   3.305
67217W        W32378   8.586   3.204  12.674
67218W        W32379  26.935  15.110   1.606
67219W        W32380  24.240  43.843   0.293
67220W        W32381  27.628  25.160   0.278
67221W        W32382   4.844  37.972  14.320
67222W        W32383   8.878  14.734  12.933
67223W        W32384  15.143  20.492  10.843
67224W        W32385  31.587  43.302   3.898
67225W        W32386   6.595   3.935  12.900
67226W        W32387   1.969  39.879   3.668
67227W        W32388  16.673  22.958  12.909
67228W        W32389  15.277  23.149   3.213
67229W        W32390   5.359   8.476   4.906
67230W        W32391  28.043  24.716  13.815
67231W        W32392  36.254  31.131   4.915
67232W        W32393  13.797  11.748   2.245
67233W        W32394  12.532  22.049   1.720
67234W        W32395  21.385   0.132  12.791
67235W        W32396  16.580  12.192   1.376
67236W        W32397  42.018  21.963  11.576
67237W        W32398  21.756   6.004   1.696
67238W        W32399  36.405  19.199  10.707
67239W        W32400   0.516  10.108   4.457
67240W        W32401  25.676  27.241   0.854
67241W        W32402  44.655  28.595  10.722
67242W        W32403  22.157  23.232   2.263
67243W        W32404  11.681  18.735   3.136
67244W        W32405  14.769  29.734   1.334
67245W        W32406   9.094   0.429  11.178
67246W        W32407  23.975  10.375   2.167
67247W        W32408  33.888  25.047   0.963
67248W        W32409   1.191  27.464  11.057
67249W        W32410  27.806  33.436   1.631
67250W        W32411  29.620   8.069   2.465
67251W        W32412  20.290  30.669   2.205
67252W        W32413  22.246  38.358  14.869
67253W        W32414  30.091  14.685  13.036
67254W        W32415  15.250   8.108  12.000
67255W        W32416  32.856  23.282  12.367
67256W        W32417  40.003  44.474  13.832
67257W        W32418  13.222  41.293  10.537
67258W        W32419  18.550  34.988  10.709
67259W        W32420  39.263  38.524  10.931
67260W        W32421  26.509  29.253  10.745
67261W        W32422  31.132  25.584   2.636
67262W        W32423  36.191  28.178  13.999
67263W        W32424  16.100  44.486  13.490
67264W        W32425   7.380  18.121   3.250
67265W        W32426   1.309  19.504   2.799
67266W        W32427   7.401  22.531   4.557
67267W        W32428  43.077   5.951   4.245
67268W        W32429  15.444  26.658   4.250
67269W        W32430   2.360  16.371  10.343
67270W        W32431  36.166  11.302  11.089
67271W        W32432  19.539  32.464  11.636
67272W        W32433   0.477  25.841   0.690
67273W        W32434  39.299  38.952  10.614
67274W        W32435  10.172   7.313  11.311
67275W        W32436  32.077  12.974  10.602
67276W        W32437  14.619  12.897  12.018
67277W        W32438  26.028  17.551   2.586
67278W        W32439   2.320   2.670   4.590
67279W        W32440  40.817  23.656   3.753
67280W        W32441  18.787  24.044  10.448
67281W        W32442  18.329  14.535  14.732
67282W        W32443  39.527   4.947  14.997
67283W        W32444  33.346   4.665   5.123
67284W        W32445  30.896  22.737  11.331
67285W        W32446   3.912  19.434   0.301
67286W        W32447  13.016  10.858  14.979
67287W        W32448  15.992  14.804   1.409
67288W        W32449  40.744  23.004  12.928
67289W        W32450  38.855  29.044   4.212
67290W        W32451  12.256  41.422   2.728
67291W        W32452   6.470   7.385  13.844
67292W        W32453  21.099  16.774   3.223
67293W        W32454  18.315  14.381   3.784
67294W        W32455  30.142  36.895   1.648
67295W        W32456   0.183  25.515   0.370
67296W        W32457  12.856  42.509   0.305
67297W        W32458  12.594  36.859  11.459
67298W        W32459   3.804   2.173  13.845
67299W        W32460  44.388  27.467  11.024
67300W        W32461  25.671  25.876   0.167
67301W        W32462  35.065  32.399  13.828
67302W        W32463   5.342  43.462   2.520
67303W        W32464  29.346  41.341  13.072
67304W        W32465  31.213  23.624  13.586
67305W        W32466  21.524  36.477  12.051
67306W        W32467   6.743  17.625  11.571
67307W        W32468   5.918   9.250  11.599
67308W        W32469   0.371   4.170   2.785
67309W        W32470  10.413  11.947   3.621
67310W        W32471  41.010   0.387   0.863
67311W        W32472  25.270  44.457  11.150
67312W        W32473  22.113  39.272  10.542
67313W        W32474  14.259  36.108  10.371
67314W        W32475  25.704  25.867   2.173
67315W        W32476  31.429  27.491   0.489
67316W        W32477  13.787  10.402  13.971
67317W        W32478  22.176  34.152   1.906
67318W        W32479  21.622  40.667  12.981
67319W        W32480  12.586  34.162   2.307
67320W        W32481  22.400   6.249  12.602
67321W        W32482  29.643   2.288   1.748
67322W        W32483   3.361   1.085   5.140
67323W        W32484  26.103  14.716  13.778
67324W        W32485  27.725  18.738  14.837
67325W        W32486   1.723  28.488   2.405
67326W        W32487  41.992  41.001   4.275
67327W        W32488   3.451  19.490  13.832
67328W        W32489   2.691  39.486  13.077
67329W        W32490   8.774  15.751   3.798
67330W        W32491   8.288   5.883   4.556
67331W        W32492  30.082  20.417   1.442
67332W        W32493   0.565  29.591   1.207
67333W        W32494  31.398  10.792   0.009
67334W        W32495  11.261  44.238   3.525
67335W        W32496  16.714  11.768  10.761
67336W        W32497   2.329  21.032   0.747
67337W        W32498  40.740  15.823   3.710
67338W        W32499  38.711  36.003   3.285
67339W        W32500  38.247   4.631  12.623
67340W        W32501   9.041  25.080  14.087
67341W        W32502  25.543  15.287  12.667
67342W        W32503  43.829  41.201   4.582
67343W        W32504  40.485  28.094  14.885
67344W        W32505   0.986  19.283  11.152
67345W        W32506  12.961  43.222  13.862
67346W        W32507  16.983  26.497   2.764
67347W        W32508   0.953  12.895   1.645
67348W        W32509  43.923  28.701  11.422
67349W        W32510  28.028  36.886  14.378
67350W        W32511  44.930   6.617   4.248
67351W        W32512  38.622  39.522  14.765
67352W        W32513  25.381  12.716  10.691
67353W        W32514  15.536  24.919   9.994
67354W        W32515  41.707  41.578  10.597
67355W        W32516  38.466  17.257   0.271
67356W        W32517  35.081  42.635   3.193
67357W        W32518  31.231   8.801  14.895
67358W        W32519   5.297  29.198   1.978
67359W        W32520   7.449  34.418  12.576
67360W        W32521  20.999  34.433  12.928
67361W        W32522  11.304  24.719  12.966
67362W        W32523  23.633   4.878   3.593
67363W        W32524  42.803  25.173   3.789
67364W        W32525   7.378   9.663   2.825
67365W        W32526  34.441  43.374   4.621
67366W        W32527  28.562   5.925  12.369
67367W        W32528  26.514  26.936  11.977
67368W        W32529  33.579  10.417  11.539
67369W        W32530  19.953  41.478   3.261
67370W        W32531  42.216   5.276   3.292
67371W        W32532  17.454   3.204   1.762
67372W        W32533  32.916  30.071  11.414
67373W        W32534  12.101   5.385  12.871
67374W        W32535  10.344  40.351   1.228
67375W        W32536  31.543  19.807   4.307
67376W        W32537  10.126  37.609   0.374
67377W        W32538  33.697   4.327   3.306
67378W        W32539  38.941   6.063  14.163
67379W        W32540  24.779  14.385   4.151
67380W        W32541  44.447  40.312  13.966
67381W        W32542  21.581  43.572  12.071
67382W        W32543  26.159   0.662   3.346
67383W        W32544  44.566  14.258   4.592
67384W        W32545  14.555  14.836   0.221
67385W        W32546  25.307  30.621   5.110
67386W        W32547  33.995  43.476   0.347
67387W        W32548  11.092  40.333  11.517
67388W        W32549   0.778  19.098  14.781
67389W        W32550   0.671   7.446  12.155
67390W        W32551  42.290  30.552   1.220
67391W        W32552  19.353  28.578  12.938
67392W        W32553  38.505  33.350  14.932
67393W        W32554  12.807   0.029  14.929
67394W        W32555  33.548  41.079  13.383
67395W        W32556  14.852  35.966   0.177
67396W        W32557   8.276  43.936  11.272
67397W        W32558  21.708  11.614  13.061
67398W        W32559  42.406  38.538   4.542
67399W        W32560  11.464  27.345   3.322
67400W        W32561  24.043  38.137  12.539
67401W        W32562  16.723  13.200  11.979
67402W        W32563  31.281  26.279  14.851
67403W        W32564  29.893  39.663   1.977
67404W        W32565  27.010   6.456   2.865
67405W        W32566  44.407  32.067   0.370
67406W        W32567  12.759  29.944   3.582
67407W        W32568   0.610  37.908   4.450
67408W        W32569   3.862  44.831   1.841
67409W        W32570  13.302  41.200   5.159
67410W        W32571  20.710  37.890  12.122
67411W        W32572  38.495  18.825   1.772
67412W        W32573  33.347  23.974   2.890
67413W        W32574  18.781  28.640   4.118
67414W        W32575   8.238  27.478  13.338
67415W        W32576  28.925  15.342   0.246
67416W        W32577  27.434   0.029   1.762
67417W        W32578  16.276  38.884  11.212
67418W        W32579  44.004  43.943   3.884
67419W        W32580  40.467  18.400  12.622
67420W        W32581  15.591  27.620   1.465
67421W        W32582  12.421  31.551   2.834
67422W        W32583   2.982  37.823   1.446
67423W        W32584  25.914  30.445   4.471
67424W        W32585  36.299  44.908   0.552
67425W        W32586  41.333  13.781  10.542
67426W        W32587   7.490  11.132   3.253
67427W        W32588  22.537  15.195  14.581
67428W        W32589   9.148  35.491  11.591
67429W        W32590  18.816  10.850   0.346
67430W        W32591  21.277  19.756  11.055
67431W        W32592  40.475  18.552   3.955
67432W        W32593  31.448  16.939  14.441
67433W        W32594   3.138  18.521  13.575
67434W        W32595   8.967   4.193  14.228
67435W        W32596  14.118   4.221  11.108
67436W        W32597  22.163  25.643   0.552
67437W        W32598  12.318  37.036   4.378
67438W        W32599   4.459  38.320   0.799
67439W        W32600  22.762  10.150  11.901
67440W        W32601  19.108  21.901   2.943
67441W        W32602  40.984  21.510  13.898
67442W        W32603   9.981  27.220   1.267
67443W        W32604  19.090  43.508  12.912
67444W        W32605   0.477  12.623   2.672
67445W        W32606   4.788  15.460   0.326
67446W        W32607   4.429  15.843  11.180
67447W        W32608  20.982  15.938  11.006
67448W        W32609   3.264  13.994   5.388
67449W        W32610  36.771  12.927   0.521
67450W        W32611  31.963  38.270  11.488
67451W        W32612  37.343  37.337  12.968
67452W        W32613   2.511  22.203  12.288
67453W        W32614  41.365  42.471  13.449
67454W        W32615  44.721  27.416   0.152
67455W        W32616  28.950   8.861   0.846
67456W        W32617   8.795   9.768   2.628
67457W        W32618  31.509  14.799   1.864
67458W        W32619  20.026  21.801  10.772
67459W        W32620  26.983  33.280  12.346
67460W        W32621  15.091  10.259  12.852
67461W        W32622  18.192  11.662   2.730
67462W        W32623   0.301  15.722  11.997
67463W        W32624  35.625  35.929  12.515
67464W        W32625  20.073  35.071   1.351
67465W        W32626  20.549  29.977   4.644
67466W        W32627  18.665  43.994  14.305
67467W        W32628   8.559  20.254   0.433
67468W        W32629  34.480  40.905   2.741
67469W        W32630  33.078  27.808  12.164
67470W        W32631   9.206  30.592   0.339
67471W        W32632  12.588  19.841  13.330
67472W        W32633  33.252  35.589  11.953
67473W        W32634   3.167   4.625  11.550
67474W        W32635   8.835  22.253   2.089
67475W        W32636   9.695   8.939   1.726
67476W        W32637   4.720  31.627   2.230
67477W        W32638   7.413  43.029  11.509
67478W        W32639  16.062   0.025   2.992
67479W        W32640  24.155  34.465   2.183
67480W        W32641  35.299   2.875  12.665
67481W        W32642   2.609  31.180  11.630
67482W        W32643  33.072  25.164  10.779
67483W        W32644  12.302   8.759   0.191
67484W        W32645   7.730  33.510   1.165
67485W        W32646   7.163  10.222   1.901
67486W        W32647  44.466  35.427  13.782
67487W        W32648   0.757  18.563   0.068
67488W        W32649  44.907  26.567   3.786
67489W        W32650  31.860   0.747   0.608
67490W        W32651   8.657  42.069  12.529
67491W        W32652   7.702   2.278  12.947
67492W        W32653   7.818   7.597   2.312
67493W        W32654   8.595  22.658   1.867
67494W        W32655  41.564  35.374   4.132
67495W        W32656  22.247   6.958  11.838
67496W        W32657  16.150  18.291   3.136
67497W        W32658   9.323  31.003   3.231
67498W        W32659  14.043  24.556  12.851
67499W        W32660  16.167  30.243  12.049
67500W        W32661   9.211   7.466   1.684
67501W        W32662  39.340  20.698  11.241
67502W        W32663  43.260  26.166  12.793
67503W        W32664  29.086  23.755  14.460
67504W        W32665   2.526  35.099  13.055
67505W        W32666  13.571  32.679   1.169
67506W        W32667  13.163  13.321   1.832
67507W        W32668  40.490  29.381  14.338
67508W        W32669   4.307  41.348   0.877
67509W        W32670  22.074  36.422   3.377
67510W        W32671  36.476  39.924  11.252
67511W        W32672  30.894   0.242   1.695
67512W        W32673  44.326  38.918   0.404
67513W        W32674   1.346  19.769  12.431
67514W        W32675  11.192  27.706  12.517
67515W        W32676  21.446  42.446  13.964
67516W        W32677  35.042   7.830   1.340
67517W        W32678  44.899  37.072  10.399
67518W        W32679  39.077  31.448   5.022
67519W        W32680  40.463   8.362   2.405
67520W        W32681   0.286  10.735  11.616
67521W        W32682  31.651  41.011  11.719
67522W        W32683  14.162   1.949  12.508
67523W        W32684  19.588   8.249  11.190
67524W        W32685   8.371  16.336   1.205
67525W        W32686  27.647  14.099  11.172
67526W        W32687  15.928  40.367   0.901
67527W        W32688  27.101  28.942   4.706
67528W        W32689  20.733  33.896  13.234
67529W        W32690  38.334   0.068  13.941
67530W        W32691  30.586  39.372   0.500
67531W        W32692  12.583  15.234   1.344
67532W        W32693   5.578  11.655   1.251
67533W        W32694  24.957  32.692   0.280
67534W        W32695  41.588  19.961  12.103
67535W        W32696  34.877  13.654   4.656
67536W        W32697  36.117  16.576   0.370
67537W        W32698  28.985  41.269   3.339
67538W        W32699  42.823  21.320   1.816
67539W        W32700   8.128  20.274   0.824
67540W        W32701  11.067  34.434  12.178
67541W        W32702   5.664  40.415   0.761
67542W        W32703   6.788   6.213   1.373
67543W        W32704  44.792  36.760   2.737
67544W        W32705  42.395  43.825   0.189
67545W        W32706  14.331   0.515   3.254
67546W        W32707  26.435   4.294   2.641
67547W        W32708  14.744  15.028   3.145
67548W        W32709  26.521  22.486  10.730
67549W        W32710  35.178  33.375  13.947
67550W        W32711  13.685  30.579  13.403
67551W        W32712  23.803  40.516  10.748
67552W        W32713   0.338  35.630  12.219
67553W        W32714  38.882  42.218  10.678
67554W        W32715  28.298  28.955  12.563
67555W        W32716  34.073  38.449  14.715
67556W        W32717  10.817  16.764  12.534
67557W        W32718  24.149  34.154  14.572
67558W        W32719  42.388  33.062  10.460
67559W        W32720  21.617  14.153   0.894
67560W        W32721  11.425  30.032  13.144
67561W        W32722  41.931  12.517   2.434
67562W        W32723  32.782  44.252  13.810
67563W        W32724  38.816  30.450   3.466
67564W        W32725  28.079  26.938   4.049
67565W        W32726  38.551   8.379   0.555
67566W        W32727   2.162  11.497  10.355
67567W        W32728  24.683  25.438   3.820
67568W        W32729  32.194  10.108   0.444
67569W        W32730  40.995  36.673   0.736
67570W        W32731  19.677  31.534  13.984
67571W        W32732  12.594  35.376  11.623
67572W        W32733  39.444  42.381  14.262
67573W        W32734   5.875  22.729  14.127
67574W        W32735  24.265  37.039   3.329
67575W        W32736  25.691   3.741  10.731
67576W        W32737  41.026  35.557   4.179
67577W        W32738   7.290  17.356  11.544
67578W        W32739   4.719  25.517   2.101
67579W        W32740  34.461  17.239  12.637
67580W        W32741  15.746   0.957   2.404
67581W        W32742  19.696  24.130   0.897
67582W        W32743  33.387  31.900  13.009
67583W        W32744   8.838  20.520   3.338
67584W        W32745   8.670  14.719  10.860
67585W        W32746  34.536   1.075   1.436
67586W        W32747  36.603   2.653   2.806
67587W        W32748   7.427  42.027  10.609
67588W        W32749  28.875  14.595  14.545
67589W        W32750  19.033   6.150   3.196
67590W        W32751  22.073  40.476   1.657
67591W        W32752  35.254  32.748   4.080
67592W        W32753  37.860   1.370  14.711
67593W        W32754   8.674  11.125  12.980
67594W        W32755  43.072  26.180   3.720
67595W        W32756  30.025  16.560  13.402
67596W        W32757  26.157  13.807  12.502
67597W        W32758   9.291  16.710  11.879
67598W        W32759  19.142  33.474   1.307
67599W        W32760  31.451  17.990   1.808
67600W        W32761   8.614  13.600   1.363
67601W        W32762   1.073  37.743   4.639
67602W        W32763  26.336  27.932  11.826
67603W        W32764   2.005   8.434  12.805
67604W        W32765  35.320   0.104  12.100
67605W        W32766  25.190  42.369   4.033
67606W        W32767   4.808  38.050   2.820
67607W        W32768  27.575   0.946  14.995
67608W        W32769  38.181   4.618  10.988
67609W        W32770  40.655  40.562  14.066
67610W        W32771  16.860  34.152  11.324
67611W        W32772   7.335   5.979   0.279
67612W        W32773   4.790  15.173  12.007
67613W        W32774  37.603  36.103  14.466
67614W        W32775  39.349  39.340   0.379
67615W        W32776  22.631  43.943  10.805
67616W        W32777   7.804  21.550  11.512
67617W        W32778  13.535  41.843   0.001
67618W        W32779  34.447  30.476  11.693
67619W        W32780  13.382  36.597   3.403
67620W        W32781  43.276   5.689  11.518
67621W        W32782  35.942  16.142  10.747
67622W        W32783  12.272   2.364   0.721
67623W        W32784  22.119  34.573   0.635
67624W        W32785   1.306  43.304  11.121
67625W        W32786   4.104  18.931  11.544
67626W        W32787  20.720   5.522   0.408
67627W        W32788  34.151  10.854  13.006
67628W        W32789  37.904  31.500  13.790
67629W        W32790  24.218  41.317   1.691
67630W        W32791  39.612   3.829  11.591
67631W        W32792  28.207  16.094   0.409
67632W        W32793  19.220  25.665  14.829
67633W        W32794  17.040  11.144   3.128
67634W        W32795  40.548   1.854   5.117
67635W        W32796  38.956  25.566  12.405
67636W        W32797  29.106  36.329  12.360
67637W        W32798  18.363  30.578  14.416
67638W        W32799  34.879  16.751   3.859
67639W        W32800   2.522  22.163  11.062
67640W        W32801   0.852  18.957   2.243
67641W        W32802  18.356  34.976   5.068
67642W        W32803   0.139  19.158   4.888
67643W        W32804  30.697   6.620   4.223
67644W        W32805   0.776   7.676   3.626
67645W        W32806  35.838  42.797  13.458
67646W        W32807  40.338  17.176   2.187
67647W        W32808   6.173  20.768  13.417
67648W        W32809  13.862  34.906   2.721
67649W        W32810  37.842  11.807   0.045
67650W        W32811  28.084  23.045   5.595
67651W        W32812  25.679  21.704   1.846
67652W        W32813  40.127   5.959  12.804
67653W        W32814  13.188  27.395  12.972
67654W        W32815   4.916   6.441   1.185
67655W        W32816  17.869  33.374  13.999
67656W        W32817   4.637   4.430   2.448
67657W        W32818  19.289  14.310  14.373
67658W        W32819   6.351  22.556  14.014
67659W        W32820  39.842  20.870  11.239
67660W        W32821   7.025  22.572  14.031
67661W        W32822  22.536   4.854  11.112
67662W        W32823  33.523   0.852  12.602
67663W        W32824  20.874   9.751   0.287
67664W        W32825  29.540  29.337   4.192
67665W        W32826  44.234  30.224  10.604
67666W        W32827  44.324  39.119  12.529
67667W        W32828  14.419   7.324   3.153
67668W        W32829  27.603  28.637   3.358
67669W        W32830   6.813   1.460   4.253
67670W        W32831  24.269  31.707  10.801
67671W        W32832   8.235  40.940  14.515
67672W        W32833  41.269  37.093  12.060
67673W        W32834  34.382  29.899   2.966
67674W        W32835  15.626  44.278   2.282
67675W        W32836  21.770  11.825  14.064
67676W        W32837  21.583   3.792   4.053
67677W        W32838  16.781  14.656   3.676
67678W        W32839  32.960  18.544  11.174
67679W        W32840   4.807  42.796   9.739
67680W        W32841  19.372  27.492   2.300
67681W        W32842  39.505  33.518   4.367
67682W        W32843  32.107  34.460  11.567
67683W        W32844  23.083  37.787  13.471
67684W        W32845  42.937  43.026  12.602
67685W        W32846  38.841  11.673  14.881
67686W        W32847  13.380  25.018   2.252
67687W        W32848  41.382   4.362  12.083
67688W        W32849  16.673  21.875   2.279
67689W        W32850   3.920  24.658   1.222
67690W        W32851  26.051  34.387  13.448
67691W        W32852  44.045  14.171  13.288
67692W        W32853  11.817  11.104   1.525
67693W        W32854   4.539  34.522   1.180
67694W        W32855   8.240  18.484   4.644
67695W        W32856  19.065   9.702   1.161
67696W        W32857  30.696  30.539   2.872
67697W        W32858  20.637   9.777   4.845
67698W        W32859  36.168  21.429  11.881
67699W        W32860   7.630  15.843  11.602
67700W        W32861  40.138  29.083   1.693
67701W        W32862  24.254  24.367   3.375
67702W        W32863  18.272  12.187  12.020
67703W        W32864  28.033  36.075  12.939
67704W        W32865   7.646  11.876   2.305
67705W        W32866  39.426  23.590   2.143
67706W        W32867  32.982  30.970  14.524
67707W        W32868  16.771  39.895   2.303
67708W        W32869  16.972  18.257  11.669
67709W        W32870  17.602  22.139   4.090
67710W        W32871  20.616   7.799  10.668
67711W        W32872  41.917  18.105  12.595
67712W        W32873   3.267   2.685  12.173
67713W        W32874  11.852  18.805  12.089
67714W        W32875  29.185  38.036  10.167
67715W        W32876   7.737  12.149   1.856
67716W        W32877  30.579  22.952   2.717
67717W        W32878  36.527  18.183   4.762
67718W        W32879  40.134  19.819   1.345
67719W        W32880   7.371  29.973   3.719
67720W        W32881  13.305   3.976   1.848
67721W        W32882  23.707   3.505   1.712
67722W        W32883   6.092  15.705  12.519
67723W        W32884   2.813  12.814  12.805
67724W        W32885  38.415  18.571   1.319
67725W        W32886  12.512  24.047   0.299
67726W        W32887  32.210  34.345   0.546
67727W        W32888  11.869   0.276  11.240
67728W        W32889   5.731  34.774   2.678
67729W        W32890   2.816   1.640   1.617
67730W        W32891  15.757  13.277  11.605
67731W        W32892  34.665  22.239   1.144
67732W        W32893  42.826   4.704   5.204
67733W        W32894  43.837  20.008   3.431
67734W        W32895  26.540  12.731   2.803
67735W        W32896  32.451  13.250   1.918
67736W        W32897  10.356  36.122   4.141
67737W        W32898  10.428  36.336  10.464
67738W        W32899  19.158  33.837  11.217
67739W        W32900   2.350   6.044  14.548
67740W        W32901  29.880   4.393   1.239
67741W        W32902   8.440  11.625  11.053
67742W        W32903  38.914   9.357   1.324
67743W        W32904  35.404  23.631   3.201
67744W        W32905  41.268  38.511   0.552
67745W        W32906  10.732   2.894   3.280
67746W        W32907  38.943  30.476  11.898
67747W        W32908  33.522  17.473  11.565
67748W        W32909  33.923  29.670  12.628
67749W        W32910   6.578  41.974  11.576
67750W        W32911  32.443   6.508   2.688
67751W        W32912  31.827  44.728  14.729
67752W        W32913  22.723  14.859   4.592
67753W        W32914  14.340  22.696  12.094
67754W        W32915   3.346   1.885   3.158
67755W        W32916   9.094   6.330   3.996
67756W        W32917  43.619   6.891  14.755
67757W        W32918  41.270  10.000  14.688
67758W        W32919   4.394   3.430  13.015
67759W        W32920  28.449   5.103  11.671
67760W        W32921  16.577   8.503  12.161
67761W        W32922  12.335   9.321   1.976
67762W        W32923  10.586  35.906   2.522
67763W        W32924   2.997  14.155  14.931
67764W        W32925  20.066  21.759   3.276
67765W        W32926  31.403  17.032  13.098
67766W        W32927  44.490  43.317  10.610
67767W        W32928  27.492   3.487   3.325
67768W        W32929  17.097  29.678  10.708
67769W        W32930  14.568  34.851   2.169
67770W        W32931   5.312   5.225  14.406
67771W        W32932   6.815  38.966   2.312
67772W        W32933  24.865  17.512   1.879
67773W        W32934  44.927   6.627  11.040
67774W        W32935  44.917  41.844   1.071
67775W        W32936  29.589  34.671   3.095
67776W        W32937  29.148   7.839  14.235
67777W        W32938   6.787   7.985   1.736
67778W        W32939  15.617   5.811   3.166
67779W        W32940   7.311  30.733   4.617
67780W        W32941  15.305  35.066   2.394
67781W        W32942  23.940  20.487  12.382
67782W        W32943  21.759   7.161   2.150
67783W        W32944   2.893  26.534  14.241
67784W        W32945  21.582  33.542  14.991
67785W        W32946  20.639  42.068  14.865
67786W        W32947   3.084  24.038   4.616
67787W        W32948  22.621  33.694   2.893
67788W        W32949  21.729  38.984  13.462
67789W        W32950  44.786   5.349   2.076
67790W        W32951  31.357  18.046  10.957
67791W        W32952  36.890  28.913   2.365
67792W        W32953  42.866  38.876   3.956
67793W        W32954  34.095  17.475   2.676
67794W        W32955  43.828  13.401  12.911
67795W        W32956  39.809   8.336   4.331
67796W        W32957   5.399   2.397   3.754
67797W        W32958   5.302  10.841   3.131
67798W        W32959  17.529  14.692   2.262
67799W        W32960  37.750  26.573   3.978
67800W        W32961  20.119  36.359   3.257
67801W        W32962  30.251  12.951  11.886
67802W        W32963   0.526  14.681  12.193
67803W        W32964  28.494  11.136   3.499
67804W        W32965  28.569   7.006   3.222
67805W        W32966  35.060  29.724  13.325
67806W        W32967   1.188   3.813   2.354
67807W        W32968  35.070  20.524  11.118
67808W        W32969  27.286  24.403  14.352
67809W        W32970  20.653  37.028   4.154
67810W        W32971  29.378  31.681  12.914
67811W        W32972  29.151  35.943  13.421
67812W        W32973  29.524  14.753   3.373
67813W        W32974  18.098  43.473   3.135
67814W        W32975  20.056   4.755   2.339
67815W        W32976  27.992  17.806  14.822
67816W        W32977  42.322  22.347  10.666
67817W        W32978  32.500  27.065   0.413
67818W        W32979   8.330   9.705  12.105
67819W        W32980  31.175  11.855  13.626
67820W        W32981  34.221  36.103  13.873
67821W        W32982  18.752  34.491   2.228
67822W        W32983   4.458  16.046   3.409
67823W        W32984  41.625   3.394   0.368
67824W        W32985   6.315  28.836  10.782
67825W        W32986   1.481  17.883   4.513
67826W        W32987  28.610  21.541   4.384
67827W        W32988  14.530   4.513  11.180
67828W        W32989  22.423   7.082  12.631
67829W        W32990  25.653  22.322  14.406
67830W        W32991  43.590   2.592   4.171
67831W        W32992   8.170   9.376  10.811
67832W        W32993  38.012   7.443  11.970
67833W        W32994  17.253  18.677   2.438
67834W        W32995  16.060  29.449  13.414
67835W        W32996   8.259  13.664   4.891
67836W        W32997  20.280  37.960  14.027
67837W        W32998  27.435  43.264   3.060
67838W        W32999  13.852  30.611   3.106
67839W        W33000  19.066  25.731  10.946
67840W        W33001   1.297  12.354  12.399
67841W        W33002  19.258   3.427   2.848
67842W        W33003  21.551  41.987  11.082
67843W        W33004  38.481  25.644   1.371
67844W        W33005  35.540  34.612  14.341
67845W        W33006   8.376   2.985   2.876
67846W        W33007  19.189  42.938  12.542
67847W        W33008  41.008   4.419   3.288
67848W        W33009  31.287  37.531   4.623
67849W        W33010  10.797  15.157  12.841
67850W        W33011   8.705  26.549   2.383
67851W        W33012  33.585  25.685   3.238
67852W        W33013  18.034   1.776  14.066
67853W        W33014  31.915  43.841   2.029
67854W        W33015  39.968  15.648   1.083
67855W        W33016  22.120  37.325  11.632
67856W        W33017  10.610  20.214   0.710
67857W        W33018  41.799  17.016  10.629
67858W        W33019  38.459  18.674   0.390
67859W        W33020  22.220  32.289  12.631
67860W        W33021   9.255  16.320  11.550
67861W        W33022  37.341   0.774   1.802
67862W        W33023  36.951   5.802   4.366
67863W        W33024  37.547   7.153  14.743
67864W        W33025  12.604  41.597   0.084
67865W        W33026   3.483  11.695  10.285
67866W        W33027   9.387   4.370   0.439
67867W        W33028  15.288  34.808  14.545
67868W        W33029  28.601  39.304  12.009
67869W        W33030   4.767   5.929  14.695
67870W        W33031  11.556  40.993  14.870
67871W        W33032  43.578  23.126   1.014
67872W        W33033  32.953   1.494  12.075
67873W        W33034   9.092  41.259   0.037
67874W        W33035  34.478  17.607  14.933
67875W        W33036  33.553  43.738  12.904
67876W        W33037  41.296  21.814   1.514
67877W        W33038  24.114  44.193   2.849
67878W        W33039  24.576  15.340   0.735
67879W        W33040  14.991  41.373  13.388
67880W        W33041  28.134  19.087   3.842
67881W        W33042  25.471  26.927   2.757
67882W        W33043  12.220  43.063   0.391
67883W        W33044  31.331  24.541   1.351
67884W        W33045  30.045  15.995  13.419
67885W        W33046   3.007  41.881   4.321
67886W        W33047  33.252  13.071  11.430
67887W        W33048  26.773  33.385   3.204
67888W        W33049  15.370  41.022   3.110
67889W        W33050  41.473  16.452   4.589
67890W        W33051   4.914  21.596   3.891
67891W        W33052  10.812  37.125  10.354
67892W        W33053  23.620   5.652   4.732
67893W        W33054  36.685   6.848  14.327
67894W        W33055  43.866  17.265   3.634
67895W        W33056   8.745  25.592   4.519
67896W        W33057  31.200  38.331  14.905
67897W        W33058  13.809  27.459   3.583
67898W        W33059  38.472   8.953  12.986
67899W        W33060  20.432  22.962   4.780
67900W        W33061   0.753  10.586  11.459
67901W        W33062  40.344  22.683  13.019
67902W        W33063  31.684  43.559  11.899
67903W        W33064  36.555  37.305   1.452
67904W        W33065   4.011  15.274   2.368
67905W        W33066  11.181   0.824   3.782
67906W        W33067  36.965  20.448   0.894
67907W        W33068   2.171  25.907  14.487
67908W        W33069   5.522  30.489   1.378
67909W        W33070  33.829   7.236   0.397
67910W        W33071  37.563   8.049  14.713
67911W        W33072  24.471  14.136   2.863
67912W        W33073   7.284  23.668   2.728
67913W        W33074  12.119   2.300  14.419
67914W        W33075  10.991  37.802  11.870
67915W        W33076  42.406  23.572   0.519
67916W        W33077  26.160  25.083   4.505
67917W        W33078  42.219  22.715   4.387
67918W        W33079   5.674  32.431   0.852
67919W        W33080   2.355   9.722   3.038
67920W        W33081   1.980   8.746   0.289
67921W        W33082  31.628  16.601  12.961
67922W        W33083  33.348  38.801   0.037
67923W        W33084  41.337  25.271  14.256
67924W        W33085   2.743  44.723  14.942
67925W        W33086  25.760  20.830   1.631
67926W        W33087  10.831   8.091  13.798
67927W        W33088  42.309  38.472  10.694
67928W        W33089   6.261   3.517   5.006
67929W        W33090  38.416  21.763   3.563
67930W        W33091  36.765  12.139   2.234
67931W        W33092  38.615  22.338   2.668
67932W        W33093   6.231  43.992  11.143
67933W        W33094  30.054  34.595   3.775
67934W        W33095  20.163   9.535  10.980
67935W        W33096  14.226  22.647   2.107
67936W        W33097  41.481  21.365   1.797
67937W        W33098   8.197  36.748  12.180
67938W        W33099   8.353  10.750  11.436
67939W        W33100   5.372  44.333   1.816
67940W        W33101  29.523  36.352  10.692
67941W        W33102  27.988  17.786  13.337
67942W        W33103  19.989  14.738   2.358
67943W        W33104  44.749  19.812   3.678
67944W        W33105  23.243  32.598  10.982
67945W        W33106  26.271  33.043  11.971
67946W        W33107  28.956  30.555   3.177
67947W        W33108  24.749  28.304   0.707
67948W        W33109  28.893  10.216   2.002
67949W        W33110   9.336  24.049  11.216
67950W        W33111   4.481  20.072   0.764
67951W        W33112  37.292   9.721   4.606
67952W        W33113  34.771  33.024   1.763
67953W        W33114  20.869  17.034  12.429
67954W        W33115  29.570  30.202  13.229
67955W        W33116  18.265   3.212   3.612
67956W        W33117  43.219   8.306  11.690
67957W        W33118  16.604  11.357   1.915
67958W        W33119  44.407  18.560   2.087
67959W        W33120  37.990  24.206  13.419
67960W        W33121  23.444  27.123  12.934
67961W        W33122  34.648   6.214  14.360
67962W        W33123   0.753  28.093   0.812
67963W        W33124  24.060  15.084  14.027
67964W        W33125  35.979  10.316   0.965
67965W        W33126  23.444  41.893   2.819
67966W        W33127  16.084   0.429  10.755
67967W        W33128  26.511  26.507  14.264
67968W        W33129  26.558  16.602   4.634
67969W        W33130  37.197  29.419   2.920
67970W        W33131  25.217  17.205   0.935
67971W        W33132  40.632  42.831   0.165
67972W        W33133  31.316   8.667   1.734
67973W        W33134  35.367   1.167   3.327
67974W        W33135  27.500  22.281  12.701
67975W        W33136   8.611  20.058   1.439
67976W        W33137  21.933   4.734  14.393
67977W        W33138  13.894  44.318  13.056
67978W        W33139  27.935  39.501  11.227
67979W        W33140  20.160   1.250   2.483
67980W        W33141   6.196  43.737   1.801
67981W        W33142  35.806  44.963  10.591
67982W        W33143   1.782   4.497  13.409
67983W        W33144  12.511  35.329   1.262
67984W        W33145   0.965   2.738   1.421
67985W        W33146  30.655  29.018   2.414
67986W        W33147  10.092  39.927   0.382
67987W        W33148  17.075  33.929  14.281
67988W        W33149  35.487  12.382  13.601
67989W        W33150  23.170  27.024  13.818
67990W        W33151  39.116  18.852  10.115
67991W        W33152  31.846   7.438   0.435
67992W        W33153  36.281  15.746  10.765
67993W        W33154   2.745  41.142  12.570
67994W        W33155  41.798   4.123  14.485
67995W        W33156  36.114  15.062   2.135
67996W        W33157  44.851  23.707   1.436
67997W        W33158  36.442  16.101   1.272
67998W        W33159  35.958  12.367   4.127
67999W        W33160  23.212  21.480   0.602
68000W        W33161  13.356   3.458   1.691
68001W        W33162  36.075  25.514   3.634
68002W        W33163  35.129  23.982  11.593
68003W        W33164  42.215  38.790  12.008
68004W        W33165  41.524  36.853  14.772
68005W        W33166  33.881  41.128   2.925
68006W        W33167  40.719  37.225  12.040
68007W        W33168  27.571  42.885  14.555
68008W        W33169  27.517  13.846  14.004
68009W        W33170  31.872   8.912   2.329
68010W        W33171  31.863  18.070   1.481
68011W        W33172  30.023  18.661   1.069
68012W        W33173  38.061  43.200  12.094
68013W        W33174  22.427  10.344  11.548
68014W        W33175  44.472  12.932  11.477
68015W        W33176  44.328  30.613  13.779
68016W        W33177  40.501  18.017  11.536
68017W        W33178  17.007   0.753   2.762
68018W        W33179  22.486  23.161   1.305
68019W        W33180  21.169  12.951  12.499
68020W        W33181  21.923   2.869   4.889
68021W        W33182  40.818   4.009  12.351
68022W        W33183  34.049  15.815  14.031
68023W        W33184  30.318  19.105   1.785
68024W        W33185  39.991  15.743  11.995
68025W        W33186  14.054  37.052  11.120
68026W        W33187  41.544  12.394  11.193
68027W        W33188  19.276   2.364   0.954
68028W        W33189   1.697  26.899  13.995
68029W        W33190   6.641  39.989   0.743
68030W        W33191  39.408  18.027   3.226
68031W        W33192  40.595  10.315  12.565
68032W        W33193  16.820  28.045   0.850
68033W        W33194  43.486  17.058  12.081
68034W        W33195  41.801  11.469  13.911
68035W        W33196  24.014   9.067   4.908
68036W        W33197  19.644  26.204  13.527
68037W        W33198  33.412  42.849   2.712
68038W        W33199  31.671  32.322  11.327
68039W        W33200  28.077  15.577  14.104
68040W        W33201   1.871  24.257  10.597
68041W        W33202  17.635  31.684  10.409
68042W        W33203  16.247  42.326   0.558
68043W        W33204  24.521   5.627  12.515
68044W        W33205  39.314  25.776   4.122
68045W        W33206  16.177  43.378  10.252
68046W        W33207  36.883  31.042  13.260
68047W        W33208   1.875  36.144   3.406
68048W        W33209  15.081  44.174   5.043
68049W        W33210   3.237   5.268  13.686
68050W        W33211   7.860  35.079   2.258
68051W        W33212   6.417  11.755  10.659
68052W        W33213   1.260  42.893   5.074
68053W        W33214   3.199   3.165   2.062
68054W        W33215   5.761   0.097   4.457
68055W        W33216  20.523  36.449   1.140
68056W        W33217  26.299  21.752   9.463
68057W        W33218  42.072  16.571  10.640
68058W        W33219  20.787   0.820  14.362
68059W        W33220   9.274  15.064  13.566
68060W        W33221  31.233  40.490   3.244
68061W        W33222  15.188  43.149  11.149
68062W        W33223  36.445  42.033  13.889
68063W        W33224   1.354  18.107  13.867
68064W        W33225  24.989  24.944  14.194
68065W        W33226  13.248  19.430  12.568
68066W        W33227  29.458  12.742  14.842
68067W        W33228  41.926  42.691  14.860
68068W        W33229  28.825  33.840  13.950
68069W        W33230  28.202   6.012   5.109
68070W        W33231  22.191   0.200  13.831
68071W        W33232  19.580  44.770   3.755
68072W        W33233   3.941  21.496   3.720
68073W        W33234  26.499  21.322   4.114
68074W        W33235  23.601  14.472   3.590
68075W        W33236  32.657   6.055  11.564
68076W        W33237   0.952  24.595   3.123
68077W        W33238  27.077  39.528  13.827
68078W        W33239  21.347  15.346  13.164
68079W        W33240  11.094   2.901  12.378
68080W        W33241  44.286  18.374  11.569
68081W        W33242   3.479   6.374   1.649
68082W        W33243  42.492  12.457  11.167
68083W        W33244  18.342  10.056  12.068
68084W        W33245   6.155   0.558   0.599
68085W        W33246   9.232  25.401   3.206
68086W        W33247  20.009  44.035   1.391
68087W        W33248  17.699   4.254   4.369
68088W        W33249   3.182  16.057   2.265
68089W        W33250   5.053  14.742   4.961
68090W        W33251   3.300   7.927   2.454
68091W        W33252  17.638  44.238  11.015
68092W        W33253   0.374   0.845  12.853
68093W        W33254  17.000  21.977  11.276
68094W        W33255   8.449  38.853  12.085
68095W        W33256  13.868  16.772  13.383
68096W        W33257  19.788  33.641  12.088
68097W        W33258  24.554   5.294   2.810
68098W        W33259  10.404  26.011  11.119
68099W        W33260  41.913  44.317   4.525
68100W        W33261  38.571   9.114   1.673
68101W        W33262   6.736   5.315   0.240
68102W        W33263   7.990  16.369  14.921
68103W        W33264   0.580   2.870  13.418
68104W        W33265  38.457  22.192  13.036
68105W        W33266  43.153  10.959   4.597
68106W        W33267   4.254  32.051   4.650
68107W        W33268  44.219  41.901   0.579
68108W        W33269  43.739  27.614   2.191
68109W        W33270   6.901   2.688  14.381
68110W        W33271  14.146   1.001  14.865
68111W        W33272   2.675  15.066  14.544
68112W        W33273  28.084  31.629  12.013
68113W        W33274   7.135  38.019   2.956
68114W        W33275   9.210  41.297   3.912
68115W        W33276  28.978  10.828   4.120
68116W        W33277  12.754  16.241   4.231
68117W        W33278  29.031   6.886  14.575
68118W        W33279  19.676   3.188   4.692
68119W        W33280  39.711  19.996   4.452
68120W        W33281  17.727  26.919  11.770
68121W        W33282  11.373  42.787   0.748
68122W        W33283  18.040  27.925   1.449
68123W        W33284  19.540   3.954  11.304
68124W        W33285   5.272  36.516  14.313
68125W        W33286  42.143  37.945   3.807
68126W        W33287  16.593  41.611  12.447
68127W        W33288   1.757  20.824  11.336
68128W        W33289  30.631  28.673   4.262
68129W        W33290  35.226   0.674   0.216
68130W        W33291  43.273  19.565   1.711
68131W        W33292  19.751  10.169   4.192
68132W        W33293  43.293  38.331   0.566
68133W        W33294  19.921  40.428  14.622
68134W        W33295  24.975  14.134  14.873
68135W        W33296   1.980  17.746   4.616
68136W        W33297  30.747  24.553   2.207
68137W        W33298  32.896  16.072   2.777
68138W        W33299  29.067  43.322   1.749
68139W        W33300  14.768   5.814  13.835
68140W        W33301  39.386  31.898  13.293
68141W        W33302  27.079  42.243  11.704
68142W        W33303   0.243  24.253   2.260
68143W        W33304   2.784  44.338   0.698
68144W        W33305  37.622  32.862  14.858
68145W        W33306  29.172  41.074   2.898
68146W        W33307  39.490  33.072   4.616
68147W        W33308  10.939  35.960   2.906
68148W        W33309  42.986  38.555  12.466
68149W        W33310   2.725  35.960  14.870
68150W        W33311   2.556  24.575   0.852
68151W        W33312  41.179   9.752  13.875
68152W        W33313  17.187  14.034  13.499
68153W        W33314  35.042  25.245  12.978
68154W        W33315   2.156  35.155  13.951
68155W        W33316  34.176  40.098  10.247
68156W        W33317  35.505   6.207   4.284
68157W        W33318  39.380  25.665   0.726
68158W        W33319  27.573  22.618   0.479
68159W        W33320  13.087  13.805   1.644
68160W        W33321  40.053   6.681  14.229
68161W        W33322   9.382  10.404  12.234
68162W        W33323  34.038  15.624  11.435
68163W        W33324  31.071  36.386   2.960
68164W        W33325   2.264  30.541   0.556
68165W        W33326   5.229  40.202  10.672
68166W        W33327  12.090  36.097   3.263
68167W        W33328  31.546  15.839   3.850
68168W        W33329   6.267  31.606  11.163
68169W        W33330  36.824  11.988   3.225
68170W        W33331  25.621   2.956  12.401
68171W        W33332   7.182  17.064   0.210
68172W        W33333   0.921  38.009   0.593
68173W        W33334  42.897  14.378   3.168
68174W        W33335   5.835   4.228  11.518
68175W        W33336   3.253  32.186  10.785
68176W        W33337   1.122  35.396  12.947
68177W        W33338  31.018  27.756   2.624
68178W        W33339  17.523  18.806   0.751
68179W        W33340  17.905  39.852  12.633
68180W        W33341  39.522  14.630  12.461
68181W        W33342  35.391   5.316   3.205
68182W        W33343  20.644  37.832  12.635
68183W        W33344  21.414  24.948   0.350
68184W        W33345  23.323   7.302   4.487
68185W        W33346  42.797  40.016   0.610
68186W        W33347   9.315  34.035   2.647
68187W        W33348  31.380  11.640  13.037
68188W        W33349  23.409  43.818   4.507
68189W        W33350  41.835   3.476   2.655
68190W        W33351   7.791  22.557  13.286
68191W        W33352  28.910   4.863  11.769
68192W        W33353  12.641  12.749   1.210
68193W        W33354  10.202  42.773   4.334
68194W        W33355  28.679  30.330  12.392
68195W        W33356  30.054   5.797  14.441
68196W        W33357  12.586   3.129   2.228
68197W        W33358   2.829   5.361  14.080
68198W        W33359  22.565  35.389  14.638
68199W        W33360  44.420  19.238   4.155
68200W        W33361  31.189  12.382   1.869
68201W        W33362  10.340  29.667   0.974
68202W        W33363   7.430  32.647  11.596
68203W        W33364  32.948  18.052   1.801
68204W        W33365  33.003  16.926  14.907
68205W        W33366   9.319  24.790   3.672
68206W        W33367  22.017   7.821   1.320
68207W        W33368  36.033  33.403  12.105
68208W        W33369  17.136  26.123  14.359
68209W        W33370  22.536  31.081   1.989
68210W        W33371   1.635  25.014   2.648
68211W        W33372   5.121  14.324   5.434
68212W        W33373  21.424  11.703  14.941
68213W        W33374   1.508  13.250  12.100
68214W        W33375  17.059   1.862   4.153
68215W        W33376  24.987  15.588   1.974
68216W        W33377  35.716  13.756   3.660
68217W        W33378   8.841  23.500  11.608
68218W        W33379  26.838  14.726  11.256
68219W        W33380  38.603  10.330   1.280
68220W        W33381  12.037  41.001   0.710
68221W        W33382  40.764  24.219   0.970
68222W        W33383  42.722   1.666  14.849
68223W        W33384  14.846  37.082  13.888
68224W        W33385  20.331  42.304   1.712
68225W        W33386  24.690  15.681   1.565
68226W        W33387  32.608  20.157  13.880
68227W        W33388  40.156  30.625  12.470
68228W        W33389  17.281  32.367   4.366
68229W        W33390   1.432  37.067  12.847
68230W        W33391  16.060  43.258   3.311
68231W        W33392  12.517   9.782  12.786
68232W        W33393  13.636  35.406  10.536
68233W        W33394   8.945  14.232  12.993
68234W        W33395   2.338  33.979   3.834
68235W        W33396  38.131   7.806   1.237
68236W        W33397  19.090  34.374  11.142
68237W        W33398  42.484   8.595   2.788
68238W        W33399  16.272   1.106   2.370
68239W        W33400  15.709   6.371   5.218
68240W        W33401  14.124  43.366   0.406
68241W        W33402  13.220  34.035   1.394
68242W        W33403  26.820  27.030   2.670
68243W        W33404  43.449  16.454   0.475
68244W        W33405  23.466   3.143  11.411
68245W        W33406  37.668  22.542   2.802
68246W        W33407  19.287   6.722   1.857
68247W        W33408  31.575  15.660   3.372
68248W        W33409   6.197  32.553   0.841
68249W        W33410  17.751  15.881   9.826
68250W        W33411   6.826   8.949   2.585
68251W        W33412  13.429  31.555   3.760
68252W        W33413  20.500  26.219  12.920
68253W        W33414  27.761  27.127   3.673
68254W        W33415  42.371  15.945   4.544
68255W        W33416  33.457   0.940   3.315
68256W        W33417  15.534  14.227  14.536
68257W        W33418   8.825   9.905  14.716
68258W        W33419  28.975  25.778   2.572
68259W        W33420  42.512  11.968   1.192
68260W        W33421  27.107  17.892   1.795
68261W        W33422  18.234  12.630   2.671
68262W        W33423  42.937  32.100   4.202
68263W        W33424  38.802  21.429  11.650
68264W        W33425   5.865  44.722   3.166
68265W        W33426   0.831   7.584   0.051
68266W        W33427  30.053   6.994  12.075
68267W        W33428   1.293  44.243  13.275
68268W        W33429  29.505  18.269   0.380
68269W        W33430   8.278   2.460  12.255
68270W        W33431  42.630  42.519   1.661
68271W        W33432  21.736  43.408  13.893
68272W        W33433  22.330   3.453  13.052
68273W        W33434  31.605  11.694  12.127
68274W        W33435  43.602  36.454   2.193
68275W        W33436  30.656  16.287  14.439
68276W        W33437  12.286  43.912  11.493
68277W        W33438   4.876  41.959  10.233
68278W        W33439  43.927   8.988   3.246
68279W        W33440  32.516   2.516   4.969
68280W        W33441   9.469   6.349   0.851
68281W        W33442  37.030  12.337   2.857
68282W        W33443  17.629  37.218   1.778
68283W        W33444  44.678  41.316   1.925
68284W        W33445  40.466  27.092   2.373
68285W        W33446  28.154  41.090  14.842
68286W        W33447  39.162  13.640   5.038
68287W        W33448  36.507  36.062   3.806
68288W        W33449   0.341  17.579  14.514
68289W        W33450  30.662  43.388   3.779
68290W        W33451   4.338  30.096  14.000
68291W        W33452  18.149  20.191  11.242
68292W        W33453  38.986  39.542  12.867
68293W        W33454  16.653  42.872   1.344
68294W        W33455   8.952  26.108  12.448
68295W        W33456  21.707  23.453  13.898
68296W        W33457   1.173   0.300  10.957
68297W        W33458  35.551  16.737   3.360
68298W        W33459  19.509   8.237   2.949
68299W        W33460  31.388   0.408  12.035
68300W        W33461  20.089   0.022  11.958
68301W        W33462   5.343  36.069   4.512
68302W        W33463   3.997  12.166   1.889
68303W        W33464   4.837  20.616  13.853
68304W        W33465   9.335  37.943  13.422
68305W        W33466  15.623   6.539  10.558
68306W        W33467  31.889  26.294   4.929
68307W        W33468  22.529  43.293   4.146
68308W        W33469  35.967   0.418   4.788
68309W        W33470  19.945   7.580   3.584
68310W        W33471   7.702   9.025  11.405
68311W        W33472  26.698  25.042   9.854
68312W        W33473  10.000  37.403   3.756
68313W        W33474  12.927  18.099   2.892
68314W        W33475  38.441   6.794  10.723
68315W        W33476  30.918  39.170   9.743
68316W        W33477  20.480  34.387  10.209
68317W        W33478  24.714  19.572   2.266
68318W        W33479  11.469  26.531   0.941
68319W        W33480   6.094  35.514   2.980
68320W        W33481  21.815  33.927   4.479
68321W        W33482  30.403  17.794   0.010
68322W        W33483  33.537   2.919   1.693
68323W        W33484  18.984  35.811   2.725
68324W        W33485  34.501  20.001  10.727
68325W        W33486   3.148  10.346  14.514
68326W        W33487  11.080  21.662  14.418
68327W        W33488  18.772  25.613   1.911
68328W        W33489  25.473  31.575  14.037
68329W        W33490  12.314  32.664  10.733
68330W        W33491  17.215  13.631   4.203
68331W        W33492  21.013  28.740   3.802
68332W        W33493   8.749   6.852   1.254
68333W        W33494  38.347  43.746   2.085
68334W        W33495  35.516   1.905  13.140
68335W        W33496  26.658  43.505   2.327
68336W        W33497  20.028  17.773   0.347
68337W        W33498  29.559  33.510   2.619
68338W        W33499  24.875  39.762   4.483
68339W        W33500  36.503   5.197   4.686
68340W        W33501  15.572  16.725   4.708
68341W        W33502  36.518   3.007  13.371
68342W        W33503  25.914  25.412  13.506
68343W        W33504   4.821  43.685  12.584
68344W        W33505   7.366  35.157   2.417
68345W        W33506  42.514  19.720   5.069
68346W        W33507   7.153   2.370   2.628
68347W        W33508  17.231  19.566  14.402
68348W        W33509  38.395  29.835   1.803
68349W        W33510  41.901  13.232   1.694
68350W        W33511  30.905  37.226  10.812
68351W        W33512  28.905  34.300  12.385
68352W        W33513   0.736  43.757   4.820
68353W        W33514   5.597  21.072  14.546
68354W        W33515  15.709   2.224  13.526
68355W        W33516  11.235  14.772  13.513
68356W        W33517   1.848  38.975   1.925
68357W        W33518  35.522  22.655   3.793
68358W        W33519  13.271  44.665   3.145
68359W        W33520  27.088  37.799   1.728
68360W        W33521  39.276  33.114   4.037
68361W        W33522   0.713  36.969  12.094
68362W        W33523  41.061  25.464  10.611
68363W        W33524  12.011  20.644   2.225
68364W        W33525  27.785  28.339   0.251
68365W        W33526  21.970  21.582   1.478
68366W        W33527   6.509  32.337  12.549
68367W        W33528  28.981  28.482  14.946
68368W        W33529  24.935  24.788   1.897
68369W        W33530  25.156  40.369  14.571
68370W        W33531  32.886  18.480   4.180
68371W        W33532  30.257   1.876   2.168
68372W        W33533  33.911  31.210   3.340
68373W        W33534  29.570   8.380   2.873
68374W        W33535  22.765  38.418   5.023
68375W        W33536   8.256  19.597   4.761
68376W        W33537   9.457  25.951  12.074
68377W        W33538  37.822   8.333  13.032
68378W        W33539  44.901  29.629   4.190
68379W        W33540  37.132   7.410  11.362
68380W        W33541  27.155  14.705  10.829
68381W        W33542  37.439  16.122  14.326
68382W        W33543  39.374  28.390  13.432
68383W        W33544  26.579  24.962   1.813
68384W        W33545  11.578  17.560   4.156
68385W        W33546  26.977  37.027   2.469
68386W        W33547  16.955   0.563  11.639
68387W        W33548  33.071   4.307  14.729
68388W        W33549  33.336  15.186   4.960
68389W        W33550  29.481  18.361   4.290
68390W        W33551  21.738  29.249   1.361
68391W        W33552   6.232   4.752   1.889
68392W        W33553  39.163  20.616  14.978
68393W        W33554  25.575  15.085  10.426
68394W        W33555   0.491   5.373  12.523
68395W        W33556  42.947  20.577   4.824
68396W        W33557  11.360  44.275   1.710
68397W        W33558  41.773   9.243  10.835
68398W        W33559  31.371   7.839   2.743
68399W        W33560  37.602  13.266  10.987
68400W        W33561  35.063   4.975   3.722
68401W        W33562  31.998  27.728  12.574
68402W        W33563  18.386  38.931   4.132
68403W        W33564   2.261  34.175  14.496
68404W        W33565   9.781   6.812  12.689
68405W        W33566  23.985   0.803  13.138
68406W        W33567  38.987  40.293  11.189
68407W        W33568  31.028   8.659   3.248
68408W        W33569  26.683  14.651  12.522
68409W        W33570  25.974  24.299   4.074
68410W        W33571  38.914  29.395   0.372
68411W        W33572  31.714  44.312  12.798
68412W        W33573  11.425  28.088  14.413
68413W        W33574  20.170  30.386  14.426
68414W        W33575  41.755   2.546   2.722
68415W        W33576  15.070  30.057   0.987
68416W        W33577   1.767  42.059  14.465
68417W        W33578  28.699   1.344   4.201
68418W        W33579  18.651  41.296   0.775
68419W        W33580   7.346  11.242   4.810
68420W        W33581  13.896  39.537  11.523
68421W        W33582   8.018  26.600   5.493
68422W        W33583  32.396  11.785   0.298
68423W        W33584  39.576   1.314   5.318
68424W        W33585  36.818  31.032   2.216
68425W        W33586  22.773  31.557  14.396
68426W        W33587  20.951  20.869  13.073
68427W        W33588  25.737   5.448  14.923
68428W        W33589  32.137  15.734   0.386
68429W        W33590  33.588  17.558  10.700
68430W        W33591  20.468   3.017   1.825
68431W        W33592   7.219   0.253   0.907
68432W        W33593  37.202  44.528   1.260
68433W        W33594  12.008  30.044   1.230
68434W        W33595   6.412  23.715  11.513
68435W        W33596  27.174   0.090  12.891
68436W        W33597   4.886  42.141  11.772
68437W        W33598  34.077  18.044  11.571
68438W        W33599  41.845   8.715   0.389
68439W        W33600  37.469  37.377   4.776
68440W        W33601   9.262  16.103  12.600
68441W        W33602  21.340   6.750  13.979
68442W        W33603   5.880  42.447   0.953
68443W        W33604  14.395  16.716  13.322
68444W        W33605  23.029   1.248   9.935
68445W        W33606  17.268  38.518  11.990
68446W        W33607   0.682  41.728   1.208
68447W        W33608  44.499  30.211   3.601
68448W        W33609   4.281  24.122   2.812
68449W        W33610  23.904   1.312  13.003
68450W        W33611  12.889   5.606   3.388
68451W        W33612  36.807  23.084  14.077
68452W        W33613  39.860   0.729   4.000
68453W        W33614   8.579  37.115  11.246
68454W        W33615   1.498   9.445  12.372
68455W        W33616  15.226  35.824   1.762
68456W        W33617  10.320  38.822   4.128
68457W        W33618  27.661  36.865   0.963
68458W        W33619  29.242  24.642  12.582
68459W        W33620  15.487  27.161   4.205
68460W        W33621  35.018  22.226  10.732
68461W        W33622  21.614  25.793   5.597
68462W        W33623  25.700  39.226   3.654
68463W        W33624  33.972  10.761   0.385
68464W        W33625  19.790  37.576  12.921
68465W        W33626  19.839   0.786   0.963
68466W        W33627  41.465  28.689   0.270
68467W        W33628   2.734  39.115  14.807
68468W        W33629  11.778  23.937  12.200
68469W        W33630  34.325  26.070   2.182
68470W        W33631  17.300  15.213   1.408
68471W        W33632  23.453   6.726   1.392
68472W        W33633  13.271  37.634  11.555
68473W        W33634  23.675  20.102  13.965
68474W        W33635   0.993  18.676   3.272
68475W        W33636  39.503  15.178   1.919
68476W        W33637  44.792  42.210  14.109
68477W        W33638  13.789  33.810   0.959
68478W        W33639   7.433  28.758  12.665
68479W        W33640  43.535  18.674   2.608
68480W        W33641  20.587   1.238  10.749
68481W        W33642  38.910  41.667   3.197
68482W        W33643  34.806  41.413   5.023
68483W        W33644  36.419   8.544  11.886
68484W        W33645  32.460  26.629   1.171
68485W        W33646  25.171  25.994  13.609
68486W        W33647   8.849  23.539  10.688
68487W        W33648   1.846  33.518  11.187
68488W        W33649  35.058   1.136   1.355
68489W        W33650  19.576  33.563   1.048
68490W        W33651   5.669  34.347  14.857
68491W        W33652  44.026  19.109  12.467
68492W        W33653   1.877   5.025  11.210
68493W        W33654  29.558  29.112  14.951
68494W        W33655  22.184  30.695   2.273
68495W        W33656  33.066  44.857  10.935
68496W        W33657   1.358  31.498  11.034
68497W        W33658   7.838  35.494  13.919
68498W        W33659  15.280   5.814  13.790
68499W        W33660  10.837  12.608  10.319
68500W        W33661  29.512  27.666   2.306
68501W        W33662  26.210  15.523   0.290
68502W        W33663  38.478  33.016  12.732
68503W        W33664  10.944  19.787  14.530
68504W        W33665  34.850  40.266   2.823
68505W        W33666  36.144   5.473   3.716
68506W        W33667  34.523  43.239   2.188
68507W        W33668  32.516   5.413   5.059
68508W        W33669  32.008  15.699  10.474
68509W        W33670   4.944  35.304   4.061
68510W        W33671  33.469  29.481  10.730
68511W        W33672  21.537  34.446  14.934
68512W        W33673  26.758  36.445  13.978
68513W        W33674  21.708  14.623   4.549
68514W        W33675  12.576  43.399   0.236
68515W        W33676  34.325   7.105   0.431
68516W        W33677  13.129  36.045  10.960
68517W        W33678  24.331  21.597   3.219
68518W        W33679  29.103   3.706   2.641
68519W        W33680  23.584   6.802  13.407
68520W        W33681  41.391  20.307   2.705
68521W        W33682  15.325   7.662  14.846
68522W        W33683   3.283  30.389   1.301
68523W        W33684  39.233  37.648  10.672
68524W        W33685  34.577  37.319   2.838
68525W        W33686  19.810  29.824   2.879
68526W        W33687  39.274  22.575   0.973
68527W        W33688   0.868  38.153  13.336
68528W        W33689  36.976  19.450  10.808
68529W        W33690   3.354  24.381  13.445
68530W        W33691  23.885  19.304  10.952
68531W        W33692  12.887  15.659  10.687
68532W        W33693  15.717  28.180   0.356
68533W        W33694   1.278  29.021   0.369
68534W        W33695  25.907  14.395  10.320
68535W        W33696  39.476  41.202  12.833
68536W        W33697  25.581   4.874  10.443
68537W        W33698  10.260  14.847   3.245
68538W        W33699   0.041  19.226   1.921
68539W        W33700  10.448  43.414   1.340
68540W        W33701  10.676  44.527   3.094
68541W        W33702  14.579  16.680  12.839
68542W        W33703  17.823  44.300   1.514
68543W        W33704  26.625  40.831   1.970
68544W        W33705  15.262  38.825   0.563
68545W        W33706   5.848  43.745   4.562
68546W        W33707  18.537  10.895  12.898
68547W        W33708  44.802  35.788  13.631
68548W        W33709  10.400   0.437   0.939
68549W        W33710   0.931  35.568  14.093
68550W        W33711  42.413   6.502  13.462
68551W        W33712  40.357   9.812   2.243
68552W        W33713   6.160   3.874  12.622
68553W        W33714  39.377  33.532   1.912
68554W        W33715  31.944  10.550   0.275
68555W        W33716   3.140   3.626   2.878
68556W        W33717  15.623  14.812   1.775
68557W        W33718  42.828  29.176  12.127
68558W        W33719  23.084   8.910  14.385
68559W        W33720  40.767  17.190  13.074
68560W        W33721  42.995  22.319   0.737
68561W        W33722   4.304   5.897   2.295
68562W        W33723  38.058   1.311  14.240
68563W        W33724  21.195  36.579   1.783
68564W        W33725  22.644  41.541  13.068
68565W        W33726   7.419  44.326  12.858
68566W        W33727  39.936   2.417  14.332
68567W        W33728   4.431  10.075  10.905
68568W        W33729  15.537  40.300  13.336
68569W        W33730  26.415  37.902  11.696
68570W        W33731  23.562  27.531   3.850
68571W        W33732  30.166   3.383  13.632
68572W        W33733  15.814  20.512   0.429
68573W        W33734  15.128  27.518  13.246
68574W        W33735   0.965  17.372   0.853
68575W        W33736  11.084  26.010   0.228
68576W        W33737  25.954  32.553  14.971
68577W        W33738  15.703  33.751  13.614
68578W        W33739   6.780  39.082  14.834
68579W        W33740  21.452  11.030   0.525
68580W        W33741   7.150  38.350   3.686
68581W        W33742   3.216  29.095   2.562
68582W        W33743  24.113  26.947   1.821
68583W        W33744   4.297   3.081   1.936
68584W        W33745  24.663  34.637   2.335
68585W        W33746  27.701  19.174   1.478
68586W        W33747  28.461  18.198  10.710
68587W        W33748   2.437  39.969  14.915
68588W        W33749  24.976   5.422  11.134
68589W        W33750   3.205  22.843  10.451
68590W        W33751   8.292  15.262  11.380
68591W        W33752  24.545   4.760   3.844
68592W        W33753   9.025  19.213   2.288
68593W        W33754  22.231  41.778   2.198
68594W        W33755   2.413   3.196   4.640
68595W        W33756  16.598  15.553   4.886
68596W        W33757   5.199  27.973   3.322
68597W        W33758  42.256  28.583   3.760
68598W        W33759   5.989  22.664   4.687
68599W        W33760  37.836  15.097  12.974
68600W        W33761  15.147  39.855  13.175
68601W        W33762  31.858  30.560   1.228
68602W        W33763   2.406  23.390   4.156
68603W        W33764  21.559  30.877  11.033
68604W        W33765  40.306  35.186  11.235
68605W        W33766  16.661  16.422  13.308
68606W        W33767   0.364  24.018  12.437
68607W        W33768  39.870  29.596  13.412
68608W        W33769  25.293  22.052   1.829
68609W        W33770   5.265  27.946  12.887
68610W        W33771  20.284  38.657  12.754
68611W        W33772  19.774  19.641  11.674
68612W        W33773  15.341  13.803   3.200
68613W        W33774  43.231   0.655  14.081
68614W        W33775  38.859  41.313  14.907
68615W        W33776  35.462  22.366   0.160
68616W        W33777  24.031  13.869   0.727
68617W        W33778  25.202  17.930   3.240
68618W        W33779   3.013  11.869  11.649
68619W        W33780  29.468   3.921   2.369
68620W        W33781  13.041  10.905   1.662
68621W        W33782  26.908  14.353   2.321
68622W        W33783  10.011  22.218   3.277
68623W        W33784  41.854  30.746  11.589
68624W        W33785  36.375  33.951  12.427
68625W        W33786  32.028  31.044   0.784
68626W        W33787  40.445  44.312   4.081
68627W        W33788  36.881   4.749  14.694
68628W        W33789  26.119  13.208   2.692
68629W        W33790   7.982   2.385   3.694
68630W        W33791  42.958  34.207  10.439
68631W        W33792  32.413  35.935  14.311
68632W        W33793  31.798   4.801   1.440
68633W        W33794  11.569   3.626  11.167
68634W        W33795   7.904  44.881   4.138
68635W        W33796  18.772   6.850  14.019
68636W        W33797   7.369   5.413  14.391
68637W        W33798  39.114  36.588   0.884
68638W        W33799   9.971  44.529  12.894
68639W        W33800  32.133   1.345  12.491
68640W        W33801  41.007  36.080   0.024
68641W        W33802  39.737   2.191   0.383
68642W        W33803   2.482  41.478   0.967
68643W        W33804  11.449  10.780   0.761
68644W        W33805  30.383  29.670  12.963
68645W        W33806  32.818  24.566  12.502
68646W        W33807  34.045  37.712   2.231
68647W        W33808  29.922  36.907  11.543
68648W        W33809  36.810  34.476   1.624
68649W        W33810  23.484   7.687   0.958
68650W        W33811  37.834  20.368  11.185
68651W        W33812  30.514  21.052   3.581
68652W        W33813  40.981  10.122   3.366
68653W        W33814   5.950  29.562  14.409
68654W        W33815  18.760   5.155   2.484
68655W        W33816  41.893  35.880   2.419
68656W        W33817  24.901  33.334  11.927
68657W        W33818   8.640  32.821  13.938
68658W        W33819  38.929  12.566  10.501
68659W        W33820  34.897  34.522   3.242
68660W        W33821  33.526  44.964  10.060
68661W        W33822  42.291  22.725   0.743
68662W        W33823  21.638   1.466  12.548
68663W        W33824  18.608  25.090  14.545
68664W        W33825  10.325  18.176   4.141
68665W        W33826   4.948   9.939   2.840
68666W        W33827   2.834  16.351  14.408
68667W        W33828  43.039  12.711  11.975
68668W        W33829  21.598   4.621  13.301
68669W        W33830  40.651  19.600  10.688
68670W        W33831  35.210  20.112   3.206
68671W        W33832   2.636  29.446  10.736
68672W        W33833   9.216  23.255   2.879
68673W        W33834  21.229   0.158   1.370
68674W        W33835  14.329  33.641  14.745
68675W        W33836  11.188  37.771   0.479
68676W        W33837  23.795  27.742  13.646
68677W        W33838   0.435  20.537   4.400
68678W        W33839  12.640  32.569  11.607
68679W        W33840  31.897  44.901  12.999
68680W        W33841  24.603  28.638   2.913
68681W        W33842   6.818   0.214   2.227
68682W        W33843  13.133  40.262   9.779
68683W        W33844  35.118  41.469   1.486
68684W        W33845  30.110  11.455  14.429
68685W        W33846  39.533  36.764   1.820
68686W        W33847   7.819  17.164  12.887
68687W        W33848   5.343  36.372   1.464
68688W        W33849  29.585  21.670  12.871
68689W        W33850  21.234  15.343   1.279
68690W        W33851  13.164  23.928  10.765
68691W        W33852  21.829   2.389   1.204
68692W        W33853  44.533   5.866   0.064
68693W        W33854  36.428  43.239  14.880
68694W        W33855  39.797   4.501  12.965
68695W        W33856  27.593  36.945  11.720
68696W        W33857  42.014  22.334  11.093
68697W        W33858  24.622  16.967  14.728
68698W        W33859   3.196  14.839   3.587
68699W        W33860  12.697  30.931  13.257
68700W        W33861  32.625  15.225   3.645
68701W        W33862  10.068  32.106  11.089
68702W        W33863  29.978   4.945  14.827
68703W        W33864  39.750  24.091   3.891
68704W        W33865  21.918  26.410   2.191
68705W        W33866  14.560  10.362   0.322
68706W        W33867   1.270  12.218  13.937
68707W        W33868   0.056   5.717   3.349
68708W        W33869  24.793  32.515   3.735
68709W        W33870  33.258  30.159   2.752
68710W        W33871  36.440  36.868  10.315
68711W        W33872  26.977  37.072  13.303
68712W        W33873  17.120  42.833   4.824
68713W        W33874  19.713   5.374   3.143
68714W        W33875   5.865  27.443   3.145
68715W        W33876   9.804  23.770   0.337
68716W        W33877  39.320  33.501   0.981
68717W        W33878  17.527  27.142   1.692
68718W        W33879  29.188  19.307   1.953
68719W        W33880  23.661  21.551  12.882
68720W        W33881  14.376  13.773   1.331
68721W        W33882  14.289  25.521  14.266
68722W        W33883  42.227  33.724   2.838
68723W        W33884   1.924  40.079  13.087
68724W        W33885  43.562   8.480  14.859
68725W        W33886  34.066  21.435   2.794
68726W        W33887  41.434  41.233  12.564
68727W        W33888  22.708   0.464  12.887
68728W        W33889  19.373  14.150  11.137
68729W        W33890  12.964  40.675  11.642
68730W        W33891  38.483  43.833   1.583
68731W        W33892  14.235  21.873   0.879
68732W        W33893  15.565  39.134   2.266
68733W        W33894   3.050  40.345   2.031
68734W        W33895  10.317  20.093   5.073
68735W        W33896  25.536  12.275  12.831
68736W        W33897  31.682  38.127  14.783
68737W        W33898  28.188  15.656  12.009
68738W        W33899  42.406  25.126  11.656
68739W        W33900   7.072   2.537  12.845
68740W        W33901  31.156  18.675   1.525
68741W        W33902  24.469  35.320   3.132
68742W        W33903  44.904  32.883   0.236
68743W        W33904  39.554   0.240   3.273
68744W        W33905  13.391  19.782   4.949
68745W        W33906   6.414  34.847   0.866
68746W        W33907  40.534   5.153  13.542
68747W        W33908  22.252  19.642   0.266
68748W        W33909   8.054  17.145  13.338
68749W        W33910  39.734  17.643  10.579
68750W        W33911   8.090  13.348   0.384
68751W        W33912  42.215  18.626  13.422
68752W        W33913   2.405  35.508  12.581
68753W        W33914  25.965  44.720   2.663
68754W        W33915  43.287   8.890   4.623
68755W        W33916  31.835   7.678  13.550
68756W        W33917   1.139  24.338  11.195
68757W        W33918  21.324   4.662   5.052
68758W        W33919   7.085  11.873   0.308
68759W        W33920  36.355  36.909  14.715
68760W        W33921  28.656  12.210  10.735
68761W        W33922   0.523  44.198  11.542
68762W        W33923   1.782   8.790   2.177
68763W        W33924  14.396  24.591  13.803
68764W        W33925  23.957  27.082  12.926
68765W        W33926  26.186  37.823   0.482
68766W        W33927  18.796  15.702  14.051
68767W        W33928  19.680   8.809   4.807
68768W        W33929  23.171  31.269  11.565
68769W        W33930  36.602   7.770   1.269
68770W        W33931  30.254  41.081   1.776
68771W        W33932   5.677   5.930  13.500
68772W        W33933  19.120  18.919   1.299
68773W        W33934  44.251  29.390  13.175
68774W        W33935   5.599  24.187   0.255
68775W        W33936  36.662  44.857   3.664
68776W        W33937  35.345  24.215   2.350
68777W        W33938  42.980   4.851   3.233
68778W        W33939  22.751   7.355   2.636
68779W        W33940  34.978  39.834   0.810
68780W        W33941  44.255  12.048   2.983
68781W        W33942   8.222  42.033   1.426
68782W        W33943  14.339   8.859   3.723
68783W        W33944  25.152   0.544  10.427
68784W        W33945  13.352  33.900  11.148
68785W        W33946  18.507  10.158   1.862
68786W        W33947   5.817  27.066  10.026
68787W        W33948   9.347   0.827   0.921
68788W        W33949  44.431   7.618  10.524
68789W        W33950   2.461  23.973  11.729
68790W        W33951   5.812  34.638   1.273
68791W        W33952   7.711  35.740  14.381
68792W        W33953  21.631  28.126  13.700
68793W        W33954   6.774  44.228  12.913
68794W        W33955  40.048  23.949  10.828
68795W        W33956  21.945  11.236  11.542
68796W        W33957  17.574  23.138   0.338
68797W        W33958  33.809   2.356   4.158
68798W        W33959   6.172  21.144  11.618
68799W        W33960  30.650   0.215   3.308
68800W        W33961  26.861  43.795   0.148
68801W        W33962  29.593  40.443   0.217
68802W        W33963  19.823  44.960   4.169
68803W        W33964  16.145  27.482  11.833
68804W        W33965   0.465  29.112   0.803
68805W        W33966   0.455  33.356  14.832
68806W        W33967  31.786  44.263   2.336
68807W        W33968  27.378   6.535   4.678
68808W        W33969  34.895   2.488  11.155
68809W        W33970   3.697  34.373   1.448
68810W        W33971  26.861  15.327  13.937
68811W        W33972  28.103  13.780  10.357
68812W        W33973  40.323   9.130  13.392
68813W        W33974  25.108  12.824  11.150
68814W        W33975  20.433   4.398   2.569
68815W        W33976  12.926  22.715   2.278
68816W        W33977  36.012  10.108  10.889
68817W        W33978  10.303  31.253   3.291
68818W        W33979  17.049   1.958   4.677
68819W        W33980  23.643   2.332   4.562
68820W        W33981   5.948  38.928  14.603
68821W        W33982  42.373  26.152   1.821
68822W        W33983  24.507  37.508  14.484
68823W        W33984  41.333  25.200  13.386
68824W        W33985   4.181  29.870   2.573
68825W        W33986  14.749  31.001  13.074
68826W        W33987  18.932  41.065   4.745
68827W        W33988   9.212  23.667  13.546
68828W        W33989  44.759  18.608   1.091
68829W        W33990  19.245  23.494   1.394
68830W        W33991  42.286  42.421   1.281
68831W        W33992  23.640  13.397   0.324
68832W        W33993   5.595   1.702  11.591
68833W        W33994   6.763  44.234   2.182
68834W        W33995  18.137  34.918  14.338
68835W        W33996   1.160  10.319  12.306
68836W        W33997  29.431  15.028   1.818
68837W        W33998  23.179  25.490  13.600
68838W        W33999  44.394  29.871  11.898
68839W        W34000  20.094  41.078  10.927
68840W        W34001  10.651  14.159  10.769
68841W        W34002   1.178   9.346  14.424
68842W        W34003  25.193  31.955  11.417
68843W        W34004  34.122  23.490  14.861
68844W        W34005  15.059  22.286  12.385
68845W        W34006  37.483  41.386   0.667
68846W        W34007  28.233  25.172  14.003
68847W        W34008  21.624  20.612   2.645
68848W        W34009   1.768   0.703   2.195
68849W        W34010  38.951  44.319  13.905
68850W        W34011  25.537  20.640   2.591
68851W        W34012  27.788  35.503   0.689
68852W        W34013  36.847  36.607  12.936
68853W        W34014  43.983   0.966  13.517
68854W        W34015  21.326  33.425   2.837
68855W        W34016  43.363  36.066   0.735
68856W        W34017  31.177   1.396  13.577
68857W        W34018  10.351  13.609  11.529
68858W        W34019  12.894  28.145  14.308
68859W        W34020  41.578  37.265  14.481
68860W        W34021  20.160  38.350  11.262
68861W        W34022  20.826  30.425   3.344
68862W        W34023  30.065   1.747  11.888
68863W        W34024   2.381  25.715  12.112
68864W        W34025  13.798  16.225   1.140
68865W        W34026   9.143  21.776  12.498
68866W        W34027   6.424  22.251  11.896
68867W        W34028  34.572   3.339   4.378
68868W        W34029   7.297  40.316  11.983
68869W        W34030  44.259  38.312  10.304
68870W        W34031  36.645  11.246  12.576
68871W        W34032  10.194  41.235   4.187
68872W        W34033   7.249  27.629   2.130
68873W        W34034   0.921   4.334   1.511
68874W        W34035   5.682  13.033   1.663
68875W        W34036  38.498   7.940  14.810
68876W        W34037  22.279  32.588   3.795
68877W        W34038  27.768   0.939   0.890
68878W        W34039  15.516  24.986   0.503
68879W        W34040  41.013  29.924   0.015
68880W        W34041  31.140  20.355  11.041
68881W        W34042  44.181   3.729  10.859
68882W        W34043  40.090  10.574   0.362
68883W        W34044   9.683  25.904   2.399
68884W        W34045   8.349   4.262   0.028
68885W        W34046  35.126   1.738   4.063
68886W        W34047   5.080  11.843   5.088
68887W        W34048  43.440  17.810  14.287
68888W        W34049   0.339   0.662  10.592
68889W        W34050  18.852  38.831   4.377
68890W        W34051  10.711  19.573   3.437
68891W        W34052  15.734   5.368   1.361
68892W        W34053  22.283  24.986   3.587
68893W        W34054  12.865  10.369   3.750
68894W        W34055  33.671  16.361  12.933
68895W        W34056  32.387  10.374   0.844
68896W        W34057  33.948  36.144   1.325
68897W        W34058  13.727   8.309   0.163
68898W        W34059  27.206   8.744   2.689
68899W        W34060  28.158  16.927   3.612
68900W        W34061  42.144  14.888  11.404
68901W        W34062  31.639   8.820  14.106
68902W        W34063  39.773  38.430   3.692
68903W        W34064  30.405  14.627  11.606
68904W        W34065  13.783  10.902  12.457
68905W        W34066  18.896  21.103   4.466
68906W        W34067  32.795   7.431   1.554
68907W        W34068   6.433  42.895  14.937
68908W        W34069  28.205   4.166  12.168
68909W        W34070  36.787  28.291   5.044
68910W        W34071  33.809  25.195   2.320
68911W        W34072  13.736   4.288  11.469
68912W        W34073  41.273  30.251  11.297
68913W        W34074  11.608  13.873  14.737
68914W        W34075  13.290  29.226  13.439
68915W        W34076   0.441  38.031   0.838
68916W        W34077  40.329  40.758  10.078
68917W        W34078  16.960  13.090   2.702
68918W        W34079  15.199  42.899   4.361
68919W        W34080  15.319  16.354   9.431
68920W        W34081  44.245  25.670  10.696
68921W        W34082   8.347  15.425  12.834
68922W        W34083  27.545  16.563  14.402
68923W        W34084   3.506  21.113   1.389
68924W        W34085   4.032  22.144  11.130
68925W        W34086  22.844  11.174   3.748
68926W        W34087  19.299  38.400   4.629
68927W        W34088  33.676  28.339   1.704
68928W        W34089  27.427  20.152  13.064
68929W        W34090  20.286  13.727  12.897
68930W        W34091   8.412  26.539  13.990
68931W        W34092  39.630   9.384   2.672
68932W        W34093  12.187  37.858   1.454
68933W        W34094   5.411  35.041   4.269
68934W        W34095   1.716  29.095   2.140
68935W        W34096   1.709   2.000   1.941
68936W        W34097  41.488  12.908   1.612
68937W        W34098  17.505  26.112  12.516
68938W        W34099  21.139  39.064   0.975
68939W        W34100   8.348  37.866   3.338
68940W        W34101  15.425  23.852  13.704
68941W        W34102  30.989  43.284   1.738
68942W        W34103   6.251   0.633   5.031
68943W        W34104  14.383  37.058  12.523
68944W        W34105  38.808  24.985   1.864
68945W        W34106   2.545  21.520  14.858
68946W        W34107  21.691  22.224   0.848
68947W        W34108  43.168  37.994  10.330
68948W        W34109   6.740  33.647   0.485
68949W        W34110   9.880  16.636   4.395
68950W        W34111  29.218   2.506  14.337
68951W        W34112  14.383  34.448   2.427
68952W        W34113  23.482  13.088  10.830
68953W        W34114  19.629  10.367  13.962
68954W        W34115   4.362  21.701   0.771
68955W        W34116  28.660  10.702   3.717
68956W        W34117  19.164  12.697   0.789
68957W        W34118  37.354  27.210   1.853
68958W        W34119  40.482  14.375   4.220
68959W        W34120  26.084  18.089   3.725
68960W        W34121   4.226  29.081   1.170
68961W        W34122  17.286  17.105  13.929
68962W        W34123  16.718  28.152   0.354
68963W        W34124  36.726  41.471   1.876
68964W        W34125  10.724  26.998   5.021
68965W        W34126  37.126  40.760  10.828
68966W        W34127  28.626  19.451  14.525
68967W        W34128  28.687   2.679  14.274
68968W        W34129   4.635   8.576  13.952
68969W        W34130  39.044  11.086  13.523
68970W        W34131  31.321  44.212   2.732
68971W        W34132  13.875  33.605   2.196
68972W        W34133  32.838  25.116   4.791
68973W        W34134  38.277  14.101   3.645
68974W        W34135  37.006  30.696   0.178
68975W        W34136  38.894  39.414   3.217
68976W        W34137  18.085  29.565  11.669
68977W        W34138  29.486   9.939   5.026
68978W        W34139  12.942  10.246  12.063
68979W        W34140  20.222  33.673  14.383
68980W        W34141  31.553  14.299  14.567
68981W        W34142   8.884  44.938  14.954
68982W        W34143  37.400  33.159   1.901
68983W        W34144   0.446  44.695   2.765
68984W        W34145  23.103  10.773  11.111
68985W        W34146   3.406  33.844  13.443
68986W        W34147  30.114  12.217  12.997
68987W        W34148  27.937   0.298   1.808
68988W        W34149  20.060  19.632  10.136
68989W        W34150  24.713   2.831  12.492
68990W        W34151  28.086  28.177   3.987
68991W        W34152  11.727   7.950   3.968
68992W        W34153  41.464   1.774  13.000
68993W        W34154  24.687  15.370   2.356
68994W        W34155  38.853  26.453  13.974
68995W        W34156  15.870   5.736  14.536
68996W        W34157   4.774  28.717  12.541
68997W        W34158  31.395  13.434   2.804
68998W        W34159  35.675  43.077  12.150
68999W        W34160  28.437  18.731  13.291
69000W        W34161   1.831  27.237  14.788
69001W        W34162   1.287  31.885  13.341
69002W        W34163  36.046  14.273   4.805
69003W        W34164  32.166  29.575  11.758
69004W        W34165   8.597  14.268   3.069
69005W        W34166  25.848  19.106  11.768
69006W        W34167  27.642  14.255   4.053
69007W        W34168  18.981  33.929   3.740
69008W        W34169   4.748  21.532   0.440
69009W        W34170   7.012  23.711   2.275
69010W        W34171  13.598  22.066   1.208
69011W        W34172  18.916  12.402  11.572
69012W        W34173   2.050  18.526  12.633
69013W        W34174  40.625  34.484  10.777
69014W        W34175  36.937  34.920  12.152
69015W        W34176   5.430  39.358   3.736
69016W        W34177  21.719  17.906  11.960
69017W        W34178  14.904   2.644   2.955
69018W        W34179  32.969  39.365  13.953
69019W        W34180  22.050  14.427   3.150
69020W        W34181  20.228  10.060  10.945
69021W        W34182   7.694  13.735  14.476
69022W        W34183  10.165  36.736  13.066
69023W        W34184  43.099  25.471   4.145
69024W        W34185  20.027   5.325   4.609
69025W        W34186  12.075  27.029   0.424
69026W        W34187  26.962  39.424   1.729
69027W        W34188   9.413  35.859   1.708
69028W        W34189  17.574  14.985  11.973
69029W        W34190   6.591  28.660  13.688
69030W        W34191  18.089  38.023   1.756
69031W        W34192   3.396  38.900  12.172
69032W        W34193  42.672   1.599   3.128
69033W        W34194  17.871   6.616  11.205
69034W        W34195  22.585   5.368  11.600
69035W        W34196   9.414  31.579   3.632
69036W        W34197  35.451  43.285   4.620
69037W        W34198  25.275  32.405   2.164
69038W        W34199  32.876  30.009  14.831
69039W        W34200  26.591  34.084  10.860
69040W        W34201  10.689  22.139  12.542
69041W        W34202  30.611  34.366  11.525
69042W        W34203  17.072  27.130   3.648
69043W        W34204  12.172   2.546  12.974
69044W        W34205   9.713  43.592   0.806
69045W        W34206  29.992   2.369  10.733
69046W        W34207   5.210  18.844  14.756
69047W        W34208  21.720  11.316   4.189
69048W        W34209  44.476  19.744   0.398
69049W        W34210  24.037   8.377   4.582
69050W        W34211  18.614  28.042  14.790
69051W        W34212  39.639   1.514   2.820
69052W        W34213   7.809  38.031   1.887
69053W        W34214  33.894  16.388  14.927
69054W        W34215  12.864  44.704   4.251
69055W        W34216  38.319  12.506   4.000
69056W        W34217   0.286  17.378  13.060
69057W        W34218  11.365   1.412  10.679
69058W        W34219  25.573   1.364  14.371
69059W        W34220  12.802  11.435  13.445
69060W        W34221   9.181  15.427   3.794
69061W        W34222   8.302  40.761  14.999
69062W        W34223  33.800  20.708   3.304
69063W        W34224  39.034  21.083  10.752
69064W        W34225  33.926  20.519   3.834
69065W        W34226   9.117   5.673  10.976
69066W        W34227  44.992   7.436   1.432
69067W        W34228  33.769  35.793  12.212
69068W        W34229  41.915  10.260  10.702
69069W        W34230  16.673  36.845   0.339
69070W        W34231  25.684  27.564   4.503
69071W        W34232   7.673  20.235  11.426
69072W        W34233  43.357   7.999  11.315
69073W        W34234  35.787  12.558  11.197
69074W        W34235  35.169  24.106   0.770
69075W        W34236  37.450  24.611   2.170
69076W        W34237  25.241   9.049   4.584
69077W        W34238  18.570  38.594   3.319
69078W        W34239  14.832  12.786   1.808
69079W        W34240  14.800  28.730  11.912
69080W        W34241  19.418  17.526  11.629
69081W        W34242  25.178  41.033  10.212
69082W        W34243   7.277   2.954   1.806
69083W        W34244  37.486   6.908   2.207
69084W        W34245  38.404  40.795   1.537
69085W        W34246  39.130  33.078   1.254
69086W        W34247   9.415  27.836  10.015
69087W        W34248  37.324  43.690  11.082
69088W        W34249  20.598   9.774   3.787
69089W        W34250  37.409   2.959  12.117
69090W        W34251  40.760  11.410   3.797
69091W        W34252  34.492   7.692   1.557
69092W        W34253  13.125  44.908  13.962
69093W        W34254  21.353  32.115   3.087
69094W        W34255  28.517  34.078   1.274
69095W        W34256  17.728   9.838  12.343
69096W        W34257  24.661  42.667  14.611
69097W        W34258   1.891  12.064   4.702
69098W        W34259  15.709  18.171   5.252
69099W        W34260  27.687   4.838  13.402
69100W        W34261  12.707   5.397   1.959
69101W        W34262   1.223  42.086   2.939
69102W        W34263  29.983   3.017  13.306
69103W        W34264   2.281  29.121  13.038
69104W        W34265  35.829   0.280  11.017
69105W        W34266  13.657   8.084  11.641
69106W        W34267  32.010  39.572  13.058
69107W        W34268  32.523  29.563  10.975
69108W        W34269  25.515  18.417  14.929
69109W        W34270  43.421  35.844   1.190
69110W        W34271   4.252  14.139  14.260
69111W        W34272  10.265  13.840   0.422
69112W        W34273  16.122  39.119  10.647
69113W        W34274  44.943  25.198  13.320
69114W        W34275  33.449  18.291   4.728
69115W        W34276   8.559  32.378   2.815
69116W        W34277  43.352  13.779  10.631
69117W        W34278  31.690  38.449   9.977
69118W        W34279  16.512  25.489  14.484
69119W        W34280  17.684  10.627  11.003
69120W        W34281  22.969  37.373  10.740
69121W        W34282  44.079  33.938   2.509
69122W        W34283  11.599  38.095  13.184
69123W        W34284  14.170  25.623   2.334
69124W        W34285  34.574  12.914  14.390
69125W        W34286  30.948  37.863   3.567
69126W        W34287   4.861   0.938   4.121
69127W        W34288  19.042   1.783   2.293
69128W        W34289   9.850   4.208   3.257
69129W        W34290   9.895  27.305  11.140
69130W        W34291  33.693  41.075   2.432
69131W        W34292  41.858  43.358  10.832
69132W        W34293  17.525  14.275  11.501
69133W        W34294  39.439  39.515  11.557
69134W        W34295  26.654  36.251  11.152
69135W        W34296   4.989  43.491   0.902
69136W        W34297   7.716  14.243   1.932
69137W        W34298  27.601  28.027   2.303
69138W        W34299   0.826   7.217  10.307
69139W        W34300  39.486   2.215  14.493
69140W        W34301  24.015  30.708   2.302
69141W        W34302  26.948   7.946  12.921
69142W        W34303  28.719  24.693   2.271
69143W        W34304  40.954   0.273  13.555
69144W        W34305   9.709  26.686  13.538
69145W        W34306  28.803  10.807   3.245
69146W        W34307  35.329  12.593  14.039
69147W        W34308  42.480   5.772   3.232
69148W        W34309   7.250  15.087   4.619
69149W        W34310  35.595  20.549   4.314
69150W        W34311  29.592   0.502  10.862
69151W        W34312  37.279   3.739   0.455
69152W        W34313  30.653  36.907  13.861
69153W        W34314  19.834  16.186  13.409
69154W        W34315  17.610  44.816   5.353
69155W        W34316  30.386  28.019  11.586
69156W        W34317  36.345   6.422   1.805
69157W        W34318  37.707   1.519  11.776
69158W        W34319  16.040  43.749   3.625
69159W        W34320  35.347  34.809   3.130
69160W        W34321  25.650  13.684   4.518
69161W        W34322  25.451   5.690   3.841
69162W        W34323  23.500  16.847  12.529
69163W        W34324   8.166  13.865   0.447
69164W        W34325  41.744  26.648   2.152
69165W        W34326  32.072  11.369   1.857
69166W        W34327  38.074  33.493  11.477
69167W        W34328  44.279   8.442   2.679
69168W        W34329  10.368   4.246  10.863
69169W        W34330   2.705   1.283  12.955
69170W        W34331  16.335  25.972   2.361
69171W        W34332  24.140  11.808   1.660
69172W        W34333  35.960  40.449  10.790
69173W        W34334  13.677  30.889  11.505
69174W        W34335   3.276  44.844   2.424
69175W        W34336  35.507  27.272   3.991
69176W        W34337  40.364   2.675  10.577
69177W        W34338  16.593  16.929  10.222
69178W        W34339  25.979  43.901  14.765
69179W        W34340  42.314  44.264  12.640
69180W        W34341  17.812   0.326   2.803
69181W        W34342  22.063  25.052  13.420
69182W        W34343  33.907  39.260  12.053
69183W        W34344  37.833   5.947   1.084
69184W        W34345   2.956  31.993  12.972
69185W        W34346  19.342  29.599  11.977
69186W        W34347   4.408  12.260  14.613
69187W        W34348  23.481  18.364   3.943
69188W        W34349  10.095  36.428   3.005
69189W        W34350  35.617  36.275   2.803
69190W        W34351  44.824  41.492  10.794
69191W        W34352  19.275  24.012   5.468
69192W        W34353   9.689  17.252   1.416
69193W        W34354  14.782  25.729   2.708
69194W        W34355   1.374  30.627   4.499
69195W        W34356  28.524  17.115  14.740
69196W        W34357  37.517  39.993  13.340
69197W        W34358  40.359  21.482   1.221
69198W        W34359  42.332  17.313  14.041
69199W        W34360  20.150  14.475  14.888
69200W        W34361  18.073  13.366   0.349
69201W        W34362  12.738  43.334  14.742
69202W        W34363  20.045  14.287  10.756
69203W        W34364  38.022   1.360  12.804
69204W        W34365  15.847   0.408   4.295
69205W        W34366  15.545   2.330   0.946
69206W        W34367  31.644  21.201   1.341
69207W        W34368   0.677  40.445  11.090
69208W        W34369  18.498  38.794   0.566
69209W        W34370   9.303  37.415  13.423
69210W        W34371  41.430  22.325   0.790
69211W        W34372  15.050  16.812  10.595
69212W        W34373  32.742  42.397   1.382
69213W        W34374  28.514  14.558  11.398
69214W        W34375   0.263  44.422  12.477
69215W        W34376  39.459  25.989   1.796
69216W        W34377  18.490  26.041  12.441
69217W        W34378  33.419  44.216   0.332
69218W        W34379  30.876   8.976   0.252
69219W        W34380  12.582  21.296   2.324
69220W        W34381  18.806  18.105   2.513
69221W        W34382  17.551  39.285   1.938
69222W        W34383   1.469  30.536  13.386
69223W        W34384   1.471  39.868   3.718
69224W        W34385   7.417  27.918  13.062
69225W        W34386  27.683  13.948  12.656
69226W        W34387  24.009  25.612  11.570
69227W        W34388  24.103  25.988   4.122
69228W        W34389  16.514  12.705   1.267
69229W        W34390  34.170   0.251  12.519
69230W        W34391  27.291  25.938  13.111
69231W        W34392  41.467  39.929   0.902
69232W        W34393   0.944  23.059   4.499
69233W        W34394  27.439  24.763   9.548
69234W        W34395  11.876  23.956  13.126
69235W        W34396  44.886  22.560   2.911
69236W        W34397  10.232  27.067   3.566
69237W        W34398   5.318  30.978   3.756
69238W        W34399  33.652  39.839   2.349
69239W        W34400   2.810  29.139  13.052
69240W        W34401  28.389  38.942  13.893
69241W        W34402  35.064  42.936   4.956
69242W        W34403  17.006   8.910   4.593
69243W        W34404  38.287  29.958   2.292
69244W        W34405  31.465  39.115   1.870
69245W        W34406   9.814   0.781   0.719
69246W        W34407  27.650  25.320   4.084
69247W        W34408  14.633  36.401   1.046
69248W        W34409   6.938   5.348   4.185
69249W        W34410   2.960  23.579  13.473
69250W        W34411  34.770  14.115  12.169
69251W        W34412  43.508  34.699  11.648
69252W        W34413  15.338  32.143  12.147
69253W        W34414  35.453   7.387   0.462
69254W        W34415  33.134  38.027   3.648
69255W        W34416  25.748  29.949  14.833
69256W        W34417   5.481  38.711  12.578
69257W        W34418  22.792   5.421   3.622
69258W        W34419  39.699  27.701  12.962
69259W        W34420  26.995  41.809  14.999
69260W        W34421  18.115  32.921  14.881
69261W        W34422   1.463  41.704   4.281
69262W        W34423  36.368  22.181   3.817
69263W        W34424  41.505  32.257  11.607
69264W        W34425  30.542  19.655  12.635
69265W        W34426  27.347  31.095  14.750
69266W        W34427   1.862  23.220   0.721
69267W        W34428  19.569   9.614  11.392
69268W        W34429  41.883   7.283  11.672
69269W        W34430  35.426   3.569  10.939
69270W        W34431  43.965  28.714  12.874
69271W        W34432  15.211  37.402  14.457
69272W        W34433  33.584  36.068  10.265
69273W        W34434  19.525  14.648  13.402
69274W        W34435  42.002   8.882   1.410
69275W        W34436  34.523  26.307  11.980
69276W        W34437  30.112  12.877  14.315
69277W        W34438   4.754  39.904   4.798
69278W        W34439  14.286  35.429  11.112
69279W        W34440  32.407  32.157   0.646
69280W        W34441  27.700  17.341  13.368
69281W        W34442  10.408  32.467  12.630
69282W        W34443  33.468  19.294  12.944
69283W        W34444  25.812  29.425  11.557
69284W        W34445   5.728  18.044  13.364
69285W        W34446  44.561  37.530   4.951
69286W        W34447  19.174   8.980   2.292
69287W        W34448   2.854  35.892  10.659
69288W        W34449  17.619  40.536  13.748
69289W        W34450  43.892   2.615   2.247
69290W        W34451  18.361   7.649  13.545
69291W        W34452  37.615   3.914  12.317
69292W        W34453   8.460  22.459   1.182
69293W        W34454  33.537  14.924  12.697
69294W        W34455  10.382  33.079   1.869
69295W        W34456  23.994   7.216  12.626
69296W        W34457  33.196  20.027  11.094
69297W        W34458  40.891   2.166  11.992
69298W        W34459  28.080  25.429   0.276
69299W        W34460  32.879  20.255  12.504
69300W        W34461   0.484  31.086   3.763
69301W        W34462  10.487   6.436   1.005
69302W        W34463  43.508  35.070  10.357
69303W        W34464  32.868  20.978   1.749
69304W        W34465  11.177  17.215   4.007
69305W        W34466   2.952  36.128  12.308
69306W        W34467   5.430  30.979  12.650
69307W        W34468   2.274  34.690  14.988
69308W        W34469  38.601  37.394  12.928
69309W        W34470  23.450  11.179  12.898
69310W        W34471  37.641  15.661   4.214
69311W        W34472  13.602  27.515  10.799
69312W        W34473  32.699   1.912  12.637
69313W        W34474  44.131   9.366   1.757
69314W        W34475   5.908  12.597   4.165
69315W        W34476  43.543  37.917   0.757
69316W        W34477  10.041  41.430  13.550
69317W        W34478  28.735  25.663  13.317
69318W        W34479  31.129  19.168   0.735
69319W        W34480  27.603  10.565  12.851
69320W        W34481  32.914  37.757   4.448
69321W        W34482  12.225  31.206  11.648
69322W        W34483  43.742  42.796   0.727
69323W        W34484  17.792  23.755  12.496
69324W        W34485  20.093  29.057   2.692
69325W        W34486  17.490   2.395  13.719
69326W        W34487   2.444   1.301   1.815
69327W        W34488  37.406  12.304  12.697
69328W        W34489   1.455  34.965   0.707
69329W        W34490  38.313   4.682   4.179
69330W        W34491  35.565  23.335  13.963
69331W        W34492   8.511  34.867   1.673
69332W        W34493  10.814  27.839   1.525
69333W        W34494   1.871   6.364   4.192
69334W        W34495   1.531  41.091   2.917
69335W        W34496  10.415  37.316  11.596
69336W        W34497  44.486  25.468  11.127
69337W        W34498  11.803  24.189  13.610
69338W        W34499  25.962   3.288  11.651
69339W        W34500  31.647  40.320  14.699
69340W        W34501  27.034  22.472  12.970
69341W        W34502   6.717  33.896   4.525
69342W        W34503  42.697  23.828  12.508
69343W        W34504  40.000  22.055   2.677
69344W        W34505  20.273  12.856   2.632
69345W        W34506  23.110  15.221   0.551
69346W        W34507   9.287  41.951   1.793
69347W        W34508  24.112  36.821   2.497
69348W        W34509  11.082  12.141  11.628
69349W        W34510  10.489  31.305   2.446
69350W        W34511  34.914  14.852  13.359
69351W        W34512  44.125  24.993  11.181
69352W        W34513  22.463  37.622   0.372
69353W        W34514  40.707  25.044  12.967
69354W        W34515  21.262  11.694   4.742
69355W        W34516  24.682  38.488  11.838
69356W        W34517  22.338  30.129   4.465
69357W        W34518   9.492  39.326   2.856
69358W        W34519  28.507   4.722   1.716
69359W        W34520  39.831  19.693  14.326
69360W        W34521  35.058  12.235   0.235
69361W        W34522  13.418  30.457  11.418
69362W        W34523  25.722  16.097  13.924
69363W        W34524  32.930  39.062  14.870
69364W        W34525   6.170  10.737   0.316
69365W        W34526   8.095   1.591  13.939
69366W        W34527  43.652  39.584   1.876
69367W        W34528  11.750  26.639  14.500
69368W        W34529  14.891  10.280  12.201
69369W        W34530  31.328  44.154  14.549
69370W        W34531  12.809  26.411  12.368
69371W        W34532  17.878  16.393   1.924
69372W        W34533  43.343  44.779   3.255
69373W        W34534  16.842  27.715  12.904
69374W        W34535  37.113   6.731  11.978
69375W        W34536  36.793  29.681  11.538
69376W        W34537  39.942  34.868  11.440
69377W        W34538  37.346   4.233   1.716
69378W        W34539  20.360  38.864  10.337
69379W        W34540  15.849  25.067   2.420
69380W        W34541   5.180  25.887   0.292
69381W        W34542  26.728  20.842   0.861
69382W        W34543   7.212  34.641  14.926
69383W        W34544  18.202  14.106   9.909
69384W        W34545  12.979  29.837   0.363
69385W        W34546  24.206  15.900  11.108
69386W        W34547   4.050   9.611   3.678
69387W        W34548  23.530  16.916   2.882
69388W        W34549  36.566  12.127   2.747
69389W        W34550   1.533  34.243   2.807
69390W        W34551  38.846  41.278  12.121
69391W        W34552   4.618  34.392   4.184
69392W        W34553  15.544  23.743   2.341
69393W        W34554   2.168  26.069  11.559
69394W        W34555   9.272  16.076   2.342
69395W        W34556  14.060  10.339  13.509
69396W        W34557  34.002  42.443   2.597
69397W        W34558   9.382  39.809  12.090
69398W        W34559  10.865  20.004   2.683
69399W        W34560   3.722   4.767  14.074
69400W        W34561  28.463  27.322  14.426
69401W        W34562  20.523  13.737  14.323
69402W        W34563  22.205  37.415  12.995
69403W        W34564  29.765  41.124   5.422
69404W        W34565   7.304  28.648   3.593
69405W        W34566  18.532  31.332   4.332
69406W        W34567   1.668  25.149   0.768
69407W        W34568  28.665  33.139   4.328
69408W        W34569  39.483  19.317  12.540
69409W        W34570  39.376  37.437   0.305
69410W        W34571  41.735  26.112  14.806
69411W        W34572   8.017  24.606   1.810
69412W        W34573  36.975   4.947   1.340
69413W        W34574  36.237  20.029   1.479
69414W        W34575  21.798  17.456   1.968
69415W        W34576  44.027  29.973   2.758
69416W        W34577  28.216  16.194  13.371
69417W        W34578  20.322  37.951   4.181
69418W        W34579  23.763  10.673   0.128
69419W        W34580  33.973  13.083   3.689
69420W        W34581   7.017  34.852  11.143
69421W        W34582  37.803  27.083   0.683
69422W        W34583  18.283   6.879  12.054
69423W        W34584  18.633  33.616  11.289
69424W        W34585   6.737  11.573   3.336
69425W        W34586  28.287   6.781  14.963
69426W        W34587   9.189  29.343   4.990
69427W        W34588  30.005  36.429   3.264
69428W        W34589  34.088   2.167  11.281
69429W        W34590  37.998  32.024  14.919
69430W        W34591  22.635  33.481   1.971
69431W        W34592  42.850  22.079   1.205
69432W        W34593  22.294  42.456  10.771
69433W        W34594  27.675   5.041  14.745
69434W        W34595  30.203  13.615  11.646
69435W        W34596   7.364  29.844   0.597
69436W        W34597  34.644  20.229   4.909
69437W        W34598   0.979  15.114   4.350
69438W        W34599  11.862   4.762  11.586
69439W        W34600   5.059  15.999   4.937
69440W        W34601  15.371   6.223  14.896
69441W        W34602  17.185  42.340  10.482
69442W        W34603  12.825   8.622  10.701
69443W        W34604  15.156  44.755   0.489
69444W        W34605   9.304  33.833   1.652
69445W        W34606  44.262  43.521  14.878
69446W        W34607  18.149  35.551  12.121
69447W        W34608   0.067  35.830  12.625
69448W        W34609  14.116   5.035  12.535
69449W        W34610  34.098  44.505  12.053
69450W        W34611  12.557  35.091   2.365
69451W        W34612  14.740  36.484  13.037
69452W        W34613  23.436  17.220  10.471
69453W        W34614   6.706  36.336   0.773
69454W        W34615  13.766  22.024   0.716
69455W        W34616  39.887   0.525   0.191
69456W        W34617  39.942  15.883   4.353
69457W        W34618  22.509   1.523   1.726
69458W        W34619  10.828   6.283  14.606
69459W        W34620  39.964   1.843  12.169
69460W        W34621  29.908  10.329  10.205
69461W        W34622  34.642  22.775  12.188
69462W        W34623  13.815  23.128  12.954
69463W        W34624  31.686  21.280  12.523
69464W        W34625  10.349  34.085  13.446
69465W        W34626  14.341   2.411  11.882
69466W        W34627  16.949  38.266   0.207
69467W        W34628   6.335  33.967   2.332
69468W        W34629   9.816  22.079   1.923
69469W        W34630  37.434  39.006   2.258
69470W        W34631  43.465  38.517  13.568
69471W        W34632  23.567  39.338   0.164
69472W        W34633  19.059  23.297   3.288
69473W        W34634   6.524  42.627   4.544
69474W        W34635   3.041  11.740   4.035
69475W        W34636  14.662   6.412  10.627
69476W        W34637  42.307  12.751   0.076
69477W        W34638  40.370  19.644  13.118
69478W        W34639  17.193   9.232  10.761
69479W        W34640  14.090  43.031  13.023
69480W        W34641  27.916  25.530  11.533
69481W        W34642   4.846   6.637  10.432
69482W        W34643   8.460  18.462   1.822
69483W        W34644  13.730  17.613   1.233
69484W        W34645  11.093  24.937  13.428
69485W        W34646  21.219   6.339   3.191
69486W        W34647   2.267  17.827   2.226
69487W        W34648  24.250  34.175   4.140
69488W        W34649  33.490  31.597   4.848
69489W        W34650  25.231   8.759  13.568
69490W        W34651   0.960   3.174   0.577
69491W        W34652  39.537  20.233  14.930
69492W        W34653  21.438  39.879   2.738
69493W        W34654  33.931   4.052   4.665
69494W        W34655  27.225  37.346   4.941
69495W        W34656  26.410   7.276   4.225
69496W        W34657  37.317  11.719   0.080
69497W        W34658  41.538   0.285   2.389
69498W        W34659   2.872  36.575   4.595
69499W        W34660   0.307  31.883   2.350
69500W        W34661  38.876  20.729   3.136
69501W        W34662  25.641  12.161   1.927
69502W        W34663  30.027  39.885  12.831
69503W        W34664  31.796   2.706  13.147
69504W        W34665  17.821  20.449  13.443
69505W        W34666  36.035   8.037   3.657
69506W        W34667   5.716   0.858  12.094
69507W        W34668  43.243   9.325  11.626
69508W        W34669  34.617  36.291   0.343
69509W        W34670  25.159  20.732  13.453
69510W        W34671  28.139  29.086   5.037
69511W        W34672  15.039  14.620  11.603
69512W        W34673  39.358  10.029  14.420
69513W        W34674  33.080  21.137   3.068
69514W        W34675  36.138  27.762   0.421
69515W        W34676   5.702  16.212   0.576
69516W        W34677   1.417  33.608   1.914
69517W        W34678  20.695  29.068   0.594
69518W        W34679  32.082   6.643  13.509
69519W        W34680  37.950  27.691  11.581
69520W        W34681   9.353  44.161   0.061
69521W        W34682  44.904  26.760  11.243
69522W        W34683  24.615  43.279  14.525
69523W        W34684   0.381   0.417  12.590
69524W        W34685  13.059  36.368  11.570
69525W        W34686  33.875  31.525   4.488
69526W        W34687  42.387   6.226  12.563
69527W        W34688  40.752  27.495  14.517
69528W        W34689  13.277   3.268   0.482
69529W        W34690  26.005   7.398  13.483
69530W        W34691  26.197   5.662   2.313
69531W        W34692  13.161  42.078  14.748
69532W        W34693  23.366  13.239  12.682
69533W        W34694  23.170  32.582  14.931
69534W        W34695  39.902  20.764  12.501
69535W        W34696  13.784  19.474  12.082
69536W        W34697  33.788  20.748  14.327
69537W        W34698  44.722  26.337   0.204
69538W        W34699  41.738   4.820   4.583
69539W        W34700  33.871  26.368   4.647
69540W        W34701   9.647  29.297   1.365
69541W        W34702  23.480  26.597  13.835
69542W        W34703  36.537  12.683  10.743
69543W        W34704  24.162  23.611   2.712
69544W        W34705  36.920  21.512   1.426
69545W        W34706  39.372  19.823  11.187
69546W        W34707   6.832  20.267   1.418
69547W        W34708   4.409  11.148   0.575
69548W        W34709  10.959  21.786  12.838
69549W        W34710  41.077  26.546  14.332
69550W        W34711  42.278  27.620   3.643
69551W        W34712  36.593  20.224   3.337
69552W        W34713  13.285  39.966   4.551
69553W        W34714  19.527  32.449   4.064
69554W        W34715   7.864   2.424  14.507
69555W        W34716  39.521  35.071  11.680
69556W        W34717  25.751  28.441  11.552
69557W        W34718  31.919  29.742   3.195
69558W        W34719  13.924   2.337  11.212
69559W        W34720  16.797  24.505  14.555
69560W        W34721  42.788  25.109   2.867
69561W        W34722  14.123  34.419   1.902
69562W        W34723  17.946  10.294  10.282
69563W        W34724  30.406  26.103  11.519
69564W        W34725  43.986  20.792  11.926
69565W        W34726  10.308  30.002   3.353
69566W        W34727  29.795   6.295  11.223
69567W        W34728  17.816  39.480   2.861
69568W        W34729   7.844  13.771   1.709
69569W        W34730  29.655  42.422   0.354
69570W        W34731   2.733  34.942   3.017
69571W        W34732   6.980  19.559  10.952
69572W        W34733  34.107   8.475  11.915
69573W        W34734   2.772  11.914   0.426
69574W        W34735  41.306  41.073  14.829
69575W        W34736  16.602  30.380   1.869
69576W        W34737   4.785  18.801   0.971
69577W        W34738  19.491  40.418   3.568
69578W        W34739  15.373  21.685   1.495
69579W        W34740  26.073  19.010   4.926
69580W        W34741  12.153  35.425   4.824
69581W        W34742  29.470   4.242   3.571
69582W        W34743  19.069  44.705   1.727
69583W        W34744  19.280  15.747  14.966
69584W        W34745  29.126  28.416   1.334
69585W        W34746  18.986   1.324   0.443
69586W        W34747  32.989   4.471   3.848
69587W        W34748  16.118  39.577  14.921
69588W        W34749  21.061   9.013   3.912
69589W        W34750  19.070  36.350  12.958
69590W        W34751   2.384  14.867  14.926
69591W        W34752  39.164  26.043  11.464
69592W        W34753  44.302  23.998  13.373
69593W        W34754  23.005  13.631  13.005
69594W        W34755  43.621  20.460  11.159
69595W        W34756   9.622  15.194   1.360
69596W        W34757  26.624  31.877   0.472
69597W        W34758  38.033   4.475   4.633
69598W        W34759  16.393  26.391   0.319
69599W        W34760  44.330   6.923   2.736
69600W        W34761  41.337  36.556   3.391
69601W        W34762  20.221  41.277  13.474
69602W        W34763  14.676  35.459  10.770
69603W        W34764  44.425   6.957   3.636
69604W        W34765  38.734  35.873  12.965
69605W        W34766  23.137  32.785  12.484
69606W        W34767   3.821   7.844   4.610
69607W        W34768   0.386   9.842  13.792
69608W        W34769   8.403  22.206  12.823
69609W        W34770  41.717  39.305  14.592
69610W        W34771  30.342  13.091  14.783
69611W        W34772   4.268   4.048   0.616
69612W        W34773  44.974  40.681  11.511
69613W        W34774  28.467  20.051   4.897
69614W        W34775  29.571  28.675   1.446
69615W        W34776   7.978  15.385   3.269
69616W        W34777  15.355  31.456  14.867
69617W        W34778  31.969  22.291   4.370
69618W        W34779  12.734  24.104  13.953
69619W        W34780  24.044  30.201   2.159
69620W        W34781  38.651  28.097   4.825
69621W        W34782  13.543  30.464  12.902
69622W        W34783  29.474  25.762   2.354
69623W        W34784  21.641   9.390   3.367
69624W        W34785  27.102  44.403   2.427
69625W        W34786  35.682  41.016   0.694
69626W        W34787  28.594  29.076   3.636
69627W        W34788  13.186   0.338  14.747
69628W        W34789  15.675  29.139  13.028
69629W        W34790   5.024  14.629   1.078
69630W        W34791   8.816   1.085   2.732
69631W        W34792  22.236  28.439   1.255
69632W        W34793  35.710  25.085   4.889
69633W        W34794  27.523  27.196   3.221
69634W        W34795  27.185   4.385  12.900
69635W        W34796  28.129   1.841  14.739
69636W        W34797  31.097  41.809  11.640
69637W        W34798   1.105   4.798  10.794
69638W        W34799  15.754  35.065  12.908
69639W        W34800  26.099  32.961  11.125
69640W        W34801  38.397  25.596   4.145
69641W        W34802   2.769  10.733   1.170
69642W        W34803   1.142   4.210   3.139
69643W        W34804   1.157  29.518   3.175
69644W        W34805   7.748  13.859   3.256
69645W        W34806  37.421  10.278  14.704
69646W        W34807  22.905  43.357   0.807
69647W        W34808  10.592  24.448   3.722
69648W        W34809   1.513   5.269  11.513
69649W        W34810  33.499   5.864   4.210
69650W        W34811  21.066  40.405  11.488
69651W        W34812  30.634   4.314  10.728
69652W        W34813  37.558  32.123   2.158
69653W        W34814  32.138  13.782  13.982
69654W        W34815  10.418   8.665  10.752
69655W        W34816  13.346  11.221  11.187
69656W        W34817  23.258  20.788   1.188
69657W        W34818  16.682  44.943   1.210
69658W        W34819  28.522  28.521  13.449
69659W        W34820  28.416   6.398   1.038
69660W        W34821   4.928  30.025   2.304
69661W        W34822  33.937  39.892  11.127
69662W        W34823  37.472  40.478   2.912
69663W        W34824  13.375   6.061   0.819
69664W        W34825  39.171  26.959   2.436
69665W        W34826  40.254   8.383   3.465
69666W        W34827  37.600  33.107   2.906
69667W        W34828   3.801  42.065  14.616
69668W        W34829  36.980   6.268  13.330
69669W        W34830  24.031   0.739  14.868
69670W        W34831  20.278  30.148   2.329
69671W        W34832  19.085   0.775  10.720
69672W        W34833  38.146  21.482   1.783
69673W        W34834  26.499   4.606   0.579
69674W        W34835  28.428  15.690  11.559
69675W        W34836   7.041  23.202   3.709
69676W        W34837   3.722  42.479  13.091
69677W        W34838   3.186  39.302  14.996
69678W        W34839  23.530  40.507   3.029
69679W        W34840   6.642  32.905   0.928
69680W        W34841  35.791   8.935   2.463
69681W        W34842  30.594  16.347  11.135
69682W        W34843  40.879  14.607   4.597
69683W        W34844  38.771  30.608   2.056
69684W        W34845  28.452  19.611  13.570
69685W        W34846  30.305   4.813  11.598
69686W        W34847  33.214  34.613   0.290
69687W        W34848  19.261   4.450  14.942
69688W        W34849   6.877  11.929  13.375
69689W        W34850  19.514  18.521  12.919
69690W        W34851  42.343  34.682   2.626
69691W        W34852  29.942  35.935  12.886
69692W        W34853  35.081   2.913  10.896
69693W        W34854  16.056  23.929   4.654
69694W        W34855  20.345  24.421  14.258
69695W        W34856  35.804  42.102  14.416
69696W        W34857  40.528  16.538   4.363
69697W        W34858  15.050   7.912  11.530
69698W        W34859  32.483  22.570  14.604
69699W        W34860  42.277  20.674   2.033
69700W        W34861  44.838  30.583  12.958
69701W        W34862  35.888  11.598  14.908
69702W        W34863  38.639  32.102   0.361
69703W        W34864   5.282   7.803  12.518
69704W        W34865  34.847   3.039   3.574
69705W        W34866  30.564  34.463   1.268
69706W        W34867  14.206  18.643  14.367
69707W        W34868   5.742   4.372   4.822
69708W        W34869  41.916  27.777   5.014
69709W        W34870  24.651   9.940   2.419
69710W        W34871  28.076  16.662   2.707
69711W        W34872  15.853  29.381  12.122
69712W        W34873  36.906  18.962   4.480
69713W        W34874   4.163   1.460   3.336
69714W        W34875  16.558   0.559   3.053
69715W        W34876  26.526  16.832   0.843
69716W        W34877   8.825  43.714  13.198
69717W        W34878  23.774   1.310   1.301
69718W        W34879   5.379  22.203   4.286
69719W        W34880  34.153  32.013  12.840
69720W        W34881  43.070  12.565   2.709
69721W        W34882  23.259   4.181  13.263
69722W        W34883  25.619   7.168   0.892
69723W        W34884   3.613  11.300  10.658
69724W        W34885  10.860  38.300  12.027
69725W        W34886  10.634  30.294   2.648
69726W        W34887  30.203  41.559   1.498
69727W        W34888  16.882   7.953   2.206
69728W        W34889   3.810   1.082   3.276
69729W        W34890   4.614  14.113   4.533
69730W        W34891  37.916   1.327   0.736
69731W        W34892   0.411  35.930  14.832
69732W        W34893  22.555  16.060   0.924
69733W        W34894  35.140  29.154   4.170
69734W        W34895   5.166  40.854   4.702
69735W        W34896   9.321  17.820   0.347
69736W        W34897  11.033  15.699   1.666
69737W        W34898   1.217  26.981   2.673
69738W        W34899  15.321  27.464  11.411
69739W        W34900  30.031  32.850  10.921
69740W        W34901  22.168  40.946   1.876
69741W        W34902  15.141  10.375  10.419
69742W        W34903  16.850  30.389  12.599
69743W        W34904  32.523  36.974  11.493
69744W        W34905  14.485  30.275   3.694
69745W        W34906  11.143  39.959   1.294
69746W        W34907  14.598  24.424   3.192
69747W        W34908  24.372   3.883  13.842
69748W        W34909  42.017   7.432  12.135
69749W        W34910  35.460   3.968  11.282
69750W        W34911  17.274   6.417   4.688
69751W        W34912  12.908  27.920  12.518
69752W        W34913   0.899  17.646   0.410
69753W        W34914  25.192  15.813   3.667
69754W        W34915  11.749   6.799   4.503
69755W        W34916  16.623  21.086   1.859
69756W        W34917  38.518  19.487  13.854
69757W        W34918  40.669  14.429  14.155
69758W        W34919  44.064  40.811  13.671
69759W        W34920  40.286  37.008   2.843
69760W        W34921   0.179  16.852  13.125
69761W        W34922  41.846   1.932   0.903
69762W        W34923  43.368   7.394  12.003
69763W        W34924   9.505  38.079   2.152
69764W        W34925  13.846   7.969  13.892
69765W        W34926  34.939  11.986  12.292
69766W        W34927   4.816   5.881  12.497
69767W        W34928  16.711  16.132   0.828
69768W        W34929  23.855  28.756  13.122
69769W        W34930  18.689  27.662  13.834
69770W        W34931  20.079   1.151   3.651
69771W        W34932  18.255  29.717   3.724
69772W        W34933  25.066  28.446  11.083
69773W        W34934  35.100  36.487   0.205
69774W        W34935   9.614  23.650  13.927
69775W        W34936  13.708   6.028  10.607
69776W        W34937  24.409  14.287  12.485
69777W        W34938  11.747   1.832   1.917
69778W        W34939   4.455  12.236  12.012
69779W        W34940   9.163  34.475  14.496
69780W        W34941  29.753  35.877  13.881
69781W        W34942   8.691   7.827   2.770
69782W        W34943   0.934  39.576  12.701
69783W        W34944  10.285  10.137  12.466
69784W        W34945   2.200  33.371  13.414
69785W        W34946   2.675   3.165  13.086
69786W        W34947   9.209   2.279  12.717
69787W        W34948  33.402  17.282   4.751
69788W        W34949  31.087  11.186  14.308
69789W        W34950  19.178  42.003  12.977
69790W        W34951  31.456  28.605  14.727
69791W        W34952   9.441  40.543  14.285
69792W        W34953  15.226  15.204   3.853
69793W        W34954  17.117  26.449  13.964
69794W        W34955  32.840  15.205   0.944
69795W        W34956  30.394   4.395   3.641
69796W        W34957  13.385  39.512  11.649
69797W        W34958  18.956  21.798   9.571
69798W        W34959   5.197  20.211  14.918
69799W        W34960  26.517  27.044  12.880
69800W        W34961  25.212  16.751  11.052
69801W        W34962  27.887  41.535   4.110
69802W        W34963  30.357   5.456   3.611
69803W        W34964  34.331  40.429  13.377
69804W        W34965  15.338  33.239  14.802
69805W        W34966  30.169  44.530   3.552
69806W        W34967   4.106  17.777   4.257
69807W        W34968  13.403  44.350  13.319
69808W        W34969   9.845   0.385   3.637
69809W        W34970   4.295  23.074  10.280
69810W        W34971  16.055  44.286  10.235
69811W        W34972  30.071  25.417   0.203
69812W        W34973   9.202  37.266   2.369
69813W        W34974  22.597  33.343  11.176
69814W        W34975  15.395   1.795   0.989
69815W        W34976  18.933  18.631   0.850
69816W        W34977   1.375  20.024  14.504
69817W        W34978   4.564  23.692  11.229
69818W        W34979   0.556   4.341  14.947
69819W        W34980  36.477  12.634   0.224
69820W        W34981  16.727  11.344   0.074
69821W        W34982  13.441  31.885  12.442
69822W        W34983  14.915   0.610   5.106
69823W        W34984  37.446  21.207  12.617
69824W        W34985  43.765  28.573  13.582
69825W        W34986  21.029   2.048   4.395
69826W        W34987  28.317   4.201   0.376
69827W        W34988   4.875  16.818  14.954
69828W        W34989  14.412   5.303   2.836
69829W        W34990  33.331  35.434   4.313
69830W        W34991  17.737  13.459   4.327
69831W        W34992  44.005   4.770   3.074
69832W        W34993   9.122   5.712   0.329
69833W        W34994  40.477  27.392   4.162
69834W        W34995  28.628  27.714  11.553
69835W        W34996  18.382   0.635  12.417
69836W        W34997  28.015  44.514  11.760
69837W        W34998  29.420  31.032  14.900
69838W        W34999  24.581  40.925  12.346
69839W        W35000  33.684  20.707  13.129
69840W        W35001  13.413  30.171  13.793
69841W        W35002   4.727  12.184   2.390
69842W        W35003  31.035   3.718  13.482
69843W        W35004  29.470   3.927   2.903
69844W        W35005  23.776  34.015  13.337
69845W        W35006  27.798  31.612  11.574
69846W        W35007  27.361   4.265  14.072
69847W        W35008  28.873  39.545   5.392
69848W        W35009  33.854  26.577  11.511
69849W        W35010   8.039  40.521  13.480
69850W        W35011  24.087   8.804   0.998
69851W        W35012  21.451   2.757   1.731
69852W        W35013  39.564  34.043   1.738
69853W        W35014  27.640  15.738   0.979
69854W        W35015  26.488  12.213  11.375
69855W        W35016  33.612  19.049   4.129
69856W        W35017  10.443  33.054   3.177
69857W        W35018  42.343  35.575  14.341
69858W        W35019  22.267  26.271  11.558
69859W        W35020  24.975  33.343  11.044
69860W        W35021   4.627  39.144  10.421
69861W        W35022   9.895  18.453  13.934
69862W        W35023  17.672  20.372   0.718
69863W        W35024   6.224  25.068  14.276
69864W        W35025  44.550  17.758   0.748
69865W        W35026  25.520   2.773  13.380
69866W        W35027  40.007  28.663   3.865
69867W        W35028  12.224  28.162  13.293
69868W        W35029  40.847  17.840  14.970
69869W        W35030  42.096  16.643  14.476
69870W        W35031  33.014   0.911  14.349
69871W        W35032  18.629  33.299  13.544
69872W        W35033  32.003  23.047   2.911
69873W        W35034   2.416   0.749   1.828
69874W        W35035  16.922  23.269   2.137
69875W        W35036  19.568  15.302  14.836
69876W        W35037  37.104  24.238   0.360
69877W        W35038  35.095   6.195  14.062
69878W        W35039  20.428   5.638   0.835
69879W        W35040   6.682  14.037  14.495
69880W        W35041  25.945  42.378  14.489
69881W        W35042  13.594  35.602   4.257
69882W        W35043  11.602  12.301   2.402
69883W        W35044  23.159  10.750   2.245
69884W        W35045  40.266   2.750   2.419
69885W        W35046   9.959   0.277   0.744
69886W        W35047  17.727  40.550  11.522
69887W        W35048  37.610  31.523  13.336
69888W        W35049  41.379  19.935  14.336
69889W        W35050  44.294  35.131  13.370
69890W        W35051  27.486  24.064  10.616
69891W        W35052  40.061  38.465  12.569
69892W        W35053  30.486   3.472  11.614
69893W        W35054  30.729  24.827   5.775
69894W        W35055  37.299  39.563  14.816
69895W        W35056  12.160  22.608   1.970
69896W        W35057  36.507  11.062   1.648
69897W        W35058  14.857  13.245   0.622
69898W        W35059   4.392  13.815  12.041
69899W        W35060  33.602  40.904   0.709
69900W        W35061  37.072  24.412   2.856
69901W        W35062  12.655   1.829   1.357
69902W        W35063  35.473   3.904  13.271
69903W        W35064  26.579   2.263   2.243
69904W        W35065  38.894  25.055  11.573
69905W        W35066  41.418  26.163   0.399
69906W        W35067  20.874  43.550   0.659
69907W        W35068  23.256  28.267  10.739
69908W        W35069   2.948  38.116  10.240
69909W        W35070   3.956  31.013  14.003
69910W        W35071  27.183  27.660  14.788
69911W        W35072  32.532   4.226   3.188
69912W        W35073  37.086  29.069  14.195
69913W        W35074   2.234  18.768   0.747
69914W        W35075  39.400  39.411   3.335
69915W        W35076   5.166   9.303  12.921
69916W        W35077   4.895  37.456  13.624
69917W        W35078  20.080   1.325   2.992
69918W        W35079  25.601  15.248  14.502
69919W        W35080   3.956   9.924  11.085
69920W        W35081  12.183  39.906   0.445
69921W        W35082  22.178  13.029   3.717
69922W        W35083  16.575   0.935   1.310
69923W        W35084   8.228   2.120   4.080
69924W        W35085  38.500  34.804   3.660
69925W        W35086  33.527  36.559   3.395
69926W        W35087  39.938  13.249   4.474
69927W        W35088  18.656  37.402   5.059
69928W        W35089  17.267  12.732  14.519
69929W        W35090   8.298   4.652   1.235
69930W        W35091   3.665  30.478  10.741
69931W        W35092  26.939  42.344   1.611
69932W        W35093  40.921  26.488   2.013
69933W        W35094  21.156  10.234  14.101
69934W        W35095   3.825  39.100   2.238
69935W        W35096  31.989  40.587   4.135
69936W        W35097  14.307  15.137   2.456
69937W        W35098   8.666  25.381  13.940
69938W        W35099  30.903  23.742   0.832
69939W        W35100  40.882  18.781  10.948
69940W        W35101  38.151   7.264   4.299
69941W        W35102  15.059  10.135   1.227
69942W        W35103  41.999  26.489  14.387
69943W        W35104  32.414  30.363   2.951
69944W        W35105  34.456  41.680   2.061
69945W        W35106  31.265   8.769   3.717
69946W        W35107   8.680   0.354  11.647
69947W        W35108  17.306  44.502   4.990
69948W        W35109   0.966  14.202   4.565
69949W        W35110  22.811   5.707   0.805
69950W        W35111   3.886   2.811  13.403
69951W        W35112  23.563  39.043   1.459
69952W        W35113  38.420   7.221  13.037
69953W        W35114  10.559  39.818  13.305
69954W        W35115  17.755  29.195  11.470
69955W        W35116   2.174  41.222  11.044
69956W        W35117  23.466  39.233  13.071
69957W        W35118  34.639   5.845   0.737
69958W        W35119  44.679  11.312  14.505
69959W        W35120   3.947  11.634  14.068
69960W        W35121  21.257  11.216  12.033
69961W        W35122   4.889  26.972   1.944
69962W        W35123  42.449  22.208  11.530
69963W        W35124  23.079  36.744   4.681
69964W        W35125  23.941  44.553   0.873
69965W        W35126  39.646  15.641  12.871
69966W        W35127  15.154   4.106  12.465
69967W        W35128  20.292  14.752   2.781
69968W        W35129  33.623  19.578  10.762
69969W        W35130  22.649  17.306  13.984
69970W        W35131  15.190  23.568  11.847
69971W        W35132  28.635   5.471   3.146
69972W        W35133  18.011   6.214   3.275
69973W        W35134  10.096   9.222  14.076
69974W        W35135  44.203   3.506   3.378
69975W        W35136  16.236  32.525   3.522
69976W        W35137  42.372  32.403   3.777
69977W        W35138  19.046  40.640  14.213
69978W        W35139  18.189   4.900   4.575
69979W        W35140   6.127  21.525   0.309
69980W        W35141   5.886  39.588  12.585
69981W        W35142  11.167  23.428  13.329
69982W        W35143   2.303  37.592   3.763
69983W        W35144  34.808  10.311   1.225
69984W        W35145  36.607  43.300  13.444
69985W        W35146  24.530   2.451   1.843
69986W        W35147   2.841  10.721  12.010
69987W        W35148  38.207   0.850  11.567
69988W        W35149  22.733  31.489   0.285
69989W        W35150  36.519  32.197   4.207
69990W        W35151   6.701  44.753   1.879
69991W        W35152  11.941   9.287  13.112
69992W        W35153   1.512  29.547   4.762
69993W        W35154  11.116  18.330  12.384
69994W        W35155  40.065   0.664   1.436
69995W        W35156  38.344   3.270  11.197
69996W        W35157   4.132   4.767  10.614
69997W        W35158  35.304   3.735  12.241
69998W        W35159  22.641  23.996   0.836
69999W        W35160   5.900  24.597  13.964
70000W        W35161  26.414  25.240  11.901
70001W        W35162  29.275  39.783   3.167
70002W        W35163  41.846   2.017  14.122
70003W        W35164  16.496   3.342   3.229
70004W        W35165  17.083  22.287  14.492
70005W        W35166   3.352  44.267   3.292
70006W        W35167  34.868  14.052   2.437
70007W        W35168  36.648  26.106   0.224
70008W        W35169  38.823  14.691  12.983
70009W        W35170   9.552  37.040   1.433
70010W        W35171   0.047   7.735  14.353
70011W        W35172  11.190   9.338   1.938
70012W        W35173  18.666  34.786   0.394
70013W        W35174  22.246  39.016  13.535
70014W        W35175   0.891  41.426   2.321
70015W        W35176  21.068  13.224  11.217
70016W        W35177  27.388  34.372   4.643
70017W        W35178  44.639  16.164  11.566
70018W        W35179  41.929  37.741   4.825
70019W        W35180  22.501  39.153  13.976
70020W        W35181  40.908  33.677   0.547
70021W        W35182  36.316  25.128  10.941
70022W        W35183   5.885  20.993   1.774
70023W        W35184  23.454  38.716  13.219
70024W        W35185  42.657  40.419   4.992
70025W        W35186  26.148  36.337   3.714
70026W        W35187  14.221  37.942   3.383
70027W        W35188   8.115  29.148  14.714
70028W        W35189  13.136  41.623   2.239
70029W        W35190  40.747  37.018   1.299
70030W        W35191   0.801  16.536  14.997
70031W        W35192  44.024   9.846   4.690
70032W        W35193  31.354  42.399  14.648
70033W        W35194  41.905   6.864   2.158
70034W        W35195  11.635  18.506  10.320
70035W        W35196  18.174  40.058  14.215
70036W        W35197  34.834  28.044  12.029
70037W        W35198  35.586  24.607   1.209
70038W        W35199  42.486   7.757  11.157
70039W        W35200  32.124   6.397   2.291
70040W        W35201  12.735   5.215  10.972
70041W        W35202  32.937  40.941   3.897
70042W        W35203   4.839  30.891   9.844
70043W        W35204  26.252  34.101  11.523
70044W        W35205  25.183  40.264  11.777
70045W        W35206  29.502   9.628  11.472
70046W        W35207  17.524  10.226  10.563
70047W        W35208  28.149  18.529  11.172
70048W        W35209  15.805  20.240  10.169
70049W        W35210  14.211  13.696   4.174
70050W        W35211  31.132  24.778  12.584
70051W        W35212  44.088   0.272  14.461
70052W        W35213  29.148  22.021  14.989
70053W        W35214  14.040  36.909   0.810
70054W        W35215  30.926  22.835   2.097
70055W        W35216  17.107   0.402   4.342
70056W        W35217   1.771  12.779   0.837
70057W        W35218  36.027  43.451   1.264
70058W        W35219   0.322  34.385  10.597
70059W        W35220   4.776   4.872   4.645
70060W        W35221  44.436   6.713   4.140
70061W        W35222   0.071  26.157  11.861
70062W        W35223   9.320  13.709  11.612
70063W        W35224   5.423   8.064   4.565
70064W        W35225  21.077   6.636   3.663
70065W        W35226  20.264  14.099   1.758
70066W        W35227  23.692  15.387  14.313
70067W        W35228   5.914  24.921   4.297
70068W        W35229  19.785  20.418   3.107
70069W        W35230   1.490  16.772   1.162
70070W        W35231  15.951   4.361  12.757
70071W        W35232   9.138  23.176  13.430
70072W        W35233  34.074  13.801  11.928
70073W        W35234  34.149  14.300  14.340
70074W        W35235  43.859   6.773   2.906
70075W        W35236  14.195  16.988  12.556
70076W        W35237  23.155  11.338  11.049
70077W        W35238  17.430  31.766  14.272
70078W        W35239  16.521  14.059   0.976
70079W        W35240  15.093   6.914  12.445
70080W        W35241  23.004   1.389  12.099
70081W        W35242  14.203   2.446  14.234
70082W        W35243  30.483  30.657   0.307
70083W        W35244  44.304  35.552  14.462
70084W        W35245  10.178  26.202   3.628
70085W        W35246   6.842  44.309   1.655
70086W        W35247  28.725  30.159  12.895
70087W        W35248   5.795   2.562  13.944
70088W        W35249  10.654   2.977   1.497
70089W        W35250   5.231   8.370  14.799
70090W        W35251  38.456  37.545   3.653
70091W        W35252  10.342  38.465  12.018
70092W        W35253  11.323   5.611  13.624
70093W        W35254   4.768  34.364   2.006
70094W        W35255   1.038  38.854   3.724
70095W        W35256  11.801   3.670  12.459
70096W        W35257  29.041  26.754  14.745
70097W        W35258  20.780  13.990   3.844
70098W        W35259  15.008   0.897   3.823
70099W        W35260  28.389   7.143  12.902
70100W        W35261  23.092  21.529   0.110
70101W        W35262  21.279  30.655  13.536
70102W        W35263  39.105  26.433  11.110
70103W        W35264  28.907  43.077  13.916
70104W        W35265  43.959  40.138   4.700
70105W        W35266  29.499  29.425  14.542
70106W        W35267  19.735  17.635   4.152
70107W        W35268  34.561  15.710  13.875
70108W        W35269  12.490  19.781  11.094
70109W        W35270  43.439   7.763  13.316
70110W        W35271  29.657   8.618   1.325
70111W        W35272   2.386  29.474  14.076
70112W        W35273  38.367  23.675   2.082
70113W        W35274  16.987   0.839   0.995
70114W        W35275  29.570   5.677  12.023
70115W        W35276  12.308  26.901   4.097
70116W        W35277  10.597  27.109   0.089
70117W        W35278   6.019   3.226  10.646
70118W        W35279  14.413  17.615   2.232
70119W        W35280  12.042   5.556  14.957
70120W        W35281  18.834  43.459   1.729
70121W        W35282  36.370  18.615  12.860
70122W        W35283  37.247  29.584  12.328
70123W        W35284  42.397  27.989   4.327
70124W        W35285   6.721  28.091   4.288
70125W        W35286  15.075  26.157  12.391
70126W        W35287  30.587  32.795   1.038
70127W        W35288   7.445   0.061  12.425
70128W        W35289  44.403  10.747  12.173
70129W        W35290  34.076  20.127   0.140
70130W        W35291  35.363   2.915   0.892
70131W        W35292  39.040  33.557  14.465
70132W        W35293   5.223   2.950  11.587
70133W        W35294  43.697   4.683   2.655
70134W        W35295  14.622  23.214   0.537
70135W        W35296   5.915  28.509  10.662
70136W        W35297   1.415  13.615  11.675
70137W        W35298   3.478  33.086  11.206
70138W        W35299  10.123  44.840   4.535
70139W        W35300  21.113  36.567   3.290
70140W        W35301  20.575  39.634  10.122
70141W        W35302  15.123  15.102   2.315
70142W        W35303   0.806   8.594  10.294
70143W        W35304  25.402  10.115  10.790
70144W        W35305  41.267   1.802  12.000
70145W        W35306  11.389  15.383   2.832
70146W        W35307   6.957  24.517   0.004
70147W        W35308  35.504  38.974   2.397
70148W        W35309   3.389  17.714  10.496
70149W        W35310  33.834  38.783  12.232
70150W        W35311  16.485  11.688  14.755
70151W        W35312   0.804  41.406   0.329
70152W        W35313  24.480  23.682   4.089
70153W        W35314  14.590  38.374   0.491
70154W        W35315  44.515  31.921  13.043
70155W        W35316   6.059  11.136   0.700
70156W        W35317  16.784   0.544  12.992
70157W        W35318  10.207   5.917  13.627
70158W        W35319  26.974  20.012   0.668
70159W        W35320  26.612  15.544   4.699
70160W        W35321  39.759   3.848   1.737
70161W        W35322  19.174  20.378  11.120
70162W        W35323  25.031  11.693  12.699
70163W        W35324  28.109  23.417   2.365
70164W        W35325   8.363  19.844  14.114
70165W        W35326  31.450  10.164   0.731
70166W        W35327  25.174   2.642   2.841
70167W        W35328  16.662  43.988  14.765
70168W        W35329  14.612  25.697   1.240
70169W        W35330   5.958   1.008   0.911
70170W        W35331  14.665  39.496   4.316
70171W        W35332  19.172  31.041   0.373
70172W        W35333  17.580  37.401  12.917
70173W        W35334   3.110  38.682   3.403
70174W        W35335  21.708  22.497   2.203
70175W        W35336  32.168   2.303   1.798
70176W        W35337  25.699  17.479  14.793
70177W        W35338  34.751  41.953   4.479
70178W        W35339  21.498  33.472   1.428
70179W        W35340   9.757  21.510   1.731
70180W        W35341  10.200   4.273  11.874
70181W        W35342  33.650  22.226   3.873
70182W        W35343  23.160   3.647  10.646
70183W        W35344  20.108  20.317  14.429
70184W        W35345   3.475  27.690   4.510
70185W        W35346  29.690  17.499   1.674
70186W        W35347  40.130  31.945  13.880
70187W        W35348  16.388  29.009  12.440
70188W        W35349  39.258  30.864   1.953
70189W        W35350  14.643   9.340  12.470
70190W        W35351  42.781   7.702   1.882
70191W        W35352  32.084  18.187   0.750
70192W        W35353  42.289  27.761   1.826
70193W        W35354   0.003   6.130  10.979
70194W        W35355  23.368  13.753  11.595
70195W        W35356  32.951  32.009  10.593
70196W        W35357   0.275  19.142   1.022
70197W        W35358   2.164  36.934  11.040
70198W        W35359   9.820   1.745   3.215
70199W        W35360  27.411   2.716  11.191
70200W        W35361  34.506   8.165  10.714
70201W        W35362   4.286  29.936   1.181
70202W        W35363   5.886  30.426  14.903
70203W        W35364  25.436  19.623   1.217
70204W        W35365  11.643  38.046   0.499
70205W        W35366  31.340  32.391  12.110
70206W        W35367  41.580  34.665  12.640
70207W        W35368  25.600   2.503   1.203
70208W        W35369  21.631   8.342  11.901
70209W        W35370  41.943   2.026   1.838
70210W        W35371   6.364  14.081  11.074
70211W        W35372  12.673  14.364  13.491
70212W        W35373  32.025  35.495   1.131
70213W        W35374  38.011   8.634   2.323
70214W        W35375  16.661  37.385  13.268
70215W        W35376  30.463   3.554   2.668
70216W        W35377  11.715  18.151   3.389
70217W        W35378  37.466  26.454   3.291
70218W        W35379  12.620  23.713  12.523
70219W        W35380  37.921  18.110  13.433
70220W        W35381   2.757  39.939   1.846
70221W        W35382   3.145   2.382   4.126
70222W        W35383  28.936  43.492  14.889
70223W        W35384  42.089  42.590   4.972
70224W        W35385  37.580   8.366   0.143
70225W        W35386  37.603  40.767  11.635
70226W        W35387   6.843  25.594  11.816
70227W        W35388  12.330   3.694   4.159
70228W        W35389  22.969  19.201  12.528
70229W        W35390   2.368  15.896  11.188
70230W        W35391   5.238  14.716  12.091
70231W        W35392   0.179  29.943  11.586
70232W        W35393   6.439  26.641  12.606
70233W        W35394  34.048  13.002   2.285
70234W        W35395  36.038   6.662   0.592
70235W        W35396  21.014  10.802  11.485
70236W        W35397  16.540   8.913   0.762
70237W        W35398  31.126  29.546   4.559
70238W        W35399  35.216  34.442  10.730
70239W        W35400  21.237  26.047   0.203
70240W        W35401  39.217  15.841   3.649
70241W        W35402   3.355  34.461  10.687
70242W        W35403   4.834  13.556  12.009
70243W        W35404  35.986  27.113  10.776
70244W        W35405  31.540  17.714   3.625
70245W        W35406  39.425  14.751  13.890
70246W        W35407  14.293   8.183  10.389
70247W        W35408  10.213  22.347  13.688
70248W        W35409   4.250  14.822  12.021
70249W        W35410   0.768  13.286   3.008
70250W        W35411   8.831  22.598   0.817
70251W        W35412  11.757  38.117   3.052
70252W        W35413  23.698  26.975  14.291
70253W        W35414  10.799   7.210  10.544
70254W        W35415   6.354  31.622   3.948
70255W        W35416  38.365  20.151  14.097
70256W        W35417  38.366   7.717   1.747
70257W        W35418  39.393   8.416  13.159
70258W        W35419  43.835  42.208  13.034
70259W        W35420  43.871  42.350   0.383
70260W        W35421  23.014  28.555   0.801
70261W        W35422  29.543  23.540  12.659
70262W        W35423  35.437  35.446  10.584
70263W        W35424  33.649  38.007   3.717
70264W        W35425  28.982  35.692   0.340
70265W        W35426   3.473  28.176  14.455
70266W        W35427  29.456   9.145  11.619
70267W        W35428  17.592  24.629   2.809
70268W        W35429  44.783  40.083   2.248
70269W        W35430  24.610  20.795  14.269
70270W        W35431   6.360  26.200  12.281
70271W        W35432  32.099   5.866   2.235
70272W        W35433  25.565   2.913   2.129
70273W        W35434  31.146  18.568  12.984
70274W        W35435  12.620  27.421   1.784
70275W        W35436   9.760  19.214  14.980
70276W        W35437  13.183  37.577  13.923
70277W        W35438  33.802   4.700   1.848
70278W        W35439   3.183  19.024  14.277
70279W        W35440  34.545  27.659   1.656
70280W        W35441  35.413  21.298  14.009
70281W        W35442  33.846  32.144  12.356
70282W        W35443   2.585  19.833  11.634
70283W        W35444  35.008  17.687  13.917
70284W        W35445  31.925  44.374   4.804
70285W        W35446  18.856  14.276  12.143
70286W        W35447  30.095   9.880   0.368
70287W        W35448  39.968   3.907  14.346
70288W        W35449  16.608  39.528   2.780
70289W        W35450   9.765  30.650  10.659
70290W        W35451  28.977   4.787  11.241
70291W        W35452  14.179  11.360  14.629
70292W        W35453  36.305  41.965  12.058
70293W        W35454  42.922  11.654   4.112
70294W        W35455  27.222  21.989   1.585
70295W        W35456  25.013  37.239  11.617
70296W        W35457  31.532   9.233   0.042
70297W        W35458  15.580  12.794   1.448
70298W        W35459  14.866  41.343   2.796
70299W        W35460  18.304  19.016  14.569
70300W        W35461  19.128  11.335  11.466
70301W        W35462  40.943   5.837  14.742
70302W        W35463  10.720  42.959  14.757
70303W        W35464   2.825  19.162  13.499
70304W        W35465  34.466   3.054  14.902
70305W        W35466  28.595  30.979   0.541
70306W        W35467   3.986  15.508   1.898
70307W        W35468  34.702   2.012   2.721
70308W        W35469  15.847  36.396   0.813
70309W        W35470  32.857  43.013  14.297
70310W        W35471   9.912   1.827  11.382
70311W        W35472  25.203  12.304   2.853
70312W        W35473  23.591  16.049  14.842
70313W        W35474   0.120  38.256   5.118
70314W        W35475   7.140  35.050   1.877
70315W        W35476   7.233  19.201  11.959
70316W        W35477  32.781  40.978  13.063
70317W        W35478   9.210  12.318   4.113
70318W        W35479  33.176   8.427   3.303
70319W        W35480   5.796  27.363   0.403
70320W        W35481  29.030  37.411  11.436
70321W        W35482  21.496  41.302   3.380
70322W        W35483   3.970  26.630  13.049
70323W        W35484   9.264  13.048  13.138
70324W        W35485   8.197  36.033   1.486
70325W        W35486  32.138  12.443   0.821
70326W        W35487  12.655  30.820  11.058
70327W        W35488  20.105  12.660  11.115
70328W        W35489  43.182  33.038   1.275
70329W        W35490  18.152  22.564   2.652
70330W        W35491  44.814  31.590   0.047
70331W        W35492   9.885  20.590  11.970
70332W        W35493  12.409  19.223  12.882
70333W        W35494  40.719  38.632  11.673
70334W        W35495  34.022  36.589   3.235
70335W        W35496   1.499  16.306   1.402
70336W        W35497  18.253  34.194  12.579
70337W        W35498  15.517  22.236  14.273
70338W        W35499   5.234  21.712   3.428
70339W        W35500  40.304   2.229   1.857
70340W        W35501   0.061  40.966   1.990
70341W        W35502  30.742  31.698   2.733
70342W        W35503   9.925  28.686  13.311
70343W        W35504  23.186  11.401   5.007
70344W        W35505   2.687   4.160  14.989
70345W        W35506  32.406  39.571  11.983
70346W        W35507  14.250  27.495   0.342
70347W        W35508  38.998  35.167   0.881
70348W        W35509  31.478  36.663   4.226
70349W        W35510  34.872   4.965  12.589
70350W        W35511  38.015   3.519   1.404
70351W        W35512  32.487  21.079  14.886
70352W        W35513  18.572   4.495  13.483
70353W        W35514   8.672  18.225  14.768
70354W        W35515  38.862  21.672   3.829
70355W        W35516  40.846  18.989   1.349
70356W        W35517   2.687  23.813  13.827
70357W        W35518  21.118  32.825  10.555
70358W        W35519  27.033  17.578   0.065
70359W        W35520  43.915  41.388   0.472
70360W        W35521  39.905  15.439   4.102
70361W        W35522   3.491  38.078   4.622
70362W        W35523  41.221   2.399   0.430
70363W        W35524  16.471  12.224  13.119
70364W        W35525  35.430  17.164  14.488
70365W        W35526  14.536  18.021   0.536
70366W        W35527   3.635   2.318  12.864
70367W        W35528  14.654  29.956  10.632
70368W        W35529   6.785  15.877   2.728
70369W        W35530  32.674  38.407   1.261
70370W        W35531  28.083  37.522   0.970
70371W        W35532  22.226  12.802  14.030
70372W        W35533  36.035  29.240   3.321
70373W        W35534  40.518  13.111   3.665
70374W        W35535  39.061   4.349   4.687
70375W        W35536  20.545  15.507  12.099
70376W        W35537  14.285  29.436  11.646
70377W        W35538  11.019  15.616  12.964
70378W        W35539  28.002   9.879   1.957
70379W        W35540  24.002  38.764   1.513
70380W        W35541  16.531   1.860   4.656
70381W        W35542  37.412  34.855  12.852
70382W        W35543  40.789   7.962  10.658
70383W        W35544  27.491   2.832   2.253
70384W        W35545  42.599  16.722  14.705
70385W        W35546   4.964  16.278  10.723
70386W        W35547   4.152  33.888  11.601
70387W        W35548  27.848  32.686   2.097
70388W        W35549  11.118  13.562   1.422
70389W        W35550   2.527  34.391   3.590
70390W        W35551  37.896  22.659   2.358
70391W        W35552   3.011   7.359   2.204
70392W        W35553  41.035  44.694  11.534
70393W        W35554  26.094  43.423   4.205
70394W        W35555  38.827  28.921  12.811
70395W        W35556  28.641  23.426  14.180
70396W        W35557  16.825  28.028  12.467
70397W        W35558  18.823  43.487  10.625
70398W        W35559   9.421   9.179  11.585
70399W        W35560   6.068   5.538  12.070
70400W        W35561  32.927  29.957  13.011
70401W        W35562  23.757  36.052  12.450
70402W        W35563  19.027   6.852  10.558
70403W        W35564  33.166  27.271  11.518
70404W        W35565   0.835  25.963   0.321
70405W        W35566  19.725  18.739  14.719
70406W        W35567  38.571   6.726   4.805
70407W        W35568  23.925  16.082  13.068
70408W        W35569   0.878  27.197   0.878
70409W        W35570   6.317  35.534  14.279
70410W        W35571  33.456  43.551   4.437
70411W        W35572   6.933  15.904  14.262
70412W        W35573  16.254  10.921   1.236
70413W        W35574   7.255  37.063  14.851
70414W        W35575  27.186  10.729   0.436
70415W        W35576   9.842  13.826  12.846
70416W        W35577  24.407  39.344  12.943
70417W        W35578  25.485  13.919  14.881
70418W        W35579   5.364  33.724  11.874
70419W        W35580  18.360  18.135  12.014
70420W        W35581   9.618  29.155  13.369
70421W        W35582  10.782  41.796  14.050
70422W        W35583  18.605  40.987  13.441
70423W        W35584   5.746  18.720  11.013
70424W        W35585   2.969  26.527   3.538
70425W        W35586  33.423  44.888   3.234
70426W        W35587  41.442  23.616   0.277
70427W        W35588  44.386   6.121   1.407
70428W        W35589  27.596   9.268   3.457
70429W        W35590  40.443  13.395  11.197
70430W        W35591  20.857  21.315   3.900
70431W        W35592  19.032   7.233   0.825
70432W        W35593  29.561  13.755   2.305
70433W        W35594  22.550  20.227  11.598
70434W        W35595   8.377  35.467  11.152
70435W        W35596  28.387   5.806   2.810
70436W        W35597  20.744  11.903   4.706
70437W        W35598  36.589  14.316  11.519
70438W        W35599  34.437  38.268   1.856
70439W        W35600  22.300   8.026   0.101
70440W        W35601  39.513   3.184  11.772
70441W        W35602  44.447  32.773   3.710
70442W        W35603  16.650  16.044   4.766
70443W        W35604  25.945  23.966  12.564
70444W        W35605  27.072  16.043   4.143
70445W        W35606  26.248  16.228   3.875
70446W        W35607  38.987  37.797   0.417
70447W        W35608  25.674  39.567  13.487
70448W        W35609  38.836  29.588  14.889
70449W        W35610  34.939  36.515   3.252
70450W        W35611  44.836  28.159  13.003
70451W        W35612   1.767  12.819   3.154
70452W        W35613  43.447  12.632   3.045
70453W        W35614  31.668   6.435  14.490
70454W        W35615  26.571  22.816   2.090
70455W        W35616   1.809  29.220  11.536
70456W        W35617  12.875  20.205  13.666
70457W        W35618  34.523  11.263  14.056
70458W        W35619  35.095  37.467   1.944
70459W        W35620  39.877  23.820  12.966
70460W        W35621  37.729  37.640  11.825
70461W        W35622  10.465   1.867   4.191
70462W        W35623   2.504  12.322  12.091
70463W        W35624  39.485  43.497   1.349
70464W        W35625   8.282   6.418   4.602
70465W        W35626  32.522  19.255   2.247
70466W        W35627   8.754   7.677  11.046
70467W        W35628  36.358  13.160   1.559
70468W        W35629   1.306  10.457   3.413
70469W        W35630  14.825   2.621  10.758
70470W        W35631  21.353   5.329   0.026
70471W        W35632  19.527  32.421   0.796
70472W        W35633   4.132  33.433   2.329
70473W        W35634  29.489  23.003   1.183
70474W        W35635   7.259   7.217   0.866
70475W        W35636  21.742  17.726  13.899
70476W        W35637   1.690   4.580   2.359
70477W        W35638   1.393  41.974   4.723
70478W        W35639  11.798  34.065   3.763
70479W        W35640  16.667  28.549  14.410
70480W        W35641  28.617  44.229   2.392
70481W        W35642  23.476   9.703  14.455
70482W        W35643  22.621   0.815   4.003
70483W        W35644   9.761  40.264   4.123
70484W        W35645  33.322  10.428   3.174
70485W        W35646  40.029  37.308  14.141
70486W        W35647  41.379  25.953  12.997
70487W        W35648  38.829  34.657  14.623
70488W        W35649  30.068  44.758   4.019
70489W        W35650  16.558   9.675   0.276
70490W        W35651  42.261  26.572   3.646
70491W        W35652  31.511  18.504   1.858
70492W        W35653  19.920   9.262   4.706
70493W        W35654  27.308   9.362  12.011
70494W        W35655  34.454  11.732  12.971
70495W        W35656  23.509  20.675   4.202
70496W        W35657  21.027  24.251  12.524
70497W        W35658  43.386  42.106   0.391
70498W        W35659  22.656  14.388   0.662
70499W        W35660  28.105  20.261  11.102
70500W        W35661   7.077  34.983   0.317
70501W        W35662   5.883   8.630  14.435
70502W        W35663  10.673   9.426  14.901
70503W        W35664  10.631  23.612   2.306
70504W        W35665  21.716  24.785  11.665
70505W        W35666   9.082  15.593   1.260
70506W        W35667   9.784  27.175   2.812
70507W        W35668  43.554  31.095   2.084
70508W        W35669   6.927   3.253   3.234
70509W        W35670  24.914  13.273   2.095
70510W        W35671  20.803  44.989   0.043
70511W        W35672  10.793  27.401   4.198
70512W        W35673  12.345  15.593  10.698
70513W        W35674  10.335  25.221  14.876
70514W        W35675   8.005  35.155   0.825
70515W        W35676   7.851  28.424  14.891
70516W        W35677   5.188  32.915   2.773
70517W        W35678  24.147  28.712   2.296
70518W        W35679  20.060  32.455   0.723
70519W        W35680  15.669  18.316   4.212
70520W        W35681  37.583   5.452   3.769
70521W        W35682  28.090  38.124  12.987
70522W        W35683  35.646  32.142  12.046
70523W        W35684  14.090  33.619  11.523
70524W        W35685  25.498  41.120   2.721
70525W        W35686  14.863  14.086   1.004
70526W        W35687  12.582  30.598   1.978
70527W        W35688  36.046  25.577   2.605
70528W        W35689  12.542  36.354  11.579
70529W        W35690  27.233  16.673   0.546
70530W        W35691  23.068  10.458  13.529
70531W        W35692  28.344   7.771  11.143
70532W        W35693  12.999  19.630   2.721
70533W        W35694  42.477   6.172  14.774
70534W        W35695   8.638   2.219   0.847
70535W        W35696  26.234  29.632   0.286
70536W        W35697  26.696  38.022  13.251
70537W        W35698   6.449  43.425  14.940
70538W        W35699   0.822  31.648   0.962
70539W        W35700  21.789   1.790  14.470
70540W        W35701  24.663  13.211  13.972
70541W        W35702  43.931  34.792   1.262
70542W        W35703  37.014  20.216  13.558
70543W        W35704  14.882  34.840   2.609
70544W        W35705  36.606   2.552  14.847
70545W        W35706  27.584  40.905   0.890
70546W        W35707  23.992  29.965   4.928
70547W        W35708  39.438  10.781  12.021
70548W        W35709  15.370  42.175  13.287
70549W        W35710  35.945  16.093   2.442
70550W        W35711  43.318   1.267   4.547
70551W        W35712  40.921  39.612  12.012
70552W        W35713  12.640  24.221  14.831
70553W        W35714   1.831  28.176   1.669
70554W        W35715   8.748  44.390   4.592
70555W        W35716  41.954   7.436   1.502
70556W        W35717   7.944  10.636  13.618
70557W        W35718  15.023  43.489  13.038
70558W        W35719  42.400  22.301   4.636
70559W        W35720  30.937  37.119   4.649
70560W        W35721  36.312  40.460   3.675
70561W        W35722   7.916  29.933  12.034
70562W        W35723  15.459  21.437   2.360
70563W        W35724  13.522  16.259   2.039
70564W        W35725  40.342  44.274  10.203
70565W        W35726  41.368   3.214  11.304
70566W        W35727  36.353  13.214  14.591
70567W        W35728  42.314   2.803   0.396
70568W        W35729  41.575   6.979   3.542
70569W        W35730  13.617   2.400  10.723
70570W        W35731  13.528  20.792   4.138
70571W        W35732  28.424   3.623   0.237
70572W        W35733  34.520  33.964  14.455
70573W        W35734   8.294  10.266  13.038
70574W        W35735   6.810  18.140   4.068
70575W        W35736   1.775  19.196   2.617
70576W        W35737  43.034  13.565   3.203
70577W        W35738  39.922   0.016   0.379
70578W        W35739   3.224  19.761  12.050
70579W        W35740   5.273  26.753  14.452
70580W        W35741  20.246  24.608   3.670
70581W        W35742  42.111  26.192  13.468
70582W        W35743   1.396  37.398  11.622
70583W        W35744  17.485  32.662  13.630
70584W        W35745  14.728  38.086  14.789
70585W        W35746  44.000  11.033  14.964
70586W        W35747  39.247   6.831  13.146
70587W        W35748  10.221  12.543   0.975
70588W        W35749   8.631  25.172   3.148
70589W        W35750   6.371  15.223  13.625
70590W        W35751  15.461  37.057   1.701
70591W        W35752  18.752  40.225   1.008
70592W        W35753  24.227  18.691   3.728
70593W        W35754   4.586   0.635  10.951
70594W        W35755   8.010  44.599   2.777
70595W        W35756  37.183  33.543   4.135
70596W        W35757   9.846  30.241  11.361
70597W        W35758  35.882  31.709   4.829
70598W        W35759   0.430  14.760  10.847
70599W        W35760  13.831  12.674   4.135
70600W        W35761   2.325  16.397   3.641
70601W        W35762  38.298  14.542  12.943
70602W        W35763  32.015  38.579  11.898
70603W        W35764  34.125  23.114  13.963
70604W        W35765   1.925   7.277   1.326
70605W        W35766  10.417  33.937   4.179
70606W        W35767  11.534  41.414  11.025
70607W        W35768  17.040  26.053   3.730
70608W        W35769  10.774  36.962  11.849
70609W        W35770  25.089  24.136  12.986
70610W        W35771  20.916   5.202  13.737
70611W        W35772   2.747  15.037   0.856
70612W        W35773  20.251  30.070  10.901
70613W        W35774  35.635  37.315   4.135
70614W        W35775  38.032  20.232  11.635
70615W        W35776  35.257  31.902   9.951
70616W        W35777  33.124  18.804  11.601
70617W        W35778   3.355  41.555  11.559
70618W        W35779   5.610  33.842  14.782
70619W        W35780  31.925  21.199   2.760
70620W        W35781  44.318  30.700  10.353
70621W        W35782  41.992  11.337  14.823
70622W        W35783  37.108  13.701  14.920
70623W        W35784   3.425  11.167  12.462
70624W        W35785  27.410  38.683   2.731
70625W        W35786   0.178  13.798  13.838
70626W        W35787  22.465  39.553  11.750
70627W        W35788   9.480   5.871   2.782
70628W        W35789  10.085   1.155   0.361
70629W        W35790  20.123  18.581   2.285
70630W        W35791  42.403   5.168  14.731
70631W        W35792   7.641  37.488  13.860
70632W        W35793  41.344  14.877   4.503
70633W        W35794  34.725  18.654  11.016
70634W        W35795  24.076  33.334   4.645
70635W        W35796   5.317   4.984  14.893
70636W        W35797  37.918  41.954   3.241
70637W        W35798  24.127   1.386   2.884
70638W        W35799  22.720  37.419  11.203
70639W        W35800   1.244  23.487   1.359
70640W        W35801  21.564  25.701   2.740
70641W        W35802  17.153   7.461   4.484
70642W        W35803   8.662  31.877  11.432
70643W        W35804   8.630   5.743  12.676
70644W        W35805   3.068  32.794   4.926
70645W        W35806  26.441  35.938   4.572
70646W        W35807  33.461  35.397   2.177
70647W        W35808  39.406  14.482  14.444
70648W        W35809  34.838  30.530  12.585
70649W        W35810  37.766  13.652   4.819
70650W        W35811  10.679  14.630  14.818
70651W        W35812   9.361   3.330   1.910
70652W        W35813  32.587  37.096   0.772
70653W        W35814  20.112  31.415   1.326
70654W        W35815  36.976  12.371   3.556
70655W        W35816  21.487  20.075  14.495
70656W        W35817  27.470  24.418   1.894
70657W        W35818  34.504  14.169   1.592
70658W        W35819  31.186  19.063  12.800
70659W        W35820  19.344  44.315   3.678
70660W        W35821  34.935  16.640  10.979
70661W        W35822  23.122  44.017   2.176
70662W        W35823  29.892  10.907   1.221
70663W        W35824  30.013  37.136   2.076
70664W        W35825  38.126  36.937   0.592
70665W        W35826  33.595  18.726  12.930
70666W        W35827  43.005  41.857   2.943
70667W        W35828  33.951  39.302   3.260
70668W        W35829  26.965   7.845   2.230
70669W        W35830  34.859   6.239   3.368
70670W        W35831  24.033  13.515  12.907
70671W        W35832  10.895   7.120   0.682
70672W        W35833  18.440   0.880  11.577
70673W        W35834   0.754   3.054   4.697
70674W        W35835  43.349  44.209   1.394
70675W        W35836  14.700  30.414  10.905
70676W        W35837  23.681  40.993   9.506
70677W        W35838  44.063  22.366   0.480
70678W        W35839  18.227   1.147   0.358
70679W        W35840  23.490  18.771   0.264
70680W        W35841  20.101   4.653   3.712
70681W        W35842  26.863   4.481   3.686
70682W        W35843  43.041  28.880   2.251
70683W        W35844  36.541  30.503   0.312
70684W        W35845  12.389  18.371   4.769
70685W        W35846  13.202  29.398  12.098
70686W        W35847  22.218  36.098  11.107
70687W        W35848  44.873  38.372  14.296
70688W        W35849  23.280  12.623   3.740
70689W        W35850  13.783   5.187   0.879
70690W        W35851  20.843  25.578  12.329
70691W        W35852  43.340   3.903  13.818
70692W        W35853  22.859  23.085  13.477
70693W        W35854  27.241  28.096  14.281
70694W        W35855  16.595  21.081   0.001
70695W        W35856  23.120  40.869  11.939
70696W        W35857  29.587   4.855   3.286
70697W        W35858  16.696   5.886   3.287
70698W        W35859  35.635  41.517   0.838
70699W        W35860  40.329  38.957   1.847
70700W        W35861  37.832   7.810  14.302
70701W        W35862  37.121  29.005   1.190
70702W        W35863  42.469  43.341   3.676
70703W        W35864  29.612  44.496  13.256
70704W        W35865   3.750   0.923   4.383
70705W        W35866  14.576   0.461  13.799
70706W        W35867  34.621   3.855  10.664
70707W        W35868  26.568  40.023   4.482
70708W        W35869   5.209  33.588  13.994
70709W        W35870  13.765  21.519   0.559
70710W        W35871  10.970  11.777   0.850
70711W        W35872  19.479  36.874  10.536
70712W        W35873  21.637  31.043  12.447
70713W        W35874  34.401  17.789  11.242
70714W        W35875   4.720  28.392   4.291
70715W        W35876  13.208  32.100  13.050
70716W        W35877  10.967  23.199   2.290
70717W        W35878  43.931  11.461   0.215
70718W        W35879   9.309  11.788  14.211
70719W        W35880   8.462  30.519   3.263
70720W        W35881   3.733  38.186   4.153
70721W        W35882  39.343  25.557   4.586
70722W        W35883   9.418  33.176   3.203
70723W        W35884   9.896   0.553  10.624
70724W        W35885  29.534  22.190   1.155
70725W        W35886   1.916   7.216  13.838
70726W        W35887  14.624  23.229   3.759
70727W        W35888  26.625  30.657   4.656
70728W        W35889  41.763  19.692   4.057
70729W        W35890  16.683   6.450  11.219
70730W        W35891   0.309  39.750   0.138
70731W        W35892  15.662  13.860   2.736
70732W        W35893  26.884  24.840  14.267
70733W        W35894   0.347  11.387   3.281
70734W        W35895  44.432  16.538  11.149
70735W        W35896   3.378   3.386   2.474
70736W        W35897  15.646  11.364  13.382
70737W        W35898  39.579  36.429  13.874
70738W        W35899  20.608  16.752   1.835
70739W        W35900   1.097   5.357  12.434
70740W        W35901  24.454  15.677  14.817
70741W        W35902  43.456   5.646   1.891
70742W        W35903  34.000  18.203  14.438
70743W        W35904   1.044  28.718  14.069
70744W        W35905  26.970   6.947  13.009
70745W        W35906  20.936  32.586  11.393
70746W        W35907  21.661  22.041   1.316
70747W        W35908  29.605   0.330  13.521
70748W        W35909   9.617  32.310  13.027
70749W        W35910   8.010  29.851  13.977
70750W        W35911  38.390  42.954  10.645
70751W        W35912   3.944  14.503   1.990
70752W        W35913  28.230  27.010  13.595
70753W        W35914  38.813  12.651   1.221
70754W        W35915   9.492  18.054   4.497
70755W        W35916  29.259  26.475  12.856
70756W        W35917  19.680  36.957   1.826
70757W        W35918  44.236  40.906  11.756
70758W        W35919   9.449   7.448  14.523
70759W        W35920  13.195   7.169  12.576
70760W        W35921  43.884  22.953  13.665
70761W        W35922   5.786   1.588   4.628
70762W        W35923  19.286  15.230  14.359
70763W        W35924  39.561   7.354  13.620
70764W        W35925  12.248  33.114   0.170
70765W        W35926  41.778  29.601   1.229
70766W        W35927  22.258  39.898   0.465
70767W        W35928  19.037   8.508  14.575
70768W        W35929  20.505  28.250   2.649
70769W        W35930  22.710  36.414   2.703
70770W        W35931   3.741  44.687   4.581
70771W        W35932  34.228  25.508  10.282
70772W        W35933  42.424   7.184   4.537
70773W        W35934  10.583  24.655  11.443
70774W        W35935  24.254  15.743   1.268
70775W        W35936  14.157  24.481   2.889
70776W        W35937  13.696   7.508   0.170
70777W        W35938  43.807  24.794   0.895
70778W        W35939  27.124  30.486  11.392
70779W        W35940  37.123  42.394  13.420
70780W        W35941  30.954   3.988  13.944
70781W        W35942   2.400  30.818   3.626
70782W        W35943  15.011   1.226   3.132
70783W        W35944   3.786  37.091   2.466
70784W        W35945  10.599  30.387   4.045
70785W        W35946  31.963  40.513  12.923
70786W        W35947  35.928   4.490   2.249
70787W        W35948  10.269   2.799  11.249
70788W        W35949  43.734  20.303   3.830
70789W        W35950  35.954  44.395  12.971
70790W        W35951  29.109  19.083  14.855
70791W        W35952   3.703  13.775   3.354
70792W        W35953   2.340  32.162   3.033
70793W        W35954  40.492  37.664   2.384
70794W        W35955  31.648  44.291  14.932
70795W        W35956  18.081  27.914   4.261
70796W        W35957  41.991  19.735   5.001
70797W        W35958  20.639   9.720   1.228
70798W        W35959  10.864  24.734  14.473
70799W        W35960  31.101  12.808  14.255
70800W        W35961  29.719  12.769   2.256
70801W        W35962  18.024   8.743  11.259
70802W        W35963  26.104  25.001  13.915
70803W        W35964  40.452  20.752   3.729
70804W        W35965   1.487  14.834  14.830
70805W        W35966   8.566  27.383   2.062
70806W        W35967   3.195  31.414  14.340
70807W        W35968   7.302  34.848  14.448
70808W        W35969  25.678  22.602   2.878
70809W        W35970   9.463  26.178  12.559
70810W        W35971  33.330  16.784  12.935
70811W        W35972  17.283  37.906   2.410
70812W        W35973   9.672  44.916   3.813
70813W        W35974   9.944  26.749  14.027
70814W        W35975  32.386   2.563  13.793
70815W        W35976  32.710  37.005   3.098
70816W        W35977   3.775  19.714  10.533
70817W        W35978  28.971  38.752   2.336
70818W        W35979  29.582  33.879  11.321
70819W        W35980   7.287  24.226   0.986
70820W        W35981  32.557  20.158  14.455
70821W        W35982   6.012  38.257   2.284
70822W        W35983   5.538  19.755   3.313
70823W        W35984  16.270  36.776   3.278
70824W        W35985  24.652  16.202  11.109
70825W        W35986  33.409  12.272   2.663
70826W        W35987   9.376  12.636   2.864
70827W        W35988  30.435  38.289   3.123
70828W        W35989  44.567  36.394   2.394
70829W        W35990  36.947  39.110   0.457
70830W        W35991   0.821  41.573   3.665
70831W        W35992  27.907  26.450  10.748
70832W        W35993  24.643   4.703  10.611
70833W        W35994  31.388  41.237   4.561
70834W        W35995  24.200  25.054  12.783
70835W        W35996  12.532  24.039   3.366
70836W        W35997  17.532  43.002   1.310
70837W        W35998  11.156   7.228   1.117
70838W        W35999  21.039  40.661  12.355
70839W        W36000  40.092   7.776  11.806
70840W        W36001  23.304  21.215   9.782
70841W        W36002   1.538  34.484  13.034
70842W        W36003   8.888  21.823   1.756
70843W        W36004   8.879  44.484   0.239
70844W        W36005   4.897  15.102   4.621
70845W        W36006  22.713  21.340   4.048
70846W        W36007  41.554  30.667  11.185
70847W        W36008  10.540  33.511  12.135
70848W        W36009  25.458  39.856  11.507
70849W        W36010   6.229  29.108   1.269
70850W        W36011  29.240  42.352  12.273
70851W        W36012   6.335  18.080  11.224
70852W        W36013  36.916  23.180   2.922
70853W        W36014  32.992  41.411  13.337
70854W        W36015  15.873   8.907  11.996
70855W        W36016  24.555  14.083  12.034
70856W        W36017  18.717  23.006  10.471
70857W        W36018  13.649  22.709   3.339
70858W        W36019  22.825  16.345   0.538
70859W        W36020  34.429  16.660   2.329
70860W        W36021  41.503  23.087  10.788
70861W        W36022  19.560  35.580  11.884
70862W        W36023  34.931  26.196   3.888
70863W        W36024  44.414   1.789   0.356
70864W        W36025  15.753  37.142   4.209
70865W        W36026  16.804   4.058  13.039
70866W        W36027  25.997  18.289  11.555
70867W        W36028   6.870   0.939   0.944
70868W        W36029  29.510   3.580  10.907
70869W        W36030  39.782  38.033  12.523
70870W        W36031  40.820  27.480   2.287
70871W        W36032  19.550  20.752   2.755
70872W        W36033  40.828   2.412   4.581
70873W        W36034   4.969  14.855  11.546
70874W        W36035   1.221  26.444   3.335
70875W        W36036   8.136  37.453  14.014
70876W        W36037  10.429   3.357  13.808
70877W        W36038  12.727  36.960   3.623
70878W        W36039  11.675   8.410   4.847
70879W        W36040  35.839  35.471  11.733
70880W        W36041   4.430  42.775  13.499
70881W        W36042   8.927  11.402  11.723
70882W        W36043   5.233  40.121  14.350
70883W        W36044  43.399  34.651   4.070
70884W        W36045  32.051  17.129  11.383
70885W        W36046  37.240  27.626   2.201
70886W        W36047  11.088  16.583  14.763
70887W        W36048  20.314  31.008  13.735
70888W        W36049  16.025  32.864  10.563
70889W        W36050  22.330  33.468   3.769
70890W        W36051  30.206  19.539   0.866
70891W        W36052   8.038  22.697   2.172
70892W        W36053   6.017  37.072  12.727
70893W        W36054  37.868  36.868  10.677
70894W        W36055  38.820  23.254  12.473
70895W        W36056  20.085  10.458   2.722
70896W        W36057  14.808  12.275  13.754
70897W        W36058  16.082  11.606  13.503
70898W        W36059  29.888  13.291  10.451
70899W        W36060  16.251  28.106  11.007
70900W        W36061   6.579  14.417   2.765
70901W        W36062  42.797   2.363  11.641
70902W        W36063  25.702   1.745   4.046
70903W        W36064  27.583  22.679  12.326
70904W        W36065  29.691  30.149   1.338
70905W        W36066  26.106  36.372   2.772
70906W        W36067  10.339  21.089  12.572
70907W        W36068   6.579  42.393  12.023
70908W        W36069  35.681  40.491   4.174
70909W        W36070   6.191  44.424   3.762
70910W        W36071  16.564  41.836  11.989
70911W        W36072   3.510  20.316   4.215
70912W        W36073   6.032  18.442   0.361
70913W        W36074  13.242  39.877  12.935
70914W        W36075   6.168   7.304   1.244
70915W        W36076  41.468  38.356  12.849
70916W        W36077  16.855   9.248  11.694
70917W        W36078   9.261   7.833  12.090
70918W        W36079  16.527   1.307  13.358
70919W        W36080  34.141   3.080   4.599
70920W        W36081  30.888   1.309   2.354
70921W        W36082  25.982  30.580   3.983
70922W        W36083  12.341  21.832  11.083
70923W        W36084   6.804  13.087  11.622
70924W        W36085   3.162  11.871   0.071
70925W        W36086  22.982  43.027  14.730
70926W        W36087   0.824  36.610   2.109
70927W        W36088  38.546   8.887   0.224
70928W        W36089  44.973   9.333   4.834
70929W        W36090   1.407  20.333   4.149
70930W        W36091  36.318  16.389  12.858
70931W        W36092  21.026  40.862  14.392
70932W        W36093   9.886   3.816   0.807
70933W        W36094  27.624  26.729   3.012
70934W        W36095  39.328  41.947   4.641
70935W        W36096  42.568   7.745   3.189
70936W        W36097  26.313  33.480   1.837
70937W        W36098  35.282  30.665   2.255
70938W        W36099  19.081  31.342  11.202
70939W        W36100  23.819  33.217  14.721
70940W        W36101   1.916  40.424  13.950
70941W        W36102   3.681  16.540   3.819
70942W        W36103   4.247  16.307   2.254
70943W        W36104  31.939  43.968   1.495
70944W        W36105  22.429  35.998   0.872
70945W        W36106  14.189  36.383  14.807
70946W        W36107   9.363  26.682   3.684
70947W        W36108  42.448  27.444   0.407
70948W        W36109  17.715   4.281  12.082
70949W        W36110  29.419   6.713  10.731
70950W        W36111  30.448  21.102  12.907
70951W        W36112  38.516  23.684   2.578
70952W        W36113   8.872  33.963   0.363
70953W        W36114   0.687  29.642  13.346
70954W        W36115  17.878  42.620   5.450
70955W        W36116   1.314   4.322  13.575
70956W        W36117   1.514  29.111   3.052
70957W        W36118  33.065  13.219   0.205
70958W        W36119  36.041  40.798  14.928
70959W        W36120  19.462   4.616   3.396
70960W        W36121  27.467   8.672   4.073
70961W        W36122   2.008  39.445  14.271
70962W        W36123  19.606  18.021  12.831
70963W        W36124  19.086  30.502   2.828
70964W        W36125  19.822  20.064  13.474
70965W        W36126  20.007   5.440  10.683
70966W        W36127  11.278  42.421   3.871
70967W        W36128  16.354  22.467  14.000
70968W        W36129  12.239   4.173   4.307
70969W        W36130   5.157  33.576  12.328
70970W        W36131  43.911  43.267  13.002
70971W        W36132  32.317  44.952   0.244
70972W        W36133  38.615  26.193   0.432
70973W        W36134  30.650   6.099   1.405
70974W        W36135   6.195   0.212   4.230
70975W        W36136   2.599   4.803  10.739
70976W        W36137  37.291  27.500   3.614
70977W        W36138  41.347  36.922  11.049
70978W        W36139  20.732  44.791   4.086
70979W        W36140  40.760  18.725   2.755
70980W        W36141  19.726  42.945  12.512
70981W        W36142  33.868  41.213  10.558
70982W        W36143   0.418  18.580   4.548
70983W        W36144   4.425  30.278  11.108
70984W        W36145   3.413  42.922   1.127
70985W        W36146   8.912  44.798  12.430
70986W        W36147   9.687  30.841   4.278
70987W        W36148   2.680  28.168   4.332
70988W        W36149  43.460  25.355   0.583
70989W        W36150  18.573   1.855   2.498
70990W        W36151  35.595   5.750  14.956
70991W        W36152  37.375  22.571   2.365
70992W        W36153  15.598  31.546   0.349
70993W        W36154  32.112  40.469   1.956
70994W        W36155   7.380  16.151  12.082
70995W        W36156  26.182   2.494   3.731
70996W        W36157  28.977  35.985  12.007
70997W        W36158  31.795  17.693   3.154
70998W        W36159  24.208  28.760   1.430
70999W        W36160  40.534  37.342   0.037
71000W        W36161  31.195  29.604   2.756
71001W        W36162  33.517   3.467   0.763
71002W        W36163  21.679   7.185  11.955
71003W        W36164  44.484   8.724  13.561
71004W        W36165  26.635  29.597  11.103
71005W        W36166  29.197  22.580   1.150
71006W        W36167   8.234  28.204  11.596
71007W        W36168  18.040  14.855   0.290
71008W        W36169   4.264  23.090   4.262
71009W        W36170  26.682  36.746  11.265
71010W        W36171  27.130  19.658  14.530
71011W        W36172  31.991   4.465   3.797
71012W        W36173  28.273  32.212   4.198
71013W        W36174  29.116  15.810   0.176
71014W        W36175  23.574   1.793   1.353
71015W        W36176  15.989  39.770  12.543
71016W        W36177  12.723  20.551  14.460
71017W        W36178  41.242  16.219  11.507
71018W        W36179   2.590   5.311  11.537
71019W        W36180  42.979  23.124   4.869
71020W        W36181  21.391   4.796   2.689
71021W        W36182  35.757  14.237   0.406
71022W        W36183  13.730   5.403   0.391
71023W        W36184  38.697  27.024  10.185
71024W        W36185  25.878  29.053  12.978
71025W        W36186  23.942   4.911  13.475
71026W        W36187  16.177  22.994   4.075
71027W        W36188  23.531  34.362   1.703
71028W        W36189  22.950  22.249   1.289
71029W        W36190  15.703   8.622   4.101
71030W        W36191  19.343   9.410  12.576
71031W        W36192  27.326   7.587  11.027
71032W        W36193  38.920  17.115   0.968
71033W        W36194  39.471  37.166  11.550
71034W        W36195  12.089  16.124  12.495
71035W        W36196  19.065   3.682   3.266
71036W        W36197   3.804  38.477  11.665
71037W        W36198  39.548  19.239  11.102
71038W        W36199  27.858  39.635  14.799
71039W        W36200  33.385  31.566  13.809
71040W        W36201  44.930  33.936   0.283
71041W        W36202  33.491  35.974  12.890
71042W        W36203   1.285   7.376   3.699
71043W        W36204  22.967  39.794   0.544
71044W        W36205  37.489  14.726  12.074
71045W        W36206  38.559  29.024   0.090
71046W        W36207  40.034  31.462   4.880
71047W        W36208  28.094   7.285   0.446
71048W        W36209  27.587  31.273   4.676
71049W        W36210  35.055   4.676  10.215
71050W        W36211  20.880  25.770  10.401
71051W        W36212  27.161  23.798   2.746
71052W        W36213  39.868  39.873  12.467
71053W        W36214   0.914   9.938   0.511
71054W        W36215  22.552  35.738   4.475
71055W        W36216  12.843  41.514  10.846
71056W        W36217  42.243  41.321  11.440
71057W        W36218  28.198  10.673  14.995
71058W        W36219  11.175  33.216   3.601
71059W        W36220  18.168  23.020  14.568
71060W        W36221  26.431   4.654  12.021
71061W        W36222  44.359  25.687  12.448
71062W        W36223   5.449  24.920   4.564
71063W        W36224  28.073   2.521   4.459
71064W        W36225  36.070  20.730  13.087
71065W        W36226   4.954  30.447  13.186
71066W        W36227  26.605  20.034   2.318
71067W        W36228  37.687  15.594   0.134
71068W        W36229  41.304   4.349   0.240
71069W        W36230  38.790  31.594   0.764
71070W        W36231  31.008   4.193  14.913
71071W        W36232  27.209  31.822   1.288
71072W        W36233  17.550  18.566   3.330
71073W        W36234  31.104   2.284   0.937
71074W        W36235  30.577   4.922   4.452
71075W        W36236   0.527   2.445  13.916
71076W        W36237  27.530  23.491  12.849
71077W        W36238  30.977  15.834   1.158
71078W        W36239  33.138  20.256   2.320
71079W        W36240  33.136   6.834  14.924
71080W        W36241  14.210  43.547  12.939
71081W        W36242  27.308  14.896   5.737
71082W        W36243  42.427  19.573  12.913
71083W        W36244  16.325  44.839  14.891
71084W        W36245  20.805  40.350  11.951
71085W        W36246  25.872  40.622   5.569
71086W        W36247   9.100  39.905   0.417
71087W        W36248  24.695  16.877  11.642
71088W        W36249  35.380  41.425   3.860
71089W        W36250  20.116  44.368   3.230
71090W        W36251   1.507   0.258  12.374
71091W        W36252   1.544  11.679  13.943
71092W        W36253   7.262  37.324   0.325
71093W        W36254   1.920  16.767  13.025
71094W        W36255  12.704  27.132  10.675
71095W        W36256  19.109  34.655   0.749
71096W        W36257  26.090  26.884  12.651
71097W        W36258  22.240  42.843  14.333
71098W        W36259  14.412  33.576   2.125
71099W        W36260  23.475  40.059  13.337
71100W        W36261  39.847  41.986  10.652
71101W        W36262  13.365  20.996  14.410
71102W        W36263   2.901  30.941  14.958
71103W        W36264  41.455  36.908   0.741
71104W        W36265  10.396  21.538   2.358
71105W        W36266  38.012  15.144   0.656
71106W        W36267  33.097  17.236  14.462
71107W        W36268  31.560  18.752  11.101
71108W        W36269  26.597   4.300  14.620
71109W        W36270  14.796  15.663  14.760
71110W        W36271  38.550  42.487  10.348
71111W        W36272  40.801  43.284   4.187
71112W        W36273  22.520  30.581   4.677
71113W        W36274   0.961   8.937   1.715
71114W        W36275  19.255  44.764  13.445
71115W        W36276  12.573  40.971   0.718
71116W        W36277   6.131   1.295  13.319
71117W        W36278  34.675  23.521  11.136
71118W        W36279  14.168  36.597   1.226
71119W        W36280  20.796  40.334  14.301
71120W        W36281  42.059  17.118   2.927
71121W        W36282   9.374  40.356  13.354
71122W        W36283  30.496  25.470   0.485
71123W        W36284  10.362   1.279   2.759
71124W        W36285  22.074  39.890  13.348
71125W        W36286  27.958  17.064   2.388
71126W        W36287  35.565  32.128   2.434
71127W        W36288  26.679  10.139  10.235
71128W        W36289  27.733  34.143  11.667
71129W        W36290   8.766   3.955  12.040
71130W        W36291   7.310   9.428   2.328
71131W        W36292  12.691  13.528   1.866
71132W        W36293  15.475  37.978   5.216
71133W        W36294   0.799   3.483  12.667
71134W        W36295  12.265  17.576  12.117
71135W        W36296   1.224  31.324   3.237
71136W        W36297  33.338   7.373   0.433
71137W        W36298  27.692   2.285  11.136
71138W        W36299  44.545  18.099  12.510
71139W        W36300  20.129  41.303   2.810
71140W        W36301  18.553  43.204   2.218
71141W        W36302  35.718  37.723   4.472
71142W        W36303  23.722  32.495   0.221
71143W        W36304  26.604  33.611   0.466
71144W        W36305   8.748  11.458  14.729
71145W        W36306  18.635  37.999  13.340
71146W        W36307  38.937  11.614  11.214
71147W        W36308  32.111  38.516   1.337
71148W        W36309   1.403   3.903   0.867
71149W        W36310   0.918  10.807   2.679
71150W        W36311  16.623   2.716   4.515
71151W        W36312  16.658  40.791  12.032
71152W        W36313  38.391  10.909  11.007
71153W        W36314  26.660  44.221   1.759
71154W        W36315  35.998  18.875   0.490
71155W        W36316   9.375   3.913   0.679
71156W        W36317  27.610  16.713   2.429
71157W        W36318  40.818  15.314   3.757
71158W        W36319  42.372   4.716  12.902
71159W        W36320  40.244  26.287   1.673
71160W        W36321  39.324   5.592   4.262
71161W        W36322   5.262  27.992   0.282
71162W        W36323  19.222   5.955   0.014
71163W        W36324   4.329   2.527   3.677
71164W        W36325  38.501  35.441  12.862
71165W        W36326  41.695  20.635  11.580
71166W        W36327  32.172  32.171   2.221
71167W        W36328   5.707  42.027  11.045
71168W        W36329  17.898  42.902   0.971
71169W        W36330  29.051  13.337  11.198
71170W        W36331  31.535  21.032   3.493
71171W        W36332  42.997   3.661   0.860
71172W        W36333   4.762  18.332  11.592
71173W        W36334  27.413  27.645  13.454
71174W        W36335  16.055  38.973   2.281
71175W        W36336  44.466  34.575  14.242
71176W        W36337   9.599  32.763  13.925
71177W        W36338  17.325   2.245   2.600
71178W        W36339  25.880   8.025  11.088
71179W        W36340   0.049  34.071   5.076
71180W        W36341  44.159  15.581  10.669
71181W        W36342  33.423   6.219   1.885
71182W        W36343  34.061  43.518   3.843
71183W        W36344   9.759  31.385   1.685
71184W        W36345  11.907  32.690   2.446
71185W        W36346  13.417  20.154   4.166
71186W        W36347  35.499  16.220  13.175
71187W        W36348  28.886   0.892   2.579
71188W        W36349   0.825  36.578  13.944
71189W        W36350  43.824   6.699  11.935
71190W        W36351  38.048  36.114   3.655
71191W        W36352  13.125  12.237   0.114
71192W        W36353   6.007  16.566   0.346
71193W        W36354  34.198   8.747   4.523
71194W        W36355  14.961  18.746  14.935
71195W        W36356  25.423  31.669   4.108
71196W        W36357  27.706  28.097  13.343
71197W        W36358  10.113  23.682  13.683
71198W        W36359  15.823  32.528   4.829
71199W        W36360   1.212  26.072   0.934
71200W        W36361  21.015  15.151  11.502
71201W        W36362  34.999  28.511  11.894
71202W        W36363  37.926  33.554  11.969
71203W        W36364  34.278  15.090  11.001
71204W        W36365  42.626  35.862   2.896
71205W        W36366  38.264  33.627  14.115
71206W        W36367  17.100  18.609  14.268
71207W        W36368  26.817  24.637  10.195
71208W        W36369   2.189   1.396  12.382
71209W        W36370  15.298  22.013  11.452
71210W        W36371  11.139  18.847  12.525
71211W        W36372  36.175  43.997   3.644
71212W        W36373  28.280  31.431  11.552
71213W        W36374  22.100  32.561   2.144
71214W        W36375  12.206   7.440  11.141
71215W        W36376   0.615  33.310   4.221
71216W        W36377  23.461  38.804   1.922
71217W        W36378   0.418  35.149  11.053
71218W        W36379  31.922   4.956  11.991
71219W        W36380   4.267  21.310   0.444
71220W        W36381  16.856  38.067  13.928
71221W        W36382  38.764  29.969   3.203
71222W        W36383  26.032  44.359  14.022
71223W        W36384  16.716  23.767   2.193
71224W        W36385  20.534  41.589  12.535
71225W        W36386   1.809  33.787   2.858
71226W        W36387   9.816   8.374  11.530
71227W        W36388   1.479  14.279  14.878
71228W        W36389  12.392  32.554  13.500
71229W        W36390  44.433  31.889  14.474
71230W        W36391  31.085  27.238   4.105
71231W        W36392  20.803   0.713  11.831
71232W        W36393  41.401   5.919  10.564
71233W        W36394  28.995  30.770  14.777
71234W        W36395  25.473  20.588  14.831
71235W        W36396  35.154  18.545   3.403
71236W        W36397  14.944   3.006  11.099
71237W        W36398  31.083  36.848  12.001
71238W        W36399   9.844  32.600  10.912
71239W        W36400  31.992  11.388   2.769
71240W        W36401  28.364   2.816  13.877
71241W        W36402  25.579   0.799   0.822
71242W        W36403  23.857   4.857   4.420
71243W        W36404  44.170  17.690  14.883
71244W        W36405  41.209  35.098  11.069
71245W        W36406  37.447  19.893  13.510
71246W        W36407  42.827  23.717   0.235
71247W        W36408   9.435  44.730  12.557
71248W        W36409  42.784  25.639  13.459
71249W        W36410  25.605   4.736  13.374
71250W        W36411   4.287  28.666  13.480
71251W        W36412  32.323  10.225   3.177
71252W        W36413  19.664  13.316   1.162
71253W        W36414  43.766  38.976  13.929
71254W        W36415  37.509  36.115   5.013
71255W        W36416  23.009  13.612   2.392
71256W        W36417  18.528  27.617   2.205
71257W        W36418  22.051  18.071  11.582
71258W        W36419  29.526   3.837   0.367
71259W        W36420   7.128  24.808  12.460
71260W        W36421  36.893   6.245  12.433
71261W        W36422  25.698  13.389  11.683
71262W        W36423  12.825  11.406  12.502
71263W        W36424   1.048   7.086  13.836
71264W        W36425   7.984  39.567  11.127
71265W        W36426  40.288  23.610  10.504
71266W        W36427   2.317  16.136  13.448
71267W        W36428  30.855   1.477  14.008
71268W        W36429  30.911  34.307  11.108
71269W        W36430  19.124   5.181  13.301
71270W        W36431  41.484  38.571  11.316
71271W        W36432  29.876  32.912   1.897
71272W        W36433   2.342  14.746   3.202
71273W        W36434  23.113  42.315  13.015
71274W        W36435   8.291  31.967  12.549
71275W        W36436  34.563   0.338   4.503
71276W        W36437  28.256   1.526   4.400
71277W        W36438  10.456  30.610   1.946
71278W        W36439  38.037  39.220   4.622
71279W        W36440  36.791   4.772   2.706
71280W        W36441   9.939  11.707   1.240
71281W        W36442   2.742  19.544   0.075
71282W        W36443  16.416  37.776  10.245
71283W        W36444  22.018  30.510   4.608
71284W        W36445  31.878  15.286   0.416
71285W        W36446  15.357   3.179   0.529
71286W        W36447   9.443  22.285   1.622
71287W        W36448  10.887  23.068   3.157
71288W        W36449   2.717  30.005  12.971
71289W        W36450  35.471  21.752   3.794
71290W        W36451  23.025   2.955   0.977
71291W        W36452   8.080   9.657   2.095
71292W        W36453  31.070   1.842   3.679
71293W        W36454  15.835   3.246  11.653
71294W        W36455  44.813  15.658   0.844
71295W        W36456  16.641   8.943  11.306
71296W        W36457  28.016  43.502  13.317
71297W        W36458  37.590  43.749   4.549
71298W        W36459  33.576   0.319   1.734
71299W        W36460   9.840  21.923   2.843
71300W        W36461  16.309  23.869  11.145
71301W        W36462   5.783  19.793   0.877
71302W        W36463  19.560  17.491  14.515
71303W        W36464   8.866  41.792  14.299
71304W        W36465  17.914  31.996   4.443
71305W        W36466  44.244  25.177  12.591
71306W        W36467   6.288  40.875   3.680
71307W        W36468  21.480  17.111   3.340
71308W        W36469  29.550  12.027  12.914
71309W        W36470  21.976  24.267   3.956
71310W        W36471  26.703   2.387  12.045
71311W        W36472  19.034   7.979  14.720
71312W        W36473   4.741  41.880   2.488
71313W        W36474  17.238   6.461   2.879
71314W        W36475  27.207  26.210   3.741
71315W        W36476  15.124  41.196  12.574
71316W        W36477   2.368  18.259   1.939
71317W        W36478  24.751  26.184  14.894
71318W        W36479  39.124  28.243  11.000
71319W        W36480  30.915  15.065   2.180
71320W        W36481  38.375  28.965  11.971
71321W        W36482   0.756  27.029   2.935
71322W        W36483  31.540   8.852   4.692
71323W        W36484  17.806   0.005  13.653
71324W        W36485  33.512  33.082  13.481
71325W        W36486  32.323  24.967  13.965
71326W        W36487   5.343  17.666   2.514
71327W        W36488  39.844   7.283   2.770
71328W        W36489  28.872  34.938   2.203
71329W        W36490  22.273  17.695   3.491
71330W        W36491   0.920  10.894   4.203
71331W        W36492  40.181  28.057   4.491
71332W        W36493  17.709  44.454  13.768
71333W        W36494  15.663  27.678  13.519
71334W        W36495  42.217   3.150  14.452
71335W        W36496  33.403   0.429   3.091
71336W        W36497  15.060  29.944  14.285
71337W        W36498  15.354  34.882   0.045
71338W        W36499  16.149   5.319  10.696
71339W        W36500  35.473  44.282  14.836
71340W        W36501   1.355  19.231  12.549
71341W        W36502  41.804   4.884   2.098
71342W        W36503  39.416  41.325  13.344
71343W        W36504  36.866  31.868  14.374
71344W        W36505  17.122  30.551  14.790
71345W        W36506  42.922  43.641  12.136
71346W        W36507   6.770  11.980   4.241
71347W        W36508  21.035  38.280  13.282
71348W        W36509  42.822  25.052  10.814
71349W        W36510  23.541  40.877  11.077
71350W        W36511   6.761  38.022   3.806
71351W        W36512  37.593  34.444  11.619
71352W        W36513  24.495  32.511  10.584
71353W        W36514  19.236  17.978  13.611
71354W        W36515  13.086  17.668   4.158
71355W        W36516   2.339  35.498   3.068
71356W        W36517  27.032  23.593   3.208
71357W        W36518  10.194   7.070   4.468
71358W        W36519  36.386  12.192  10.607
71359W        W36520  28.118  25.084  14.896
71360W        W36521  31.158  27.996   0.795
71361W        W36522  37.914   7.315   1.382
71362W        W36523   6.805   5.763   4.437
71363W        W36524  19.357  21.258   2.653
71364W        W36525  27.676  33.667  13.370
71365W        W36526  10.999  20.396   2.239
71366W        W36527  29.518  33.987   4.760
71367W        W36528  18.165   7.692  14.337
71368W        W36529  33.907  38.030  14.955
71369W        W36530  30.840  36.372  11.241
71370W        W36531   1.673  38.366  14.332
71371W        W36532  26.547  43.286   5.097
71372W        W36533   7.979  18.674   1.757
71373W        W36534   8.169  24.026  11.006
71374W        W36535  34.589  30.451   1.228
71375W        W36536   9.724  14.968  14.809
71376W        W36537  44.912  36.346   0.829
71377W        W36538  29.712  18.146   3.787
71378W        W36539  24.572  20.555   3.121
71379W        W36540   1.205  22.706  12.538
71380W        W36541  32.711  14.782   4.368
71381W        W36542   4.614   1.116  13.428
71382W        W36543  34.481  17.100  14.999
71383W        W36544   4.388  32.335   1.273
71384W        W36545  11.604  36.286   0.977
71385W        W36546   8.603  32.771   4.084
71386W        W36547  10.897  25.995   5.235
71387W        W36548  38.014   6.683  12.464
71388W        W36549  23.255   9.207   2.316
71389W        W36550  27.988  15.831  11.092
71390W        W36551  28.064  33.830   1.392
71391W        W36552   1.551  43.346   2.762
71392W        W36553  22.244  10.659   0.363
71393W        W36554   3.360   5.987  12.537
71394W        W36555   1.988  31.363   1.427
71395W        W36556  23.786  31.384   3.213
71396W        W36557  16.067  25.703   3.901
71397W        W36558  36.101  16.539   1.219
71398W        W36559  42.236  43.747  13.334
71399W        W36560  39.833   6.831  11.254
71400W        W36561  38.985  31.938   3.701
71401W        W36562   3.399  10.757  14.269
71402W        W36563  19.387  10.174  12.035
71403W        W36564  24.980  10.990   1.677
71404W        W36565  23.082  33.941   3.283
71405W        W36566   1.088   8.895  10.679
71406W        W36567  18.217   2.699   4.016
71407W        W36568  10.131  39.037  13.115
71408W        W36569  32.340   5.953  11.977
71409W        W36570  26.707  43.343  11.604
71410W        W36571  41.072   3.208   4.980
71411W        W36572  44.475  39.922   0.437
71412W        W36573  31.028  14.314   5.147
71413W        W36574  34.586  20.277   3.189
71414W        W36575  41.976  19.266   1.384
71415W        W36576  42.479  15.816   1.723
71416W        W36577   9.150  17.523  12.536
71417W        W36578  40.980   1.977   0.684
71418W        W36579  37.866  19.523  13.463
71419W        W36580  43.753  22.266   1.038
71420W        W36581   1.004  39.963  13.585
71421W        W36582  29.829  16.519   0.841
71422W        W36583  30.612  19.769   1.900
71423W        W36584  34.513  24.487  13.370
71424W        W36585  25.507  33.455  11.687
71425W        W36586  33.513  28.520  14.020
71426W        W36587  32.365   3.755  11.108
71427W        W36588   5.960  27.673  14.936
71428W        W36589   0.377  43.618  10.744
71429W        W36590  33.407  29.152  14.855
71430W        W36591  32.617  38.964   0.286
71431W        W36592  43.858  10.836  14.522
71432W        W36593  32.681  18.536  11.600
71433W        W36594  39.302  13.356  11.108
71434W        W36595  37.073  12.300   4.626
71435W        W36596  23.296  27.184   2.601
71436W        W36597  37.063  17.965  11.167
71437W        W36598   8.464  23.984  13.489
71438W        W36599   3.213  41.030   3.219
71439W        W36600  12.971   2.154  13.510
71440W        W36601  34.481  12.150   0.004
71441W        W36602  19.325  43.908   2.747
71442W        W36603   3.962  39.600   2.253
71443W        W36604   9.865  22.133  14.951
71444W        W36605  17.559  35.428   1.240
71445W        W36606   3.937  29.929   1.920
71446W        W36607   5.343  23.920  14.067
71447W        W36608  25.925  27.968  11.468
71448W        W36609   5.820  33.724   1.267
71449W        W36610   8.265  18.588   2.711
71450W        W36611  28.381  22.934  14.104
71451W        W36612  35.029  10.817   4.243
71452W        W36613  32.983  29.232  12.467
71453W        W36614  24.111   7.413   2.107
71454W        W36615  21.611  12.538  14.227
71455W        W36616  11.105  33.432   1.425
71456W        W36617   7.014   9.493  14.043
71457W        W36618  13.066   8.273  11.509
71458W        W36619   1.444  43.939   3.592
71459W        W36620  13.709  43.747  14.781
71460W        W36621   5.284   5.644   1.472
71461W        W36622   5.355   1.898  10.547
71462W        W36623  15.634  26.942  11.014
71463W        W36624  23.287  14.759   3.253
71464W        W36625  28.102  34.940  14.342
71465W        W36626  43.280   5.214  11.778
71466W        W36627  28.602   5.027  12.157
71467W        W36628   8.842  26.078   4.362
71468W        W36629  26.277  18.091  14.240
71469W        W36630   9.372  16.262   4.136
71470W        W36631  37.191  27.724  11.168
71471W        W36632  14.354  16.517   1.690
71472W        W36633  29.192  30.956   2.224
71473W        W36634  11.176   0.298   2.296
71474W        W36635   7.669  42.061  14.953
71475W        W36636  18.737  13.853   0.911
71476W        W36637   6.725  21.875   2.122
71477W        W36638  42.749  12.108   4.959
71478W        W36639  41.890  22.235   4.896
71479W        W36640  22.550  17.081   0.968
71480W        W36641  35.043  38.457   2.681
71481W        W36642  44.824  14.621  11.517
71482W        W36643  43.183  11.040   1.820
71483W        W36644   7.930  35.447   4.546
71484W        W36645  27.237  42.541   1.220
71485W        W36646  26.752  14.220  14.406
71486W        W36647  15.506  42.444   3.773
71487W        W36648  29.103   2.958   3.606
71488W        W36649   8.225  36.351  13.028
71489W        W36650  44.282  33.072   1.849
71490W        W36651   8.405   6.866   4.327
71491W        W36652  20.110  19.387   4.127
71492W        W36653  28.074  34.690   3.716
71493W        W36654  28.272  34.902  11.491
71494W        W36655   6.858  21.482  10.524
71495W        W36656  17.317  13.685   1.539
71496W        W36657  31.098  21.659  14.716
71497W        W36658  37.518  23.150   0.720
71498W        W36659  34.061  38.330  12.112
71499W        W36660  44.443  17.635   4.931
71500W        W36661  40.564  10.450   0.125
71501W        W36662   5.633  19.665   4.303
71502W        W36663   6.478  37.310  12.667
71503W        W36664  23.514  23.263   1.448
71504W        W36665  28.176  30.628   3.677
71505W        W36666  38.608  40.241  11.909
71506W        W36667  18.944  32.436   0.089
71507W        W36668  31.002  19.944   0.281
71508W        W36669  31.251  27.660   0.025
71509W        W36670  38.423  24.504   4.857
71510W        W36671  32.103  20.189   3.353
71511W        W36672  34.776  21.032   4.402
71512W        W36673  11.564   2.874  11.609
71513W        W36674  43.004   2.447   4.175
71514W        W36675  34.290  20.490   0.456
71515W        W36676  13.631  24.165  10.747
71516W        W36677   2.342  16.384   4.539
71517W        W36678  38.608  19.245   4.884
71518W        W36679  16.057  13.659  14.977
71519W        W36680  17.173  24.699  14.959
71520W        W36681   9.141  35.539  13.350
71521W        W36682  12.377   8.187   2.812
71522W        W36683   0.930  38.529  14.875
71523W        W36684  12.627  29.408  14.444
71524W        W36685  18.027  21.515  11.136
71525W        W36686  29.715  18.531  11.108
71526W        W36687  12.767  13.824   4.032
71527W        W36688  11.795  28.536  13.113
71528W        W36689  36.613  30.422   3.570
71529W        W36690  22.539  39.785   4.583
71530W        W36691  29.145  12.775  10.288
71531W        W36692  12.371   2.976   3.563
71532W        W36693  41.246  26.504  12.149
71533W        W36694  37.811  13.706   2.472
71534W        W36695   1.689  32.095  11.430
71535W        W36696  31.611  25.401   1.240
71536W        W36697   6.899  21.271  13.016
71537W        W36698  40.946   3.778   4.437
71538W        W36699   7.390  13.645   3.587
71539W        W36700  23.959  25.938   0.760
71540W        W36701  14.462   3.698  14.434
71541W        W36702   5.312   1.554   1.880
71542W        W36703  36.350   6.814  14.736
71543W        W36704  31.907  43.854   4.808
71544W        W36705  11.609  36.567   4.057
71545W        W36706   5.213  15.167  14.250
71546W        W36707   5.897  24.460  11.546
71547W        W36708   0.088   0.752  14.635
71548W        W36709  26.431  43.804  14.206
71549W        W36710   3.446  36.584   2.667
71550W        W36711  22.646   4.557   0.561
71551W        W36712  24.490   3.318  12.556
71552W        W36713   5.421  29.612  13.045
71553W        W36714  29.397  17.822   4.078
71554W        W36715  18.492   5.764  12.023
71555W        W36716  37.268  19.505  10.265
71556W        W36717  25.172  40.327   4.059
71557W        W36718  35.116  41.127  11.883
71558W        W36719  36.881  35.277   4.079
71559W        W36720   9.778   2.689   0.772
71560W        W36721   9.878  43.511  13.028
71561W        W36722  35.588  20.590  11.088
71562W        W36723  42.161  24.587  12.098
71563W        W36724  15.542  28.639  13.275
71564W        W36725  22.698   6.905  13.018
71565W        W36726   0.400  40.381  11.525
71566W        W36727  42.447  28.505  11.856
71567W        W36728  17.633  15.690  13.013
71568W        W36729  26.674   1.103   1.191
71569W        W36730  38.346  31.906   1.700
71570W        W36731  10.589  38.753  14.045
71571W        W36732  25.763  33.652   4.236
71572W        W36733   6.325  28.017   1.265
71573W        W36734  42.778   9.580  11.613
71574W        W36735   6.302  34.385   0.186
71575W        W36736  25.526  39.854  14.096
71576W        W36737   9.567  29.975   4.701
71577W        W36738   5.509  26.155   3.544
71578W        W36739   3.800  17.308  13.390
71579W        W36740  42.013  38.173   0.887
71580W        W36741  14.058   4.627   3.374
71581W        W36742  39.017  31.988  12.076
71582W        W36743  26.621   3.436   0.695
71583W        W36744  10.660  27.464   2.875
71584W        W36745  27.897   1.494   1.627
71585W        W36746   2.928  14.180   1.190
71586W        W36747  36.300   5.897  14.452
71587W        W36748   7.831  40.540  14.778
71588W        W36749  35.879  19.008  12.404
71589W        W36750  22.741  21.905  11.527
71590W        W36751  22.813  18.978  12.090
71591W        W36752   0.997  18.323   2.832
71592W        W36753  32.569   8.481   3.758
71593W        W36754  34.111  10.054   3.428
71594W        W36755  38.511   0.188   2.015
71595W        W36756  33.068  16.363   3.177
71596W        W36757   8.404  13.151   4.904
71597W        W36758  44.014  43.856   1.237
71598W        W36759   7.383  29.282   0.825
71599W        W36760  33.756  41.550  13.579
71600W        W36761  44.255   2.917  11.112
71601W        W36762  13.347  16.708   0.801
71602W        W36763   2.478  14.266  13.815
71603W        W36764  25.437   9.780   1.369
71604W        W36765   5.199  20.122  11.522
71605W        W36766  30.732  41.274  13.536
71606W        W36767  28.411   7.629   1.412
71607W        W36768  28.841  24.311   0.341
71608W        W36769  11.252  15.490  12.436
71609W        W36770  13.186  31.582   2.116
71610W        W36771  13.580  19.668   4.092
71611W        W36772  15.147  30.529  14.909
71612W        W36773  20.263  17.409  10.670
71613W        W36774  13.250  15.562   4.153
71614W        W36775  11.325   5.027  10.512
71615W        W36776  30.714  26.819   4.203
71616W        W36777   2.728  41.266  14.303
71617W        W36778  36.310  14.789  11.569
71618W        W36779  27.770  37.879   5.241
71619W        W36780   5.384  32.369  13.568
71620W        W36781  16.967   1.346  12.352
71621W        W36782  13.041  16.049   1.935
71622W        W36783  12.941   0.354   2.868
71623W        W36784  29.460  33.438   0.754
71624W        W36785  24.566  22.060   0.383
71625W        W36786  12.961  16.338   3.744
71626W        W36787  16.333   8.827  13.009
71627W        W36788  24.555  12.305   2.384
71628W        W36789  18.977  12.731   4.186
71629W        W36790  31.316  43.299   2.250
71630W        W36791  17.752   8.205  14.786
71631W        W36792  32.022  34.729   3.203
71632W        W36793  15.747   8.816  10.955
71633W        W36794  41.374  33.441   2.878
71634W        W36795  41.889  19.705  12.980
71635W        W36796  36.444   5.844  13.939
71636W        W36797  13.491   8.586  11.488
71637W        W36798  34.466   6.685   2.004
71638W        W36799   8.765   5.462  11.898
71639W        W36800   1.230  21.300  14.063
71640W        W36801  35.090  12.674   1.006
71641W        W36802  38.325  28.302  12.639
71642W        W36803   5.942  25.484  14.472
71643W        W36804  25.013  18.290  13.903
71644W        W36805  20.376  15.197  11.146
71645W        W36806  12.843  10.066   1.874
71646W        W36807   3.520   9.693   0.604
71647W        W36808  26.655  23.222  11.120
71648W        W36809   6.425  24.727  11.431
71649W        W36810  11.395  41.560   3.161
71650W        W36811   7.640  12.806  13.875
71651W        W36812  39.115  43.256  12.622
71652W        W36813   4.869  41.761  12.108
71653W        W36814  38.961   4.396   1.556
71654W        W36815   4.689  23.771  12.873
71655W        W36816  32.434  20.851   0.367
71656W        W36817  36.699  23.590   2.646
71657W        W36818   3.939  43.950  10.673
71658W        W36819  36.345   4.395  13.337
71659W        W36820  31.140  33.452  13.428
71660W        W36821  21.975  18.399  12.887
71661W        W36822   9.154  10.944  14.789
71662W        W36823  22.403  42.525   3.173
71663W        W36824  13.086  11.759   1.977
71664W        W36825  33.094  30.121  12.418
71665W        W36826  21.678  30.721   1.313
71666W        W36827  12.832  43.312   2.698
71667W        W36828  22.777  38.107   4.600
71668W        W36829  31.543  12.161  10.281
71669W        W36830  34.417  43.268   1.359
71670W        W36831   4.741  18.238  12.498
71671W        W36832  23.082   9.346   0.386
71672W        W36833  14.773  19.088  14.566
71673W        W36834  32.834  36.040   3.564
71674W        W36835  41.228  37.085  11.545
71675W        W36836  13.384   8.352   3.247
71676W        W36837  44.888   3.827   3.691
71677W        W36838  39.381  44.314   3.197
71678W        W36839  25.251  12.392   1.650
71679W        W36840  15.592  21.979   3.646
71680W        W36841   3.774   5.197   2.386
71681W        W36842  36.401  15.820  12.177
71682W        W36843  15.972  17.176  10.420
71683W        W36844  28.174  33.994  11.985
71684W        W36845   5.488  28.001  14.260
71685W        W36846   8.345  20.255   3.324
71686W        W36847  23.200  42.983   3.212
71687W        W36848  27.111  10.751   2.372
71688W        W36849  37.381  12.404   3.246
71689W        W36850  14.573  22.021  14.776
71690W        W36851  32.095   1.188  11.655
71691W        W36852  18.694  29.969  10.677
71692W        W36853  22.740  24.001  12.977
71693W        W36854  31.160  34.916  13.429
71694W        W36855  11.649  34.122   1.449
71695W        W36856  29.969  11.556  11.856
71696W        W36857  32.878  35.914  12.187
71697W        W36858   2.918  38.648  13.016
71698W        W36859   0.908  11.422  10.233
71699W        W36860  29.955  41.896   4.844
71700W        W36861  12.773  37.190  10.167
71701W        W36862  26.212  14.293  11.978
71702W        W36863   6.657  21.667   4.317
71703W        W36864   0.486  31.018   2.168
71704W        W36865  21.324   2.058  14.621
71705W        W36866   3.664   2.296   4.146
71706W        W36867  38.654  10.769  12.421
71707W        W36868  19.725   2.150   0.808
71708W        W36869  31.167  19.121   2.330
71709W        W36870  32.914   9.722  11.398
71710W        W36871  11.527  38.283  14.582
71711W        W36872  39.494   8.821   3.332
71712W        W36873  43.691   7.411  14.375
71713W        W36874  14.674  29.871  13.688
71714W        W36875   7.354  21.812   3.119
71715W        W36876   3.665   8.867  10.777
71716W        W36877  19.003  26.919   0.051
71717W        W36878  27.505   7.117  11.687
71718W        W36879   1.263   5.350   2.138
71719W        W36880   1.894  16.784  14.555
71720W        W36881  25.773  22.935  11.611
71721W        W36882  16.803  41.916  14.029
71722W        W36883   5.343   4.231  12.126
71723W        W36884  16.306  11.220   3.937
71724W        W36885  10.087  39.904  10.472
71725W        W36886  40.511  21.717   1.706
71726W        W36887   6.026  21.760  12.563
71727W        W36888  27.053  11.344  12.941
71728W        W36889   4.423  25.808   1.716
71729W        W36890   3.469  44.258  11.958
71730W        W36891  21.844  25.167   1.754
71731W        W36892  24.680  31.092   1.144
71732W        W36893  16.874  22.499  12.953
71733W        W36894  15.375  26.155  14.930
71734W        W36895  21.977  26.705  11.541
71735W        W36896  11.853  41.458   0.900
71736W        W36897  44.390  37.084   2.725
71737W        W36898  15.068  33.363  14.352
71738W        W36899  27.641  24.432   0.948
71739W        W36900  15.871   6.695  11.069
71740W        W36901   5.100  16.115   1.162
71741W        W36902  36.273  31.567   1.003
71742W        W36903  28.416  44.767  11.506
71743W        W36904  40.320  33.658  10.963
71744W        W36905   6.852  29.142  13.784
71745W        W36906  27.216  21.550   2.809
71746W        W36907   5.970   5.583  12.962
71747W        W36908  33.929  21.616  10.447
71748W        W36909  36.436  38.535  13.674
71749W        W36910  15.088  37.732   3.718
71750W        W36911  31.114  34.053   2.092
71751W        W36912  39.956  28.207   4.059
71752W        W36913  15.988  41.985   0.265
71753W        W36914  14.392   7.891   0.089
71754W        W36915  41.206  39.266  12.463
71755W        W36916  40.818  37.625   9.494
71756W        W36917  30.478   5.370  10.637
71757W        W36918  36.424  38.854  10.696
71758W        W36919  37.087  43.367   0.489
71759W        W36920  13.115  23.549   4.786
71760W        W36921   1.268  27.811  14.719
71761W        W36922   8.835   3.900   4.162
71762W        W36923   9.304  36.985   0.224
71763W        W36924   9.400  25.380   1.706
71764W        W36925  16.214   4.147  11.422
71765W        W36926  27.699  43.014   1.738
71766W        W36927  23.036  18.113  10.721
71767W        W36928  37.123   6.451   1.226
71768W        W36929  41.395   3.865  10.602
71769W        W36930   8.913  13.857   4.125
71770W        W36931  21.024  11.815   0.935
71771W        W36932   9.925  12.636   2.972
71772W        W36933  16.100   7.911  12.868
71773W        W36934  18.645  13.027  12.162
71774W        W36935  36.646  17.725  11.606
71775W        W36936  27.175  29.417  11.555
71776W        W36937  25.152  31.968  11.915
71777W        W36938  27.378  36.330   0.234
71778W        W36939  37.192  33.110  13.464
71779W        W36940  37.413  18.767   0.357
71780W        W36941  37.363  42.641  14.975
71781W        W36942   8.799  14.709  11.355
71782W        W36943  27.124  42.031  14.390
71783W        W36944  27.101   6.090   4.552
71784W        W36945  40.283   7.851  13.109
71785W        W36946   0.814  17.973  12.521
71786W        W36947  28.504   7.853   0.966
71787W        W36948  33.415  13.867   2.274
71788W        W36949  29.033   9.828   4.079
71789W        W36950  40.268   3.281   9.968
71790W        W36951  26.212  31.585   2.347
71791W        W36952   9.108  12.076  10.451
71792W        W36953   1.499  27.615   2.785
71793W        W36954   5.394  22.114  14.540
71794W        W36955  34.559   9.220   3.598
71795W        W36956   6.878  18.397   4.522
71796W        W36957  21.151  23.397  10.775
71797W        W36958  37.891  40.970   3.718
71798W        W36959  16.494  12.766  13.039
71799W        W36960  36.908  12.094  12.106
71800W        W36961   6.171   5.873  13.335
71801W        W36962   1.526  37.860   2.300
71802W        W36963  42.959   0.467   1.244
71803W        W36964   5.635  25.482   2.221
71804W        W36965  22.109  31.959  14.838
71805W        W36966  28.643  30.382  10.589
71806W        W36967  20.252  14.684  11.332
71807W        W36968  32.370  10.840  12.544
71808W        W36969  19.652  30.394   4.873
71809W        W36970   0.512  18.442   3.240
71810W        W36971   2.390  18.307   5.313
71811W        W36972   3.895  30.065   4.391
71812W        W36973  42.703  40.364   1.648
71813W        W36974   8.072  27.407  13.829
71814W        W36975  39.053  28.678   1.387
71815W        W36976  41.238  42.780   0.940
71816W        W36977  40.313  27.062  13.105
71817W        W36978  35.618  28.141  14.209
71818W        W36979  38.699  14.785   2.955
71819W        W36980  25.477  35.485  12.517
71820W        W36981  38.918  18.366  13.402
71821W        W36982  21.483  25.603  10.636
71822W        W36983   4.065  32.017   5.171
71823W        W36984  14.136   8.803  12.023
71824W        W36985  26.522  30.720  13.079
71825W        W36986  31.719  24.471   0.395
71826W        W36987  21.218  44.341   1.681
71827W        W36988   8.795  35.268   0.479
71828W        W36989   7.982  29.189   0.992
71829W        W36990  17.376   7.818   0.267
71830W        W36991  23.596  41.128   3.276
71831W        W36992   3.372  14.342   2.746
71832W        W36993   3.375  27.204   4.333
71833W        W36994  13.098  34.015  12.130
71834W        W36995  30.762  19.194  12.520
71835W        W36996  10.140  12.205  10.548
71836W        W36997  32.547   3.032  14.021
71837W        W36998  20.628  12.228  14.438
71838W        W36999  23.623  14.843   2.230
71839W        W37000   8.453  23.690   4.517
71840W        W37001  17.119  44.896   1.457
71841W        W37002  28.143   0.330  13.445
71842W        W37003   8.817  43.022   3.367
71843W        W37004  25.700  23.097   3.154
71844W        W37005  32.998  33.502   4.242
71845W        W37006  11.768   0.975  14.866
71846W        W37007  35.815  31.643  13.796
71847W        W37008   0.319  33.105  12.571
71848W        W37009  30.549  30.091  11.010
71849W        W37010  35.882  26.912  13.689
71850W        W37011   0.905  10.236  14.143
71851W        W37012  29.604  30.589   0.483
71852W        W37013  16.120  28.614  13.304
71853W        W37014  29.251  23.154   1.748
71854W        W37015  37.937   1.758   1.013
71855W        W37016  32.928  17.589   4.422
71856W        W37017  33.979   9.620  13.272
71857W        W37018  33.078  22.711  11.227
71858W        W37019  33.327   9.809   1.826
71859W        W37020   3.399  23.984   1.682
71860W        W37021  35.008  32.954   3.643
71861W        W37022  16.847  39.776   5.027
71862W        W37023  24.309  42.465   1.289
71863W        W37024  21.146  13.012   2.637
71864W        W37025  17.600   4.335  11.582
71865W        W37026  32.157  41.760   1.631
71866W        W37027   4.018  29.503  12.774
71867W        W37028   8.719   2.041   2.916
71868W        W37029  44.360  41.738   1.874
71869W        W37030  33.581   7.383   3.647
71870W        W37031  19.611  24.421   1.345
71871W        W37032  36.717  14.031   1.286
71872W        W37033  14.076  40.349   2.771
71873W        W37034  17.601  23.936   3.692
71874W        W37035  21.054   1.037   1.708
71875W        W37036   8.128  15.623  12.406
71876W        W37037  13.368  25.066  11.246
71877W        W37038  22.453  26.435   0.309
71878W        W37039  11.379  33.947   0.308
71879W        W37040  14.584  43.900   4.295
71880W        W37041  33.133  41.748  12.372
71881W        W37042  13.510  18.623  14.563
71882W        W37043  27.453   5.161  11.472
71883W        W37044  35.935  38.694  13.917
71884W        W37045  40.425  39.794   2.421
71885W        W37046  14.681   7.353   0.926
71886W        W37047   4.260  43.342  14.530
71887W        W37048  24.180   6.886  11.128
71888W        W37049   7.174  42.382   3.136
71889W        W37050  10.344   8.371   4.220
71890W        W37051  23.718  26.415  14.272
71891W        W37052  40.383  26.680   4.660
71892W        W37053   6.989  30.032  12.533
71893W        W37054  34.396  10.398  14.430
71894W        W37055  37.135  13.635   1.906
71895W        W37056   1.659  10.174   1.171
71896W        W37057   6.862  13.102   2.371
71897W        W37058  19.140  26.723  11.144
71898W        W37059  36.368  39.593   0.053
71899W        W37060   0.354  34.816  13.949
71900W        W37061  36.572  26.209  14.311
71901W        W37062  39.868  11.854  12.357
71902W        W37063  29.673  11.701   0.933
71903W        W37064  27.141  28.902  11.649
71904W        W37065  11.029  26.010  13.429
71905W        W37066  22.163   5.790   2.432
71906W        W37067  30.474  41.807   4.522
71907W        W37068   0.339  43.383  14.149
71908W        W37069   5.189  35.402   5.000
71909W        W37070  25.540  10.547   4.501
71910W        W37071  26.762  19.577   4.922
71911W        W37072  29.323  35.596  12.007
71912W        W37073  29.444  20.643  12.719
71913W        W37074   0.421  23.969   0.282
71914W        W37075  18.085   0.055  11.154
71915W        W37076  30.738  34.031  12.648
71916W        W37077  38.488  35.277  11.036
71917W        W37078  13.845  40.454  12.462
71918W        W37079  34.487  17.785  10.740
71919W        W37080   9.275  43.247  14.764
71920W        W37081  12.384   6.961  13.707
71921W        W37082  33.281  22.157  12.417
71922W        W37083  39.850  37.496  13.338
71923W        W37084  11.158   3.359  12.601
71924W        W37085  15.604   3.208   1.857
71925W        W37086  20.608  10.802   1.043
71926W        W37087  19.572  10.653  10.562
71927W        W37088  31.478  28.680   1.254
71928W        W37089  19.587  13.789   4.923
71929W        W37090  29.936  35.596  11.188
71930W        W37091  30.520   0.725   0.328
71931W        W37092   5.677  43.932  11.180
71932W        W37093  37.456  28.023  13.306
71933W        W37094  20.986  32.828   2.307
71934W        W37095  35.083  14.526  12.043
71935W        W37096  34.952   7.820   0.382
71936W        W37097  36.090   0.383  13.102
71937W        W37098   6.076  41.500   4.823
71938W        W37099  15.829  36.529  12.929
71939W        W37100   9.616  38.244  12.628
71940W        W37101  27.597  35.234   1.876
71941W        W37102  15.646  14.123  13.041
71942W        W37103  41.752  11.141   4.744
71943W        W37104  31.524  13.179   4.191
71944W        W37105  39.846  20.195  12.481
71945W        W37106   9.803  22.120  11.998
71946W        W37107   2.898  18.984   0.943
71947W        W37108  28.011  18.145   2.833
71948W        W37109  14.257   3.306  12.975
71949W        W37110  43.534   6.686  11.068
71950W        W37111  25.702  11.587  12.491
71951W        W37112  44.864  33.649   3.630
71952W        W37113  42.246   3.468  12.511
71953W        W37114   3.960  36.059  12.955
71954W        W37115  42.115   3.914  12.757
71955W        W37116  11.812  13.335   1.954
71956W        W37117  33.804  38.985   2.880
71957W        W37118  25.164  15.545  11.033
71958W        W37119  20.648   0.576  13.365
71959W        W37120  13.710  35.494  14.968
71960W        W37121  44.254   0.885   1.960
71961W        W37122  39.563  19.626  10.723
71962W        W37123  40.139  25.939   4.885
71963W        W37124  12.564  37.511  12.131
71964W        W37125  44.743  38.561   4.955
71965W        W37126  27.466  30.112  13.957
71966W        W37127  17.791  23.788  14.249
71967W        W37128  36.488   1.194  11.885
71968W        W37129  39.277   7.124  12.517
71969W        W37130  40.434   5.650   2.712
71970W        W37131   0.709   1.632  14.453
71971W        W37132  42.333  34.560  13.350
71972W        W37133   6.329  33.712   1.876
71973W        W37134   0.548  18.956   3.246
71974W        W37135  42.976  23.118  13.818
71975W        W37136   4.359  23.696   3.091
71976W        W37137  19.629   3.658   4.937
71977W        W37138  37.651  13.636   3.330
71978W        W37139   8.418   3.240  14.908
71979W        W37140   3.013  21.294   2.256
71980W        W37141  18.776  24.515   2.346
71981W        W37142  30.545   3.477   3.668
71982W        W37143   1.779  10.711   1.458
71983W        W37144  24.482  44.053  11.190
71984W        W37145  34.021   7.180  13.513
71985W        W37146  26.438  28.651  13.505
71986W        W37147  40.089   5.926  10.877
71987W        W37148   6.226   3.787  14.091
71988W        W37149  42.933  19.226  11.690
71989W        W37150  31.991  15.033   0.854
71990W        W37151   9.170   7.938  10.856
71991W        W37152  25.621  38.766  13.963
71992W        W37153   0.047   4.232   1.777
71993W        W37154  13.821  42.847  12.059
71994W        W37155  37.964  18.352   2.203
71995W        W37156   1.788  11.339   4.125
71996W        W37157  12.067  25.265  13.160
71997W        W37158  34.009  21.575   4.602
71998W        W37159  37.140   1.852  14.361
71999W        W37160  28.260   3.275  12.192
72000W        W37161   2.073  36.247  14.288
72001W        W37162   9.249  23.109  11.586
72002W        W37163  22.689  40.923   2.120
72003W        W37164  13.508  22.094   1.718
72004W        W37165  17.852  31.048   3.205
72005W        W37166  40.907  14.550  14.951
72006W        W37167  16.983  40.042  14.921
72007W        W37168   7.326  14.073   0.886
72008W        W37169  18.199  31.551   1.755
72009W        W37170  37.990  39.525  12.140
72010W        W37171  40.356   9.625   3.060
72011W        W37172   8.736  31.866  14.622
72012W        W37173  13.755  24.261  11.438
72013W        W37174   4.458  11.251   1.644
72014W        W37175  26.518  33.567   2.755
72015W        W37176  33.602  36.169   4.711
72016W        W37177  36.966   6.891   0.965
72017W        W37178  28.498  14.629   4.125
72018W        W37179  40.875  30.643  13.101
72019W        W37180  22.431  37.947   1.652
72020W        W37181  34.832  19.113  12.561
72021W        W37182  15.703  32.913   3.293
72022W        W37183   1.637  44.111   2.614
72023W        W37184  32.434  32.809  13.323
72024W        W37185  33.444   1.046  11.621
72025W        W37186  34.565   0.576  13.392
72026W        W37187  21.286  12.611   3.813
72027W        W37188  34.380  28.227  12.153
72028W        W37189  10.578  17.044  10.223
72029W        W37190  40.981  28.090  12.277
72030W        W37191  29.272  10.998   3.198
72031W        W37192  22.632   4.622   4.575
72032W        W37193  44.867  29.568   4.720
72033W        W37194  21.065   6.786   0.221
72034W        W37195  10.178  21.173   0.738
72035W        W37196   7.239  43.724   4.586
72036W        W37197  18.631  19.089   1.353
72037W        W37198  38.814  16.120  10.813
72038W        W37199   8.422  24.063   2.354
72039W        W37200   0.669  31.060   3.254
72040W        W37201  24.254  14.638   3.000
72041W        W37202   9.651  14.657   1.289
72042W        W37203  21.209  43.524  13.396
72043W        W37204  12.147  41.912  11.912
72044W        W37205  37.289  31.518  11.581
72045W        W37206  41.781   2.325  13.492
72046W        W37207   2.986  42.833  13.395
72047W        W37208   8.678  40.626  12.211
72048W        W37209  22.981  29.579  14.226
72049W        W37210  21.468  18.623  13.835
72050W        W37211  42.532  21.500   4.088
72051W        W37212  18.168  42.474   2.167
72052W        W37213  41.894  14.709   1.759
72053W        W37214  28.585  32.138   1.398
72054W        W37215  25.068  44.208  11.575
72055W        W37216  37.887   6.714  13.879
72056W        W37217  33.780   5.760   1.232
72057W        W37218  37.922  38.799   2.773
72058W        W37219  40.549  42.333   1.305
72059W        W37220  25.764  42.348  13.961
72060W        W37221  43.935  26.378  13.359
72061W        W37222  31.394   3.427   2.936
72062W        W37223  23.028  21.149   4.972
72063W        W37224  32.467  12.529   3.575
72064W        W37225  36.084  29.696   0.715
72065W        W37226  28.691  40.112  12.465
72066W        W37227  31.169  39.072   2.658
72067W        W37228   2.243  21.718  11.092
72068W        W37229  39.538  12.260  12.491
72069W        W37230  36.522  16.790  13.525
72070W        W37231  19.250  16.024  13.330
72071W        W37232   4.967   5.394  14.759
72072W        W37233   6.432  39.221  10.943
72073W        W37234  14.642  17.261  12.505
72074W        W37235  20.288  11.087  13.335
72075W        W37236   8.042  36.431   0.255
72076W        W37237  13.756  24.109  11.917
72077W        W37238   9.199   5.858   3.249
72078W        W37239  41.490  36.897  10.140
72079W        W37240  34.968  13.656  11.059
72080W        W37241  23.703  40.594  11.494
72081W        W37242  38.509  11.362   3.307
72082W        W37243   8.800   3.212  14.540
72083W        W37244  14.352  35.675  11.630
72084W        W37245  25.744  18.752  14.382
72085W        W37246  19.183   2.422  11.675
72086W        W37247   7.416  18.930   0.335
72087W        W37248  38.873   0.459  14.840
72088W        W37249  29.944  44.496   0.434
72089W        W37250  41.022  29.002  12.949
72090W        W37251  34.176  21.062  12.410
72091W        W37252  22.717  23.998   2.215
72092W        W37253  33.940  29.079   1.019
72093W        W37254  16.893   0.930   4.895
72094W        W37255  19.341  11.970  10.725
72095W        W37256  21.050  28.871   0.281
72096W        W37257  16.603   7.660   2.755
72097W        W37258   1.184  41.458   4.650
72098W        W37259  15.045  26.017  10.482
72099W        W37260  22.767  33.327  13.097
72100W        W37261  12.745   2.613  13.423
72101W        W37262  42.904  17.092   2.724
72102W        W37263  28.611   9.486  11.933
72103W        W37264   5.318  33.107  14.879
72104W        W37265  11.221  20.650   2.656
72105W        W37266  28.930  30.509   2.198
72106W        W37267  27.480   9.369  11.099
72107W        W37268   8.571  29.616  10.835
72108W        W37269  43.385   8.268   3.441
72109W        W37270  28.622  11.537  13.812
72110W        W37271  29.148   6.660  13.579
72111W        W37272  16.088  24.289   0.840
72112W        W37273  28.530  18.218   2.128
72113W        W37274   9.800  11.303  11.415
72114W        W37275   3.259  24.089  12.997
72115W        W37276  10.334   1.567   3.601
72116W        W37277  32.708  11.023   2.298
72117W        W37278  33.062  25.424  14.862
72118W        W37279   6.227  31.800   0.315
72119W        W37280  12.863  12.130   1.153
72120W        W37281   9.741   1.978   3.755
72121W        W37282  23.306  29.408   3.716
72122W        W37283  17.768  28.225  12.458
72123W        W37284  15.814  21.649  10.756
72124W        W37285   7.425  11.850   2.801
72125W        W37286  34.624  36.132   0.876
72126W        W37287   6.502   9.913   5.035
72127W        W37288  24.159  32.336   0.461
72128W        W37289  29.971  28.430   1.218
72129W        W37290   7.012  31.598   2.839
72130W        W37291  32.552  15.294  13.775
72131W        W37292  36.717   6.655   2.419
72132W        W37293  14.761  17.828   1.315
72133W        W37294  13.634  16.291  12.516
72134W        W37295  36.460  25.448  11.383
72135W        W37296  13.433  28.586   4.608
72136W        W37297  22.432  40.099   2.687
72137W        W37298  36.564  19.764  12.442
72138W        W37299   8.036  24.209  14.358
72139W        W37300  37.700  19.200   0.332
72140W        W37301   8.189  33.608  13.979
72141W        W37302  27.913   3.227  11.689
72142W        W37303   4.740  29.831  12.523
72143W        W37304   7.783   3.924   2.094
72144W        W37305  19.267  21.254  14.106
72145W        W37306   6.339  42.974  13.905
72146W        W37307  11.161  25.741  12.951
72147W        W37308  30.159  43.216   2.584
72148W        W37309  37.766  18.207   2.656
72149W        W37310  28.969  44.365   1.990
72150W        W37311  34.776  22.981   1.876
72151W        W37312  11.101  21.815   1.970
72152W        W37313  38.041  23.058   0.420
72153W        W37314  21.080  35.976  13.953
72154W        W37315  25.973  35.265   2.374
72155W        W37316  34.979  41.231   1.983
72156W        W37317   5.317  12.906  14.680
72157W        W37318  29.360   1.427   3.582
72158W        W37319  15.599  22.541  11.099
72159W        W37320  38.903  14.441  14.241
72160W        W37321  32.599  24.172  13.403
72161W        W37322  13.099  32.579   1.397
72162W        W37323  43.488  38.520   0.102
72163W        W37324  22.809  26.515   0.704
72164W        W37325  33.388  12.689  13.067
72165W        W37326   1.467  17.100  14.357
72166W        W37327  25.664   7.010   3.215
72167W        W37328  44.946  29.964   3.663
72168W        W37329  24.129  11.306   1.877
72169W        W37330  11.552   8.507  10.199
72170W        W37331  12.671   3.258   3.163
72171W        W37332   7.357  41.375  11.259
72172W        W37333   7.426  31.703   0.808
72173W        W37334  16.652  28.989   4.086
72174W        W37335  28.256  39.500   1.664
72175W        W37336  12.350  42.936   0.876
72176W        W37337   8.015  43.279   4.233
72177W        W37338  37.574   7.623   2.774
72178W        W37339  39.766   3.765   3.095
72179W        W37340  35.401   3.798   0.299
72180W        W37341  40.581  34.590   2.768
72181W        W37342  13.361  34.805  11.569
72182W        W37343  24.004   4.747   1.340
72183W        W37344  10.489   4.861   1.363
72184W        W37345  22.246   4.979   2.769
72185W        W37346  13.295  12.295   2.925
72186W        W37347  33.178  41.940   3.240
72187W        W37348  24.015  43.566  12.489
72188W        W37349  27.567  20.984  11.754
72189W        W37350  16.185  15.151   4.150
72190W        W37351  17.107  43.886   1.923
72191W        W37352  37.064  39.766  12.521
72192W        W37353  16.150  23.659  14.428
72193W        W37354  41.730   4.832   2.627
72194W        W37355  29.459  32.645   4.566
72195W        W37356   1.428  39.744  13.806
72196W        W37357  38.141  22.100   2.660
72197W        W37358   3.277  24.792   1.397
72198W        W37359  38.533  39.774   4.130
72199W        W37360  30.455   0.458  10.590
72200W        W37361   8.954  35.343   4.242
72201W        W37362  10.121  16.965   0.336
72202W        W37363  32.108  33.906   0.791
72203W        W37364  27.971  32.570   4.446
72204W        W37365  37.734  25.465  13.117
72205W        W37366  32.588  17.187   3.123
72206W        W37367  31.412   1.352   2.365
72207W        W37368  22.163  23.468   3.122
72208W        W37369   9.856  31.899   0.278
72209W        W37370  35.095  16.173   4.535
72210W        W37371  19.058  19.962   3.766
72211W        W37372  40.900   4.995  12.440
72212W        W37373  32.526  17.633  10.697
72213W        W37374  31.530  21.423  13.010
72214W        W37375  38.057  35.424  14.046
72215W        W37376  28.787  36.487  11.947
72216W        W37377   7.090  27.906  14.027
72217W        W37378  12.791   1.740  11.347
72218W        W37379  23.653  24.997  10.708
72219W        W37380  32.399  39.396   0.498
72220W        W37381  16.606  11.942   3.034
72221W        W37382  37.645  23.287  12.039
72222W        W37383  23.451  42.512   2.269
72223W        W37384  32.065   0.779   5.089
72224W        W37385  43.802   6.780   4.713
72225W        W37386  32.617  23.641  14.444
72226W        W37387  42.346  16.773   1.288
72227W        W37388  29.975  39.414   0.758
72228W        W37389   0.752  27.210  11.133
72229W        W37390  13.079  11.678   4.118
72230W        W37391  36.084  37.440  14.001
72231W        W37392  26.625   9.127   1.916
72232W        W37393  26.087  33.317  12.377
72233W        W37394  40.347  12.101   1.805
72234W        W37395  33.978  25.711  14.474
72235W        W37396  24.747  13.238  13.472
72236W        W37397  17.151  14.054  12.027
72237W        W37398  24.567  32.388   2.835
72238W        W37399   4.155  28.065   3.217
72239W        W37400  27.598  31.962   0.318
72240W        W37401  36.068  37.025  10.640
72241W        W37402   4.027  27.396   1.314
72242W        W37403  21.249  30.061  13.441
72243W        W37404   5.105  22.605  11.852
72244W        W37405  10.646   1.409  10.784
72245W        W37406   8.889  27.691   1.756
72246W        W37407  25.203   2.554   2.329
72247W        W37408  30.720  27.769  14.100
72248W        W37409  35.567   5.564   1.384
72249W        W37410  31.013  42.461  13.852
72250W        W37411  12.728  36.135  13.569
72251W        W37412  28.892   4.842   0.477
72252W        W37413  18.097  15.245  12.528
72253W        W37414   4.961  32.027   3.266
72254W        W37415  17.609   7.933   3.622
72255W        W37416  21.077  37.400   3.361
72256W        W37417   3.972  31.552   1.651
72257W        W37418  21.586   9.678   3.782
72258W        W37419  20.528   5.317   2.732
72259W        W37420   8.160   6.466   2.546
72260W        W37421  22.171  19.035   2.378
72261W        W37422  30.552  40.790  11.075
72262W        W37423   6.445  26.263  14.906
72263W        W37424  27.144  35.384   1.638
72264W        W37425  11.207  11.093  13.767
72265W        W37426  34.595  11.217  12.092
72266W        W37427   1.945  43.850   3.470
72267W        W37428   4.946   9.450   4.300
72268W        W37429  37.460   6.393   3.303
72269W        W37430  37.892  28.324   0.066
72270W        W37431   1.822   9.730   2.327
72271W        W37432  27.985  26.026  14.543
72272W        W37433  13.837  17.416  10.746
72273W        W37434  42.007  36.866  10.084
72274W        W37435  35.277  43.302   2.711
72275W        W37436   6.195  39.595   4.543
72276W        W37437  28.081  31.453   0.486
72277W        W37438   1.051   3.699   3.162
72278W        W37439  33.235  33.758   2.719
72279W        W37440  14.299   5.764   2.021
72280W        W37441  40.786  22.949  11.971
72281W        W37442  39.100  18.625  14.755
72282W        W37443  16.732  29.198  14.658
72283W        W37444  41.130  42.776  11.031
72284W        W37445  43.870  17.040  10.524
72285W        W37446  36.380   2.439  11.968
72286W        W37447  26.476   3.301  11.697
72287W        W37448  23.231  42.989   2.369
72288W        W37449  16.741  41.515  10.162
72289W        W37450   1.382  26.283  13.010
72290W        W37451  22.464  31.308   4.243
72291W        W37452   3.458  34.931  14.327
72292W        W37453  28.326  44.969   1.982
72293W        W37454  41.580  44.762  11.657
72294W        W37455  43.714  28.007  12.124
72295W        W37456   5.942  26.504   2.712
72296W        W37457  17.968  40.579   1.917
72297W        W37458  29.272   8.189   5.165
72298W        W37459  40.819  25.380  13.344
72299W        W37460   0.465  21.071   0.390
72300W        W37461  35.879  15.225   4.383
72301W        W37462  31.128   6.173  11.612
72302W        W37463  22.820   6.921  13.842
72303W        W37464  42.998  27.913  14.863
72304W        W37465  36.965  42.425  11.493
72305W        W37466  15.886  41.020   2.017
72306W        W37467  38.581  21.229  11.050
72307W        W37468  41.916   4.454   1.326
72308W        W37469  15.282  29.471  13.041
72309W        W37470  38.550  27.294  13.543
72310W        W37471  43.943  19.628  14.148
72311W        W37472  33.478  29.598   2.226
72312W        W37473  23.393  37.662  10.285
72313W        W37474  42.568  43.870   3.695
72314W        W37475  22.532  27.926  10.805
72315W        W37476  11.350  25.034   0.648
72316W        W37477  27.507  25.135   1.778
72317W        W37478  29.928  29.470  13.048
72318W        W37479   9.430  28.519  14.933
72319W        W37480  11.567  33.017  12.890
72320W        W37481  29.416  20.309   0.301
72321W        W37482  23.154  16.783   3.252
72322W        W37483  16.087   8.945   0.494
72323W        W37484  27.544  11.071  12.975
72324W        W37485  11.672  11.016   2.221
72325W        W37486  42.538  28.527   4.193
72326W        W37487  44.402  29.339   9.900
72327W        W37488  31.915  30.223   3.025
72328W        W37489  42.964  19.073   0.061
72329W        W37490  25.045   6.481   3.684
72330W        W37491  19.542  42.259   3.995
72331W        W37492  29.215  29.164   3.814
72332W        W37493  22.216   5.990   4.567
72333W        W37494   6.843   8.262  14.338
72334W        W37495  42.841   6.545  13.878
72335W        W37496  25.076  18.665   2.296
72336W        W37497   4.548  38.365  11.023
72337W        W37498  18.537  28.684   4.570
72338W        W37499  18.827  22.593  10.767
72339W        W37500   3.529  35.506  10.728
72340W        W37501  31.001  35.391  13.448
72341W        W37502  17.186  37.121  14.567
72342W        W37503  32.067  30.278   2.531
72343W        W37504   7.914  27.536   0.735
72344W        W37505  34.500  17.035   1.745
72345W        W37506  39.608  12.603  14.864
72346W        W37507  36.068  13.358   2.799
72347W        W37508  26.511   1.752  10.278
72348W        W37509  17.690  16.099  13.362
72349W        W37510  16.245  35.004   3.312
72350W        W37511  15.869  16.857   0.254
72351W        W37512  13.608  40.465   1.483
72352W        W37513  27.317   8.283   3.702
72353W        W37514  19.960  44.459   0.279
72354W        W37515  23.207   3.678  11.533
72355W        W37516   5.927   9.380  13.468
72356W        W37517  26.036  11.873  10.332
72357W        W37518  25.870  14.216   0.471
72358W        W37519  22.293  41.967   0.760
72359W        W37520  38.043  32.594   0.768
72360W        W37521  12.280   1.012  13.989
72361W        W37522  13.298  38.296  14.788
72362W        W37523   8.271  32.432  10.286
72363W        W37524  42.997  39.403   0.072
72364W        W37525  33.972  35.629   1.230
72365W        W37526  20.629  37.955  14.444
72366W        W37527  35.298   9.774   3.400
72367W        W37528  23.896  28.207  13.395
72368W        W37529  12.334  17.627   3.743
72369W        W37530  12.144   9.896   1.234
72370W        W37531  11.205  27.575  13.933
72371W        W37532  24.976  31.050   2.371
72372W        W37533  38.092  42.570  13.324
72373W        W37534  13.333  22.809  12.056
72374W        W37535  29.691  38.180  10.080
72375W        W37536  24.488  12.710   0.752
72376W        W37537  29.655   8.414  12.138
72377W        W37538  22.197  30.125  12.141
72378W        W37539  38.134  11.685   3.390
72379W        W37540  22.012  36.389  10.728
72380W        W37541  16.601  17.451  14.557
72381W        W37542  25.556  14.738  14.390
72382W        W37543  14.262  30.441   2.345
72383W        W37544   3.995  20.280  11.720
72384W        W37545  39.353  10.260  11.956
72385W        W37546  29.611   2.930   4.899
72386W        W37547  27.073  31.574  12.881
72387W        W37548  24.731   2.355   2.794
72388W        W37549  32.460  16.711   0.030
72389W        W37550  21.486  17.330   0.720
72390W        W37551  38.702  35.059  12.338
72391W        W37552  10.339  31.303   4.638
72392W        W37553  22.600   6.479   4.552
72393W        W37554  43.494  23.750  11.540
72394W        W37555  26.138  39.216   1.399
72395W        W37556  28.976  26.649  11.914
72396W        W37557  22.964  38.830   3.651
72397W        W37558  19.604  32.038  11.298
72398W        W37559  37.917   5.492  10.602
72399W        W37560  10.079  26.032  14.347
72400W        W37561   6.638  35.382  12.599
72401W        W37562   0.401   9.774   0.329
72402W        W37563  42.028   6.850   3.783
72403W        W37564   3.446  36.661   0.259
72404W        W37565   9.361  28.909  13.950
72405W        W37566  30.909  32.191  11.831
72406W        W37567  20.277  43.893  12.495
72407W        W37568  11.764  11.180   0.950
72408W        W37569   8.962  12.892  13.523
72409W        W37570  19.675  35.258  12.752
72410W        W37571  11.637  39.550  13.357
72411W        W37572  22.299   4.933   0.663
72412W        W37573  27.127   2.948   3.727
72413W        W37574  40.889  32.747  14.570
72414W        W37575  43.908  36.513  12.120
72415W        W37576  34.990  24.191  12.085
72416W        W37577  24.941  29.656   4.688
72417W        W37578  14.616  26.087  12.944
72418W        W37579  11.941   8.118  13.367
72419W        W37580   1.837  44.204   1.234
72420W        W37581  13.486  37.204  11.695
72421W        W37582  33.917  44.772  10.975
72422W        W37583  31.378   6.204   4.462
72423W        W37584  35.856  24.241   5.043
72424W        W37585  38.498  35.098  14.045
72425W        W37586  40.604  40.396  14.796
72426W        W37587  39.649  33.913  14.271
72427W        W37588   0.247   8.232   0.413
72428W        W37589  40.495  14.329  12.437
72429W        W37590  25.489  24.611  12.452
72430W        W37591  24.674  27.160  13.979
72431W        W37592  31.606   0.223  14.507
72432W        W37593  22.827   1.916  12.623
72433W        W37594  24.713  22.294  11.684
72434W        W37595  21.179  29.071  10.957
72435W        W37596   9.303   3.939  12.647
72436W        W37597  14.500  32.499  12.248
72437W        W37598  25.785  40.487   5.073
72438W        W37599   1.893  33.485  14.576
72439W        W37600  29.391  38.378   0.716
72440W        W37601   9.811  17.633   0.445
72441W        W37602  16.269  33.054   0.738
72442W        W37603  13.972  30.376   3.663
72443W        W37604  37.433   1.528   0.572
72444W        W37605   0.679  34.478  10.961
72445W        W37606  17.549   6.929   0.495
72446W        W37607   6.268  31.430   1.528
72447W        W37608  30.706  29.684  14.236
72448W        W37609  10.117  13.155  11.535
72449W        W37610   1.375  15.445   4.614
72450W        W37611  25.310  30.394  13.307
72451W        W37612  40.897   0.452  10.738
72452W        W37613  17.109  31.883   0.393
72453W        W37614  39.009  20.814   3.635
72454W        W37615   0.541  37.121  13.202
72455W        W37616   4.695  23.275  12.998
72456W        W37617  22.446   3.321   0.207
72457W        W37618   0.454  34.393   1.836
72458W        W37619  12.777  21.539  11.077
72459W        W37620  39.420  34.439  13.928
72460W        W37621  19.232  19.055   2.142
72461W        W37622   9.296  12.264   0.078
72462W        W37623  25.881   1.727  13.155
72463W        W37624  43.547  13.571   3.207
72464W        W37625  36.707   2.220  13.456
72465W        W37626  15.621  42.073  12.840
72466W        W37627  27.134  24.733  11.984
72467W        W37628  24.677   4.624  10.031
72468W        W37629  35.582  30.237  12.438
72469W        W37630  27.138   5.880  14.825
72470W        W37631  42.182  11.307   2.877
72471W        W37632  16.026   6.471  12.858
72472W        W37633  41.452  25.072   3.207
72473W        W37634  18.606  25.611   1.392
72474W        W37635  29.921  44.867  13.548
72475W        W37636  42.779  12.784   1.265
72476W        W37637   8.832  30.535   4.624
72477W        W37638  20.503  11.935   0.818
72478W        W37639   8.076  25.707  12.486
72479W        W37640   9.881  39.523  12.992
72480W        W37641  29.003  34.394  13.809
72481W        W37642  27.914  22.498  14.902
72482W        W37643  15.438  16.510  11.448
72483W        W37644   9.003  11.718  11.276
72484W        W37645  44.915  21.692   0.500
72485W        W37646  22.821  25.101   0.425
72486W        W37647  18.715  37.803  10.904
72487W        W37648  28.056  19.462  11.544
72488W        W37649  17.197  24.306  10.205
72489W        W37650   4.475  25.006   4.482
72490W        W37651  27.217  43.226   1.730
72491W        W37652  16.159  16.681  10.254
72492W        W37653  39.448  33.186  10.888
72493W        W37654  37.036  36.987  10.952
72494W        W37655  37.752   8.557   2.757
72495W        W37656  11.449  20.301   0.399
72496W        W37657  36.695  44.400  14.158
72497W        W37658  43.579  43.858  11.565
72498W        W37659  25.285  44.619  12.493
72499W        W37660   8.637  35.815   2.791
72500W        W37661   8.072   5.374  11.203
72501W        W37662  38.978  42.752   4.135
72502W        W37663  31.513  36.418  10.760
72503W        W37664   6.416  28.517   3.797
72504W        W37665  14.872  34.678  13.913
72505W        W37666  28.647  29.527   0.242
72506W        W37667  31.735  21.304  13.495
72507W        W37668  37.989  29.598   1.162
72508W        W37669  33.633   5.558  13.918
72509W        W37670  18.079  31.741   4.849
72510W        W37671   8.917   5.944  11.760
72511W        W37672  19.956  31.551   1.913
72512W        W37673  30.439   8.120  11.723
72513W        W37674  25.122  10.025   5.467
72514W        W37675  38.143  22.708   1.847
72515W        W37676  32.405  29.197   4.119
72516W        W37677  39.754  37.870   2.801
72517W        W37678  39.386  39.893  14.645
72518W        W37679  32.830  40.828   3.048
72519W        W37680   8.752  25.688  13.531
72520W        W37681  14.208  43.678   3.584
72521W        W37682  13.582   6.894   2.540
72522W        W37683   5.107  33.145   1.715
72523W        W37684   2.405  44.645   5.098
72524W        W37685  21.665  13.819   2.443
72525W        W37686   3.208  39.352   1.767
72526W        W37687  43.375  32.231  13.285
72527W        W37688  37.853  34.499  10.265
72528W        W37689  22.308  21.799   0.665
72529W        W37690  42.524   4.828  12.396
72530W        W37691  22.557  34.609   3.294
72531W        W37692   2.192   6.725   3.081
72532W        W37693  42.049  11.951   0.889
72533W        W37694   3.622  37.505  10.551
72534W        W37695  22.141   2.735   3.399
72535W        W37696  19.315  16.327   3.136
72536W        W37697  13.177  33.160   3.202
72537W        W37698  37.037  19.453  14.589
72538W        W37699  37.457   4.831  11.563
72539W        W37700  17.788  37.028   3.707
72540W        W37701  42.898  30.066   3.048
72541W        W37702   9.755  29.868   1.403
72542W        W37703  32.155  36.923  14.337
72543W        W37704  13.048  17.870  13.375
72544W        W37705   5.754  37.542  12.195
72545W        W37706  21.509  31.926  13.158
72546W        W37707  20.012  25.470   3.610
72547W        W37708   9.873  39.460   0.269
72548W        W37709  18.955  26.873  14.238
72549W        W37710  26.066  35.852  12.843
72550W        W37711  17.372  44.328   1.805
72551W        W37712  24.464  29.674   3.514
72552W        W37713  19.157  21.399  11.184
72553W        W37714  28.840   5.256  13.846
72554W        W37715  31.016  29.953   3.407
72555W        W37716   6.969   4.392   0.468
72556W        W37717  12.608  40.767  13.904
72557W        W37718  42.571   4.188   4.581
72558W        W37719   9.142   7.323   2.869
72559W        W37720  44.569  26.484   1.165
72560W        W37721  24.759  42.328  12.561
72561W        W37722  28.175  31.944   0.247
72562W        W37723  34.105  44.781  14.929
72563W        W37724   3.339  43.235   3.175
72564W        W37725  15.078  43.498   1.088
72565W        W37726   5.343   4.355   4.160
72566W        W37727  29.707  10.380   3.243
72567W        W37728  24.282  32.393   1.827
72568W        W37729  30.176   5.165   4.002
72569W        W37730  30.947  13.631   0.790
72570W        W37731  19.597   6.679   1.455
72571W        W37732  33.602  34.041  11.876
72572W        W37733  18.153   8.453  13.886
72573W        W37734  40.461  21.281   2.569
72574W        W37735   9.386  44.873   2.164
72575W        W37736  32.914  26.238  11.464
72576W        W37737  37.675   4.643  11.098
72577W        W37738  43.785  39.117   2.110
72578W        W37739  10.262   9.441   0.821
72579W        W37740  41.789  27.479   3.742
72580W        W37741  24.928  34.849  13.043
72581W        W37742   8.930  17.026  10.973
72582W        W37743  14.821  15.238   0.466
72583W        W37744  44.977  16.869  12.644
72584W        W37745  20.161  28.876   4.177
72585W        W37746   0.053  25.257  11.094
72586W        W37747  36.773  34.618  13.951
72587W        W37748  26.255  37.642   2.041
72588W        W37749  31.719  36.840  12.487
72589W        W37750  26.208  44.169   2.001
72590W        W37751  43.281  13.628   1.876
72591W        W37752  17.550  12.170  13.316
72592W        W37753   4.268  10.104   4.869
72593W        W37754  31.534  12.672  14.028
72594W        W37755  16.157  38.634  13.471
72595W        W37756   6.759  37.810  13.393
72596W        W37757   6.354  20.752   1.675
72597W        W37758   5.014  39.290  14.452
72598W        W37759  22.556  12.578  13.489
72599W        W37760  27.016  23.005  12.963
72600W        W37761  29.534  20.003  13.860
72601W        W37762  38.623  23.860  12.952
72602W        W37763  36.631   4.164   0.309
72603W        W37764  30.972  21.550   4.964
72604W        W37765  38.929  41.513  13.462
72605W        W37766  25.166  37.323  13.284
72606W        W37767  27.938   7.417  13.044
72607W        W37768   5.759  44.496  12.949
72608W        W37769   6.587  39.371  11.397
72609W        W37770  22.218  26.150   1.781
72610W        W37771  26.799  37.668  10.754
72611W        W37772  20.000  35.811   3.732
72612W        W37773  37.605  24.101  13.036
72613W        W37774   8.946  13.310  12.805
72614W        W37775  43.248  33.923   0.433
72615W        W37776  23.239  30.919  14.872
72616W        W37777  26.057  13.182  14.845
72617W        W37778  11.377  35.407  12.739
72618W        W37779  30.095  25.151   4.666
72619W        W37780  23.693  25.244  12.149
72620W        W37781   2.615  44.268   4.314
72621W        W37782  34.218  10.892   4.559
72622W        W37783  13.305  15.197  13.854
72623W        W37784   5.367  31.138  10.104
72624W        W37785  34.977  27.073  11.835
72625W        W37786  10.674  14.184  12.564
72626W        W37787  18.211   6.028  10.762
72627W        W37788  30.860  44.016   2.576
72628W        W37789  31.848   7.290  12.229
72629W        W37790  38.903  29.166   2.166
72630W        W37791   1.751  26.099   0.890
72631W        W37792  30.094  44.282   2.169
72632W        W37793  24.972  38.027   2.258
72633W        W37794   6.652   1.359  12.001
72634W        W37795  37.332  39.264  13.905
72635W        W37796  42.527  44.904   4.557
72636W        W37797  30.194  43.843   1.259
72637W        W37798  35.625  30.044   4.202
72638W        W37799  43.780  25.156   2.408
72639W        W37800  35.072  42.217   0.960
72640W        W37801  44.527  17.270  14.870
72641W        W37802  16.636  14.213  12.859
72642W        W37803   5.750  38.072  14.346
72643W        W37804  35.826  24.213   2.156
72644W        W37805  40.490   3.313  11.970
72645W        W37806  44.802  18.504   3.815
72646W        W37807  32.418   0.418  11.203
72647W        W37808  23.594  39.370   1.834
72648W        W37809  42.767  10.012   2.609
72649W        W37810  27.727  12.745   4.249
72650W        W37811   9.207  40.582  12.379
72651W        W37812  23.515  34.357   0.651
72652W        W37813   6.887  34.552   1.765
72653W        W37814  37.286   0.771  11.059
72654W        W37815  17.825  11.177  11.146
72655W        W37816  14.025  10.020   2.199
72656W        W37817  41.262  44.949   2.712
72657W        W37818  43.661  20.193  12.092
72658W        W37819  24.973   7.369   2.000
72659W        W37820  21.413   6.852   1.426
72660W        W37821  24.261  12.054   1.172
72661W        W37822  11.207  10.576   3.431
72662W        W37823  24.212   4.707  10.290
72663W        W37824   0.260   0.852   3.744
72664W        W37825  40.308  19.943  14.310
72665W        W37826  33.365  32.857  13.038
72666W        W37827   9.234  25.505   1.224
72667W        W37828   9.849  39.319   1.252
72668W        W37829   3.429  39.667  14.173
72669W        W37830  12.460  35.524  14.238
72670W        W37831  16.582   7.893  12.672
72671W        W37832   7.948  29.604  10.007
72672W        W37833  32.942  27.838   2.649
72673W        W37834   1.731  26.999  12.573
72674W        W37835   0.877  29.061  12.429
72675W        W37836   7.862  25.621   1.015
72676W        W37837  37.533  35.473  12.397
72677W        W37838  39.827  41.401   3.158
72678W        W37839  11.395  40.562  11.941
72679W        W37840  12.314  17.476   4.851
72680W        W37841  11.121  19.008   1.703
72681W        W37842   2.743  28.035   1.660
72682W        W37843  34.662  15.076   2.295
72683W        W37844  11.181  37.411   2.332
72684W        W37845   1.798  43.014   1.877
72685W        W37846  36.471  35.559   3.888
72686W        W37847   7.948  40.007  13.567
72687W        W37848   8.919  33.442   3.168
72688W        W37849  29.468  36.763   0.928
72689W        W37850   1.561  29.805  14.957
72690W        W37851  30.136  43.998   3.370
72691W        W37852  30.414  33.403   2.362
72692W        W37853  43.907   3.584   4.028
72693W        W37854  17.135   9.731   1.490
72694W        W37855  38.270  25.782   4.624
72695W        W37856  40.408  11.488  13.979
72696W        W37857  14.364   2.505   4.474
72697W        W37858  15.555   4.440  10.267
72698W        W37859  14.364  32.232  12.692
72699W        W37860  16.777  13.326   2.302
72700W        W37861  38.815  13.508  10.766
72701W        W37862  33.029  44.249   4.147
72702W        W37863  37.114  39.259  14.398
72703W        W37864  26.089  23.731  12.118
72704W        W37865  34.344  34.342   1.122
72705W        W37866  13.108  27.700  14.487
72706W        W37867   2.721   5.806  13.286
72707W        W37868   3.472  42.930  13.565
72708W        W37869  19.727  29.974   4.563
72709W        W37870  44.755  30.137   3.177
72710W        W37871   4.317  42.285   4.047
72711W        W37872  37.272  11.889  12.402
72712W        W37873  33.528  17.774   3.133
72713W        W37874  16.035  19.027  13.878
72714W        W37875   9.904  22.724   3.387
72715W        W37876  44.011   0.345  11.666
72716W        W37877  23.083  43.377  14.365
72717W        W37878  18.027  26.887  13.861
72718W        W37879  14.556  16.146   0.451
72719W        W37880  24.515   3.834  14.579
72720W        W37881  16.393  30.389  14.370
72721W        W37882  31.579  16.129  14.413
72722W        W37883  39.089  14.169  12.958
72723W        W37884  27.625  36.338  14.769
72724W        W37885   5.684  35.998   1.281
72725W        W37886   5.846  43.566  11.495
72726W        W37887  41.518  11.633   1.283
72727W        W37888   7.427   2.585  14.267
72728W        W37889  34.169  28.426   1.752
72729W        W37890  40.084   4.223  13.306
72730W        W37891  19.993  34.142   2.239
72731W        W37892  32.350  31.970  10.713
72732W        W37893  12.739   8.047   4.212
72733W        W37894  20.115  25.219  13.172
72734W        W37895  14.984  41.183  10.291
72735W        W37896  13.865  26.075  14.949
72736W        W37897  35.944  30.183  13.970
72737W        W37898   4.807  33.593  11.013
72738W        W37899   5.416  20.686  14.823
72739W        W37900  21.568  18.557   1.734
72740W        W37901  11.870   7.927  12.559
72741W        W37902  24.032  24.626   2.426
72742W        W37903  32.410  25.453   3.626
72743W        W37904  24.037  31.197   2.448
72744W        W37905  31.935  22.048   4.829
72745W        W37906  35.910  38.024   4.098
72746W        W37907  26.930   3.463   4.584
72747W        W37908  23.422  29.182   1.490
72748W        W37909  10.901  41.399   3.006
72749W        W37910  27.892  29.552   1.326
72750W        W37911  23.049  16.258   4.087
72751W        W37912  43.076  33.445   1.762
72752W        W37913  43.305  13.084  11.190
72753W        W37914  36.491  43.994   3.254
72754W        W37915  33.064  40.349  12.322
72755W        W37916   6.313  18.263   4.219
72756W        W37917   1.356  40.818  11.450
72757W        W37918   4.924  19.723   3.729
72758W        W37919   0.980  22.029  10.075
72759W        W37920  34.128  29.433  13.060
72760W        W37921   4.753  18.330  13.447
72761W        W37922  41.592  43.966  14.532
72762W        W37923  11.852  12.748  14.066
72763W        W37924  30.423  15.444   2.875
72764W        W37925  40.384   0.980  13.819
72765W        W37926   1.174  25.193  12.208
72766W        W37927   0.036  38.408  13.247
72767W        W37928  42.018   4.838  12.503
72768W        W37929  10.859  34.462   0.150
72769W        W37930  34.026   8.779  12.723
72770W        W37931  12.273  24.172  13.415
72771W        W37932  38.510   7.511   2.629
72772W        W37933  19.871  38.902   4.287
72773W        W37934  25.693  36.778   0.549
72774W        W37935   6.916  23.481  11.507
72775W        W37936  15.341  18.996   3.818
72776W        W37937   5.217  20.950  11.417
72777W        W37938  40.060   1.708   2.475
72778W        W37939  22.133  12.808   0.047
72779W        W37940  25.933  38.544  12.021
72780W        W37941  30.009  30.488   3.138
72781W        W37942  36.638  36.657  11.204
72782W        W37943   6.803  33.856  12.547
72783W        W37944  19.822  16.719  13.308
72784W        W37945   7.934  34.412   4.731
72785W        W37946  33.889  34.399  12.332
72786W        W37947  15.806  18.382   1.750
72787W        W37948  22.088   5.198   0.249
72788W        W37949  23.135  36.012  11.172
72789W        W37950  25.913   7.006   0.475
72790W        W37951   9.609   2.887   1.723
72791W        W37952  33.490  43.841  11.036
72792W        W37953   7.867   1.579  11.256
72793W        W37954  41.388  19.378   2.426
72794W        W37955  30.090  34.502  11.507
72795W        W37956   6.842  14.405  13.506
72796W        W37957  36.517  36.155  13.365
72797W        W37958   6.983  12.158  12.452
72798W        W37959  17.344   4.337   2.697
72799W        W37960  21.362  38.657   5.076
72800W        W37961  18.222  16.636  12.315
72801W        W37962  39.552  12.902  11.070
72802W        W37963  41.447  44.301  12.042
72803W        W37964  17.126  39.631   0.827
72804W        W37965  20.610  26.717  12.990
72805W        W37966   3.623   6.698   1.265
72806W        W37967   4.145  40.300   3.127
72807W        W37968  16.695   8.868  14.854
72808W        W37969  35.275  26.678  13.495
72809W        W37970   4.162  15.305  12.931
72810W        W37971  23.233  27.731   2.152
72811W        W37972  12.102   8.435   4.066
72812W        W37973  16.333   7.732   0.011
72813W        W37974  15.736  12.849  10.769
72814W        W37975   5.059  28.526  12.985
72815W        W37976  18.173  27.017  13.376
72816W        W37977  12.685   0.925   2.818
72817W        W37978   4.473  17.713   4.616
72818W        W37979  26.593   2.069   5.097
72819W        W37980  20.012   4.821  11.928
72820W        W37981   2.868  24.139  10.053
72821W        W37982  27.033  41.883  13.809
72822W        W37983  18.795  38.834   2.030
72823W        W37984   9.984  23.407  11.971
72824W        W37985   0.817   7.618  10.758
72825W        W37986  30.535  14.615   3.292
72826W        W37987  18.856  23.688  10.842
72827W        W37988   2.968   0.205   2.155
72828W        W37989  31.600  17.208  11.647
72829W        W37990  44.485  20.509   0.983
72830W        W37991  13.176  11.216   4.904
72831W        W37992  32.271  21.335  13.497
72832W        W37993  34.568  20.340  12.061
72833W        W37994  44.762  23.659   0.534
72834W        W37995  26.724   6.348   3.404
72835W        W37996  26.472  41.368  11.156
72836W        W37997  20.577  23.457   4.645
72837W        W37998  19.584  41.271  12.672
72838W        W37999   8.850  38.334   0.784
72839W        W38000  36.482  44.251   2.825
72840W        W38001  21.005  44.829  10.949
72841W        W38002  25.627  24.111   3.197
72842W        W38003  20.383   4.998  14.873
72843W        W38004  40.222   4.461   0.420
72844W        W38005   5.453  20.782  13.262
72845W        W38006  23.938  21.012  11.191
72846W        W38007  11.713   0.973   4.661
72847W        W38008  19.920  31.632   3.744
72848W        W38009  26.753  20.235  11.178
72849W        W38010  29.295  21.663   2.290
72850W        W38011  21.626  31.930   4.365
72851W        W38012   0.819  34.388  14.203
72852W        W38013  24.767  39.561  14.693
72853W        W38014  41.121  42.374   0.200
72854W        W38015  12.819  35.855  10.416
72855W        W38016  42.196  41.815  11.635
72856W        W38017  14.198  23.561  11.029
72857W        W38018  22.091  26.316  10.281
72858W        W38019  43.967  14.366   3.723
72859W        W38020  36.708  27.613   4.790
72860W        W38021  40.042  14.528   0.164
72861W        W38022  42.814  19.213   3.264
72862W        W38023  38.262  19.589   3.665
72863W        W38024  11.353  33.165   4.659
72864W        W38025  30.090  29.701   0.733
72865W        W38026  44.449  18.831   2.721
72866W        W38027  44.939   6.193   3.580
72867W        W38028  32.102  18.382   4.565
72868W        W38029  20.634   9.761  13.561
72869W        W38030   6.961  22.063   4.125
72870W        W38031  33.778   1.110   2.592
72871W        W38032  41.187   4.271  12.574
72872W        W38033  29.940  35.059   3.584
72873W        W38034  37.962  20.235   3.239
72874W        W38035  17.830   9.359   0.737
72875W        W38036  33.925  15.979   2.561
72876W        W38037   4.414  25.119   3.535
72877W        W38038  38.840   4.505   2.034
72878W        W38039  38.979  12.268   1.533
72879W        W38040  26.618  21.309   2.663
72880W        W38041  32.374  29.466   3.313
72881W        W38042  28.094  25.158   3.878
72882W        W38043  29.680  26.501  12.552
72883W        W38044  12.754  28.258  11.600
72884W        W38045  39.293   9.103   2.933
72885W        W38046  12.866  42.799   4.343
72886W        W38047  35.066   3.500   3.514
72887W        W38048  34.190  14.766  13.185
72888W        W38049  17.622  33.027  11.535
72889W        W38050   4.693  21.127   4.625
72890W        W38051  28.482  31.328   4.273
72891W        W38052   1.450  24.676   3.013
72892W        W38053   6.238  11.213  11.102
72893W        W38054  29.159  37.543  11.896
72894W        W38055  44.272  44.594   2.412
72895W        W38056  12.755  42.466   5.024
72896W        W38057   6.283   3.769  11.579
72897W        W38058   4.654  23.579   4.575
72898W        W38059  10.777   8.949   4.712
72899W        W38060  43.823  20.397  13.409
72900W        W38061  13.258  23.320  12.039
72901W        W38062   2.463  30.288  13.315
72902W        W38063  27.210   2.668  12.529
72903W        W38064  15.019  29.440  11.290
72904W        W38065  33.397   0.941   0.821
72905W        W38066  21.001  19.624   3.284
72906W        W38067   0.012  44.081   4.052
72907W        W38068  27.087  34.568   1.313
72908W        W38069  14.090   0.904  13.936
72909W        W38070  12.353  12.149   2.835
72910W        W38071   7.853  38.809   2.277
72911W        W38072  33.488  38.924   2.350
72912W        W38073  37.313  13.916  11.672
72913W        W38074  37.576  39.275  11.918
72914W        W38075  28.686  13.431  12.622
72915W        W38076  35.496  29.359  11.921
72916W        W38077  38.008  23.342   3.128
72917W        W38078  27.374  33.579  12.512
72918W        W38079  17.420  31.150   1.994
72919W        W38080  23.481  17.976  14.551
72920W        W38081   2.908  37.627  13.068
72921W        W38082  22.175  27.168   3.530
72922W        W38083  41.328  26.678  11.579
72923W        W38084  30.161  24.125   1.897
72924W        W38085   4.258  27.648  12.261
72925W        W38086   8.811   7.825   4.121
72926W        W38087   8.097  29.350   3.594
72927W        W38088  43.273   2.960   0.133
72928W        W38089  32.039  16.965  10.014
72929W        W38090  35.537  14.048   4.088
72930W        W38091   7.297   3.432  11.049
72931W        W38092   7.740  18.581   3.258
72932W        W38093  28.395  43.882   2.700
72933W        W38094  28.573  30.060  14.005
72934W        W38095  12.390   4.168   0.035
72935W        W38096  35.657  15.327  12.031
72936W        W38097  30.486  38.051   1.230
72937W        W38098  27.441  14.899   0.845
72938W        W38099  12.840  25.685   3.294
72939W        W38100  26.493  25.703   2.483
72940W        W38101   7.065  27.972   4.661
72941W        W38102  12.228  37.357   2.110
72942W        W38103  34.055  31.388   0.931
72943W        W38104  33.536  44.029   4.176
72944W        W38105   8.654  18.115   2.722
72945W        W38106  44.517   2.392   5.129
72946W        W38107   4.938  29.304   1.618
72947W        W38108   1.316  19.393  12.067
72948W        W38109  24.259  32.454   3.709
72949W        W38110  33.115  24.152  12.427
72950W        W38111  19.536   1.970   3.756
72951W        W38112  33.360  24.908  14.784
72952W        W38113   7.356  15.426   2.471
72953W        W38114  14.833   1.690  12.923
72954W        W38115  13.819  29.464   3.726
72955W        W38116  32.360  42.024  12.567
72956W        W38117   7.641  11.873  13.835
72957W        W38118  31.676  42.692  14.955
72958W        W38119  31.927  33.094  12.981
72959W        W38120  44.539   9.115   0.924
72960W        W38121  17.632  14.345  10.574
72961W        W38122   1.761  38.089   2.888
72962W        W38123   7.379  44.843  14.829
72963W        W38124  38.757  19.716   3.622
72964W        W38125  24.292   2.492   1.227
72965W        W38126  24.003  14.235   0.310
72966W        W38127  28.211  11.378   2.608
72967W        W38128  15.999  41.503  13.880
72968W        W38129  41.050  39.079   2.478
72969W        W38130   8.162  30.318  13.722
72970W        W38131   3.251  40.122   1.262
72971W        W38132  31.878  17.171   3.147
72972W        W38133   4.222  16.331   2.791
72973W        W38134   7.369  31.783  11.287
72974W        W38135   7.313   2.815  12.045
72975W        W38136  42.977  20.496   2.123
72976W        W38137   8.938  13.663   0.797
72977W        W38138  24.550  41.114   1.360
72978W        W38139  13.212  25.386   2.592
72979W        W38140  12.562  14.902   0.887
72980W        W38141   6.774  27.721  12.493
72981W        W38142  41.731  28.479   3.741
72982W        W38143  17.803  30.502  11.958
72983W        W38144  30.453  42.762   0.533
72984W        W38145  22.486   3.662  12.597
72985W        W38146  38.304  22.212  10.839
72986W        W38147  13.601  33.956  12.201
72987W        W38148  36.861  32.362   3.732
72988W        W38149  15.214   3.752   3.806
72989W        W38150  40.846  44.965  10.572
72990W        W38151  30.980  25.661   1.658
72991W        W38152  35.125  29.280   0.933
72992W        W38153  34.602   4.826   4.437
72993W        W38154   0.561  41.322   2.759
72994W        W38155  15.125  28.258   9.866
72995W        W38156  34.207  30.759  14.436
72996W        W38157  19.152   0.510  14.819
72997W        W38158   7.192  12.890  12.999
72998W        W38159  23.375  39.515   5.142
72999W        W38160  39.337   9.310  13.374
73000W        W38161  24.838   6.615  13.632
73001W        W38162  12.881   1.327  10.674
73002W        W38163   3.329   8.632   3.087
73003W        W38164  31.054   4.440  12.970
73004W        W38165  27.006  32.469  10.791
73005W        W38166  25.709   4.289  12.536
73006W        W38167  25.528  43.012   2.815
73007W        W38168  17.375  23.021   2.191
73008W        W38169  18.666   8.138   2.256
73009W        W38170  17.869  18.255   1.626
73010W        W38171  11.136  16.749   1.217
73011W        W38172  41.804  41.729  14.760
73012W        W38173   7.646  13.743   2.182
73013W        W38174  12.445  27.626   2.259
73014W        W38175  11.874  23.345   0.578
73015W        W38176   7.958   1.260  12.124
73016W        W38177  14.063  17.038   0.484
73017W        W38178   8.543  43.399   4.233
73018W        W38179  31.389  34.510  10.906
73019W        W38180  42.274  39.501  11.022
73020W        W38181  20.158  23.776  12.002
73021W        W38182  38.054  39.666   2.632
73022W        W38183  33.889   0.360   3.851
73023W        W38184   2.356  16.339   0.169
73024W        W38185  43.383  34.606   0.750
73025W        W38186   0.144  43.578   4.040
73026W        W38187  11.586  35.353  10.917
73027W        W38188   0.840  21.449   3.084
73028W        W38189   4.794  17.591  13.074
73029W        W38190  32.923  19.244   3.008
73030W        W38191  38.444  34.069   2.690
73031W        W38192  41.515  39.613  10.241
73032W        W38193  39.282  27.238  12.135
73033W        W38194  27.410  36.580  13.389
73034W        W38195  20.053   8.872   3.416
73035W        W38196  17.636  34.907  12.483
73036W        W38197  30.882  21.690  11.137
73037W        W38198  43.343  27.413   0.402
73038W        W38199  40.425   4.143  14.522
73039W        W38200  14.649  17.681   3.113
73040W        W38201  31.678   9.427  13.408
73041W        W38202  44.623  12.347   2.786
73042W        W38203  31.968  30.977   4.056
73043W        W38204  22.916  37.833  10.966
73044W        W38205  31.934  11.107  13.438
73045W        W38206   9.343  40.848   0.851
73046W        W38207   3.605  42.805   4.602
73047W        W38208  28.907   6.826  10.806
73048W        W38209   4.015  30.279   2.304
73049W        W38210   7.138  17.794   0.830
73050W        W38211  15.103  28.406  13.067
73051W        W38212  44.993   9.349   0.972
73052W        W38213  31.423  21.728   0.118
73053W        W38214  19.585  26.453  13.020
73054W        W38215  27.042   9.340   4.273
73055W        W38216   5.258  30.469  11.571
73056W        W38217  24.811  17.392  11.650
73057W        W38218  23.149  39.608  13.267
73058W        W38219  35.947  26.416  10.663
73059W        W38220  32.005  18.131  12.630
73060W        W38221  17.657  43.820   0.712
73061W        W38222   5.509   0.414  11.937
73062W        W38223  11.931  36.960   2.223
73063W        W38224  24.088  22.585   0.392
73064W        W38225   5.170  26.669  14.973
73065W        W38226  34.820  37.796  13.794
73066W        W38227   3.236  26.106   1.267
73067W        W38228   5.962  34.101   1.918
73068W        W38229  29.698  20.760  10.689
73069W        W38230  11.243   1.428  12.474
73070W        W38231  32.065  27.172  12.672
73071W        W38232  22.556  12.519   2.014
73072W        W38233  31.383   9.476   0.473
73073W        W38234  21.938  27.199  12.817
73074W        W38235   6.418  44.356  14.437
73075W        W38236  31.909   2.801  13.643
73076W        W38237  42.304  23.480   3.593
73077W        W38238  30.067  20.143  12.446
73078W        W38239   6.777  36.425   3.817
73079W        W38240  28.136  40.841   0.307
73080W        W38241  41.559  20.963   3.301
73081W        W38242  30.144  39.023   2.954
73082W        W38243  29.002  35.615   4.561
73083W        W38244  38.039  13.061  10.794
73084W        W38245  12.731   3.941   2.606
73085W        W38246  13.737  27.673   3.139
73086W        W38247   7.700  18.577   4.158
73087W        W38248  41.014  31.558  11.148
73088W        W38249  29.538  36.374   4.191
73089W        W38250  40.083  37.126  13.638
73090W        W38251  27.124   7.954   3.245
73091W        W38252  35.044  27.141  12.758
73092W        W38253  17.582  39.057  11.682
73093W        W38254  35.801  33.623   1.013
73094W        W38255  40.998   6.439  13.708
73095W        W38256   9.165   1.276   1.888
73096W        W38257  40.605  28.418   2.688
73097W        W38258  38.071  35.059   3.516
73098W        W38259   4.183   7.719  12.404
73099W        W38260   0.361  22.734   4.268
73100W        W38261  13.355  40.995  11.741
73101W        W38262  41.134  27.374  14.840
73102W        W38263  21.955  39.692   9.568
73103W        W38264  17.475  15.677   0.802
73104W        W38265  22.249  15.815  14.250
73105W        W38266  10.262  17.538  11.162
73106W        W38267   7.865   6.261   4.315
73107W        W38268  26.727  35.372  11.172
73108W        W38269  33.066   7.011   0.761
73109W        W38270  38.016  31.660  10.527
73110W        W38271  12.629  44.992  10.668
73111W        W38272  17.269   0.543  11.230
73112W        W38273  41.019   2.910   1.307
73113W        W38274  32.271   3.778  14.498
73114W        W38275  40.799  14.529  13.655
73115W        W38276   7.762  15.256   1.698
73116W        W38277   7.313  14.894  11.541
73117W        W38278  25.102  21.644  13.854
73118W        W38279  42.553   7.486   2.705
73119W        W38280  26.635   5.767   3.276
73120W        W38281  41.314   1.363   1.916
73121W        W38282  43.498  36.110  14.879
73122W        W38283  10.586   3.002  12.004
73123W        W38284  10.314  28.885  12.910
73124W        W38285   9.667   8.418   0.731
73125W        W38286  23.097  36.886  11.702
73126W        W38287  14.304  20.508   3.306
73127W        W38288  23.581  10.577   3.316
73128W        W38289  17.587  21.764   0.793
73129W        W38290  34.500  27.105  11.396
73130W        W38291  20.722  16.202  13.852
73131W        W38292  14.469   7.168  14.552
73132W        W38293   2.536  13.546   0.132
73133W        W38294  14.009  37.136   3.990
73134W        W38295  18.531   1.763  13.927
73135W        W38296  28.150  15.026   4.175
73136W        W38297  10.225  28.777  11.092
73137W        W38298   5.275   0.251  13.273
73138W        W38299  14.855  43.247   4.183
73139W        W38300   8.328  33.340  14.415
73140W        W38301  29.811   4.207  12.517
73141W        W38302  12.583  14.199   0.059
73142W        W38303  25.166   4.342   3.148
73143W        W38304  32.991   4.500  14.236
73144W        W38305   8.850  34.888  13.875
73145W        W38306  21.030  31.843   0.501
73146W        W38307  18.331   8.370   0.293
73147W        W38308  10.356  14.155  13.998
73148W        W38309  31.585  32.311  14.732
73149W        W38310  23.015  25.951   1.509
73150W        W38311  23.513  20.196   3.778
73151W        W38312  21.284  19.514   3.736
73152W        W38313  26.134  43.925   0.744
73153W        W38314  31.679  42.520   1.280
73154W        W38315  10.398   7.366  12.680
73155W        W38316   8.120  17.387  11.100
73156W        W38317   6.924  28.607  13.288
73157W        W38318  32.272  36.967   3.387
73158W        W38319  15.085  20.154   3.116
73159W        W38320  13.893  17.135   1.442
73160W        W38321   6.761   0.225  10.428
73161W        W38322  21.646   5.128  13.405
73162W        W38323  27.714  30.368  13.584
73163W        W38324  10.605   8.212  12.879
73164W        W38325  39.992  14.175   0.603
73165W        W38326   6.380  34.921   3.277
73166W        W38327  35.530  28.735  11.310
73167W        W38328  36.461   9.837  10.815
73168W        W38329  21.196  41.997  13.864
73169W        W38330  41.858  27.170   1.284
73170W        W38331  44.888   9.870  13.648
73171W        W38332  41.892  18.624   2.901
73172W        W38333   6.431   3.306  13.883
73173W        W38334  23.737   8.616   2.705
73174W        W38335  30.116   0.508  10.977
73175W        W38336  11.800  27.905  11.857
73176W        W38337  12.755  37.248   1.741
73177W        W38338  42.947  43.540  12.716
73178W        W38339  16.339  19.654   1.831
73179W        W38340  44.027  30.497   2.755
73180W        W38341  23.155   0.655   4.679
73181W        W38342  23.185  33.004   0.718
73182W        W38343  30.939   5.262  10.428
73183W        W38344   0.410   2.274   4.956
73184W        W38345  16.104  31.340  11.609
73185W        W38346  18.764  20.459   2.293
73186W        W38347  20.945   2.456  11.586
73187W        W38348  33.102   4.752   4.674
73188W        W38349  25.490  29.979   0.272
73189W        W38350   1.747  26.762  11.022
73190W        W38351  14.139  34.031   2.274
73191W        W38352  37.762  12.021  12.358
73192W        W38353   4.495  36.991   4.120
73193W        W38354  25.242  23.152   4.104
73194W        W38355  37.947  26.608   0.548
73195W        W38356   4.321   5.074  14.793
73196W        W38357  22.678   2.862   2.313
73197W        W38358  40.058  27.443   0.829
73198W        W38359  13.926  29.454  13.941
73199W        W38360  40.034  38.934  11.127
73200W        W38361  13.098  32.585  12.928
73201W        W38362  24.222  19.120   4.048
73202W        W38363   2.105  25.260  13.131
73203W        W38364  36.266  40.080  12.208
73204W        W38365   0.891   7.714   2.196
73205W        W38366  19.954  24.074  14.849
73206W        W38367   3.751  38.706   1.285
73207W        W38368  13.927   1.166   1.138
73208W        W38369   2.821  33.073  14.372
73209W        W38370  19.012  40.802  12.065
73210W        W38371  11.097  42.523   1.350
73211W        W38372  23.182   1.699   2.663
73212W        W38373  22.139   1.844   3.401
73213W        W38374   9.727   4.237  10.644
73214W        W38375   9.195  14.091  14.977
73215W        W38376  34.852  36.886  14.920
73216W        W38377  42.791  35.885  13.882
73217W        W38378   1.806  10.818  12.002
73218W        W38379  18.664  38.341   1.918
73219W        W38380  16.540  10.813   4.192
73220W        W38381  25.314  43.038  13.378
73221W        W38382  38.827  20.740   0.919
73222W        W38383   4.115  35.853   3.717
73223W        W38384   7.586  39.085  10.297
73224W        W38385  36.861  36.159   0.152
73225W        W38386  27.201  38.131  13.913
73226W        W38387  21.739  28.647   4.920
73227W        W38388  17.309  25.780  10.795
73228W        W38389   9.782  39.044  14.418
73229W        W38390  19.253  23.588   4.618
73230W        W38391  40.078  16.750   4.167
73231W        W38392  43.133  35.513  13.911
73232W        W38393  13.186  38.088  10.606
73233W        W38394   7.254   7.908   3.150
73234W        W38395  36.644   6.474  12.027
73235W        W38396  33.701  34.871   0.516
73236W        W38397  34.081  16.088  13.117
73237W        W38398  42.892  35.164   4.977
73238W        W38399  29.288  33.456   1.273
73239W        W38400  16.569  20.694  13.798
73240W        W38401  16.283  28.682  14.824
73241W        W38402   7.251  31.700  10.426
73242W        W38403  25.125  10.776   3.151
73243W        W38404  16.248  28.646   4.072
73244W        W38405  43.569   9.344   4.434
73245W        W38406   9.909  31.570  14.434
73246W        W38407  39.593  19.606   2.444
73247W        W38408  18.671  31.632  12.949
73248W        W38409  34.574  10.275   2.591
73249W        W38410   8.549  37.411  10.061
73250W        W38411  14.168  29.748  12.619
73251W        W38412  23.464   5.239   4.432
73252W        W38413  29.647  19.011  13.400
73253W        W38414   5.140  20.095   2.759
73254W        W38415   4.878   9.696   0.760
73255W        W38416  31.040  37.327   2.249
73256W        W38417   4.528  21.244   4.139
73257W        W38418   3.498  21.123   2.233
73258W        W38419   5.899  37.892   1.792
73259W        W38420  39.975  13.153  11.180
73260W        W38421  14.612  15.166   4.673
73261W        W38422  39.411  12.877   0.386
73262W        W38423  11.314  30.974  10.708
73263W        W38424  38.500  29.221  14.036
73264W        W38425  24.794   5.770   0.466
73265W        W38426  13.637  33.165   1.403
73266W        W38427  23.336  12.237   2.159
73267W        W38428  20.087  10.419  14.326
73268W        W38429  25.288  10.147  14.507
73269W        W38430  19.706  13.326   1.701
73270W        W38431   8.831  18.478   2.389
73271W        W38432   0.486   9.718  11.524
73272W        W38433  41.396  34.403  13.062
73273W        W38434  26.138  39.952   1.853
73274W        W38435  26.879  14.005   0.494
73275W        W38436   4.252   2.259  10.738
73276W        W38437  17.722  42.732   2.282
73277W        W38438  37.180  32.839   3.054
73278W        W38439   4.626  31.565   3.220
73279W        W38440  13.398  28.943  11.931
73280W        W38441  37.861  34.079   1.384
73281W        W38442  36.227  39.590  12.760
73282W        W38443  12.420  13.779   4.419
73283W        W38444  14.306  27.527   2.366
73284W        W38445  28.580  19.970   1.855
73285W        W38446  28.555   5.458   2.251
73286W        W38447  21.189  35.027   4.375
73287W        W38448  11.651   1.464   0.004
73288W        W38449  41.163  30.555  10.859
73289W        W38450  15.687  36.402  10.681
73290W        W38451   1.846  30.400   4.486
73291W        W38452   5.956  18.102   5.165
73292W        W38453  25.224  43.915  13.912
73293W        W38454  35.790   9.809   3.171
73294W        W38455  25.244  35.362   0.370
73295W        W38456   8.419  21.598   2.639
73296W        W38457   1.286   0.915   3.054
73297W        W38458  10.285  20.963   0.255
73298W        W38459  27.126  20.799   4.608
73299W        W38460   9.851  38.600  12.905
73300W        W38461   2.746  42.051  11.998
73301W        W38462  20.368  44.366   3.728
73302W        W38463  11.639  20.122  12.525
73303W        W38464   2.205  40.998  13.847
73304W        W38465  30.966  19.937  12.645
73305W        W38466  14.832  38.088  13.983
73306W        W38467   4.738  19.748   2.862
73307W        W38468  16.371  34.798  13.014
73308W        W38469  15.722  19.976  14.981
73309W        W38470  33.700  38.992   1.887
73310W        W38471   7.118  10.505  14.845
73311W        W38472   1.266  10.709   1.385
73312W        W38473  36.466  24.543   1.339
73313W        W38474  43.865   0.490  12.561
73314W        W38475  33.292   8.660   0.917
73315W        W38476  31.216  31.580   4.560
73316W        W38477  42.274  40.606   1.857
73317W        W38478  30.029  13.309   3.901
73318W        W38479  39.398  15.689  13.770
73319W        W38480  15.802  30.281  13.384
73320W        W38481  31.978  31.485   3.341
73321W        W38482   5.125  23.009  13.006
73322W        W38483  28.578  31.358  12.090
73323W        W38484  13.293  41.373   0.703
73324W        W38485  28.579  28.856  10.743
73325W        W38486  15.504  37.082  11.331
73326W        W38487  20.292  32.865   4.061
73327W        W38488  10.408  35.432  11.989
73328W        W38489  32.079  18.527  11.079
73329W        W38490   0.470  17.579  10.727
73330W        W38491  17.730  41.040  12.122
73331W        W38492  36.480   0.074   3.160
73332W        W38493  29.755   6.766   3.220
73333W        W38494   2.849  32.951  12.542
73334W        W38495  33.570  31.247   4.139
73335W        W38496  18.242   4.136  13.266
73336W        W38497  42.503   4.415   0.838
73337W        W38498  23.211  15.846  13.393
73338W        W38499  34.017  11.619   2.424
73339W        W38500   6.911  19.754   2.750
73340W        W38501  39.735  18.710   0.733
73341W        W38502  14.156  29.610   0.962
73342W        W38503  10.700   7.208  14.194
73343W        W38504  18.198   4.445  14.222
73344W        W38505  27.227  44.417  12.139
73345W        W38506  10.199  20.727   1.716
73346W        W38507  14.115   4.877  11.133
73347W        W38508  13.295  11.309   1.868
73348W        W38509   9.336  42.794  14.995
73349W        W38510  34.533  33.090   2.308
73350W        W38511  38.822  12.296  13.076
73351W        W38512  11.236  41.353  13.587
73352W        W38513  11.672   8.960   3.742
73353W        W38514  39.216  34.188  13.402
73354W        W38515  33.791  14.837   2.178
73355W        W38516  36.140  20.403  13.474
73356W        W38517  44.286  16.717   3.081
73357W        W38518   7.956  25.504   3.465
73358W        W38519  35.609  39.156   0.488
73359W        W38520  17.399  41.496  12.857
73360W        W38521  44.409  20.727  10.681
73361W        W38522  14.787  44.418   3.600
73362W        W38523  23.976  36.885   1.263
73363W        W38524  22.096   0.552  12.562
73364W        W38525  16.723  42.088  11.537
73365W        W38526   8.291  35.090   1.263
73366W        W38527  23.082  29.966   3.166
73367W        W38528  11.595  22.624  12.163
73368W        W38529  40.881  39.469   9.444
73369W        W38530  42.667  43.305   2.536
73370W        W38531   7.428  40.567   1.809
73371W        W38532  15.695  12.690  14.864
73372W        W38533  44.974  29.141   4.052
73373W        W38534  14.570  11.646  12.454
73374W        W38535   4.882   3.745   2.098
73375W        W38536  41.093   7.892   1.928
73376W        W38537  34.682   6.307   2.536
73377W        W38538   5.219  42.187   0.727
73378W        W38539  34.974  32.155  11.596
73379W        W38540  24.421  10.351   0.789
73380W        W38541  32.781   3.249   4.314
73381W        W38542  28.897  42.601   2.647
73382W        W38543   2.734   0.861  10.644
73383W        W38544  22.339   4.790   4.967
73384W        W38545   4.637  41.338  11.920
73385W        W38546  11.049   0.277  13.162
73386W        W38547  21.612  44.757   4.209
73387W        W38548   1.428  18.084   1.191
73388W        W38549  11.655  12.416  10.583
73389W        W38550  27.157  19.199  12.422
73390W        W38551   6.637  12.899  13.437
73391W        W38552  27.076  22.135   2.612
73392W        W38553  35.517  20.520   3.297
73393W        W38554  11.615  31.240  11.671
73394W        W38555  24.689  43.908  10.723
73395W        W38556  14.599  27.666  12.960
73396W        W38557   5.930  19.591   2.444
73397W        W38558  18.837  21.329   2.765
73398W        W38559  25.733   1.513   1.381
73399W        W38560  17.995  35.429  11.648
73400W        W38561  24.153   0.242  14.961
73401W        W38562  27.469  42.470   2.566
73402W        W38563  33.030  26.726   5.105
73403W        W38564  15.697  28.469   0.805
73404W        W38565  16.656  30.028  13.354
73405W        W38566   8.750  31.648  13.163
73406W        W38567  38.717  16.322   0.932
73407W        W38568  11.067   3.406  11.167
73408W        W38569  44.782  28.402  14.706
73409W        W38570  22.092   6.437   1.121
73410W        W38571  21.231  30.099  12.496
73411W        W38572   1.909  23.785  13.881
73412W        W38573  37.629  16.266  12.410
73413W        W38574  42.196  10.208  11.732
73414W        W38575  39.389  32.151  10.446
73415W        W38576  26.024  21.300   1.628
73416W        W38577   1.367   0.387  14.833
73417W        W38578  11.287  27.653   0.750
73418W        W38579  41.760  23.202   0.264
73419W        W38580  28.483  38.371   0.961
73420W        W38581  31.556   0.827  11.770
73421W        W38582  23.313   0.149   3.299
73422W        W38583  17.407  20.508   3.275
73423W        W38584  28.631  37.642   1.683
73424W        W38585  21.818  21.721   0.854
73425W        W38586  15.620  11.719  11.579
73426W        W38587  22.185  42.454   0.550
73427W        W38588  14.363  29.753   0.507
73428W        W38589   7.705  42.340   3.169
73429W        W38590  32.324   3.990  12.898
73430W        W38591  33.745  40.839  12.842
73431W        W38592  20.339  31.500  14.906
73432W        W38593  38.106  38.101   1.168
73433W        W38594   2.940  20.782  12.500
73434W        W38595   5.868  23.120  12.325
73435W        W38596  26.725  23.231   4.109
73436W        W38597   8.843  25.132   3.636
73437W        W38598  13.372  35.695   3.070
73438W        W38599   0.826  18.763  12.011
73439W        W38600  33.634  13.626  10.947
73440W        W38601   4.976   7.694  13.184
73441W        W38602  26.484  33.814  14.195
73442W        W38603  40.049  23.086  13.802
73443W        W38604  19.295   6.435  10.698
73444W        W38605  31.972  44.893   3.679
73445W        W38606  19.181  12.920   0.319
73446W        W38607   7.175  32.851   0.396
73447W        W38608  23.944  36.023   1.968
73448W        W38609   7.933   4.266   2.453
73449W        W38610  15.763  43.414  13.535
73450W        W38611   4.458   7.666  11.956
73451W        W38612   9.596  26.071  11.565
73452W        W38613  30.869   0.758  12.881
73453W        W38614  43.759  21.597  12.893
73454W        W38615   5.118  39.414  13.060
73455W        W38616   6.828  29.400   4.582
73456W        W38617  35.626   1.251   4.927
73457W        W38618  32.958   0.802   5.345
73458W        W38619   6.500  43.328   1.735
73459W        W38620   6.234   3.725   0.753
73460W        W38621  29.484  15.580   4.148
73461W        W38622  25.800  44.247   0.515
73462W        W38623  26.006  32.226  11.678
73463W        W38624  36.340  44.326  12.640
73464W        W38625  10.135  18.659  11.190
73465W        W38626  29.527  43.432   2.265
73466W        W38627  41.560  43.342   0.353
73467W        W38628   8.973  30.226  11.210
73468W        W38629  37.326  23.047   3.225
73469W        W38630  42.790  14.674   4.559
73470W        W38631  22.862  38.793   5.481
73471W        W38632  41.847  12.245  13.531
73472W        W38633  34.891  12.673   4.733
73473W        W38634  16.139  34.315  11.418
73474W        W38635  39.904  13.847   4.461
73475W        W38636   3.662  26.581  13.449
73476W        W38637   6.459  26.455  13.947
73477W        W38638  43.614  24.929  11.207
73478W        W38639   5.815  27.669   2.694
73479W        W38640  39.829  23.749  13.490
73480W        W38641  23.007  41.231   0.798
73481W        W38642   2.799   2.219  11.585
73482W        W38643  15.628   1.829  12.591
73483W        W38644  43.758  28.646  10.446
73484W        W38645  32.574  18.636   2.010
73485W        W38646  35.047  21.611  12.378
73486W        W38647  18.246  25.198   1.046
73487W        W38648  26.823  28.949   2.878
73488W        W38649  29.794  17.627   2.174
73489W        W38650  43.890  17.396   2.661
73490W        W38651  20.031  12.851   5.142
73491W        W38652  22.633  21.108  11.494
73492W        W38653   1.826  36.581  12.489
73493W        W38654  26.487   8.878   0.438
73494W        W38655  38.129  30.462  14.315
73495W        W38656   3.143  25.085   0.474
73496W        W38657  42.213  42.778   0.909
73497W        W38658  33.172   2.212   1.832
73498W        W38659  14.461   6.213  11.600
73499W        W38660  23.143  29.374   1.057
73500W        W38661  40.029  41.212  14.416
73501W        W38662  11.195  14.271  12.304
73502W        W38663  19.537  13.701  13.387
73503W        W38664  23.701   6.193   2.350
73504W        W38665  42.596   9.260   4.126
73505W        W38666   1.518  14.161   4.538
73506W        W38667  14.952  15.357  12.014
73507W        W38668  14.852  31.450  12.140
73508W        W38669   3.478   6.354   4.081
73509W        W38670   3.158  10.709  11.590
73510W        W38671  14.302  14.367   0.277
73511W        W38672   0.025  37.492  13.763
73512W        W38673  22.465  36.020  14.606
73513W        W38674  39.062   9.074   0.387
73514W        W38675  19.514  16.189   0.248
73515W        W38676  33.779  21.103   4.609
73516W        W38677  18.986   0.310   3.694
73517W        W38678  16.096  21.779   0.836
73518W        W38679  14.805  20.262  14.108
73519W        W38680  24.954  25.621   2.443
73520W        W38681  20.766  28.616   2.394
73521W        W38682  41.040  32.544  10.389
73522W        W38683   4.744  34.367  13.919
73523W        W38684  37.345  17.241  10.805
73524W        W38685  32.671  10.849  12.122
73525W        W38686  25.635  33.200  11.253
73526W        W38687  17.620  37.631   3.109
73527W        W38688  43.356  22.089  11.851
73528W        W38689  24.157  21.528  12.610
73529W        W38690  41.475  23.059  12.519
73530W        W38691   8.609  14.585  13.885
73531W        W38692  22.525  19.036   2.783
73532W        W38693   6.101  22.962  11.269
73533W        W38694  32.935  25.946  13.029
73534W        W38695  22.981  12.605   2.290
73535W        W38696  11.618   8.603   3.372
73536W        W38697  32.021   4.645  13.325
73537W        W38698  33.509  24.434   1.987
73538W        W38699   7.902   7.611   1.424
73539W        W38700  34.170  37.812   9.941
73540W        W38701  35.294  37.645   1.521
73541W        W38702  28.944  17.919   0.715
73542W        W38703   8.160  26.972  14.089
73543W        W38704  14.544  14.743  11.530
73544W        W38705   6.450  13.940  14.947
73545W        W38706  40.823   7.846   0.442
73546W        W38707   9.789  40.576   0.890
73547W        W38708  41.532   4.416  12.940
73548W        W38709   8.695   8.372  13.898
73549W        W38710  19.618  13.306   3.705
73550W        W38711  41.643  42.328   4.836
73551W        W38712   7.364  33.822  14.425
73552W        W38713  33.979  29.899   0.669
73553W        W38714  28.122   9.571   4.252
73554W        W38715   9.820  41.452   1.227
73555W        W38716   6.151  34.985  14.225
73556W        W38717  28.014   8.074  10.815
73557W        W38718   4.973  34.104   0.756
73558W        W38719  18.687  12.526  12.066
73559W        W38720  34.084   7.236   3.740
73560W        W38721  41.520  29.295  11.105
73561W        W38722  17.318  32.137  13.898
73562W        W38723   5.255   2.848  12.624
73563W        W38724   0.431   8.476   0.862
73564W        W38725  26.865   8.362   3.414
73565W        W38726   6.280  15.863   2.877
73566W        W38727  11.156  36.452   1.767
73567W        W38728   1.511  17.681  10.653
73568W        W38729   1.648  22.294   3.307
73569W        W38730  26.640  42.498   4.435
73570W        W38731  26.261  19.490   5.057
73571W        W38732  40.104   0.756  13.389
73572W        W38733   2.361  32.984   2.887
73573W        W38734  11.200  16.659  10.676
73574W        W38735   8.170   2.470   2.776
73575W        W38736  14.931  33.547   2.389
73576W        W38737  42.527  32.874  13.799
73577W        W38738  19.047  25.601   0.313
73578W        W38739  12.195  28.280   0.845
73579W        W38740  24.119  22.120   0.151
73580W        W38741  24.353   6.647  11.543
73581W        W38742  19.138  17.712  14.836
73582W        W38743  25.478   7.856   1.276
73583W        W38744  12.088  30.618   3.829
73584W        W38745  36.050  31.808  11.991
73585W        W38746  14.801  15.614  14.251
73586W        W38747  16.297  21.287  12.455
73587W        W38748  28.763  13.221   3.232
73588W        W38749   0.514   1.871  14.898
73589W        W38750  35.337   7.301  11.019
73590W        W38751   2.406   6.854   3.981
73591W        W38752  19.170  14.506  11.438
73592W        W38753   9.309  21.495  11.671
73593W        W38754  42.015   6.379  10.610
73594W        W38755  44.478  25.195   0.780
73595W        W38756  22.710  29.314  12.298
73596W        W38757  13.569   0.167  13.985
73597W        W38758   2.748  24.214   5.061
73598W        W38759   7.990  30.466   4.183
73599W        W38760   7.882  32.877  11.541
73600W        W38761  41.878  40.945  11.550
73601W        W38762   5.680  42.420  10.713
73602W        W38763  25.769  26.025   2.668
73603W        W38764  23.464   2.358   0.500
73604W        W38765   1.427   1.212  10.650
73605W        W38766  39.970  16.277  14.413
73606W        W38767  41.907  37.476   3.343
73607W        W38768  24.498  36.017   4.593
73608W        W38769  22.117  28.034  13.865
73609W        W38770   5.112  30.969   4.225
73610W        W38771  43.419  21.653  12.160
73611W        W38772  14.805  11.225  12.180
73612W        W38773   0.232  25.158  12.452
73613W        W38774  20.169  28.997   3.217
73614W        W38775  35.630  23.263  11.948
73615W        W38776  29.200  22.615  13.805
73616W        W38777  10.276  29.024   3.546
73617W        W38778  13.795  30.490   2.604
73618W        W38779  43.633  31.088  10.775
73619W        W38780  13.861   0.913  12.973
73620W        W38781  29.488  36.221  12.023
73621W        W38782  31.582   6.760  11.593
73622W        W38783  21.053  26.350   2.382
73623W        W38784  15.044  24.685  11.193
73624W        W38785   8.222  27.534   3.304
73625W        W38786   6.933  20.084   4.093
73626W        W38787  33.533  18.247  14.231
73627W        W38788  27.901  27.282  11.175
73628W        W38789  29.261  16.253   0.455
73629W        W38790   0.370  10.397   3.715
73630W        W38791  26.282  19.837  10.156
73631W        W38792  23.727  26.626  11.576
73632W        W38793  10.259  42.759   3.016
73633W        W38794  33.951  35.504  11.845
73634W        W38795  38.647  33.939   3.674
73635W        W38796  12.710  23.127   4.908
73636W        W38797   3.211  27.561   0.034
73637W        W38798  36.553  37.398   1.978
73638W        W38799  32.675   8.797   3.196
73639W        W38800  39.497  44.485  12.281
73640W        W38801  27.567  38.285   0.972
73641W        W38802  27.054  33.049  13.833
73642W        W38803  14.865  19.587  12.931
73643W        W38804   6.728  24.587   1.329
73644W        W38805   2.225   5.659   0.459
73645W        W38806  22.664  17.591   3.141
73646W        W38807  11.214  43.735   4.181
73647W        W38808  29.443  38.897  11.024
73648W        W38809  36.426  23.144   2.807
73649W        W38810  21.512  43.185   2.142
73650W        W38811  32.018   2.057   1.356
73651W        W38812  43.020  16.098   0.382
73652W        W38813   1.872  31.304  13.825
73653W        W38814  30.475   5.675  12.090
73654W        W38815   6.770  29.638   0.663
73655W        W38816  30.940  23.693   2.626
73656W        W38817  40.493  28.758  13.402
73657W        W38818   8.210  31.736   4.516
73658W        W38819  27.684   4.490  10.749
73659W        W38820  17.036  35.550   1.799
73660W        W38821  24.769  38.120   0.798
73661W        W38822  37.099  30.594  13.413
73662W        W38823  22.338  42.892   0.314
73663W        W38824  44.920  33.092   0.715
73664W        W38825  12.181  28.129   3.597
73665W        W38826  30.574  23.113  13.473
73666W        W38827   8.013  33.899  11.251
73667W        W38828  12.149   0.470  12.634
73668W        W38829  36.919  16.648   4.819
73669W        W38830  34.902   3.190   3.066
73670W        W38831  43.415  14.100   1.519
73671W        W38832   1.878  15.576   3.684
73672W        W38833  25.728   2.235  13.142
73673W        W38834   1.946  18.285   4.059
73674W        W38835  18.322  22.548  14.402
73675W        W38836  19.074  42.539  13.855
73676W        W38837   6.100   2.487   4.531
73677W        W38838  29.925  29.401   0.237
73678W        W38839  44.225  39.006  14.861
73679W        W38840  29.983  24.688  11.250
73680W        W38841  21.164   5.320   4.171
73681W        W38842   8.062  38.583   4.032
73682W        W38843  29.670   7.252  13.001
73683W        W38844  27.454  35.158   0.540
73684W        W38845  12.082  10.187  13.336
73685W        W38846   3.005   9.289  12.509
73686W        W38847  27.503  42.261   5.026
73687W        W38848   8.130   9.687  13.349
73688W        W38849  29.599   1.029   3.152
73689W        W38850  18.230   0.354  12.848
73690W        W38851  40.728  15.135  10.735
73691W        W38852   8.263   7.822   2.465
73692W        W38853  35.493   3.367  13.387
73693W        W38854  28.358   8.299   3.662
73694W        W38855  38.387  19.073   0.037
73695W        W38856  37.907  38.681  12.532
73696W        W38857   5.533  32.478  11.643
73697W        W38858  16.797  27.085  10.816
73698W        W38859   0.517  19.041   1.859
73699W        W38860  35.100  11.253  11.177
73700W        W38861  21.750  11.685   3.832
73701W        W38862  20.338  16.103  14.269
73702W        W38863  40.558  28.915   0.925
73703W        W38864  15.759  38.420   4.539
73704W        W38865  19.190   0.521   1.410
73705W        W38866  17.756  44.973  14.710
73706W        W38867  37.621  26.207   0.379
73707W        W38868  42.423  33.562   1.292
73708W        W38869  17.641  35.358   1.852
73709W        W38870  22.314  44.834   2.334
73710W        W38871  25.531  16.351  11.056
73711W        W38872  34.142  24.936   4.883
73712W        W38873  10.447   9.253   1.297
73713W        W38874  37.982  14.415   5.272
73714W        W38875  26.195  26.072   1.316
73715W        W38876  23.522  42.099  14.968
73716W        W38877  41.025  32.003  11.557
73717W        W38878  33.461  34.740  13.778
73718W        W38879  29.983  41.541   9.803
73719W        W38880  30.501  19.134  10.910
73720W        W38881  41.921  20.172   1.367
73721W        W38882  35.044  38.751  12.084
73722W        W38883  11.080  30.422  13.054
73723W        W38884   6.951  30.013   3.390
73724W        W38885   6.175  26.722  14.817
73725W        W38886  11.470   4.354  14.817
73726W        W38887  24.564  40.554  11.143
73727W        W38888  35.838  35.589   0.481
73728W        W38889   7.935   8.109   1.464
73729W        W38890  44.376  33.543  11.601
73730W        W38891  16.073  17.188  10.959
73731W        W38892  37.393  27.842  14.555
73732W        W38893  17.737  31.623   1.524
73733W        W38894  32.590  24.982  13.496
73734W        W38895  43.379  10.910   2.307
73735W        W38896  16.072  36.812  14.822
73736W        W38897  21.779  15.198   2.226
73737W        W38898  35.137  15.782   4.117
73738W        W38899  33.850   1.867   3.961
73739W        W38900  11.297  42.316   0.912
73740W        W38901  33.114  16.525   1.704
73741W        W38902  23.156  44.916  13.898
73742W        W38903   8.181  17.310   3.714
73743W        W38904  35.546   6.685  12.651
73744W        W38905  41.784  24.603   1.501
73745W        W38906  40.392  12.246   4.101
73746W        W38907   1.783  43.324  14.911
73747W        W38908  27.005   8.740  13.407
73748W        W38909   7.242  31.204  12.626
73749W        W38910  38.593  14.196   4.456
73750W        W38911  37.165  17.236  13.887
73751W        W38912  25.808  40.142  12.916
73752W        W38913  17.537  32.938  11.028
73753W        W38914  19.335  23.689   3.668
73754W        W38915   8.275  39.257  13.862
73755W        W38916  25.677   8.889   3.873
73756W        W38917  22.139  17.445   0.166
73757W        W38918  25.673   6.140   0.463
73758W        W38919  44.520  43.786  11.351
73759W        W38920  32.373  33.876  11.529
73760W        W38921   3.028  13.349  13.114
73761W        W38922  37.350  30.630  12.039
73762W        W38923  29.900   7.656  11.169
73763W        W38924  34.721   6.581  13.972
73764W        W38925  23.181  41.102   4.191
73765W        W38926  31.734   7.308  13.947
73766W        W38927  26.261   2.241   4.160
73767W        W38928  26.788  23.343   5.395
73768W        W38929  40.526  38.303  12.958
73769W        W38930  10.382   9.177  10.733
73770W        W38931  23.189  40.914  12.927
73771W        W38932  41.829   4.423   1.839
73772W        W38933   6.070  27.914   1.751
73773W        W38934  19.958  37.314   2.722
73774W        W38935  39.995  37.121   4.270
73775W        W38936  14.346  43.433   2.805
73776W        W38937   8.843  22.824  12.513
73777W        W38938   1.542  34.472   1.917
73778W        W38939  17.563  38.354  14.018
73779W        W38940   8.816  12.469  12.565
73780W        W38941   0.912  23.343  11.163
73781W        W38942  35.579   7.144  14.882
73782W        W38943  41.895  23.627   0.516
73783W        W38944  31.505   9.310  14.056
73784W        W38945  28.434  16.000   0.853
73785W        W38946  32.505   4.051  10.688
73786W        W38947  25.048  26.589   0.025
73787W        W38948   4.438  38.715  12.156
73788W        W38949  27.475   9.875   1.455
73789W        W38950  18.202  11.673   4.861
73790W        W38951  39.481  10.374   2.249
73791W        W38952  19.803   9.168  12.642
73792W        W38953  34.955  36.418   4.884
73793W        W38954   7.854   5.845   1.636
73794W        W38955  30.509  38.437   9.789
73795W        W38956  36.102  13.270   0.418
73796W        W38957  24.578  34.893  14.856
73797W        W38958   7.163  11.177   1.909
73798W        W38959  39.503   8.557  10.608
73799W        W38960   5.137  35.614   3.504
73800W        W38961  35.801  34.376   2.409
73801W        W38962   6.874  44.720   2.362
73802W        W38963   0.453  31.484  11.563
73803W        W38964  28.043  37.638  11.498
73804W        W38965   2.752  18.619  14.958
73805W        W38966  21.323  24.465   1.298
73806W        W38967  24.161  19.863   1.801
73807W        W38968  34.401  35.292   3.258
73808W        W38969  33.129   8.225   2.037
73809W        W38970   2.986  38.147  13.056
73810W        W38971  24.738  37.677  11.574
73811W        W38972  36.604   1.403  10.845
73812W        W38973  31.169  18.045  13.007
73813W        W38974  16.024  22.702  12.559
73814W        W38975  38.787  15.080   2.240
73815W        W38976  41.231   2.899   2.310
73816W        W38977  22.508  20.248   1.550
73817W        W38978  16.635  24.472   4.486
73818W        W38979   9.127   9.426  11.184
73819W        W38980  16.156  25.113  13.353
73820W        W38981  19.852  29.744  11.800
73821W        W38982  28.654   6.803  13.719
73822W        W38983   6.200  43.389   0.396
73823W        W38984   8.253  10.264  11.583
73824W        W38985  19.278  35.151  13.837
73825W        W38986  43.041  13.603   0.870
73826W        W38987  41.401   9.226  13.158
73827W        W38988  39.844   8.837  14.700
73828W        W38989  11.336  36.604   1.313
73829W        W38990  32.419  13.283   2.808
73830W        W38991  24.173  25.686   0.338
73831W        W38992  29.509  42.839  12.369
73832W        W38993  31.633  15.598   4.860
73833W        W38994  27.620  28.981   0.815
73834W        W38995  17.581   9.967   1.569
73835W        W38996  22.118  38.300  13.980
73836W        W38997   5.671  41.387  14.464
73837W        W38998  28.227  12.716   3.605
73838W        W38999  17.311  17.825   1.220
73839W        W39000  17.323  32.899   3.657
73840W        W39001  40.873  42.874   3.867
73841W        W39002   5.936  41.933   1.734
73842W        W39003  26.109  15.806   3.625
73843W        W39004  40.602  17.152  12.514
73844W        W39005   9.967  27.782  11.965
73845W        W39006  24.075   0.527   2.501
73846W        W39007   3.296  28.145   2.861
73847W        W39008  18.617  22.542   3.314
73848W        W39009  17.167   9.777   2.410
73849W        W39010  19.462  23.255  11.477
73850W        W39011   2.323  24.392  12.663
73851W        W39012  26.124  39.062   0.891
73852W        W39013  24.379  33.483  11.960
73853W        W39014  10.848  15.759   0.782
73854W        W39015  38.073   5.684   2.905
73855W        W39016  21.533  33.282  13.516
73856W        W39017  21.318  16.708   1.268
73857W        W39018  18.160   8.084   1.458
73858W        W39019  25.492   9.450   2.254
73859W        W39020  32.443   0.533   3.335
73860W        W39021  44.119  35.651  12.832
73861W        W39022  31.083   9.672   3.346
73862W        W39023  21.719  38.910  10.698
73863W        W39024   2.471  30.869  11.183
73864W        W39025  39.863  25.946  11.030
73865W        W39026  40.290  10.603   0.832
73866W        W39027  38.881  14.632   4.388
73867W        W39028  32.930  14.158  14.280
73868W        W39029  31.594  34.003  10.894
73869W        W39030  22.283   1.414  10.567
73870W        W39031   7.625  30.104   4.744
73871W        W39032  39.404  26.854  13.389
73872W        W39033   6.687   7.711   2.771
73873W        W39034  38.863   2.387   2.181
73874W        W39035  16.119  17.322   0.403
73875W        W39036  43.870  43.067  10.197
73876W        W39037  23.454  24.143  13.410
73877W        W39038  43.003   4.755   4.100
73878W        W39039  19.746   2.193   2.186
73879W        W39040  40.331   2.743   3.325
73880W        W39041   3.691  21.759  13.483
73881W        W39042   4.080  19.488   3.956
73882W        W39043  18.104  32.900  11.776
73883W        W39044  15.601  13.600   0.787
73884W        W39045  32.076  13.834  11.628
73885W        W39046  38.799  16.771   4.062
73886W        W39047  28.648  15.529   0.871
73887W        W39048  42.130  37.295   1.264
73888W        W39049  17.024  17.750   4.269
73889W        W39050  43.509   4.288  14.770
73890W        W39051   0.757   6.337   2.300
73891W        W39052  37.648  30.266  11.129
73892W        W39053  26.490  19.723  13.328
73893W        W39054  42.823  22.638   4.742
73894W        W39055   3.375  31.376  11.979
73895W        W39056   5.659  22.592  14.558
73896W        W39057  23.043   9.336   3.704
73897W        W39058  25.683  17.930   2.412
73898W        W39059  15.979  30.674   4.771
73899W        W39060   9.164  39.991  10.636
73900W        W39061  38.654  18.055  13.816
73901W        W39062  34.962  43.999   1.968
73902W        W39063  25.987  36.424   4.189
73903W        W39064  16.573   0.095  12.040
73904W        W39065  21.570  32.847   3.179
73905W        W39066  42.517   0.263   4.089
73906W        W39067  13.234  11.201   4.286
73907W        W39068   2.339  30.520   4.648
73908W        W39069  23.939  32.668   4.054
73909W        W39070  16.078  14.776  12.689
73910W        W39071  15.769   2.274  12.971
73911W        W39072  24.065  43.204  11.162
73912W        W39073  28.086  34.044   3.265
73913W        W39074  34.102  37.332   4.091
73914W        W39075  17.970  20.185  11.723
73915W        W39076  40.331   7.182   3.873
73916W        W39077  36.881  42.817  10.706
73917W        W39078   0.161  19.993  13.505
73918W        W39079  43.371  14.273   0.084
73919W        W39080   7.235   5.461   0.254
73920W        W39081  29.680   7.170   3.553
73921W        W39082  42.765  39.668   1.015
73922W        W39083  22.605   9.934  14.876
73923W        W39084  35.847   9.100  14.472
73924W        W39085  10.756   0.127  14.983
73925W        W39086   2.564   5.568   0.051
73926W        W39087   2.513  21.090   3.906
73927W        W39088   1.294  15.081  12.798
73928W        W39089  21.765   5.960   4.048
73929W        W39090  17.042  12.024  12.421
73930W        W39091  43.411  36.499  13.575
73931W        W39092   5.346  41.755  12.314
73932W        W39093  30.240  35.461   0.972
73933W        W39094  42.992  23.586   1.294
73934W        W39095  23.019  24.659   0.228
73935W        W39096  14.653  10.805   1.937
73936W        W39097   9.236   4.893  10.215
73937W        W39098   2.918  39.320  10.978
73938W        W39099  19.195   2.923   2.828
73939W        W39100  12.026  17.437  11.624
73940W        W39101  22.568  29.396   4.634
73941W        W39102   6.330  36.919   1.767
73942W        W39103  12.261  11.181   3.925
73943W        W39104   5.722   3.790  12.885
73944W        W39105  17.726  38.013   2.139
73945W        W39106   8.741  10.417  11.494
73946W        W39107   1.898   8.948  12.997
73947W        W39108   3.909  36.456  11.468
73948W        W39109  30.738   8.795   3.622
73949W        W39110   5.350   1.107  12.400
73950W        W39111  23.151   0.249  12.996
73951W        W39112  35.439  32.045   1.637
73952W        W39113   4.881   3.734  11.841
73953W        W39114   9.216  30.626   3.608
73954W        W39115   9.317  16.527  12.881
73955W        W39116  33.023   0.925   1.356
73956W        W39117   0.552  15.301  14.310
73957W        W39118  16.791  27.151   3.207
73958W        W39119  36.980  41.235  13.555
73959W        W39120  37.698   6.150  14.078
73960W        W39121  35.291  39.584  13.786
73961W        W39122  34.603  31.523   0.793
73962W        W39123  19.653  17.060   1.234
73963W        W39124   2.957  24.738  12.062
73964W        W39125  11.855  22.029  12.782
73965W        W39126  11.124   1.274   4.041
73966W        W39127  32.550  19.255   1.435
73967W        W39128  13.614  13.259  14.435
73968W        W39129   8.920  17.782   1.598
73969W        W39130  34.055  32.964   4.930
73970W        W39131  34.811  34.699   2.305
73971W        W39132  15.012  28.026  12.047
73972W        W39133  11.166  12.205  10.690
73973W        W39134  38.327  12.770   4.449
73974W        W39135  21.774  19.874  10.580
73975W        W39136  19.208  43.397   4.881
73976W        W39137  41.555  24.574   3.279
73977W        W39138  39.428  18.308  13.385
73978W        W39139  22.202  15.567  12.415
73979W        W39140  10.815  40.018  14.964
73980W        W39141  23.454  38.497   2.349
73981W        W39142  39.011  39.731   0.425
73982W        W39143  40.100  26.030   0.271
73983W        W39144  27.219   6.189  11.297
73984W        W39145  17.072  40.339   2.293
73985W        W39146  29.958   1.322   1.904
73986W        W39147  41.607  43.454   2.796
73987W        W39148  26.656  24.174   1.402
73988W        W39149   2.478  22.087   1.684
73989W        W39150  33.430  30.084  12.987
73990W        W39151  32.982  23.268   9.998
73991W        W39152  37.603   3.371   0.724
73992W        W39153   9.476  36.299  12.076
73993W        W39154  36.448  10.430  14.350
73994W        W39155   5.897  38.563  12.297
73995W        W39156  22.093  25.276   0.901
73996W        W39157  23.005  34.265  14.496
73997W        W39158  29.417  11.249   0.892
73998W        W39159  29.371  12.599   5.339
73999W        W39160  29.772  13.779   1.188
74000W        W39161  11.375   8.605  13.038
74001W        W39162   7.231  30.095   1.799
74002W        W39163  37.092   6.888  11.049
74003W        W39164  13.933  19.717   1.429
74004W        W39165  39.073  18.691   2.729
74005W        W39166  26.168  27.140   1.005
74006W        W39167  27.153  34.113   3.123
74007W        W39168  32.977  32.872  14.353
74008W        W39169   3.989  30.088   0.260
74009W        W39170  31.016  14.282   4.128
74010W        W39171   6.252  32.716   1.782
74011W        W39172   3.492  36.563  14.746
74012W        W39173  38.130  14.444  11.638
74013W        W39174   5.614   1.244  10.695
74014W        W39175  26.291  24.067   3.737
74015W        W39176  33.155  11.498  13.994
74016W        W39177   4.467  34.280   0.724
74017W        W39178   1.456  35.555   4.198
74018W        W39179  44.362  22.503   2.847
74019W        W39180  20.763  33.338  12.546
74020W        W39181  12.036  24.814   0.104
74021W        W39182  28.512   4.274   3.664
74022W        W39183  30.916  43.550   0.873
74023W        W39184   0.284   1.994  14.059
74024W        W39185  39.294   1.263   4.513
74025W        W39186  34.949  41.775   1.898
74026W        W39187  33.024  14.308   3.464
74027W        W39188  34.117   8.975   1.348
74028W        W39189  41.713   9.877  12.989
74029W        W39190  28.854   3.726  12.903
74030W        W39191   5.334  41.895  12.804
74031W        W39192   6.240  21.596  14.323
74032W        W39193  29.609  44.631  11.137
74033W        W39194  31.091  41.694  10.759
74034W        W39195  10.419  29.161   2.748
74035W        W39196  15.305  34.920   3.854
74036W        W39197  16.842  16.046   2.294
74037W        W39198  14.377   5.046   3.298
74038W        W39199  21.711  14.473   0.451
74039W        W39200  35.518  19.796   4.906
74040W        W39201   7.470   1.297  14.697
74041W        W39202  35.518  34.345  12.922
74042W        W39203  24.567  25.799   4.145
74043W        W39204   2.268  39.114  13.988
74044W        W39205  25.279   5.126  14.854
74045W        W39206  39.992  16.848   4.724
74046W        W39207  38.951  37.999  11.610
74047W        W39208  37.558  38.420   4.477
74048W        W39209  16.793  26.492  14.497
74049W        W39210  30.022  33.397  12.968
74050W        W39211  24.065  40.061  14.530
74051W        W39212  29.627  28.640  13.416
74052W        W39213  17.671   9.557  14.388
74053W        W39214  44.237  33.649  10.953
74054W        W39215  41.778  10.395   0.051
74055W        W39216  22.627   5.187  12.616
74056W        W39217  38.143   4.366   3.702
74057W        W39218  42.496  24.827   2.148
74058W        W39219  23.665  19.543   1.754
74059W        W39220  15.035  20.082  12.209
74060W        W39221  17.865  32.867  13.964
74061W        W39222  29.105  20.833  13.821
74062W        W39223  15.291  35.181   4.890
74063W        W39224  35.569  30.421  10.677
74064W        W39225  38.003  24.001   0.263
74065W        W39226  22.047  41.418  10.614
74066W        W39227   3.427   6.339  11.142
74067W        W39228  16.002  14.810  10.473
74068W        W39229  18.201  13.714   4.229
74069W        W39230  19.707  40.784  11.112
74070W        W39231  15.696  12.632  12.518
74071W        W39232  14.348  21.367  13.081
74072W        W39233   1.169  36.745   3.509
74073W        W39234  19.050  24.082  14.611
74074W        W39235  16.189  19.240   0.253
74075W        W39236  41.087  44.865   0.739
74076W        W39237  16.280   4.384   1.877
74077W        W39238   9.151  32.560   1.401
74078W        W39239   2.025   0.021   0.490
74079W        W39240   5.877  11.513   3.428
74080W        W39241  15.176  18.994   4.866
74081W        W39242  37.926  20.743  11.554
74082W        W39243  11.144  27.414   2.270
74083W        W39244  14.590  27.488   1.807
74084W        W39245   2.045  35.943   2.950
74085W        W39246  31.080  19.485  11.315
74086W        W39247   4.737  12.673  13.187
74087W        W39248  36.349  16.513   3.688
74088W        W39249  14.785  15.671  10.398
74089W        W39250  13.696  21.508   4.651
74090W        W39251  41.901  17.707   4.870
74091W        W39252  28.526  15.014   3.808
74092W        W39253  38.929  17.749  12.070
74093W        W39254  13.565  16.950   4.249
74094W        W39255  26.464  15.700   1.504
74095W        W39256  35.817   9.766   2.645
74096W        W39257  12.357  23.151  12.042
74097W        W39258  32.109   5.341  12.961
74098W        W39259  44.749  29.077  13.260
74099W        W39260   0.768   6.361   4.126
74100W        W39261  20.107   7.266   1.979
74101W        W39262   6.406  36.909  13.020
74102W        W39263  25.761  23.183   9.980
74103W        W39264  28.499  32.020  14.292
74104W        W39265  24.911  34.964   0.294
74105W        W39266  16.308  18.573  12.950
74106W        W39267  13.273   6.660  13.918
74107W        W39268  13.857   8.228   3.398
74108W        W39269   1.049  18.185  12.957
74109W        W39270  32.587  39.021  12.565
74110W        W39271  15.393  39.937   3.456
74111W        W39272   8.220  37.051   0.872
74112W        W39273  15.397  18.061   3.569
74113W        W39274  18.988  44.312   0.513
74114W        W39275  27.553  25.133   4.569
74115W        W39276  41.346  13.094   2.145
74116W        W39277   8.914  31.630   1.294
74117W        W39278  42.877  13.345  14.268
74118W        W39279  39.017  30.614  13.365
74119W        W39280  23.749  16.260  11.393
74120W        W39281   3.741  17.026   2.694
74121W        W39282   8.486  30.084  11.112
74122W        W39283  31.237  25.827   1.215
74123W        W39284   1.303  10.577  10.165
74124W        W39285  26.129  26.050  12.551
74125W        W39286  25.665  36.144  13.841
74126W        W39287  29.635  29.964  11.625
74127W        W39288  17.369  21.508   0.374
74128W        W39289   0.365   1.028  13.898
74129W        W39290  16.103   6.708  12.410
74130W        W39291   9.228  18.892  10.980
74131W        W39292  11.168  35.371  11.228
74132W        W39293  23.661  37.591   1.165
74133W        W39294  30.413  25.002   0.265
74134W        W39295  20.968   3.895   1.292
74135W        W39296   9.288   6.401  12.797
74136W        W39297   7.956  29.643   3.999
74137W        W39298  40.023  38.808   4.324
74138W        W39299  11.426   9.647  11.054
74139W        W39300  32.348   0.931   0.681
74140W        W39301  43.281  38.028  13.726
74141W        W39302  41.474   8.116  14.901
74142W        W39303  36.464  26.970  13.041
74143W        W39304  38.713  31.940   3.263
74144W        W39305   5.384  30.380  11.086
74145W        W39306  14.800  15.657   1.770
74146W        W39307  36.953  24.708   3.256
74147W        W39308  21.333  28.468   2.858
74148W        W39309  11.193  37.271  11.937
74149W        W39310  25.986  20.751  11.891
74150W        W39311  20.072  12.983   3.113
74151W        W39312  12.831  37.484  12.581
74152W        W39313  39.857  19.829  14.859
74153W        W39314  19.154  41.953   3.791
74154W        W39315  43.599  44.528   1.704
74155W        W39316  12.011   5.869   3.260
74156W        W39317  13.554  16.589   4.604
74157W        W39318  19.304  44.444   4.996
74158W        W39319  43.809  34.609   2.919
74159W        W39320  22.451  12.548   3.124
74160W        W39321  43.379  12.373  13.478
74161W        W39322  27.404  43.247  12.545
74162W        W39323  37.123  33.306   2.804
74163W        W39324   5.970  16.565  14.115
74164W        W39325  34.600   6.080  13.881
74165W        W39326  11.785  36.722   1.799
74166W        W39327  21.733  36.122  12.414
74167W        W39328  24.240  31.433   4.834
74168W        W39329  14.644  33.624   0.185
74169W        W39330  22.471  22.168   0.341
74170W        W39331  30.790   2.527  11.219
74171W        W39332  31.106  37.414  12.130
74172W        W39333  42.468  20.227   2.784
74173W        W39334  24.516  19.814   2.686
74174W        W39335  23.839  20.250  10.751
74175W        W39336  37.605  43.872   1.214
74176W        W39337  25.775  29.886   3.401
74177W        W39338  38.786   1.533   0.974
74178W        W39339  40.330   6.325   2.186
74179W        W39340  22.414  26.554   4.114
74180W        W39341   8.147  41.847   2.311
74181W        W39342   2.833  15.783   1.448
74182W        W39343  11.665  15.322  10.245
74183W        W39344  35.898   5.542   2.253
74184W        W39345   4.420  15.467   2.637
74185W        W39346  40.544  41.955  11.328
74186W        W39347   8.233  33.099   3.673
74187W        W39348  21.195  21.818  14.092
74188W        W39349   6.186   3.726  13.110
74189W        W39350  18.701  14.123   3.565
74190W        W39351   1.415  21.060  14.501
74191W        W39352   6.495  43.138   4.925
74192W        W39353   5.200  42.429  13.285
74193W        W39354  34.336  14.684  13.966
74194W        W39355   5.666  14.990   0.479
74195W        W39356  26.160  17.277   0.789
74196W        W39357  41.860  24.365   5.146
74197W        W39358  28.496  10.714  13.576
74198W        W39359  21.969  16.955  12.536
74199W        W39360  18.448   0.409   0.846
74200W        W39361  27.742  26.382  12.044
74201W        W39362  18.086  38.243  12.532
74202W        W39363  28.540  34.480  10.847
74203W        W39364  42.497  27.611   3.185
74204W        W39365  41.260  19.027  14.372
74205W        W39366  14.657   3.729  12.413
74206W        W39367  32.622  29.110  10.680
74207W        W39368  39.047   3.011  11.614
74208W        W39369  33.151   8.954   0.509
74209W        W39370  11.779  39.248  11.627
74210W        W39371   2.755   5.639   4.323
74211W        W39372  13.124  42.903  10.497
74212W        W39373  34.083  28.011   2.354
74213W        W39374   2.972  13.768   9.948
74214W        W39375  30.495   0.520  12.073
74215W        W39376   4.211  27.237   0.005
74216W        W39377   7.389  25.592   0.760
74217W        W39378  37.119  13.182  13.811
74218W        W39379  15.137  28.637  12.587
74219W        W39380   7.342  35.798  12.904
74220W        W39381  38.897  39.857  12.097
74221W        W39382  42.469   8.475  10.431
74222W        W39383  40.043  11.649   3.413
74223W        W39384   8.450  36.766   1.995
74224W        W39385  30.338  20.713   2.148
74225W        W39386  43.017  42.634   5.353
74226W        W39387   7.148  32.698  13.364
74227W        W39388   2.820  32.442   0.915
74228W        W39389  12.714  16.223   3.277
74229W        W39390  35.027   7.018  14.783
74230W        W39391  25.755  34.949   2.750
74231W        W39392  10.785  34.130   3.858
74232W        W39393   3.837   2.578  14.948
74233W        W39394  20.168  21.326  13.308
74234W        W39395  26.516  28.417  11.062
74235W        W39396  13.767  44.006   3.632
74236W        W39397   8.686  15.668   4.578
74237W        W39398  19.678  25.111  10.595
74238W        W39399  34.842  37.284   2.376
74239W        W39400  39.643   8.675  12.373
74240W        W39401   0.006  23.224  10.471
74241W        W39402  21.557  19.109  12.546
74242W        W39403  22.934  30.137  10.881
74243W        W39404   1.519  38.656   1.686
74244W        W39405  17.369  18.316   1.443
74245W        W39406  25.257   7.197  14.716
74246W        W39407  22.029  40.066   4.617
74247W        W39408  34.111  19.119   0.494
74248W        W39409   5.426  32.622  14.013
74249W        W39410   5.879  21.047  13.086
74250W        W39411  22.138  27.884   3.090
74251W        W39412  43.430  38.282   3.919
74252W        W39413   4.908  20.628  14.882
74253W        W39414  28.594  32.151  12.544
74254W        W39415  38.288   5.747   1.348
74255W        W39416  28.876  28.500   3.636
74256W        W39417  11.715   9.631   1.353
74257W        W39418  27.222  33.092   1.321
74258W        W39419  21.155  23.915   1.802
74259W        W39420  36.771  28.149   0.902
74260W        W39421  35.701  11.724   4.193
74261W        W39422  29.513  28.708  10.822
74262W        W39423  40.074  42.153  11.368
74263W        W39424  34.618  43.074  11.129
74264W        W39425  11.649  39.867   3.691
74265W        W39426  39.574  23.649   1.331
74266W        W39427  34.961  12.708   0.460
74267W        W39428  24.268   8.817   4.444
74268W        W39429   7.385  18.322  12.395
74269W        W39430  25.992   2.295   0.914
74270W        W39431  41.801   5.815   0.218
74271W        W39432  41.501  38.050   0.880
74272W        W39433  30.511  17.169  13.576
74273W        W39434  41.107  21.195  14.800
74274W        W39435   4.652  43.259  13.537
74275W        W39436  44.289   0.059   1.449
74276W        W39437  22.731  42.251  12.459
74277W        W39438  34.353  32.141  13.315
74278W        W39439  25.467  20.316  14.373
74279W        W39440   3.335   0.189  12.838
74280W        W39441   7.906  33.980   1.338
74281W        W39442  15.781   7.148   2.024
74282W        W39443  15.172   1.657   2.346
74283W        W39444  28.754  35.318  14.129
74284W        W39445  34.286   4.275   2.460
74285W        W39446  30.188  35.096   2.644
74286W        W39447  36.827  10.414   3.691
74287W        W39448  27.275  43.876   0.448
74288W        W39449  16.714  43.966   1.179
74289W        W39450  32.556  23.104   2.055
74290W        W39451   5.475  17.824  13.778
74291W        W39452   1.947   1.290  10.662
74292W        W39453  42.457  42.710   0.404
74293W        W39454  11.409  37.736   2.897
74294W        W39455  37.111  38.258   4.715
74295W        W39456  14.263  10.390  14.876
74296W        W39457  42.835  19.994   2.177
74297W        W39458  24.501   1.402  11.159
74298W        W39459  28.554  41.742  11.163
74299W        W39460  41.964  43.727   1.123
74300W        W39461  17.720  24.932   3.714
74301W        W39462   7.427  15.163  11.126
74302W        W39463  21.173  14.768   0.418
74303W        W39464  44.296  28.030   4.506
74304W        W39465  28.662  39.493   1.990
74305W        W39466  38.978  35.064  14.981
74306W        W39467  19.012  29.942   4.113
74307W        W39468  44.899   4.788  11.278
74308W        W39469  42.330  29.694  13.625
74309W        W39470  22.237  21.216  12.849
74310W        W39471  17.581  39.466  12.603
74311W        W39472  18.297  11.238  14.882
74312W        W39473   2.178  32.580  14.913
74313W        W39474  35.579  38.146   1.449
74314W        W39475   3.959   8.272   1.338
74315W        W39476   3.569  14.056  10.200
74316W        W39477  35.158  44.088  14.389
74317W        W39478  16.578  13.539   1.872
74318W        W39479  39.732  18.407   1.246
74319W        W39480  28.694  10.004  12.010
74320W        W39481  39.085  10.329   2.628
74321W        W39482  12.342   4.396  12.949
74322W        W39483  40.941   8.386   4.852
74323W        W39484   2.225  13.176   2.287
74324W        W39485   1.465  20.047   0.861
74325W        W39486  25.180  35.567   2.165
74326W        W39487  25.075  15.323   0.498
74327W        W39488  24.075   5.703   4.075
74328W        W39489   1.975  20.667   2.368
74329W        W39490  20.191  12.854   0.737
74330W        W39491  41.877  42.363   3.987
74331W        W39492  16.544   5.914  11.995
74332W        W39493  38.182  38.518   0.362
74333W        W39494  41.011  13.108   0.389
74334W        W39495  30.155  17.148   0.749
74335W        W39496  22.641  31.115   4.696
74336W        W39497  19.250   1.259   1.876
74337W        W39498  18.694  34.959   1.261
74338W        W39499   4.522  18.041  12.964
74339W        W39500  28.693  18.084   4.503
74340W        W39501   2.674  42.345   0.936
74341W        W39502  37.986   0.438  14.700
74342W        W39503  29.404   6.677   1.870
74343W        W39504  42.109   6.099   4.989
74344W        W39505  12.261  12.703  13.261
74345W        W39506  26.951  13.594   0.828
74346W        W39507  32.671  41.937   3.150
74347W        W39508  36.311   3.429  11.965
74348W        W39509  36.541  30.467  10.344
74349W        W39510  26.025  26.993  12.162
74350W        W39511  18.023  15.806  14.500
74351W        W39512  38.824  24.829   4.971
74352W        W39513  28.077  12.802   2.770
74353W        W39514  17.825   9.628   0.284
74354W        W39515  21.061  30.494  13.994
74355W        W39516  12.919   4.928  14.276
74356W        W39517  37.131  41.052  13.083
74357W        W39518  18.180   4.427  12.838
74358W        W39519  32.866   6.770   3.849
74359W        W39520   3.467  43.330   2.323
74360W        W39521  29.941  31.399   0.341
74361W        W39522   8.338  11.127  11.082
74362W        W39523  17.247  22.775  10.188
74363W        W39524   0.971  14.478   3.674
74364W        W39525  22.954  17.340   5.206
74365W        W39526  28.969  27.628   0.331
74366W        W39527  41.575  14.730  13.311
74367W        W39528  10.210   3.140   4.094
74368W        W39529  28.511  16.705   2.443
74369W        W39530  39.747  12.205  12.024
74370W        W39531  22.268  13.674  10.840
74371W        W39532  31.392  31.040  11.634
74372W        W39533  40.724  28.523  14.740
74373W        W39534  36.528   0.267   0.242
74374W        W39535  36.445  20.608  10.920
74375W        W39536  44.701  42.805   0.417
74376W        W39537  13.208   9.595  11.280
74377W        W39538   9.269   0.685   3.873
74378W        W39539  25.157  35.563   1.390
74379W        W39540  21.100  10.006   4.906
74380W        W39541   6.700  23.527  10.638
74381W        W39542  18.304   1.265  13.923
74382W        W39543  43.036  25.280  10.405
74383W        W39544  29.486   9.785  14.147
74384W        W39545  37.293   8.723   3.638
74385W        W39546   9.178  31.385  12.962
74386W        W39547   3.163  33.347  13.475
74387W        W39548  21.978   8.301  14.748
74388W        W39549  21.055  31.383   1.269
74389W        W39550   7.190  14.881  14.326
74390W        W39551  40.810  28.698   4.104
74391W        W39552  17.240  37.471  12.112
74392W        W39553  21.770  37.158  11.147
74393W        W39554  15.804   6.850   1.113
74394W        W39555  26.831   9.077  10.685
74395W        W39556   9.839  29.574   0.977
74396W        W39557  10.920  42.740   3.653
74397W        W39558  42.825  16.735   1.468
74398W        W39559  13.789  39.854   0.185
74399W        W39560  29.698  16.859  10.483
74400W        W39561  22.517  38.903  11.053
74401W        W39562   3.689  15.341  13.502
74402W        W39563  16.783  43.758  12.035
74403W        W39564   4.921  42.556  10.603
74404W        W39565  41.758  13.067  11.225
74405W        W39566   6.294   2.134  12.440
74406W        W39567   6.644   2.332   2.750
74407W        W39568  25.295   1.437   4.179
74408W        W39569  11.907  16.090  13.954
74409W        W39570  31.554  30.486   4.639
74410W        W39571  16.267  39.283   1.852
74411W        W39572  13.450  39.956   1.001
74412W        W39573  13.727  20.648   0.556
74413W        W39574  15.808  13.023  12.106
74414W        W39575  39.017   8.406  10.734
74415W        W39576   6.280  11.108   1.275
74416W        W39577  14.089   2.466  10.471
74417W        W39578  31.678   7.043   4.232
74418W        W39579  11.174  28.519  12.002
74419W        W39580  10.684   2.130  10.713
74420W        W39581  38.759  15.787  13.323
74421W        W39582  39.489  33.931   2.228
74422W        W39583   0.827  44.264   4.520
74423W        W39584  31.510   1.293  14.467
74424W        W39585  22.175  15.035  12.364
74425W        W39586  10.533  29.794   2.897
74426W        W39587  27.089  40.898   1.052
74427W        W39588  12.422   6.504   0.828
74428W        W39589  20.999   6.619   1.242
74429W        W39590   3.209  17.734   0.016
74430W        W39591   3.401  36.075   2.643
74431W        W39592  12.790  32.203  11.195
74432W        W39593  37.584  14.153  13.786
74433W        W39594  43.758   4.264   0.350
74434W        W39595  38.213   6.964  13.505
74435W        W39596  19.287   7.036   1.237
74436W        W39597  15.367  43.316   1.470
74437W        W39598  10.334   7.787  11.203
74438W        W39599   7.434   8.794  12.752
74439W        W39600  15.558   8.055   1.820
74440W        W39601  43.973  24.703  13.038
74441W        W39602  21.174  15.725   3.307
74442W        W39603  21.606  16.045   3.144
74443W        W39604  22.151  43.925  14.452
74444W        W39605  28.095  41.797  10.958
74445W        W39606   6.940  44.370  12.164
74446W        W39607   0.297  25.377  11.987
74447W        W39608  11.316  33.132  12.409
74448W        W39609  25.513  26.382   1.782
74449W        W39610  42.400  30.941   4.337
74450W        W39611  13.336  37.593  12.618
74451W        W39612  41.597  19.615   1.235
74452W        W39613  14.146  21.006   0.539
74453W        W39614  39.330  19.134   2.964
74454W        W39615  10.688  19.069   1.353
74455W        W39616  22.111  17.156   4.157
74456W        W39617   4.284  19.156   4.305
74457W        W39618  35.547  12.018   1.847
74458W        W39619   1.844  38.820  13.963
74459W        W39620  33.417  21.087   0.491
74460W        W39621  21.491  17.952   0.293
74461W        W39622  34.295  24.645   1.766
74462W        W39623  18.096   1.678   2.659
74463W        W39624  31.966  30.538   0.667
74464W        W39625   3.635  28.861   2.779
74465W        W39626   4.652  42.236   3.639
74466W        W39627  41.536  18.219   3.463
74467W        W39628  35.988  20.672   2.233
74468W        W39629   2.345  33.907   1.300
74469W        W39630  11.201   0.295  14.750
74470W        W39631   8.738  27.438  10.652
74471W        W39632  39.430  41.927   5.180
74472W        W39633   6.684  27.533  12.970
74473W        W39634   3.736  33.431   3.236
74474W        W39635  39.463  31.734   2.330
74475W        W39636  41.253  34.872   0.475
74476W        W39637  40.530  15.126   3.365
74477W        W39638  27.241  11.525   2.224
74478W        W39639  20.246  11.194  13.837
74479W        W39640  35.648   0.409  11.808
74480W        W39641  33.092  18.537  13.861
74481W        W39642  21.375  38.484   2.316
74482W        W39643  36.906  10.975   1.324
74483W        W39644  36.863   1.339   2.241
74484W        W39645   7.572  10.844  12.430
74485W        W39646  42.373  23.673   1.011
74486W        W39647  29.056  10.607  11.488
74487W        W39648  22.092  32.163  13.935
74488W        W39649   3.888  25.993  13.952
74489W        W39650  11.773  12.904  13.159
74490W        W39651   7.676  20.528   1.961
74491W        W39652  44.039   4.218  12.800
74492W        W39653  27.372  25.072  14.324
74493W        W39654  12.662   4.791  14.714
74494W        W39655  14.905  32.948  11.616
74495W        W39656   5.869   2.856   1.434
74496W        W39657  16.187  15.625   1.510
74497W        W39658   4.202  38.044  11.371
74498W        W39659  39.077  28.475   3.744
74499W        W39660  42.884  41.764  11.979
74500W        W39661  31.909  22.516  10.304
74501W        W39662  17.663  31.427   4.854
74502W        W39663   1.970  14.609   0.887
74503W        W39664  44.464   4.580  13.441
74504W        W39665  30.551   0.003  13.309
74505W        W39666  13.717   8.156  12.565
74506W        W39667  15.320  17.017  11.458
74507W        W39668  21.636  26.655   1.319
74508W        W39669  19.375  29.079  10.702
74509W        W39670  43.215  24.982   0.283
74510W        W39671  28.470   6.924   0.426
74511W        W39672  18.784  19.665   2.642
74512W        W39673  27.025  34.746  11.945
74513W        W39674   6.895  27.398   0.859
74514W        W39675  38.642   8.296   1.930
74515W        W39676  32.221  11.256  14.822
74516W        W39677  38.413  25.626   3.179
74517W        W39678  41.187  42.986  13.656
74518W        W39679  27.720   5.764   4.039
74519W        W39680  14.982  27.006   0.492
74520W        W39681  34.918  12.488  12.373
74521W        W39682   8.934  18.141   3.190
74522W        W39683  14.832  22.689  10.697
74523W        W39684   6.643  33.545   2.281
74524W        W39685  19.995  23.442   4.031
74525W        W39686   6.825  25.294  13.346
74526W        W39687  30.966  32.100  12.340
74527W        W39688   5.996   5.281   4.616
74528W        W39689  40.383  22.081   0.321
74529W        W39690  13.714  19.182   1.493
74530W        W39691   9.322  21.995   2.670
74531W        W39692   5.585  25.446  10.441
74532W        W39693  14.705  18.556  12.026
74533W        W39694  36.684  21.273  12.020
74534W        W39695  33.313  18.482  13.313
74535W        W39696  29.898  22.510  14.854
74536W        W39697  43.783   4.073   3.998
74537W        W39698  38.467   1.217   4.234
74538W        W39699  30.101  27.484   3.705
74539W        W39700  24.298  10.284  14.312
74540W        W39701  39.998  28.462   4.764
74541W        W39702   3.954  25.838   1.979
74542W        W39703  21.443  18.172   4.750
74543W        W39704  33.906  11.785  12.106
74544W        W39705   3.751  31.113   1.204
74545W        W39706  34.501   7.215   3.406
74546W        W39707  38.992   8.402  11.656
74547W        W39708  30.044   9.159   0.829
74548W        W39709  18.668  19.508   3.111
74549W        W39710  33.662  31.614  13.375
74550W        W39711  33.167  33.818  11.974
74551W        W39712  18.178  30.657  13.036
74552W        W39713  33.503  21.638   1.730
74553W        W39714  29.604  11.606  12.435
74554W        W39715  12.830  25.961  13.504
74555W        W39716  28.446  34.016   2.299
74556W        W39717  42.445  10.177   1.685
74557W        W39718  19.609  25.939  12.119
74558W        W39719  34.461  13.287   1.638
74559W        W39720  24.634  44.525  14.139
74560W        W39721  44.099  42.779  14.368
74561W        W39722  30.126  18.880   0.186
74562W        W39723   0.972  40.891  13.072
74563W        W39724  21.201   7.763   1.726
74564W        W39725  36.874   9.800   2.820
74565W        W39726  11.300  34.906  11.453
74566W        W39727  43.958  37.796   2.659
74567W        W39728   5.116   6.394  11.665
74568W        W39729   3.170  26.984  10.937
74569W        W39730   0.857  18.283   4.650
74570W        W39731  22.710  41.831  13.511
74571W        W39732  37.041  30.156   1.717
74572W        W39733  44.150  15.912   2.157
74573W        W39734  31.847  31.003  13.912
74574W        W39735  20.699  43.769  12.074
74575W        W39736  40.065  19.517   0.349
74576W        W39737  39.837  30.407  12.116
74577W        W39738   6.903  27.611   1.757
74578W        W39739  12.508   5.889  14.952
74579W        W39740  12.840  18.151   3.429
74580W        W39741  11.226   1.417  14.068
74581W        W39742  10.641  22.231  14.012
74582W        W39743  39.914  39.858   0.360
74583W        W39744  28.866  34.419  14.550
74584W        W39745  15.760  14.620  14.809
74585W        W39746   9.352   8.934   2.905
74586W        W39747  30.223   5.864   2.363
74587W        W39748  32.117  17.537   1.716
74588W        W39749  34.046  42.372   4.712
74589W        W39750   7.603   2.567   1.948
74590W        W39751   3.265  31.729  10.513
74591W        W39752  21.828   2.398   4.699
74592W        W39753   0.249  44.411  14.784
74593W        W39754  41.517  21.300  12.449
74594W        W39755  34.415  24.018  10.877
74595W        W39756   2.281  14.810  12.371
74596W        W39757  39.775  43.893   3.872
74597W        W39758  28.529  20.555   2.677
74598W        W39759  32.921   9.595  12.440
74599W        W39760  14.102   0.955   1.844
74600W        W39761  11.199  38.820   4.263
74601W        W39762  42.503  26.355   3.203
74602W        W39763  17.276  24.239  12.056
74603W        W39764  16.171  36.838   4.139
74604W        W39765   2.216  26.528   1.904
74605W        W39766  24.922  17.101   4.459
74606W        W39767  36.629   6.744  12.493
74607W        W39768  27.525  30.714  11.626
74608W        W39769  26.736  14.292   1.775
74609W        W39770  21.833   6.901   1.710
74610W        W39771  29.309   2.241   0.872
74611W        W39772  20.297  11.891  11.416
74612W        W39773  39.198   7.123   0.981
74613W        W39774  10.308  44.890   1.364
74614W        W39775   5.175  29.767  13.904
74615W        W39776  42.970  16.091  13.329
74616W        W39777   5.014   3.014   1.450
74617W        W39778   5.759  38.066   0.387
74618W        W39779   3.876   7.285   0.416
74619W        W39780  16.277   4.442  14.767
74620W        W39781  23.825   2.473  11.656
74621W        W39782  38.345  10.676   2.393
74622W        W39783  36.964  23.537  14.909
74623W        W39784  16.537  16.001  14.206
74624W        W39785  16.837  41.040   1.891
74625W        W39786  22.729  36.006  10.396
74626W        W39787   4.953  34.814   4.313
74627W        W39788  27.383  37.068  12.170
74628W        W39789  14.477  15.354   0.059
74629W        W39790  35.421   1.352  13.293
74630W        W39791  28.987   1.405   2.399
74631W        W39792  30.403  11.624  10.672
74632W        W39793  17.275  44.007   4.096
74633W        W39794  14.715  27.748  13.885
74634W        W39795  32.603   6.125  14.779
74635W        W39796   7.354  10.065  11.959
74636W        W39797   5.581   0.352  14.912
74637W        W39798  14.200   9.906   2.668
74638W        W39799  40.965  27.466   2.810
74639W        W39800  27.208   8.431  11.232
74640W        W39801  26.509  27.941  13.053
74641W        W39802  28.533  28.986   4.654
74642W        W39803   2.989  24.328   3.122
74643W        W39804  29.013  38.218   2.260
74644W        W39805  42.419  12.292  13.455
74645W        W39806  25.618   7.675  12.111
74646W        W39807   7.351  12.160  13.362
74647W        W39808  43.331   6.361   2.344
74648W        W39809  41.957  37.980  12.926
74649W        W39810  24.577   5.196  14.386
74650W        W39811  40.842   0.682  13.837
74651W        W39812   6.588   2.317  12.069
74652W        W39813  32.972  29.488  10.756
74653W        W39814  34.526  28.029   2.749
74654W        W39815  38.607  18.762  13.523
74655W        W39816  20.284  12.401  11.506
74656W        W39817  39.882  18.500  14.332
74657W        W39818   4.962  17.883  13.997
74658W        W39819  20.700  44.048   1.917
74659W        W39820  16.552  34.805   4.999
74660W        W39821  10.777  23.621   3.985
74661W        W39822  11.027   0.968  14.364
74662W        W39823  15.724  28.384  10.907
74663W        W39824  26.034  21.493  12.563
74664W        W39825   6.999   6.336   2.245
74665W        W39826  30.427  29.011   4.593
74666W        W39827  13.681  26.049  13.021
74667W        W39828  23.685   3.111   2.798
74668W        W39829  44.676  21.251   0.760
74669W        W39830   4.809  32.742   4.097
74670W        W39831  36.114  33.969   1.799
74671W        W39832  15.224   8.492  13.481
74672W        W39833   1.382   6.820   2.895
74673W        W39834  32.407  12.090   2.416
74674W        W39835  16.723  27.984   4.581
74675W        W39836   6.845  36.618   4.315
74676W        W39837  16.158  40.638  12.119
74677W        W39838  31.185  36.701  13.697
74678W        W39839   5.864  42.847   3.290
74679W        W39840   5.831   1.687  14.609
74680W        W39841  10.128  44.099   3.631
74681W        W39842  34.875  20.994   2.881
74682W        W39843  16.148  30.744  14.979
74683W        W39844  34.780   3.170   0.311
74684W        W39845  25.397  33.982  13.306
74685W        W39846  14.098   5.485  12.834
74686W        W39847  22.610  13.897  12.776
74687W        W39848  44.159  10.460  14.339
74688W        W39849   2.264  21.254   4.583
74689W        W39850   9.965  14.769  14.036
74690W        W39851  33.065  33.746   0.831
74691W        W39852  18.293  37.521   3.845
74692W        W39853  25.066  28.920   1.740
74693W        W39854   3.711   1.425  13.387
74694W        W39855  43.692   3.437  11.601
74695W        W39856  36.438   8.377   3.644
74696W        W39857   0.688   6.711  10.507
74697W        W39858   6.761  38.843  10.825
74698W        W39859  15.671  31.095   0.656
74699W        W39860  35.201  25.678   2.242
74700W        W39861   2.912  16.580  12.963
74701W        W39862   4.683   2.805   3.070
74702W        W39863  20.539  19.434  10.101
74703W        W39864  16.342  42.551  11.950
74704W        W39865  13.639   3.000   4.844
74705W        W39866  13.754  31.841  14.823
74706W        W39867  10.190   5.018  14.845
74707W        W39868  24.314  17.228  11.640
74708W        W39869  27.520  38.095   1.462
74709W        W39870  16.653  23.765  10.743
74710W        W39871  20.538   5.377   4.695
74711W        W39872  38.480  25.388  11.592
74712W        W39873  43.999   8.908  12.736
74713W        W39874  20.059  26.805   2.366
74714W        W39875  31.104  25.879  13.037
74715W        W39876  25.596  16.019   0.725
74716W        W39877  31.507  30.389   0.871
74717W        W39878  18.566  40.184   0.042
74718W        W39879  17.507  31.695   4.438
74719W        W39880  35.150  41.927   0.484
74720W        W39881  28.368   1.231   3.792
74721W        W39882  32.077  40.015   2.243
74722W        W39883  18.922  44.619   0.955
74723W        W39884  36.866  35.578  12.890
74724W        W39885  20.955  30.070  12.923
74725W        W39886  36.479  15.696  13.915
74726W        W39887  41.684  34.492   4.386
74727W        W39888  26.878  24.027  12.354
74728W        W39889  13.331  31.309   2.870
74729W        W39890  33.879  17.784   0.757
74730W        W39891  27.533  35.382   2.889
74731W        W39892  13.342  35.775   3.562
74732W        W39893  38.416  38.625   2.772
74733W        W39894   3.907   6.825  11.393
74734W        W39895  17.744  41.255   2.324
74735W        W39896  13.128  13.165  11.941
74736W        W39897  24.000  38.774  14.335
74737W        W39898  25.219  12.634  14.745
74738W        W39899  40.144   0.377  11.117
74739W        W39900  35.787  25.480   0.308
74740W        W39901  24.540   0.567  14.909
74741W        W39902   8.956  30.342   0.835
74742W        W39903  20.714  11.384   0.895
74743W        W39904  11.129   2.762  14.276
74744W        W39905  35.936  22.274   4.756
74745W        W39906  29.504  30.059  12.122
74746W        W39907  38.082   9.663   0.670
74747W        W39908  41.370  34.453   3.565
74748W        W39909   0.497  38.258  14.917
74749W        W39910  39.365  34.322  14.956
74750W        W39911  11.904  19.168  12.933
74751W        W39912  18.769   2.797   1.431
74752W        W39913   6.840  38.639   1.440
74753W        W39914  42.883   0.727  10.911
74754W        W39915  41.323  28.574  12.844
74755W        W39916  11.737  32.008  10.655
74756W        W39917   8.716  15.127  11.641
74757W        W39918   2.460   9.348  13.797
74758W        W39919  18.183  10.428  13.669
74759W        W39920  26.649  16.535   1.709
74760W        W39921   0.309  28.734   2.841
74761W        W39922  41.119   8.448  12.493
74762W        W39923  13.997  23.558   2.339
74763W        W39924  25.410   0.412  12.603
74764W        W39925  11.265  36.842   3.373
74765W        W39926  36.410  18.594   0.323
74766W        W39927   3.273  32.957   3.907
74767W        W39928  18.369  17.051  12.047
74768W        W39929   8.236  22.477  11.944
74769W        W39930  34.150   3.289  14.078
74770W        W39931  23.029   2.479  14.761
74771W        W39932  15.697  38.766   9.906
74772W        W39933  33.830  22.614   1.435
74773W        W39934  27.419   9.411   0.784
74774W        W39935   4.212  36.375  10.647
74775W        W39936   7.857  30.487  14.554
74776W        W39937  20.492  32.534   3.136
74777W        W39938   7.431  17.035   3.223
74778W        W39939  13.369  24.005  12.605
74779W        W39940  11.118  30.525  13.922
74780W        W39941  30.063  28.328  13.603
74781W        W39942  33.296   9.479   2.225
74782W        W39943  34.955  10.287  10.975
74783W        W39944  27.113  28.820   2.177
74784W        W39945  37.038  31.966   1.270
74785W        W39946  11.846  30.022  12.863
74786W        W39947  41.796  23.433   3.595
74787W        W39948  36.279  30.739   3.314
74788W        W39949   1.749  43.747   3.972
74789W        W39950  22.653  36.594  11.710
74790W        W39951   2.168  29.023   3.560
74791W        W39952  22.777  12.130   2.287
74792W        W39953  36.299   9.907   3.162
74793W        W39954   1.939  30.672   0.928
74794W        W39955   0.251  10.097   5.315
74795W        W39956  17.740  42.555  12.164
74796W        W39957  42.857   8.217   2.695
74797W        W39958  14.849  32.084   0.413
74798W        W39959  33.886  29.984  14.775
74799W        W39960  11.151  36.438   0.777
74800W        W39961  17.841  27.398  12.007
74801W        W39962  34.932  37.116  12.975
74802W        W39963   5.881  20.083   4.510
74803W        W39964  37.322  39.013   4.133
74804W        W39965  37.562  37.396  13.800
74805W        W39966  39.010  26.977  13.861
74806W        W39967   7.122  17.055   1.643
74807W        W39968  10.154  13.569   1.912
74808W        W39969  38.564  26.801  12.371
74809W        W39970  14.736   5.756  12.896
74810W        W39971  43.413  41.839  14.943
74811W        W39972  40.004  14.330   2.641
74812W        W39973  15.116  18.778  14.304
74813W        W39974  28.665  19.215  11.531
74814W        W39975  26.984   3.310   1.032
74815W        W39976  12.325  18.847  11.225
74816W        W39977  23.589   9.809  14.950
74817W        W39978  31.981  35.895   4.118
74818W        W39979  20.587  31.825  13.478
74819W        W39980  11.601  43.659  14.101
74820W        W39981   3.698  42.987   4.092
74821W        W39982  20.199  35.348   0.035
74822W        W39983  13.353  15.981   3.709
74823W        W39984   8.339  30.791  13.516
74824W        W39985  43.001   5.454  13.943
74825W        W39986  30.943  13.678  14.794
74826W        W39987  42.887   3.209  14.921
74827W        W39988   9.570  41.544  11.665
74828W        W39989  10.898  37.862  13.903
74829W        W39990  21.937  33.171  13.854
74830W        W39991   4.300  25.301  13.167
74831W        W39992  27.680  34.558  13.355
74832W        W39993  28.040  21.265  14.359
74833W        W39994  30.548   5.790   4.522
74834W        W39995   7.642  37.120   1.444
74835W        W39996   2.325  18.393   4.810
74836W        W39997  34.155   0.191  13.442
74837W        W39998   6.284  38.851   0.377
74838W        W39999  11.754  23.396   1.888
74839W        W40000  13.444  20.053  11.311
74840W        W40001  37.971  16.098  14.355
74841W        W40002  17.593  18.806  11.938
74842W        W40003  38.772  26.068   3.696
74843W        W40004   4.766  42.519  11.085
74844W        W40005  41.252  39.623  11.157
74845W        W40006  35.634  15.269   2.131
74846W        W40007   9.495  30.523   3.158
74847W        W40008  10.811  36.555  12.664
74848W        W40009  30.371  43.171  12.020
74849W        W40010  15.606  20.716   1.854
74850W        W40011  28.942  14.444  11.127
74851W        W40012  11.689   4.886  13.207
74852W        W40013  38.330  44.645   3.183
74853W        W40014  30.422  34.054  13.101
74854W        W40015  34.122  44.666   0.900
74855W        W40016  12.638  12.443   0.787
74856W        W40017  27.183  33.488   4.916
74857W        W40018  40.620  33.484  14.429
74858W        W40019  23.454  23.488   4.920
74859W        W40020  10.162   9.317  14.952
74860W        W40021  15.774  25.010   3.898
74861W        W40022  24.479   1.163   4.420
74862W        W40023  22.410   3.189  10.223
74863W        W40024   5.494  43.454   0.847
74864W        W40025   8.748  38.499  12.356
74865W        W40026  22.590   7.779  10.993
74866W        W40027  36.051   4.490  12.912
74867W        W40028   7.463  31.047   2.143
74868W        W40029  11.141  39.924  13.997
74869W        W40030  30.179  12.120  10.674
74870W        W40031   3.393  24.914   3.599
74871W        W40032  35.811  32.317   0.291
74872W        W40033  28.473  44.284   3.984
74873W        W40034  23.182  21.727   1.068
74874W        W40035  40.865  34.177   1.860
74875W        W40036   0.804  43.358   2.134
74876W        W40037  13.816  39.503  12.421
74877W        W40038   7.369   9.935  12.930
74878W        W40039  16.145  15.121   3.241
74879W        W40040  37.906   5.343  12.060
74880W        W40041  39.479  10.842   0.409
74881W        W40042   3.310  19.135   4.603
74882W        W40043  35.589  10.666   1.432
74883W        W40044  33.447  29.902   1.825
74884W        W40045   0.333  18.827  14.911
74885W        W40046  41.053  31.658  13.820
74886W        W40047  23.776  25.205   5.118
74887W        W40048  36.142  35.701  12.533
74888W        W40049  22.310   4.467   2.723
74889W        W40050  11.430  26.936  13.418
74890W        W40051  14.914   0.178   0.875
74891W        W40052  20.769  38.062   4.472
74892W        W40053  29.981  17.258  10.638
74893W        W40054  32.249   8.861   4.497
74894W        W40055  16.430  43.438  11.559
74895W        W40056   4.705   7.145  10.674
74896W        W40057   5.871  10.864  11.093
74897W        W40058  19.358  34.390   4.592
74898W        W40059  26.051   3.875  11.099
74899W        W40060   8.822  10.343  13.512
74900W        W40061   1.838  15.254  13.129
74901W        W40062  30.007   8.187   4.707
74902W        W40063  20.592  23.136   2.768
74903W        W40064  20.131  23.077   2.387
74904W        W40065  18.013  28.092  13.391
74905W        W40066  30.099  30.698  12.360
74906W        W40067   8.613   4.587  14.287
74907W        W40068  36.140   1.000   5.043
74908W        W40069  14.007   1.375   0.199
74909W        W40070  36.193  19.062   2.188
74910W        W40071  18.985  27.448   4.212
74911W        W40072  29.012  41.928  10.516
74912W        W40073  17.789  23.225   1.758
74913W        W40074   7.677  27.069  13.891
74914W        W40075   1.247  40.292   4.014
74915W        W40076  37.486  43.723  13.857
74916W        W40077  43.804  22.092  13.136
74917W        W40078  34.615  12.826   0.848
74918W        W40079  19.736  32.227   0.333
74919W        W40080  41.442  12.581  14.967
74920W        W40081  10.375  22.608   3.641
74921W        W40082  39.458  12.308   1.725
74922W        W40083  17.755  16.604   0.543
74923W        W40084  40.208  42.297  10.799
74924W        W40085  29.687  24.932   0.882
74925W        W40086  28.508  22.537   0.469
74926W        W40087  14.120  35.608   1.222
74927W        W40088  34.280  17.190   2.282
74928W        W40089  19.543  13.029   3.221
74929W        W40090  28.422  16.507  14.016
74930W        W40091  43.817  16.735   0.712
74931W        W40092  28.149  16.322  14.538
74932W        W40093   3.484  13.470   5.221
74933W        W40094  12.142  28.871  13.967
74934W        W40095  43.974  33.385  12.041
74935W        W40096  23.700   7.801  13.986
74936W        W40097  10.125   5.483   0.064
74937W        W40098  36.532  31.812   1.410
74938W        W40099  23.155  34.927  12.101
74939W        W40100   8.346  34.506  10.681
74940W        W40101  41.892   2.868   1.228
74941W        W40102   9.864  26.077  11.112
74942W        W40103  14.330  29.205   0.613
74943W        W40104  30.736  34.525   0.329
74944W        W40105  24.959  25.458   0.087
74945W        W40106   2.358   2.077  14.978
74946W        W40107  16.815   7.524  12.057
74947W        W40108  24.500  43.530  11.087
74948W        W40109  41.956  38.422  12.611
74949W        W40110  31.058  32.436  14.727
74950W        W40111  37.033  21.634   3.394
74951W        W40112  26.727  23.262  14.459
74952W        W40113  14.085  43.810   2.449
74953W        W40114  20.345  19.236  10.956
74954W        W40115  16.522  32.106   3.684
74955W        W40116   1.814  33.224   2.270
74956W        W40117  38.198  41.465  11.566
74957W        W40118  16.232   8.635  11.060
74958W        W40119  22.688  19.614  14.315
74959W        W40120  15.749   1.364   3.768
74960W        W40121   9.150  40.807  12.875
74961W        W40122  22.730   9.689  13.898
74962W        W40123  19.256   7.478   3.606
74963W        W40124  39.939  22.763  14.440
74964W        W40125   1.248  31.870   3.254
74965W        W40126  26.921  16.725  12.517
74966W        W40127  29.593  21.000   0.953
74967W        W40128  34.629  17.236  13.461
74968W        W40129   8.540  14.179   4.996
74969W        W40130  38.908  18.282   4.608
74970W        W40131  14.609  34.778  12.088
74971W        W40132  35.958  26.907  14.219
74972W        W40133  39.222  27.381   0.044
74973W        W40134  37.683   9.864   0.955
74974W        W40135  10.152   1.444  11.609
74975W        W40136  31.932  39.922  14.335
74976W        W40137  24.549  20.753  11.685
74977W        W40138  16.399  43.334   1.363
74978W        W40139  36.020  25.450   4.552
74979W        W40140  36.566  11.825  14.293
74980W        W40141  43.282  29.391  12.211
74981W        W40142  33.923   0.676  14.764
74982W        W40143  44.034  36.344   3.189
74983W        W40144   0.236  32.051  13.425
74984W        W40145  43.405  14.444   5.357
74985W        W40146  35.438  31.638  11.114
74986W        W40147  24.513   2.527  14.786
74987W        W40148  32.852   6.672  13.935
74988W        W40149  16.015   7.894   0.390
74989W        W40150  36.255  42.692  10.016
74990W        W40151  37.943  22.757   0.856
74991W        W40152  41.407  29.524  14.558
74992W        W40153  33.693  13.704   1.825
74993W        W40154  41.670  15.804   2.129
74994W        W40155   4.437   7.683   1.649
74995W        W40156  14.464   4.779   0.471
74996W        W40157  24.511  28.746   1.889
74997W        W40158  39.130  25.671  12.901
74998W        W40159  25.197  24.719   2.822
74999W        W40160  44.752  17.355  11.005
75000W        W40161   7.041  23.115  10.625
75001W        W40162  37.290  43.798   0.235
75002W        W40163  35.532   1.614  14.144
75003W        W40164  36.941  31.380   4.211
75004W        W40165  31.412  40.920  10.744
75005W        W40166   6.936  36.905   0.302
75006W        W40167  13.708  15.546  12.220
75007W        W40168  39.506  34.333  12.996
75008W        W40169  37.026  36.140   2.717
75009W        W40170  12.200  16.729   2.651
75010W        W40171   9.974   6.402   0.976
75011W        W40172  23.515  36.477   4.100
75012W        W40173  14.016  41.058   4.111
75013W        W40174  12.745  38.605  13.401
75014W        W40175  16.775   9.386   0.744
75015W        W40176  17.536  44.666   9.832
75016W        W40177  37.845  32.093   2.621
75017W        W40178  33.893   5.334   4.779
75018W        W40179  33.983   7.731   1.431
75019W        W40180  25.417  34.179   1.099
75020W        W40181  13.847  40.916  11.630
75021W        W40182  16.413  12.667   0.470
75022W        W40183  38.182  41.821  14.948
75023W        W40184   5.934  35.641   3.797
75024W        W40185   8.894  32.581  14.320
75025W        W40186   9.918  38.484  11.684
75026W        W40187   2.979  39.861  14.009
75027W        W40188  28.196  19.763   3.219
75028W        W40189   7.891  29.040  11.356
75029W        W40190  14.096  40.296  14.016
75030W        W40191   1.728   1.431  12.075
75031W        W40192  16.682  38.477  14.225
75032W        W40193  10.447  21.109  14.328
75033W        W40194  40.526  42.916  10.963
75034W        W40195  24.603  13.227   4.165
75035W        W40196   3.158   1.310   0.774
75036W        W40197  44.982   7.640  13.404
75037W        W40198  40.754   6.425   3.866
75038W        W40199  30.255  37.906   2.279
75039W        W40200  44.035  40.555   3.725
75040W        W40201  18.314  27.658   2.891
75041W        W40202   5.272  32.700  12.033
75042W        W40203  31.319  43.510  12.263
75043W        W40204   3.840  25.710  13.514
75044W        W40205  34.241  44.030  10.526
75045W        W40206  29.408  13.568   0.874
75046W        W40207  12.075   2.305  10.826
75047W        W40208  15.163   4.708   2.460
75048W        W40209  28.646  35.685  14.913
75049W        W40210  21.508  10.905   2.038
75050W        W40211   0.492   3.165   0.326
75051W        W40212  18.550  39.728   0.976
75052W        W40213  34.881  43.017   1.350
75053W        W40214   0.035  21.018  14.391
75054W        W40215   5.870  16.266   4.554
75055W        W40216  12.292  41.225   2.254
75056W        W40217  38.005  29.496   3.452
75057W        W40218   1.998   7.355   3.205
75058W        W40219   8.434  19.739  14.610
75059W        W40220  26.999  38.592  13.903
75060W        W40221  37.856  39.952  11.837
75061W        W40222  28.536  31.417   1.819
75062W        W40223  17.761  32.595  10.722
75063W        W40224  20.150  39.889  10.240
75064W        W40225  15.777  23.240   3.045
75065W        W40226  37.580  17.623  12.672
75066W        W40227  32.944  41.377   1.309
75067W        W40228  33.473  40.329   2.974
75068W        W40229   5.234   0.670   1.406
75069W        W40230   2.348  43.343  11.988
75070W        W40231  26.364   5.620  13.020
75071W        W40232  28.172  15.678   1.918
75072W        W40233  27.987  21.788   0.421
75073W        W40234   7.195  30.254   4.515
75074W        W40235  36.650  12.243  11.066
75075W        W40236   7.171  35.499   3.347
75076W        W40237   6.424  40.897  14.327
75077W        W40238   0.831  14.680   4.706
75078W        W40239  13.890  34.873   3.764
75079W        W40240  41.558  34.653  14.542
75080W        W40241   3.510  14.334   1.784
75081W        W40242  39.125  17.518  11.632
75082W        W40243  44.256  27.400  11.548
75083W        W40244  32.617  31.613  10.454
75084W        W40245  14.117  11.824   4.169
75085W        W40246  25.011  26.038   3.205
75086W        W40247   7.679  22.688   1.782
75087W        W40248  14.901  44.652   0.940
75088W        W40249  13.044  10.451  11.613
75089W        W40250  38.956  26.671   0.430
75090W        W40251   9.656   7.265  11.391
75091W        W40252  23.673  39.585  13.404
75092W        W40253  26.938  26.615   1.878
75093W        W40254  33.469  13.963  12.581
75094W        W40255  43.345  30.632  14.708
75095W        W40256  30.642  15.536  13.096
75096W        W40257   5.298   2.088  13.441
75097W        W40258   4.444  11.237   2.157
75098W        W40259  25.151  20.219  12.587
75099W        W40260   5.169  24.195   5.052
75100W        W40261  10.619  11.245  12.861
75101W        W40262   8.443   8.146  12.100
75102W        W40263  36.765  33.405  14.970
75103W        W40264  43.761  18.297   3.077
75104W        W40265   9.282  18.621  12.481
75105W        W40266  17.817  44.234   2.059
75106W        W40267  36.188  19.772   2.650
75107W        W40268  44.903  33.548   1.508
75108W        W40269   5.628   8.893   1.442
75109W        W40270   5.994  27.163   3.545
75110W        W40271   2.749   1.890  14.670
75111W        W40272   5.273  41.280  10.692
75112W        W40273  31.757  33.596   2.695
75113W        W40274  26.786  39.972   3.534
75114W        W40275  15.087   5.851   4.547
75115W        W40276  30.154  43.387   3.528
75116W        W40277  13.442  35.828   2.557
75117W        W40278  13.553  15.206  10.947
75118W        W40279  25.532   3.264  13.588
75119W        W40280   6.636   1.440  13.347
75120W        W40281  17.020  44.816   2.834
75121W        W40282  10.224  38.129   0.232
75122W        W40283   6.429  31.439   1.029
75123W        W40284   1.743  13.981   1.443
75124W        W40285  35.676  32.076  11.124
75125W        W40286  16.726  27.826   2.457
75126W        W40287  23.075  10.138  12.558
75127W        W40288   1.335  32.389   0.802
75128W        W40289   0.154  27.453  13.151
75129W        W40290  17.394  15.680  12.458
75130W        W40291  32.650  33.551   2.417
75131W        W40292  14.132  40.560   2.311
75132W        W40293   8.776  44.530   0.769
75133W        W40294  10.801   1.288   3.650
75134W        W40295  28.304  37.960   9.582
75135W        W40296  44.155  22.055   3.124
75136W        W40297  33.758  17.159   5.095
75137W        W40298  41.329  17.293  13.922
75138W        W40299  30.566  39.994   1.318
75139W        W40300  32.988   4.394   2.953
75140W        W40301  30.964   8.796  12.593
75141W        W40302  39.881  10.693   4.925
75142W        W40303  12.349  30.224  14.757
75143W        W40304  24.565   1.362  12.180
75144W        W40305   7.708  30.061  14.951
75145W        W40306  20.199  39.695   9.773
75146W        W40307  36.324  37.672  13.447
75147W        W40308  43.109  27.810  10.280
75148W        W40309   9.425  12.187   3.626
75149W        W40310  23.747  16.218  10.897
75150W        W40311  41.626  15.149   4.158
75151W        W40312  26.626  35.417   4.560
75152W        W40313   8.014  27.523  11.163
75153W        W40314  26.198   7.332   0.782
75154W        W40315  27.015   5.562   4.465
75155W        W40316   8.290  31.031  11.252
75156W        W40317  32.391  13.075  11.136
75157W        W40318  25.318   0.907   0.352
75158W        W40319  34.087   1.168  12.657
75159W        W40320  38.535  15.668  14.559
75160W        W40321  38.977   4.363  14.112
75161W        W40322  39.951  21.206   1.397
75162W        W40323  44.417  18.235  14.853
75163W        W40324  38.098  24.272   3.169
75164W        W40325  10.849  44.416   0.194
75165W        W40326  44.998  28.127   3.373
75166W        W40327  25.209  35.481   3.183
75167W        W40328   3.527  25.080  13.877
75168W        W40329  19.724  43.894   4.363
75169W        W40330  13.172   4.964  11.921
75170W        W40331   3.345  44.646  12.829
75171W        W40332   3.231  22.714   1.712
75172W        W40333  39.884  42.366  12.398
75173W        W40334  25.097  41.055   0.030
75174W        W40335  22.335  34.563   3.754
75175W        W40336  30.916   9.232  12.886
75176W        W40337  17.364  27.142   0.469
75177W        W40338  20.805  24.717  12.543
75178W        W40339  35.118  22.233   1.401
75179W        W40340  20.180  27.407  13.123
75180W        W40341  15.606  25.978   4.727
75181W        W40342   5.856  24.419  12.231
75182W        W40343  40.404   3.746  12.205
75183W        W40344  20.814  29.791  12.514
75184W        W40345  28.019  39.848   0.313
75185W        W40346  36.858   8.503  12.126
75186W        W40347  28.557  24.098  13.368
75187W        W40348   8.631  31.834  14.105
75188W        W40349  24.304  39.036   0.315
75189W        W40350  40.430  43.817  10.666
75190W        W40351  30.786  33.528   4.611
75191W        W40352  11.368  20.597   3.567
75192W        W40353  30.457   0.422   1.945
75193W        W40354   6.870   2.363   0.485
75194W        W40355   3.246  18.239  11.685
75195W        W40356   4.291  22.705   4.611
75196W        W40357  44.767  16.641   2.497
75197W        W40358  28.147  22.192   4.971
75198W        W40359  14.222  31.279   2.810
75199W        W40360   8.394  30.416   1.820
75200W        W40361  32.289  26.097  14.960
75201W        W40362   0.695  40.404  10.140
75202W        W40363  26.744  35.063  11.603
75203W        W40364  33.977  18.343  13.941
75204W        W40365  10.679   5.923  10.232
75205W        W40366  35.908  36.421   5.025
75206W        W40367  25.712  43.557  10.692
75207W        W40368  32.879  35.778   0.872
75208W        W40369  41.054  23.702  11.758
75209W        W40370  27.580  12.803   0.654
75210W        W40371  34.376  18.230  13.410
75211W        W40372  24.059  14.800   2.542
75212W        W40373  25.539  34.970  11.906
75213W        W40374  36.447  14.438  13.621
75214W        W40375  12.104  35.148   4.161
75215W        W40376  13.248  41.101  12.224
75216W        W40377   9.371  26.453  11.900
75217W        W40378  22.035  28.639   0.794
75218W        W40379   6.400  24.812   0.057
75219W        W40380  43.994   1.135   2.356
75220W        W40381  40.921  39.091  11.983
75221W        W40382  43.843  41.638   1.741
75222W        W40383  25.959  41.666  10.322
75223W        W40384   9.057  38.379  13.485
75224W        W40385   1.209   4.351   2.553
75225W        W40386   1.225  35.351  12.015
75226W        W40387  10.345  26.636   0.043
75227W        W40388  42.567  31.970  14.049
75228W        W40389  29.624   8.462   4.907
75229W        W40390  15.844   0.781   3.314
75230W        W40391  24.079  33.038  11.937
75231W        W40392  21.029  23.085   3.603
75232W        W40393  26.524  18.062  13.801
75233W        W40394  31.617  25.129   4.077
75234W        W40395  44.394  42.557  12.853
75235W        W40396  17.717  10.612  13.476
75236W        W40397  27.604   6.642  11.881
75237W        W40398   5.789   8.279  10.545
75238W        W40399   0.223  40.592   0.524
75239W        W40400  38.899  36.349  10.476
75240W        W40401  41.037  43.948   5.002
75241W        W40402  32.200  37.057  12.461
75242W        W40403  28.424  22.677  13.346
75243W        W40404  12.318  30.522   4.813
75244W        W40405   2.945  17.371  11.716
75245W        W40406  42.362  24.703   1.378
75246W        W40407  13.338  30.520   2.311
75247W        W40408  37.253   9.781   2.292
75248W        W40409  11.128  10.095  11.854
75249W        W40410   8.714  20.114   1.934
75250W        W40411  18.380  44.437  12.940
75251W        W40412  15.779  40.890   0.967
75252W        W40413  27.447  37.886  14.496
75253W        W40414  19.038  37.981  14.236
75254W        W40415   3.673  11.688   3.842
75255W        W40416  30.583  34.519   4.130
75256W        W40417  34.852  14.491  12.507
75257W        W40418  36.548  12.646   2.216
75258W        W40419  16.881  10.648  14.203
75259W        W40420   9.240   9.874  10.946
75260W        W40421   6.766  37.871  14.383
75261W        W40422  19.703  37.530   4.081
75262W        W40423  29.966  41.353  12.247
75263W        W40424  18.756  23.055   2.150
75264W        W40425   7.340  38.826  14.369
75265W        W40426  43.010   5.709  10.619
75266W        W40427  34.036  17.808   2.254
75267W        W40428  40.802  40.213  11.197
75268W        W40429  42.066  12.115   1.403
75269W        W40430  36.063   4.835  10.398
75270W        W40431   0.642  11.268   0.958
75271W        W40432  33.905  22.259  14.444
75272W        W40433   6.061  25.458  13.477
75273W        W40434  20.130   0.516  13.355
75274W        W40435  21.761  37.497   3.555
75275W        W40436  27.705  29.021  14.292
75276W        W40437  42.070   2.974   2.661
75277W        W40438   6.326  11.250   3.296
75278W        W40439  32.043   8.117   1.217
75279W        W40440   2.950   4.283   0.435
75280W        W40441  41.882  43.360   0.773
75281W        W40442  12.784   5.954  12.035
75282W        W40443  39.806   9.168   1.484
75283W        W40444  16.686   2.338  13.487
75284W        W40445  44.851  22.037  10.510
75285W        W40446   9.482  27.174   1.118
75286W        W40447  36.396  44.258  14.941
75287W        W40448  27.246   1.828   0.989
75288W        W40449   9.657  40.989   4.608
75289W        W40450   3.277  25.742  12.147
75290W        W40451  42.006  24.165  13.960
75291W        W40452  11.855  12.233   4.284
75292W        W40453  43.299  26.881   0.406
75293W        W40454  14.474  44.336  12.425
75294W        W40455  33.602  34.886   2.367
75295W        W40456  43.011  21.099   1.351
75296W        W40457  24.580  26.901  14.424
75297W        W40458   5.261  10.308   3.068
75298W        W40459   6.835  35.078  13.499
75299W        W40460  32.843  43.537   2.874
75300W        W40461  35.586  41.864   4.073
75301W        W40462  27.684  37.432  11.868
75302W        W40463  17.022  10.798  14.661
75303W        W40464  24.221  14.747  11.088
75304W        W40465  32.171  25.449   4.082
75305W        W40466  11.567  29.903   2.040
75306W        W40467  27.638   9.475   2.953
75307W        W40468  42.911  27.159   1.262
75308W        W40469  22.522  13.116  14.812
75309W        W40470  19.167  21.703   0.966
75310W        W40471  36.999  13.599  14.422
75311W        W40472  13.788   4.197   0.670
75312W        W40473  44.630  41.192   1.067
75313W        W40474  15.147  19.575   1.631
75314W        W40475  22.206  13.622  12.608
75315W        W40476  40.987  43.072  12.766
75316W        W40477  31.895  19.434   4.207
75317W        W40478  30.066  32.880  12.955
75318W        W40479  43.441  33.409   0.987
75319W        W40480   7.741  19.934   3.610
75320W        W40481  39.859  25.440   3.205
75321W        W40482  25.909  37.071   3.242
75322W        W40483  15.218  32.539  11.500
75323W        W40484  29.407  44.258   2.862
75324W        W40485  26.987  43.943  11.370
75325W        W40486  22.252  17.054  11.667
75326W        W40487  12.440   2.776   1.239
75327W        W40488  11.396  39.745   2.765
75328W        W40489  10.188   3.500  14.988
75329W        W40490  33.827  18.095   4.414
75330W        W40491  25.157  15.553  10.128
75331W        W40492  18.295  44.942   3.260
75332W        W40493  22.662  17.167   4.853
75333W        W40494   2.728  34.160   4.153
75334W        W40495   6.699   4.874   2.071
75335W        W40496  17.422  38.079   2.895
75336W        W40497  44.997  14.841  13.695
75337W        W40498  10.136  20.197   2.432
75338W        W40499  10.186  42.832  14.734
75339W        W40500  40.329  15.581   4.592
75340W        W40501  33.240  26.506  10.880
75341W        W40502  11.868  18.505  13.529
75342W        W40503  38.335   6.616  11.636
75343W        W40504  42.004  11.164   0.335
75344W        W40505   1.571  34.745   4.474
75345W        W40506  26.523  16.114  10.277
75346W        W40507  11.656  37.007  11.873
75347W        W40508  14.251  12.875   3.918
75348W        W40509  30.620   0.881   4.604
75349W        W40510  22.763  33.449  10.683
75350W        W40511  39.008  37.722   3.798
75351W        W40512  12.193  26.667   3.639
75352W        W40513   8.993  39.962  14.268
75353W        W40514  30.930  18.658   2.545
75354W        W40515  38.853  36.540   1.316
75355W        W40516  25.084  18.787  12.357
75356W        W40517   1.705  32.379   0.445
75357W        W40518  21.043  18.057   2.909
75358W        W40519  29.901  37.895   4.777
75359W        W40520  14.665   7.494  11.710
75360W        W40521  33.075  29.374   3.785
75361W        W40522  15.839  37.916  12.018
75362W        W40523   1.404  17.147  11.958
75363W        W40524  17.152  40.937  12.101
75364W        W40525  32.890  30.510   2.844
75365W        W40526  36.481   4.318   3.102
75366W        W40527  40.982   0.525  12.813
75367W        W40528  35.498  27.194   3.472
75368W        W40529  31.582  23.798  10.615
75369W        W40530  23.579  12.308   2.927
75370W        W40531  27.741   4.097  11.598
75371W        W40532  20.539  26.871  11.187
75372W        W40533  17.654  36.087   4.637
75373W        W40534  17.243  42.851   2.195
75374W        W40535  34.509   8.812   0.082
75375W        W40536   4.367  35.965   4.600
75376W        W40537  43.364  25.077  10.784
75377W        W40538  27.479   7.227   4.432
75378W        W40539  31.117  11.790  14.967
75379W        W40540  39.489   6.750   3.077
75380W        W40541   7.957  29.633  14.811
75381W        W40542  29.917  13.601   0.701
75382W        W40543  22.525  28.323  11.222
75383W        W40544  17.992  36.481   3.983
75384W        W40545  44.698   9.527  13.206
75385W        W40546  27.472   8.958   3.077
75386W        W40547  42.647  36.730   3.798
75387W        W40548  23.940  21.252   3.113
75388W        W40549  34.289  33.516  11.138
75389W        W40550  15.684  38.863   1.821
75390W        W40551  28.505   9.842   0.674
75391W        W40552  24.810  22.206   1.820
75392W        W40553  32.420  37.611   1.894
75393W        W40554  27.867   7.727  10.314
75394W        W40555  40.945  17.299   0.894
75395W        W40556   0.366  19.116   4.410
75396W        W40557  36.101  27.573  10.504
75397W        W40558  42.842  31.372  11.480
75398W        W40559  24.618  22.579  13.441
75399W        W40560   0.275  41.313  10.578
75400W        W40561   3.145   8.124   3.066
75401W        W40562  18.532  29.614   1.303
75402W        W40563   0.902  35.344  14.554
75403W        W40564  10.801  26.444   5.025
75404W        W40565  40.932  41.215  12.485
75405W        W40566  25.767   3.860   0.234
75406W        W40567  29.110  13.909   4.160
75407W        W40568  44.033  15.330   1.408
75408W        W40569  16.428  10.876  14.366
75409W        W40570  43.791  12.264   3.175
75410W        W40571  33.903  17.399  14.535
75411W        W40572  42.234  16.236   0.931
75412W        W40573  16.862   1.582   0.462
75413W        W40574  24.974  30.913  14.422
75414W        W40575   8.421   8.802   2.493
75415W        W40576  33.972  18.141   3.268
75416W        W40577  29.213  18.154  12.391
75417W        W40578   9.183  42.918  11.535
75418W        W40579  11.682  42.252   2.686
75419W        W40580  41.049  11.625  14.836
75420W        W40581   0.693  25.486   5.041
75421W        W40582  17.765  23.616   0.207
75422W        W40583   0.492  10.145  10.166
75423W        W40584  35.395  22.588  12.946
75424W        W40585  28.954  24.304  10.774
75425W        W40586  28.478   0.757  14.894
75426W        W40587  34.867  22.584   3.138
75427W        W40588   3.927  43.698  12.935
75428W        W40589  13.259  41.655  12.915
75429W        W40590  44.025   9.885   0.863
75430W        W40591  24.485  19.334   3.641
75431W        W40592  42.327  44.846   1.838
75432W        W40593  30.014  28.678  10.975
75433W        W40594  11.597  20.684   4.024
75434W        W40595  21.570  21.322   1.950
75435W        W40596  16.001  10.714  13.778
75436W        W40597  38.164   5.240   1.186
75437W        W40598  36.239   0.722   0.489
75438W        W40599  23.680  29.945   2.475
75439W        W40600  24.170  20.291   0.301
75440W        W40601  19.219  38.894   2.363
75441W        W40602  29.246  15.086  14.490
75442W        W40603  21.923  11.212   2.221
75443W        W40604  37.390   1.413  14.468
75444W        W40605  19.606  19.297   2.392
75445W        W40606  12.639  27.660  12.164
75446W        W40607  44.460  43.879   1.899
75447W        W40608  42.131  19.709  11.648
75448W        W40609  39.922  15.251  12.263
75449W        W40610  15.203  30.524   1.186
75450W        W40611   4.976  25.074   2.248
75451W        W40612   7.203   5.691   2.218
75452W        W40613  22.356  17.985   5.190
75453W        W40614   1.071   4.382   0.996
75454W        W40615   9.397   6.151  14.054
75455W        W40616  14.116   6.565  11.831
75456W        W40617  42.309  13.107   4.128
75457W        W40618  42.500  38.953  10.977
75458W        W40619  39.613  14.964  14.486
75459W        W40620  13.607   9.943  14.188
75460W        W40621  34.245  18.136  12.921
75461W        W40622   2.949  35.050  11.928
75462W        W40623  16.054  11.648  14.019
75463W        W40624   1.925  40.474   0.277
75464W        W40625  14.101  38.289  10.628
75465W        W40626  25.256  14.507   3.999
75466W        W40627   1.548  25.544   4.054
75467W        W40628  19.813  12.161  10.695
75468W        W40629   3.419  11.090  11.379
75469W        W40630  26.541   8.665  12.862
75470W        W40631  20.418  11.125   4.415
75471W        W40632  10.672  24.999   1.736
75472W        W40633  25.223  17.507   4.574
75473W        W40634   5.259  15.495   0.695
75474W        W40635   1.296  30.374  13.838
75475W        W40636  39.841   9.389  11.720
75476W        W40637   9.824   4.387   2.768
75477W        W40638  21.651  21.029  12.356
75478W        W40639  18.425  20.961   4.051
75479W        W40640   1.618  26.292   5.035
75480W        W40641  29.061   3.714   3.161
75481W        W40642  26.962  18.083  12.040
75482W        W40643  26.725  22.733  12.632
75483W        W40644  15.205  20.988  10.897
75484W        W40645  24.160  42.962   4.139
75485W        W40646  32.897   7.163   3.491
75486W        W40647  37.533  26.835  12.556
75487W        W40648  31.271  23.212   3.322
75488W        W40649  35.678  17.666   3.534
75489W        W40650  35.583  26.901  11.083
75490W        W40651  44.547  38.809   4.473
75491W        W40652  15.238   5.268  10.471
75492W        W40653  41.044   0.317  14.499
75493W        W40654   6.818  22.493   2.805
75494W        W40655  22.630  12.214   0.866
75495W        W40656  22.931   4.499   4.115
75496W        W40657  23.854   2.817  11.301
75497W        W40658   7.195   6.201   2.699
75498W        W40659   3.002   3.634   1.161
75499W        W40660  29.170  20.187  12.568
75500W        W40661   5.964  37.536   2.648
75501W        W40662  25.853   5.652   0.436
75502W        W40663   9.991  37.557  10.276
75503W        W40664  28.747  32.411  12.971
75504W        W40665  24.700   6.849   1.904
75505W        W40666  28.622  35.055   1.738
75506W        W40667  28.464  41.695   2.365
75507W        W40668  29.994  27.886   1.233
75508W        W40669  35.155   5.713   0.822
75509W        W40670  15.799  31.149  12.974
75510W        W40671   6.842  13.908  13.481
75511W        W40672  23.779  17.296  12.513
75512W        W40673  44.814   8.205  14.437
75513W        W40674   4.194  10.319  11.842
75514W        W40675  22.275   2.797  10.766
75515W        W40676   5.898  26.355   0.685
75516W        W40677  40.007  28.420   1.410
75517W        W40678   5.105  44.604   0.246
75518W        W40679  30.211  36.348   3.735
75519W        W40680  18.639  41.413   3.322
75520W        W40681  29.666   9.154   1.403
75521W        W40682  12.460  11.626  11.203
75522W        W40683  12.352  39.484  12.003
75523W        W40684  39.544  15.225   0.476
75524W        W40685  22.128  34.123   4.028
75525W        W40686  44.744  17.713  12.841
75526W        W40687  25.780  42.390   0.321
75527W        W40688   8.358   7.694  13.748
75528W        W40689  35.933  12.610   2.369
75529W        W40690   2.504  16.598  13.284
75530W        W40691  23.950  23.474   1.729
75531W        W40692  17.483  26.453   4.547
75532W        W40693  19.850  40.950  12.972
75533W        W40694  16.756   2.205   1.870
75534W        W40695  17.397  30.667  10.684
75535W        W40696  38.482  10.499   4.374
75536W        W40697  10.755  26.990   4.502
75537W        W40698  11.175  12.330   3.671
75538W        W40699  12.086  25.550   0.960
75539W        W40700   1.843  10.290   4.619
75540W        W40701  11.761  31.606   4.630
75541W        W40702   7.490   4.423   4.246
75542W        W40703  33.641   3.933   4.179
75543W        W40704  16.231   7.386  10.603
75544W        W40705  38.855   9.349   3.833
75545W        W40706  18.168  25.589  14.951
75546W        W40707  29.029  34.582  13.325
75547W        W40708  19.469  41.354   1.043
75548W        W40709  14.783  14.859  11.975
75549W        W40710  16.450   8.479   1.746
75550W        W40711  37.432   5.309  10.670
75551W        W40712  14.700  16.819   1.161
75552W        W40713  31.493  15.806  11.044
75553W        W40714  16.712  13.245   0.046
75554W        W40715   4.873  23.205  14.385
75555W        W40716  34.067  38.325  13.408
75556W        W40717  23.000  32.611  10.522
75557W        W40718  36.885  33.855   3.302
75558W        W40719  12.204  41.516   1.843
75559W        W40720   5.187  34.561   3.288
75560W        W40721  18.767  34.933  12.038
75561W        W40722  32.030   2.089   3.522
75562W        W40723   3.988  11.176  13.819
75563W        W40724  18.013   7.202  12.831
75564W        W40725   0.781   6.950  11.982
75565W        W40726  19.269  36.402   0.915
75566W        W40727  41.929   2.343   3.786
75567W        W40728  38.957  12.231   0.502
75568W        W40729   9.166  43.065  14.119
75569W        W40730  25.354   1.739  11.122
75570W        W40731  13.096  40.996  13.950
75571W        W40732  34.147  30.970   2.963
75572W        W40733  27.732   8.736  14.975
75573W        W40734  23.993  23.079   1.334
75574W        W40735  17.989  22.566  14.805
75575W        W40736   7.375  17.273   4.273
75576W        W40737  28.416  14.887  13.585
75577W        W40738   6.320  22.891  13.171
75578W        W40739  24.422  31.002  13.341
75579W        W40740  20.840  15.526   0.921
75580W        W40741  30.639  20.159  11.029
75581W        W40742   3.867  35.367   2.902
75582W        W40743   4.246   4.273   1.623
75583W        W40744  12.022   4.983  13.943
75584W        W40745   3.063   1.871   2.373
75585W        W40746  10.377  39.133   3.709
75586W        W40747  35.930  37.899   4.908
75587W        W40748  39.425  18.133   4.609
75588W        W40749  13.485  15.085  12.174
75589W        W40750  13.668  23.953   0.762
75590W        W40751  26.969  36.602  12.631
75591W        W40752  35.374  29.974  12.863
75592W        W40753   0.756  30.634   3.647
75593W        W40754  32.777  26.172   0.000
75594W        W40755  24.945  27.574   3.935
75595W        W40756  30.438  44.735   2.712
75596W        W40757   0.450   7.460   3.264
75597W        W40758  20.804   1.811  12.457
75598W        W40759  11.601  15.542   2.363
75599W        W40760  10.513  14.090  13.498
75600W        W40761   4.916   8.355   1.747
75601W        W40762  26.939  22.750   4.180
75602W        W40763   7.457  15.352   3.391
75603W        W40764  11.614  18.626   1.121
75604W        W40765  42.927  36.517  13.078
75605W        W40766  16.791  25.608  13.381
75606W        W40767  44.760  41.868  13.345
75607W        W40768  32.577   6.904   0.228
75608W        W40769  28.017  29.568  10.466
75609W        W40770  23.773  19.544  13.608
75610W        W40771  28.335  39.444  11.571
75611W        W40772  10.262  20.841  13.012
75612W        W40773  10.149   0.697  14.443
75613W        W40774  24.416  38.670   2.262
75614W        W40775   6.791  21.888  13.973
75615W        W40776  44.734  38.146   0.284
75616W        W40777  37.340  23.023  10.769
75617W        W40778  24.559  31.540   3.955
75618W        W40779   9.390  44.994  14.717
75619W        W40780  39.614  37.934   1.194
75620W        W40781  40.448  16.434   0.117
75621W        W40782  32.816  19.308  13.723
75622W        W40783   4.166  39.852  10.751
75623W        W40784  11.326  34.109  13.428
75624W        W40785  33.553  36.952  14.538
75625W        W40786  14.793   3.424   2.419
75626W        W40787  29.757  24.846  12.641
75627W        W40788  42.021   6.314  13.782
75628W        W40789   7.185   3.783   2.321
75629W        W40790  37.656   6.400   1.291
75630W        W40791  40.919  24.722   0.889
75631W        W40792  10.079  30.506   4.121
75632W        W40793   9.617  40.397  14.835
75633W        W40794  29.191  17.657  11.006
75634W        W40795  21.714   5.097  10.632
75635W        W40796   2.868  40.816   0.005
75636W        W40797  40.427  15.609  14.413
75637W        W40798  25.938  33.706  11.464
75638W        W40799  27.350  36.995   2.837
75639W        W40800  18.114  16.749   2.237
75640W        W40801  20.157  10.967   2.691
75641W        W40802   3.698  15.007   2.850
75642W        W40803   0.823   1.710   4.940
75643W        W40804  37.360  35.374   4.374
75644W        W40805  29.156  43.411   2.744
75645W        W40806  44.769  42.338   4.180
75646W        W40807   5.389  37.801   1.716
75647W        W40808  13.283  27.573   2.721
75648W        W40809   7.481  37.031   3.089
75649W        W40810  31.598   6.875  14.792
75650W        W40811  28.035  30.015  10.743
75651W        W40812  11.555  20.592   3.073
75652W        W40813  20.141  10.102   4.939
75653W        W40814   4.893  16.713  13.187
75654W        W40815   3.447   7.692   2.901
75655W        W40816  27.799  18.212   3.314
75656W        W40817  35.126  15.282   1.226
75657W        W40818  10.093   3.358  12.883
75658W        W40819  42.960  12.135  10.680
75659W        W40820  12.163  29.474   0.253
75660W        W40821   1.959   8.901   4.075
75661W        W40822   3.433  25.908   0.765
75662W        W40823   2.555  17.239   9.698
75663W        W40824   5.058  14.634   2.796
75664W        W40825  21.792  14.821   4.070
75665W        W40826   3.856   1.658  13.879
75666W        W40827   5.815  26.047  14.051
75667W        W40828   9.175  25.199   2.276
75668W        W40829  14.165   8.623  10.613
75669W        W40830  40.610  10.313   4.169
75670W        W40831  27.273  34.081   2.636
75671W        W40832  36.902  16.538  14.006
75672W        W40833  22.141   6.247  13.057
75673W        W40834  11.310  41.052   3.146
75674W        W40835  17.580  15.030   2.738
75675W        W40836   8.693  30.154   2.196
75676W        W40837   1.787  25.297  10.527
75677W        W40838   4.349  15.783  12.950
75678W        W40839  19.799   0.686  12.674
75679W        W40840  10.827  37.909  12.364
75680W        W40841  27.764  33.084   0.004
75681W        W40842  22.717  13.846   0.399
75682W        W40843   3.302  33.065  10.291
75683W        W40844  38.986  23.519  10.737
75684W        W40845  12.749  42.971   0.482
75685W        W40846  21.694  29.994   2.668
75686W        W40847  21.777  37.982  12.618
75687W        W40848  18.065  35.446   0.468
75688W        W40849  34.333  36.265   4.211
75689W        W40850  11.679  44.628   0.711
75690W        W40851   6.225  10.746   3.340
75691W        W40852  12.118  28.002   4.472
75692W        W40853  21.547  39.557   0.329
75693W        W40854  34.795  15.091  12.168
75694W        W40855  34.437  21.380   2.066
75695W        W40856  17.707   9.329   2.228
75696W        W40857  26.409  37.089   1.629
75697W        W40858  38.919  30.448   3.964
75698W        W40859  33.917   6.737   4.292
75699W        W40860  22.836  27.575  13.178
75700W        W40861  22.102  17.081   2.215
75701W        W40862  18.308  13.991  11.174
75702W        W40863  10.634  10.719  11.490
75703W        W40864  14.500  39.034   4.480
75704W        W40865   4.770  23.004   0.767
75705W        W40866   7.673   8.518  11.514
75706W        W40867  11.048   8.746  12.089
75707W        W40868  25.817  41.533   2.716
75708W        W40869  43.153  16.627  12.995
75709W        W40870  21.865  38.567  11.039
75710W        W40871  42.865  43.890   0.403
75711W        W40872  36.446   1.384   4.143
75712W        W40873   4.225  21.222   0.939
75713W        W40874  25.996  22.750  13.790
75714W        W40875  25.945  44.536   4.287
75715W        W40876  21.656  16.797   2.570
75716W        W40877  37.357  37.656  13.374
75717W        W40878  15.791  15.555   0.663
75718W        W40879  33.407  17.315   2.741
75719W        W40880  35.877  16.712  11.938
75720W        W40881   2.385   8.128  10.761
75721W        W40882  42.931  42.942   0.363
75722W        W40883  20.127  44.794  11.486
75723W        W40884  30.524   5.012  13.998
75724W        W40885  34.003  20.526  13.508
75725W        W40886  13.063   4.432   4.424
75726W        W40887  36.391   3.918   3.440
75727W        W40888   2.601  15.614   4.189
75728W        W40889  16.366  24.046   0.408
75729W        W40890  22.696  41.915   2.369
75730W        W40891  43.488   5.266   2.280
75731W        W40892  37.868  29.109   1.943
75732W        W40893   1.944  37.770  12.058
75733W        W40894  39.590   2.950   0.864
75734W        W40895  30.642  20.039  11.923
75735W        W40896  34.353  34.942   2.254
75736W        W40897  20.131  14.405  11.744
75737W        W40898  20.960   2.824  11.210
75738W        W40899  10.191  19.816   1.612
75739W        W40900  32.437  25.702  13.558
75740W        W40901  15.642  20.321  13.053
75741W        W40902  29.699  28.101  13.317
75742W        W40903  41.800  22.780   2.372
75743W        W40904  38.384   7.727   4.152
75744W        W40905  30.408  15.527  14.963
75745W        W40906  25.884  17.403  13.889
75746W        W40907   1.945  16.695   4.489
75747W        W40908  28.467  39.595  12.473
75748W        W40909  19.600  35.014  13.198
75749W        W40910  31.359  10.149  13.891
75750W        W40911  16.458  36.175   2.330
75751W        W40912  12.679  37.120   0.267
75752W        W40913  20.227  39.835   2.385
75753W        W40914   0.422   6.742   4.045
75754W        W40915  33.020  28.411  13.899
75755W        W40916  37.309  25.374   4.951
75756W        W40917  27.168   8.369  12.099
75757W        W40918  25.100  33.966   1.467
75758W        W40919  25.421   9.251  14.345
75759W        W40920  28.266  38.639   4.266
75760W        W40921  41.420  43.225   4.537
75761W        W40922   8.300  41.819   3.327
75762W        W40923  12.838  33.477   4.094
75763W        W40924  41.086  22.248  11.316
75764W        W40925  38.844  26.022  12.661
75765W        W40926  15.390  36.543   3.152
75766W        W40927  13.558  11.653  10.380
75767W        W40928  39.154   1.903   3.645
75768W        W40929  30.930  39.636   0.188
75769W        W40930  34.997  22.036   3.812
75770W        W40931  43.224  10.559  13.020
75771W        W40932  12.915  43.933   4.735
75772W        W40933  43.337  39.534   1.198
75773W        W40934  39.402  23.101  13.096
75774W        W40935  17.512  21.951  11.190
75775W        W40936  43.763  10.935   1.957
75776W        W40937  44.792  44.330   3.637
75777W        W40938  18.329  23.554   2.782
75778W        W40939  37.764   6.851   4.108
75779W        W40940  35.370  28.633  13.129
75780W        W40941   3.525  21.610  14.770
75781W        W40942  12.265   0.728  14.853
75782W        W40943  39.823  27.472   0.365
75783W        W40944  17.922  17.248  12.197
75784W        W40945  33.126  37.121   3.828
75785W        W40946   5.860   3.702   4.028
75786W        W40947  24.097  17.063   0.646
75787W        W40948  25.471  31.570  12.001
75788W        W40949  36.120  25.596  14.899
75789W        W40950  31.678   4.987  14.446
75790W        W40951  28.552  36.898   0.996
75791W        W40952  23.424  43.546   1.418
75792W        W40953   3.945  24.548  11.082
75793W        W40954  41.811  10.397  12.967
75794W        W40955  18.193  20.416   0.624
75795W        W40956   1.395  27.707  11.903
75796W        W40957  36.379   4.755   2.175
75797W        W40958  41.898  26.226  10.541
75798W        W40959  22.226  15.140   0.522
75799W        W40960  15.642  36.732  13.774
75800W        W40961  39.109   4.812  11.582
75801W        W40962   5.764  40.346  12.068
75802W        W40963  16.525  22.096  11.169
75803W        W40964   1.941  39.536   3.226
75804W        W40965  28.898  39.305  12.447
75805W        W40966  29.429  26.060   3.263
75806W        W40967   7.049   2.764  11.138
75807W        W40968  12.748   7.292   2.262
75808W        W40969  44.706   1.524  13.568
75809W        W40970  32.619  40.057  12.142
75810W        W40971   0.815  42.462  13.993
75811W        W40972  21.044  39.600   0.451
75812W        W40973  29.664  30.518   3.687
75813W        W40974   3.306  27.107  14.817
75814W        W40975   2.698  36.159  11.111
75815W        W40976   4.726  18.708   1.874
75816W        W40977  17.890   6.130  14.148
75817W        W40978  18.750   3.728  10.544
75818W        W40979  25.866  22.706  12.444
75819W        W40980  15.539  39.420   3.180
75820W        W40981   8.232   3.204   1.053
75821W        W40982  19.227  39.845   2.868
75822W        W40983  18.047  28.990  11.084
75823W        W40984   5.206  22.078   0.046
75824W        W40985  20.545   1.997   3.217
75825W        W40986  39.799  44.116   2.926
75826W        W40987  34.852  19.867  12.036
75827W        W40988  44.391   0.038  14.110
75828W        W40989   1.963  40.825   2.830
75829W        W40990  20.663  35.877  11.597
75830W        W40991   7.798  38.265   1.419
75831W        W40992  39.408   6.315   1.748
75832W        W40993  27.883  11.312  13.305
75833W        W40994   3.137  25.518  12.590
75834W        W40995  44.567  39.552   2.315
75835W        W40996   2.245  35.080  10.696
75836W        W40997  23.999  17.417   0.290
75837W        W40998  23.952  35.477  14.939
75838W        W40999  14.081  33.092   3.749
75839W        W41000  32.251  37.702  10.713
75840W        W41001  17.667  24.570  14.932
75841W        W41002  18.012  19.497  11.890
75842W        W41003   8.074  27.393  12.391
75843W        W41004  31.380  33.718  11.531
75844W        W41005  11.567  39.066   4.022
75845W        W41006  23.499  40.307   4.471
75846W        W41007  41.447  27.253   1.644
75847W        W41008  41.877  16.397  12.863
75848W        W41009  26.191  41.693   1.239
75849W        W41010  21.074  10.994  12.480
75850W        W41011  32.969  30.107   0.792
75851W        W41012  34.988  20.607   3.217
75852W        W41013   1.828  15.648   4.491
75853W        W41014  36.417  28.675   4.113
75854W        W41015  35.624   4.548   1.278
75855W        W41016  33.053  10.087  12.398
75856W        W41017   2.953  26.388  12.409
75857W        W41018   4.174  24.432   3.753
75858W        W41019  44.413  30.087  13.905
75859W        W41020  30.660  29.358   3.640
75860W        W41021  28.732  19.421  13.180
75861W        W41022  16.768  27.229  12.149
75862W        W41023   4.283  24.949   0.764
75863W        W41024  42.581  42.990  14.475
75864W        W41025  28.584  34.979   3.132
75865W        W41026   4.364  23.190   2.696
75866W        W41027  20.290  10.926  14.295
75867W        W41028  42.282  36.449  13.896
75868W        W41029  20.247  36.026  10.660
75869W        W41030  23.701  31.024   1.260
75870W        W41031   9.532  41.514  13.498
75871W        W41032   4.714  21.041   0.258
75872W        W41033   0.224  10.235  10.605
75873W        W41034  24.362  36.772   0.954
75874W        W41035  44.936  22.710   0.463
75875W        W41036  38.423  36.216   1.355
75876W        W41037  24.861  36.761   0.802
75877W        W41038  43.908   3.219   4.984
75878W        W41039  30.670   7.628   0.257
75879W        W41040  22.151  20.280  12.870
75880W        W41041  29.178  14.565   1.431
75881W        W41042   5.086  15.674  12.450
75882W        W41043  31.135   5.186  13.435
75883W        W41044  38.323  39.951   4.569
75884W        W41045   0.795  44.852   3.125
75885W        W41046  26.032  17.833   4.203
75886W        W41047  28.624  15.996   3.666
75887W        W41048  31.483  29.012   3.020
75888W        W41049   9.283  28.636   3.599
75889W        W41050   1.330  14.795  11.170
75890W        W41051  28.917  24.213   3.096
75891W        W41052  42.432  34.105  10.533
75892W        W41053  39.329  35.935   1.405
75893W        W41054  40.868   0.815   1.906
75894W        W41055  24.113  13.547  13.788
75895W        W41056   6.442  10.301   0.758
75896W        W41057  18.678  41.122  10.599
75897W        W41058  21.510  43.144   0.221
75898W        W41059  33.039  24.458  13.397
75899W        W41060  16.596  11.279   1.388
75900W        W41061  17.549  28.531  14.573
75901W        W41062  35.614  10.658   1.953
75902W        W41063  38.043  15.495   2.745
75903W        W41064   9.146  39.324  13.331
75904W        W41065  34.972  17.178  13.831
75905W        W41066  17.912  41.131   5.458
75906W        W41067  26.306  32.506   2.413
75907W        W41068  41.573   2.669  12.394
75908W        W41069  42.067   3.654   0.893
75909W        W41070  29.645  40.820  11.094
75910W        W41071  34.786  33.277   2.832
75911W        W41072  13.678  37.738  13.890
75912W        W41073  27.623  41.827  12.191
75913W        W41074  43.341   4.336   2.416
75914W        W41075  44.995  25.706  13.120
75915W        W41076   0.881  43.564  11.427
75916W        W41077  28.441  32.166   3.295
75917W        W41078  27.677  14.612  12.949
75918W        W41079  43.597   4.804   0.305
75919W        W41080  17.490   5.594  14.568
75920W        W41081  15.667  11.886  13.344
75921W        W41082  27.011  26.563  10.780
75922W        W41083  29.413   7.516  12.599
75923W        W41084   1.455  10.253  14.864
75924W        W41085  19.708  25.259   2.691
75925W        W41086  28.564  11.352   1.782
75926W        W41087  25.122  18.078   2.730
75927W        W41088  24.086   1.465  14.485
75928W        W41089   4.705  11.118   3.616
75929W        W41090   4.644  17.504   4.175
75930W        W41091  40.599   5.902   4.900
75931W        W41092  40.467  35.462   0.921
75932W        W41093  28.206   2.219  10.721
75933W        W41094   3.979   3.370  10.658
75934W        W41095  14.612  41.902  12.788
75935W        W41096  27.367  27.558  12.949
75936W        W41097  17.123  18.649  10.692
75937W        W41098  15.679  31.948  12.521
75938W        W41099   4.700   8.810   3.759
75939W        W41100  16.583  37.875  11.514
75940W        W41101  26.945  21.224   4.864
75941W        W41102  37.903  10.317  11.952
75942W        W41103  30.942   1.223   3.270
75943W        W41104  19.792  27.652   0.473
75944W        W41105   1.515   2.927   2.712
75945W        W41106  13.942  26.161   1.823
75946W        W41107  33.739  10.196   4.237
75947W        W41108  29.720  14.803  12.034
75948W        W41109  32.060  29.146  14.482
75949W        W41110  16.178  16.058  11.667
75950W        W41111  18.130  34.692  10.663
75951W        W41112  38.999  13.394   4.477
75952W        W41113  33.360  21.376  11.130
75953W        W41114  43.771   8.226   3.794
75954W        W41115   9.125  40.906   4.658
75955W        W41116  44.555   3.291  14.642
75956W        W41117  39.506  38.759  11.956
75957W        W41118   1.284  20.929  13.555
75958W        W41119  11.821  37.760   1.814
75959W        W41120  38.843  42.087   2.015
75960W        W41121  28.936  43.883   2.644
75961W        W41122   5.681  32.625   4.514
75962W        W41123  21.638  29.535  14.500
75963W        W41124  24.034  14.364  13.430
75964W        W41125  39.830  22.895  10.956
75965W        W41126   3.513  41.129   0.252
75966W        W41127  24.754   5.262   4.106
75967W        W41128  29.469  23.254  14.921
75968W        W41129  41.884  20.183  11.708
75969W        W41130  10.143  27.713   2.838
75970W        W41131  12.896   6.300  11.410
75971W        W41132   4.858  41.011   0.793
75972W        W41133  41.277  20.530   3.172
75973W        W41134   6.247   6.694   1.957
75974W        W41135  29.760  28.895  10.015
75975W        W41136  14.695  35.707  11.235
75976W        W41137  28.449  38.836  11.188
75977W        W41138  41.672  36.834  11.862
75978W        W41139  23.613   1.249  14.589
75979W        W41140  34.627  27.800  10.777
75980W        W41141  22.048  20.794   0.813
75981W        W41142  36.957  43.179   3.148
75982W        W41143  15.312  12.621   2.855
75983W        W41144   2.211   3.420  14.963
75984W        W41145  29.786  14.046   1.686
75985W        W41146  22.132  26.012  13.552
75986W        W41147  22.858  19.851  13.840
75987W        W41148  22.703  27.620   3.851
75988W        W41149  24.918  39.410  11.738
75989W        W41150  17.782  26.963   2.093
75990W        W41151  36.843  16.342  12.875
75991W        W41152  12.634  29.459   4.691
75992W        W41153   4.422  34.999   3.402
75993W        W41154  30.368   9.555  11.638
75994W        W41155   2.906  37.322  11.074
75995W        W41156  35.859  25.157  14.888
75996W        W41157  39.028  23.671  14.831
75997W        W41158  37.500  24.067   5.007
75998W        W41159   4.798  28.505  12.068
75999W        W41160  39.095   6.300   0.381
76000W        W41161   7.777  44.498  14.232
76001W        W41162  25.670  13.595   1.808
76002W        W41163   8.333   1.412   3.596
76003W        W41164  14.570  21.671   4.597
76004W        W41165  40.570   1.882   1.554
76005W        W41166  18.617  37.382  11.195
76006W        W41167  10.870   8.018   1.355
76007W        W41168  35.462  31.546   2.754
76008W        W41169  20.844   3.431   3.717
76009W        W41170  21.497  34.913  13.806
76010W        W41171   9.775  18.266   1.242
76011W        W41172  18.101  13.104  13.966
76012W        W41173  29.182  35.874  14.903
76013W        W41174  15.296  12.109   2.893
76014W        W41175  28.700  24.709   0.774
76015W        W41176  29.538  28.203  10.530
76016W        W41177  36.825  13.312   3.197
76017W        W41178  10.414  32.658   0.525
76018W        W41179  13.141  10.962  11.604
76019W        W41180  11.759   0.519  12.992
76020W        W41181  15.855  22.359  13.896
76021W        W41182  17.278  12.059  12.889
76022W        W41183   7.081  13.740  13.004
76023W        W41184  12.424  38.850  11.102
76024W        W41185  39.656   6.571  14.565
76025W        W41186   8.062  26.086   1.235
76026W        W41187   0.659  12.862  14.069
76027W        W41188  24.184  27.630   4.619
76028W        W41189  35.070  42.755   0.952
76029W        W41190  14.232   0.538  12.931
76030W        W41191  14.126  27.378   4.172
76031W        W41192  38.478  20.564  14.379
76032W        W41193  28.622  44.457   0.470
76033W        W41194  22.143  19.207   1.273
76034W        W41195  20.055  39.746   4.631
76035W        W41196  33.379  12.147   4.024
76036W        W41197  40.251   6.757  13.324
76037W        W41198   7.204  18.560  13.900
76038W        W41199  43.722  43.055   2.736
76039W        W41200   6.105  37.471   4.182
76040W        W41201  13.999  34.551   3.374
76041W        W41202  18.250  23.740   4.761
76042W        W41203  14.191  10.755  13.849
76043W        W41204  24.486  26.571  11.969
76044W        W41205  19.144  20.307   0.167
76045W        W41206  17.283  43.786  13.241
76046W        W41207  43.455  18.253   0.868
76047W        W41208  34.105  30.152  12.650
76048W        W41209  23.037  20.724  10.296
76049W        W41210  42.321  37.474   5.063
76050W        W41211   1.861  17.072  11.056
76051W        W41212  26.722   3.311  11.254
76052W        W41213  10.216  14.084   1.945
76053W        W41214  26.524   4.364   4.526
76054W        W41215   0.428  10.255  14.796
76055W        W41216  21.108  38.802  11.473
76056W        W41217   7.670  31.256  11.458
76057W        W41218  29.412  21.957   3.286
76058W        W41219  15.953   3.849   4.557
76059W        W41220   3.391  28.426   1.179
76060W        W41221  14.517   6.265  14.012
76061W        W41222  32.802  15.714   1.953
76062W        W41223  34.918  19.257   1.600
76063W        W41224  24.463  39.998  13.431
76064W        W41225  25.797  14.118  10.753
76065W        W41226  21.141   8.935  14.425
76066W        W41227   7.743  42.516   1.823
76067W        W41228  17.542  19.052   3.142
76068W        W41229  38.950  28.433   0.897
76069W        W41230   5.170  32.431  14.451
76070W        W41231  30.537  10.266   3.574
76071W        W41232  19.857  35.979  12.147
76072W        W41233  20.550  10.849  12.122
76073W        W41234  30.603  39.284  11.463
76074W        W41235  25.718  31.419   2.921
76075W        W41236   6.211  12.427  12.903
76076W        W41237  23.743  35.774  12.896
76077W        W41238  25.547  11.100   2.206
76078W        W41239   7.638  17.322   2.857
76079W        W41240  30.417   2.480  13.904
76080W        W41241   6.849  40.839   1.836
76081W        W41242  20.051  22.668   0.786
76082W        W41243  39.360  23.291   0.075
76083W        W41244  23.802  39.410  13.906
76084W        W41245  11.606  27.883   3.630
76085W        W41246  34.564  40.087  14.322
76086W        W41247  13.330  36.150   1.661
76087W        W41248   1.353  26.449   1.262
76088W        W41249  31.975   0.410   4.616
76089W        W41250  14.320  28.546  12.045
76090W        W41251   9.563  12.805  13.820
76091W        W41252  27.068   2.125   2.376
76092W        W41253  39.430  31.987   3.975
76093W        W41254  21.544  24.233  12.537
76094W        W41255  27.514  31.831  14.474
76095W        W41256   6.378  43.423  11.949
76096W        W41257  39.599  44.392   2.218
76097W        W41258  41.014  32.728   0.463
76098W        W41259  27.063  42.829  11.699
76099W        W41260  14.999  36.604   1.368
76100W        W41261   7.071  29.528  12.365
76101W        W41262  10.563   0.849   0.273
76102W        W41263  22.655   9.678  13.373
76103W        W41264  21.702  12.504  11.902
76104W        W41265   5.475  25.501   3.252
76105W        W41266  13.639  44.641   1.979
76106W        W41267   9.159  28.199  13.379
76107W        W41268  18.702  32.912   3.362
76108W        W41269   1.174  26.433  14.769
76109W        W41270  11.964   6.088   0.020
76110W        W41271  18.608  21.903   0.830
76111W        W41272  43.722  14.186  10.264
76112W        W41273  10.348  26.110  12.028
76113W        W41274  19.058  17.065  13.795
76114W        W41275  27.887  30.976   2.716
76115W        W41276  33.508  28.645  13.107
76116W        W41277  16.640   1.805  14.557
76117W        W41278   6.321   1.848  10.114
76118W        W41279   7.398   5.175  14.843
76119W        W41280  10.196   3.827   3.405
76120W        W41281  33.802   5.769  12.952
76121W        W41282  28.475  18.180   1.285
76122W        W41283  39.518  17.778   2.675
76123W        W41284  40.363  21.618   3.186
76124W        W41285  21.854  31.143  12.915
76125W        W41286   2.262  11.185  11.410
76126W        W41287  35.935  23.289   1.269
76127W        W41288  24.526  30.074  12.711
76128W        W41289  31.438  18.757  13.618
76129W        W41290  25.173  28.552  14.844
76130W        W41291  44.410  26.504   2.868
76131W        W41292   4.498  29.382   1.914
76132W        W41293   4.476   2.680  14.803
76133W        W41294  15.233   1.557  11.633
76134W        W41295   2.032  38.334  12.076
76135W        W41296  18.225   8.782   5.117
76136W        W41297  32.466  24.812   0.186
76137W        W41298  24.564  19.744  14.410
76138W        W41299  22.498  36.402  14.970
76139W        W41300  26.581  24.163  10.172
76140W        W41301  10.413  41.439  11.972
76141W        W41302   0.356  15.224   1.884
76142W        W41303   5.890  41.645   2.747
76143W        W41304  17.757  26.134  11.204
76144W        W41305  21.166  20.692   3.272
76145W        W41306  11.708   1.228  14.124
76146W        W41307  16.963   6.580  10.779
76147W        W41308  29.396  43.031   4.087
76148W        W41309  15.627  21.389  14.707
76149W        W41310  34.965  39.387   3.134
76150W        W41311  10.560  34.941   3.246
76151W        W41312  31.632  11.148  12.206
76152W        W41313  40.291  37.044   0.394
76153W        W41314  40.917  13.719   1.938
76154W        W41315   1.651  36.102  12.438
76155W        W41316  32.306  41.770  14.430
76156W        W41317  43.233  18.827  14.260
76157W        W41318  32.524  42.799  13.639
76158W        W41319  35.884  36.381  12.163
76159W        W41320   2.511   5.709   2.302
76160W        W41321  21.291   7.429  14.412
76161W        W41322  36.060  28.064  10.756
76162W        W41323  41.937  36.535  14.772
76163W        W41324   1.777  44.347   1.804
76164W        W41325   1.282  35.201  14.214
76165W        W41326  34.180  13.293   4.791
76166W        W41327  12.182  30.536   1.272
76167W        W41328   9.658  33.440  14.469
76168W        W41329   0.437  16.655   3.196
76169W        W41330  39.820   2.312  14.886
76170W        W41331  27.185  29.101  13.334
76171W        W41332  28.667  36.453   1.894
76172W        W41333   3.924  14.818   3.311
76173W        W41334  25.986  30.038   0.485
76174W        W41335  31.188  20.110  14.846
76175W        W41336  29.480  15.944   2.851
76176W        W41337  11.081  31.090   2.756
76177W        W41338  34.505  18.564   2.622
76178W        W41339  37.228  21.185  12.024
76179W        W41340   0.424   5.436   3.643
76180W        W41341  15.494   9.751  12.672
76181W        W41342  43.301  36.586   0.784
76182W        W41343   6.177  42.425   3.305
76183W        W41344  33.820   6.799  13.791
76184W        W41345   3.889   6.815  11.900
76185W        W41346  25.049  33.033   1.403
76186W        W41347  40.259   6.084  11.640
76187W        W41348  35.681  24.641  12.803
76188W        W41349  21.087   4.809   4.059
76189W        W41350  16.362  27.945  10.434
76190W        W41351  34.146  41.840   0.707
76191W        W41352  41.311   6.636  14.938
76192W        W41353  33.505  27.506   4.601
76193W        W41354  27.017  43.359   0.402
76194W        W41355  27.392  12.132  12.147
76195W        W41356  19.701  37.500   1.169
76196W        W41357   8.830   6.299  14.994
76197W        W41358  35.541   3.347   3.290
76198W        W41359  28.851   3.234   3.245
76199W        W41360  43.535  43.791  10.674
76200W        W41361  33.105   1.729   1.647
76201W        W41362  15.498  32.170   4.644
76202W        W41363   8.604  36.936  12.470
76203W        W41364   6.620   6.440  14.940
76204W        W41365  33.905  28.112  10.533
76205W        W41366  29.372   6.117  10.297
76206W        W41367   8.103  28.587   3.243
76207W        W41368   9.403   6.960  14.749
76208W        W41369  12.270  20.686   0.735
76209W        W41370  12.292  37.029   3.872
76210W        W41371  15.407  34.465   2.312
76211W        W41372  33.872  17.369   1.399
76212W        W41373  30.962  27.948   3.103
76213W        W41374  35.109  11.097  12.047
76214W        W41375  44.228  15.835  11.538
76215W        W41376  37.504  27.999   1.139
76216W        W41377  33.097  31.978  14.248
76217W        W41378   3.328   0.864   0.035
76218W        W41379   0.337  29.656   3.540
76219W        W41380  29.904  31.904  14.532
76220W        W41381  28.193  39.631  12.936
76221W        W41382  10.091  34.710   1.345
76222W        W41383  32.545  29.393  11.458
76223W        W41384  28.160  11.283   2.113
76224W        W41385  43.695  14.638  12.409
76225W        W41386  20.553  30.679  11.147
76226W        W41387  32.509  35.661  14.906
76227W        W41388  16.064  29.893   1.345
76228W        W41389  19.381  44.236   4.547
76229W        W41390  20.644   0.210  12.976
76230W        W41391  43.368  44.512  11.108
76231W        W41392  19.105  34.895   2.355
76232W        W41393  43.943  42.737  13.101
76233W        W41394   4.857  24.343  13.787
76234W        W41395  17.252  43.820  10.754
76235W        W41396  31.912   6.753  12.950
76236W        W41397  39.792  16.143  14.918
76237W        W41398   7.222  19.947   0.408
76238W        W41399  28.664  20.270  11.671
76239W        W41400  32.035   8.256   0.701
76240W        W41401   9.655  39.403  11.886
76241W        W41402   5.171  39.906  11.136
76242W        W41403  18.920   2.944  10.965
76243W        W41404  28.216  12.338   2.572
76244W        W41405  25.453  36.766  10.189
76245W        W41406   1.639  35.138  13.852
76246W        W41407  38.464  25.771  12.438
76247W        W41408   0.336   0.869  12.325
76248W        W41409  23.616  23.937   4.550
76249W        W41410  44.368   3.195  13.796
76250W        W41411  20.275  20.499   3.340
76251W        W41412  37.839  29.004   3.380
76252W        W41413  16.920  41.150   3.320
76253W        W41414  40.713   3.477  11.112
76254W        W41415  43.441  11.561  13.050
76255W        W41416  12.286  40.028  11.984
76256W        W41417  18.810  44.117   4.993
76257W        W41418  18.300  28.123  12.471
76258W        W41419   6.129  32.311  14.502
76259W        W41420  37.732  10.669   1.316
76260W        W41421  43.696  40.261   9.837
76261W        W41422  15.797  44.477   4.098
76262W        W41423  36.137  13.515  11.058
76263W        W41424  18.734   4.363  10.847
76264W        W41425  32.587  20.892  12.118
76265W        W41426  20.734  42.289   5.103
76266W        W41427   8.921  13.616   3.664
76267W        W41428  34.932  11.191  14.866
76268W        W41429   0.449  11.680  13.172
76269W        W41430  37.887  25.174   4.601
76270W        W41431  14.580  37.872  10.723
76271W        W41432   4.219  12.223  11.140
76272W        W41433   4.880  29.223  12.513
76273W        W41434  17.821   1.766  12.409
76274W        W41435  43.234   7.765  10.504
76275W        W41436   8.446   0.248  12.574
76276W        W41437  35.413  40.078  14.878
76277W        W41438  36.675  23.162   0.962
76278W        W41439  25.002   3.815   0.710
76279W        W41440   2.709  20.564  11.120
76280W        W41441  30.266   1.683   1.688
76281W        W41442   4.026  35.497  11.616
76282W        W41443   6.694  11.340   2.827
76283W        W41444  19.271  10.877  11.618
76284W        W41445  13.700  28.167   4.262
76285W        W41446  29.664   0.841  11.718
76286W        W41447  18.014   9.237  11.084
76287W        W41448  23.124  27.484  11.182
76288W        W41449   1.927   2.779   1.071
76289W        W41450  14.089  28.885   3.234
76290W        W41451   4.435   2.769  13.774
76291W        W41452  20.573   1.175   0.982
76292W        W41453  42.078  12.658   4.254
76293W        W41454  25.264  21.810   3.105
76294W        W41455  26.802  38.411   2.178
76295W        W41456  38.182   0.925  11.064
76296W        W41457  10.318   1.792   1.740
76297W        W41458   7.210  34.655   2.301
76298W        W41459  28.657  27.720   3.689
76299W        W41460   2.266  35.163  14.813
76300W        W41461   1.821  22.199   3.996
76301W        W41462  26.441   5.605   0.320
76302W        W41463  32.492   1.334   3.752
76303W        W41464  14.917  13.335  11.941
76304W        W41465  34.192  42.051   3.350
76305W        W41466  18.984  19.261  11.583
76306W        W41467  14.569   6.191  13.498
76307W        W41468  42.354  12.482   1.131
76308W        W41469   3.456  16.525  13.694
76309W        W41470  17.160  30.400  10.288
76310W        W41471   3.723  39.302   3.226
76311W        W41472  14.786  38.450  12.542
76312W        W41473  40.271  32.516  12.479
76313W        W41474  35.771  16.179  13.619
76314W        W41475  22.725   1.915  10.700
76315W        W41476  43.854  36.554  12.624
76316W        W41477  16.757  37.603   3.294
76317W        W41478   2.347  23.207  14.510
76318W        W41479  44.997  23.014   4.056
76319W        W41480   7.702   4.699  12.133
76320W        W41481  11.798   3.451   4.737
76321W        W41482   6.025  16.049  12.109
76322W        W41483  39.831  32.967   1.713
76323W        W41484   5.149  41.926  13.958
76324W        W41485  30.114  44.532  11.050
76325W        W41486  36.586  35.227  11.950
76326W        W41487   2.973   3.838  13.821
76327W        W41488   9.721  17.136  11.372
76328W        W41489  18.229  18.007   3.651
76329W        W41490   8.755  25.336  14.455
76330W        W41491  19.567  31.423  14.517
76331W        W41492  22.596   6.311   2.800
76332W        W41493   2.291  27.600  14.489
76333W        W41494  16.774  40.593   0.686
76334W        W41495  19.726   5.311   2.625
76335W        W41496  10.683  35.406  13.003
76336W        W41497  31.164  22.265  12.995
76337W        W41498  40.545  39.504  10.725
76338W        W41499  14.058  32.574  10.714
76339W        W41500   9.760  35.072   1.198
76340W        W41501   6.732  33.369  12.410
76341W        W41502  28.100  16.598   1.673
76342W        W41503  21.988  39.574  14.513
76343W        W41504   6.158  34.820   0.424
76344W        W41505   6.830  14.495  14.333
76345W        W41506  28.702  18.544   4.259
76346W        W41507  27.045  32.965  12.796
76347W        W41508   2.261  26.756  11.864
76348W        W41509  43.086  43.720  13.189
76349W        W41510  13.485  30.930   0.892
76350W        W41511  43.354  25.151   3.253
76351W        W41512  13.179   6.195   3.009
76352W        W41513  44.348  11.502   1.355
76353W        W41514  31.891  14.757  12.454
76354W        W41515   0.541  30.139   3.691
76355W        W41516  32.043  26.203  10.865
76356W        W41517  33.631  17.183   0.987
76357W        W41518  34.716  19.483   4.127
76358W        W41519   8.959  20.261  13.098
76359W        W41520  40.337  27.605   0.405
76360W        W41521  13.857  30.523  14.518
76361W        W41522  41.596  39.372  13.929
76362W        W41523  15.103  16.615  12.799
76363W        W41524  23.558  11.095   3.261
76364W        W41525  31.377  33.523  12.419
76365W        W41526  33.803  36.309   4.223
76366W        W41527  28.996  38.566  12.929
76367W        W41528  31.734  16.621  10.600
76368W        W41529   4.098  37.599   0.326
76369W        W41530  27.214  43.758  12.710
76370W        W41531  43.535  44.874  14.425
76371W        W41532  29.701   8.914   3.593
76372W        W41533  19.331  11.675  11.140
76373W        W41534  22.662  36.064   1.312
76374W        W41535  16.183  17.265   3.162
76375W        W41536  19.677  22.047  13.015
76376W        W41537  12.292  26.732  14.711
76377W        W41538  35.634  36.299   4.074
76378W        W41539   7.723  30.920   4.290
76379W        W41540  42.873  34.372   3.885
76380W        W41541   5.116   1.495  11.158
76381W        W41542  32.426  19.306  11.239
76382W        W41543  13.170  29.749   2.738
76383W        W41544   0.247  21.980  14.924
76384W        W41545  11.384  25.651   1.891
76385W        W41546  12.289  27.606  11.205
76386W        W41547  31.658  13.509   3.694
76387W        W41548   1.430  42.932  14.871
76388W        W41549   6.055  34.014  14.951
76389W        W41550  24.384  11.705   0.310
76390W        W41551  21.703  21.299  10.722
76391W        W41552  19.326  44.979   3.371
76392W        W41553  36.315  18.250  14.927
76393W        W41554  23.518  38.072   3.094
76394W        W41555   0.725  34.010  12.540
76395W        W41556   0.200  33.102   5.014
76396W        W41557  34.568  31.476  10.613
76397W        W41558  26.378  33.430   1.328
76398W        W41559  36.109   4.038   2.482
76399W        W41560  29.453   7.140   0.320
76400W        W41561  13.891   3.391   3.680
76401W        W41562   6.981   7.790   1.300
76402W        W41563  42.360  40.005   0.993
76403W        W41564   5.295  14.830  13.465
76404W        W41565  35.598   1.306  10.351
76405W        W41566  26.144  26.723  11.364
76406W        W41567   2.286  29.092   2.185
76407W        W41568  11.725  20.541  12.841
76408W        W41569  22.657  32.191   3.222
76409W        W41570  25.889  44.190  10.028
76410W        W41571  24.993  40.998  11.960
76411W        W41572   1.347  37.849   0.327
76412W        W41573   9.270  26.008   1.139
76413W        W41574  44.892  11.502   3.087
76414W        W41575  22.554  31.200  14.804
76415W        W41576   2.449  17.508   0.994
76416W        W41577  28.937   0.468   3.425
76417W        W41578  35.955  24.543   3.573
76418W        W41579  36.798   2.611   1.974
76419W        W41580   3.396   4.810  11.135
76420W        W41581   0.168  27.921   3.844
76421W        W41582  39.876  32.534   3.427
76422W        W41583  32.672  26.638   0.679
76423W        W41584  28.221  43.029  12.591
76424W        W41585   4.836  17.578  14.407
76425W        W41586  36.384  12.237   1.280
76426W        W41587   7.081  19.643   1.714
76427W        W41588  41.036  44.003   2.343
76428W        W41589  15.800  26.951   0.276
76429W        W41590  36.734  23.467  11.115
76430W        W41591  23.452  36.071   2.860
76431W        W41592  23.677  33.956   2.950
76432W        W41593  30.007  17.090  13.460
76433W        W41594  26.249  34.045  13.775
76434W        W41595  25.410  38.702   1.323
76435W        W41596  20.070  41.870   1.017
76436W        W41597  37.419  32.143  12.593
76437W        W41598  43.637  22.997  12.571
76438W        W41599  36.143  30.020   4.297
76439W        W41600   3.381  12.230   4.651
76440W        W41601   9.067   2.477   2.586
76441W        W41602  28.356  15.088   0.993
76442W        W41603  35.798  14.664   3.659
76443W        W41604   4.149  19.018  13.912
76444W        W41605  30.895  26.402  14.527
76445W        W41606  27.498   3.953  13.222
76446W        W41607   7.137  16.523  11.146
76447W        W41608  42.747  30.535   0.366
76448W        W41609  38.135   7.327   0.922
76449W        W41610   5.801  30.602   0.402
76450W        W41611  31.156   5.368   3.995
76451W        W41612  43.792  40.610  11.217
76452W        W41613  21.074  41.047   1.664
76453W        W41614  10.337  32.211  13.523
76454W        W41615  16.774  39.822   4.511
76455W        W41616   3.993   8.408  12.396
76456W        W41617   4.189  44.307  13.030
76457W        W41618  13.186   6.439  14.402
76458W        W41619  17.930  25.136  13.363
76459W        W41620  17.866   2.762   1.242
76460W        W41621   7.621  11.059   2.742
76461W        W41622   6.140  25.525   2.384
76462W        W41623  22.231   6.322   2.430
76463W        W41624  18.463  14.761  10.808
76464W        W41625  32.194   5.416  14.399
76465W        W41626   4.714   2.259  11.619
76466W        W41627   1.246   2.209   0.572
76467W        W41628  13.338  41.406   0.192
76468W        W41629  23.779   0.393   1.244
76469W        W41630   5.292  19.165  11.511
76470W        W41631   5.235   6.872  14.868
76471W        W41632   8.530  14.280   2.552
76472W        W41633   2.436   9.745   3.522
76473W        W41634   1.834  15.708  10.129
76474W        W41635  26.930  30.106  12.621
76475W        W41636  18.851  17.720  12.469
76476W        W41637  29.148  16.431  14.386
76477W        W41638  44.867  40.986   4.656
76478W        W41639  12.078  15.174   2.253
76479W        W41640   2.822  19.886  14.221
76480W        W41641  41.616  35.817   3.744
76481W        W41642  11.314  25.959   3.202
76482W        W41643  27.552   1.666  13.763
76483W        W41644  43.826  17.336  10.952
76484W        W41645  37.851   2.678  10.727
76485W        W41646  29.482  31.468  11.946
76486W        W41647   9.931   9.215   1.314
76487W        W41648  31.943  20.835  13.356
76488W        W41649  17.723  20.948   2.291
76489W        W41650  26.260   1.635   0.371
76490W        W41651   8.714   5.627  14.429
76491W        W41652  26.433  39.559   3.053
76492W        W41653  35.014  21.087  14.280
76493W        W41654  24.193  29.091  12.380
76494W        W41655  20.168   5.613   3.542
76495W        W41656  19.436  31.766   3.829
76496W        W41657   4.207   8.207   0.841
76497W        W41658  37.661  19.702  14.987
76498W        W41659  31.612  16.148   3.189
76499W        W41660   7.802  36.080   2.437
76500W        W41661   9.381   4.282  11.279
76501W        W41662  22.986  36.322   4.976
76502W        W41663   2.780   0.597  11.522
76503W        W41664   6.687  13.431  13.462
76504W        W41665   1.476  29.170   0.839
76505W        W41666   0.729  37.973  11.440
76506W        W41667  28.086  15.315  11.444
76507W        W41668  12.982  41.016   2.788
76508W        W41669   3.360   5.904   0.873
76509W        W41670   9.311  39.210  11.404
76510W        W41671  14.742  25.428  12.438
76511W        W41672  19.096  21.677   2.477
76512W        W41673  44.211  24.890   0.463
76513W        W41674   3.490  41.901   4.533
76514W        W41675  16.783  44.788  11.186
76515W        W41676   9.335  10.781  14.332
76516W        W41677  30.111  32.409  13.165
76517W        W41678  30.683  16.751   2.547
76518W        W41679  18.048  43.184   0.251
76519W        W41680  44.566   0.042  13.131
76520W        W41681  14.645  38.002  13.117
76521W        W41682  39.860  29.685   3.829
76522W        W41683  41.339  18.480  14.533
76523W        W41684  12.779   2.010   4.461
76524W        W41685   4.779   2.674   4.575
76525W        W41686  22.732  36.155  13.802
76526W        W41687  13.671  38.892  13.162
76527W        W41688  20.562  29.997  11.734
76528W        W41689  33.553  32.060  14.521
76529W        W41690   6.916  35.328   4.586
76530W        W41691  20.968   8.619   0.273
76531W        W41692  43.374   4.304  12.054
76532W        W41693  25.583  19.485   0.751
76533W        W41694  39.606  12.815   1.815
76534W        W41695   9.016   2.619  14.898
76535W        W41696  29.157  40.858  12.699
76536W        W41697  20.293   1.851  10.692
76537W        W41698  20.200   3.481   0.957
76538W        W41699  29.999  26.865   1.440
76539W        W41700   3.877  36.188   4.602
76540W        W41701  32.839  10.229   3.143
76541W        W41702  29.516  32.024  11.235
76542W        W41703  15.670  24.737   4.807
76543W        W41704  31.152  12.827  13.734
76544W        W41705  16.835  39.869   1.450
76545W        W41706  28.063  12.330   3.074
76546W        W41707   1.538  21.566   2.292
76547W        W41708  14.078  22.269  11.933
76548W        W41709  33.095  10.250   1.655
76549W        W41710  36.497  44.019  14.487
76550W        W41711  44.894  35.298   0.108
76551W        W41712  22.675  15.360   3.669
76552W        W41713  23.568  30.071   2.958
76553W        W41714  37.317  36.516   0.244
76554W        W41715   1.908   8.700   0.839
76555W        W41716  16.715  23.251  10.906
76556W        W41717  14.554   5.322  12.608
76557W        W41718  13.653  39.478   0.889
76558W        W41719  18.074  26.099  13.356
76559W        W41720  32.034  34.981  13.816
76560W        W41721  26.007  22.500   4.187
76561W        W41722  11.174  32.947   1.203
76562W        W41723  22.602  21.527   2.414
76563W        W41724  39.775   3.891   1.010
76564W        W41725  21.373  12.750   1.398
76565W        W41726  22.352  38.485  10.230
76566W        W41727  43.111   1.519   3.407
76567W        W41728  35.141  23.272   4.281
76568W        W41729  14.126   4.120   3.529
76569W        W41730  36.068  35.871   2.862
76570W        W41731  38.404  13.325  11.000
76571W        W41732  15.196   2.229  11.995
76572W        W41733  16.793   8.774  13.906
76573W        W41734   5.517   1.455  14.939
76574W        W41735   0.256  21.029  11.565
76575W        W41736  20.107  44.378  12.447
76576W        W41737  37.319   1.696  11.458
76577W        W41738  25.772  43.289   3.723
76578W        W41739  22.618  34.403  14.175
76579W        W41740  22.305  34.073  12.946
76580W        W41741  18.834  39.799  12.833
76581W        W41742  39.489  24.796   1.048
76582W        W41743  26.240  14.238  13.928
76583W        W41744   8.452  25.983  10.627
76584W        W41745  13.513   9.819  14.968
76585W        W41746  14.699  33.141  13.570
76586W        W41747  33.604  10.635   0.733
76587W        W41748  29.604  34.530  14.999
76588W        W41749  16.087  20.116   2.171
76589W        W41750   2.413  12.281  12.980
76590W        W41751  27.551  31.132  14.078
76591W        W41752  15.654  30.172   3.175
76592W        W41753  41.322  29.062  10.686
76593W        W41754  17.581   7.209   4.314
76594W        W41755   0.416  18.816   1.397
76595W        W41756  19.804  13.848  13.826
76596W        W41757  40.646   8.160  12.016
76597W        W41758  32.717  41.551   0.308
76598W        W41759  20.519  25.479  14.855
76599W        W41760  38.503  12.724  14.060
76600W        W41761  38.344  27.005  14.851
76601W        W41762   9.808  33.163   9.929
76602W        W41763  26.293  29.655  11.547
76603W        W41764  13.231  36.036  14.465
76604W        W41765   8.932  25.103   1.208
76605W        W41766  26.519  39.225   2.641
76606W        W41767  37.843  24.211   4.617
76607W        W41768  34.713  17.129   4.168
76608W        W41769   0.979  22.974  12.920
76609W        W41770   6.998  14.863  12.246
76610W        W41771  23.007  41.226   3.309
76611W        W41772  42.546   3.066  10.708
76612W        W41773  10.789   5.910  11.865
76613W        W41774  28.858  16.032  12.845
76614W        W41775  26.021   9.770  11.571
76615W        W41776  25.862  21.161  11.143
76616W        W41777  20.016  42.387   2.254
76617W        W41778  16.578  31.577   1.111
76618W        W41779   2.386  43.513   3.340
76619W        W41780  41.016  40.547   1.285
76620W        W41781  27.167  37.048  12.816
76621W        W41782  30.690  44.967  11.412
76622W        W41783  39.431  24.157   1.400
76623W        W41784  43.954  20.919  13.279
76624W        W41785   4.749   0.841   3.142
76625W        W41786   4.355  18.524  12.732
76626W        W41787   3.319  17.313   2.749
76627W        W41788  42.994  41.363   5.018
76628W        W41789  11.474  21.147   1.210
76629W        W41790  20.729  12.654  11.603
76630W        W41791  16.149  22.051  13.052
76631W        W41792  28.703   5.514   4.042
76632W        W41793   9.079  32.552   2.869
76633W        W41794  44.435  35.714   1.199
76634W        W41795  23.441   4.611  13.038
76635W        W41796  29.394  29.697   3.214
76636W        W41797  30.392  31.100  14.649
76637W        W41798  18.459  33.233  11.584
76638W        W41799  43.519  43.196   2.272
76639W        W41800  41.947  29.626  12.160
76640W        W41801   5.398  42.970   2.345
76641W        W41802  27.970  35.362  14.769
76642W        W41803  41.360  39.827  13.849
76643W        W41804  34.912  14.845   2.714
76644W        W41805  11.510  42.351  13.012
76645W        W41806  29.017   9.327  14.916
76646W        W41807  14.078  35.011   2.221
76647W        W41808  16.179  32.797   0.215
76648W        W41809  18.253  24.129   4.417
76649W        W41810  23.265  33.452   0.370
76650W        W41811  29.830  16.928   1.697
76651W        W41812   5.563  23.305  10.647
76652W        W41813  38.402  16.088   3.159
76653W        W41814  13.336  17.607   3.667
76654W        W41815  17.078  34.102   1.275
76655W        W41816   9.904  42.774   1.765
76656W        W41817  30.759  43.932   1.215
76657W        W41818  34.985  39.730  10.162
76658W        W41819  31.878  32.046  13.035
76659W        W41820  42.258  42.567  14.464
76660W        W41821  11.350  25.061  10.918
76661W        W41822  32.336  42.291  14.442
76662W        W41823  25.655  29.001   4.509
76663W        W41824  43.616  33.302   5.050
76664W        W41825  28.833  32.157   0.931
76665W        W41826  28.168  33.389   3.354
76666W        W41827  39.758  38.369   0.892
76667W        W41828  44.325  12.507   1.342
76668W        W41829  16.152  29.692   4.571
76669W        W41830   1.847   0.938  12.055
76670W        W41831  36.977  17.129   3.512
76671W        W41832  24.742   7.320  11.940
76672W        W41833  39.021  20.583  11.934
76673W        W41834  18.082  12.227   2.006
76674W        W41835  23.788   5.823  10.763
76675W        W41836  20.063  37.807   2.818
76676W        W41837  30.203  27.834  14.440
76677W        W41838  21.849  23.936  12.865
76678W        W41839  16.232   4.916  14.560
76679W        W41840   9.472  42.749   4.966
76680W        W41841  43.318  19.212   3.279
76681W        W41842  13.308  33.545  13.371
76682W        W41843  37.795  23.913  12.582
76683W        W41844  40.605  39.895  12.835
76684W        W41845  21.006   2.454   3.559
76685W        W41846  29.487  28.700  11.324
76686W        W41847  34.873  42.436   2.748
76687W        W41848   8.747  21.254  13.055
76688W        W41849   9.739  37.132   4.209
76689W        W41850  17.031  22.843  14.897
76690W        W41851  16.793  44.072   4.910
76691W        W41852   6.849  24.203   2.252
76692W        W41853  29.160  15.906   4.625
76693W        W41854  42.281  13.219  13.371
76694W        W41855  22.784  14.017   4.194
76695W        W41856  20.918  16.589   2.216
76696W        W41857  27.251  37.342  10.111
76697W        W41858   7.244  10.710   3.676
76698W        W41859  27.486  19.539   2.755
76699W        W41860  29.524  15.975  12.638
76700W        W41861  11.403   5.131  12.357
76701W        W41862  38.588  33.509   4.290
76702W        W41863  26.746  13.881  10.253
76703W        W41864   0.453  15.288   0.838
76704W        W41865  30.175  38.490  13.456
76705W        W41866  21.737  24.929   2.196
76706W        W41867  21.791   0.698  11.957
76707W        W41868  16.661   8.246  14.019
76708W        W41869  30.448  27.926   3.248
76709W        W41870  17.061  36.842   4.210
76710W        W41871   0.242  29.217   4.825
76711W        W41872   4.942  20.675   4.573
76712W        W41873  17.065  38.005  14.774
76713W        W41874  11.089  43.452   1.984
76714W        W41875  19.301  25.732  14.297
76715W        W41876  10.307  38.352   3.271
76716W        W41877   9.944  31.556  11.235
76717W        W41878   3.763  44.688   0.827
76718W        W41879  14.868  27.106   2.936
76719W        W41880  40.539  35.354   2.306
76720W        W41881  35.658  21.048  14.983
76721W        W41882   4.496  15.330  11.172
76722W        W41883  37.200  11.948   5.048
76723W        W41884  10.080  19.138   1.262
76724W        W41885  28.172  44.533   2.381
76725W        W41886   9.723  39.118   3.295
76726W        W41887   9.806  10.320   4.214
76727W        W41888  11.299  43.523   1.168
76728W        W41889  26.607  44.830  12.637
76729W        W41890  28.728  15.097  14.445
76730W        W41891   5.262  40.135   4.025
76731W        W41892  29.200  33.947  12.576
76732W        W41893  36.794  13.152  14.237
76733W        W41894  44.750  32.400   3.482
76734W        W41895  28.388  14.285   4.586
76735W        W41896  30.448  21.890  13.349
76736W        W41897  19.630  41.822   1.714
76737W        W41898  20.777  20.704  13.538
76738W        W41899  34.273  14.239  12.049
76739W        W41900  17.290  33.884  11.203
76740W        W41901  17.112  31.095   0.899
76741W        W41902   4.042  43.009   4.450
76742W        W41903  34.338   8.459   2.828
76743W        W41904   2.738  22.727  13.070
76744W        W41905  42.761  13.107   3.220
76745W        W41906   0.806   9.751   2.264
76746W        W41907  38.121   2.237  10.582
76747W        W41908  31.458  28.141  14.425
76748W        W41909  42.585  19.770  12.476
76749W        W41910  37.569  14.272   1.157
76750W        W41911  19.155   5.241  12.337
76751W        W41912  27.021  33.072  11.476
76752W        W41913   5.413  34.080   3.283
76753W        W41914   8.822  15.736  13.143
76754W        W41915  25.267  34.583  10.251
76755W        W41916  38.287  13.822  13.423
76756W        W41917  17.714  20.884   5.034
76757W        W41918  42.995  15.843   1.690
76758W        W41919  21.617  37.298   0.760
76759W        W41920   9.215  25.460   0.235
76760W        W41921  10.157  33.969  12.964
76761W        W41922   8.445  29.667   1.213
76762W        W41923  16.618  30.000  12.844
76763W        W41924   8.036   8.745   2.834
76764W        W41925  27.640  22.048  13.489
76765W        W41926  37.214  33.855   3.710
76766W        W41927  12.512  30.568  12.057
76767W        W41928   8.265   2.850  11.915
76768W        W41929  14.695  24.174  13.963
76769W        W41930  37.363  14.120  14.242
76770W        W41931  11.597  13.524   0.223
76771W        W41932  12.632  29.462   0.444
76772W        W41933  29.182   0.571  14.831
76773W        W41934  39.504  35.655  11.666
76774W        W41935   0.444   4.865   3.616
76775W        W41936  17.578  44.296   5.387
76776W        W41937  40.219   6.107   5.158
76777W        W41938  31.314  27.486   9.871
76778W        W41939  25.952  15.357  11.742
76779W        W41940  35.151  30.953  12.765
76780W        W41941  17.646  35.643   4.349
76781W        W41942  25.115  42.957  12.013
76782W        W41943  26.115  15.334   3.427
76783W        W41944   3.516  22.258   1.743
76784W        W41945  32.222  13.127  12.528
76785W        W41946  24.491  21.091   4.902
76786W        W41947   6.935  35.990   1.723
76787W        W41948  25.438  44.848   2.176
76788W        W41949  42.047  27.201  12.956
76789W        W41950  37.425  20.915  11.613
76790W        W41951  14.027  12.995  12.814
76791W        W41952  22.018   7.361  12.800
76792W        W41953   5.583   2.472   1.860
76793W        W41954  34.470  43.801   2.238
76794W        W41955  22.309  28.570   3.606
76795W        W41956  43.322  13.808   4.591
76796W        W41957   7.807  42.345   0.472
76797W        W41958  27.619  20.680   0.794
76798W        W41959  15.840  16.653  12.379
76799W        W41960  25.226  34.244  12.055
76800W        W41961   5.315  22.165  11.606
76801W        W41962  26.255  19.575  14.612
76802W        W41963  16.698  37.514  10.602
76803W        W41964  12.133  21.742   1.966
76804W        W41965  19.258  12.593   3.204
76805W        W41966   6.512  38.141   2.180
76806W        W41967  30.644  42.025  11.557
76807W        W41968  43.519   4.681  14.388
76808W        W41969  41.276  31.339   4.212
76809W        W41970  19.070  19.549   2.195
76810W        W41971   3.843  25.200   2.676
76811W        W41972  34.144   7.959   1.873
76812W        W41973  27.149   7.928  11.363
76813W        W41974  38.441  15.204  11.218
76814W        W41975  30.402   4.612  13.652
76815W        W41976  36.820  41.798   1.441
76816W        W41977  33.057  34.156  11.088
76817W        W41978   1.137   3.225   4.031
76818W        W41979  40.317   8.139  14.417
76819W        W41980  31.699  12.172  14.500
76820W        W41981  25.182  23.613  12.886
76821W        W41982   0.529  41.060   4.155
76822W        W41983  25.681  22.151   4.458
76823W        W41984   0.231  25.650  10.577
76824W        W41985  34.091  17.805   1.246
76825W        W41986  17.211  15.632  14.881
76826W        W41987   9.685  16.240   3.412
76827W        W41988  10.372  18.640  11.669
76828W        W41989  28.109  20.511  13.930
76829W        W41990  22.213  31.655   2.207
76830W        W41991  41.814  36.538   3.185
76831W        W41992  33.195   6.200   3.121
76832W        W41993  35.471  28.257   3.703
76833W        W41994  44.653  20.582  12.987
76834W        W41995  33.488  23.902   4.670
76835W        W41996  14.529  41.623  14.984
76836W        W41997  25.903  25.747   3.777
76837W        W41998  26.776  40.208   0.355
76838W        W41999  35.309  10.294  10.595
76839W        W42000  21.229  18.333  13.461
76840W        W42001  23.497  37.290   4.518
76841W        W42002  34.215   0.453   3.149
76842W        W42003  22.797  15.061   3.243
76843W        W42004  18.019  42.589  14.204
76844W        W42005  27.540  31.469   0.480
76845W        W42006  21.514  39.911   1.224
76846W        W42007  14.434   2.355  11.390
76847W        W42008  18.564  15.049  11.207
76848W        W42009  11.800   7.555   0.472
76849W        W42010  26.409  17.089   4.167
76850W        W42011  34.852  16.153  11.178
76851W        W42012  35.808  40.045   5.520
76852W        W42013   5.443  18.061   2.855
76853W        W42014   9.717  16.679  11.594
76854W        W42015  25.051   6.206  12.882
76855W        W42016  16.219   8.398  10.604
76856W        W42017  12.355  26.394   4.056
76857W        W42018  12.172   4.413   0.946
76858W        W42019  15.233  31.502  10.764
76859W        W42020  29.372  29.150   1.426
76860W        W42021  35.309  25.782  13.764
76861W        W42022  44.806  11.736  14.858
76862W        W42023  39.790  18.487   0.251
76863W        W42024  42.152  37.021  13.310
76864W        W42025  20.722   4.172   0.730
76865W        W42026  43.327  26.819  12.326
76866W        W42027   9.153   2.049   1.333
76867W        W42028  38.406  41.406   4.033
76868W        W42029   1.889  29.547  14.279
76869W        W42030  29.905  20.957  11.138
76870W        W42031  16.118   9.447  10.728
76871W        W42032  27.426  17.087  14.284
76872W        W42033  31.055  16.807  14.062
76873W        W42034  14.596  33.597   0.686
76874W        W42035  11.412   1.320   3.614
76875W        W42036  27.050   9.880   1.833
76876W        W42037   2.338   9.269  11.923
76877W        W42038  22.979  21.525   1.917
76878W        W42039  33.325  10.130  13.764
76879W        W42040  32.587  11.519   3.669
76880W        W42041   5.698  16.317  13.084
76881W        W42042   2.327   4.533   4.511
76882W        W42043  22.394  17.560   3.980
76883W        W42044   9.946  41.086  10.133
76884W        W42045  37.325  24.053   4.540
76885W        W42046   7.679  36.927   2.442
76886W        W42047  30.745  40.326   3.298
76887W        W42048   3.465  39.514   0.405
76888W        W42049  10.737   2.511  12.010
76889W        W42050  39.960  25.053  10.741
76890W        W42051  41.354  36.584  13.471
76891W        W42052  40.609  16.503   0.608
76892W        W42053  19.537   1.060   3.667
76893W        W42054   1.423   2.802  11.695
76894W        W42055  28.470  37.918   2.591
76895W        W42056  39.066  22.985   3.187
76896W        W42057  44.059  36.046  14.465
76897W        W42058  38.089  18.730  14.773
76898W        W42059  19.205  29.168   2.970
76899W        W42060   7.416  26.617  13.802
76900W        W42061  21.376   4.161  13.845
76901W        W42062  13.402   7.669  13.793
76902W        W42063  37.615  24.386  12.592
76903W        W42064   0.535  15.708   1.695
76904W        W42065  37.485  11.828  14.150
76905W        W42066  34.347   0.894  13.732
76906W        W42067  37.570  43.700   3.566
76907W        W42068  16.042  11.946  12.976
76908W        W42069  40.530   8.239   0.211
76909W        W42070   7.315   6.439  11.540
76910W        W42071  19.220  30.992   2.948
76911W        W42072  29.955  18.757  11.560
76912W        W42073  17.069  19.911   1.198
76913W        W42074  24.925   6.382  11.319
76914W        W42075  15.374   4.354   2.920
76915W        W42076  12.236  42.253   3.119
76916W        W42077   0.409  40.056  10.870
76917W        W42078  44.275  13.849   4.862
76918W        W42079  16.039  44.732   2.530
76919W        W42080   5.391  15.230   4.561
76920W        W42081  40.328   8.147   0.670
76921W        W42082  32.222  34.070  13.373
76922W        W42083  25.264  21.631  10.735
76923W        W42084  23.570  44.828  14.878
76924W        W42085   4.854  29.016  12.059
76925W        W42086  34.072  10.121   0.247
76926W        W42087  12.553   9.657  11.527
76927W        W42088  18.670  18.609   2.637
76928W        W42089  40.872  12.699  12.875
76929W        W42090  10.148  30.353  13.958
76930W        W42091   0.500   2.753  12.541
76931W        W42092   0.623   6.272  12.451
76932W        W42093  38.931  28.151  10.471
76933W        W42094  44.865  41.951   0.094
76934W        W42095   7.918  11.153   1.361
76935W        W42096  33.378  12.917   1.433
76936W        W42097  35.396  13.108  10.883
76937W        W42098  13.337  31.218   1.326
76938W        W42099   3.503  12.730   4.124
76939W        W42100  32.240  20.586   0.762
76940W        W42101  12.139   8.869   3.114
76941W        W42102  16.588  11.544   3.631
76942W        W42103  43.707  13.198  13.354
76943W        W42104  19.676  39.876   3.176
76944W        W42105   9.924   8.667   1.340
76945W        W42106   1.336  30.584  11.073
76946W        W42107  13.343  42.828   4.583
76947W        W42108  16.666   5.660  13.195
76948W        W42109  41.615  40.809  13.137
76949W        W42110  43.135  29.275   0.828
76950W        W42111   0.191   3.599   4.071
76951W        W42112  21.078  10.102  11.213
76952W        W42113  40.308  18.825  13.546
76953W        W42114   7.791  19.733  12.159
76954W        W42115  27.673  39.976  10.314
76955W        W42116  14.062  19.592  13.353
76956W        W42117  44.722   0.282   1.264
76957W        W42118   8.368   5.428   3.179
76958W        W42119  35.894   1.822  10.843
76959W        W42120   7.706  42.938  10.258
76960W        W42121   5.268  18.251  11.567
76961W        W42122  10.416  40.374   5.373
76962W        W42123  23.163  11.392  12.518
76963W        W42124  42.610   1.223  11.118
76964W        W42125  21.981   4.206   3.143
76965W        W42126   1.793  11.281  12.708
76966W        W42127  35.926   5.919   2.621
76967W        W42128  19.090  23.703   4.128
76968W        W42129  41.069   0.011  11.050
76969W        W42130  31.793  37.511   4.433
76970W        W42131  16.753  16.002   3.295
76971W        W42132  40.091  29.938  13.783
76972W        W42133  34.468  13.864  14.257
76973W        W42134  14.285  32.893   1.888
76974W        W42135  37.105  35.383  12.010
76975W        W42136  29.140   0.872  11.657
76976W        W42137  27.154  24.020   4.970
76977W        W42138  27.075  21.475  12.571
76978W        W42139  22.562  12.663  12.696
76979W        W42140  19.803  11.254  14.871
76980W        W42141  18.846   8.271   3.659
76981W        W42142  34.687  26.551   4.170
76982W        W42143  33.494  13.356   0.635
76983W        W42144   2.933   9.225  13.486
76984W        W42145  20.499  30.533  14.029
76985W        W42146  31.875   2.489  11.999
76986W        W42147  25.011  14.014  13.435
76987W        W42148  16.523  11.739   1.075
76988W        W42149  20.589  43.570  10.716
76989W        W42150   7.613  23.598  14.956
76990W        W42151  11.254  11.928   2.319
76991W        W42152  23.371  19.291  10.983
76992W        W42153  17.302  10.351   5.059
76993W        W42154  32.687  39.529  14.776
76994W        W42155  18.253  27.673  12.144
76995W        W42156  30.277   9.830  12.445
76996W        W42157  19.837  28.384  12.961
76997W        W42158  38.420   5.335  12.000
76998W        W42159  16.328  39.943   0.231
76999W        W42160  32.552  14.736  11.980
77000W        W42161  34.221  35.561   4.829
77001W        W42162  33.397  21.470  14.518
77002W        W42163   3.868   3.754   4.263
77003W        W42164  41.890  39.296   2.679
77004W        W42165  19.707   5.077  13.647
77005W        W42166   7.686  14.093   3.726
77006W        W42167  12.585  21.719  13.830
77007W        W42168  12.849  13.194   0.993
77008W        W42169  34.962  16.694   3.358
77009W        W42170  17.087  13.814  12.489
77010W        W42171  44.742  23.662  10.310
77011W        W42172  34.546  24.271   5.565
77012W        W42173  42.816  20.999  12.004
77013W        W42174  13.651  12.794  13.733
77014W        W42175  33.306  26.078  11.178
77015W        W42176  26.023  25.771  14.475
77016W        W42177   4.055  31.140  11.151
77017W        W42178  37.834   2.316  11.101
77018W        W42179  22.113  21.098  11.443
77019W        W42180   0.438   3.696  14.398
77020W        W42181  10.724  16.291   4.792
77021W        W42182  24.084  17.319  11.202
77022W        W42183   0.920  24.763   1.680
77023W        W42184   3.835  13.238  12.592
77024W        W42185  18.599  36.793   0.506
77025W        W42186  27.132  25.583  13.455
77026W        W42187   3.947  25.743   1.463
77027W        W42188  17.303  29.670  12.209
77028W        W42189  29.421  12.354  12.009
77029W        W42190   9.735  41.521   1.739
77030W        W42191   9.761  33.928   1.408
77031W        W42192  26.133  18.909   1.764
77032W        W42193   6.109  30.988   0.235
77033W        W42194   8.722  40.406  11.414
77034W        W42195  38.020   9.217   0.389
77035W        W42196  18.109  10.653  13.124
77036W        W42197  31.097  33.081   5.035
77037W        W42198   1.438  40.719  10.965
77038W        W42199  11.540  20.175  12.007
77039W        W42200   6.902  23.489  12.896
77040W        W42201  35.050  24.533  14.235
77041W        W42202  30.501  17.581   4.074
77042W        W42203  13.734   0.295   1.453
77043W        W42204   4.550  20.693   3.613
77044W        W42205  35.068   4.132   1.763
77045W        W42206  42.011  39.295   0.472
77046W        W42207  34.385   7.799   2.554
77047W        W42208  23.263  34.007  13.138
77048W        W42209   2.247  26.233   0.488
77049W        W42210  22.059  17.018   5.497
77050W        W42211  32.831  14.539   2.815
77051W        W42212  19.131   2.424   4.548
77052W        W42213  15.287  18.199  13.430
77053W        W42214  10.632   3.263  14.894
77054W        W42215   5.672  38.107  11.445
77055W        W42216  32.133  39.457   2.736
77056W        W42217  34.848   9.201   1.349
77057W        W42218  12.141  43.567  13.332
77058W        W42219  26.588  15.137  13.511
77059W        W42220  19.104  21.969  14.486
77060W        W42221  21.159  32.658  14.196
77061W        W42222  36.915   4.917  11.564
77062W        W42223   0.684  28.592   0.918
77063W        W42224  18.221   7.937   2.439
77064W        W42225  40.272  29.706   2.224
77065W        W42226   5.998  20.424   4.016
77066W        W42227  37.947  41.662   4.053
77067W        W42228  33.585  41.364   0.498
77068W        W42229  27.205  29.041  14.442
77069W        W42230  17.212  35.842   3.230
77070W        W42231  19.643  16.647   1.927
77071W        W42232  17.593  44.520   3.245
77072W        W42233  22.133  42.360   3.606
77073W        W42234  40.832  36.668  13.342
77074W        W42235  41.728  17.367   3.258
77075W        W42236  25.588  39.080   4.813
77076W        W42237  18.670  24.618  11.550
77077W        W42238  19.220  14.910  10.669
77078W        W42239  29.978  29.917  13.398
77079W        W42240  30.634  35.980  13.564
77080W        W42241  41.838  22.953   3.242
77081W        W42242   7.366   5.768   1.735
77082W        W42243  19.100  15.093   5.367
77083W        W42244  32.603  40.025  12.649
77084W        W42245  30.331  27.007   3.621
77085W        W42246  21.138  32.035  12.437
77086W        W42247  13.333   2.306   0.265
77087W        W42248  14.366   3.850  11.991
77088W        W42249  32.663  32.057  11.113
77089W        W42250   3.417  39.155  12.621
77090W        W42251   9.682  27.283  14.264
77091W        W42252  21.751  43.449  13.376
77092W        W42253  44.245  18.643  12.405
77093W        W42254  43.288  33.989  11.104
77094W        W42255  26.180   6.001  13.311
77095W        W42256   8.215  42.726  11.165
77096W        W42257  19.767   3.785  13.358
77097W        W42258  11.753  42.320   3.657
77098W        W42259  39.482  13.611  14.764
77099W        W42260   0.841  30.149   2.423
77100W        W42261  23.621  37.108   2.704
77101W        W42262  19.952  19.660   2.400
77102W        W42263  35.392   1.136   0.425
77103W        W42264   0.431  14.234   1.841
77104W        W42265   6.425  16.464   0.654
77105W        W42266  23.963  40.091  13.553
77106W        W42267  25.650  31.147  14.266
77107W        W42268  36.091   4.098   4.567
77108W        W42269  44.811   9.453  14.521
77109W        W42270  33.734  32.931   1.932
77110W        W42271  19.292   1.971  13.473
77111W        W42272  25.908  27.592   1.866
77112W        W42273  29.506  25.589  12.336
77113W        W42274  40.178  38.116   3.632
77114W        W42275  12.581  32.654   3.693
77115W        W42276   2.755  42.660   4.185
77116W        W42277  41.443   8.670   0.759
77117W        W42278  21.934  34.884  10.356
77118W        W42279  31.822  29.959   0.003
77119W        W42280  39.930  42.371   3.447
77120W        W42281  12.426  30.131  13.429
77121W        W42282  18.723   4.201   4.922
77122W        W42283  25.985  34.825  11.049
77123W        W42284  29.198  34.084  11.040
77124W        W42285   2.947  26.393   1.611
77125W        W42286  38.894  35.068  12.886
77126W        W42287  44.171  11.366  14.563
77127W        W42288  31.022  14.160   0.097
77128W        W42289  30.125  19.205   3.768
77129W        W42290  33.129  14.041   4.279
77130W        W42291  31.077  25.473   0.838
77131W        W42292  30.254  24.714   3.083
77132W        W42293  40.300  21.922   4.061
77133W        W42294  13.897   8.767   0.352
77134W        W42295  19.642  15.281  11.640
77135W        W42296  11.210  39.194  14.714
77136W        W42297  44.324  18.951   4.602
77137W        W42298  35.500  32.217  12.572
77138W        W42299  33.003  44.710  11.455
77139W        W42300  22.204  14.227   4.560
77140W        W42301  35.659  24.106  10.647
77141W        W42302   6.909  26.513  11.857
77142W        W42303  41.015  38.659   4.064
77143W        W42304   0.225  35.373   3.433
77144W        W42305  44.039   5.276   3.706
77145W        W42306  21.782  33.851   1.193
77146W        W42307   4.492  19.391  14.727
77147W        W42308  36.377  23.159   1.696
77148W        W42309  32.161  36.167   2.152
77149W        W42310  29.358   1.834  12.508
77150W        W42311  30.581  38.081   4.886
77151W        W42312  32.151  33.611   1.761
77152W        W42313   0.770   0.757   2.960
77153W        W42314  18.179  41.570   3.480
77154W        W42315  23.024  44.534   4.169
77155W        W42316  36.311  28.952  14.852
77156W        W42317   4.411  40.551   4.129
77157W        W42318  10.316  25.438  10.778
77158W        W42319  18.272  25.191   2.447
77159W        W42320  13.228  30.210   3.642
77160W        W42321  27.810  43.314  14.203
77161W        W42322  26.933  38.971   1.306
77162W        W42323  37.442  33.455  13.858
77163W        W42324   1.692  44.810   4.170
77164W        W42325  29.991  42.013   1.206
77165W        W42326  13.124  14.030   1.169
77166W        W42327  39.543  17.786  13.893
77167W        W42328  35.113  33.535  10.722
77168W        W42329  42.867  24.923   3.338
77169W        W42330  38.607  23.683  13.886
77170W        W42331  41.067  29.034   0.878
77171W        W42332  25.957  12.578  13.451
77172W        W42333   2.302  24.751   1.425
77173W        W42334  39.489  19.207  13.033
77174W        W42335   3.437   9.801  11.160
77175W        W42336  21.215  12.756  13.007
77176W        W42337  31.006  14.225  10.678
77177W        W42338  37.900  13.529  10.627
77178W        W42339  12.179  34.820  12.056
77179W        W42340   2.303  10.884   0.805
77180W        W42341  15.209  23.105  10.653
77181W        W42342  32.962  40.959  10.692
77182W        W42343  33.271  36.788  11.627
77183W        W42344   0.632   6.859   2.253
77184W        W42345  43.367  17.515  11.147
77185W        W42346   3.570  27.189   3.035
77186W        W42347  44.663  23.563  13.841
77187W        W42348   9.921  16.985  13.837
77188W        W42349  19.716  30.000   2.394
77189W        W42350  21.252  32.877  13.655
77190W        W42351  17.653  34.495   3.981
77191W        W42352  18.272  42.517  11.007
77192W        W42353  18.016   6.862   0.796
77193W        W42354  16.077   5.676   2.373
77194W        W42355  38.491  38.269  11.935
77195W        W42356   7.826  33.530   4.799
77196W        W42357   2.478  44.805  10.584
77197W        W42358  24.540  28.325  11.904
77198W        W42359  37.486  21.608   2.262
77199W        W42360  29.221  31.509  12.434
77200W        W42361  38.932  34.121   3.267
77201W        W42362  32.587  15.670  11.105
77202W        W42363  20.294   6.668   0.973
77203W        W42364  26.211  23.314   4.092
77204W        W42365  34.081  41.899   2.373
77205W        W42366  41.234  41.834  14.452
77206W        W42367   3.109  19.752   2.197
77207W        W42368   4.871  44.345   3.976
77208W        W42369  14.633   6.952  11.041
77209W        W42370  15.680  31.897   3.332
77210W        W42371  24.036  17.730  13.984
77211W        W42372   4.319  43.601  13.720
77212W        W42373  17.857  23.031  13.774
77213W        W42374  37.536  39.809   0.451
77214W        W42375  34.594  42.342  12.424
77215W        W42376  37.010  37.479   0.216
77216W        W42377  12.997  17.233   3.640
77217W        W42378   6.832  43.951  12.459
77218W        W42379  38.403  22.594   0.647
77219W        W42380   4.289  32.505   0.741
77220W        W42381  30.388  44.234   0.328
77221W        W42382  14.598  15.658   4.824
77222W        W42383  18.142  31.388  11.164
77223W        W42384  15.149   6.594  12.036
77224W        W42385   9.106   1.026   2.327
77225W        W42386  28.965  34.676   2.672
77226W        W42387   4.621  40.353  13.546
77227W        W42388  21.757  10.975   3.356
77228W        W42389  26.129   5.234   1.630
77229W        W42390  16.590  27.493  11.067
77230W        W42391  19.649  24.111  10.664
77231W        W42392   1.490  36.226  13.357
77232W        W42393  26.909  22.465  13.915
77233W        W42394   7.638  15.715   3.039
77234W        W42395  40.069  30.954   4.466
77235W        W42396   4.444   9.174  13.378
77236W        W42397  24.136  20.689  10.823
77237W        W42398  35.458  13.257  12.035
77238W        W42399  44.007  10.183   5.119
77239W        W42400  40.491  16.858  13.890
77240W        W42401  29.183  31.191   0.818
77241W        W42402   5.468  34.291   1.028
77242W        W42403  15.046  37.487   0.349
77243W        W42404  43.752  44.504  14.756
77244W        W42405  15.436  29.029  10.136
77245W        W42406  21.623  20.193  12.081
77246W        W42407  10.342  27.681  13.361
77247W        W42408  14.527  42.760  13.035
77248W        W42409   3.665  23.722  12.381
77249W        W42410  44.691  27.010   2.754
77250W        W42411  20.557  23.128   1.191
77251W        W42412   5.837   3.457  11.064
77252W        W42413  39.103  29.566  12.061
77253W        W42414   9.667  37.024  14.737
77254W        W42415  13.275  35.540  12.667
77255W        W42416  37.948  16.059   0.268
77256W        W42417  41.833  21.322   3.653
77257W        W42418  28.528  15.642  13.847
77258W        W42419  20.502  39.922  12.013
77259W        W42420  24.305  26.430   4.947
77260W        W42421  43.528  42.959  11.365
77261W        W42422  34.652  34.031   3.688
77262W        W42423  29.454   2.512  12.949
77263W        W42424  18.833  36.592   1.831
77264W        W42425   6.379  24.804  13.820
77265W        W42426  38.016   3.791   2.400
77266W        W42427  19.798  14.470  11.172
77267W        W42428  22.646  20.552  13.102
77268W        W42429  12.384  10.852  12.035
77269W        W42430   1.511   3.473  10.376
77270W        W42431   5.876  35.172   2.377
77271W        W42432  36.918  28.657  11.618
77272W        W42433  15.112  24.174   1.657
77273W        W42434   6.405  27.618  13.506
77274W        W42435   6.650   6.695  10.462
77275W        W42436  32.871  28.795   2.509
77276W        W42437  31.463   5.204   0.778
77277W        W42438  21.908  44.934   1.972
77278W        W42439  11.823  23.843   2.725
77279W        W42440  37.367  13.246  14.781
77280W        W42441  15.840   6.905  13.069
77281W        W42442   1.102  24.071   4.648
77282W        W42443   0.630   2.728  11.586
77283W        W42444  24.990  21.696   4.034
77284W        W42445  40.073  29.886  12.988
77285W        W42446  42.267   0.761  12.940
77286W        W42447  37.620  39.049   0.809
77287W        W42448  15.064  41.444   2.307
77288W        W42449  17.560  18.561   0.275
77289W        W42450  35.392  22.667   3.245
77290W        W42451  23.247  34.423  11.984
77291W        W42452  20.085   7.528   3.085
77292W        W42453  39.783  25.427  11.702
77293W        W42454  34.294   2.248   4.010
77294W        W42455  37.330   7.327   1.432
77295W        W42456   0.380  20.546  11.708
77296W        W42457   5.728  44.430  10.453
77297W        W42458  20.014  11.429   2.829
77298W        W42459  30.416  32.636  14.238
77299W        W42460   4.884  16.266  13.467
77300W        W42461  28.979  25.666   2.067
77301W        W42462  22.589   0.057  12.141
77302W        W42463  22.944  32.913  14.563
77303W        W42464  13.236  27.406   0.972
77304W        W42465  19.346  25.551  13.404
77305W        W42466  28.053  10.388  13.018
77306W        W42467  10.707  24.141   4.193
77307W        W42468  31.922   7.986   4.658
77308W        W42469   8.798  42.210   4.896
77309W        W42470  37.279  42.078  14.753
77310W        W42471  23.767  17.161   1.034
77311W        W42472  43.271  38.312  12.842
77312W        W42473  10.322  36.928  14.095
77313W        W42474  14.071  17.081   2.827
77314W        W42475   5.008  12.332   4.931
77315W        W42476  17.095  22.969  11.125
77316W        W42477   2.992   1.825  10.372
77317W        W42478  33.718  13.400   4.543
77318W        W42479   0.808  11.187  14.447
77319W        W42480  30.542  28.057  10.634
77320W        W42481  38.823   7.128   0.113
77321W        W42482  39.022  34.330   4.568
77322W        W42483   5.455  18.482  13.517
77323W        W42484  20.236  34.497  10.691
77324W        W42485  21.442  34.429  14.410
77325W        W42486  35.880  25.514  14.464
77326W        W42487  11.384  22.932  13.756
77327W        W42488   3.366   0.470  10.844
77328W        W42489  28.713  40.197  14.255
77329W        W42490  23.094  36.494   1.751
77330W        W42491  27.972  32.692  14.252
77331W        W42492  27.520  35.453   3.399
77332W        W42493  31.014  44.988  14.410
77333W        W42494  36.005   0.954  14.433
77334W        W42495  24.344  26.109   2.545
77335W        W42496   3.324  34.858  12.580
77336W        W42497  16.677  34.777   0.427
77337W        W42498  38.882   1.181   0.583
77338W        W42499   1.771  13.725  12.039
77339W        W42500   5.485  24.095   1.472
77340W        W42501   0.803  43.870   2.283
77341W        W42502  44.319   2.509   4.299
77342W        W42503  22.570  42.752  14.857
77343W        W42504  33.254  32.536  13.574
77344W        W42505  22.023  40.335   0.640
77345W        W42506  18.154  32.386  10.986
77346W        W42507  10.371  20.009  12.464
77347W        W42508   0.477  43.835   1.773
77348W        W42509  30.025   2.312   3.130
77349W        W42510  12.693  28.645  13.079
77350W        W42511  29.404  25.123   3.100
77351W        W42512  19.076  17.712   2.300
77352W        W42513  26.122  42.334   2.336
77353W        W42514  12.141  18.186  14.405
77354W        W42515  25.037  42.030  13.429
77355W        W42516   3.304  34.995   4.962
77356W        W42517  34.506  27.651  12.049
77357W        W42518  23.050   0.441   2.296
77358W        W42519  18.172  18.604  11.892
77359W        W42520   3.157  16.777  14.616
77360W        W42521   9.517  14.153  14.594
77361W        W42522  44.844  32.361   0.286
77362W        W42523  35.283  41.321  14.497
77363W        W42524  29.640  33.128  13.863
77364W        W42525   7.570  37.071  11.455
77365W        W42526  43.058  38.659  14.681
77366W        W42527  25.261   3.279  12.096
77367W        W42528  41.719   2.874  14.696
77368W        W42529   5.361  10.445  12.381
77369W        W42530   5.817  11.658   4.609
77370W        W42531  34.896  42.739  10.836
77371W        W42532   4.907  37.526   2.639
77372W        W42533  43.162   6.081   4.768
77373W        W42534  25.146  32.433   0.692
77374W        W42535  32.432   8.237  13.488
77375W        W42536  39.568   0.349  12.103
77376W        W42537  20.769  40.986  13.928
77377W        W42538   2.316  38.490   1.328
77378W        W42539   5.200  28.190  12.046
77379W        W42540  20.981  23.557  12.826
77380W        W42541   6.472   2.894  12.027
77381W        W42542  15.074  44.938   1.344
77382W        W42543  39.831   6.229   4.125
77383W        W42544  34.159  24.538  12.931
77384W        W42545  31.536  10.598   2.722
77385W        W42546  42.194   0.323   1.799
77386W        W42547  33.154  43.211   4.160
77387W        W42548  36.945  10.231  14.442
77388W        W42549  10.613  14.805   3.621
77389W        W42550  12.906  38.915   1.779
77390W        W42551  28.876  31.878  12.936
77391W        W42552  14.189   7.742   3.442
77392W        W42553   5.349  10.953  12.487
77393W        W42554  18.860  28.524  11.138
77394W        W42555  10.760   2.224  11.592
77395W        W42556   9.574   7.270   4.161
77396W        W42557  35.401   8.219  12.477
77397W        W42558  31.312  10.183  13.072
77398W        W42559  43.408  16.735   4.166
77399W        W42560   9.353  15.734   0.844
77400W        W42561  42.346  20.951  13.447
77401W        W42562  28.167  13.890  12.043
77402W        W42563  28.560  41.955   3.230
77403W        W42564  40.354  27.843  14.412
77404W        W42565  11.416   6.274   3.715
77405W        W42566   5.396  35.644  14.285
77406W        W42567   9.318  15.941   3.705
77407W        W42568  18.792   3.939   3.639
77408W        W42569  27.248  37.336  11.607
77409W        W42570  10.211   8.916  11.864
77410W        W42571   2.281  40.546  12.409
77411W        W42572  33.859   5.249  10.930
77412W        W42573  25.717  40.203   0.473
77413W        W42574  38.524  26.586  10.433
77414W        W42575  27.212  20.491  12.461
77415W        W42576  39.253  20.278  13.549
77416W        W42577  20.366  43.592  10.241
77417W        W42578  29.663  38.827  10.557
77418W        W42579  34.920  13.553   2.281
77419W        W42580  30.576  12.934   1.711
77420W        W42581   0.485  22.762  13.889
77421W        W42582   4.625   1.441   2.621
77422W        W42583   5.975  43.270   1.741
77423W        W42584  31.879  11.613  11.058
77424W        W42585  11.152   6.101  13.467
77425W        W42586   9.179  38.471   3.908
77426W        W42587   8.569  32.884  11.148
77427W        W42588  19.166  21.231   1.215
77428W        W42589   2.460  31.632  12.423
77429W        W42590  30.036  37.116  14.297
77430W        W42591  20.073  33.523   3.325
77431W        W42592  44.445  34.109   0.771
77432W        W42593  33.534  37.616   0.834
77433W        W42594   5.494  44.929  11.585
77434W        W42595  37.604   4.182   9.948
77435W        W42596  14.951  28.147   2.211
77436W        W42597  24.126  43.216  14.011
77437W        W42598  26.463  25.624   1.257
77438W        W42599   0.750  28.262  12.050
77439W        W42600  35.847  17.634   0.778
77440W        W42601  36.390  32.225  13.516
77441W        W42602  21.990  32.663  13.959
77442W        W42603  35.503  18.529  14.375
77443W        W42604  16.503  38.110   9.830
77444W        W42605  17.573  11.481  14.336
77445W        W42606   9.572   4.565   1.441
77446W        W42607  39.346  16.685   3.904
77447W        W42608  34.013  30.959   2.424
77448W        W42609   1.863  13.515   1.244
77449W        W42610   5.606  26.667   3.619
77450W        W42611  37.073  36.192  12.531
77451W        W42612   8.430  22.110   1.774
77452W        W42613  25.897  39.616  12.990
77453W        W42614  19.553  37.117   4.999
77454W        W42615  17.639  29.969  12.765
77455W        W42616  20.241   2.840  13.231
77456W        W42617  43.246   3.365   3.238
77457W        W42618  23.774  18.748   4.877
77458W        W42619  20.560  20.027  14.471
77459W        W42620   3.432  31.923  11.171
77460W        W42621   5.953  22.214   4.416
77461W        W42622   9.472   7.910   1.492
77462W        W42623  39.575   9.772  14.815
77463W        W42624  41.509  11.752   3.685
77464W        W42625  34.009  40.828  13.273
77465W        W42626   7.483  30.497   5.024
77466W        W42627   7.578  27.163   4.530
77467W        W42628  32.036  20.971  11.594
77468W        W42629   0.814  26.285  13.355
77469W        W42630  15.526   3.807   0.660
77470W        W42631   5.715  35.396  12.433
77471W        W42632  39.032  23.744   2.606
77472W        W42633  16.519   8.089   0.370
77473W        W42634  29.940  40.190   1.881
77474W        W42635   2.482   4.962  13.409
77475W        W42636  12.177  13.097  11.004
77476W        W42637  39.436   3.239  14.718
77477W        W42638  16.372  38.008   2.209
77478W        W42639   8.586  30.486  14.510
77479W        W42640  12.776  24.063   2.920
77480W        W42641  14.666  21.817   0.248
77481W        W42642  27.960  16.070  12.928
77482W        W42643  25.981  11.380   2.275
77483W        W42644  20.789  34.448   0.735
77484W        W42645  44.960   4.805   3.344
77485W        W42646  32.189  37.897   3.265
77486W        W42647  41.335  18.051  14.962
77487W        W42648  19.990  42.507   4.094
77488W        W42649  31.613  19.123  11.926
77489W        W42650   3.946  33.117  14.441
77490W        W42651  21.203   0.046   4.085
77491W        W42652  29.406  27.437  11.965
77492W        W42653   2.493  16.846  10.470
77493W        W42654   1.485  18.599   1.286
77494W        W42655  35.078  32.497  14.413
77495W        W42656  39.912   9.282   3.626
77496W        W42657  44.433  34.104   0.242
77497W        W42658  33.183  14.704  11.620
77498W        W42659  39.556  24.963   1.988
77499W        W42660  16.752  37.928   1.830
77500W        W42661  25.278  31.512   3.171
77501W        W42662  36.438  10.859  12.199
77502W        W42663  38.377   5.754  10.586
77503W        W42664  39.850  14.299  11.827
77504W        W42665  29.932  22.345   4.967
77505W        W42666  32.490  30.226  12.964
77506W        W42667   6.223  43.455  14.457
77507W        W42668  11.719  21.938   0.015
77508W        W42669  16.059  36.507   1.313
77509W        W42670  24.193  42.241  13.771
77510W        W42671   7.248  17.849  10.692
77511W        W42672   3.140  26.902  13.952
77512W        W42673  23.919  14.346  11.158
77513W        W42674  40.355  35.059   3.274
77514W        W42675  41.089  17.154  12.645
77515W        W42676  37.823   2.994  14.553
77516W        W42677  22.130  39.269   3.116
77517W        W42678   5.237   7.581   2.632
77518W        W42679  44.729  39.503   3.634
77519W        W42680  37.948  34.624  14.459
77520W        W42681  31.216  39.388  14.833
77521W        W42682  33.585  25.626  13.781
77522W        W42683  39.411  11.038  11.568
77523W        W42684  30.339  26.610  11.539
77524W        W42685  15.759  11.199  13.853
77525W        W42686   1.958  29.490   3.702
77526W        W42687   9.641  25.157  10.594
77527W        W42688  23.273  20.696   9.845
77528W        W42689  27.980  34.899  11.051
77529W        W42690   9.294  40.380   3.921
77530W        W42691  34.120  38.335   1.221
77531W        W42692   3.772   1.526   3.017
77532W        W42693  19.266  44.340  10.491
77533W        W42694  32.688  21.867   3.744
77534W        W42695  30.710  19.420   0.944
77535W        W42696  27.161  28.527  14.989
77536W        W42697  34.059   0.616   2.497
77537W        W42698  35.379  16.364  13.902
77538W        W42699  31.150  35.826   4.141
77539W        W42700  35.555  11.336  12.062
77540W        W42701  34.593  30.429  14.249
77541W        W42702  25.155  39.536   0.026
77542W        W42703  13.362  37.851   3.634
77543W        W42704  19.623  38.015   4.491
77544W        W42705   5.001  43.908  10.647
77545W        W42706  17.921  14.797  10.668
77546W        W42707  23.683  18.847  11.129
77547W        W42708  37.651  23.020   1.199
77548W        W42709  17.555  11.739  13.820
77549W        W42710  31.057  38.439  11.646
77550W        W42711  13.603  23.462  12.575
77551W        W42712  19.760  23.718  13.461
77552W        W42713  39.444  28.101  13.906
77553W        W42714   4.775  12.031  12.360
77554W        W42715  13.193  35.420   0.135
77555W        W42716  15.149  24.454  12.409
77556W        W42717   7.419   5.720  13.954
77557W        W42718  32.329   9.173   0.198
77558W        W42719  38.110  31.645   2.502
77559W        W42720  40.871  25.725   4.528
77560W        W42721  36.574   4.366   0.814
77561W        W42722  40.337  13.510  12.042
77562W        W42723  10.073  37.554   4.260
77563W        W42724   8.261  15.355  14.947
77564W        W42725  23.513  30.076   0.066
77565W        W42726  27.134  23.466  13.156
77566W        W42727  25.822  10.312   1.871
77567W        W42728  41.294   2.575  14.542
77568W        W42729  21.567  13.135   3.186
77569W        W42730   3.732  34.611   0.508
77570W        W42731   7.406  44.730   0.894
77571W        W42732  19.756  31.328  13.428
77572W        W42733  35.039  21.899   4.315
77573W        W42734  15.826   1.742   1.725
77574W        W42735   3.580  33.052  14.869
77575W        W42736  21.053  41.603  12.585
77576W        W42737  29.609  40.894  12.913
77577W        W42738  13.755  36.688  10.883
77578W        W42739  37.884  26.576   4.475
77579W        W42740   0.230  31.605  11.131
77580W        W42741  34.632  19.580  12.408
77581W        W42742  33.211  14.185   5.165
77582W        W42743  38.117   4.864  14.344
77583W        W42744  11.166   3.222  14.526
77584W        W42745   8.195   6.860   0.673
77585W        W42746  36.916  37.571  10.243
77586W        W42747  27.414  27.453  11.200
77587W        W42748  26.502  27.005  10.505
77588W        W42749  19.561  39.071   2.708
77589W        W42750  30.428  33.923   2.233
77590W        W42751  32.300  31.685   2.850
77591W        W42752   9.618  44.444   0.844
77592W        W42753  40.949  34.113  12.135
77593W        W42754   6.202   0.258  13.354
77594W        W42755   4.869  41.662  14.863
77595W        W42756   1.958  33.718   0.053
77596W        W42757  21.413  17.301  14.391
77597W        W42758   0.517   1.532  13.976
77598W        W42759  40.304  26.707  14.972
77599W        W42760  25.578   5.659  13.832
77600W        W42761  35.129   6.767  11.242
77601W        W42762  15.165  11.921   4.257
77602W        W42763  31.220   2.342   3.796
77603W        W42764  26.490  17.778   2.703
77604W        W42765   9.373  20.627  13.069
77605W        W42766  41.212  20.038  11.140
77606W        W42767  30.985  26.207   1.493
77607W        W42768  34.843  36.520   1.710
77608W        W42769  23.630   6.178   4.642
77609W        W42770   4.763  32.931  10.688
77610W        W42771  36.487  10.212  13.835
77611W        W42772  35.566  43.406   3.658
77612W        W42773   0.555   2.010  10.780
77613W        W42774  42.942  12.863  12.938
77614W        W42775  41.938  43.839  12.132
77615W        W42776   6.449  36.867  12.384
77616W        W42777  36.928  26.728   4.630
77617W        W42778  18.220   3.509  10.525
77618W        W42779  42.793   7.954  13.564
77619W        W42780  27.996   0.937  14.477
77620W        W42781  44.463   8.226   0.728
77621W        W42782  28.865   7.756  11.200
77622W        W42783  30.271   6.085  12.423
77623W        W42784  40.882  22.765   2.417
77624W        W42785  42.946   0.641   4.062
77625W        W42786  10.787  15.481  11.208
77626W        W42787  20.775  44.745  13.529
77627W        W42788  12.342  22.005  13.003
77628W        W42789  30.219  33.983  14.076
77629W        W42790   0.904  40.290  14.415
77630W        W42791  21.581  35.548   1.311
77631W        W42792   7.751  34.196  14.453
77632W        W42793  22.148   6.517   2.929
77633W        W42794  28.006   1.378   0.748
77634W        W42795  40.155  37.375   0.814
77635W        W42796  17.481  15.699  10.782
77636W        W42797  36.180  17.834   3.632
77637W        W42798  11.199  42.829   0.231
77638W        W42799  25.835  12.445  11.342
77639W        W42800  37.472   9.383   0.843
77640W        W42801  35.945   0.818   3.713
77641W        W42802   4.512   9.940  13.564
77642W        W42803  22.984  44.450   1.242
77643W        W42804  19.231  27.753  11.180
77644W        W42805  29.603   8.178  11.205
77645W        W42806  15.791   0.402   0.354
77646W        W42807   7.637   4.492  11.543
77647W        W42808   6.811  22.640  10.705
77648W        W42809   8.759  21.183   2.734
77649W        W42810   0.743  21.580   4.430
77650W        W42811  20.712  28.674  13.058
77651W        W42812  43.820  33.840   4.191
77652W        W42813  43.736  21.204  12.149
77653W        W42814   8.833  19.571   0.906
77654W        W42815  19.886  29.476   3.367
77655W        W42816  17.157   2.246  12.799
77656W        W42817  10.949  28.377   2.702
77657W        W42818  23.279  33.993   0.183
77658W        W42819  35.419  34.929   4.503
77659W        W42820  13.454  15.009   0.277
77660W        W42821   8.140  29.136   2.281
77661W        W42822  40.419  20.968   1.202
77662W        W42823  22.625   9.634  11.957
77663W        W42824  25.461  44.273   2.150
77664W        W42825  25.975  21.577  11.490
77665W        W42826   7.381  11.265   1.410
77666W        W42827  32.058  33.926  14.823
77667W        W42828  12.259  20.656  11.074
77668W        W42829  41.003   8.473   2.419
77669W        W42830  13.824  26.564   0.184
77670W        W42831  32.012  17.258  10.479
77671W        W42832  36.942  34.402   4.384
77672W        W42833  24.963  13.619   0.793
77673W        W42834  40.821  20.617   0.983
77674W        W42835  33.564   3.847  13.457
77675W        W42836  34.602  44.349   2.142
77676W        W42837  24.080  10.295   3.105
77677W        W42838  34.248  41.943   4.434
77678W        W42839  16.254  32.030  13.913
77679W        W42840   9.368  31.199  11.152
77680W        W42841  10.579  14.752   0.819
77681W        W42842   5.985   3.354   1.356
77682W        W42843  16.042  27.932  12.108
77683W        W42844  41.785   2.563  10.663
77684W        W42845  35.500   8.459   3.245
77685W        W42846  27.438   3.009   1.746
77686W        W42847  18.515  10.401  10.795
77687W        W42848  15.860  44.989   1.722
77688W        W42849   5.221  32.267   4.576
77689W        W42850  18.027  27.649  14.855
77690W        W42851  29.629  11.561  14.207
77691W        W42852   5.334   7.084   0.374
77692W        W42853   9.322  25.978  11.036
77693W        W42854  14.421  19.323  13.051
77694W        W42855  10.301  24.948  13.931
77695W        W42856  44.926  11.104  12.466
77696W        W42857  23.718  13.738   4.355
77697W        W42858  20.814  29.582  11.574
77698W        W42859  15.686  11.334   4.566
77699W        W42860  18.348  17.411   1.442
77700W        W42861  29.240  15.129   3.084
77701W        W42862  15.263  16.337   3.995
77702W        W42863  24.487  36.822  12.534
77703W        W42864   6.669  29.684  10.281
77704W        W42865  21.127   7.768  10.745
77705W        W42866   0.724  41.328  12.961
77706W        W42867  12.145  36.337   1.736
77707W        W42868  24.819  44.374  10.458
77708W        W42869   9.606  32.148   0.661
77709W        W42870  11.716   7.073   0.300
77710W        W42871   1.012  28.192  13.349
77711W        W42872  23.172   0.963  11.829
77712W        W42873  15.226  30.020   1.984
77713W        W42874  13.142  24.451  10.806
77714W        W42875  17.711  43.391   4.431
77715W        W42876  25.776  42.087   4.168
77716W        W42877   1.857   6.046   0.431
77717W        W42878  27.118  13.127   2.767
77718W        W42879  37.042  34.366   3.881
77719W        W42880   3.450  12.263  10.568
77720W        W42881   7.991  17.582  13.969
77721W        W42882  26.155  35.926  11.576
77722W        W42883  33.834  39.979  13.040
77723W        W42884  16.737  38.608  11.433
77724W        W42885  38.114  32.417   1.656
77725W        W42886   5.136  40.017   0.181
77726W        W42887  30.041  22.471  11.193
77727W        W42888   1.768  42.403   3.904
77728W        W42889   3.433  36.861   1.268
77729W        W42890  36.362  15.700   3.568
77730W        W42891   9.746   3.931   3.676
77731W        W42892   5.562  26.852  12.569
77732W        W42893  16.540  22.538  11.990
77733W        W42894  29.846  20.720   2.307
77734W        W42895  20.678   0.994  14.836
77735W        W42896  38.084  26.378  10.273
77736W        W42897  37.317  26.908  14.818
77737W        W42898  21.051  36.880  13.968
77738W        W42899   5.929  26.411   0.168
77739W        W42900  44.128  22.714   4.785
77740W        W42901   3.634  40.155   3.125
77741W        W42902   4.879  41.412   1.188
77742W        W42903   5.383   9.217  11.450
77743W        W42904   5.908  38.382  13.323
77744W        W42905  15.865   4.509   4.593
77745W        W42906  41.490  17.831  10.536
77746W        W42907  30.430  42.708  13.107
77747W        W42908  26.199  23.086   1.672
77748W        W42909   2.908  29.068  11.656
77749W        W42910  26.656  15.180   5.100
77750W        W42911   0.664  22.691   4.867
77751W        W42912  30.362  28.213  11.092
77752W        W42913  15.242  37.666  14.902
77753W        W42914  26.796  16.111   9.843
77754W        W42915  10.509  23.525  10.120
77755W        W42916  38.043  44.002  10.570
77756W        W42917  35.791  27.133   1.329
77757W        W42918  12.338  38.519  13.123
77758W        W42919   0.966  11.150   5.027
77759W        W42920  39.133  24.438   1.736
77760W        W42921   5.094   2.497  11.310
77761W        W42922  39.959  15.795  14.568
77762W        W42923  15.937  34.363   0.910
77763W        W42924  39.735  28.510  11.722
77764W        W42925  34.683  32.428  10.671
77765W        W42926   4.723  24.124  11.439
77766W        W42927  44.181  22.974   2.540
77767W        W42928  34.693  39.360  12.801
77768W        W42929  41.504  31.951  12.474
77769W        W42930  38.608   2.822   2.179
77770W        W42931  18.347  33.878   3.461
77771W        W42932   1.789  20.744  10.837
77772W        W42933   5.844  11.750   2.391
77773W        W42934  44.237  44.379  11.917
77774W        W42935  17.584  24.706   0.444
77775W        W42936   4.359  36.834   1.147
77776W        W42937  13.740   5.895   4.690
77777W        W42938  35.867   2.937  13.884
77778W        W42939  26.657  13.804   0.055
77779W        W42940  16.312   3.749   1.205
77780W        W42941  13.759  13.835  12.671
77781W        W42942  37.594  15.118  13.449
77782W        W42943  42.887  17.563   4.192
77783W        W42944   0.040  12.859   1.706
77784W        W42945  35.928  24.493   4.131
77785W        W42946   3.007  11.262   2.278
77786W        W42947   1.273  14.862   2.917
77787W        W42948  17.457  25.705   2.543
77788W        W42949  39.453  22.645  11.856
77789W        W42950  43.693  28.867  10.994
77790W        W42951   2.490   8.464  14.546
77791W        W42952   6.435   7.714   2.312
77792W        W42953   3.045  14.107   1.678
77793W        W42954  23.494  36.608   3.092
77794W        W42955   9.718  10.804  11.559
77795W        W42956   1.343  10.659   2.919
77796W        W42957   7.720  17.673   2.111
77797W        W42958  30.928   6.336   3.537
77798W        W42959   9.651   2.203   0.664
77799W        W42960  15.100  30.407  14.035
77800W        W42961   5.866   4.262  13.046
77801W        W42962  32.951   1.338   2.233
77802W        W42963  37.739   9.670  11.085
77803W        W42964   0.372  30.227  11.210
77804W        W42965  14.371  31.440  11.081
77805W        W42966  13.274  16.099   4.197
77806W        W42967  24.051   1.390   0.883
77807W        W42968   5.456  20.325  14.449
77808W        W42969  35.458  38.802   4.044
77809W        W42970  40.145  19.457   2.894
77810W        W42971  38.543   1.502  12.059
77811W        W42972  31.365  37.723  12.544
77812W        W42973  12.594  33.604  11.684
77813W        W42974  16.802  27.469   4.621
77814W        W42975  27.219   2.428  12.021
77815W        W42976  10.278   1.953  14.964
77816W        W42977  13.886  31.686  12.190
77817W        W42978  32.523  17.837   1.637
77818W        W42979   2.196  29.635   0.318
77819W        W42980   7.478  25.667  14.321
77820W        W42981   6.377  44.218   1.815
77821W        W42982  34.131  21.790   4.135
77822W        W42983  25.127  10.326   0.376
77823W        W42984  28.036  16.070   3.309
77824W        W42985  34.625   9.421   2.722
77825W        W42986  23.318  43.033   0.111
77826W        W42987   8.743  32.458   3.293
77827W        W42988   2.611  38.488   3.443
77828W        W42989  31.097  30.700   0.730
77829W        W42990  22.018  19.338  14.781
77830W        W42991   6.924   2.872   0.578
77831W        W42992   0.565  16.659  14.038
77832W        W42993  12.890   1.304  11.608
77833W        W42994  25.686  33.065   2.733
77834W        W42995   1.836   5.183   2.807
77835W        W42996  32.770  42.590  14.580
77836W        W42997  30.113  13.644  12.642
77837W        W42998  36.889  27.116  10.344
77838W        W42999   0.593  21.618  14.778
77839W        W43000  22.774  42.706  10.650
77840W        W43001  23.480   2.016  14.776
77841W        W43002  34.697  25.733   2.333
77842W        W43003  37.576  15.566   2.952
77843W        W43004  42.823   7.340  14.277
77844W        W43005  43.695  35.430   1.028
77845W        W43006  15.103  25.222  12.098
77846W        W43007  11.673   9.172   1.703
77847W        W43008   4.656  30.268   3.710
77848W        W43009  32.090  15.382   5.037
77849W        W43010  38.833   1.069   4.609
77850W        W43011  29.330  24.149  10.351
77851W        W43012  20.182  29.106   4.665
77852W        W43013   0.273  30.207  13.865
77853W        W43014  18.391  26.024  14.728
77854W        W43015  20.459  11.207   1.317
77855W        W43016  42.378  20.165  13.751
77856W        W43017   3.840   4.320   0.480
77857W        W43018  39.457  10.340  14.020
77858W        W43019  25.197   9.803  11.139
77859W        W43020  13.312  29.155  11.473
77860W        W43021  21.524  16.928  10.204
77861W        W43022  35.356  31.106   3.892
77862W        W43023  44.585  29.202  14.014
77863W        W43024  39.851  13.368   2.845
77864W        W43025  26.353  15.362   0.773
77865W        W43026  10.093   4.617   2.306
77866W        W43027  33.440  44.471  12.445
77867W        W43028  23.544   3.002   0.991
77868W        W43029  35.659   0.068   1.892
77869W        W43030  32.262  22.665  13.810
77870W        W43031   1.170   3.954   4.744
77871W        W43032  32.433  35.068  12.368
77872W        W43033  20.539  35.353  10.728
77873W        W43034   6.761   8.141   4.254
77874W        W43035  12.320   4.360  11.116
77875W        W43036   2.313  13.117  12.479
77876W        W43037  16.367  28.062   4.167
77877W        W43038  42.091  39.372  14.965
77878W        W43039   2.698  10.343   0.359
77879W        W43040  39.823  44.504   1.757
77880W        W43041  13.805  30.030  12.363
77881W        W43042  38.243   0.531   1.690
77882W        W43043  29.908   3.539   1.372
77883W        W43044  23.666  24.881  13.980
77884W        W43045  40.660   5.748   0.536
77885W        W43046   6.786  20.641   2.900
77886W        W43047  41.124  10.905   3.521
77887W        W43048  25.503   0.368   2.159
77888W        W43049  20.154  28.607  10.441
77889W        W43050  41.810  44.210  12.473
77890W        W43051  32.875  14.230  14.792
77891W        W43052  27.116   0.095   0.970
77892W        W43053  33.452  44.484  13.649
77893W        W43054  22.686  28.175  14.008
77894W        W43055   6.474  31.555  12.964
77895W        W43056   4.740  33.350  13.805
77896W        W43057  16.743   4.630   1.971
77897W        W43058   7.490  22.939   2.188
77898W        W43059  27.612  12.394  12.622
77899W        W43060  22.848   8.337   4.193
77900W        W43061  26.356  15.143  13.974
77901W        W43062  17.864  25.748  12.469
77902W        W43063  14.122  39.232  10.680
77903W        W43064  37.935  25.178  11.915
77904W        W43065   7.965  19.279  13.408
77905W        W43066  20.758  20.290   0.784
77906W        W43067  13.343  18.129   3.287
77907W        W43068  29.971  21.696  13.508
77908W        W43069   6.883  21.972  11.836
77909W        W43070  12.790  34.075   2.784
77910W        W43071  18.893  38.440  14.471
77911W        W43072  36.801  18.553  14.118
77912W        W43073  41.588  27.024  11.845
77913W        W43074  41.605  18.578   1.811
77914W        W43075  36.844   0.661   1.961
77915W        W43076  15.596  15.179  10.197
77916W        W43077  38.559  24.201  11.225
77917W        W43078   0.859   7.097  10.801
77918W        W43079  13.342  15.540   1.740
77919W        W43080  15.811  28.195  12.490
77920W        W43081  21.090  33.628  14.841
77921W        W43082  25.677  19.958   4.018
77922W        W43083   5.010  42.458  10.098
77923W        W43084  33.347  41.457   2.348
77924W        W43085  18.592   5.475   0.641
77925W        W43086  19.970  13.713   3.612
77926W        W43087  39.146  37.413  13.808
77927W        W43088   0.342  14.477   4.911
77928W        W43089  43.376  41.623  12.071
77929W        W43090   5.754  44.932  11.141
77930W        W43091  28.296  22.978   3.999
77931W        W43092  20.604   4.756   3.908
77932W        W43093  25.012  40.553   1.910
77933W        W43094  25.255  26.491   4.791
77934W        W43095   1.397  35.601  13.849
77935W        W43096  16.176   3.400  13.063
77936W        W43097   0.007  41.025  14.057
77937W        W43098  43.979  32.627   1.743
77938W        W43099  38.981  32.193   4.163
77939W        W43100  24.888   6.646  13.121
77940W        W43101  40.251  41.003   1.636
77941W        W43102  43.554  33.412  12.363
77942W        W43103  14.901  24.592  10.719
77943W        W43104  10.704  21.176  13.069
77944W        W43105  37.827   1.482   2.182
77945W        W43106  11.448  28.100  12.210
77946W        W43107  31.641  38.810   0.975
77947W        W43108  44.443  12.708  14.250
77948W        W43109  44.261  34.390  12.067
77949W        W43110  13.848  11.855  13.952
77950W        W43111  31.512  37.633  14.789
77951W        W43112   9.349   1.219  10.856
77952W        W43113   6.276   9.890  14.822
77953W        W43114  27.076  44.400  10.692
77954W        W43115  17.770  36.707   1.833
77955W        W43116  34.898  18.344   2.067
77956W        W43117   3.837  29.655  11.503
77957W        W43118  32.716  17.213  13.565
77958W        W43119  25.978  21.168   4.750
77959W        W43120   7.339  15.609   1.227
77960W        W43121  18.107  41.440   1.981
77961W        W43122  11.328  10.612  13.534
77962W        W43123  31.831   5.921  11.849
77963W        W43124  34.900   8.150   4.563
77964W        W43125   7.164   6.609  12.887
77965W        W43126  25.608  43.320   2.307
77966W        W43127   9.140  20.466  13.535
77967W        W43128  29.549  22.814   2.349
77968W        W43129  39.567  33.182   2.236
77969W        W43130  44.471  32.528   1.879
77970W        W43131  17.344   1.275  14.806
77971W        W43132  19.064  42.466   3.879
77972W        W43133  40.775  10.801   2.105
77973W        W43134  32.634  16.647   2.892
77974W        W43135   0.006  21.203   1.374
77975W        W43136  29.400   3.737  11.370
77976W        W43137  16.660  33.422   4.137
77977W        W43138  16.295  37.485   2.232
77978W        W43139  30.851  44.929   2.932
77979W        W43140   4.782  27.662  14.755
77980W        W43141  31.562  19.166   3.514
77981W        W43142  25.072  16.087  11.719
77982W        W43143  37.062   4.427  11.593
77983W        W43144  16.651  11.374  11.660
77984W        W43145  34.599  23.017   0.248
77985W        W43146  44.347  22.609  11.638
77986W        W43147  42.781  37.145  12.446
77987W        W43148  26.198  19.078   3.160
77988W        W43149  30.476  18.276  11.007
77989W        W43150   8.725  29.558  12.503
77990W        W43151  39.587  30.541  10.735
77991W        W43152  10.365  10.182   1.148
77992W        W43153  33.600  11.702   4.145
77993W        W43154  24.728   5.152   2.326
77994W        W43155  18.918   9.082  11.117
77995W        W43156  29.996  38.345   2.451
77996W        W43157  41.869  43.976  11.209
77997W        W43158  38.974  28.473  13.802
77998W        W43159  44.978  15.705  13.736
77999W        W43160  25.271  27.672  10.681
78000W        W43161   1.583  21.728   0.013
78001W        W43162  27.989  29.939  12.503
78002W        W43163   9.146   5.109  12.026
78003W        W43164  39.702  35.075  14.984
78004W        W43165  19.943  26.771  10.367
78005W        W43166  13.937  21.135   4.991
78006W        W43167  36.847  29.006   2.881
78007W        W43168  21.549  43.266  12.498
78008W        W43169  32.227  17.828   2.424
78009W        W43170  12.371  22.714   1.010
78010W        W43171  43.829  18.670  10.785
78011W        W43172  16.680  28.352   2.750
78012W        W43173  23.364  25.804   2.835
78013W        W43174  41.493  26.535  10.597
78014W        W43175  26.523  18.687   0.313
78015W        W43176  14.208  34.824  12.919
78016W        W43177  33.179  19.495  14.247
78017W        W43178   3.720  31.941  11.604
78018W        W43179  34.118  40.795   2.315
78019W        W43180  29.113   0.239  10.816
78020W        W43181  11.283  35.255   1.869
78021W        W43182  22.225  15.769   1.246
78022W        W43183  41.383  20.614   3.662
78023W        W43184  24.502   7.547   3.218
78024W        W43185  27.817  10.686   3.123
78025W        W43186  13.255  30.819  12.626
78026W        W43187   8.695  32.870   2.720
78027W        W43188  32.468   3.110  11.917
78028W        W43189  24.166  27.972  14.924
78029W        W43190  30.500   2.246  12.595
78030W        W43191   4.709  26.526   3.625
78031W        W43192  17.809   8.599   4.146
78032W        W43193  24.017  33.496  10.704
78033W        W43194   9.600   4.807  10.623
78034W        W43195  26.485  30.295   0.374
78035W        W43196  26.459  31.269   1.233
78036W        W43197  15.145  17.945  13.963
78037W        W43198   0.265  22.169  10.817
78038W        W43199  35.203  10.828   2.883
78039W        W43200   5.925  35.659  11.095
78040W        W43201  11.328   6.619  11.404
78041W        W43202  18.004  20.328   1.121
78042W        W43203  21.389  15.740  12.675
78043W        W43204  35.616   6.641  11.256
78044W        W43205   6.346  37.822   3.582
78045W        W43206  26.083  39.929   2.897
78046W        W43207  29.517  22.045   1.825
78047W        W43208  32.632   4.923   0.738
78048W        W43209  38.858  29.223  13.255
78049W        W43210  20.572  22.047  14.624
78050W        W43211  28.258  23.714  11.557
78051W        W43212  11.614  14.774   3.709
78052W        W43213  39.045  31.064  13.129
78053W        W43214  38.948  44.574  14.427
78054W        W43215   9.421   4.321  14.451
78055W        W43216  18.044  25.936  14.315
78056W        W43217   8.052  23.002  13.404
78057W        W43218  41.552   2.449  14.037
78058W        W43219  28.450  18.996  12.860
78059W        W43220  30.440  40.260   1.766
78060W        W43221  23.544   2.067   0.916
78061W        W43222  22.825   1.316  11.627
78062W        W43223   6.682  43.198  11.154
78063W        W43224   4.702  39.713  11.230
78064W        W43225  15.807  40.247  14.346
78065W        W43226  25.930  12.147  13.153
78066W        W43227  19.469  32.019   2.799
78067W        W43228  10.895  35.536   0.718
78068W        W43229  42.452  19.790  14.091
78069W        W43230  22.256  19.578   3.204
78070W        W43231  41.897   9.976  14.783
78071W        W43232  37.399  44.549   3.199
78072W        W43233  26.606  29.973  13.509
78073W        W43234  26.586   5.857  10.538
78074W        W43235   3.322   2.720  14.564
78075W        W43236   2.028  23.410  12.076
78076W        W43237  44.021  30.891  13.458
78077W        W43238  19.142   4.978   2.792
78078W        W43239   1.758  37.819   1.040
78079W        W43240  40.504   1.063  11.527
78080W        W43241  11.746  26.209   3.249
78081W        W43242  44.250  32.970  14.874
78082W        W43243  23.438  31.690   3.010
78083W        W43244  32.511  43.187  11.629
78084W        W43245  21.374  11.361   2.220
78085W        W43246   8.149  24.069  12.985
78086W        W43247  22.584  19.483   3.711
78087W        W43248  17.818  40.026   1.410
78088W        W43249  30.672   9.841  11.104
78089W        W43250  40.764   5.663  13.789
78090W        W43251  44.698  35.401  10.695
78091W        W43252  37.291  29.526   4.687
78092W        W43253  34.964  41.997  14.036
78093W        W43254  31.489  19.758  11.207
78094W        W43255  34.153  27.128   3.354
78095W        W43256   7.590   3.515  12.415
78096W        W43257  10.249  30.463   3.638
78097W        W43258  13.341  11.234  14.867
78098W        W43259  13.282  18.643   2.447
78099W        W43260  32.978   6.194  13.770
78100W        W43261  44.758   2.842   3.833
78101W        W43262  32.377  41.599  11.247
78102W        W43263  25.899  40.951  11.575
78103W        W43264   4.688  40.316   3.318
78104W        W43265  44.874  17.264  11.911
78105W        W43266  26.414  19.675   1.290
78106W        W43267  26.197  13.560  11.592
78107W        W43268  17.055  20.591  13.917
78108W        W43269  38.737  30.457  10.162
78109W        W43270  23.468   5.439  13.956
78110W        W43271  12.325  12.426  12.843
78111W        W43272  12.375  44.031  14.280
78112W        W43273  38.749  32.093   1.967
78113W        W43274  13.583   2.719  11.113
78114W        W43275  10.700   8.829  11.676
78115W        W43276  35.537  35.717   1.709
78116W        W43277  17.010  35.414   1.258
78117W        W43278  19.462  41.439  14.115
78118W        W43279  14.171  25.464   1.406
78119W        W43280  21.652  19.672  13.363
78120W        W43281  11.268   0.307  10.592
78121W        W43282  10.066  11.676   2.697
78122W        W43283   6.213  37.312   4.680
78123W        W43284  32.913   1.603   0.764
78124W        W43285  38.964  43.341  12.129
78125W        W43286  14.789   2.647  12.959
78126W        W43287   2.736  31.983  13.430
78127W        W43288  18.494  34.267  13.533
78128W        W43289  20.115  38.348   0.240
78129W        W43290   9.171  19.201   0.726
78130W        W43291  38.900  34.109  11.999
78131W        W43292  32.547  19.580  14.641
78132W        W43293   8.582  29.013  12.477
78133W        W43294  29.077   2.831  13.962
78134W        W43295  22.565  33.845  11.036
78135W        W43296  36.314   4.463  14.292
78136W        W43297  25.361   7.295   3.523
78137W        W43298  28.815   5.712  14.480
78138W        W43299  16.717   6.143   1.708
78139W        W43300   7.656  12.639   0.430
78140W        W43301  15.404  33.926   2.897
78141W        W43302   2.390  23.487  13.093
78142W        W43303  12.869  14.336   2.380
78143W        W43304   3.657  11.702   0.794
78144W        W43305  19.780  11.384  13.957
78145W        W43306  20.093  42.888   0.039
78146W        W43307   8.862  22.733  13.433
78147W        W43308   2.029  35.546   4.583
78148W        W43309   7.897   7.337   0.481
78149W        W43310  20.474  27.544   1.739
78150W        W43311  38.408  41.745  13.405
78151W        W43312  32.431  25.023   4.489
78152W        W43313  41.936  18.562   3.417
78153W        W43314  23.099  39.834  14.148
78154W        W43315  28.381  33.592  10.431
78155W        W43316  12.760  35.486   3.089
78156W        W43317   7.792  16.891   0.942
78157W        W43318  31.088   2.194   3.300
78158W        W43319  21.491  31.002   2.081
78159W        W43320  34.236  19.589   1.752
78160W        W43321  14.367   1.051  11.422
78161W        W43322   3.944  17.895  14.628
78162W        W43323  13.866  10.787   2.239
78163W        W43324  11.254  20.610  10.614
78164W        W43325  18.887   6.277   0.237
78165W        W43326   3.228  15.170   0.984
78166W        W43327  29.066  38.276   3.789
78167W        W43328   1.501  44.190   3.123
78168W        W43329  31.388  23.144  11.960
78169W        W43330  26.595  36.182   2.790
78170W        W43331  37.879  14.229  12.045
78171W        W43332  44.299  20.251   2.161
78172W        W43333   0.317  34.112   2.309
78173W        W43334  39.779  10.775  14.993
78174W        W43335   1.909  22.530  13.471
78175W        W43336  15.249  22.526  11.468
78176W        W43337  42.848  10.659  13.827
78177W        W43338  21.123  39.359   4.024
78178W        W43339  11.648  29.175  12.476
78179W        W43340  21.627  19.667   1.668
78180W        W43341   2.209  44.498  11.978
78181W        W43342  34.395  26.241   3.153
78182W        W43343   3.944  14.769   2.423
78183W        W43344  11.333  44.904  14.371
78184W        W43345  12.664  26.680   3.234
78185W        W43346  40.802   5.035  11.097
78186W        W43347   2.518   5.372   3.721
78187W        W43348  44.779  15.249  13.948
78188W        W43349  23.404  16.539  11.120
78189W        W43350  14.023  18.043   0.884
78190W        W43351  25.026  24.430   0.471
78191W        W43352  20.229  22.143   4.212
78192W        W43353  18.039  42.522   2.687
78193W        W43354   0.768  30.571  11.122
78194W        W43355  17.707  13.820  10.517
78195W        W43356  15.151  13.757  12.174
78196W        W43357  29.614  44.994  13.099
78197W        W43358  21.467  37.649  12.388
78198W        W43359  12.688  10.628   1.327
78199W        W43360  44.477   5.016  11.691
78200W        W43361  42.095  43.748   2.402
78201W        W43362   3.897  16.548  13.337
78202W        W43363  16.340  42.776  13.861
78203W        W43364  24.247  26.971   0.854
78204W        W43365  32.517  36.811  13.818
78205W        W43366  40.743  30.626   1.707
78206W        W43367   5.177  32.588   2.303
78207W        W43368  11.334  10.928   3.837
78208W        W43369  14.678  21.945   1.142
78209W        W43370  31.991  32.722  12.375
78210W        W43371  36.798   5.984  14.282
78211W        W43372  35.266  27.533  12.530
78212W        W43373  28.998  33.335  11.724
78213W        W43374  20.572  13.681  10.618
78214W        W43375   3.878  12.862  11.650
78215W        W43376  27.484  21.653  10.581
78216W        W43377  30.972  23.048  13.797
78217W        W43378  15.823  31.428  12.522
78218W        W43379  19.751  21.021  13.315
78219W        W43380  41.028  24.178   4.720
78220W        W43381  23.450  34.365  11.139
78221W        W43382  18.123  33.282   1.288
78222W        W43383  27.166  28.020  11.976
78223W        W43384  29.788  10.917   3.234
78224W        W43385  19.483  10.157  10.670
78225W        W43386  25.604  38.910  10.321
78226W        W43387  41.972  39.006  10.611
78227W        W43388  12.822  23.195  13.830
78228W        W43389  37.896  28.938  12.928
78229W        W43390  32.146  22.553   9.835
78230W        W43391   7.969  34.135   3.988
78231W        W43392  16.775  41.336  12.052
78232W        W43393   7.844   4.975  13.863
78233W        W43394  10.742  35.633  14.013
78234W        W43395  44.391   5.183   4.107
78235W        W43396   9.820   9.286   4.129
78236W        W43397  40.060   5.382  13.528
78237W        W43398  32.688  12.134  14.395
78238W        W43399  31.657  19.242  12.912
78239W        W43400  40.889  20.228  11.615
78240W        W43401  27.800  44.265  13.407
78241W        W43402  32.305  19.761   3.143
78242W        W43403  17.124  15.105  14.913
78243W        W43404   4.400  16.717   0.455
78244W        W43405  36.556  39.368  10.737
78245W        W43406  19.435  40.483  13.072
78246W        W43407  43.353  19.102   2.342
78247W        W43408  43.839  28.882   3.686
78248W        W43409  28.860  21.616   3.435
78249W        W43410  13.750   9.633   2.800
78250W        W43411  16.790  26.049   3.272
78251W        W43412  38.832  41.147   3.230
78252W        W43413   8.222  25.611   4.479
78253W        W43414   8.283  15.100  12.434
78254W        W43415  39.333  38.093   0.785
78255W        W43416   5.871  24.074  13.703
78256W        W43417  15.569  36.010  12.673
78257W        W43418  13.631   0.006   2.330
78258W        W43419  43.751  35.100   5.505
78259W        W43420  28.070  37.816   3.684
78260W        W43421   6.673  12.235   4.682
78261W        W43422  44.922  26.105  12.369
78262W        W43423   1.128  11.636   4.936
78263W        W43424  15.200  12.114   0.048
78264W        W43425  13.186  27.060   2.816
78265W        W43426  24.305  15.293   4.142
78266W        W43427  40.597  13.798  12.504
78267W        W43428  27.954  27.791  11.105
78268W        W43429   1.993  41.974   3.343
78269W        W43430  29.660  18.799   0.402
78270W        W43431   6.359  12.561  10.296
78271W        W43432   3.793  20.997  10.525
78272W        W43433   6.487  12.285  13.330
78273W        W43434   1.940  20.079  11.993
78274W        W43435  39.970  20.969   1.906
78275W        W43436  18.486  14.530   3.317
78276W        W43437  32.539   4.146  14.847
78277W        W43438  42.426   8.054  11.740
78278W        W43439  39.306  29.633   0.133
78279W        W43440   0.740  43.417  14.906
78280W        W43441  25.908  43.902  14.245
78281W        W43442   0.520  21.438  13.554
78282W        W43443  14.300  41.520  11.917
78283W        W43444  23.478  29.686  13.820
78284W        W43445  26.259  19.090  14.420
78285W        W43446   9.597  41.343  14.878
78286W        W43447   3.156  28.337   0.683
78287W        W43448  44.259   5.889  12.226
78288W        W43449  39.569   5.653   2.967
78289W        W43450  15.791  15.126  14.447
78290W        W43451   6.517  30.229  14.485
78291W        W43452  23.500   3.467   2.179
78292W        W43453  17.204  41.066   1.080
78293W        W43454  29.934  32.692  14.082
78294W        W43455  19.234  27.989   4.728
78295W        W43456  35.563  33.561   2.618
78296W        W43457  16.631  28.533   0.966
78297W        W43458   0.128  36.295  12.974
78298W        W43459  39.660  19.737   3.653
78299W        W43460  13.072  40.723   3.519
78300W        W43461  34.586   8.768   1.415
78301W        W43462  35.880  44.405  13.910
78302W        W43463   6.365   0.940   4.620
78303W        W43464  11.095  18.679  14.026
78304W        W43465  31.109  31.641   4.066
78305W        W43466  25.128  44.421   3.296
78306W        W43467  13.669  17.134   0.945
78307W        W43468  41.563   6.727  13.080
78308W        W43469  26.710  28.746  10.696
78309W        W43470  32.115  29.189   3.680
78310W        W43471   4.022  23.589  14.693
78311W        W43472  12.342  21.686  14.422
78312W        W43473  22.417  16.661   2.243
78313W        W43474  24.005  21.263   5.029
78314W        W43475  38.255  34.072   0.385
78315W        W43476  21.432   9.634  10.621
78316W        W43477  39.281  26.890   4.808
78317W        W43478  15.100  22.051   0.489
78318W        W43479   4.389  27.186  13.493
78319W        W43480  31.482  37.114   0.766
78320W        W43481  34.600  14.208  11.670
78321W        W43482  37.751  18.692   0.769
78322W        W43483  17.642  27.560   3.276
78323W        W43484  10.785  31.135   1.537
78324W        W43485  21.700  40.874   1.631
78325W        W43486   5.813  30.114  11.241
78326W        W43487   9.577  40.961   2.954
78327W        W43488  29.954  40.332   3.723
78328W        W43489   8.240   3.832  13.335
78329W        W43490  15.558   7.102   0.236
78330W        W43491  36.725  10.867   3.961
78331W        W43492  20.826   7.758  12.092
78332W        W43493  25.430   4.256   0.305
78333W        W43494  21.474   8.400   3.191
78334W        W43495  19.069  30.693  10.337
78335W        W43496   4.470   8.723   4.378
78336W        W43497  42.845  35.087   4.454
78337W        W43498  10.362  35.868   4.590
78338W        W43499   5.895  41.295  14.972
78339W        W43500  21.825   7.799  14.983
78340W        W43501   3.732  44.463  13.858
78341W        W43502   6.083  23.271   0.590
78342W        W43503  39.047  32.607  14.937
78343W        W43504  29.425  42.941   1.267
78344W        W43505  21.419  12.429  13.434
78345W        W43506  40.374  10.377  13.089
78346W        W43507   9.939  13.768  14.051
78347W        W43508  28.958  15.969   3.266
78348W        W43509  14.843  16.252  13.030
78349W        W43510   0.950  42.435   4.076
78350W        W43511   7.364  14.880   0.967
78351W        W43512  20.054  34.431   3.278
78352W        W43513   1.875  20.166  10.707
78353W        W43514  33.862  29.807  11.619
78354W        W43515  17.657  19.635   2.408
78355W        W43516  33.704  30.185  11.062
78356W        W43517  10.209  44.478  11.125
78357W        W43518  15.021  43.724  12.035
78358W        W43519  24.595   5.765  10.431
78359W        W43520  43.944  42.128  11.081
78360W        W43521  14.654   4.795   2.306
78361W        W43522  26.913   9.048   0.215
78362W        W43523  29.037  10.778   0.878
78363W        W43524  41.867  10.872   2.800
78364W        W43525  16.239   5.484   1.422
78365W        W43526   5.142  13.802  11.663
78366W        W43527  38.074  37.965  12.010
78367W        W43528  32.368   3.797   5.098
78368W        W43529  41.039   3.430   3.976
78369W        W43530  38.654  19.932   2.229
78370W        W43531  18.335   5.628   4.127
78371W        W43532  13.602   8.769   2.608
78372W        W43533   6.627   9.322  14.384
78373W        W43534  10.363  31.306  12.065
78374W        W43535  41.824  21.146   2.867
78375W        W43536   6.790  38.593  13.907
78376W        W43537   7.376  32.895   3.698
78377W        W43538  24.462   4.080   0.596
78378W        W43539   0.291  17.266  12.520
78379W        W43540  28.365  44.541  14.500
78380W        W43541   2.780   6.775  11.571
78381W        W43542  33.965   5.726   0.234
78382W        W43543  42.535   5.479  10.562
78383W        W43544  33.979  34.611  13.873
78384W        W43545  36.112  40.543   1.376
78385W        W43546  36.954  44.250  14.568
78386W        W43547  16.178  16.314  10.750
78387W        W43548  31.970  36.478   4.121
78388W        W43549  22.702  29.162  13.900
78389W        W43550  32.989  21.734  13.827
78390W        W43551   9.269  19.250  12.793
78391W        W43552   9.624   3.723   1.647
78392W        W43553  23.074  11.193   4.559
78393W        W43554  10.909  10.855   0.831
78394W        W43555   9.771  33.033  11.201
78395W        W43556  15.909  37.872  10.256
78396W        W43557  37.522  29.625  14.463
78397W        W43558  24.483  41.243  13.564
78398W        W43559  33.107   6.871  12.496
78399W        W43560  34.541  29.922  14.507
78400W        W43561  39.324  22.576  12.355
78401W        W43562  19.180  26.501   4.512
78402W        W43563  23.918  34.894   4.600
78403W        W43564   3.877   9.221   2.800
78404W        W43565   6.362  10.521  13.253
78405W        W43566  31.443  30.772  13.524
78406W        W43567  39.753  41.129   4.339
78407W        W43568   0.979  11.915   2.719
78408W        W43569   6.684   7.113   3.378
78409W        W43570  15.794  40.636   0.497
78410W        W43571   5.568  15.243  10.282
78411W        W43572  17.293  34.968   1.363
78412W        W43573  36.141   7.843  14.924
78413W        W43574  22.628  16.593  14.474
78414W        W43575   5.010  22.172   4.661
78415W        W43576   9.916  27.989  14.308
78416W        W43577  34.079  28.387  11.516
78417W        W43578  33.005   8.291  10.699
78418W        W43579  17.527  14.357   4.361
78419W        W43580  10.008  33.651  13.347
78420W        W43581  34.394   6.316  14.782
78421W        W43582  36.146  38.837   3.297
78422W        W43583   1.803   8.476   1.772
78423W        W43584  19.839   1.054  14.349
78424W        W43585  30.437   7.036  10.925
78425W        W43586   8.278  22.249   4.351
78426W        W43587   8.577  17.189  13.514
78427W        W43588  13.712  44.745  13.288
78428W        W43589  39.317  31.919  14.529
78429W        W43590  21.370  28.682  13.600
78430W        W43591  16.083  12.643   0.882
78431W        W43592   9.505  26.715   2.814
78432W        W43593  10.998  41.606   3.745
78433W        W43594  18.092  15.340   0.721
78434W        W43595   0.871  31.817   0.411
78435W        W43596  10.635  26.483   1.088
78436W        W43597  40.051   1.264  12.081
78437W        W43598  13.910   7.876  14.891
78438W        W43599  23.050  22.706   3.733
78439W        W43600  44.970  21.495  12.504
78440W        W43601  17.471   5.207  11.042
78441W        W43602  35.590  38.996  14.571
78442W        W43603  42.904  42.577  13.942
78443W        W43604   5.025  30.537  13.678
78444W        W43605  28.442   8.660   4.652
78445W        W43606  37.664  20.962   2.381
78446W        W43607  14.910  32.994  14.973
78447W        W43608   6.451  31.908  13.357
78448W        W43609  26.287  36.267   2.256
78449W        W43610  15.388  39.404   0.723
78450W        W43611  37.561  28.430  13.600
78451W        W43612  22.102  20.833   2.790
78452W        W43613  17.306  31.609   3.679
78453W        W43614  43.986  28.436  14.048
78454W        W43615  20.190  22.064  12.930
78455W        W43616  24.316  34.469  12.512
78456W        W43617  30.938   1.337  10.499
78457W        W43618  16.634  38.993  10.311
78458W        W43619  26.926   8.327   2.912
78459W        W43620   0.923  33.879   4.717
78460W        W43621   8.385  11.295   4.862
78461W        W43622   8.725  40.457   5.198
78462W        W43623  23.097  36.337  14.464
78463W        W43624  37.092  10.086   1.399
78464W        W43625  25.272  32.412  12.140
78465W        W43626  15.088  28.432  11.584
78466W        W43627  37.036  36.695  12.448
78467W        W43628   2.829  39.997  11.940
78468W        W43629  36.808  10.056   2.325
78469W        W43630  43.531   2.567  14.199
78470W        W43631  26.501   9.911   3.750
78471W        W43632   3.178  41.574  14.361
78472W        W43633  25.322   3.081  14.139
78473W        W43634  40.315   7.561  10.834
78474W        W43635  34.428   1.922  12.253
78475W        W43636  30.736  20.686  12.839
78476W        W43637  18.508  32.096   2.583
78477W        W43638  32.787   9.870   1.832
78478W        W43639  35.668  29.529   3.056
78479W        W43640   4.198   9.858  14.008
78480W        W43641   9.691  35.349  14.936
78481W        W43642   4.789   7.359   2.819
78482W        W43643  16.204  22.943   3.158
78483W        W43644   8.226  31.133  12.949
78484W        W43645  37.517  41.185  13.855
78485W        W43646  18.333  19.913   0.708
78486W        W43647   0.253  16.335   3.839
78487W        W43648  30.882  22.042   5.131
78488W        W43649  37.014  36.904   3.812
78489W        W43650   2.911  42.181   3.326
78490W        W43651  39.144   8.270   1.773
78491W        W43652  12.514  13.712  14.891
78492W        W43653  10.870   0.549  10.851
78493W        W43654   6.924  28.964  11.949
78494W        W43655  15.941  26.471  13.003
78495W        W43656  27.904  44.803   4.622
78496W        W43657  15.382  42.671  11.101
78497W        W43658  24.192   5.896   3.601
78498W        W43659   8.869  13.772  13.595
78499W        W43660  19.556   6.906  10.628
78500W        W43661  38.500   9.405  11.239
78501W        W43662   1.419  33.816  12.021
78502W        W43663   0.658  24.250  11.051
78503W        W43664  17.970   4.521  11.285
78504W        W43665  41.535  13.666  12.905
78505W        W43666  10.859   2.386   2.800
78506W        W43667  10.808  19.659   0.904
78507W        W43668  40.537  43.515   2.007
78508W        W43669  31.043  20.831  11.237
78509W        W43670   9.260  24.034  13.906
78510W        W43671  29.175   3.215   4.052
78511W        W43672  28.693   9.974  12.757
78512W        W43673  34.364  15.499   4.447
78513W        W43674  30.496  33.145  13.059
78514W        W43675  23.144  39.734   1.023
78515W        W43676  43.733  26.776  13.086
78516W        W43677   1.264  33.591   1.406
78517W        W43678  35.914  39.210  13.950
78518W        W43679  29.224  28.323   5.055
78519W        W43680  33.283  33.668  10.961
78520W        W43681   1.409  10.047   0.330
78521W        W43682  30.907  35.601  12.986
78522W        W43683  24.138  27.185  14.492
78523W        W43684  17.537  25.357   3.959
78524W        W43685  14.585  15.182  14.050
78525W        W43686  33.136  22.809   9.785
78526W        W43687  36.516  35.220  11.131
78527W        W43688  13.492  25.253   0.291
78528W        W43689  25.923  39.244  11.577
78529W        W43690  40.014  20.528  10.884
78530W        W43691  21.724  39.030   0.335
78531W        W43692   6.906  21.480  12.489
78532W        W43693   3.301  35.949   4.046
78533W        W43694  15.801   4.197   4.178
78534W        W43695  30.880  30.440   4.116
78535W        W43696  25.691  29.106  11.154
78536W        W43697  21.418  22.366  14.112
78537W        W43698  43.231  23.266   2.475
78538W        W43699  44.090   5.670   3.338
78539W        W43700  16.276  25.484   0.400
78540W        W43701  37.120  13.736  11.126
78541W        W43702  28.251  18.213  14.355
78542W        W43703  44.209  22.611   1.241
78543W        W43704  28.986  37.519   4.493
78544W        W43705  21.472  40.171  13.021
78545W        W43706  42.250  43.460  11.619
78546W        W43707  33.294  19.881  12.646
78547W        W43708  15.125  25.699  15.000
78548W        W43709  17.586  11.002   3.098
78549W        W43710  25.225   2.063  10.727
78550W        W43711  26.619  31.733   0.969
78551W        W43712   8.880   1.251  12.428
78552W        W43713  22.726  11.320   2.620
78553W        W43714   5.038  21.025   1.474
78554W        W43715  39.959   9.275   3.080
78555W        W43716  37.513   3.294   3.292
78556W        W43717  39.470   0.276  11.135
78557W        W43718  43.476  22.727   2.774
78558W        W43719  22.054  43.861  13.394
78559W        W43720  26.852  20.528  14.020
78560W        W43721  39.823  42.899  14.847
78561W        W43722  16.668   8.698   3.139
78562W        W43723   9.520  20.119   0.362
78563W        W43724  11.402   5.152   2.272
78564W        W43725  42.519  30.961  10.437
78565W        W43726   6.721  41.923  14.935
78566W        W43727  10.205   7.934  14.354
78567W        W43728  19.019  43.469   2.243
78568W        W43729  13.845   2.354   0.115
78569W        W43730  38.974  31.636  10.210
78570W        W43731  28.804  26.619  10.233
78571W        W43732  19.224  42.988   5.196
78572W        W43733   7.621   3.507   2.349
78573W        W43734  13.795  35.955   1.453
78574W        W43735  17.683  17.729  11.440
78575W        W43736  32.010  22.660   3.275
78576W        W43737   1.285  40.923   1.415
78577W        W43738  21.057  43.437   5.096
78578W        W43739   3.745  35.933  11.599
78579W        W43740  30.432   7.822   1.936
78580W        W43741  10.847  30.940   2.020
78581W        W43742  13.763  15.677  11.734
78582W        W43743  42.362   8.731   1.753
78583W        W43744  21.101   3.018  13.446
78584W        W43745  21.322   4.512   0.006
78585W        W43746  44.973  30.889   0.332
78586W        W43747   7.532   3.001  11.246
78587W        W43748  18.946  21.603   2.004
78588W        W43749   4.664  24.947   0.400
78589W        W43750  43.265  18.833   4.652
78590W        W43751  33.852  26.084   0.828
78591W        W43752  16.910  32.327  10.667
78592W        W43753  42.354  11.477   1.988
78593W        W43754  10.324  16.640  13.397
78594W        W43755  44.373  28.142  13.857
78595W        W43756  27.588  16.818  13.336
78596W        W43757  15.028  15.141  13.810
78597W        W43758   1.497  32.926  12.371
78598W        W43759   4.284  13.713   4.543
78599W        W43760   5.429   4.438  13.869
78600W        W43761  25.672  26.223   3.668
78601W        W43762  10.362   3.812  13.555
78602W        W43763  11.860  22.952   4.335
78603W        W43764   5.654   3.933  11.028
78604W        W43765  38.806  14.309  14.725
78605W        W43766  35.760   8.422  12.931
78606W        W43767  42.310  21.683   1.659
78607W        W43768  32.810  44.896   1.878
78608W        W43769  37.572  15.525  13.117
78609W        W43770  13.879  13.586   3.349
78610W        W43771   4.016   5.857   1.336
78611W        W43772  41.174  29.229   1.740
78612W        W43773  29.425   3.094   0.880
78613W        W43774   3.230  30.620  10.497
78614W        W43775   8.810  24.303  11.157
78615W        W43776  43.971  24.464   3.344
78616W        W43777   9.627  15.703  13.621
78617W        W43778   6.967   1.758   4.640
78618W        W43779  34.029  24.686  14.321
78619W        W43780  38.468   2.011  13.832
78620W        W43781  23.129  31.924   3.416
78621W        W43782  37.503  27.339  12.382
78622W        W43783  41.504  37.326   0.461
78623W        W43784  35.796   4.368  11.518
78624W        W43785  12.415  16.515   4.544
78625W        W43786  15.755  32.393   3.307
78626W        W43787  34.615  31.575   3.811
78627W        W43788  39.505  25.384  13.473
78628W        W43789  36.573  37.008  14.243
78629W        W43790  18.629  16.816  12.651
78630W        W43791  30.143  24.467  12.584
78631W        W43792   3.423  20.946  11.605
78632W        W43793  33.019  33.338   0.119
78633W        W43794  31.220  27.303  10.781
78634W        W43795  26.846  42.281  10.866
78635W        W43796  43.300  22.163  11.354
78636W        W43797  35.234  21.575   3.346
78637W        W43798  41.326  33.625   1.069
78638W        W43799  32.660  26.607  14.738
78639W        W43800  33.613   8.873  14.520
78640W        W43801   2.372   8.671   9.650
78641W        W43802  22.132  12.864  13.521
78642W        W43803  16.660  35.109  13.295
78643W        W43804  20.852   2.780  12.577
78644W        W43805  10.679  37.236   2.371
78645W        W43806   3.827  39.575  13.446
78646W        W43807   9.301  35.115  13.837
78647W        W43808  17.530   8.247  12.099
78648W        W43809  24.387   0.427  13.103
78649W        W43810   2.268   1.834  13.427
78650W        W43811   9.733  42.689   3.136
78651W        W43812  16.312   6.025  14.596
78652W        W43813  21.288  28.247  14.388
78653W        W43814  28.588  31.516  14.290
78654W        W43815  26.250  40.377  14.618
78655W        W43816  25.468  10.196   3.164
78656W        W43817  38.445  30.361  14.975
78657W        W43818   6.681  43.372  10.662
78658W        W43819  34.499  16.314  11.634
78659W        W43820  31.633  35.114   0.998
78660W        W43821  25.549  16.662  11.496
78661W        W43822  18.716  24.490  13.379
78662W        W43823   7.955  11.453   2.166
78663W        W43824  19.974   8.404  14.457
78664W        W43825   7.368  37.123  13.589
78665W        W43826  29.047   1.436  12.447
78666W        W43827  37.304  11.091  10.178
78667W        W43828  31.104  30.520  13.933
78668W        W43829  42.891  21.228   0.023
78669W        W43830  22.502   4.043  11.016
78670W        W43831   9.135  40.034   4.286
78671W        W43832  36.835   2.739  12.425
78672W        W43833   8.272   6.371   4.025
78673W        W43834  16.447  44.085  10.696
78674W        W43835   7.271  16.956  13.264
78675W        W43836   2.392  44.284   2.834
78676W        W43837  23.752  38.943   9.913
78677W        W43838  10.277  25.267  12.048
78678W        W43839  10.714   9.164  12.074
78679W        W43840  31.535  10.195   4.748
78680W        W43841  14.266   6.433  12.331
78681W        W43842   0.603  26.995   3.447
78682W        W43843  24.013  20.681   4.081
78683W        W43844  27.769  40.055   1.352
78684W        W43845  44.832  32.879  12.462
78685W        W43846  18.822  30.762  14.260
78686W        W43847  26.158  21.719  13.985
78687W        W43848   8.382  30.178  11.940
78688W        W43849  38.381  29.942  13.303
78689W        W43850  42.466  40.944  12.016
78690W        W43851   2.883  37.138   2.303
78691W        W43852   3.057  21.418  14.804
78692W        W43853   2.778  44.163   2.151
78693W        W43854  23.639  11.256   2.057
78694W        W43855   8.806  36.701  14.410
78695W        W43856   7.141  12.525  12.101
78696W        W43857  27.559   5.264   3.703
78697W        W43858  19.552  37.649  14.320
78698W        W43859   8.072  34.840  10.409
78699W        W43860  16.633  28.260   2.201
78700W        W43861   7.379   6.689  11.997
78701W        W43862  42.994  34.036   2.413
78702W        W43863  12.297   8.810   4.324
78703W        W43864  13.003  29.523  11.281
78704W        W43865  42.038   9.700  10.679
78705W        W43866  31.765  40.621   3.185
78706W        W43867   0.930   0.150  14.473
78707W        W43868   7.184  25.149   5.127
78708W        W43869  37.842  20.765  12.991
78709W        W43870  29.963  13.370  14.413
78710W        W43871  14.636  16.419   3.795
78711W        W43872   7.157  40.914   3.376
78712W        W43873  42.243  41.994  13.339
78713W        W43874  17.698  31.449  13.910
78714W        W43875   6.734   5.857   2.351
78715W        W43876  42.212  21.418   1.221
78716W        W43877   2.750  10.056   3.218
78717W        W43878  13.690  11.614   0.366
78718W        W43879  15.404   7.992  13.506
78719W        W43880   6.774  11.274  12.420
78720W        W43881   8.576  36.882   1.488
78721W        W43882  10.665  37.362  14.063
78722W        W43883   6.723  31.318  11.071
78723W        W43884  38.021  20.527   2.796
78724W        W43885  40.914   1.011   1.407
78725W        W43886  24.013  33.666   5.099
78726W        W43887  41.328   4.754   2.294
78727W        W43888   3.490  38.417  12.065
78728W        W43889  24.236  28.576  11.594
78729W        W43890   6.353  37.019   0.846
78730W        W43891  23.443  36.429   3.577
78731W        W43892  17.089  23.011   0.423
78732W        W43893  43.385  42.263   2.635
78733W        W43894   5.852  35.727  12.833
78734W        W43895  23.010  28.040  12.920
78735W        W43896   5.705  27.848   0.529
78736W        W43897  34.982  44.530  13.947
78737W        W43898  13.788  35.344   4.703
78738W        W43899  32.877  32.632   4.694
78739W        W43900   7.272  35.991  14.811
78740W        W43901  43.445   2.350   2.237
78741W        W43902  20.018   2.376   1.787
78742W        W43903  19.711  33.124  12.902
78743W        W43904   2.416   1.019   2.277
78744W        W43905  14.594  29.513  13.296
78745W        W43906  11.307  18.290   4.224
78746W        W43907  18.910   1.103   0.943
78747W        W43908  10.203  25.426  12.720
78748W        W43909  19.245  22.787  12.767
78749W        W43910  42.881   9.206  10.711
78750W        W43911  33.052  30.470   2.354
78751W        W43912   2.530  19.093  14.849
78752W        W43913   9.422  20.509   4.841
78753W        W43914  11.281  32.090  10.907
78754W        W43915  37.747  34.112   0.475
78755W        W43916  24.355  36.564   3.529
78756W        W43917  42.667  35.074  11.317
78757W        W43918  42.702  18.778   3.818
78758W        W43919  27.185  24.706  13.443
78759W        W43920  32.191  25.688  12.226
78760W        W43921  40.213  16.720  14.331
78761W        W43922  25.098  20.912   1.096
78762W        W43923  11.415  28.712  12.400
78763W        W43924  25.909  34.343   1.298
78764W        W43925   3.341  31.377   1.325
78765W        W43926  44.030  16.398   3.568
78766W        W43927   2.300  28.157  13.049
78767W        W43928   9.259  41.401  10.778
78768W        W43929  15.478  38.936  13.904
78769W        W43930  35.410  10.456   0.394
78770W        W43931  30.941  41.655  12.102
78771W        W43932   7.539  23.224   1.751
78772W        W43933  33.374  33.605   0.431
78773W        W43934  43.696  20.828   3.780
78774W        W43935  40.725  32.035   9.962
78775W        W43936  14.793  27.893  13.384
78776W        W43937  41.368  38.893  13.935
78777W        W43938   2.888  18.005   0.346
78778W        W43939  27.259  35.413  11.199
78779W        W43940  26.137  12.717   4.642
78780W        W43941  28.243   2.773  12.489
78781W        W43942  17.982  37.013  13.741
78782W        W43943  18.721  28.220   1.251
78783W        W43944  32.414  14.685  14.023
78784W        W43945  13.028  17.959   1.908
78785W        W43946  19.489  21.273   3.572
78786W        W43947  40.934  34.626  12.883
78787W        W43948  28.929  29.477  11.456
78788W        W43949  10.584  26.966  14.598
78789W        W43950  31.988  20.491  11.447
78790W        W43951  43.771   6.818   0.295
78791W        W43952  10.912  36.468   0.291
78792W        W43953   3.423  20.005  13.053
78793W        W43954  30.987  41.046  10.997
78794W        W43955   1.966  19.316  13.977
78795W        W43956  40.192  41.779  10.989
78796W        W43957  42.406   4.798   3.295
78797W        W43958  22.076  16.208   0.845
78798W        W43959  17.216  35.249  10.193
78799W        W43960   9.321  17.110   4.595
78800W        W43961  44.051  40.858   4.173
78801W        W43962  20.221  24.683  13.141
78802W        W43963  23.522   0.302   2.797
78803W        W43964  43.604  29.064  10.156
78804W        W43965   9.724  25.417  13.519
78805W        W43966   3.650  10.327  14.393
78806W        W43967  37.615  18.468   3.308
78807W        W43968  12.554  16.574  11.651
78808W        W43969   7.549  44.660   2.979
78809W        W43970  38.899   4.881   3.862
78810W        W43971   2.547  32.939  14.810
78811W        W43972  12.482  44.063   0.780
78812W        W43973  17.122  14.471  13.259
78813W        W43974   4.196  29.045   3.961
78814W        W43975  13.322  36.950  10.947
78815W        W43976  31.144  17.743  14.487
78816W        W43977  11.620   2.357  11.676
78817W        W43978  31.430  42.263   0.861
78818W        W43979   2.671  35.883  11.546
78819W        W43980  28.891  27.115  11.106
78820W        W43981  12.308  36.045  11.242
78821W        W43982  23.167  22.971  14.387
78822W        W43983  15.182  15.193  11.026
78823W        W43984  25.678  11.203  11.300
78824W        W43985  10.126   7.615  13.496
78825W        W43986  43.220  28.159   1.707
78826W        W43987  40.827  15.409  11.187
78827W        W43988  41.821  21.545  14.961
78828W        W43989  18.404   3.416   4.267
78829W        W43990  32.565  38.860  13.989
78830W        W43991   1.748  15.083   0.914
78831W        W43992  38.074  42.517   1.916
78832W        W43993   0.569  32.984  11.185
78833W        W43994  36.810   3.877   4.924
78834W        W43995  19.548  15.605  13.537
78835W        W43996   6.714  26.244   2.175
78836W        W43997  33.208  11.029   2.395
78837W        W43998  19.490  30.132   4.084
78838W        W43999  19.107  25.511   1.256
78839W        W44000  16.363  15.805  12.450
78840W        W44001   1.041  28.426  14.953
78841W        W44002  12.265  20.192  11.292
78842W        W44003  31.456  12.143  14.043
78843W        W44004   2.770   6.170   4.521
78844W        W44005   3.947  32.556  13.320
78845W        W44006   3.426  21.645   2.217
78846W        W44007  10.354  44.290  10.668
78847W        W44008  35.580  38.436  10.891
78848W        W44009  13.061  21.445   2.202
78849W        W44010  44.224   9.719   5.155
78850W        W44011  11.118  37.951  13.099
78851W        W44012  15.381  21.252   1.190
78852W        W44013  28.127  19.688  10.233
78853W        W44014   7.641  34.421   1.212
78854W        W44015  39.332  18.697   1.444
78855W        W44016  39.333  30.984  11.635
78856W        W44017  39.570  30.536   2.404
78857W        W44018  36.332  23.997   2.449
78858W        W44019   2.606  10.839  10.661
78859W        W44020  37.595  38.630  10.517
78860W        W44021  44.490   8.625   1.080
78861W        W44022  19.181  35.515  13.461
78862W        W44023   3.601  35.963   3.631
78863W        W44024  39.413  40.630  12.379
78864W        W44025  11.749  30.695  12.563
78865W        W44026  12.807  36.827   2.042
78866W        W44027   8.222   5.520   3.702
78867W        W44028  38.278   6.351   2.499
78868W        W44029  24.730  41.937  14.431
78869W        W44030  18.090  27.262   2.397
78870W        W44031   0.977  11.155   2.284
78871W        W44032  12.686  16.243  14.700
78872W        W44033  17.218  27.995   0.498
78873W        W44034  27.734  32.096  11.368
78874W        W44035  14.135  43.939  11.634
78875W        W44036  34.886   0.729   3.691
78876W        W44037  31.409  32.140  12.634
78877W        W44038  33.125   2.904   2.416
78878W        W44039  23.103  30.062  13.766
78879W        W44040   4.354  24.084   9.958
78880W        W44041   9.327  27.039   4.070
78881W        W44042  33.897   2.387  14.024
78882W        W44043  40.448  29.119   3.127
78883W        W44044  10.309   7.566   4.621
78884W        W44045  26.269  11.575   3.231
78885W        W44046  29.000  30.732  11.981
78886W        W44047   6.430  39.051  11.821
78887W        W44048  21.648   7.361  14.794
78888W        W44049  20.114  25.000   0.982
78889W        W44050  25.263  25.644   0.440
78890W        W44051  12.816  21.246   4.943
78891W        W44052   5.706   3.860  14.348
78892W        W44053  21.027  21.835   1.273
78893W        W44054   7.926  22.629   4.532
78894W        W44055  29.067  41.338  11.798
78895W        W44056  13.397  18.629  11.383
78896W        W44057   4.483  19.685   2.421
78897W        W44058  10.696  13.906  13.007
78898W        W44059  24.487   8.578  10.783
78899W        W44060  36.613   9.281   3.647
78900W        W44061  36.099  12.541  11.695
78901W        W44062  21.136   1.819  12.006
78902W        W44063   9.234   8.768   1.494
78903W        W44064  29.862  35.371   0.609
78904W        W44065  37.722  33.639  11.129
78905W        W44066  26.002  11.180   1.698
78906W        W44067  31.035  27.989  12.364
78907W        W44068  43.830  10.099  12.467
78908W        W44069  41.375  38.446  11.811
78909W        W44070   7.877  19.736  10.733
78910W        W44071  27.511  21.767  13.923
78911W        W44072  14.688  27.440   3.302
78912W        W44073  36.606  18.107   1.985
78913W        W44074   4.846  42.072  10.752
78914W        W44075  29.446  37.770  13.070
78915W        W44076  27.623   7.210  11.196
78916W        W44077  35.078   8.908  11.964
78917W        W44078  37.088  44.191  10.598
78918W        W44079  21.986  40.006   1.440
78919W        W44080  40.736  24.629  12.104
78920W        W44081  16.362  28.641  11.009
78921W        W44082   3.215  24.451  14.340
78922W        W44083  13.787   7.435   1.201
78923W        W44084  15.624  38.368   1.942
78924W        W44085   0.230  33.673   4.270
78925W        W44086  27.467  38.690   1.765
78926W        W44087  38.051   9.627   2.101
78927W        W44088   4.785   8.659   3.258
78928W        W44089  20.749  44.294   2.862
78929W        W44090  22.208   0.118   2.769
78930W        W44091  34.343  41.024   1.887
78931W        W44092   6.686  42.722  11.423
78932W        W44093  37.527  39.566  10.937
78933W        W44094   0.745  11.184   3.531
78934W        W44095  12.565   6.369   1.671
78935W        W44096  24.590  40.794   3.556
78936W        W44097   9.595  26.992  12.848
78937W        W44098   6.680  31.178   5.083
78938W        W44099   1.232  16.355   9.765
78939W        W44100   2.909  37.837   2.836
78940W        W44101  42.731  16.870   2.296
78941W        W44102  36.356  26.783  11.608
78942W        W44103  26.408  13.624   2.014
78943W        W44104  15.152  42.307   0.750
78944W        W44105  32.812   5.612   1.896
78945W        W44106   9.162   8.260   0.788
78946W        W44107  26.569  20.264   5.077
78947W        W44108  25.191  32.597  12.920
78948W        W44109  15.065  22.956   0.451
78949W        W44110  44.351  28.740   0.681
78950W        W44111  19.953  26.751   4.995
78951W        W44112   4.682  44.487  11.577
78952W        W44113  19.111  25.127   0.869
78953W        W44114   3.289   2.476   0.013
78954W        W44115  14.651  38.573   4.639
78955W        W44116  10.393  33.567  14.796
78956W        W44117  13.200  24.682   1.878
78957W        W44118  32.731  33.573   2.941
78958W        W44119  18.629  23.762   0.279
78959W        W44120  27.392  18.919   3.779
78960W        W44121  39.828  34.913  10.455
78961W        W44122  26.100  12.124  11.031
78962W        W44123  26.201   6.684  12.711
78963W        W44124  19.601  29.060  14.108
78964W        W44125   0.988  34.179  13.397
78965W        W44126   6.196  18.914  11.133
78966W        W44127  41.786  32.093  14.332
78967W        W44128  36.945   3.030  14.081
78968W        W44129  23.211   8.930  11.668
78969W        W44130   6.918  37.589  12.738
78970W        W44131  30.119  26.323  11.917
78971W        W44132  35.412  13.741   1.262
78972W        W44133  44.846  42.053  14.591
78973W        W44134  36.189   1.263   4.578
78974W        W44135  38.728  38.559   5.010
78975W        W44136   3.938  29.080   1.990
78976W        W44137  12.437  37.432   2.646
78977W        W44138  29.209  18.255   1.959
78978W        W44139  35.069  33.161  13.489
78979W        W44140  30.913  39.428  13.766
78980W        W44141  34.116  11.263   0.297
78981W        W44142  20.512  11.907   0.012
78982W        W44143  12.217   8.488  11.208
78983W        W44144  23.692   3.544   3.808
78984W        W44145  15.630   2.479  11.968
78985W        W44146   1.165  20.310   1.876
78986W        W44147  28.987  21.195  14.254
78987W        W44148  19.799  11.073  13.535
78988W        W44149  20.807  16.616  14.562
78989W        W44150   5.365  26.659   1.957
78990W        W44151  11.309  15.186  12.872
78991W        W44152  18.961   4.856  10.182
78992W        W44153  16.108   7.893  11.991
78993W        W44154  15.003   0.343  10.821
78994W        W44155   9.790   4.192   1.801
78995W        W44156   3.752  30.138  11.638
78996W        W44157   9.309  19.664   0.502
78997W        W44158   0.476  39.091   9.723
78998W        W44159  34.976  21.352  10.848
78999W        W44160  32.615  31.115   4.113
79000W        W44161  27.080  15.507   4.076
79001W        W44162   9.271  14.618  13.285
79002W        W44163  37.840  26.117  10.661
79003W        W44164  37.000  26.246   3.259
79004W        W44165  16.704  21.957  13.772
79005W        W44166  40.551   8.367  13.848
79006W        W44167  36.021  12.842   0.127
79007W        W44168  35.140  31.453  11.886
79008W        W44169  15.758  17.927  13.475
79009W        W44170  13.605   0.435   0.544
79010W        W44171  20.072  14.293   2.661
79011W        W44172   5.781   1.513   2.159
79012W        W44173   5.335  22.993  11.027
79013W        W44174  36.419  43.212  11.616
79014W        W44175  20.288  20.504  12.558
79015W        W44176  17.805  17.038   0.847
79016W        W44177  25.261  14.247  10.790
79017W        W44178  33.601  16.472  12.431
79018W        W44179  14.570   5.814  12.341
79019W        W44180  12.161  22.630  13.808
79020W        W44181   8.807  39.168   1.381
79021W        W44182  37.262  41.144  12.592
79022W        W44183  35.264  32.589  14.956
79023W        W44184  24.972   7.725   3.216
79024W        W44185  29.302  23.506  13.138
79025W        W44186  29.010  31.942   3.655
79026W        W44187  44.508  25.236  13.602
79027W        W44188  29.752  20.631  13.146
79028W        W44189  19.751  14.175  13.390
79029W        W44190  33.245  42.380   0.482
79030W        W44191  11.640  14.545  10.947
79031W        W44192  41.576  13.698  12.376
79032W        W44193  30.845  18.275   4.153
79033W        W44194  33.544  11.792   3.641
79034W        W44195  18.660  32.578  13.013
79035W        W44196  38.511   3.740  12.403
79036W        W44197  33.092  35.940  10.160
79037W        W44198  41.753  22.776  11.158
79038W        W44199  42.022   8.491  10.143
79039W        W44200  22.012  41.493   1.750
79040W        W44201   2.248  41.253   2.917
79041W        W44202  18.232  21.724   3.689
79042W        W44203  24.336  11.738  14.390
79043W        W44204  22.966  25.697   2.505
79044W        W44205  11.232   1.936  14.967
79045W        W44206   6.131  37.984   1.329
79046W        W44207  14.457  43.785  10.779
79047W        W44208  40.445   3.269   3.329
79048W        W44209  16.648  19.509  10.787
79049W        W44210  39.912  39.325   0.453
79050W        W44211  26.141  33.584  12.929
79051W        W44212  20.554  21.385   4.348
79052W        W44213  19.049  17.351   2.651
79053W        W44214   4.040  41.906  11.540
79054W        W44215  22.787  42.956  11.112
79055W        W44216  39.602  36.801   3.577
79056W        W44217  26.449  38.826  14.939
79057W        W44218  19.828  13.847   2.438
79058W        W44219  24.645  25.692  12.117
79059W        W44220   6.006  43.514  12.306
79060W        W44221  13.537   0.359  10.386
79061W        W44222   6.402  30.512  13.294
79062W        W44223  10.897  44.846  11.072
79063W        W44224  37.990  18.313   3.679
79064W        W44225  19.163  34.714   4.192
79065W        W44226   8.939  40.488  14.178
79066W        W44227  15.279  18.429   0.216
79067W        W44228  18.696  38.274  12.014
79068W        W44229  27.901  31.310   2.326
79069W        W44230  37.401   9.809  12.004
79070W        W44231   5.754   4.202   3.876
79071W        W44232  11.937  27.571   2.383
79072W        W44233  22.707  12.570  12.189
79073W        W44234  13.651  34.492  14.646
79074W        W44235  29.168  44.705   1.643
79075W        W44236  13.294  41.514  11.868
79076W        W44237  22.555   6.816   1.144
79077W        W44238  17.140  27.035  12.502
79078W        W44239  12.169  16.812  14.007
79079W        W44240   0.863  10.608   5.009
79080W        W44241  22.472  38.474   0.349
79081W        W44242   0.908   1.233  11.242
79082W        W44243   6.645   1.984  14.058
79083W        W44244  12.115  38.898   1.271
79084W        W44245  30.716  23.273   1.796
79085W        W44246   7.140   0.390  14.641
79086W        W44247   4.091  34.247   1.115
79087W        W44248  39.250  31.410   1.903
79088W        W44249  42.995  17.046   4.082
79089W        W44250   9.428   4.769  13.381
79090W        W44251  17.122   9.141  14.759
79091W        W44252  22.152  29.385   1.862
79092W        W44253  38.361  38.565   4.666
79093W        W44254  11.341   2.347  14.055
79094W        W44255  36.034  34.787   2.667
79095W        W44256  28.478  18.139   3.093
79096W        W44257  10.825   7.324   1.809
79097W        W44258  10.683  42.820  11.604
79098W        W44259   0.861  28.636   0.427
79099W        W44260  40.876  32.039  10.475
79100W        W44261  32.574  11.700  12.037
79101W        W44262  42.896  29.210  14.293
79102W        W44263  40.780   9.259  13.570
79103W        W44264  25.629  22.535  14.877
79104W        W44265  35.295  14.310  14.052
79105W        W44266  44.080   4.418   3.774
79106W        W44267  28.428   1.728   3.953
79107W        W44268  10.205  25.430  13.246
79108W        W44269  30.956  31.862  12.831
79109W        W44270   2.722   3.457   9.897
79110W        W44271  23.370  16.736  14.936
79111W        W44272   6.446  18.978  10.198
79112W        W44273  41.306  38.795   2.118
79113W        W44274  16.186  31.892   4.124
79114W        W44275  37.262   5.420   4.162
79115W        W44276  34.013  39.476  13.021
79116W        W44277  13.018  18.658  12.952
79117W        W44278  29.126  11.554  11.101
79118W        W44279  34.742  44.868   4.281
79119W        W44280   0.773  19.296  12.979
79120W        W44281  29.456  36.976  14.673
79121W        W44282   3.455  17.248   0.293
79122W        W44283  35.317  15.953  11.312
79123W        W44284  34.666  32.004  12.018
79124W        W44285  42.533   3.899   0.883
79125W        W44286  34.474  39.686  10.204
79126W        W44287   3.319  23.500  13.110
79127W        W44288   3.337  32.681   0.906
79128W        W44289   1.850  25.523  14.452
79129W        W44290  30.140  23.424  14.352
79130W        W44291  34.163  27.437   1.356
79131W        W44292  43.805  22.530  11.787
79132W        W44293  11.821   3.264  11.431
79133W        W44294  39.353  12.250  10.713
79134W        W44295  35.112  39.311  11.996
79135W        W44296  44.293  29.048  14.406
79136W        W44297   9.348   5.952   9.708
79137W        W44298  21.879   9.801  10.842
79138W        W44299   3.957  14.506  14.007
79139W        W44300  19.365  39.341   4.054
79140W        W44301  42.452   0.958   3.254
79141W        W44302   3.262  22.452  10.821
79142W        W44303  10.693  15.258   0.796
79143W        W44304   4.824  34.329  12.447
79144W        W44305  21.177   3.355   2.911
79145W        W44306  38.391  26.722   4.476
79146W        W44307  35.922  28.038   4.570
79147W        W44308   5.684  27.289  12.965
79148W        W44309  29.856  23.250  11.870
79149W        W44310   6.679   6.888   4.872
79150W        W44311  17.291  26.547  13.422
79151W        W44312  24.588  25.121  10.999
79152W        W44313  26.838  34.713  14.326
79153W        W44314  11.550  12.620   0.812
79154W        W44315  25.472  11.667  13.989
79155W        W44316  17.368  43.480   1.469
79156W        W44317  11.586  24.119   3.635
79157W        W44318  38.691  13.114  14.674
79158W        W44319  44.510  36.811   0.417
79159W        W44320   5.448  25.821  12.421
79160W        W44321  35.023  41.994  10.248
79161W        W44322  10.560  33.559  10.384
79162W        W44323  17.583  26.012   0.262
79163W        W44324  17.302  33.535  12.992
79164W        W44325  26.293  43.489   3.729
79165W        W44326  10.239  12.227  14.344
79166W        W44327  26.524  24.648   2.281
79167W        W44328  28.566  20.806  11.595
79168W        W44329  39.199  25.240  11.212
79169W        W44330   7.573  28.153  13.939
79170W        W44331  41.067  16.908  12.193
79171W        W44332  14.034  15.309  11.082
79172W        W44333  22.016   9.791   0.895
79173W        W44334  16.197  36.399  10.729
79174W        W44335   4.439  15.378   2.101
79175W        W44336  13.670   9.742  12.164
79176W        W44337  25.993  15.835  11.937
79177W        W44338  38.375  20.209  13.558
79178W        W44339   0.581  22.089  12.816
79179W        W44340  36.442  11.735  11.181
79180W        W44341  37.790  40.043   0.864
79181W        W44342  20.395  42.570  10.184
79182W        W44343  26.414  27.810  13.569
79183W        W44344  37.724   3.804   3.393
79184W        W44345   5.920  25.504   1.601
79185W        W44346  30.011  32.613   3.885
79186W        W44347  35.128   0.800   2.258
79187W        W44348   3.495  29.233  12.086
79188W        W44349  24.293   2.979  12.218
79189W        W44350  13.064  28.682  10.056
79190W        W44351  38.795  44.814  13.932
79191W        W44352  38.570  14.753  12.532
79192W        W44353  10.720  43.786  11.532
79193W        W44354  34.574  18.004   4.088
79194W        W44355   7.716  24.998  11.614
79195W        W44356  40.547  33.263   3.884
79196W        W44357  38.124  19.157   3.921
79197W        W44358  43.304  23.627   3.668
79198W        W44359  33.559  14.389  10.139
79199W        W44360  28.401  30.077   2.698
79200W        W44361  22.140  19.758   3.661
79201W        W44362  15.132  21.015   0.220
79202W        W44363  38.972  35.489  13.227
79203W        W44364  33.074   8.458  12.820
79204W        W44365  17.556  27.479  12.492
79205W        W44366  12.065   5.192   2.693
79206W        W44367  36.906  20.818  14.834
79207W        W44368   6.248  13.853  12.505
79208W        W44369  17.086  19.113   2.156
79209W        W44370  29.546  36.543   3.065
79210W        W44371  40.038   4.477   4.058
79211W        W44372  18.750  31.818   3.266
79212W        W44373  38.527  24.114   2.882
79213W        W44374  23.105  15.096  11.599
79214W        W44375  44.442   8.138  12.372
79215W        W44376   2.554  17.503  14.279
79216W        W44377  12.595  20.074  14.647
79217W        W44378  39.983  35.518   3.332
79218W        W44379   6.497  21.961   3.115
79219W        W44380  11.131   3.299  13.110
79220W        W44381  29.749  26.344  14.256
79221W        W44382  34.301  37.754   2.722
79222W        W44383  37.144  23.265  11.805
79223W        W44384  32.545  11.115   4.424
79224W        W44385  16.213   1.474   2.756
79225W        W44386   3.659   9.223  12.881
79226W        W44387  36.529  27.680   0.899
79227W        W44388  14.854  19.050  13.009
79228W        W44389  28.909  40.544  13.044
79229W        W44390  20.143  36.555   2.222
79230W        W44391  37.773  30.068   1.147
79231W        W44392  15.249   2.454  12.847
79232W        W44393  43.144  29.966  13.400
79233W        W44394  13.944  16.082  10.871
79234W        W44395  19.182   4.846   0.915
79235W        W44396  37.579  31.388   1.262
79236W        W44397   7.838  11.659   0.617
79237W        W44398  40.432  40.784  14.520
79238W        W44399  10.771  21.439  11.986
79239W        W44400  20.469  41.457  13.894
79240W        W44401  18.529  24.222   2.784
79241W        W44402   8.972  18.342   1.870
79242W        W44403  43.186  20.052   0.785
79243W        W44404   6.940  44.775   1.435
79244W        W44405  31.818  11.689   3.141
79245W        W44406  12.784  41.534   4.535
79246W        W44407   4.166  35.630   0.507
79247W        W44408  43.730  30.009   3.274
79248W        W44409  22.126  27.135  13.303
79249W        W44410  25.077  25.024  11.301
79250W        W44411  42.563  27.199  12.978
79251W        W44412   1.403  22.699   0.010
79252W        W44413   5.274   7.477  14.367
79253W        W44414  30.365  32.003  10.682
79254W        W44415  30.040  16.392  11.658
79255W        W44416  37.326  38.313  10.190
79256W        W44417  20.022  41.491   3.950
79257W        W44418  13.684  19.814  10.781
79258W        W44419  22.794   0.868   5.013
79259W        W44420  44.518  22.183  11.931
79260W        W44421  31.770  27.658   0.134
79261W        W44422  33.949  44.765  11.474
79262W        W44423  40.583  39.882  14.305
79263W        W44424   1.785  35.140  10.972
79264W        W44425  30.079  22.395   3.616
79265W        W44426  40.748  22.831   4.841
79266W        W44427  13.729  31.831   0.856
79267W        W44428   2.034  27.993   0.263
79268W        W44429  42.277  22.331   0.379
79269W        W44430   4.297  27.265   2.576
79270W        W44431  38.547   0.455  13.035
79271W        W44432  33.461  23.001  13.444
79272W        W44433  28.865  33.016  12.612
79273W        W44434  19.787  19.509   3.763
79274W        W44435  23.916  33.755  11.856
79275W        W44436   0.939  32.115   5.321
79276W        W44437  16.219  17.519  14.920
79277W        W44438   3.055  29.181   5.091
79278W        W44439  22.608  22.820  12.516
79279W        W44440  12.564   5.229  13.002
79280W        W44441  42.435  22.171  12.871
79281W        W44442   3.476  30.138   1.781
79282W        W44443  26.615  24.120   3.244
79283W        W44444   5.662  13.319   4.614
79284W        W44445  20.690  41.959   1.946
79285W        W44446  21.958   7.373   1.536
79286W        W44447  21.603  42.943   0.692
79287W        W44448  11.439   0.222   1.818
79288W        W44449   0.434  28.434  12.897
79289W        W44450  20.737   4.330  11.614
79290W        W44451   7.290  23.065  11.137
79291W        W44452  29.199   3.247   2.305
79292W        W44453  22.626  34.114  11.504
79293W        W44454   4.498  28.995   0.727
79294W        W44455  36.991  33.219  13.929
79295W        W44456  38.987  11.318  11.636
79296W        W44457  41.419  38.354   2.343
79297W        W44458  19.085  23.982   0.100
79298W        W44459  32.652  21.643   4.263
79299W        W44460  21.494  36.326   2.668
79300W        W44461  22.116   9.446   1.258
79301W        W44462  34.077  25.906   1.285
79302W        W44463  13.728   9.424  11.575
79303W        W44464  11.505  27.035   1.772
79304W        W44465  25.689   9.616   4.978
79305W        W44466  42.054   2.454  13.878
79306W        W44467  44.988  35.849   0.677
79307W        W44468  43.942  39.596   4.663
79308W        W44469  24.730  30.316  14.986
79309W        W44470  18.164  40.252  12.421
79310W        W44471   9.058   6.225  11.004
79311W        W44472  29.078  27.424  11.561
79312W        W44473  25.535  27.631  11.134
79313W        W44474  11.864  20.320  14.472
79314W        W44475  40.903  39.017   3.311
79315W        W44476   6.727   9.965   2.736
79316W        W44477  32.675  13.894  12.090
79317W        W44478   2.786   2.931   3.332
79318W        W44479  41.766   0.882   0.855
79319W        W44480  29.129   0.369  13.343
79320W        W44481  41.792  13.918   0.885
79321W        W44482   5.797  30.392  12.547
79322W        W44483  44.964  35.125  13.785
79323W        W44484   8.078  28.034   4.524
79324W        W44485   4.449  41.939  12.334
79325W        W44486  15.982  37.891  12.841
79326W        W44487  30.295  11.911   0.324
79327W        W44488  32.450  10.353  13.964
79328W        W44489  38.234  25.495  13.245
79329W        W44490   0.745  38.897  14.517
79330W        W44491  11.650   8.953   4.689
79331W        W44492  22.542   8.960  10.065
79332W        W44493  14.112   6.416   3.175
79333W        W44494  43.879  22.590  14.490
79334W        W44495   6.385  24.504   2.919
79335W        W44496   3.186  10.385   2.301
79336W        W44497  44.350   9.572  14.088
79337W        W44498  22.865  34.717   3.689
79338W        W44499   2.751  27.212  13.805
79339W        W44500  25.323   5.198   1.147
79340W        W44501  35.210  44.868   1.310
79341W        W44502  10.486  28.637   2.725
79342W        W44503  11.380  22.816   4.510
79343W        W44504  21.481  40.111   5.524
79344W        W44505  13.323  24.489   4.444
79345W        W44506  28.862  43.338  13.447
79346W        W44507  18.196  35.909   0.240
79347W        W44508  30.964  13.574  12.856
79348W        W44509  19.331  40.005   3.864
79349W        W44510  15.979  32.124   3.726
79350W        W44511  14.612  42.406   3.223
79351W        W44512  30.282  23.199   3.083
79352W        W44513  16.610  16.606  12.118
79353W        W44514  30.293  32.495  11.209
79354W        W44515  18.065   7.300   1.234
79355W        W44516  39.085  14.137   0.602
79356W        W44517  34.000  33.919  14.486
79357W        W44518  33.382  41.268   1.018
79358W        W44519  20.278  35.213  11.152
79359W        W44520   3.371   4.929  12.385
79360W        W44521  25.113  44.349   4.850
79361W        W44522  18.776   8.424  13.405
79362W        W44523  35.936   2.638  12.131
79363W        W44524  19.156   5.178  14.302
79364W        W44525  20.315  43.185   1.947
79365W        W44526   7.319  14.920   2.378
79366W        W44527  24.575  26.377  14.436
79367W        W44528  16.790  41.446   0.321
79368W        W44529  22.423  31.568   3.793
79369W        W44530   4.300  37.406   1.739
79370W        W44531  26.491  19.194   0.391
79371W        W44532   3.794  19.188  10.676
79372W        W44533  22.243  40.904  12.587
79373W        W44534  27.049   2.194   0.587
79374W        W44535  21.606   1.987   3.725
79375W        W44536   6.243  10.827  12.844
79376W        W44537  29.089   4.936   4.126
79377W        W44538  24.090   1.895   9.931
79378W        W44539   5.752   2.676  12.472
79379W        W44540  25.179  32.446  11.250
79380W        W44541  18.842  39.869   1.376
79381W        W44542  43.772   8.734  14.069
79382W        W44543  36.896  31.565  13.963
79383W        W44544   7.180  28.143   3.407
79384W        W44545  40.871  31.544   3.352
79385W        W44546  44.310  33.996  12.880
79386W        W44547  20.768  10.140  10.804
79387W        W44548  16.090  19.799  11.053
79388W        W44549  23.507  39.075  10.375
79389W        W44550   2.255  27.874   1.712
79390W        W44551  18.527  27.499   0.765
79391W        W44552  33.731  42.575  12.618
79392W        W44553  32.643  28.559   0.894
79393W        W44554  20.213   1.421   1.987
79394W        W44555  19.399   4.783  14.567
79395W        W44556   6.401  38.095   0.821
79396W        W44557   0.570  25.061  11.670
79397W        W44558  35.549  42.338   3.858
79398W        W44559  43.874   3.044   4.123
79399W        W44560   0.132   5.758  11.598
79400W        W44561   8.476  15.725  13.534
79401W        W44562   2.305  32.053  14.904
79402W        W44563  28.915   3.990  13.459
79403W        W44564  37.976  31.013   0.122
79404W        W44565  14.024  22.572  12.489
79405W        W44566  20.507  21.806   0.449
79406W        W44567  27.767  33.619   3.134
79407W        W44568   8.243  37.041  13.171
79408W        W44569  24.185  23.274  14.111
79409W        W44570  33.870  30.564  14.063
79410W        W44571  15.209  11.630  13.376
79411W        W44572   8.784  11.068  12.109
79412W        W44573  38.341  13.789  10.661
79413W        W44574  43.504  32.576  10.479
79414W        W44575  28.643  20.017  11.111
79415W        W44576  21.160  25.090  11.676
79416W        W44577  22.751  40.632   0.089
79417W        W44578  44.035  39.661   3.195
79418W        W44579  37.987  44.523   1.851
79419W        W44580   9.848  43.936   3.230
79420W        W44581  37.824  14.225  13.331
79421W        W44582  15.697  13.134  12.685
79422W        W44583  25.458  11.759  13.472
79423W        W44584  42.521   4.205  12.917
79424W        W44585   3.445  19.693   2.560
79425W        W44586   8.541  27.153   1.232
79426W        W44587  10.105  10.613   3.259
79427W        W44588   0.993  44.386   0.785
79428W        W44589   3.488  10.266  14.893
79429W        W44590  31.621  25.482   2.726
79430W        W44591   0.871  42.423   2.434
79431W        W44592   7.157   1.052   2.194
79432W        W44593   6.328   4.305  13.850
79433W        W44594  23.267  22.059  12.391
79434W        W44595  21.754   9.404   4.208
79435W        W44596  16.197  37.107   4.601
79436W        W44597  21.002  42.125   5.556
79437W        W44598  30.418  32.549   0.285
79438W        W44599  14.541  36.822   1.502
79439W        W44600  33.434  41.791   2.835
79440W        W44601  32.029   0.846   2.084
79441W        W44602   2.324  10.777  12.108
79442W        W44603  33.483  13.602   4.096
79443W        W44604  44.208  32.371   3.434
79444W        W44605  22.192  13.711  14.539
79445W        W44606   4.755  23.590  12.024
79446W        W44607   5.989   8.276  12.303
79447W        W44608   9.337  19.632   1.017
79448W        W44609  28.781  33.591  13.481
79449W        W44610  41.560   1.913   4.410
79450W        W44611   8.967  29.665   3.720
79451W        W44612   5.952  10.459   3.738
79452W        W44613  12.282  22.926   4.026
79453W        W44614   8.886  39.695   2.250
79454W        W44615  39.400   0.993  13.788
79455W        W44616  37.125  34.011   4.652
79456W        W44617   7.266  37.774  14.436
79457W        W44618  24.493  43.369  12.426
79458W        W44619   7.930  33.842   1.843
79459W        W44620  11.475  19.177   2.374
79460W        W44621   3.851  39.842  14.413
79461W        W44622   0.899  14.377   1.085
79462W        W44623  32.769  43.776   2.437
79463W        W44624   9.351  14.569  14.865
79464W        W44625   3.795   3.380   0.212
79465W        W44626  37.431  24.642  11.653
79466W        W44627  38.971  36.927   3.159
79467W        W44628   2.260  28.599   0.431
79468W        W44629  42.249   9.665   0.981
79469W        W44630   8.123  23.850   4.160
79470W        W44631  33.338   9.805  10.842
79471W        W44632  16.923  27.580   2.880
79472W        W44633  31.366   8.546  14.456
79473W        W44634   5.819  36.603   1.416
79474W        W44635  39.227  31.933  12.781
79475W        W44636  24.732  31.057  11.981
79476W        W44637  22.131  27.649  12.949
79477W        W44638  18.071  41.018   0.249
79478W        W44639  40.263  42.760  10.561
79479W        W44640  16.796  13.266  13.516
79480W        W44641  40.373  23.352   1.745
79481W        W44642  18.971  16.969   0.317
79482W        W44643   5.146  28.843  10.992
79483W        W44644  29.442  11.616   0.476
79484W        W44645  11.193  35.934  14.594
79485W        W44646  44.400  12.083  13.626
79486W        W44647  24.913  21.286   0.766
79487W        W44648  18.579  34.956  12.517
79488W        W44649  17.019  18.978  12.662
79489W        W44650  12.509   5.713  13.547
79490W        W44651  31.455   1.485   0.939
79491W        W44652  16.543  40.790  11.189
79492W        W44653  35.932  10.994  12.163
79493W        W44654   1.713  31.164   1.810
79494W        W44655  39.878  33.303  14.850
79495W        W44656  24.485  10.399   2.200
79496W        W44657   4.794  15.753   4.145
79497W        W44658  25.632  32.675   1.867
79498W        W44659  17.723  12.876   3.184
79499W        W44660  28.506  21.525   3.051
79500W        W44661  26.815  28.829  14.748
79501W        W44662  33.834  29.028  12.907
79502W        W44663  31.152   6.229  12.424
79503W        W44664   2.966   6.724   2.824
79504W        W44665  27.415  22.230  14.809
79505W        W44666  34.611  26.638   0.912
79506W        W44667   7.291  28.170  10.589
79507W        W44668  30.975   8.182   2.633
79508W        W44669  19.705  39.294  11.898
79509W        W44670  27.776  15.877   2.240
79510W        W44671  11.136   4.692  14.069
79511W        W44672  33.863  33.120   2.805
79512W        W44673  20.594  36.502   3.470
79513W        W44674  41.930  25.030   1.182
79514W        W44675  35.595  19.703  14.372
79515W        W44676  42.470  26.910   0.412
79516W        W44677  27.352  17.069   1.429
79517W        W44678  43.992  23.631  11.590
79518W        W44679  22.164   7.917   4.367
79519W        W44680  38.528  39.470   4.556
79520W        W44681   8.913  28.474   0.756
79521W        W44682  24.693   8.399  14.269
79522W        W44683  35.039  17.194   2.778
79523W        W44684  12.651  11.073  13.799
79524W        W44685  19.244   2.202   0.420
79525W        W44686   2.244  15.333  12.464
79526W        W44687  39.974  43.592  10.739
79527W        W44688  41.005   6.066  14.045
79528W        W44689  13.794  10.837  14.253
79529W        W44690  28.403   6.581  14.114
79530W        W44691  10.173  14.233   4.112
79531W        W44692   2.513  19.212   3.170
79532W        W44693  29.440  10.907  11.369
79533W        W44694   2.234  24.221   0.079
79534W        W44695  44.769  41.684  14.204
79535W        W44696  32.902  41.075   1.760
79536W        W44697  17.816  16.070   0.190
79537W        W44698  34.999  17.738   4.691
79538W        W44699  44.497   9.812   3.354
79539W        W44700   6.219  27.640   0.393
79540W        W44701  32.057  10.875  12.973
79541W        W44702  26.699  10.584  13.087
79542W        W44703  36.447  39.931  13.101
79543W        W44704  37.278   8.344   4.861
79544W        W44705   2.833  26.601  11.128
79545W        W44706  10.247  40.363  10.610
79546W        W44707   8.406  44.742  12.623
79547W        W44708  10.475  21.554  13.351
79548W        W44709   5.539   6.984   1.206
79549W        W44710  10.844  12.755  14.272
79550W        W44711  25.445  29.990   0.830
79551W        W44712  23.967  38.817   2.013
79552W        W44713  10.131  36.991   0.126
79553W        W44714  42.916   9.306   3.728
79554W        W44715  42.830  40.075   2.453
79555W        W44716  26.901  30.342   3.273
79556W        W44717  14.190  44.004  10.360
79557W        W44718   6.143  30.086  13.669
79558W        W44719  36.150  20.925  13.616
79559W        W44720  32.823   6.433  12.398
79560W        W44721  21.012  16.010   0.347
79561W        W44722  41.011  18.497   1.212
79562W        W44723  20.717  15.668   4.133
79563W        W44724  35.987  34.432  11.247
79564W        W44725  18.297  18.152  14.292
79565W        W44726  25.077  13.344   1.218
79566W        W44727  20.331   5.877   0.375
79567W        W44728  17.006  10.091  10.571
79568W        W44729  23.006  20.106   1.614
79569W        W44730  29.547  39.189  13.091
79570W        W44731   4.376  27.973  11.698
79571W        W44732  11.268  14.147  14.997
79572W        W44733  20.778   0.473  10.274
79573W        W44734  24.160   7.586   5.103
79574W        W44735  40.314  15.039  11.982
79575W        W44736  38.252  39.361  13.475
79576W        W44737  39.294   0.276   0.851
79577W        W44738  16.591  14.609   0.492
79578W        W44739   2.208  29.865  10.890
79579W        W44740   5.375  15.669   2.535
79580W        W44741  33.168  18.456   0.098
79581W        W44742  21.718  37.390  13.971
79582W        W44743  32.970  15.371   2.307
79583W        W44744   2.447   1.144   4.214
79584W        W44745   5.344  14.412   3.245
79585W        W44746  21.911   0.048  11.514
79586W        W44747  36.610   7.658  14.812
79587W        W44748  31.439  13.688   4.132
79588W        W44749  24.952  31.083  11.497
79589W        W44750  42.074  37.935   0.303
79590W        W44751  26.928  14.416   3.639
79591W        W44752  29.027  29.573  12.313
79592W        W44753  23.225   1.791  13.955
79593W        W44754  34.999  24.304   5.028
79594W        W44755   3.792  31.935  12.504
79595W        W44756  32.898   0.204   2.281
79596W        W44757  39.978  15.087   0.190
79597W        W44758   7.684  10.683  13.182
79598W        W44759  41.793   9.250  13.624
79599W        W44760  16.339  40.853   1.691
79600W        W44761  14.761   0.760  11.587
79601W        W44762  30.675   7.232   2.761
79602W        W44763  37.388   0.429  10.211
79603W        W44764  20.948  40.289  10.540
79604W        W44765   0.240  23.981   3.682
79605W        W44766  11.227   7.770   3.361
79606W        W44767  44.272  29.153   2.793
79607W        W44768  30.571  39.949  13.813
79608W        W44769  38.861   6.617  14.943
79609W        W44770  34.611  38.954   0.763
79610W        W44771  17.055   7.074   4.143
79611W        W44772   4.817  12.518   0.377
79612W        W44773  16.035  44.007  14.417
79613W        W44774  16.738  13.286  14.515
79614W        W44775  37.559  30.807   4.596
79615W        W44776  42.198  35.524  10.178
79616W        W44777  18.192  18.788   1.388
79617W        W44778  40.443   7.217   1.754
79618W        W44779   2.920   4.329   1.438
79619W        W44780   2.522  41.402  11.352
79620W        W44781  23.030  31.567   2.720
79621W        W44782   1.957   8.179  10.460
79622W        W44783  44.387  22.540   3.387
79623W        W44784   8.091  35.174   4.967
79624W        W44785  28.455  30.514  13.166
79625W        W44786  28.423   2.444   3.198
79626W        W44787   5.547  39.564  11.721
79627W        W44788   6.383  17.650  10.908
79628W        W44789  10.752  29.584   1.995
79629W        W44790  43.362   0.675   1.514
79630W        W44791  27.007  16.302   4.587
79631W        W44792  22.246  15.320   2.419
79632W        W44793  29.056  24.541  13.968
79633W        W44794  19.803  21.007  11.579
79634W        W44795  41.415  26.501   0.785
79635W        W44796  26.562  12.201  11.878
79636W        W44797  43.097   7.697   4.009
79637W        W44798  25.685  24.414  13.411
79638W        W44799  11.212  32.618  11.077
79639W        W44800  13.568  40.425  13.856
79640W        W44801  38.049  22.082   3.790
79641W        W44802  21.470   2.777  11.172
79642W        W44803  44.857  40.480   4.015
79643W        W44804  24.957  42.427   0.699
79644W        W44805  15.654  16.784   1.267
79645W        W44806  37.377   0.280  13.046
79646W        W44807  34.344  36.490   1.914
79647W        W44808  15.359  19.486  12.990
79648W        W44809  31.742  28.146   3.650
79649W        W44810  30.936  24.866  13.081
79650W        W44811  11.134  16.133  11.374
79651W        W44812  40.489  18.607   1.189
79652W        W44813  39.913  10.782  10.782
79653W        W44814  36.011  10.628  12.548
79654W        W44815  29.371   3.855  12.596
79655W        W44816   0.752  42.103   3.711
79656W        W44817  40.311  44.943  11.352
79657W        W44818  17.221  43.518  14.345
79658W        W44819   0.766   9.955  11.951
79659W        W44820   2.358   1.477   1.250
79660W        W44821  19.139  35.108  14.339
79661W        W44822  20.859  28.516  13.549
79662W        W44823  32.910  33.323  11.121
79663W        W44824   2.056  35.062   2.413
79664W        W44825   5.376   9.909  11.866
79665W        W44826   1.412  44.735  13.345
79666W        W44827  44.873  28.749  11.192
79667W        W44828   2.605  18.791  13.169
79668W        W44829  21.118  13.079   4.035
79669W        W44830   5.448  34.293  13.493
79670W        W44831  17.247  41.772   2.155
79671W        W44832   6.522  39.559   1.618
79672W        W44833  12.028  10.832   3.546
79673W        W44834  33.389  37.487  14.451
79674W        W44835  11.266  33.745   2.291
79675W        W44836  27.881  33.461  13.835
79676W        W44837   1.348  13.518   4.244
79677W        W44838   1.297  11.176   3.698
79678W        W44839  10.805  25.642   0.494
79679W        W44840   4.237  44.900  11.852
79680W        W44841   2.014  22.035   3.556
79681W        W44842  44.890   0.590  11.518
79682W        W44843  25.365  44.380  11.997
79683W        W44844  34.975   9.739  13.432
79684W        W44845  36.246  34.220  10.342
79685W        W44846  34.993   1.657   2.471
79686W        W44847   9.834   7.800   4.606
79687W        W44848  24.325  28.506  13.006
79688W        W44849  39.242  21.673  12.577
79689W        W44850  41.823   7.649  14.404
79690W        W44851  36.347  11.792  14.763
79691W        W44852  40.946  19.093   4.108
79692W        W44853  18.748  23.417   1.167
79693W        W44854  31.677  23.254  14.759
79694W        W44855   1.256   0.065   2.681
79695W        W44856  39.528  23.089   2.259
79696W        W44857  29.966  13.980  11.374
79697W        W44858   5.997  15.667  14.313
79698W        W44859   3.649   4.272  13.997
79699W        W44860  26.670  42.200  13.022
79700W        W44861  10.808  20.038   3.211
79701W        W44862  22.040  40.448   1.136
79702W        W44863  19.563  38.302   3.236
79703W        W44864  14.335  37.125  13.516
79704W        W44865  43.478   9.647   2.818
79705W        W44866  16.235  26.542  13.503
79706W        W44867   9.241  19.938  12.053
79707W        W44868   3.184  23.708   4.155
79708W        W44869  39.458   1.807   3.229
79709W        W44870  35.064  27.658   1.407
79710W        W44871   3.058  36.917  12.403
79711W        W44872  16.750   3.456  11.799
79712W        W44873  42.862  23.635   0.774
79713W        W44874  33.523  15.270   1.416
79714W        W44875  10.452  27.214  12.421
79715W        W44876  11.688  26.479   3.689
79716W        W44877  38.314  33.321  12.317
79717W        W44878   8.950  24.412   3.401
79718W        W44879  17.747  24.135   4.330
79719W        W44880  29.456  38.087   2.692
79720W        W44881   0.454  16.149   2.354
79721W        W44882   1.870  40.010   1.901
79722W        W44883  43.719  42.216  11.996
79723W        W44884   9.572  31.781  13.062
79724W        W44885  30.957  33.997  11.544
79725W        W44886  41.464  25.088  11.201
79726W        W44887  44.038  20.516  13.853
79727W        W44888   4.680  37.025  10.958
79728W        W44889  34.540  15.755  10.762
79729W        W44890  27.121  44.750   1.397
79730W        W44891  39.509   9.675  11.345
79731W        W44892   8.450  14.575   4.656
79732W        W44893  18.100  31.590  10.656
79733W        W44894  16.503   3.259  13.487
79734W        W44895  20.246   4.829  10.659
79735W        W44896  29.060  36.651  14.538
79736W        W44897  39.307   2.637  13.137
79737W        W44898  14.708  38.299  13.526
79738W        W44899  18.879   5.388   2.959
79739W        W44900  42.161  23.664   1.881
79740W        W44901  14.230  38.119   1.880
79741W        W44902  37.018  43.014  14.152
79742W        W44903   0.803  14.299   5.066
79743W        W44904   5.252  23.491  13.776
79744W        W44905  26.702  27.746   4.384
79745W        W44906  26.019  17.302   3.289
79746W        W44907  24.708   9.457   1.699
79747W        W44908  13.103  13.086   2.302
79748W        W44909  35.147  14.567  12.956
79749W        W44910  21.161   8.441   0.720
79750W        W44911   5.027  26.506  11.861
79751W        W44912  19.755  43.431   0.014
79752W        W44913  37.634  44.414   0.331
79753W        W44914  40.923  41.033   2.261
79754W        W44915  23.999  17.773  12.529
79755W        W44916  37.044  37.634   2.076
79756W        W44917  19.714  41.324  14.559
79757W        W44918  30.630  25.083  11.623
79758W        W44919  21.942  10.770  13.526
79759W        W44920   3.247   1.352   1.761
79760W        W44921   3.357  21.956  10.715
79761W        W44922  17.324   2.626  11.552
79762W        W44923  37.520  30.140  12.132
79763W        W44924  13.167   4.173   2.302
79764W        W44925  37.426  11.314   0.874
79765W        W44926  38.829  43.943   3.714
79766W        W44927   7.286  37.525   0.869
79767W        W44928   4.938  35.650  13.838
79768W        W44929  39.920  10.457  11.169
79769W        W44930  20.733  38.278  14.991
79770W        W44931  19.938   4.125  13.002
79771W        W44932  37.911   0.431  10.385
79772W        W44933  28.543  43.243   0.216
79773W        W44934  39.201  11.561  14.511
79774W        W44935  41.873  21.738  13.920
79775W        W44936  16.218  38.529   1.378
79776W        W44937  12.216   3.341  14.347
79777W        W44938  19.539  38.801  13.875
79778W        W44939  35.036   4.502   2.580
79779W        W44940  25.270  37.896   4.104
79780W        W44941  27.941  27.288   0.312
79781W        W44942  26.185  29.285  11.218
79782W        W44943  43.551  33.528   1.987
79783W        W44944  19.813  17.133  12.966
79784W        W44945  43.913  11.194   1.189
79785W        W44946  17.702  30.072  14.289
79786W        W44947  24.394   7.599  14.896
79787W        W44948  39.930  25.076  13.790
79788W        W44949   5.428  37.920  12.916
79789W        W44950   9.485  19.948  12.497
79790W        W44951   2.267  12.616   2.360
79791W        W44952  32.757  26.699  13.477
79792W        W44953  11.366  43.924   2.163
79793W        W44954  25.137  14.780   3.248
79794W        W44955   0.458  30.752  12.067
79795W        W44956  19.546  30.678   0.294
79796W        W44957  29.914  31.175  14.869
79797W        W44958   3.418   7.593   4.807
79798W        W44959  18.141  31.874  12.041
79799W        W44960   2.591  32.905  12.076
79800W        W44961  35.216   7.898  13.910
79801W        W44962  18.738   3.873  11.029
79802W        W44963   5.387  25.144   4.124
79803W        W44964  19.930  26.807  14.845
79804W        W44965  22.632  41.880   4.040
79805W        W44966   6.762  29.441  11.941
79806W        W44967  42.993  22.817   1.866
79807W        W44968   4.948  34.639  13.485
79808W        W44969  42.582  17.570  14.445
79809W        W44970  40.034   7.387   0.967
79810W        W44971  13.802  44.908  14.783
79811W        W44972  26.038  37.109   1.239
79812W        W44973  20.670  28.119   4.694
79813W        W44974   1.723  32.868   2.665
79814W        W44975  30.114  31.671   3.329
79815W        W44976  13.174  36.838   3.846
79816W        W44977  31.038  27.048  13.862
79817W        W44978  32.572  19.135   0.926
79818W        W44979  10.980  25.571   3.247
79819W        W44980  23.542  43.651  14.508
79820W        W44981   7.740  33.335  14.883
79821W        W44982  13.797  25.206   3.270
79822W        W44983  15.135  29.874   2.978
79823W        W44984  25.029  31.086  10.595
79824W        W44985   5.409  12.276  10.206
79825W        W44986  14.198  30.936   2.308
79826W        W44987   3.522  39.481  14.642
79827W        W44988  21.695  33.499   2.469
79828W        W44989  11.656   9.992  10.386
79829W        W44990   7.590  26.087   0.276
79830W        W44991   2.432  24.043  10.321
79831W        W44992  11.831  15.616   4.115
79832W        W44993   6.970  31.191   2.310
79833W        W44994  14.742   0.715  12.912
79834W        W44995  38.987   8.142  13.001
79835W        W44996   6.284  33.850  12.504
79836W        W44997  11.848  42.604  13.300
79837W        W44998   6.603  10.841   3.002
79838W        W44999  20.736  13.788  11.139
79839W        W45000  43.978  44.067  14.928
79840W        W45001   1.868  28.629   1.934
79841W        W45002  36.999  38.080  12.520
79842W        W45003  39.645  37.801  14.553
79843W        W45004  15.804   7.447  10.900
79844W        W45005  29.734  36.356   1.766
79845W        W45006  35.431   8.661   2.196
79846W        W45007  14.394  26.661  12.074
79847W        W45008  16.920  27.838   1.304
79848W        W45009   5.787  26.819   4.481
79849W        W45010   9.188  40.059   2.420
79850W        W45011  21.561  26.507   3.571
79851W        W45012  19.679  20.461  14.095
79852W        W45013  27.485  39.442   3.234
79853W        W45014  44.013  11.004   4.145
79854W        W45015  24.184  15.333  12.114
79855W        W45016   7.349  22.183  14.519
79856W        W45017   9.823  21.998   1.393
79857W        W45018  36.442  34.539   1.211
79858W        W45019  14.686   2.728  12.457
79859W        W45020  43.811  32.106   1.715
79860W        W45021  25.015  24.279   1.850
79861W        W45022  31.166   4.057   2.318
79862W        W45023  42.744  24.174  11.874
79863W        W45024  42.537  16.707  14.193
79864W        W45025  15.599   1.339   2.089
79865W        W45026  37.378  24.134  12.190
79866W        W45027   4.098  38.371  14.788
79867W        W45028   5.724  13.291   2.558
79868W        W45029   1.178  28.016   2.683
79869W        W45030  44.944  42.920  12.152
79870W        W45031  41.343   2.352  11.829
79871W        W45032  19.760   6.842   0.969
79872W        W45033  32.212   3.455  14.055
79873W        W45034  10.368  30.232  13.109
79874W        W45035  10.756   4.587   0.502
79875W        W45036  26.016  33.085  14.280
79876W        W45037   9.456  20.617  11.698
79877W        W45038   4.803   8.870   2.751
79878W        W45039  40.610  30.104   1.698
79879W        W45040   2.298  20.799   4.286
79880W        W45041  32.409  17.548  12.458
79881W        W45042  36.369   8.234   1.278
79882W        W45043  38.324  25.471  12.066
79883W        W45044   0.785  29.976   4.191
79884W        W45045  25.834  36.407  10.234
79885W        W45046   9.438  37.520   2.780
79886W        W45047   8.763   6.622  13.144
79887W        W45048  33.947  23.977  14.824
79888W        W45049   8.651  14.857   1.351
79889W        W45050  37.793  20.022  12.513
79890W        W45051  21.817  32.459   3.987
79891W        W45052  15.684   3.663   3.239
79892W        W45053  43.463   6.133  11.689
79893W        W45054  38.039  17.795   1.349
79894W        W45055  20.069  10.706  11.905
79895W        W45056  18.683  17.079   1.222
79896W        W45057   3.296   5.317  11.004
79897W        W45058  37.095   0.153   3.696
79898W        W45059  10.558  21.583  10.726
79899W        W45060  21.249  37.832   4.599
79900W        W45061  44.796  32.790  13.610
79901W        W45062  38.255   7.277  10.788
79902W        W45063  19.710  17.029   2.752
79903W        W45064  19.900  12.836   4.210
79904W        W45065  28.787  18.103   1.704
79905W        W45066  41.400  42.880  12.539
79906W        W45067   5.695  28.358  11.993
79907W        W45068   8.947  27.072  10.280
79908W        W45069  41.723  15.707  10.321
79909W        W45070   0.650  43.119  14.487
79910W        W45071   2.502  27.254   3.349
79911W        W45072  29.856  22.421   1.989
79912W        W45073   5.946   1.395   4.115
79913W        W45074  19.725  13.219  13.508
79914W        W45075   6.294  16.252   1.803
79915W        W45076   8.724  29.961  14.946
79916W        W45077  11.750   2.719   4.211
79917W        W45078  35.071  43.783   2.868
79918W        W45079  11.387   6.285  10.626
79919W        W45080  31.935  36.037   3.630
79920W        W45081   2.439  23.542  14.980
79921W        W45082  34.637   2.854   4.571
79922W        W45083  17.032   0.444   1.361
79923W        W45084   1.004   7.258  11.636
79924W        W45085   5.873  40.795  12.924
79925W        W45086  30.693  25.634  13.308
79926W        W45087   6.945  11.263   2.367
79927W        W45088   0.063   2.637  11.944
79928W        W45089  16.383  30.449   0.467
79929W        W45090  15.413  32.799  12.611
79930W        W45091  38.934   5.057   2.885
79931W        W45092   7.216  31.166   4.373
79932W        W45093  23.570  12.661   4.178
79933W        W45094  30.953   0.262  12.781
79934W        W45095  16.843  32.265   4.083
79935W        W45096  40.168  33.745   3.367
79936W        W45097  22.703  12.118   4.308
79937W        W45098  15.570  21.442   4.794
79938W        W45099  17.318   0.898  10.429
79939W        W45100   7.131   4.929  14.432
79940W        W45101  31.578  15.208  11.167
79941W        W45102  23.518  31.535  13.963
79942W        W45103  21.687  28.040   1.948
79943W        W45104  24.261  34.148  12.052
79944W        W45105  13.601  17.526  13.935
79945W        W45106  28.881  11.377   3.227
79946W        W45107  24.468  11.202  13.979
79947W        W45108  10.130  18.763  13.108
79948W        W45109  32.460   1.507   2.341
79949W        W45110  14.280   6.724   3.811
79950W        W45111  35.080  19.798   3.655
79951W        W45112  13.176  19.307  13.343
79952W        W45113  42.012  42.474   4.475
79953W        W45114   8.841  31.053   1.343
79954W        W45115  43.548  32.382  14.296
79955W        W45116  16.273  42.875  14.855
79956W        W45117  18.183  41.756   2.962
79957W        W45118  36.597  31.521   2.017
79958W        W45119   1.829  34.969  14.976
79959W        W45120  12.317  11.158  10.744
79960W        W45121   1.326   9.928   0.845
79961W        W45122  40.047  26.431  11.062
79962W        W45123  30.198   7.316   4.391
79963W        W45124   2.422  30.819  13.320
79964W        W45125  33.573   9.923  12.027
79965W        W45126  21.292  36.457  12.901
79966W        W45127  16.670  37.007  10.533
79967W        W45128  18.261  14.200   2.288
79968W        W45129   9.859  26.717   0.324
79969W        W45130  29.908  33.933   2.343
79970W        W45131  11.348   3.375  11.598
79971W        W45132  26.730  23.498  11.565
79972W        W45133  35.630   7.474  13.057
79973W        W45134  44.390   0.379   0.338
79974W        W45135  32.401  18.742   0.025
79975W        W45136  19.132  39.383   2.621
79976W        W45137  28.178  15.366  13.576
79977W        W45138  29.389   8.162  13.901
79978W        W45139  42.872  35.664  14.352
79979W        W45140  42.295  43.694   0.708
79980W        W45141   6.814  24.499  11.667
79981W        W45142   6.338  14.827  10.592
79982W        W45143  15.098   4.618  12.604
79983W        W45144  30.029  25.036  13.410
79984W        W45145  20.876  38.829   5.202
79985W        W45146  36.859  12.845   1.854
79986W        W45147  31.707  18.757   2.768
79987W        W45148  31.428   4.236   3.217
79988W        W45149  40.824   9.913  11.282
79989W        W45150  12.172   8.147   2.352
79990W        W45151  39.415  13.981  11.955
79991W        W45152   7.962  40.392   0.799
79992W        W45153  41.976   0.357   1.333
79993W        W45154  33.342  41.983  10.649
79994W        W45155   2.951  35.451   0.722
79995W        W45156  27.729  13.553  11.379
79996W        W45157  23.648   3.329   4.341
79997W        W45158  16.495  11.741  12.856
79998W        W45159   3.722  33.032   3.634
79999W        W45160   3.174  13.923   0.822
80000W        W45161  11.780   2.144  13.836
80001W        W45162  36.214  44.182   4.908
80002W        W45163  41.387  18.004  14.360
80003W        W45164  41.986  13.235   3.727
80004W        W45165  11.300  19.685  11.184
80005W        W45166  14.624  36.536  14.552
80006W        W45167  17.664  36.001  14.463
80007W        W45168  29.956  17.206  11.970
80008W        W45169  39.166   6.518   2.757
80009W        W45170  38.344   5.287   1.669
80010W        W45171  22.783   8.087  12.540
80011W        W45172   1.750  28.818   0.519
80012W        W45173  19.244  19.084   3.119
80013W        W45174  43.778  42.813   0.175
80014W        W45175  40.745  17.361   4.642
80015W        W45176  44.214   0.945   0.018
80016W        W45177  25.637  40.968   5.276
80017W        W45178  43.920  27.758   2.682
80018W        W45179   9.240  36.286   2.494
80019W        W45180  39.712  37.406  11.961
80020W        W45181  23.453   6.384   1.788
80021W        W45182  20.565   5.305  14.519
80022W        W45183  28.579  23.741   0.182
80023W        W45184  38.017  13.755  11.087
80024W        W45185   1.867  13.739   0.732
80025W        W45186  36.981  42.045  13.823
80026W        W45187  42.183  32.096   4.556
80027W        W45188  14.518  43.921  12.012
80028W        W45189  13.022   1.936  14.912
80029W        W45190   9.924  12.436  13.958
80030W        W45191  29.204  42.967  13.475
80031W        W45192   4.789  37.469  13.099
80032W        W45193  15.796  39.615   0.344
80033W        W45194  19.847  34.382   0.955
80034W        W45195  28.855  22.259  14.025
80035W        W45196  35.323   2.224  10.931
80036W        W45197   1.763  13.079  14.944
80037W        W45198  17.055  21.739   0.803
80038W        W45199  29.477  23.412   0.848
80039W        W45200  28.748   2.290   4.024
80040W        W45201  32.915  14.288   4.710
80041W        W45202  40.309  40.523  12.885
80042W        W45203   0.157  43.973  14.486
80043W        W45204  29.186  34.309   3.002
80044W        W45205  12.754  26.946  11.144
80045W        W45206  12.889  10.758  12.015
80046W        W45207  16.310   3.392   4.500
80047W        W45208   4.949  19.544  12.115
80048W        W45209  17.593  44.714   4.611
80049W        W45210  34.289  14.262  13.097
80050W        W45211  14.876  34.429   2.304
80051W        W45212  31.484   0.043   2.129
80052W        W45213  41.347   1.678  14.741
80053W        W45214  42.771  16.266  13.980
80054W        W45215   1.736  40.101   4.102
80055W        W45216   8.354  22.685  12.436
80056W        W45217  44.800  29.832   2.360
80057W        W45218  19.334   1.370  12.588
80058W        W45219  40.466   8.401  10.538
80059W        W45220  18.802  43.107   2.714
80060W        W45221  13.842  30.998  14.257
80061W        W45222  16.619  44.586  10.744
80062W        W45223  36.020  10.896   4.573
80063W        W45224   3.553   7.698   0.316
80064W        W45225  23.912  17.251  14.290
80065W        W45226  22.776  38.698   2.730
80066W        W45227   1.210  11.680  13.070
80067W        W45228  30.372  23.043   3.591
80068W        W45229  14.177  11.158  10.830
80069W        W45230  33.340   6.679  11.636
80070W        W45231  40.107  36.414  13.866
80071W        W45232  14.723  13.076  11.534
80072W        W45233  27.746  10.043  11.986
80073W        W45234  41.914   9.080   3.307
80074W        W45235  20.544  14.990  13.963
80075W        W45236  15.948  34.920  12.112
80076W        W45237  42.369  21.985  11.040
80077W        W45238  14.232   4.011  12.506
80078W        W45239  25.366  37.165   9.872
80079W        W45240  34.560   3.181  13.348
80080W        W45241   2.714   0.318   4.152
80081W        W45242  42.485  16.710   1.855
80082W        W45243  40.739  33.921  11.154
80083W        W45244  11.705  37.547   0.488
80084W        W45245  23.721  43.087  10.763
80085W        W45246   5.537   2.004   3.344
80086W        W45247   5.275  36.368   0.320
80087W        W45248  16.255   0.054   9.760
80088W        W45249  16.320  24.346  13.794
80089W        W45250  34.351  20.132  14.650
80090W        W45251  41.808  22.440   3.119
80091W        W45252  17.787  44.957   4.180
80092W        W45253   5.873  18.455   4.782
80093W        W45254   3.154   4.359   4.850
80094W        W45255   8.205  28.033  14.997
80095W        W45256  17.018  26.911   0.919
80096W        W45257  30.000  32.109  11.345
80097W        W45258   8.566  30.598  11.129
80098W        W45259   2.193  28.139   4.550
80099W        W45260  38.821  39.038  10.352
80100W        W45261  25.091  12.225  12.575
80101W        W45262  21.218  37.527   1.356
80102W        W45263  22.790  16.321   4.520
80103W        W45264   9.264  15.088  13.014
80104W        W45265  23.018  25.858  11.672
80105W        W45266  28.368   2.523   2.299
80106W        W45267  25.126   8.365  12.889
80107W        W45268   7.628  21.959   1.309
80108W        W45269  31.304  23.106   0.710
80109W        W45270   6.555  40.481   0.877
80110W        W45271   3.990  41.404  13.866
80111W        W45272  26.145  36.358  11.201
80112W        W45273  15.823  29.517   2.709
80113W        W45274  17.637   9.089   1.396
80114W        W45275  39.974  22.974  12.514
80115W        W45276  25.010  42.717  11.557
80116W        W45277  20.011  18.381  12.141
80117W        W45278  34.818  30.503   1.948
80118W        W45279  31.597   4.440  10.360
80119W        W45280  26.471  34.931   1.652
80120W        W45281  29.173  32.184   4.090
80121W        W45282   9.236  17.763  10.988
80122W        W45283   8.659  27.515   4.088
80123W        W45284  38.758  10.976  10.089
80124W        W45285  35.076  36.537  11.709
80125W        W45286  20.322  27.542   0.462
80126W        W45287  36.822  28.549  10.716
80127W        W45288  28.022   8.755   2.371
80128W        W45289  31.385  30.013   3.047
80129W        W45290  35.825  31.436   4.386
80130W        W45291  22.766  30.119   4.767
80131W        W45292   2.817  17.499   4.087
80132W        W45293  35.041  23.012   3.413
80133W        W45294  43.791   5.346   1.299
80134W        W45295  32.752  22.733   4.704
80135W        W45296  26.667  28.583  13.032
80136W        W45297  37.821  40.152   1.810
80137W        W45298  43.782  18.189   4.717
80138W        W45299  26.096  21.714  10.998
80139W        W45300  35.850  43.948  10.689
80140W        W45301  35.445  44.558   0.975
80141W        W45302   4.439  11.948  12.759
80142W        W45303   8.673  31.329  12.772
80143W        W45304  37.853  23.948   2.088
80144W        W45305  43.009  17.551  14.143
80145W        W45306   7.021  27.543   4.932
80146W        W45307  26.654  11.376  13.416
80147W        W45308  38.992   5.641  12.687
80148W        W45309  30.158  11.715   0.798
80149W        W45310  24.719  16.681  12.902
80150W        W45311  26.959  44.616  12.956
80151W        W45312  13.571  42.828   2.941
80152W        W45313  15.268  39.851   2.603
80153W        W45314   7.868  26.977   3.638
80154W        W45315  18.112  31.271   1.314
80155W        W45316  28.897   6.299  13.306
80156W        W45317  13.737  18.150  12.908
80157W        W45318  38.525  22.257   3.567
80158W        W45319   0.300   6.201   1.450
80159W        W45320  26.886   3.264   1.539
80160W        W45321  23.911  43.441   4.170
80161W        W45322  41.516  11.069   4.252
80162W        W45323  44.892   8.417   1.359
80163W        W45324  18.762  26.105   2.196
80164W        W45325   9.117  12.159  10.954
80165W        W45326  41.689  22.640   5.148
80166W        W45327  21.791  44.452   4.589
80167W        W45328   6.349  15.610  12.951
80168W        W45329   0.771   5.198   4.804
80169W        W45330  30.221  31.579  12.498
80170W        W45331  18.100  23.215  13.350
80171W        W45332   1.789  42.505   4.403
80172W        W45333  22.245  22.488   3.392
80173W        W45334  18.026  18.970   0.912
80174W        W45335  32.406  10.667   1.292
80175W        W45336  22.040   8.445  12.186
80176W        W45337  39.840  29.146   2.548
80177W        W45338  28.916  32.078   2.698
80178W        W45339  16.475   8.769   2.204
80179W        W45340  24.912  18.848   0.514
80180W        W45341  30.093  26.393   1.278
80181W        W45342  38.125  40.654  13.352
80182W        W45343  25.459  31.081   2.125
80183W        W45344  29.689  36.424   3.691
80184W        W45345  16.342  44.972  14.380
80185W        W45346  35.792  36.009  13.004
80186W        W45347   1.457  40.450   3.169
80187W        W45348  23.206  18.056  14.982
80188W        W45349  43.008  44.004  10.036
80189W        W45350  16.314  43.820   0.880
80190W        W45351   7.867  28.629   3.719
80191W        W45352  31.979  26.392   4.423
80192W        W45353  33.095   0.093  11.806
80193W        W45354   1.340  16.664   2.814
80194W        W45355  23.205  24.467   4.996
80195W        W45356   1.415   2.452  12.110
80196W        W45357  35.458  40.975   4.119
80197W        W45358  26.912   2.817   4.201
80198W        W45359  14.185  30.903  11.580
80199W        W45360  27.058  32.955   3.170
80200W        W45361  14.850  21.588   1.488
80201W        W45362  19.325  16.354   2.269
80202W        W45363  43.435   3.683   2.744
80203W        W45364  22.569  23.932   1.713
80204W        W45365  18.255  42.074   3.386
80205W        W45366  29.419   4.303   1.595
80206W        W45367  10.860  39.511   1.269
80207W        W45368  18.555  23.298  14.773
80208W        W45369  16.590  26.878   3.606
80209W        W45370  20.790   6.002   0.190
80210W        W45371  42.859   6.987   1.317
80211W        W45372  41.321  24.726   3.726
80212W        W45373   6.992  40.854  14.825
80213W        W45374  31.071  37.366  14.851
80214W        W45375  20.281  16.830  13.502
80215W        W45376  26.146  14.776   1.640
80216W        W45377  19.277  32.924  13.654
80217W        W45378   6.901  13.747   2.802
80218W        W45379  38.270  15.446   1.291
80219W        W45380  20.250  43.758   1.864
80220W        W45381  31.668  13.894   0.341
80221W        W45382   1.098  33.489   4.052
80222W        W45383  37.927  33.351   1.610
80223W        W45384  18.719  20.571   0.680
80224W        W45385  10.246  19.540   0.249
80225W        W45386  37.876  25.018   1.375
80226W        W45387  14.560   9.170  11.199
80227W        W45388  18.758  19.726  11.632
80228W        W45389  18.289  38.947   2.196
80229W        W45390  21.259  11.795  12.839
80230W        W45391  43.784   2.955  10.420
80231W        W45392  35.496   6.394  14.391
80232W        W45393  28.167  10.761   5.508
80233W        W45394   3.243  32.914   2.771
80234W        W45395   1.014  34.773  14.562
80235W        W45396  31.795   0.848  13.315
80236W        W45397  40.558  25.299   1.915
80237W        W45398   6.940   6.663   3.607
80238W        W45399   7.947  38.281  12.511
80239W        W45400  13.058  33.376   1.975
80240W        W45401  26.551  40.423   2.275
80241W        W45402  15.780  44.403  13.053
80242W        W45403   8.204  44.510  12.217
80243W        W45404  37.315  36.305  13.026
80244W        W45405   3.080  22.496   4.991
80245W        W45406   6.336  36.271  14.907
80246W        W45407  21.436   4.173  11.057
80247W        W45408  40.302  27.580   2.289
80248W        W45409   2.320  19.967  14.372
80249W        W45410  42.094  13.377  13.970
80250W        W45411  18.248   2.401   1.834
80251W        W45412   4.676   5.228  10.633
80252W        W45413  42.505  31.614   3.714
80253W        W45414  18.731   9.148   1.911
80254W        W45415  29.924  10.144   3.806
80255W        W45416  16.660  37.837   0.064
80256W        W45417   3.755  34.837  14.780
80257W        W45418  33.161   3.924   1.553
80258W        W45419  28.146  30.614   4.540
80259W        W45420  39.056  33.052  12.081
80260W        W45421  21.560  43.831  11.558
80261W        W45422   3.496  33.174  11.981
80262W        W45423  22.760  30.392  12.998
80263W        W45424  11.751   5.106   1.427
80264W        W45425   8.665  42.873   2.461
80265W        W45426  40.018   9.723  11.383
80266W        W45427  28.415  12.893   0.521
80267W        W45428   5.039  38.777  14.481
80268W        W45429  27.875   3.499  10.700
80269W        W45430   3.410  12.674  11.819
80270W        W45431   8.004  10.696   2.714
80271W        W45432  20.327  41.467   1.249
80272W        W45433  33.910  23.993  11.071
80273W        W45434  15.324  37.050   4.476
80274W        W45435  26.017  20.672  13.718
80275W        W45436  14.066  21.674  14.100
80276W        W45437  21.703   6.946  12.816
80277W        W45438   9.099  42.857   2.179
80278W        W45439  21.039  12.473  12.563
80279W        W45440  19.180   0.581  13.867
80280W        W45441  25.720  44.295  14.552
80281W        W45442   2.949  24.901   1.801
80282W        W45443  26.104   9.513   2.715
80283W        W45444   5.851  20.498  13.119
80284W        W45445  10.375  34.386   0.781
80285W        W45446  21.246  39.473  12.795
80286W        W45447  16.302  43.372   2.861
80287W        W45448   7.450  19.420  11.516
80288W        W45449  17.364  12.269   2.669
80289W        W45450  25.207  39.770  11.952
80290W        W45451  39.735  26.415  14.402
80291W        W45452  14.503  32.959   1.356
80292W        W45453  41.793  39.101   4.106
80293W        W45454  30.061  34.671   1.831
80294W        W45455  17.603  13.050   3.662
80295W        W45456   5.659  42.122   1.300
80296W        W45457  31.552  13.897  11.534
80297W        W45458  28.713  15.326  13.492
80298W        W45459   0.770  34.306   4.042
80299W        W45460   6.004  22.173   3.167
80300W        W45461  23.164  36.456  13.900
80301W        W45462  33.084  24.003  10.126
80302W        W45463  35.665  34.804   2.174
80303W        W45464  39.588  42.891  11.115
80304W        W45465  34.469  20.921  13.460
80305W        W45466  23.120  14.818  13.455
80306W        W45467   5.211  14.168   3.686
80307W        W45468  38.602  24.733   0.321
80308W        W45469   9.686  34.968   0.305
80309W        W45470  19.498   1.802   4.829
80310W        W45471   7.680  17.149  13.741
80311W        W45472  41.154   8.212  11.952
80312W        W45473  41.141  37.671   0.807
80313W        W45474  27.518  25.978  12.270
80314W        W45475  44.971  15.124   1.543
80315W        W45476  24.367  20.403  13.413
80316W        W45477  10.792  21.658   1.321
80317W        W45478  18.871  32.022  10.725
80318W        W45479   3.226  32.132  14.962
80319W        W45480  21.044  27.088   1.773
80320W        W45481  42.222  43.297   4.154
80321W        W45482  40.424  20.940   2.160
80322W        W45483  12.207  31.914  12.102
80323W        W45484   3.868  36.348   0.049
80324W        W45485   7.219  17.102  14.687
80325W        W45486  41.340  39.426   1.057
80326W        W45487   2.723  32.042  11.654
80327W        W45488  27.001  12.365   3.202
80328W        W45489   5.716  22.632   4.226
80329W        W45490   1.243  37.226  11.140
80330W        W45491  27.670  20.976  13.076
80331W        W45492  22.580   3.496   1.471
80332W        W45493  33.589  25.371  14.737
80333W        W45494  30.349  10.244   1.697
80334W        W45495  39.544  39.903  12.872
80335W        W45496  41.589  32.969   2.204
80336W        W45497  42.815  43.535   1.720
80337W        W45498   8.938  21.755  13.465
80338W        W45499  22.535  13.887   2.323
80339W        W45500  37.329  22.102  13.833
80340W        W45501  22.060  40.125   4.040
80341W        W45502  13.242  44.306   0.743
80342W        W45503  12.712  43.348   3.613
80343W        W45504  21.869   1.481  11.565
80344W        W45505  41.267  26.980   0.709
80345W        W45506  27.410  26.321  12.666
80346W        W45507  43.873  35.801   3.287
80347W        W45508  39.050  13.191  11.561
80348W        W45509   4.574   9.643   3.081
80349W        W45510   8.718  21.058  11.344
80350W        W45511  11.344  14.291   3.769
80351W        W45512  22.966  19.127   3.713
80352W        W45513  28.882  16.043  14.147
80353W        W45514  27.025  37.695   5.282
80354W        W45515   9.249  15.433  13.943
80355W        W45516  11.047   9.319  10.934
80356W        W45517  10.426  27.845  11.570
80357W        W45518  29.671  41.587  10.659
80358W        W45519  43.920  16.815  11.003
80359W        W45520  25.091  10.272   4.487
80360W        W45521   3.135  27.921   1.979
80361W        W45522  44.300  26.268   5.033
80362W        W45523  19.686  11.219   0.762
80363W        W45524  27.651  34.901  14.062
80364W        W45525  23.654  23.438   0.813
80365W        W45526   4.863  24.983   5.189
80366W        W45527  15.006  39.250  10.957
80367W        W45528  35.569   5.704   4.395
80368W        W45529  17.372   8.103   4.060
80369W        W45530  30.403  33.432  11.434
80370W        W45531  14.126  23.997   4.938
80371W        W45532  38.501  19.540  14.807
80372W        W45533  26.562   3.777  11.073
80373W        W45534   0.792  33.563   1.145
80374W        W45535  38.159   8.209  10.727
80375W        W45536  20.161  23.959  14.385
80376W        W45537  39.201   8.746   3.749
80377W        W45538  43.331  44.300  11.759
80378W        W45539  28.974   4.721   1.914
80379W        W45540   7.177  33.370   0.385
80380W        W45541   9.756  12.872  13.027
80381W        W45542  30.165  27.704  12.704
80382W        W45543   3.264  17.258  14.817
80383W        W45544   6.339  12.812  11.621
80384W        W45545  21.321  14.570   4.138
80385W        W45546  27.531  29.129   2.211
80386W        W45547  22.797  28.549   1.288
80387W        W45548   0.324   7.751  11.458
80388W        W45549  13.370  20.863  13.520
80389W        W45550  26.670  31.217   3.312
80390W        W45551  42.736  18.549   0.158
80391W        W45552  15.652  24.793   0.043
80392W        W45553  12.707   0.149   2.404
80393W        W45554  41.583  40.300  13.033
80394W        W45555  23.285  37.458  14.854
80395W        W45556  25.173  44.917  14.010
80396W        W45557  22.525   7.507   5.213
80397W        W45558  38.364   6.239   3.931
80398W        W45559   2.204  26.259   4.942
80399W        W45560  32.020  15.246  13.577
80400W        W45561  43.031  33.474  10.279
80401W        W45562  27.377  10.400  11.994
80402W        W45563  15.791  38.125   4.053
80403W        W45564  10.446   4.157  13.920
80404W        W45565  30.716  28.389  11.468
80405W        W45566  16.116  44.502  10.705
80406W        W45567  25.206  31.728  13.183
80407W        W45568  39.952  34.241   4.700
80408W        W45569  10.800  43.026   3.211
80409W        W45570  39.129  25.865  10.456
80410W        W45571  43.532  11.803  12.619
80411W        W45572  21.964   9.219  13.833
80412W        W45573  15.349   5.854   3.610
80413W        W45574  12.358   6.535  13.357
80414W        W45575  42.022   6.824  11.376
80415W        W45576  38.072  32.629   3.442
80416W        W45577  21.454  28.631   1.635
80417W        W45578  29.570  19.514  13.584
80418W        W45579  13.957   3.327   2.789
80419W        W45580  13.323  32.030   1.673
80420W        W45581  17.263  28.987  14.027
80421W        W45582  29.114  33.240   4.114
80422W        W45583  15.980   1.257  13.366
80423W        W45584   6.925   3.907  10.547
80424W        W45585  19.487   2.261  11.270
80425W        W45586  29.915  17.707  12.641
80426W        W45587  44.401  23.181   4.575
80427W        W45588   1.459  14.294  12.792
80428W        W45589  37.412  38.037   2.601
80429W        W45590  17.050  13.584  13.866
80430W        W45591  26.436   0.413  14.920
80431W        W45592  14.208  28.511  12.985
80432W        W45593  16.723  44.976   0.188
80433W        W45594  25.574  13.509   3.217
80434W        W45595  11.575   4.786  13.694
80435W        W45596   3.642   5.782   4.264
80436W        W45597  11.122  39.434   1.745
80437W        W45598  32.061  43.217  11.902
80438W        W45599   5.752   7.716   1.904
80439W        W45600  12.630  32.127   3.643
80440W        W45601   3.043  32.404  13.259
80441W        W45602  29.034  29.449  10.585
80442W        W45603  12.738  32.600  13.969
80443W        W45604   6.927   1.266  12.431
80444W        W45605  39.328  12.248  12.962
80445W        W45606   2.751  40.322   1.159
80446W        W45607  25.016  33.618  13.407
80447W        W45608  35.120  44.777   3.692
80448W        W45609   3.282  29.583  12.426
80449W        W45610   6.966  38.471   3.179
80450W        W45611  25.442  22.789  14.467
80451W        W45612  19.523   7.207   1.834
80452W        W45613  40.399  15.341   0.364
80453W        W45614  22.481  44.014  12.073
80454W        W45615   8.980  25.980   2.717
80455W        W45616  31.801  31.725  12.603
80456W        W45617  12.833  19.959  11.928
80457W        W45618  35.853   4.738   2.693
80458W        W45619  39.658  28.156   4.511
80459W        W45620   7.203  14.473   1.264
80460W        W45621  26.423  25.070  14.379
80461W        W45622   2.815  20.202   1.625
80462W        W45623  37.889  18.548  12.083
80463W        W45624  23.591  15.579   1.658
80464W        W45625  39.213  42.754  12.830
80465W        W45626  42.784   2.799   3.799
80466W        W45627  38.226  21.659  14.032
80467W        W45628  31.911  41.487   1.268
80468W        W45629  44.974  25.927   4.938
80469W        W45630  40.290  40.666  12.399
80470W        W45631  14.339  19.989   0.560
80471W        W45632  29.632  35.399  13.689
80472W        W45633  13.045  33.519  11.419
80473W        W45634  15.792  15.828  10.264
80474W        W45635   6.871   2.662  11.807
80475W        W45636  41.905  42.252  11.562
80476W        W45637  30.936  30.202   0.922
80477W        W45638  33.119  35.613  11.431
80478W        W45639  10.839  14.315   3.672
80479W        W45640  12.104   7.367   0.059
80480W        W45641  33.748  11.787  11.239
80481W        W45642  42.799  44.972   3.283
80482W        W45643   9.431  43.471  14.288
80483W        W45644   4.736  31.972  11.562
80484W        W45645  14.952  41.486  13.964
80485W        W45646  37.453   5.328   0.075
80486W        W45647  12.733   6.421   3.199
80487W        W45648   5.933  29.944   3.177
80488W        W45649  22.868  28.567   3.785
80489W        W45650  20.553   9.699  11.656
80490W        W45651  39.703  16.736  11.521
80491W        W45652  21.020   8.415  14.375
80492W        W45653  18.825   7.229   3.703
80493W        W45654  17.553  39.828  13.037
80494W        W45655  35.468   0.261   0.470
80495W        W45656  15.431  13.031   3.753
80496W        W45657  16.706   6.790  11.619
80497W        W45658  20.097  17.036  13.927
80498W        W45659  13.809  15.752  11.229
80499W        W45660  13.463  16.469   3.823
80500W        W45661  34.999  36.965   0.430
80501W        W45662  11.603  38.354  12.454
80502W        W45663  31.196  25.057   1.260
80503W        W45664   0.372   0.854  13.393
80504W        W45665   8.306  25.740   0.771
80505W        W45666   5.436   0.542   2.792
80506W        W45667  13.074  15.203  10.811
80507W        W45668  27.469  15.374   3.180
80508W        W45669  25.642  42.496  11.338
80509W        W45670  27.003  11.416   1.242
80510W        W45671  36.098  44.471  13.461
80511W        W45672  27.886  26.537   2.210
80512W        W45673  24.582  17.708   2.285
80513W        W45674  28.474   8.594   4.131
80514W        W45675  19.592  34.792   2.176
80515W        W45676  23.134   1.586   0.262
80516W        W45677  29.742  32.953   0.916
80517W        W45678  42.636   0.440   0.638
80518W        W45679  23.094  42.089   5.101
80519W        W45680   7.729  39.908   0.806
80520W        W45681  18.351   7.451   0.279
80521W        W45682  24.028   1.248  14.981
80522W        W45683  43.400  12.624  13.003
80523W        W45684  25.939   8.521   3.586
80524W        W45685  43.350   0.442  10.824
80525W        W45686  12.398  25.975   3.166
80526W        W45687  11.656  18.969  13.349
80527W        W45688  38.509  18.282   0.821
80528W        W45689  43.906   7.605   0.722
80529W        W45690  43.899  17.954  14.510
80530W        W45691   7.940  25.993   3.274
80531W        W45692  28.214  11.865   2.863
80532W        W45693   6.083   2.389  11.248
80533W        W45694   5.811   2.155  14.811
80534W        W45695  37.477  40.255  11.617
80535W        W45696  32.462  26.124  11.189
80536W        W45697  43.357  32.893  12.173
80537W        W45698  17.133  22.432   1.831
80538W        W45699   6.810  28.186   0.017
80539W        W45700  42.789  23.786  11.018
80540W        W45701  13.947  43.865  10.791
80541W        W45702  14.548  39.310  11.181
80542W        W45703  29.230  24.777   5.115
80543W        W45704  42.521   4.931   4.190
80544W        W45705  27.602  20.076   2.483
80545W        W45706   7.896  12.773  11.152
80546W        W45707  21.216  34.943  11.151
80547W        W45708  26.161  40.081  13.841
80548W        W45709  44.823  40.806  13.043
80549W        W45710  37.475  13.244   4.614
80550W        W45711  22.653  20.064   1.098
80551W        W45712  38.843  38.079  13.421
80552W        W45713  16.252   4.421   4.224
80553W        W45714   2.548  42.825  11.544
80554W        W45715  19.531   9.299  13.052
80555W        W45716  44.341  29.092  13.578
80556W        W45717   2.005  26.432   2.836
80557W        W45718  43.502  13.627  14.373
80558W        W45719  33.467  32.061  10.313
80559W        W45720  19.703   2.448   3.609
80560W        W45721  35.505  35.131  14.380
80561W        W45722  26.708  19.543   4.408
80562W        W45723  14.584  43.624  13.924
80563W        W45724   2.234   0.869  10.749
80564W        W45725  22.101  28.014  12.029
80565W        W45726  12.898  42.086  11.543
80566W        W45727  14.783  30.695  10.480
80567W        W45728  10.831   5.498  14.403
80568W        W45729  20.962  12.563   3.368
80569W        W45730   9.288  22.597   1.067
80570W        W45731  28.654  26.824  14.370
80571W        W45732  23.395  32.402   2.681
80572W        W45733  12.554  13.174   3.356
80573W        W45734  17.094  35.265  11.561
80574W        W45735  12.190   6.944  14.194
80575W        W45736   6.400  12.743   4.106
80576W        W45737  17.733   6.683   4.504
80577W        W45738   0.788  11.348   4.026
80578W        W45739  10.741  11.646  11.165
80579W        W45740   3.291  33.627  12.967
80580W        W45741  19.795  15.231  14.376
80581W        W45742  41.282  18.700   2.655
80582W        W45743  34.125  28.618   4.622
80583W        W45744   4.576   0.668  12.698
80584W        W45745  27.718  26.473   9.712
80585W        W45746   2.255   4.885   4.115
80586W        W45747  23.567   9.397   3.706
80587W        W45748  15.042  36.088  11.269
80588W        W45749  14.451  41.829  10.599
80589W        W45750  40.732   8.210   3.373
80590W        W45751   3.620   2.427  14.268
80591W        W45752  36.454  33.700  11.958
80592W        W45753   7.872  19.422   4.468
80593W        W45754  28.586   4.482   0.730
80594W        W45755  40.785  31.216  12.942
80595W        W45756   0.816  16.360  13.366
80596W        W45757  42.069   8.626  12.457
80597W        W45758  26.946   2.494   4.630
80598W        W45759  42.899   6.433  12.861
80599W        W45760  21.406  38.366   1.608
80600W        W45761  15.465  41.009  11.691
80601W        W45762  14.709  17.569  12.902
80602W        W45763  13.293   6.453  11.057
80603W        W45764   3.492  16.068  11.836
80604W        W45765   5.577   6.463  13.458
80605W        W45766  17.268  35.853   1.402
80606W        W45767  11.300  33.899   1.797
80607W        W45768  19.157  14.409  10.747
80608W        W45769  36.364  22.486   2.229
80609W        W45770  27.534   1.618   3.699
80610W        W45771  21.131  44.682  10.454
80611W        W45772  36.389   5.354  13.472
80612W        W45773   6.160  35.287   0.200
80613W        W45774  34.858  20.635  11.620
80614W        W45775  41.427  36.478   0.478
80615W        W45776  20.698  29.880   1.869
80616W        W45777  35.549  20.550  14.852
80617W        W45778  15.319  26.245   3.980
80618W        W45779  28.810   3.899   4.563
80619W        W45780  24.651  40.609   1.352
80620W        W45781  17.195  30.956  11.406
80621W        W45782  19.094  36.869   4.558
80622W        W45783  26.950  35.542   1.169
80623W        W45784  29.163  16.398  11.616
80624W        W45785   3.002  14.387   2.103
80625W        W45786  26.661   6.764  13.397
80626W        W45787  43.984  10.559   2.957
80627W        W45788   5.072  11.708   9.714
80628W        W45789   7.127   9.753  11.586
80629W        W45790  38.799  36.249   4.850
80630W        W45791  25.204   8.192   1.929
80631W        W45792  43.493  14.185   3.784
80632W        W45793  18.161  34.683  12.665
80633W        W45794   8.230  36.249   3.797
80634W        W45795  16.355   9.814  12.966
80635W        W45796   9.660  14.148  12.425
80636W        W45797  35.321  31.243  12.350
80637W        W45798  44.693  22.979   2.647
80638W        W45799   2.712  17.327   1.404
80639W        W45800  29.024  28.917   3.391
80640W        W45801  36.379  36.846   0.254
80641W        W45802  44.372  44.877   1.959
80642W        W45803  22.588  35.544  10.589
80643W        W45804   4.908  33.938  10.632
80644W        W45805   7.175  37.095   3.950
80645W        W45806  35.174  11.228   0.347
80646W        W45807  15.125   7.612   2.644
80647W        W45808  42.688  35.594  12.397
80648W        W45809  41.847  25.118   0.154
80649W        W45810  32.572  39.991   3.202
80650W        W45811   2.968  19.734   1.400
80651W        W45812  38.473   3.770  11.402
80652W        W45813  42.336  27.941   0.302
80653W        W45814  24.031   1.828   3.146
80654W        W45815  16.661  18.173  11.247
80655W        W45816  41.368  17.172  13.066
80656W        W45817  36.099  32.473   1.860
80657W        W45818  43.849   8.206  13.922
80658W        W45819  17.853  28.644  13.094
80659W        W45820  19.018  44.272  10.048
80660W        W45821  38.025  34.030  10.423
80661W        W45822  12.652  16.967   1.885
80662W        W45823  11.684  31.515   1.731
80663W        W45824  16.218  10.090   4.168
80664W        W45825  42.992   6.456  11.024
80665W        W45826  12.803  11.590   2.376
80666W        W45827  15.690  27.498   0.969
80667W        W45828  16.345  25.236   0.852
80668W        W45829  19.146  21.699  10.684
80669W        W45830  29.029  27.403  13.007
80670W        W45831  23.476  35.564  12.429
80671W        W45832  27.271  40.818   3.343
80672W        W45833  25.567  10.604  11.626
80673W        W45834  22.594  18.812   1.803
80674W        W45835   6.339  39.722  12.790
80675W        W45836  34.500  21.213  12.992
80676W        W45837  35.826  40.821   1.730
80677W        W45838  41.243  31.937  14.356
80678W        W45839  25.098  32.047   3.771
80679W        W45840  14.438  40.361   5.250
80680W        W45841   4.168  32.630  14.286
80681W        W45842  22.291   2.827  11.552
80682W        W45843  35.640   1.728   2.721
80683W        W45844  18.535  42.939  11.132
80684W        W45845  41.479  37.603   3.056
80685W        W45846  38.563  31.573   3.715
80686W        W45847  36.645  35.867   1.967
80687W        W45848  41.339  33.020   3.187
80688W        W45849  21.241  11.725   3.836
80689W        W45850   8.358  26.467   0.001
80690W        W45851  25.677   5.982   1.391
80691W        W45852  14.713  38.605   3.688
80692W        W45853  25.507   3.245  10.192
80693W        W45854   1.513  12.295   0.971
80694W        W45855  32.112   0.168  12.599
80695W        W45856  11.204  13.148   4.067
80696W        W45857  36.314  42.993   0.326
80697W        W45858  20.306  30.025   2.836
80698W        W45859  14.220  33.347   0.231
80699W        W45860  13.592   6.584   3.005
80700W        W45861  29.040  10.744  14.326
80701W        W45862  27.961  39.913   2.292
80702W        W45863   7.638  17.610   3.282
80703W        W45864  43.038   4.339   4.869
80704W        W45865  15.265  39.812  13.989
80705W        W45866  24.076  25.202   4.613
80706W        W45867  12.564  14.117  12.060
80707W        W45868  19.738  10.167  13.497
80708W        W45869  25.228  24.617  13.302
80709W        W45870   2.940  21.884  14.916
80710W        W45871   0.792  16.270   5.447
80711W        W45872  16.807  44.055   2.366
80712W        W45873  16.051   5.246  14.917
80713W        W45874  14.352  35.039   3.576
80714W        W45875  14.723  10.323  10.723
80715W        W45876  38.054  28.916  10.205
80716W        W45877  16.252  10.146  11.293
80717W        W45878  40.306  41.739  10.494
80718W        W45879  31.936  27.853  13.974
80719W        W45880  21.223  28.595  13.109
80720W        W45881  30.937  44.457  14.376
80721W        W45882  20.099  29.874   0.354
80722W        W45883  18.737   5.493   1.282
80723W        W45884  25.932  29.259  12.495
80724W        W45885  44.228  20.981   0.841
80725W        W45886  44.088  37.135  13.778
80726W        W45887   2.262  18.396  13.086
80727W        W45888  34.309  24.336  14.748
80728W        W45889  19.505  23.220  14.895
80729W        W45890  15.122  24.274  13.698
80730W        W45891   9.797  22.996  11.726
80731W        W45892  30.119   6.299  14.300
80732W        W45893  38.432   4.946   2.842
80733W        W45894  26.409  39.447  11.613
80734W        W45895   9.343   5.843   0.773
80735W        W45896  25.546  14.838  11.567
80736W        W45897  13.279   9.132   3.415
80737W        W45898   3.994  41.010   1.156
80738W        W45899   4.303  36.401  14.281
80739W        W45900  15.657  29.436   0.003
80740W        W45901  42.681  19.085  12.925
80741W        W45902  43.132   0.222  11.970
80742W        W45903  31.376   8.143   1.777
80743W        W45904   3.894  14.337  13.442
80744W        W45905  26.954  20.535   0.393
80745W        W45906  14.173  30.734  13.453
80746W        W45907  23.779   3.184  13.804
80747W        W45908  20.043  36.070  13.983
80748W        W45909   9.946  38.014   4.055
80749W        W45910  18.210  35.890  11.576
80750W        W45911  37.966  11.885   2.642
80751W        W45912   4.166   2.372  13.477
80752W        W45913  40.387  12.907  10.483
80753W        W45914  13.638   9.201   1.258
80754W        W45915   2.844   2.961   1.699
80755W        W45916  29.746  12.488  14.447
80756W        W45917   9.911   2.345   4.737
80757W        W45918  18.601  24.597   4.881
80758W        W45919   2.381  40.834  13.389
80759W        W45920  13.279  25.635   3.028
80760W        W45921   1.573  33.691   2.403
80761W        W45922  21.143  27.580   2.660
80762W        W45923  31.983  12.640   3.436
80763W        W45924   1.347   2.488  10.830
80764W        W45925   8.669   7.458   0.867
80765W        W45926  19.277  20.824  13.437
80766W        W45927  30.962  44.494  13.843
80767W        W45928  30.046  43.100  12.655
80768W        W45929  27.050  33.965   4.730
80769W        W45930  11.812  11.084   3.141
80770W        W45931  33.841  16.021   3.558
80771W        W45932  20.731  32.076  10.635
80772W        W45933  11.364  25.531  10.698
80773W        W45934  25.125  24.632   3.714
80774W        W45935  26.510  41.314   2.174
80775W        W45936  39.392   4.555  10.749
80776W        W45937   6.701  31.590  12.208
80777W        W45938  18.789   2.339   1.175
80778W        W45939  15.572  38.630   2.380
80779W        W45940  17.006   7.895  12.390
80780W        W45941  10.117  18.680   2.359
80781W        W45942  38.421  35.695  13.819
80782W        W45943  42.029  30.504   3.339
80783W        W45944  32.560   1.432   5.035
80784W        W45945  43.374  44.552   0.434
80785W        W45946  35.166   7.361  12.886
80786W        W45947  38.553  10.284   2.692
80787W        W45948  31.956  32.908   0.814
80788W        W45949  29.043  27.381   3.955
80789W        W45950  37.805   8.826   3.733
80790W        W45951   6.392  22.699  11.637
80791W        W45952  35.126   1.894  14.893
80792W        W45953  35.596  12.650   1.103
80793W        W45954   8.362   3.734   3.938
80794W        W45955  11.277  30.215   4.610
80795W        W45956   9.264  12.555  12.889
80796W        W45957  40.620  42.347   4.781
80797W        W45958  20.829  41.892   2.444
80798W        W45959  11.372  16.685   0.207
80799W        W45960  44.423  19.980   4.604
80800W        W45961   1.440  26.999   4.106
80801W        W45962  38.255   7.903  11.208
80802W        W45963  22.712  44.775   2.798
80803W        W45964  37.329   3.025  14.417
80804W        W45965  44.830  43.567   1.762
80805W        W45966  20.197   4.650   3.208
80806W        W45967  36.546  21.668   3.571
80807W        W45968  27.601  36.852  13.014
80808W        W45969  19.340  31.469   0.009
80809W        W45970   0.721  18.194   3.754
80810W        W45971   1.995  20.729  14.042
80811W        W45972  25.400  37.452   3.863
80812W        W45973  20.050  34.554   1.406
80813W        W45974  15.394   4.736  11.110
80814W        W45975   8.575  31.567   4.896
80815W        W45976  29.003   5.184   2.278
80816W        W45977  18.587  44.386  12.357
80817W        W45978  20.980  41.523  13.886
80818W        W45979  20.736  20.468   3.126
80819W        W45980  32.501  38.085   0.453
80820W        W45981  38.771  17.842  13.371
80821W        W45982  38.474  38.535  11.044
80822W        W45983  34.538  35.312   0.273
80823W        W45984  16.896   5.018   0.931
80824W        W45985  10.753  27.098  11.991
80825W        W45986  31.665  39.890  13.901
80826W        W45987  19.543   6.430  13.465
80827W        W45988  34.160  34.603  10.627
80828W        W45989  17.095   1.729   3.631
80829W        W45990   9.122   1.374  13.969
80830W        W45991   0.827  30.401  14.757
80831W        W45992  15.722   8.156  12.152
80832W        W45993  25.626  26.036  12.439
80833W        W45994   5.206  23.314  11.974
80834W        W45995  32.121  11.191  14.300
80835W        W45996  23.694  20.197  11.720
80836W        W45997  30.378  40.107   0.350
80837W        W45998   5.652  16.752   0.705
80838W        W45999   4.922  20.734   1.906
80839W        W46000  11.855  40.421   2.444
80840W        W46001  31.584   2.804   0.435
80841W        W46002  30.615  42.102  13.828
80842W        W46003  37.605  10.175   1.376
80843W        W46004  12.711  18.060  14.894
80844W        W46005  21.765   5.295  12.000
80845W        W46006   0.001  22.200   1.334
80846W        W46007  32.795  44.845   0.448
80847W        W46008  32.419  22.061  14.042
80848W        W46009  25.403  42.632  10.490
80849W        W46010  19.067  41.748  13.446
80850W        W46011   1.705  20.491   0.347
80851W        W46012  23.777  28.123  10.697
80852W        W46013  23.676  19.659   0.902
80853W        W46014  28.128  26.982   2.237
80854W        W46015  22.523  41.320   9.800
80855W        W46016  29.456  43.342   0.032
80856W        W46017  27.942   7.407   9.901
80857W        W46018  32.611   4.504   4.568
80858W        W46019  19.030  15.820   4.071
80859W        W46020  19.889  21.303  10.098
80860W        W46021  35.094  16.662   1.182
80861W        W46022  26.106  34.506  13.940
80862W        W46023  31.626  32.989   1.268
80863W        W46024  20.215   9.640  13.297
80864W        W46025  42.069  29.454   3.674
80865W        W46026  27.938  34.027   4.627
80866W        W46027   4.012  16.920   0.712
80867W        W46028  27.664   8.434  12.043
80868W        W46029  22.997  43.823   2.770
80869W        W46030  14.363  35.402   2.410
80870W        W46031  28.424  37.721   3.090
80871W        W46032   5.410  16.835  12.991
80872W        W46033  27.296  12.326  13.083
80873W        W46034   4.792   1.724  13.516
80874W        W46035  30.624  16.816   3.951
80875W        W46036  38.561  43.386   1.313
80876W        W46037  35.399  31.348   0.458
80877W        W46038   8.550  23.146  13.350
80878W        W46039  32.634  41.585  12.486
80879W        W46040   1.891   2.002  11.196
80880W        W46041  17.280  32.417   3.819
80881W        W46042   9.156  11.409   1.904
80882W        W46043  12.692  11.869  12.051
80883W        W46044   9.440  13.788   0.846
80884W        W46045   6.166  14.312  13.809
80885W        W46046  10.188  28.202   4.774
80886W        W46047   6.118  30.867  14.736
80887W        W46048  19.983  26.464  11.665
80888W        W46049  44.823  41.919   4.573
80889W        W46050  36.109  14.697   5.083
80890W        W46051  41.983  26.497  12.599
80891W        W46052   6.227   8.374   4.160
80892W        W46053  33.574  35.640  10.590
80893W        W46054  17.063  22.735  12.049
80894W        W46055  44.262  38.344   2.224
80895W        W46056  36.311   3.578  13.066
80896W        W46057   3.474  44.040  13.666
80897W        W46058  11.848   9.592  13.516
80898W        W46059  27.100  41.967  13.297
80899W        W46060  20.168  17.230  12.562
80900W        W46061  31.952   1.329   2.294
80901W        W46062  27.934  24.783   4.806
80902W        W46063  24.102  18.276  14.055
80903W        W46064   4.937   6.853   2.792
80904W        W46065  21.732   7.786   1.750
80905W        W46066  32.464  38.761   3.386
80906W        W46067  17.366   7.176   3.736
80907W        W46068  31.978   4.880   4.219
80908W        W46069  43.753  44.424  11.495
80909W        W46070  27.458   6.825  10.892
80910W        W46071  23.202   2.542  13.012
80911W        W46072  22.811  20.607  14.495
80912W        W46073  12.681  14.283   1.392
80913W        W46074  34.322   7.682  11.592
80914W        W46075   9.258  33.466   2.361
80915W        W46076   6.973  22.995   2.830
80916W        W46077  34.601  34.205  11.991
80917W        W46078  40.083  39.829   0.889
80918W        W46079   8.891  13.025  14.794
80919W        W46080  21.592  13.973  14.480
80920W        W46081  43.663  30.210   2.475
80921W        W46082  15.610  27.565  14.044
80922W        W46083   7.819  42.533   3.714
80923W        W46084   7.401   7.842  11.332
80924W        W46085   3.457  38.305   0.962
80925W        W46086  14.314  33.385   4.099
80926W        W46087  11.868   2.410   1.917
80927W        W46088  17.801   3.067   2.182
80928W        W46089  37.292  15.438   0.445
80929W        W46090  22.107  25.911  11.208
80930W        W46091  25.018  30.364   0.756
80931W        W46092  42.403  15.353   1.958
80932W        W46093  19.884  19.637  12.187
80933W        W46094  33.906  19.102   2.784
80934W        W46095   9.072  22.275   3.050
80935W        W46096  26.704   7.878   3.581
80936W        W46097  30.647  28.731   0.417
80937W        W46098  18.850  20.159   2.810
80938W        W46099  38.386  26.439  14.218
80939W        W46100  26.302  20.202   2.713
80940W        W46101  21.728  37.987   3.707
80941W        W46102  30.089  11.547   4.507
80942W        W46103  21.575  27.961   2.865
80943W        W46104   2.785   4.270   1.979
80944W        W46105  24.457   3.929  11.113
80945W        W46106  23.344  30.797  12.455
80946W        W46107  20.610  21.156   1.134
80947W        W46108  18.273  29.984  10.372
80948W        W46109  13.261  39.858  14.480
80949W        W46110  40.039   9.250   0.036
80950W        W46111  10.897   3.080   0.280
80951W        W46112  14.593  44.291  10.747
80952W        W46113  15.693  36.646  11.520
80953W        W46114  38.974  10.737   1.331
80954W        W46115   5.452  12.759   0.656
80955W        W46116   9.336  30.410  10.451
80956W        W46117   6.012  37.869   4.886
80957W        W46118  18.739  44.042  10.459
80958W        W46119  15.846  43.328  14.342
80959W        W46120  41.355  28.044  12.691
80960W        W46121  40.361  44.469   3.594
80961W        W46122  14.793  32.557  12.718
80962W        W46123  27.092  18.860  10.770
80963W        W46124   1.508  30.678   2.795
80964W        W46125  18.624   5.194   4.454
80965W        W46126  41.848  32.140   0.748
80966W        W46127  41.799  24.972  13.383
80967W        W46128  38.869  13.597   3.382
80968W        W46129   5.912   3.482   2.260
80969W        W46130  21.149  18.501   3.817
80970W        W46131  12.590  41.697  11.716
80971W        W46132  13.362  43.250   2.737
80972W        W46133  43.945  20.169  12.546
80973W        W46134  18.134  28.502  10.673
80974W        W46135  19.114  11.815  12.638
80975W        W46136  38.598   0.472   2.960
80976W        W46137  29.195  43.817   3.103
80977W        W46138  12.787  34.678   4.887
80978W        W46139  10.263  20.539  14.315
80979W        W46140  24.645  14.791  11.378
80980W        W46141  35.517  38.622  13.592
80981W        W46142  29.532  18.807   1.254
80982W        W46143  14.745  28.712   4.188
80983W        W46144  21.999  12.806   3.303
80984W        W46145   3.567   9.699   3.858
80985W        W46146  44.854  44.288   2.378
80986W        W46147  24.585  26.193   1.709
80987W        W46148  34.567  36.357   5.228
80988W        W46149  23.835   3.037   1.982
80989W        W46150   5.923  22.124   0.459
80990W        W46151  30.540   0.515  13.585
80991W        W46152  29.131  36.278  11.600
80992W        W46153  38.348  22.605  11.171
80993W        W46154  22.221  21.188   4.096
80994W        W46155  21.772  41.907  12.829
80995W        W46156  33.251  10.208   4.065
80996W        W46157  30.596  17.438  11.173
80997W        W46158   9.286  16.806  11.344
80998W        W46159  25.277  38.911  13.059
80999W        W46160  18.751  42.091   1.280
81000W        W46161  26.718  33.540   2.244
81001W        W46162  22.559  20.089   4.621
81002W        W46163   9.588   2.212  11.199
81003W        W46164   3.187  20.714   4.281
81004W        W46165  11.833  29.454   2.833
81005W        W46166  16.341   9.273  11.582
81006W        W46167  30.871   4.788  14.328
81007W        W46168   9.874   9.137   2.217
81008W        W46169  19.919  27.367   3.976
81009W        W46170  27.898  20.940   2.132
81010W        W46171  37.509  17.011  13.485
81011W        W46172  25.557   8.822   4.914
81012W        W46173  20.726   2.151  11.974
81013W        W46174  10.846  30.485  14.387
81014W        W46175  28.259   3.149   5.017
81015W        W46176  43.044  26.102   0.760
81016W        W46177  41.371   4.460   2.781
81017W        W46178  19.528  14.460   3.272
81018W        W46179  38.505  38.773  12.041
81019W        W46180  21.461  25.630   0.976
81020W        W46181   3.434  18.306   3.607
81021W        W46182   5.133  41.312  12.111
81022W        W46183  22.656   6.379  11.948
81023W        W46184  38.534  20.785   0.269
81024W        W46185  20.718  44.887   0.557
81025W        W46186  20.502   6.630   2.346
81026W        W46187  19.641  44.860   0.475
81027W        W46188  35.891  16.988  12.396
81028W        W46189  33.979   1.741  13.493
81029W        W46190   2.179  36.505  10.720
81030W        W46191   7.534   5.762   2.589
81031W        W46192  40.932   1.949   1.198
81032W        W46193  11.148  25.591  14.892
81033W        W46194  42.371  14.741  14.911
81034W        W46195  21.741  18.523  11.250
81035W        W46196  15.568  23.036   0.347
81036W        W46197  23.609  25.162  13.517
81037W        W46198  43.190  27.590   1.293
81038W        W46199  44.763  18.554  13.527
81039W        W46200  18.591  10.529   1.317
81040W        W46201  17.881  12.150   4.395
81041W        W46202   2.718  25.072  10.899
81042W        W46203  35.402  31.394  12.879
81043W        W46204  22.198  28.877   3.123
81044W        W46205  21.075  28.578  14.034
81045W        W46206   5.451  13.359  11.681
81046W        W46207  42.061  14.549  13.288
81047W        W46208  24.399  35.988  13.606
81048W        W46209  28.033  32.603   0.743
81049W        W46210   4.805  22.546  13.047
81050W        W46211   2.915  22.023   0.423
81051W        W46212  18.271  26.240  11.993
81052W        W46213  28.945  36.328   2.318
81053W        W46214  14.836  19.033   3.715
81054W        W46215   0.480  42.376   0.610
81055W        W46216  10.667  29.097  13.416
81056W        W46217   7.261  33.613  14.900
81057W        W46218  12.739  43.816   2.763
81058W        W46219  21.566  27.923  13.100
81059W        W46220  31.190  36.401   0.676
81060W        W46221  35.734  16.351   3.714
81061W        W46222  42.060  18.197   0.698
81062W        W46223  25.440   5.792   1.856
81063W        W46224  35.837  17.051   2.365
81064W        W46225  41.577  26.297  11.817
81065W        W46226  32.240  18.104   2.856
81066W        W46227   8.190   3.465   2.947
81067W        W46228  39.980  14.713   4.243
81068W        W46229  36.468  16.217  10.793
81069W        W46230   5.988  38.809   4.593
81070W        W46231  22.659  35.469   4.058
81071W        W46232  27.038  42.060   1.111
81072W        W46233  29.608   3.946   1.261
81073W        W46234  22.194  17.244   4.661
81074W        W46235  39.217  20.051   3.561
81075W        W46236  18.959  22.318  14.863
81076W        W46237  24.532  44.773   1.634
81077W        W46238  12.630   3.904   3.792
81078W        W46239  36.115  15.154   1.242
81079W        W46240  23.497  25.719   1.796
81080W        W46241  29.913  41.425   1.892
81081W        W46242  20.997   9.898   0.773
81082W        W46243  34.565  26.642   1.431
81083W        W46244  20.244  42.332   4.512
81084W        W46245  19.845   7.963  11.963
81085W        W46246  41.764  28.148  14.446
81086W        W46247  28.743   2.223  12.108
81087W        W46248  44.414  38.340  13.879
81088W        W46249  26.886  20.141  13.341
81089W        W46250  29.866  29.507   3.241
81090W        W46251  40.652  24.700   3.096
81091W        W46252  11.379   6.870   0.830
81092W        W46253   1.132  24.597   4.471
81093W        W46254  26.712  28.082   3.795
81094W        W46255  13.673  34.501  13.624
81095W        W46256  41.774  44.377  10.506
81096W        W46257  13.198   3.308  13.725
81097W        W46258  11.773  37.825  13.858
81098W        W46259   9.468   1.815  12.541
81099W        W46260  34.590  25.451  12.843
81100W        W46261   0.417  38.534   0.809
81101W        W46262  16.729  44.271  11.131
81102W        W46263  32.883  36.293   5.507
81103W        W46264  35.442  28.222   1.915
81104W        W46265  14.832  23.251   2.384
81105W        W46266  10.532  16.181   0.960
81106W        W46267  27.892   8.351  12.873
81107W        W46268  13.890  10.047   0.856
81108W        W46269  10.321   3.824  12.615
81109W        W46270  31.130   0.907   9.929
81110W        W46271  34.928  36.504  11.205
81111W        W46272   6.267  20.933  12.446
81112W        W46273   0.262  18.370   3.677
81113W        W46274  34.015  24.568   4.542
81114W        W46275  39.987  30.413   2.759
81115W        W46276  25.810  37.854  13.905
81116W        W46277  32.621   5.910  10.735
81117W        W46278   9.090  18.766  12.964
81118W        W46279  35.037  28.494   3.233
81119W        W46280   2.354  17.310   1.905
81120W        W46281   5.656  41.098  12.584
81121W        W46282   5.890  33.146   3.241
81122W        W46283  18.915  14.719  11.053
81123W        W46284  37.636  15.078   0.227
81124W        W46285  15.411  43.300  14.611
81125W        W46286  43.919  21.625  12.396
81126W        W46287  11.150  39.817   3.867
81127W        W46288  32.565  10.860  13.861
81128W        W46289  35.211  25.919   4.689
81129W        W46290  20.801   0.742   0.813
81130W        W46291  28.068  22.307  14.386
81131W        W46292   8.220  39.771  13.958
81132W        W46293   6.190  29.279   4.058
81133W        W46294  16.800  24.269   2.365
81134W        W46295  16.935   1.800  12.097
81135W        W46296  26.194  33.139  10.653
81136W        W46297   2.189  29.476   3.237
81137W        W46298  14.267  22.127   2.280
81138W        W46299   6.551  11.785   0.268
81139W        W46300  37.412   7.985  12.442
81140W        W46301  43.633  32.949   4.541
81141W        W46302   3.997   4.190  12.696
81142W        W46303  27.040  29.895   1.171
81143W        W46304  13.363  29.993   2.310
81144W        W46305  43.583  10.217  11.518
81145W        W46306  36.569  31.368   3.852
81146W        W46307  28.158  33.905  11.459
81147W        W46308   3.813  25.463  13.062
81148W        W46309   1.574   8.140   4.385
81149W        W46310  20.970  14.187  12.861
81150W        W46311  27.972  25.039  11.421
81151W        W46312  40.792   7.904   4.749
81152W        W46313  44.562  31.699   4.631
81153W        W46314  13.199  30.547   3.247
81154W        W46315  27.247  44.286  12.642
81155W        W46316   3.869  38.585  10.390
81156W        W46317  37.456   8.853   4.142
81157W        W46318  39.377  23.655  11.475
81158W        W46319  39.238  24.536  10.656
81159W        W46320  16.078  15.077  10.906
81160W        W46321  10.206  19.772  14.791
81161W        W46322   4.201  22.064  11.886
81162W        W46323  16.124   8.427   0.416
81163W        W46324  36.307  14.875   3.422
81164W        W46325  13.385  19.573  11.173
81165W        W46326   0.698   3.896   4.581
81166W        W46327  37.921  15.780  12.375
81167W        W46328  42.944  40.373   4.541
81168W        W46329  14.133  29.926  11.517
81169W        W46330  42.712  36.341  12.648
81170W        W46331  29.050  26.899  13.112
81171W        W46332  29.101  11.795  13.057
81172W        W46333  11.873  35.410  10.490
81173W        W46334  23.618  10.628  14.624
81174W        W46335  12.700  14.850   0.061
81175W        W46336  27.584  10.946   0.724
81176W        W46337   2.472  14.182   2.832
81177W        W46338  36.861  25.402  13.002
81178W        W46339  18.217  40.489   0.927
81179W        W46340  36.487  30.613   0.994
81180W        W46341   7.957   9.547   3.398
81181W        W46342  44.978  41.407   0.723
81182W        W46343  19.612  42.976   1.733
81183W        W46344  17.568  10.326   3.824
81184W        W46345  18.243  14.703  12.520
81185W        W46346  17.133  35.079  14.530
81186W        W46347  44.429  42.875  11.391
81187W        W46348  44.791  38.109   5.495
81188W        W46349  29.532   1.363   4.637
81189W        W46350   1.736   6.242  13.253
81190W        W46351  34.006  11.728   1.921
81191W        W46352  29.407  20.307  10.798
81192W        W46353  18.731   9.681   1.862
81193W        W46354  28.760   8.756  12.455
81194W        W46355  43.245  44.324   4.748
81195W        W46356   9.654  10.701   3.569
81196W        W46357  12.061  12.116   0.061
81197W        W46358  38.774   8.185  13.898
81198W        W46359  36.244   8.913  12.878
81199W        W46360   5.253  14.147   2.816
81200W        W46361  37.685  40.409  12.091
81201W        W46362   6.454  34.481  10.359
81202W        W46363  22.501   8.368  14.762
81203W        W46364  17.010  38.546  10.990
81204W        W46365  21.718   4.546   2.062
81205W        W46366  38.263   3.288  10.676
81206W        W46367  43.392  10.807  10.687
81207W        W46368  44.825  10.586  12.428
81208W        W46369  27.994  35.238   5.057
81209W        W46370  26.648  38.320  14.972
81210W        W46371  20.910  33.886  14.008
81211W        W46372   4.220  15.580  12.481
81212W        W46373  34.138  21.488  14.682
81213W        W46374  42.990  40.244   2.906
81214W        W46375  44.810  34.005  12.992
81215W        W46376  43.754  28.908  12.450
81216W        W46377  16.407  34.300   2.215
81217W        W46378   0.750  18.503  12.442
81218W        W46379  26.347  19.388  10.935
81219W        W46380  17.329  42.756  14.172
81220W        W46381  40.573  26.514  14.166
81221W        W46382  15.359  37.975  13.898
81222W        W46383  19.274  14.806  12.891
81223W        W46384   2.835  37.860   4.976
81224W        W46385   5.105  30.396   4.495
81225W        W46386  30.955  31.535  13.233
81226W        W46387  20.392  25.692  10.265
81227W        W46388  15.939  24.481   3.268
81228W        W46389  20.411   7.028  12.382
81229W        W46390  27.142  27.556   0.732
81230W        W46391  21.567  28.354  11.018
81231W        W46392  10.667  29.010   3.181
81232W        W46393  41.551   6.894   4.069
81233W        W46394  16.342  17.018  11.558
81234W        W46395   9.344  25.006  11.010
81235W        W46396  21.230  39.996   0.181
81236W        W46397  23.142  26.505   4.219
81237W        W46398  19.457  31.006   0.807
81238W        W46399  15.280   4.311  14.433
81239W        W46400  29.649   1.507   1.535
81240W        W46401  37.593   9.555   1.931
81241W        W46402  19.675  22.946  13.830
81242W        W46403  17.632  20.992   0.434
81243W        W46404  42.841  29.131  10.789
81244W        W46405  23.586   6.823  11.508
81245W        W46406  14.568  19.212  10.845
81246W        W46407  17.712  15.566  11.242
81247W        W46408  10.277  25.384   5.080
81248W        W46409  26.055  33.231  11.544
81249W        W46410   4.444  10.738  12.025
81250W        W46411   9.809  34.634   2.148
81251W        W46412  26.647  11.300   2.657
81252W        W46413  15.780  14.715  13.948
81253W        W46414  13.637  16.578  14.731
81254W        W46415  15.630  14.361   1.392
81255W        W46416  19.814  15.098  12.588
81256W        W46417  34.382   5.501   3.288
81257W        W46418  26.166  42.039   4.544
81258W        W46419   5.342  16.177  14.308
81259W        W46420  37.899  43.657  11.874
81260W        W46421  41.684   4.133  12.547
81261W        W46422  30.544  15.395   2.369
81262W        W46423  11.405  24.190  11.282
81263W        W46424  27.204   7.553   4.723
81264W        W46425   3.461  42.896  12.497
81265W        W46426  33.471  23.441   3.720
81266W        W46427   2.004  30.510  12.160
81267W        W46428   3.784  16.043   2.788
81268W        W46429  10.328   8.608  13.083
81269W        W46430  16.331  14.371  12.430
81270W        W46431  23.314   8.787  11.190
81271W        W46432  34.919  12.189  14.742
81272W        W46433  38.315   0.147  10.644
81273W        W46434   2.456  13.289   2.734
81274W        W46435  42.744  12.411   4.538
81275W        W46436  27.417  42.787   4.874
81276W        W46437   2.762  36.973   1.098
81277W        W46438   4.004  40.241   4.870
81278W        W46439  21.846  26.317   4.379
81279W        W46440  29.604   1.974   1.304
81280W        W46441   9.487   8.869   3.494
81281W        W46442   5.032  38.395  11.190
81282W        W46443   2.073  11.344  13.138
81283W        W46444  22.141  18.899   0.020
81284W        W46445  21.772  16.771   5.143
81285W        W46446  41.911  40.536   1.175
81286W        W46447  17.851  19.464  13.644
81287W        W46448   6.795  12.656  14.401
81288W        W46449  28.936   3.646   4.136
81289W        W46450   8.444  33.976   4.120
81290W        W46451  33.866  27.487  12.557
81291W        W46452   7.699  32.520   3.953
81292W        W46453  23.708  26.645   3.159
81293W        W46454  42.441   1.537  12.358
81294W        W46455  31.595  15.335   1.841
81295W        W46456  34.431  33.911   2.140
81296W        W46457  13.128   4.434  10.773
81297W        W46458  31.174  42.929  13.437
81298W        W46459  32.610   8.306  11.648
81299W        W46460  42.087  32.615  12.984
81300W        W46461  36.051  38.220  14.036
81301W        W46462  28.456  42.508  10.441
81302W        W46463  38.127  29.570  13.897
81303W        W46464  16.744   4.329  13.490
81304W        W46465   9.090   1.555   2.329
81305W        W46466  36.861   7.536   2.243
81306W        W46467  12.648  26.148   2.349
81307W        W46468   4.721  36.861  14.977
81308W        W46469  24.790  34.693  10.595
81309W        W46470  36.296  14.540   3.782
81310W        W46471   6.172  36.132   2.179
81311W        W46472  29.695  38.452  10.947
81312W        W46473  34.117  12.374   4.475
81313W        W46474  36.667   5.364   2.811
81314W        W46475  37.685  22.159   2.393
81315W        W46476  26.612   7.601   2.584
81316W        W46477  18.134  21.783   3.194
81317W        W46478  11.707  24.433  14.094
81318W        W46479  22.182  14.826  13.096
81319W        W46480  42.810  30.045  11.067
81320W        W46481  44.056  42.090   1.612
81321W        W46482   5.142  38.113   0.544
81322W        W46483   6.680  20.033  11.672
81323W        W46484  19.815  38.315  12.101
81324W        W46485  26.251  42.202   0.417
81325W        W46486  28.725  30.686  12.728
81326W        W46487   0.220  28.846  13.133
81327W        W46488  13.698  25.360  13.578
81328W        W46489  30.415  11.345  13.547
81329W        W46490  23.793  36.034   4.134
81330W        W46491   3.443   3.197   5.189
81331W        W46492  23.979  42.822   2.812
81332W        W46493  20.132  27.693  11.064
81333W        W46494   5.550  17.396  11.173
81334W        W46495  42.500   9.289   2.475
81335W        W46496  23.786  16.304   3.667
81336W        W46497  35.916  12.861   3.818
81337W        W46498  17.300   6.784   1.291
81338W        W46499   0.327  42.239  12.090
81339W        W46500  14.839  22.695  12.183
81340W        W46501  29.529  10.269   4.588
81341W        W46502  31.903  10.205   3.491
81342W        W46503  25.114  27.786   3.163
81343W        W46504  38.028  15.246  12.060
81344W        W46505   3.717  16.054   3.671
81345W        W46506   4.707  33.371   1.952
81346W        W46507  20.715  11.332  12.093
81347W        W46508  14.147  23.905  11.404
81348W        W46509  13.291  31.746   2.594
81349W        W46510  43.291  20.265   0.320
81350W        W46511   1.240  14.608   4.398
81351W        W46512  25.634   7.136  13.258
81352W        W46513  39.355  44.874   2.352
81353W        W46514  16.703   6.895   3.542
81354W        W46515  35.375   7.456   3.272
81355W        W46516  16.722   0.077   3.224
81356W        W46517  28.203  32.059  10.409
81357W        W46518  11.862  13.292   2.485
81358W        W46519  43.950   4.922   2.240
81359W        W46520   4.469  31.292  11.404
81360W        W46521  27.048   5.425   3.686
81361W        W46522  43.741  36.530   2.784
81362W        W46523   0.624  11.499   1.477
81363W        W46524   5.085  38.668  13.377
81364W        W46525  34.382  15.704   2.700
81365W        W46526  36.366  41.967   1.308
81366W        W46527  21.534  16.219  14.964
81367W        W46528  36.011  39.305   3.124
81368W        W46529  19.753  24.630  13.350
81369W        W46530  27.181   9.816   4.111
81370W        W46531   1.860   6.770   2.684
81371W        W46532  24.584  32.928   4.047
81372W        W46533  26.601  12.081   1.878
81373W        W46534   1.072  11.649  10.710
81374W        W46535  44.456  10.342  10.982
81375W        W46536  22.706  24.685   9.854
81376W        W46537  12.817  15.233  14.018
81377W        W46538   4.565  44.375   2.222
81378W        W46539  43.960  17.386  11.836
81379W        W46540  15.845  44.865  11.419
81380W        W46541  26.234  11.165   1.220
81381W        W46542  43.555  26.477   1.346
81382W        W46543   6.524   8.019  11.229
81383W        W46544   1.938   9.237  13.819
81384W        W46545  22.729  28.562   2.359
81385W        W46546  19.545   6.872  11.537
81386W        W46547  13.254  15.241   0.872
81387W        W46548   0.222  26.047   1.903
81388W        W46549  29.213  37.601   4.950
81389W        W46550   7.858  42.026   3.651
81390W        W46551   9.124  24.627   1.160
81391W        W46552  20.310  11.741   3.098
81392W        W46553  19.895  10.217  11.996
81393W        W46554  40.682   2.934   2.147
81394W        W46555  32.208  24.553   1.016
81395W        W46556  11.834  30.223  14.952
81396W        W46557  20.185  32.991  11.666
81397W        W46558  10.742  44.850  13.127
81398W        W46559   9.076  11.299   4.603
81399W        W46560  30.431   6.868   0.889
81400W        W46561   8.220  15.186  11.890
81401W        W46562  39.754  17.989  14.406
81402W        W46563   1.950  18.949   0.367
81403W        W46564  33.497  37.468   5.015
81404W        W46565  11.164  16.083  14.484
81405W        W46566   0.923  20.058  14.793
81406W        W46567  35.603  12.825  11.581
81407W        W46568  20.092   6.004  14.881
81408W        W46569   3.420  23.143  12.419
81409W        W46570  35.114   7.940  14.878
81410W        W46571   4.164  43.569   2.857
81411W        W46572  42.730   5.957  10.989
81412W        W46573  32.913   6.776   2.873
81413W        W46574  12.655  44.057  12.994
81414W        W46575  16.722  40.395   3.686
81415W        W46576  38.273   5.225  12.865
81416W        W46577  20.560  41.619   0.126
81417W        W46578  20.572  32.373  13.450
81418W        W46579  32.077   7.166  12.672
81419W        W46580  27.448  28.739   0.376
81420W        W46581  18.964  20.412   1.130
81421W        W46582  17.290  35.168   0.883
81422W        W46583  12.253  35.051  14.288
81423W        W46584  30.651  15.566   3.331
81424W        W46585  31.809  13.854  14.394
81425W        W46586  17.356  24.056  14.348
81426W        W46587  21.144  24.612  11.507
81427W        W46588  18.742  28.294  11.627
81428W        W46589  12.226  28.504   2.273
81429W        W46590  16.093  31.377  14.272
81430W        W46591   0.001  16.163  13.984
81431W        W46592  34.279  19.528   0.840
81432W        W46593  20.549  18.181  13.926
81433W        W46594  34.136  34.528   3.625
81434W        W46595  14.710  42.408  14.063
81435W        W46596   9.295  29.175  14.407
81436W        W46597  42.295  10.637  12.000
81437W        W46598  17.129  16.770  12.147
81438W        W46599   8.379  27.591  14.239
81439W        W46600  42.747  11.744  12.406
81440W        W46601  10.827  44.902   1.332
81441W        W46602   6.813  26.423   1.659
81442W        W46603  35.516  10.313  11.064
81443W        W46604   5.420  29.137   2.952
81444W        W46605   1.829  36.929  10.670
81445W        W46606  23.841  38.596   3.649
81446W        W46607   5.285  43.866  14.299
81447W        W46608  41.874   8.127   0.333
81448W        W46609  25.780  29.050   2.763
81449W        W46610  35.155   0.022   3.254
81450W        W46611  41.379  31.898   0.617
81451W        W46612   6.276   2.412  10.784
81452W        W46613   5.225   0.026   1.822
81453W        W46614  31.539  20.580  10.694
81454W        W46615  41.410  40.455   3.636
81455W        W46616  18.562   3.956  14.280
81456W        W46617  44.424   6.888  14.460
81457W        W46618   9.337  12.086  13.426
81458W        W46619  39.464  32.930  14.777
81459W        W46620   2.201  18.201  10.456
81460W        W46621  25.489  24.903  11.642
81461W        W46622  43.253  36.394  14.501
81462W        W46623  20.766  37.770   2.619
81463W        W46624   1.377  38.423  11.732
81464W        W46625   6.153  33.584  11.171
81465W        W46626   1.824  42.551  12.032
81466W        W46627   7.717  14.633  14.425
81467W        W46628   2.779  37.248  12.071
81468W        W46629  39.096  21.055   1.781
81469W        W46630  12.372   6.150   2.779
81470W        W46631  38.412  15.870  14.094
81471W        W46632   8.631  10.582   3.673
81472W        W46633  40.807  12.822   1.423
81473W        W46634  28.676  32.581  13.917
81474W        W46635  14.583  24.638   2.111
81475W        W46636  26.427   8.459  12.411
81476W        W46637  30.001  26.875   0.355
81477W        W46638  28.763  18.397   2.731
81478W        W46639  27.025  24.531  12.489
81479W        W46640   9.748  34.177   2.378
81480W        W46641  11.458  35.456  14.588
81481W        W46642  23.990  24.017   1.753
81482W        W46643  11.300  39.983  11.828
81483W        W46644  10.662   8.966   2.829
81484W        W46645   5.944  41.082   1.376
81485W        W46646  20.431   2.017   1.878
81486W        W46647  19.033  32.068   3.734
81487W        W46648  14.234  38.378   3.675
81488W        W46649  33.438  16.750   2.939
81489W        W46650  13.546  16.606  12.978
81490W        W46651  29.624  41.312  11.111
81491W        W46652  28.358  21.648   2.142
81492W        W46653  23.551  29.207  13.612
81493W        W46654  25.003   7.760  12.119
81494W        W46655  35.589   0.129   4.525
81495W        W46656  21.697   5.955   4.552
81496W        W46657  26.811  35.912  13.867
81497W        W46658  34.812   8.632   0.931
81498W        W46659  28.453  24.140  14.843
81499W        W46660  27.444  30.130  11.124
81500W        W46661  34.559  36.889   2.144
81501W        W46662  16.175  20.640  14.453
81502W        W46663  14.621  17.126  14.020
81503W        W46664  35.789  38.395  11.853
81504W        W46665  27.154  17.050  12.094
81505W        W46666   0.612  16.650  11.913
81506W        W46667  37.859   1.790  10.648
81507W        W46668  17.744  10.892   2.628
81508W        W46669   0.241  10.755  11.093
81509W        W46670  22.520  40.454   1.371
81510W        W46671  17.711  22.194  10.802
81511W        W46672  29.629   0.946   1.770
81512W        W46673  30.104  11.022   4.537
81513W        W46674  43.967  23.220   0.037
81514W        W46675  20.279  37.587   2.402
81515W        W46676  38.363  32.560   0.347
81516W        W46677  23.128  15.618  10.781
81517W        W46678  11.652   7.224   3.828
81518W        W46679  15.518  20.666  11.180
81519W        W46680  32.921   6.354   2.572
81520W        W46681  22.029  33.501  12.078
81521W        W46682  38.843  16.845  13.345
81522W        W46683  36.359  27.074  13.527
81523W        W46684   3.285  22.409   2.707
81524W        W46685  12.775  28.904   2.627
81525W        W46686  31.157   7.137   0.809
81526W        W46687  27.433   1.568  10.665
81527W        W46688  21.228  25.771   3.209
81528W        W46689  43.292  15.327   4.494
81529W        W46690  30.881  23.437  12.629
81530W        W46691  19.205   7.170  13.156
81531W        W46692  11.145  44.518   1.287
81532W        W46693  26.986  39.370  14.384
81533W        W46694  15.552  16.083   9.876
81534W        W46695   9.366  41.245   0.481
81535W        W46696   6.223  27.039   1.554
81536W        W46697  17.053  31.398   1.315
81537W        W46698  44.928  30.684   0.807
81538W        W46699  41.057  33.741  14.279
81539W        W46700  36.093  16.521  13.415
81540W        W46701  43.770  25.146   2.927
81541W        W46702  14.959  42.729   2.727
81542W        W46703  34.991  22.069   3.303
81543W        W46704  25.791  24.112   2.331
81544W        W46705   7.471  28.712  11.274
81545W        W46706  13.756  16.547  13.843
81546W        W46707  34.402  30.686   2.191
81547W        W46708   4.610  31.582   0.359
81548W        W46709  32.072  42.857  10.228
81549W        W46710  32.103  26.098  13.566
81550W        W46711   5.729  28.385   2.372
81551W        W46712  31.455  25.559   2.223
81552W        W46713   2.709  14.606   3.630
81553W        W46714  15.835  43.414   5.095
81554W        W46715  35.221  15.781  13.072
81555W        W46716   9.183  43.681   0.136
81556W        W46717  32.435   0.837  14.211
81557W        W46718   4.878   0.791   3.641
81558W        W46719  44.866  35.795  14.993
81559W        W46720   0.249  25.248   3.231
81560W        W46721  21.593  26.992   2.753
81561W        W46722  13.272  38.933  12.848
81562W        W46723  19.348  14.877   9.837
81563W        W46724  29.453  27.062   3.118
81564W        W46725   2.761  43.398   1.752
81565W        W46726  37.334  40.076   4.766
81566W        W46727  43.357  22.996  11.159
81567W        W46728  15.345  14.656   0.685
81568W        W46729  43.340  16.217  10.584
81569W        W46730   8.949  32.035   2.113
81570W        W46731   8.356   1.558  12.079
81571W        W46732  35.134   6.975  12.517
81572W        W46733  37.385  32.912   0.469
81573W        W46734  10.633  31.450  12.526
81574W        W46735   3.608   8.192   2.836
81575W        W46736  38.837  26.258   2.806
81576W        W46737  43.246  38.078  14.714
81577W        W46738   4.146   5.930  14.807
81578W        W46739  36.464  35.732   3.364
81579W        W46740  38.174   1.653   2.827
81580W        W46741  13.513  32.864   0.683
81581W        W46742  44.482  27.842  11.700
81582W        W46743  15.115  22.921   1.805
81583W        W46744  18.182  26.437  10.719
81584W        W46745  17.769   8.762  14.018
81585W        W46746  38.060  13.214  13.105
81586W        W46747   3.787  31.705   2.532
81587W        W46748  42.027  14.862   3.207
81588W        W46749   1.405   3.891   3.883
81589W        W46750   3.761  37.524   9.765
81590W        W46751  25.227  34.028  13.833
81591W        W46752   0.306  15.700   3.137
81592W        W46753  21.431   3.362   4.452
81593W        W46754   0.262   9.941  11.939
81594W        W46755  38.017  18.753   3.160
81595W        W46756  21.707   8.829  14.761
81596W        W46757  39.265  40.151  13.798
81597W        W46758  17.533   0.501   3.193
81598W        W46759  23.203  17.272  13.398
81599W        W46760  23.596  20.732   2.005
81600W        W46761   7.375  31.471  14.945
81601W        W46762  36.725  22.737   2.700
81602W        W46763  19.691   4.007  10.806
81603W        W46764  14.563   9.397   0.579
81604W        W46765  25.664  44.941  12.650
81605W        W46766  15.399  24.120  12.702
81606W        W46767  28.894  26.352  14.447
81607W        W46768  37.002  27.625  12.528
81608W        W46769  31.183  23.643   1.278
81609W        W46770   6.350   4.718  12.023
81610W        W46771  19.171  33.902   4.564
81611W        W46772  38.993  27.569   3.227
81612W        W46773  17.983  15.759  11.667
81613W        W46774  28.690  23.587  13.326
81614W        W46775   4.240  23.541   0.535
81615W        W46776  27.609   1.153  13.780
81616W        W46777  20.770  38.051  11.642
81617W        W46778  24.933  37.403   3.654
81618W        W46779  34.408  17.319   0.506
81619W        W46780  13.191  33.302   0.655
81620W        W46781  13.284  36.490   4.212
81621W        W46782  24.722   8.791  10.374
81622W        W46783  18.802  41.712  14.821
81623W        W46784  40.300  41.936   4.627
81624W        W46785  21.212   7.932   0.802
81625W        W46786  12.791  40.456   5.191
81626W        W46787  11.742  41.527  14.215
81627W        W46788  14.564  26.457  13.884
81628W        W46789   8.749  28.865   4.223
81629W        W46790  35.177  44.305   0.247
81630W        W46791  14.882  32.923   0.834
81631W        W46792  44.973  32.007   3.836
81632W        W46793  30.417  15.073  13.082
81633W        W46794  33.724  36.025  13.944
81634W        W46795  28.515  28.839   1.323
81635W        W46796  35.453   2.638  14.017
81636W        W46797  26.209  27.660   1.034
81637W        W46798  28.153  21.150   2.952
81638W        W46799  24.110  36.366  13.944
81639W        W46800  27.911  13.143   1.376
81640W        W46801  37.385  20.243   1.719
81641W        W46802  43.718  36.282   1.356
81642W        W46803  19.109  43.222   3.117
81643W        W46804   2.934  10.914   3.572
81644W        W46805  26.221  31.048  12.020
81645W        W46806   1.425   9.724  11.456
81646W        W46807  36.228   3.688  14.070
81647W        W46808  30.858  22.611  10.306
81648W        W46809  14.005  13.171   2.160
81649W        W46810  16.142  12.854  12.644
81650W        W46811  35.674   7.645  11.228
81651W        W46812  38.132  18.726  12.522
81652W        W46813   4.265  18.002  12.486
81653W        W46814  43.068  15.814   3.141
81654W        W46815  23.556  19.782  12.624
81655W        W46816  25.572  11.947   0.901
81656W        W46817  20.296  17.238  11.623
81657W        W46818  21.112   7.957  13.552
81658W        W46819  25.395   9.239   0.688
81659W        W46820  30.034  20.926  11.935
81660W        W46821  42.873  39.203   2.853
81661W        W46822  15.546  29.160   1.279
81662W        W46823   4.194  18.769  14.963
81663W        W46824   3.303  11.450  13.677
81664W        W46825   5.711  26.011  12.957
81665W        W46826  33.383  44.410  10.266
81666W        W46827  25.336  13.072   3.303
81667W        W46828  12.832  17.711   3.718
81668W        W46829  23.675  36.016  10.393
81669W        W46830   9.445  44.794  10.766
81670W        W46831  38.477  31.160  11.982
81671W        W46832  41.801  12.851  10.752
81672W        W46833  36.022  29.962  13.469
81673W        W46834   4.801  36.570   1.363
81674W        W46835  41.003  21.135   4.209
81675W        W46836  29.282  14.147   1.715
81676W        W46837  27.238  13.624   3.629
81677W        W46838  17.579  29.568  13.456
81678W        W46839  43.472  20.973   4.215
81679W        W46840  40.105  25.370   1.597
81680W        W46841  24.196  33.732  10.275
81681W        W46842  29.892  15.221   4.281
81682W        W46843  27.329  22.918  11.609
81683W        W46844  32.876  17.548   0.841
81684W        W46845  35.579  33.363  10.575
81685W        W46846  39.647  34.294   0.378
81686W        W46847  12.797  27.224   2.258
81687W        W46848  30.311  13.931  11.003
81688W        W46849  40.817  44.803   1.905
81689W        W46850  17.129   8.747  12.513
81690W        W46851  27.357  19.207   0.489
81691W        W46852   3.348  20.789   0.482
81692W        W46853  30.403  35.673  12.086
81693W        W46854  20.665  18.470  14.358
81694W        W46855  25.574   1.724  10.612
81695W        W46856  39.587  14.244  12.832
81696W        W46857  10.385  27.407  13.784
81697W        W46858  15.342  39.085  13.411
81698W        W46859  35.122  38.374   1.302
81699W        W46860  32.661  23.323  12.829
81700W        W46861  37.965   6.036  13.401
81701W        W46862  34.195  17.228   4.097
81702W        W46863   3.278  39.005   0.420
81703W        W46864  10.425  43.113  14.367
81704W        W46865   4.318   3.942  13.039
81705W        W46866  18.351   3.482   2.593
81706W        W46867  33.670  18.642   2.034
81707W        W46868  37.006  41.314   0.299
81708W        W46869  24.057  24.754  10.947
81709W        W46870  31.083  25.044   2.858
81710W        W46871   1.378  41.900   2.493
81711W        W46872  14.438  21.412  11.406
81712W        W46873  38.293   3.278   5.108
81713W        W46874   3.354   3.161   2.961
81714W        W46875  11.901  41.569  12.860
81715W        W46876   0.225  42.786   2.676
81716W        W46877   4.314  34.659  13.982
81717W        W46878  16.585  21.025  14.480
81718W        W46879  11.577   4.727   0.237
81719W        W46880  24.681  33.445   2.167
81720W        W46881  26.189  42.825   2.557
81721W        W46882  41.496  10.874  12.478
81722W        W46883  18.774  30.061   1.388
81723W        W46884  23.439  37.812   1.692
81724W        W46885  34.644  38.772   1.858
81725W        W46886   1.529   8.587   0.491
81726W        W46887  23.176  13.839  14.780
81727W        W46888  13.151   0.365   0.274
81728W        W46889  37.374   9.178   4.575
81729W        W46890  20.352  27.759   2.237
81730W        W46891  36.110  30.440   3.730
81731W        W46892  35.595  19.149   0.925
81732W        W46893   0.746  33.061  11.674
81733W        W46894   8.379  15.552   0.799
81734W        W46895  14.527  19.342  14.949
81735W        W46896   5.267  34.437   1.908
81736W        W46897  19.466  28.350   0.884
81737W        W46898   5.924   5.001  12.084
81738W        W46899   2.498  15.220   3.328
81739W        W46900  21.467  23.250   0.769
81740W        W46901   1.862   1.021  14.383
81741W        W46902  10.999  34.300   1.645
81742W        W46903  16.853  12.240   2.695
81743W        W46904  39.988   1.140  11.578
81744W        W46905   8.762  29.058  13.860
81745W        W46906  26.045  23.154  10.809
81746W        W46907  13.679  36.903   2.107
81747W        W46908  31.428  20.014   0.909
81748W        W46909   8.213  15.838   4.558
81749W        W46910  27.470   5.685   2.805
81750W        W46911  17.214  44.726  11.530
81751W        W46912  27.961   4.060  14.343
81752W        W46913  10.722  36.153   4.861
81753W        W46914  17.677   7.591   1.102
81754W        W46915   6.206  32.186   1.816
81755W        W46916  15.445  41.006  10.502
81756W        W46917   9.986  10.319   2.852
81757W        W46918   6.216  41.004  13.843
81758W        W46919   2.690  22.495  13.885
81759W        W46920  44.024  16.948   2.142
81760W        W46921  34.486   5.240  10.592
81761W        W46922  24.975  33.958   0.915
81762W        W46923  38.145  23.044  14.456
81763W        W46924  39.919  27.962  12.112
81764W        W46925  39.665  14.801  13.352
81765W        W46926  15.163  41.813   0.866
81766W        W46927  38.069  30.370   4.026
81767W        W46928  44.783  12.803  12.047
81768W        W46929   6.169  11.294  10.590
81769W        W46930  26.972  32.569   0.619
81770W        W46931  17.010  42.843   0.419
81771W        W46932  37.605   7.298   3.203
81772W        W46933   0.301   9.280  12.423
81773W        W46934  38.245  43.241   1.960
81774W        W46935  14.170  29.927   3.915
81775W        W46936  43.145   2.642  13.388
81776W        W46937  32.513  17.272  12.036
81777W        W46938  44.503  19.563  13.986
81778W        W46939  24.259   3.373   0.789
81779W        W46940  19.869  17.904   5.399
81780W        W46941   3.846  36.303  11.966
81781W        W46942  33.161   5.974  13.330
81782W        W46943  43.896   1.796   0.391
81783W        W46944   6.417   6.179   4.861
81784W        W46945  42.783  35.568   4.630
81785W        W46946   0.875  14.744   0.378
81786W        W46947   4.317  44.801  12.923
81787W        W46948   7.120   1.152  13.293
81788W        W46949  35.367   7.724  11.642
81789W        W46950  41.436  28.028   3.528
81790W        W46951  32.542  23.541   1.735
81791W        W46952  19.473   4.793  13.317
81792W        W46953  35.100  43.099   2.223
81793W        W46954   7.765  43.088  14.733
81794W        W46955  42.467  11.100  11.153
81795W        W46956   3.714  17.320  13.930
81796W        W46957   5.430  36.379   3.777
81797W        W46958   7.214  39.575  13.253
81798W        W46959  21.166  31.868  14.989
81799W        W46960  43.469   4.212   4.531
81800W        W46961   5.232  38.164  10.744
81801W        W46962   1.853  23.123   0.222
81802W        W46963  40.332  16.879   0.342
81803W        W46964  19.476  10.639  13.496
81804W        W46965  24.680  26.011  12.511
81805W        W46966  41.488  33.251  14.993
81806W        W46967  36.486  28.985   3.360
81807W        W46968   4.948  32.073   2.371
81808W        W46969  38.829  18.520  13.944
81809W        W46970  28.582   5.276  14.318
81810W        W46971  36.834  31.961   2.993
81811W        W46972  32.415   9.883  14.192
81812W        W46973  11.299  22.762   1.649
81813W        W46974  18.280  22.015  12.612
81814W        W46975  37.628  33.031   2.377
81815W        W46976   7.438   3.182   3.318
81816W        W46977  35.096  34.426  11.856
81817W        W46978  35.406  23.059  14.373
81818W        W46979  43.926  20.855   2.280
81819W        W46980  30.097  39.866  13.991
81820W        W46981  10.088  43.848  13.898
81821W        W46982  19.181  18.201   3.207
81822W        W46983  18.637  27.502   3.763
81823W        W46984  25.100   1.353   3.696
81824W        W46985   4.391  39.506   1.458
81825W        W46986  34.486  39.818  11.546
81826W        W46987  41.387   2.185   1.234
81827W        W46988  22.637  20.404  10.381
81828W        W46989  11.258   8.972   4.358
81829W        W46990  44.923  33.408   0.309
81830W        W46991  15.088  25.899   1.304
81831W        W46992   6.303  19.491  10.321
81832W        W46993  23.202  32.479   0.977
81833W        W46994   2.308  42.208   1.653
81834W        W46995  34.502  12.336   1.786
81835W        W46996  15.612  16.607  14.849
81836W        W46997  34.551  39.496  14.563
81837W        W46998  34.317  24.924   3.295
81838W        W46999  29.095  37.937   4.212
81839W        W47000   3.020   0.407   3.169
81840W        W47001  36.853  40.368  10.589
81841W        W47002   7.455  26.144  12.091
81842W        W47003  38.523  35.886   2.818
81843W        W47004  24.157  17.778   3.814
81844W        W47005  42.772  19.554   3.933
81845W        W47006  35.821  13.320   0.850
81846W        W47007  10.689   3.047  11.100
81847W        W47008  37.511  26.014   1.247
81848W        W47009  23.095  35.533   4.342
81849W        W47010   8.450  34.396  12.987
81850W        W47011  21.703  23.039   3.226
81851W        W47012   2.879  31.098   0.484
81852W        W47013  25.710  39.513  11.168
81853W        W47014  35.902  13.745   0.559
81854W        W47015  35.089  44.489   4.102
81855W        W47016   9.299  15.325  10.742
81856W        W47017  31.825  31.935  10.842
81857W        W47018  38.793  25.632   4.532
81858W        W47019  33.726  36.104  10.751
81859W        W47020  14.273  34.564  12.453
81860W        W47021  28.616   8.317   1.911
81861W        W47022  35.109  24.131   4.042
81862W        W47023  43.263  30.637   1.207
81863W        W47024  40.238  29.470  14.952
81864W        W47025  32.179   2.271  12.393
81865W        W47026   8.699  41.762   2.919
81866W        W47027   7.683  14.058  11.546
81867W        W47028  36.913  19.795   2.235
81868W        W47029  26.627  30.902   3.782
81869W        W47030   8.285  29.771   4.911
81870W        W47031   5.452  33.463   1.511
81871W        W47032  38.468  13.452   3.060
81872W        W47033  44.012  41.024  10.711
81873W        W47034   5.654   7.363  13.371
81874W        W47035  31.548   3.249   4.855
81875W        W47036   2.545  15.598   1.859
81876W        W47037  12.692  21.477  12.015
81877W        W47038  30.016  44.316   1.265
81878W        W47039  35.655  25.026  12.475
81879W        W47040  35.066  14.288  13.386
81880W        W47041  40.534  39.509   4.509
81881W        W47042  21.208  27.048   4.614
81882W        W47043  41.747   5.947  11.252
81883W        W47044  33.619  24.890   4.569
81884W        W47045  15.385  24.729  10.553
81885W        W47046  17.061  30.542  13.880
81886W        W47047  38.484   4.292   1.415
81887W        W47048  41.968  26.186  11.062
81888W        W47049  39.573  25.677  12.105
81889W        W47050   5.328  30.482  12.822
81890W        W47051  13.457  10.269  11.942
81891W        W47052  42.594  42.892  13.083
81892W        W47053  22.202  11.286  12.461
81893W        W47054  40.224  32.980   0.784
81894W        W47055  37.347   0.476  13.582
81895W        W47056  32.189   5.333   2.442
81896W        W47057  32.079   5.427   3.140
81897W        W47058  11.193  22.553  13.413
81898W        W47059   9.364  43.517   1.189
81899W        W47060  11.573   9.816  12.451
81900W        W47061   7.353  42.046   1.875
81901W        W47062   7.736  12.034  11.722
81902W        W47063   5.827  23.154  14.430
81903W        W47064   1.946  16.866  11.546
81904W        W47065  32.380  15.148   4.643
81905W        W47066  33.334  11.793   3.166
81906W        W47067   4.946  27.174  14.359
81907W        W47068   0.444  15.823   3.724
81908W        W47069  44.386  25.362  12.038
81909W        W47070  37.089  30.375  14.762
81910W        W47071  34.032  18.740  14.375
81911W        W47072   8.158  32.578   1.315
81912W        W47073  33.319  12.779   0.070
81913W        W47074  42.814   0.512  13.823
81914W        W47075  34.878  44.070  12.070
81915W        W47076  36.147  27.278  13.928
81916W        W47077  24.753   9.316  10.383
81917W        W47078   1.123  38.928   1.536
81918W        W47079   0.474   9.260   2.772
81919W        W47080  29.556  25.013  14.495
81920W        W47081  44.128  13.686   4.223
81921W        W47082  37.622  30.471  11.627
81922W        W47083  15.327  34.443  13.809
81923W        W47084  29.640   8.313   0.009
81924W        W47085  36.384   2.290   4.154
81925W        W47086   3.790  28.087   1.785
81926W        W47087  40.303  26.031  12.445
81927W        W47088  40.221   2.736   4.036
81928W        W47089  24.101  32.807   4.522
81929W        W47090   1.288  15.226  10.571
81930W        W47091  12.252  35.410   2.845
81931W        W47092   5.398  32.599  14.894
81932W        W47093  42.454  28.670  14.820
81933W        W47094  35.928   4.990  12.910
81934W        W47095  42.724  43.180   4.177
81935W        W47096  23.322  11.803  11.253
81936W        W47097   1.301  44.213  14.567
81937W        W47098   1.849  44.024  14.447
81938W        W47099  27.770  12.135   2.680
81939W        W47100   9.746  40.788  12.904
81940W        W47101   7.260  24.531   3.680
81941W        W47102  34.131  22.468   0.004
81942W        W47103  42.645   2.141   1.037
81943W        W47104  31.497  20.765  13.606
81944W        W47105  39.071  23.172   3.761
81945W        W47106   0.719   3.939   0.288
81946W        W47107  42.205  36.779   1.353
81947W        W47108  31.681   5.088  11.120
81948W        W47109  24.179  25.992   2.077
81949W        W47110  19.364  40.310   3.072
81950W        W47111  33.683  20.739  14.831
81951W        W47112  41.734  12.987   2.486
81952W        W47113  18.859   4.826  13.051
81953W        W47114   3.706  17.189   4.983
81954W        W47115  32.415  43.113   1.878
81955W        W47116  34.419  36.847   2.633
81956W        W47117   9.346  22.518   0.544
81957W        W47118   7.489  40.790  11.993
81958W        W47119  14.288  28.919  11.673
81959W        W47120  42.841   0.063   1.595
81960W        W47121  28.981  27.351   4.857
81961W        W47122   2.719  26.117   1.239
81962W        W47123  38.582  11.920  10.994
81963W        W47124  18.257  17.261  14.964
81964W        W47125  38.329  20.753  13.166
81965W        W47126  29.521  29.126  11.602
81966W        W47127  38.842  24.624  12.901
81967W        W47128  39.020  24.370   4.158
81968W        W47129  27.177  28.198  12.464
81969W        W47130  40.179  27.818   3.238
81970W        W47131  13.168  29.191  10.933
81971W        W47132   0.899   4.867   0.423
81972W        W47133  29.939   3.516  11.679
81973W        W47134  34.630  22.298  11.974
81974W        W47135  24.904   1.657  11.359
81975W        W47136  31.516  43.024   4.808
81976W        W47137   2.829  23.608  11.385
81977W        W47138  42.525  15.285   0.600
81978W        W47139  27.727  40.514   0.314
81979W        W47140   7.148  42.418  13.037
81980W        W47141  10.080  32.142  14.854
81981W        W47142   7.284  36.845  12.205
81982W        W47143  12.774  35.628  12.770
81983W        W47144  31.720   7.267  13.053
81984W        W47145  43.818  17.616  11.392
81985W        W47146  11.892  24.825   9.995
81986W        W47147  28.247  38.273   3.901
81987W        W47148   8.991  28.473  12.082
81988W        W47149  17.529  20.218  13.065
81989W        W47150  28.292   3.944   4.646
81990W        W47151  35.740  14.839   1.823
81991W        W47152  38.964  22.217  14.837
81992W        W47153  16.337  33.960  11.086
81993W        W47154   0.575   8.037   0.050
81994W        W47155  39.133  37.056   2.257
81995W        W47156  24.054   1.697   1.525
81996W        W47157   2.824  29.760  14.045
81997W        W47158  17.226  42.005   4.512
81998W        W47159  33.441  18.695   0.981
81999W        W47160   6.770  13.233  12.998
82000W        W47161  32.774  31.206  13.744
82001W        W47162  36.235  25.056   4.823
82002W        W47163  26.043  19.285  14.981
82003W        W47164   6.511  31.671   2.928
82004W        W47165  35.826  36.878  14.791
82005W        W47166  34.838  34.313   4.128
82006W        W47167  39.899   4.065  12.422
82007W        W47168  23.034   9.300   1.301
82008W        W47169  33.374   2.157   1.372
82009W        W47170  19.816  23.773   1.866
82010W        W47171  42.922  21.450   3.093
82011W        W47172   7.595   1.860  12.606
82012W        W47173  35.404  18.637   1.925
82013W        W47174  10.587  40.412  11.595
82014W        W47175  26.842  44.730   4.546
82015W        W47176  19.287  21.596  11.790
82016W        W47177   8.902  15.211   0.348
82017W        W47178  42.550  21.876  11.930
82018W        W47179  43.303  12.675  10.888
82019W        W47180  21.744  17.077   1.111
82020W        W47181  17.293  35.435   2.278
82021W        W47182  37.112  18.130   3.906
82022W        W47183   0.730  11.291   4.594
82023W        W47184  42.804   6.740   3.303
82024W        W47185  20.099  27.790  12.760
82025W        W47186  18.323   9.327   3.950
82026W        W47187  41.022  36.995   3.322
82027W        W47188  25.387  37.181  11.989
82028W        W47189  31.641   7.976  11.704
82029W        W47190  23.477   0.269  12.365
82030W        W47191   8.973  10.148   4.633
82031W        W47192  28.693   5.469  10.987
82032W        W47193   6.167  15.628   4.708
82033W        W47194   2.121  19.817  13.927
82034W        W47195  17.733  38.212  11.979
82035W        W47196  30.548  40.517   1.317
82036W        W47197  40.987   2.399  14.957
82037W        W47198  29.894  14.286   0.370
82038W        W47199  14.091  21.376   3.236
82039W        W47200   9.576   1.352   4.097
82040W        W47201  44.062   0.777  14.540
82041W        W47202  42.286  13.805   3.691
82042W        W47203   0.563   0.840  14.818
82043W        W47204   4.923  16.217   3.613
82044W        W47205  40.259  30.242   0.397
82045W        W47206  24.835  37.199  10.683
82046W        W47207  42.555  38.285  12.146
82047W        W47208   3.933   9.892   0.893
82048W        W47209  10.259  31.090  12.824
82049W        W47210  31.552  38.296  14.241
82050W        W47211  39.489  17.180  10.714
82051W        W47212  23.186  22.470  14.457
82052W        W47213  23.086   8.427  13.479
82053W        W47214   9.154  29.932   2.240
82054W        W47215  19.055   3.790   0.928
82055W        W47216  14.406  18.890   1.751
82056W        W47217   1.494  34.170   3.680
82057W        W47218  43.990   6.674  13.140
82058W        W47219  32.929  22.614   4.094
82059W        W47220  22.021   3.436  14.913
82060W        W47221  18.258  40.643  12.716
82061W        W47222   6.868  28.022   2.158
82062W        W47223  19.692  11.741   0.785
82063W        W47224  20.833  14.961  11.997
82064W        W47225   3.799  13.067  14.015
82065W        W47226  44.575   9.796   3.871
82066W        W47227   6.348  28.576   1.340
82067W        W47228  25.610   2.912  11.903
82068W        W47229  22.489  21.071  14.468
82069W        W47230  25.725   2.203  10.737
82070W        W47231  35.284  22.685  11.323
82071W        W47232   7.286  39.323   1.919
82072W        W47233  38.444  38.315   4.230
82073W        W47234   9.656  19.159  14.468
82074W        W47235  30.734  25.049  14.855
82075W        W47236  25.171  38.336   1.571
82076W        W47237  42.504  19.132   4.141
82077W        W47238  15.271  25.430   1.403
82078W        W47239  30.867   3.360   4.252
82079W        W47240   9.959  10.640   1.920
82080W        W47241  40.820   7.370   4.607
82081W        W47242  40.267  23.194  13.006
82082W        W47243  30.124  22.117   0.129
82083W        W47244  44.866  38.311   0.787
82084W        W47245  26.083  10.670  14.401
82085W        W47246  15.233   1.355  10.674
82086W        W47247  43.702  25.907  13.296
82087W        W47248  42.763  21.019   4.603
82088W        W47249  34.951   0.360   1.480
82089W        W47250  25.854  22.637   4.661
82090W        W47251  39.105  29.832   1.858
82091W        W47252  37.875  37.813   2.480
82092W        W47253   0.485  39.493  12.934
82093W        W47254  30.172  20.506  10.210
82094W        W47255  27.089  23.908   1.224
82095W        W47256  15.616  12.686   2.366
82096W        W47257  14.583  26.180  10.678
82097W        W47258  13.295  43.027  13.490
82098W        W47259  35.541  42.011   0.819
82099W        W47260  26.386  21.504  12.207
82100W        W47261  44.305   8.186  12.862
82101W        W47262  11.370  32.475  14.083
82102W        W47263   5.379  10.288  14.516
82103W        W47264  32.648  17.052   0.835
82104W        W47265  11.372   3.325   2.758
82105W        W47266   3.888  30.326  13.467
82106W        W47267  15.076  37.733  13.071
82107W        W47268   1.779  11.780   2.334
82108W        W47269  29.702  40.371   3.274
82109W        W47270  14.971   8.757  12.638
82110W        W47271  24.170  38.803   2.718
82111W        W47272  32.110  35.359  14.792
82112W        W47273  42.414  14.661   1.766
82113W        W47274   1.999  11.418  13.913
82114W        W47275  12.734  36.102   2.398
82115W        W47276  21.543  18.683  12.890
82116W        W47277  15.218  14.259   3.413
82117W        W47278  23.443  40.360  11.106
82118W        W47279   4.429   5.367   4.453
82119W        W47280  28.673  18.173  12.479
82120W        W47281  15.369  19.670  11.381
82121W        W47282  26.987  22.504  11.545
82122W        W47283  20.814  30.767  11.583
82123W        W47284   8.637   0.972   3.620
82124W        W47285  18.028  34.492  13.443
82125W        W47286   5.095   4.725   3.857
82126W        W47287  24.913  15.704   9.690
82127W        W47288  14.529  37.053   3.864
82128W        W47289  17.639  43.193  14.369
82129W        W47290  36.293  33.922   0.255
82130W        W47291   2.814  23.906  12.480
82131W        W47292  23.895  30.471   4.963
82132W        W47293  27.557  21.397  11.016
82133W        W47294  30.397   3.303   1.405
82134W        W47295  22.663  41.724  14.914
82135W        W47296  18.511  16.667   2.556
82136W        W47297  41.884  42.372   3.052
82137W        W47298  14.239  28.460  13.929
82138W        W47299  34.551  41.765   2.538
82139W        W47300   9.790   2.804   2.211
82140W        W47301  34.295  22.583  13.157
82141W        W47302  34.920  40.946   3.781
82142W        W47303   8.159  25.217  11.665
82143W        W47304   4.468  27.224   1.639
82144W        W47305  41.387  30.533  14.382
82145W        W47306  18.741   2.376   1.708
82146W        W47307   5.949  20.068   3.169
82147W        W47308  22.728  42.180  10.656
82148W        W47309  19.115  12.640   4.717
82149W        W47310  44.897  34.516   0.023
82150W        W47311  15.602  10.299  10.637
82151W        W47312  29.306  26.176  11.003
82152W        W47313  17.109  43.407  12.408
82153W        W47314  33.498  20.480   4.149
82154W        W47315  21.034  42.209   3.232
82155W        W47316   4.927  15.111   1.319
82156W        W47317  11.277   9.354   1.405
82157W        W47318  18.792   4.234  11.570
82158W        W47319  37.978  12.665  13.981
82159W        W47320  35.625   2.474   3.695
82160W        W47321  18.117   0.502  13.353
82161W        W47322   7.252  17.066   2.144
82162W        W47323  24.059  10.973   4.348
82163W        W47324  27.662   7.438   3.427
82164W        W47325  22.689   8.269   2.699
82165W        W47326  13.157  32.710   2.873
82166W        W47327  12.563   9.597   1.303
82167W        W47328  16.601  32.182   2.706
82168W        W47329   3.523   7.805  13.856
82169W        W47330  44.155  25.963  13.570
82170W        W47331   2.168  39.475   4.996
82171W        W47332  26.994  38.846   1.846
82172W        W47333  40.303   5.212  14.003
82173W        W47334  17.635  34.148  11.976
82174W        W47335  38.593   2.205   0.835
82175W        W47336  25.677   3.170   3.794
82176W        W47337  38.264  19.157  13.510
82177W        W47338  15.840  28.564  13.772
82178W        W47339   9.323  44.918   1.186
82179W        W47340  19.484   4.875  11.933
82180W        W47341  27.610  42.569   4.071
82181W        W47342  11.938  27.146   3.167
82182W        W47343   7.710   7.333  10.383
82183W        W47344   7.688  43.911  14.228
82184W        W47345  28.031  30.128  14.821
82185W        W47346  35.281  16.664  13.032
82186W        W47347   9.858  44.859   1.070
82187W        W47348  11.229  18.307  14.360
82188W        W47349  16.353  20.613   3.255
82189W        W47350   4.399  28.900   2.172
82190W        W47351  37.670   2.497   0.704
82191W        W47352  19.145  28.609  11.565
82192W        W47353  13.142  16.081  12.495
82193W        W47354  15.148  10.300   3.388
82194W        W47355  44.631  40.923   9.722
82195W        W47356   2.119  42.958  12.895
82196W        W47357  35.579  18.821   4.178
82197W        W47358  27.008  30.380  10.384
82198W        W47359  24.773  16.530  12.035
82199W        W47360  39.890  14.959  14.029
82200W        W47361  31.554  39.400   5.413
82201W        W47362  23.907  24.065   2.591
82202W        W47363   6.912  25.033  13.788
82203W        W47364   7.237  14.084  11.129
82204W        W47365  26.749  39.689  11.257
82205W        W47366  39.143  16.652   0.988
82206W        W47367   2.451  24.221  12.180
82207W        W47368  42.891  34.548  14.114
82208W        W47369   8.285   0.396   1.655
82209W        W47370   5.952   6.960   0.916
82210W        W47371  43.242  31.036  14.033
82211W        W47372  42.322  12.795  10.795
82212W        W47373   9.410   2.713  11.044
82213W        W47374   9.150  43.679   4.606
82214W        W47375  17.608  43.248   2.242
82215W        W47376  30.980  35.593   4.568
82216W        W47377  25.870  41.494  12.104
82217W        W47378   2.744  36.184   0.841
82218W        W47379   1.829  28.112   3.734
82219W        W47380   8.213  12.309   1.684
82220W        W47381  14.272  21.037  11.096
82221W        W47382   5.938  42.684  14.556
82222W        W47383  21.379  14.066   4.169
82223W        W47384  44.022  25.880   4.692
82224W        W47385  23.308   2.800  12.499
82225W        W47386  27.687  42.510  13.833
82226W        W47387   7.235  17.538   1.927
82227W        W47388  35.049  12.610   2.019
82228W        W47389  11.315  26.531   4.327
82229W        W47390  22.086  44.793   0.529
82230W        W47391   4.268  22.645  14.238
82231W        W47392  15.841  26.738  12.479
82232W        W47393  39.511  11.263  13.466
82233W        W47394  18.204   6.890  14.795
82234W        W47395  31.699   6.454   4.102
82235W        W47396   7.298  34.142  14.896
82236W        W47397   3.828  22.760  13.649
82237W        W47398  15.649  34.167  14.569
82238W        W47399  10.589  15.141  14.909
82239W        W47400   6.651  30.983  11.582
82240W        W47401  38.809  31.192  11.599
82241W        W47402  19.232   2.237   4.090
82242W        W47403   9.091  15.707  11.024
82243W        W47404  34.520  19.536  10.474
82244W        W47405  44.259  25.553  11.587
82245W        W47406  22.784  17.857   1.726
82246W        W47407  22.575  12.057  13.519
82247W        W47408  11.501  18.734   2.648
82248W        W47409  34.923  10.280  13.910
82249W        W47410   6.540  25.773   2.768
82250W        W47411  25.683  38.287   1.095
82251W        W47412   0.498   1.516  10.944
82252W        W47413  34.604  10.092   4.608
82253W        W47414  35.425  40.752  12.918
82254W        W47415  23.479  29.171  10.728
82255W        W47416  25.631   9.735  14.430
82256W        W47417  35.858  25.244   1.392
82257W        W47418  19.018   4.639  11.879
82258W        W47419  26.094  19.003  13.094
82259W        W47420   9.588  20.593   0.514
82260W        W47421  25.545  21.326   1.437
82261W        W47422  34.995  23.483  13.113
82262W        W47423  18.354  30.030   0.977
82263W        W47424  37.781  12.851   0.443
82264W        W47425   7.959  32.434   1.813
82265W        W47426  19.747  31.478   0.869
82266W        W47427   3.950  30.392  14.816
82267W        W47428   5.482  19.204   3.681
82268W        W47429  42.709  39.578  12.533
82269W        W47430  27.712   1.405  11.082
82270W        W47431  41.345  17.669  12.885
82271W        W47432   2.979  35.334  13.935
82272W        W47433  40.598   8.646  11.406
82273W        W47434   2.001  30.022  13.427
82274W        W47435  35.047  35.944   4.627
82275W        W47436   4.234  34.384  11.261
82276W        W47437  43.567  19.619   3.075
82277W        W47438  43.868  11.112  13.352
82278W        W47439  23.306  20.999   4.558
82279W        W47440   2.835  40.988  11.579
82280W        W47441   9.790   9.912  11.663
82281W        W47442  27.408  25.971   0.669
82282W        W47443   2.052  44.371   3.355
82283W        W47444  37.644   2.442  12.481
82284W        W47445  28.681  17.104   2.166
82285W        W47446  30.717  10.726   3.762
82286W        W47447  35.910   8.092  12.488
82287W        W47448  21.197  42.487   1.362
82288W        W47449   3.762  36.007  14.045
82289W        W47450  10.294  41.889  14.774
82290W        W47451  34.895   4.891   5.190
82291W        W47452  44.198  19.127   0.865
82292W        W47453  37.307  11.411   3.829
82293W        W47454  10.251  28.718   4.057
82294W        W47455   6.968  28.566  12.775
82295W        W47456  18.267  34.331   2.409
82296W        W47457  14.281  16.211  12.050
82297W        W47458  28.202  12.844  12.849
82298W        W47459  39.426  39.880   0.153
82299W        W47460  30.823   5.374   2.712
82300W        W47461  13.614  11.375  13.998
82301W        W47462  42.056   6.367  11.121
82302W        W47463  21.016   2.862   3.215
82303W        W47464  39.841  41.587   4.124
82304W        W47465  36.675   6.992  12.010
82305W        W47466  43.816  12.577  10.747
82306W        W47467   7.717  29.366   3.153
82307W        W47468   4.396   3.635  12.546
82308W        W47469  25.494   3.432   4.221
82309W        W47470  31.101   9.134   4.662
82310W        W47471   3.344   6.761  13.007
82311W        W47472  19.478   1.728   1.998
82312W        W47473  24.014  44.779   1.704
82313W        W47474  25.559  43.007  14.253
82314W        W47475  26.972  24.633   9.702
82315W        W47476  44.765   8.213   1.859
82316W        W47477  20.117  37.263   3.737
82317W        W47478  27.071  20.239   1.540
82318W        W47479  21.605  23.713  13.279
82319W        W47480  25.734  38.256  11.100
82320W        W47481  31.255  38.916   4.573
82321W        W47482  37.803  19.040  11.252
82322W        W47483  35.944  28.627   0.779
82323W        W47484  30.538  19.272  14.519
82324W        W47485  32.538  30.077  14.423
82325W        W47486  42.781   2.879   1.292
82326W        W47487  16.329  22.304   4.671
82327W        W47488  33.843  14.521   3.820
82328W        W47489  31.660  21.599  10.510
82329W        W47490   2.986  10.602   0.716
82330W        W47491  33.367  32.509  11.888
82331W        W47492  10.440  14.279  12.095
82332W        W47493   4.887  34.446   2.880
82333W        W47494  26.972  21.797   0.319
82334W        W47495  36.099   5.397  12.577
82335W        W47496  13.905   4.257  12.852
82336W        W47497   3.856  38.077   2.157
82337W        W47498  32.735  21.042  13.358
82338W        W47499  35.135   5.946   4.569
82339W        W47500  30.485   4.696   1.477
82340W        W47501  32.037  21.238  14.600
82341W        W47502  44.900  22.095   4.160
82342W        W47503  11.910  31.197  12.531
82343W        W47504  27.229  40.159   2.800
82344W        W47505  23.780  42.557  11.641
82345W        W47506   0.549   6.462   2.769
82346W        W47507  30.178  28.409   2.681
82347W        W47508  18.109  24.214   0.967
82348W        W47509  10.207   2.440  14.964
82349W        W47510   8.230  22.181  12.344
82350W        W47511   9.524  28.922   1.018
82351W        W47512  35.040  19.935   5.083
82352W        W47513  32.875  13.774   3.326
82353W        W47514  10.624  31.575  11.565
82354W        W47515  15.118  36.464  14.327
82355W        W47516  13.037  44.061   1.516
82356W        W47517  29.232  39.539  12.124
82357W        W47518  13.629  12.320  11.251
82358W        W47519  30.643  11.859   1.925
82359W        W47520   3.851   3.458  13.630
82360W        W47521  26.125  10.919  11.545
82361W        W47522  17.131  32.928  11.346
82362W        W47523  24.183  21.416  14.021
82363W        W47524  42.029  10.761  10.771
82364W        W47525  14.476  42.595   5.770
82365W        W47526  16.867   6.057   3.809
82366W        W47527   3.996  43.023  10.901
82367W        W47528   1.815  39.902  14.099
82368W        W47529  19.132  18.836  10.372
82369W        W47530  27.575  11.338  14.540
82370W        W47531  17.050  31.895   2.751
82371W        W47532  42.457  15.603  14.863
82372W        W47533   2.364  27.486   1.342
82373W        W47534  10.644  12.186  10.567
82374W        W47535  29.133  37.547  14.507
82375W        W47536  23.218  10.443   4.075
82376W        W47537  27.135  29.267   4.297
82377W        W47538  41.886  21.234  12.067
82378W        W47539  26.716  24.952  12.287
82379W        W47540  25.602  23.577  14.201
82380W        W47541  30.445  10.597  10.689
82381W        W47542  31.141  42.015  14.966
82382W        W47543  37.418  25.247   1.660
82383W        W47544  30.338  16.648   0.881
82384W        W47545  40.804  10.316  10.980
82385W        W47546  13.758  14.105   4.244
82386W        W47547  29.542   1.049  10.726
82387W        W47548  20.098   4.347  10.785
82388W        W47549   9.000   7.915  11.423
82389W        W47550  37.035  38.149   2.274
82390W        W47551   3.853  13.234  10.015
82391W        W47552  32.623  37.945   1.001
82392W        W47553  21.653  14.324   1.923
82393W        W47554  35.122   1.828  13.933
82394W        W47555   1.293   7.077  10.540
82395W        W47556  37.375  31.952  13.499
82396W        W47557  36.520  26.621  10.727
82397W        W47558  19.683   0.385   1.259
82398W        W47559  18.112  15.796  13.389
82399W        W47560  29.969  11.280  10.628
82400W        W47561  22.776  30.097   0.865
82401W        W47562   0.867  37.632   3.120
82402W        W47563  13.189  16.779   3.522
82403W        W47564  12.370  23.783  13.103
82404W        W47565  24.678  29.554  13.415
82405W        W47566   8.242  26.707  11.610
82406W        W47567  23.897  40.146  11.679
82407W        W47568  39.231  44.032  14.737
82408W        W47569  32.554  40.956  11.855
82409W        W47570  12.494  34.557  11.728
82410W        W47571   6.494  11.093   4.233
82411W        W47572  27.329   9.857  12.973
82412W        W47573  10.430  36.539   0.055
82413W        W47574  33.069  39.486   1.719
82414W        W47575  29.592  28.166   0.003
82415W        W47576  18.730  41.588   1.180
82416W        W47577  19.514  34.022   3.768
82417W        W47578   5.683   5.856   4.192
82418W        W47579  15.654  13.440   1.738
82419W        W47580  35.937   3.509   3.596
82420W        W47581  32.847   2.465   2.382
82421W        W47582   0.919  43.558  11.949
82422W        W47583  16.129   9.318  12.966
82423W        W47584  39.654   7.111   0.765
82424W        W47585  28.418   0.188   1.531
82425W        W47586  30.822   4.965  12.980
82426W        W47587  33.849   3.462   0.327
82427W        W47588  15.554  20.121  12.086
82428W        W47589  13.783  22.534  12.961
82429W        W47590  20.094  37.828   1.905
82430W        W47591  13.843  10.854  10.584
82431W        W47592   8.099  44.596   1.824
82432W        W47593   8.147  19.055  13.889
82433W        W47594  42.417  31.885  12.054
82434W        W47595  40.996  37.311  11.125
82435W        W47596  30.420  36.733  12.636
82436W        W47597  14.699  38.064   2.547
82437W        W47598  42.739  29.192   1.956
82438W        W47599  14.682  30.690  14.088
82439W        W47600  39.987  40.797  11.560
82440W        W47601  16.352   9.801   3.714
82441W        W47602  22.791   4.919   3.792
82442W        W47603  31.364  26.033   2.378
82443W        W47604  25.226  34.095  11.524
82444W        W47605  23.641  10.933   2.441
82445W        W47606  17.129  21.509  11.526
82446W        W47607  25.036  43.411   0.468
82447W        W47608  10.313  16.592   4.065
82448W        W47609  15.178   2.484   1.804
82449W        W47610  40.039  32.698  13.411
82450W        W47611  16.055  32.930   4.094
82451W        W47612  27.661  40.495  14.004
82452W        W47613  18.604  40.370  14.127
82453W        W47614  19.756  41.862  11.443
82454W        W47615  19.990  44.547   1.561
82455W        W47616  38.144  34.470  10.705
82456W        W47617   1.845   5.414   3.266
82457W        W47618  31.593  33.708   0.787
82458W        W47619  38.211   4.658  12.108
82459W        W47620  35.358   1.688   3.278
82460W        W47621  31.475  21.088   3.997
82461W        W47622   3.667  26.150   1.638
82462W        W47623   3.190  12.286   1.494
82463W        W47624  39.779  26.235  14.923
82464W        W47625  11.659  41.924  11.158
82465W        W47626  16.073  25.707  12.433
82466W        W47627   9.436  39.542  14.728
82467W        W47628  21.722  34.762  12.091
82468W        W47629  15.369  41.526  10.471
82469W        W47630  21.130   4.176  12.459
82470W        W47631  42.423   1.428   0.358
82471W        W47632   1.420  22.784   1.944
82472W        W47633  43.339   4.911  13.118
82473W        W47634   1.256  41.135  13.447
82474W        W47635   0.900  20.280   2.328
82475W        W47636  43.887  22.903  11.001
82476W        W47637  38.449  36.303   4.102
82477W        W47638  12.135  34.941  14.953
82478W        W47639  16.782  13.767  13.344
82479W        W47640   8.858  16.671  11.606
82480W        W47641  27.131  13.126  14.317
82481W        W47642  27.528  22.140   0.738
82482W        W47643  25.189  25.115  12.616
82483W        W47644  20.414  41.298  12.130
82484W        W47645  11.087  23.638   0.834
82485W        W47646  19.814  36.483  11.357
82486W        W47647   2.401   6.569  14.410
82487W        W47648  33.971  43.984  13.076
82488W        W47649   5.632   1.449  11.157
82489W        W47650  29.700  35.921  12.410
82490W        W47651   5.594  13.878  12.877
82491W        W47652  16.627  36.032  14.510
82492W        W47653  16.796  39.321  13.617
82493W        W47654  14.183   2.379   0.933
82494W        W47655   7.406  26.509  12.924
82495W        W47656  17.139  31.364   0.437
82496W        W47657  43.545  38.488  14.581
82497W        W47658   2.725  36.669   1.538
82498W        W47659  16.785  25.425   0.364
82499W        W47660  17.300  40.561  12.455
82500W        W47661  18.146  27.976  10.541
82501W        W47662  10.237   6.802  14.100
82502W        W47663  26.512  38.025  14.550
82503W        W47664   3.790  43.495   3.249
82504W        W47665  28.883  18.189  10.394
82505W        W47666  28.119   3.944   3.692
82506W        W47667  30.932  30.383   0.343
82507W        W47668  28.387   3.451   3.284
82508W        W47669  39.474   0.815   4.729
82509W        W47670   7.936  17.728   1.271
82510W        W47671  43.513  28.914  11.997
82511W        W47672  23.657  26.250   3.517
82512W        W47673  39.005  19.214   0.979
82513W        W47674  37.403  25.581   4.473
82514W        W47675   3.846  30.014  13.877
82515W        W47676  31.987  34.786   0.763
82516W        W47677  37.218  11.674  11.580
82517W        W47678  27.698  20.047  13.519
82518W        W47679  14.600  29.263  10.337
82519W        W47680  37.322  28.698  11.977
82520W        W47681  19.332  43.874  12.645
82521W        W47682  33.936  18.626   1.224
82522W        W47683  31.041  38.171   2.523
82523W        W47684  21.534  32.376   0.654
82524W        W47685  17.134  26.855   9.909
82525W        W47686  11.642  31.234   3.233
82526W        W47687   4.451  12.694  11.176
82527W        W47688  18.631   1.194  14.354
82528W        W47689  15.379  43.347   4.163
82529W        W47690  29.138  30.500  10.551
82530W        W47691  22.663  42.998  12.149
82531W        W47692   6.912   4.958  13.939
82532W        W47693   1.977  38.447   1.761
82533W        W47694  28.892  24.625   1.784
82534W        W47695  15.936   3.309   4.148
82535W        W47696  40.940  21.492   0.709
82536W        W47697  19.292  18.167   3.730
82537W        W47698  31.413  23.529   1.719
82538W        W47699   9.435  41.870  13.142
82539W        W47700  39.893  34.844   1.191
82540W        W47701   8.829  31.376   1.746
82541W        W47702  28.930  25.839  11.510
82542W        W47703  19.726   0.487  10.245
82543W        W47704  42.306  12.629  14.568
82544W        W47705  24.781  33.471  12.884
82545W        W47706  40.339   8.027   1.214
82546W        W47707  13.851  44.460  11.154
82547W        W47708  26.202   9.969   1.924
82548W        W47709  38.111   0.979   2.218
82549W        W47710  27.497   0.726   3.662
82550W        W47711  28.034  13.248   0.432
82551W        W47712  37.075  20.637   4.161
82552W        W47713  32.024  19.248   3.746
82553W        W47714  34.029  21.973   2.788
82554W        W47715  35.341   4.712  12.515
82555W        W47716  22.266  38.017  14.425
82556W        W47717  35.648   5.132  12.500
82557W        W47718  23.761  13.119  14.864
82558W        W47719   1.279   3.880  10.676
82559W        W47720  23.983  14.766  10.615
82560W        W47721   8.287  32.719   3.154
82561W        W47722  21.662  26.604  10.181
82562W        W47723  44.487  42.405  13.346
82563W        W47724  44.817  12.784   1.219
82564W        W47725  31.692  42.520  12.932
82565W        W47726  11.873  17.879   1.764
82566W        W47727  15.181  24.925  11.657
82567W        W47728  34.983  30.898   0.368
82568W        W47729   2.263  21.506  12.528
82569W        W47730  44.805  31.791   2.263
82570W        W47731   7.895  25.631   2.013
82571W        W47732  26.894  39.686   0.340
82572W        W47733  22.505  13.148   1.290
82573W        W47734   8.346   2.439   1.837
82574W        W47735  38.540  13.403   2.251
82575W        W47736  39.951   1.870   1.961
82576W        W47737  31.135  19.199   3.803
82577W        W47738  30.141   0.212  12.265
82578W        W47739   9.575  24.219  10.703
82579W        W47740  30.883  33.717  11.971
82580W        W47741  22.692  11.740   1.360
82581W        W47742  25.977  12.746  12.100
82582W        W47743  39.505  40.662   2.705
82583W        W47744  38.875  17.273   2.287
82584W        W47745  19.851  16.511  13.816
82585W        W47746   2.417  13.686   0.610
82586W        W47747  32.975  14.500   0.232
82587W        W47748  26.008   8.613  14.643
82588W        W47749  35.369   7.605   2.198
82589W        W47750   7.178  14.922   3.337
82590W        W47751  42.173  43.185  11.203
82591W        W47752  33.221  19.431   1.977
82592W        W47753  20.971  30.875   0.329
82593W        W47754   0.277  14.272   2.360
82594W        W47755  22.205   5.796  11.053
82595W        W47756  39.058  31.717   2.930
82596W        W47757  32.693   4.660  12.102
82597W        W47758   5.494  13.593  13.946
82598W        W47759  28.173  18.540  12.903
82599W        W47760   0.872  16.776   3.520
82600W        W47761  20.591  37.785   3.705
82601W        W47762  15.531   2.814   0.222
82602W        W47763  20.032   5.968   2.071
82603W        W47764  33.342   8.144   0.869
82604W        W47765  18.609  31.109  12.901
82605W        W47766   8.242  39.739  12.557
82606W        W47767  31.737  18.218   2.769
82607W        W47768  16.780  22.608   4.163
82608W        W47769   7.169   3.320   0.674
82609W        W47770  29.130  37.072  14.244
82610W        W47771   7.096  21.267  14.491
82611W        W47772  12.167  32.369   3.605
82612W        W47773  31.106   1.227  11.521
82613W        W47774  19.887   6.208  10.275
82614W        W47775  11.176  40.389   3.279
82615W        W47776  38.182  15.742  11.941
82616W        W47777  43.274  26.654  13.677
82617W        W47778  40.009  34.246   0.732
82618W        W47779   1.416  39.375  13.447
82619W        W47780  11.141  17.756  12.835
82620W        W47781  29.008  31.466  10.619
82621W        W47782  25.032   6.958   2.296
82622W        W47783  25.711  25.871   1.190
82623W        W47784  10.969  42.378  11.644
82624W        W47785  39.600   0.768  14.547
82625W        W47786   4.786  25.480   0.454
82626W        W47787  17.929   8.701   0.331
82627W        W47788  12.746   8.125   1.517
82628W        W47789  15.282  31.147   0.315
82629W        W47790  12.639  29.437   3.556
82630W        W47791  24.641  20.868  13.502
82631W        W47792  27.445  37.117   3.903
82632W        W47793  36.884   0.503  14.935
82633W        W47794  26.147  35.651  12.020
82634W        W47795  16.677  35.819   4.618
82635W        W47796   0.553  44.878   3.574
82636W        W47797  21.101   3.621   0.401
82637W        W47798  30.495  20.729  13.740
82638W        W47799  16.345   9.951  14.275
82639W        W47800  22.672  28.800  11.031
82640W        W47801  42.108  15.844   4.111
82641W        W47802  10.846  13.161  13.487
82642W        W47803  11.596  39.989   2.224
82643W        W47804  19.233  36.488  10.779
82644W        W47805   3.245  12.292  11.477
82645W        W47806   8.325   4.208  12.003
82646W        W47807  12.618  28.603   0.887
82647W        W47808   9.483  12.168  13.919
82648W        W47809  18.828  12.636   1.763
82649W        W47810  10.894   9.218  14.419
82650W        W47811   9.282  16.045  13.121
82651W        W47812   3.965  35.543   0.967
82652W        W47813  30.363  37.447   1.705
82653W        W47814  29.397   3.346   0.337
82654W        W47815  11.322  32.140  11.407
82655W        W47816  12.900   4.899   2.709
82656W        W47817  13.658  17.275   1.885
82657W        W47818   7.116  37.966  12.440
82658W        W47819  32.648  33.640  10.299
82659W        W47820  40.372  41.098  12.635
82660W        W47821  33.074  18.021  14.826
82661W        W47822  34.145  23.710  14.366
82662W        W47823  13.735  43.021   0.507
82663W        W47824   4.513  30.471  13.490
82664W        W47825  37.050  28.645  14.925
82665W        W47826  38.306  12.252  13.175
82666W        W47827   9.448  35.877   1.179
82667W        W47828  11.954   6.771  13.540
82668W        W47829   6.784  29.872   2.900
82669W        W47830  24.358  40.708  10.693
82670W        W47831  40.882  41.903  13.973
82671W        W47832  23.704  24.364  11.673
82672W        W47833  26.480  28.084   3.273
82673W        W47834  12.670  31.989   0.809
82674W        W47835  14.232  14.695   3.610
82675W        W47836   1.858  41.777   2.352
82676W        W47837  29.634  37.462  11.720
82677W        W47838  15.066  26.574  13.763
82678W        W47839  44.522  36.429   4.689
82679W        W47840   7.953  20.112   4.595
82680W        W47841  18.661  34.831   2.593
82681W        W47842  34.575  33.656  10.706
82682W        W47843  18.162  13.874   0.424
82683W        W47844  43.851  37.980  12.893
82684W        W47845  14.662   4.256   4.919
82685W        W47846  15.714  35.827  14.926
82686W        W47847   5.319  37.889  14.609
82687W        W47848  33.709  28.276   5.171
82688W        W47849  16.301   7.100   0.592
82689W        W47850  23.200  15.650   1.329
82690W        W47851  11.789   6.714  11.215
82691W        W47852  10.724  11.221  11.436
82692W        W47853  16.823  18.275   0.846
82693W        W47854   1.308  35.603   2.369
82694W        W47855  25.652  27.767   3.169
82695W        W47856  18.600   6.995  12.531
82696W        W47857  11.080  10.635  14.051
82697W        W47858  41.767  12.411  12.083
82698W        W47859  35.564   2.767  13.511
82699W        W47860  34.877  18.861  12.129
82700W        W47861  31.663  18.009   4.421
82701W        W47862  16.502  28.125   1.276
82702W        W47863  26.671  37.086   3.707
82703W        W47864   3.130   4.435  13.307
82704W        W47865  11.863  28.931   2.791
82705W        W47866   0.595  43.674  14.486
82706W        W47867  26.134   8.457   5.119
82707W        W47868  35.002   3.395   4.959
82708W        W47869  23.906  39.381  12.885
82709W        W47870  19.278   3.480  14.585
82710W        W47871  42.526  25.081   4.999
82711W        W47872   6.776  10.007   3.809
82712W        W47873  37.935   4.613  10.107
82713W        W47874  14.792   1.026  11.129
82714W        W47875  32.989   1.853   3.783
82715W        W47876   2.905  39.787   3.701
82716W        W47877  14.180  44.246   2.725
82717W        W47878   6.533  35.346   2.696
82718W        W47879  20.404  27.569   4.072
82719W        W47880  29.254  20.659  13.293
82720W        W47881   1.652  35.324  12.978
82721W        W47882  25.910  40.775  10.720
82722W        W47883  33.826  26.154   3.139
82723W        W47884  35.807  32.552   2.270
82724W        W47885  35.616  16.505  10.580
82725W        W47886  38.358  26.072   0.902
82726W        W47887  28.269  35.921   1.260
82727W        W47888  38.673  33.433   3.767
82728W        W47889  32.437  40.964  10.586
82729W        W47890   2.727  40.426   1.646
82730W        W47891   5.738  16.619   2.317
82731W        W47892   1.281  35.940   1.201
82732W        W47893  36.482  40.315   2.196
82733W        W47894  31.784   3.412  11.183
82734W        W47895  35.082  10.783  14.546
82735W        W47896   8.054  25.648   3.959
82736W        W47897  42.090  14.041  13.315
82737W        W47898  39.981  19.563   4.617
82738W        W47899  16.241  11.253  14.913
82739W        W47900  29.511   8.927  13.689
82740W        W47901  35.798   6.941   1.534
82741W        W47902  18.010  38.891   0.760
82742W        W47903  17.210   1.374  10.639
82743W        W47904  30.467  27.558  13.185
82744W        W47905  35.219  42.454  14.969
82745W        W47906  31.646   9.797  13.032
82746W        W47907   8.411   4.726   2.181
82747W        W47908  30.083  25.775  13.042
82748W        W47909  14.556   1.792  14.932
82749W        W47910  33.363  44.995   4.219
82750W        W47911   0.937  42.319   0.371
82751W        W47912  28.645   9.644  13.307
82752W        W47913   8.745   4.933   1.412
82753W        W47914  38.676  15.541   0.445
82754W        W47915  19.024  26.438  11.571
82755W        W47916   4.319  43.973   3.803
82756W        W47917  13.635  15.805  12.656
82757W        W47918  18.051  34.773   4.716
82758W        W47919  42.429  30.074  12.197
82759W        W47920   2.305   4.007   4.383
82760W        W47921   2.825  10.602   1.671
82761W        W47922  31.279  30.013   2.201
82762W        W47923   7.884  13.411  12.854
82763W        W47924  16.514   2.380   1.398
82764W        W47925   1.804  29.954   1.353
82765W        W47926  10.024  13.961  13.576
82766W        W47927  39.336  15.554   4.264
82767W        W47928  17.538  41.053  12.598
82768W        W47929  33.176  27.627  14.263
82769W        W47930   0.174   0.832   0.140
82770W        W47931  29.440  28.606  14.734
82771W        W47932  20.567  18.607  12.076
82772W        W47933  43.630  30.250   1.967
82773W        W47934  34.106  42.991  11.844
82774W        W47935  28.650  35.947   4.345
82775W        W47936   0.406  20.044   2.362
82776W        W47937  27.920  16.447  14.087
82777W        W47938  37.639  13.292   2.805
82778W        W47939   9.701  14.815  13.061
82779W        W47940   0.970  24.727  12.431
82780W        W47941   7.638  31.069   3.422
82781W        W47942  38.921  12.689   2.436
82782W        W47943  43.679  24.202  12.639
82783W        W47944  31.571  28.113  10.429
82784W        W47945  12.138  20.710   4.042
82785W        W47946  24.348  17.752  11.601
82786W        W47947  28.442  17.843  13.561
82787W        W47948  38.644  26.101  11.557
82788W        W47949  19.965  41.340   4.465
82789W        W47950  12.743   1.242  13.996
82790W        W47951  35.786  43.131   2.691
82791W        W47952  24.791  36.977   5.493
82792W        W47953  35.638  30.003   0.691
82793W        W47954  15.666  15.195   3.068
82794W        W47955  38.152  28.689   2.681
82795W        W47956  37.429  15.961   0.365
82796W        W47957  44.780   3.808  13.800
82797W        W47958  43.385  19.608   5.109
82798W        W47959  40.894  38.937  14.486
82799W        W47960  18.812   7.904  13.596
82800W        W47961  18.667  18.218  12.428
82801W        W47962   9.818   2.747   1.281
82802W        W47963   2.375   8.678   3.100
82803W        W47964  31.215  36.404   2.462
82804W        W47965  24.353   0.894   0.257
82805W        W47966  31.717  12.338  13.292
82806W        W47967   6.162  19.154   2.659
82807W        W47968   1.240  11.320   4.564
82808W        W47969  32.990  21.606  12.821
82809W        W47970  30.541  20.139  12.898
82810W        W47971  27.444  33.570  10.872
82811W        W47972   8.143  18.807   0.849
82812W        W47973   6.382  25.113  12.072
82813W        W47974  29.989  21.457  13.958
82814W        W47975  23.685   8.128   1.169
82815W        W47976  22.954   3.971   0.828
82816W        W47977  37.473  20.001   4.645
82817W        W47978  29.420   3.359  11.703
82818W        W47979  25.585   2.027  11.991
82819W        W47980   1.613  42.451  14.784
82820W        W47981  37.194   6.735   0.388
82821W        W47982  36.838  16.184   4.593
82822W        W47983  36.776   9.868  11.233
82823W        W47984  18.645  14.065   3.063
82824W        W47985  22.811  14.340   4.625
82825W        W47986   1.491  39.491   0.418
82826W        W47987  23.839  20.948   4.519
82827W        W47988  40.840   8.295   4.321
82828W        W47989   8.974  33.658  13.336
82829W        W47990  41.973  35.905  13.452
82830W        W47991   6.350   1.012  14.279
82831W        W47992  33.901  25.474  11.142
82832W        W47993  30.926  14.697   3.850
82833W        W47994  39.745   2.041  11.165
82834W        W47995  22.301  40.014   1.877
82835W        W47996  30.879   7.771  11.189
82836W        W47997  15.527  21.097   4.070
82837W        W47998  33.102  26.392  12.786
82838W        W47999  42.507  39.740  11.632
82839W        W48000   5.283  31.574  13.849
82840W        W48001   5.526  37.994  11.995
82841W        W48002   8.332   0.195   4.074
82842W        W48003  32.532  15.739   0.737
82843W        W48004  12.907  37.948   3.864
82844W        W48005  25.487   2.192   0.814
82845W        W48006  22.273  10.436   2.670
82846W        W48007   1.391   0.804  14.255
82847W        W48008  24.026  19.344   0.623
82848W        W48009   6.440  44.944   1.428
82849W        W48010  38.702  23.583  12.082
82850W        W48011   5.838  32.693  11.188
82851W        W48012  12.204  42.246   2.273
82852W        W48013  26.130  30.534   0.687
82853W        W48014  22.992  11.539  11.579
82854W        W48015  43.669  17.823  12.504
82855W        W48016  15.773  12.549  11.177
82856W        W48017  14.824   8.765  11.372
82857W        W48018   7.574  36.499  10.686
82858W        W48019  41.928  15.383   2.383
82859W        W48020   5.917  21.100   4.653
82860W        W48021   2.828  27.710   2.354
82861W        W48022  33.013  35.634   3.818
82862W        W48023  35.589  28.918   2.481
82863W        W48024  40.971  24.792  13.953
82864W        W48025   0.344  25.857  12.162
82865W        W48026   9.006  21.815   3.256
82866W        W48027  20.749  38.223   2.895
82867W        W48028  36.104  33.460   4.246
82868W        W48029  26.119  34.595   0.869
82869W        W48030  43.802  14.604  13.397
82870W        W48031  32.265  26.562  13.385
82871W        W48032  42.286  33.528   3.353
82872W        W48033  24.635   8.524   4.724
82873W        W48034  15.231  27.415  12.771
82874W        W48035  16.809  32.908  13.025
82875W        W48036  32.486   5.795   3.836
82876W        W48037  12.309  35.823  13.509
82877W        W48038  11.718  39.491   2.428
82878W        W48039  34.796  23.579   4.551
82879W        W48040  15.699  21.672   0.479
82880W        W48041  11.681  25.975  12.816
82881W        W48042  10.233  26.578  14.468
82882W        W48043  26.996  19.983   4.167
82883W        W48044  32.362  35.689   4.374
82884W        W48045   7.906  39.789   2.260
82885W        W48046   6.149  20.058   2.691
82886W        W48047  13.117  14.326  12.540
82887W        W48048  39.566  21.495   0.575
82888W        W48049  12.916  37.346  14.365
82889W        W48050   8.090  33.037  11.109
82890W        W48051  44.728  39.402  12.412
82891W        W48052  40.304   3.322   1.912
82892W        W48053  29.432  19.314   1.214
82893W        W48054  35.860  18.875   4.726
82894W        W48055  39.955   4.652   3.186
82895W        W48056  23.492  37.599  11.638
82896W        W48057  29.170  21.934  12.025
82897W        W48058  41.222  11.281  13.028
82898W        W48059  17.748  31.021   4.522
82899W        W48060  14.771  14.373   0.039
82900W        W48061  43.275  26.209  11.545
82901W        W48062  42.364  18.016   0.317
82902W        W48063  31.883  20.264   0.913
82903W        W48064  34.382  33.868  11.576
82904W        W48065   5.168  27.044  13.867
82905W        W48066  21.061  38.327  11.318
82906W        W48067  38.206  35.838  13.024
82907W        W48068  27.485  37.360  10.906
82908W        W48069  28.100  14.664  12.638
82909W        W48070  26.566  25.961  10.367
82910W        W48071   3.626  22.622   3.077
82911W        W48072  23.932  12.997   3.250
82912W        W48073  37.485  36.641  11.614
82913W        W48074  39.402  11.638  11.590
82914W        W48075  18.851   4.673  11.271
82915W        W48076  38.333  36.919  12.865
82916W        W48077  14.290  27.623   3.719
82917W        W48078  10.087  25.482   4.172
82918W        W48079   5.458  43.361   1.807
82919W        W48080  31.725  38.717   4.603
82920W        W48081  41.524  33.535  11.148
82921W        W48082  29.253  42.932  14.258
82922W        W48083   8.335  22.784   0.790
82923W        W48084  37.970  11.908  14.422
82924W        W48085   5.476  24.902  13.825
82925W        W48086   7.756  38.616  10.425
82926W        W48087  11.072  38.000  14.604
82927W        W48088  42.800  31.621   3.283
82928W        W48089   4.490   3.232  10.683
82929W        W48090  36.938  30.993   3.882
82930W        W48091   4.011  14.755  11.491
82931W        W48092  23.094  38.256  10.688
82932W        W48093  21.660   0.518  11.472
82933W        W48094  18.623  22.385  10.362
82934W        W48095   2.656  29.006  11.216
82935W        W48096   5.930  29.618  13.009
82936W        W48097  13.325  39.055   0.899
82937W        W48098  28.329  28.081  12.451
82938W        W48099  39.448  41.044  14.193
82939W        W48100  13.648  11.707  12.051
82940W        W48101  21.882  28.206  14.770
82941W        W48102  16.679   4.495  11.173
82942W        W48103  12.665   1.728  13.798
82943W        W48104  30.364   5.506  14.150
82944W        W48105  19.620  11.654  12.492
82945W        W48106  32.191   3.231  13.608
82946W        W48107   5.783   3.985  11.973
82947W        W48108  27.346  38.905   3.199
82948W        W48109  44.592  35.350   1.538
82949W        W48110  42.952   4.225   2.770
82950W        W48111   5.552  14.541  10.703
82951W        W48112  21.467  21.013   2.348
82952W        W48113   7.837   0.594   0.072
82953W        W48114  37.393  14.883  10.758
82954W        W48115  27.080  26.149   2.192
82955W        W48116  22.019   7.936  13.616
82956W        W48117  41.293  41.030   1.773
82957W        W48118  43.640   5.491  14.719
82958W        W48119  36.921  27.639  14.438
82959W        W48120   0.960  40.391  13.902
82960W        W48121  31.719  33.640  13.571
82961W        W48122   7.377  20.282   4.231
82962W        W48123  24.660   5.677   2.269
82963W        W48124   5.387  33.768  13.539
82964W        W48125   3.670  40.560  12.004
82965W        W48126  33.386  39.007   1.435
82966W        W48127   9.345  19.942  14.473
82967W        W48128  15.856  27.367   4.517
82968W        W48129   1.975  19.401   1.767
82969W        W48130  34.962   8.358  14.051
82970W        W48131  19.658   0.086  10.621
82971W        W48132   2.280  28.458   4.174
82972W        W48133  31.415  36.408   4.661
82973W        W48134  27.175  18.697  14.047
82974W        W48135  39.136   3.552  14.376
82975W        W48136  20.685  20.005   2.568
82976W        W48137  11.800  41.331   2.399
82977W        W48138  42.577  16.329   2.964
82978W        W48139  44.311  22.058  11.486
82979W        W48140  16.891  42.128   4.111
82980W        W48141  17.815  25.186  10.443
82981W        W48142   1.061  43.462   2.558
82982W        W48143  11.312  13.276  10.635
82983W        W48144   4.796   6.721  11.441
82984W        W48145  43.413  16.171  12.996
82985W        W48146  28.087  24.226  12.913
82986W        W48147  24.022  17.144   4.533
82987W        W48148  20.373  15.207  13.506
82988W        W48149  38.063  31.498  11.964
82989W        W48150  40.131  41.763   2.607
82990W        W48151  31.277  39.888  11.470
82991W        W48152   7.274  14.130  13.295
82992W        W48153  14.093   1.000   4.033
82993W        W48154  11.380   2.477  12.518
82994W        W48155   5.710  12.569   4.695
82995W        W48156  18.741  21.899   0.016
82996W        W48157  35.527  39.751   1.144
82997W        W48158  30.024  19.526  11.118
82998W        W48159  29.647  24.798   3.418
82999W        W48160  35.562  23.608   1.501
83000W        W48161  30.010   0.830  10.602
83001W        W48162  17.063  31.611   3.203
83002W        W48163   8.918   4.787  13.449
83003W        W48164  13.226  32.387  11.009
83004W        W48165  37.778  39.412  14.977
83005W        W48166  13.107  36.334   3.744
83006W        W48167   6.281  32.042   0.772
83007W        W48168  19.188  23.167  13.987
83008W        W48169  16.316  33.082  13.015
83009W        W48170  33.058   1.741   3.280
83010W        W48171  37.579   0.957  13.545
83011W        W48172  27.155  35.664   4.132
83012W        W48173  42.949   1.938   4.151
83013W        W48174  21.350  40.994  11.108
83014W        W48175  23.547  10.859   0.905
83015W        W48176   4.687  15.372  12.468
83016W        W48177  22.066  38.850  13.071
83017W        W48178  35.075   1.347  14.147
83018W        W48179  10.887   8.488  10.846
83019W        W48180  10.257  35.022  13.896
83020W        W48181  42.860  18.408   4.654
83021W        W48182  23.222  40.217  14.517
83022W        W48183  36.857  24.190   3.752
83023W        W48184   4.774  25.612  13.988
83024W        W48185  26.669   6.812   4.161
83025W        W48186  23.393   9.177   3.261
83026W        W48187  28.879  29.330   1.390
83027W        W48188   4.216  20.202  14.857
83028W        W48189   1.904  22.766  12.998
83029W        W48190   5.965  26.171  14.723
83030W        W48191   6.614   9.856  11.538
83031W        W48192  16.564  38.271   4.904
83032W        W48193   9.714  19.635  14.683
83033W        W48194  44.029  26.631  10.649
83034W        W48195  26.723  25.325   3.648
83035W        W48196  41.648  41.084  10.781
83036W        W48197  28.957  13.639  14.539
83037W        W48198   0.067  37.696   5.681
83038W        W48199   6.200  34.028   1.460
83039W        W48200  20.750  37.434  12.923
83040W        W48201   0.209  37.358   1.803
83041W        W48202   1.822  31.684   1.840
83042W        W48203  27.472  22.637   3.322
83043W        W48204  13.640  42.579   0.958
83044W        W48205  20.496  41.109   0.260
83045W        W48206  43.962   2.937   2.768
83046W        W48207  37.864  41.800  10.536
83047W        W48208  44.431  28.680  14.952
83048W        W48209  12.587  34.535   3.399
83049W        W48210  17.571  40.333   0.022
83050W        W48211  10.769  19.048  13.865
83051W        W48212  24.812   4.932  11.075
83052W        W48213  38.237  10.293   4.782
83053W        W48214  40.528  42.935  12.392
83054W        W48215   4.944  15.070  11.052
83055W        W48216  25.403  12.375  11.074
83056W        W48217  35.877  12.172   1.310
83057W        W48218  36.956  37.753  11.140
83058W        W48219  20.529  42.919  14.749
83059W        W48220  42.924  11.100   4.056
83060W        W48221  17.180   4.183  13.846
83061W        W48222   8.149  11.775   4.590
83062W        W48223  13.753  26.208   3.571
83063W        W48224  35.624  27.867  13.254
83064W        W48225  40.806   6.719   3.408
83065W        W48226   1.914   7.882   3.114
83066W        W48227  24.132  36.667  10.879
83067W        W48228  17.352  11.254   1.220
83068W        W48229  39.558  23.220   3.935
83069W        W48230  23.368  16.327  12.459
83070W        W48231  20.695  10.242  13.473
83071W        W48232  20.090  10.807   4.148
83072W        W48233  39.302  42.239   1.862
83073W        W48234  16.581  25.425  12.061
83074W        W48235   2.089   7.513  13.007
83075W        W48236  35.613  32.462  14.610
83076W        W48237  34.382  36.499   9.907
83077W        W48238  24.687  16.980  12.465
83078W        W48239  38.135  36.435   0.713
83079W        W48240  18.467  25.176   0.038
83080W        W48241  14.309  41.043   2.386
83081W        W48242  26.172  35.442   2.837
83082W        W48243  21.460  27.406  10.417
83083W        W48244  26.460   3.465   2.150
83084W        W48245  28.192  39.532   5.272
83085W        W48246  22.559  15.194  13.087
83086W        W48247   2.150   2.944   2.174
83087W        W48248   5.672   1.735  13.268
83088W        W48249  39.771   6.283  14.972
83089W        W48250  12.786  33.395  12.116
83090W        W48251  43.284  19.207   0.454
83091W        W48252  19.213  22.101   3.890
83092W        W48253   8.951  22.076  14.880
83093W        W48254  21.010  36.437  14.790
83094W        W48255  27.567  24.171   1.443
83095W        W48256  15.579  34.817  12.460
83096W        W48257  34.178   7.409  11.988
83097W        W48258  38.460  15.833  12.644
83098W        W48259  41.468  37.963   2.665
83099W        W48260  32.864  20.381  11.610
83100W        W48261  17.725   8.126  11.199
83101W        W48262  28.682  10.093  11.043
83102W        W48263  39.061  22.609  13.518
83103W        W48264  10.611  19.317  11.752
83104W        W48265  25.666  10.670  12.640
83105W        W48266  44.040  35.023   0.819
83106W        W48267  42.820  29.060  13.498
83107W        W48268  41.489   0.627  14.308
83108W        W48269  40.776  43.693   3.662
83109W        W48270  35.355  43.771  13.732
83110W        W48271  22.965  31.387   4.170
83111W        W48272  21.759  40.026  11.139
83112W        W48273  40.085  44.963   0.892
83113W        W48274  33.083  32.346   1.798
83114W        W48275  40.939  43.993   1.329
83115W        W48276   7.546  27.313  12.516
83116W        W48277  39.341  17.618  14.321
83117W        W48278   9.956  13.664  12.385
83118W        W48279  32.483  35.383   3.919
83119W        W48280  19.110  29.338  11.085
83120W        W48281  20.627  35.513   3.846
83121W        W48282   8.640  12.282  10.749
83122W        W48283   6.904  38.945   4.632
83123W        W48284  18.839  33.442   0.089
83124W        W48285  20.067  41.928   4.227
83125W        W48286   7.381   0.007   1.345
83126W        W48287   5.669  17.299  13.896
83127W        W48288   0.950   7.081   5.017
83128W        W48289  12.614   4.352  10.683
83129W        W48290  20.801  41.831   3.508
83130W        W48291  41.672  14.201  13.062
83131W        W48292   3.339   0.530   3.708
83132W        W48293  40.400  36.122  11.598
83133W        W48294  39.511  16.354   1.271
83134W        W48295   2.242  29.590  13.282
83135W        W48296   0.007   2.842  12.423
83136W        W48297  44.000   9.640  12.469
83137W        W48298  19.049  24.116   5.032
83138W        W48299  33.494  29.241   4.081
83139W        W48300  15.915  23.222  11.453
83140W        W48301  21.528  26.873   0.519
83141W        W48302  16.687  31.584   0.268
83142W        W48303   1.227  27.146  13.958
83143W        W48304  12.912   3.177   3.622
83144W        W48305  15.558   9.799  11.723
83145W        W48306  23.619   9.277  14.755
83146W        W48307  37.299  40.300  13.734
83147W        W48308  16.086   4.818   0.503
83148W        W48309  19.704  41.325   1.837
83149W        W48310  11.324  34.045  11.899
83150W        W48311  21.704  40.111  12.060
83151W        W48312  44.738  38.513  12.864
83152W        W48313  26.997  26.862  12.932
83153W        W48314  28.230  18.073   1.729
83154W        W48315  42.334   0.526  13.653
83155W        W48316   2.614  25.881   1.965
83156W        W48317  39.806   6.320  13.007
83157W        W48318  12.780  16.991  11.950
83158W        W48319  34.102   3.349  13.560
83159W        W48320  13.871  32.867  13.052
83160W        W48321  16.710  36.104  10.656
83161W        W48322  39.443  15.770  14.777
83162W        W48323  37.922  44.003  12.575
83163W        W48324  43.721   0.993  14.916
83164W        W48325  41.330  10.745  12.936
83165W        W48326   4.533  10.685   0.794
83166W        W48327  41.253   9.660   4.222
83167W        W48328   3.062  11.857  10.544
83168W        W48329   9.850   5.143   3.169
83169W        W48330  37.595   3.470  11.613
83170W        W48331  32.506  29.533   2.414
83171W        W48332   0.156  23.101  14.256
83172W        W48333  42.128  31.889   0.351
83173W        W48334  27.113  22.472  12.433
83174W        W48335  38.091  28.677   1.669
83175W        W48336  34.881   5.917  11.534
83176W        W48337   5.064  43.551  13.929
83177W        W48338  25.220   8.614   1.263
83178W        W48339  32.322   9.466  13.870
83179W        W48340  37.535  41.576   0.167
83180W        W48341   1.365  20.386  11.787
83181W        W48342  16.614  15.205  14.817
83182W        W48343   1.915  27.169  10.752
83183W        W48344  36.853  42.396  10.995
83184W        W48345  16.725  10.436  12.572
83185W        W48346   9.306  39.510  10.519
83186W        W48347   8.226  14.029   3.330
83187W        W48348   4.496  41.490  12.879
83188W        W48349  10.628  20.741  14.622
83189W        W48350  33.536  38.524  10.308
83190W        W48351  22.632  37.466   0.838
83191W        W48352  21.991   3.464  12.626
83192W        W48353  24.186   2.323  14.454
83193W        W48354   7.337  33.123  13.648
83194W        W48355  37.198   0.367  11.358
83195W        W48356  39.567  29.998  12.880
83196W        W48357   7.078  13.629   4.025
83197W        W48358  23.037  25.010   4.135
83198W        W48359  36.044  41.706   4.257
83199W        W48360   0.934  27.976   3.190
83200W        W48361   4.144  18.189  14.261
83201W        W48362   5.091  35.133  11.210
83202W        W48363  37.045  42.133  10.158
83203W        W48364  28.613   3.194   3.708
83204W        W48365  43.552   9.778  13.488
83205W        W48366  33.338  29.689  10.272
83206W        W48367  29.495  37.713   9.914
83207W        W48368   3.915  32.180   0.371
83208W        W48369  15.560   4.477  12.418
83209W        W48370   4.820   8.123   0.029
83210W        W48371  27.536  38.349   0.055
83211W        W48372  23.057  37.307   1.098
83212W        W48373  41.452  24.781   0.856
83213W        W48374  20.525   3.684   4.036
83214W        W48375   9.470   7.729  11.624
83215W        W48376  27.669  31.874  13.562
83216W        W48377   9.405  21.979  11.081
83217W        W48378  38.253  12.265  12.276
83218W        W48379  36.361  24.188  12.471
83219W        W48380   6.053  38.453   4.162
83220W        W48381  34.358  16.543   0.919
83221W        W48382  17.263   0.902  14.444
83222W        W48383  35.918  13.683   4.155
83223W        W48384  28.174  14.834  12.167
83224W        W48385  24.924  36.598  10.680
83225W        W48386   0.229  39.452  12.468
83226W        W48387  30.345  42.426  11.499
83227W        W48388  20.753  44.014   4.637
83228W        W48389   8.655  21.240  10.351
83229W        W48390   4.990  34.416   3.775
83230W        W48391   3.231  21.627  11.096
83231W        W48392  43.885   4.652   0.706
83232W        W48393   6.999  39.445   1.484
83233W        W48394  20.158  24.731   2.229
83234W        W48395  19.836  16.285   2.272
83235W        W48396   4.699  41.970   1.973
83236W        W48397  20.788  25.980  11.566
83237W        W48398   9.221   3.173  10.249
83238W        W48399   0.089   7.214   0.464
83239W        W48400  32.113  39.122  11.795
83240W        W48401  25.580  24.843  13.008
83241W        W48402  44.870  31.435   3.142
83242W        W48403   5.000   1.816   0.738
83243W        W48404  40.747  26.428   3.797
83244W        W48405   5.185   4.079   1.292
83245W        W48406  17.126  43.309   0.155
83246W        W48407  20.738   9.535   2.356
83247W        W48408  22.160  22.008  13.818
83248W        W48409  17.729   6.936  13.167
83249W        W48410  30.673   0.455  14.084
83250W        W48411  14.552  11.117  11.184
83251W        W48412  19.677   9.217   4.119
83252W        W48413   5.116  21.566  12.199
83253W        W48414  33.633  28.072  11.714
83254W        W48415   6.471   3.478   1.478
83255W        W48416   1.841  26.556  13.343
83256W        W48417  27.300  31.242  12.468
83257W        W48418  14.895   6.034   2.787
83258W        W48419   8.911   6.748   2.750
83259W        W48420   0.087  14.765   2.634
83260W        W48421  33.141  18.013   0.886
83261W        W48422  24.015  27.050   3.236
83262W        W48423  30.358  38.636   2.684
83263W        W48424  18.793  10.259  14.878
83264W        W48425  20.518  21.925   1.833
83265W        W48426  20.000  15.642   2.413
83266W        W48427  41.555  31.288  12.723
83267W        W48428   7.863   9.705  12.889
83268W        W48429  28.097  20.772  11.114
83269W        W48430  15.717  32.052  13.530
83270W        W48431   8.188  27.369   2.795
83271W        W48432  23.052  40.889   2.932
83272W        W48433  20.097  30.100  14.884
83273W        W48434   7.649  29.533  13.796
83274W        W48435  20.284  15.326  12.538
83275W        W48436  37.969   7.331  14.443
83276W        W48437  33.533  26.154  12.622
83277W        W48438   1.910   7.312  12.529
83278W        W48439  20.197  44.468  14.773
83279W        W48440  37.018  30.240   3.295
83280W        W48441   3.434  29.801   4.623
83281W        W48442   7.287  23.157  13.960
83282W        W48443  19.713  40.280  10.945
83283W        W48444   6.464  19.530   3.600
83284W        W48445  15.599  25.903   3.692
83285W        W48446  44.849  16.672  13.478
83286W        W48447  29.905  32.422   1.714
83287W        W48448  28.444  20.194   1.410
83288W        W48449  37.541  35.767  11.042
83289W        W48450  27.920  24.455   0.506
83290W        W48451  25.627  26.229   4.557
83291W        W48452   3.446  23.284   0.922
83292W        W48453  29.864  26.745  11.679
83293W        W48454  20.211   3.844  10.662
83294W        W48455  27.921   9.020   1.918
83295W        W48456  20.337  37.928   0.425
83296W        W48457  20.972  29.022  13.389
83297W        W48458   0.398  27.083  11.483
83298W        W48459  44.793  25.173   0.368
83299W        W48460  15.130  33.900   0.686
83300W        W48461   9.739   8.866  14.297
83301W        W48462  20.963   2.430  14.590
83302W        W48463  12.718  41.500   4.028
83303W        W48464  13.046  41.981  12.024
83304W        W48465  28.184  23.728   1.214
83305W        W48466  18.268  11.749  14.948
83306W        W48467   4.885  28.005  13.945
83307W        W48468  10.315  40.705  10.188
83308W        W48469   8.154  44.432  11.296
83309W        W48470  17.222  23.023  11.624
83310W        W48471   1.679  17.221   1.359
83311W        W48472  28.037   6.230  10.533
83312W        W48473   4.279   0.900  14.881
83313W        W48474  21.367  23.209  10.312
83314W        W48475  28.221   8.066  13.171
83315W        W48476  43.304  13.449   2.753
83316W        W48477  13.544  29.093  13.864
83317W        W48478  17.205  37.360   3.312
83318W        W48479  24.586  12.102   0.587
83319W        W48480  43.252  10.433  12.372
83320W        W48481  44.956  43.205  13.834
83321W        W48482  22.149  14.242   0.767
83322W        W48483  12.317  26.088  13.925
83323W        W48484  10.463  32.519   2.748
83324W        W48485  33.497  43.870   0.745
83325W        W48486   9.850  37.963  11.076
83326W        W48487  40.579  16.282  12.364
83327W        W48488  18.254  28.009   0.540
83328W        W48489   1.230  11.936   3.202
83329W        W48490   6.217  41.904   4.520
83330W        W48491   8.435  41.838  12.930
83331W        W48492   6.815  15.518   0.786
83332W        W48493  36.623  36.474   2.724
83333W        W48494  36.491  36.524   0.851
83334W        W48495  19.657  41.505   4.875
83335W        W48496   7.261   1.334  13.755
83336W        W48497  26.140  11.332   4.196
83337W        W48498   3.062  38.299  14.781
83338W        W48499  41.443  43.647   4.885
83339W        W48500  25.115  22.351   2.226
83340W        W48501  42.239  13.828   1.608
83341W        W48502  33.711  33.146  14.043
83342W        W48503  32.817  41.841  14.391
83343W        W48504  23.098  32.141   1.836
83344W        W48505  20.203  30.381   1.320
83345W        W48506  26.543   7.740  10.552
83346W        W48507  12.492  11.932   0.850
83347W        W48508  18.246  15.831   0.003
83348W        W48509   2.303  26.092   1.598
83349W        W48510  13.497  25.194  13.108
83350W        W48511  19.997  12.840   2.189
83351W        W48512   1.190   3.276  13.885
83352W        W48513  23.417  30.531  12.009
83353W        W48514   9.407  29.079  10.744
83354W        W48515   1.708  11.305  12.188
83355W        W48516  39.053  12.893  10.015
83356W        W48517  21.651  24.826  14.822
83357W        W48518   4.417  43.947  12.755
83358W        W48519  40.352  40.149  12.444
83359W        W48520  17.580  40.278   2.230
83360W        W48521   7.522  22.978  13.451
83361W        W48522  10.367   1.486  13.546
83362W        W48523  15.230  20.275  13.396
83363W        W48524  33.513  34.765   3.285
83364W        W48525  13.364  15.547   9.884
83365W        W48526  33.661  11.323  13.164
83366W        W48527  20.716  43.571  13.996
83367W        W48528  15.566  27.695   4.248
83368W        W48529  15.777  33.026  12.244
83369W        W48530  34.052  16.634   4.275
83370W        W48531  28.209  13.375   0.948
83371W        W48532  19.061  42.534  12.938
83372W        W48533  37.922  28.413  12.969
83373W        W48534  27.478  35.352  13.859
83374W        W48535  34.319  19.823   3.208
83375W        W48536  42.833  18.125   2.097
83376W        W48537   0.374  15.722   2.626
83377W        W48538  34.618  10.597   1.682
83378W        W48539  32.841  32.117  12.798
83379W        W48540  22.774   7.784   3.390
83380W        W48541  15.065  42.540   4.012
83381W        W48542  10.818  17.105   1.520
83382W        W48543   3.248   0.963  10.664
83383W        W48544  22.048  30.142   3.016
83384W        W48545  44.229  40.500   3.214
83385W        W48546  15.787   5.444   2.759
83386W        W48547   6.753  42.225  12.493
83387W        W48548  30.400  23.928   0.914
83388W        W48549   3.507   4.444   3.310
83389W        W48550  25.382  15.116  13.145
83390W        W48551  18.682  25.051  10.716
83391W        W48552  18.585  33.116   4.409
83392W        W48553  11.575  23.033  10.736
83393W        W48554  28.144  26.493  11.746
83394W        W48555  17.645  27.180  10.526
83395W        W48556   8.952   8.622   3.741
83396W        W48557  14.114   8.339  14.804
83397W        W48558  18.158   4.374   4.577
83398W        W48559  13.961   8.803   1.248
83399W        W48560  20.756  18.847  11.072
83400W        W48561  33.407  32.521   4.779
83401W        W48562  26.107  22.132  11.709
83402W        W48563  30.382  42.384  10.638
83403W        W48564  35.402  24.920  11.118
83404W        W48565  31.072  30.423   3.188
83405W        W48566  29.033  34.836  14.831
83406W        W48567  23.535  31.990   1.003
83407W        W48568  22.439  26.540   2.227
83408W        W48569  28.481  24.194  11.566
83409W        W48570  22.620  18.749  10.705
83410W        W48571  25.126  11.296   2.444
83411W        W48572  11.214  12.230   0.910
83412W        W48573  14.664  13.639  13.587
83413W        W48574  42.797  18.646  10.934
83414W        W48575  30.013  39.472  13.218
83415W        W48576  43.421  12.120  11.440
83416W        W48577  12.850  11.386   3.756
83417W        W48578   5.245  33.585   0.043
83418W        W48579  10.866   2.622   0.505
83419W        W48580   2.418   0.260   4.577
83420W        W48581  22.764   9.861  12.894
83421W        W48582  12.450  26.608   1.332
83422W        W48583   9.126  38.939   4.099
83423W        W48584   3.738  20.791   1.729
83424W        W48585  20.550  40.597  10.556
83425W        W48586  27.670  38.079  13.636
83426W        W48587  28.753   4.963  12.644
83427W        W48588  42.850  27.286   3.931
83428W        W48589   4.861   5.881  10.289
83429W        W48590  44.361  17.365   3.650
83430W        W48591  26.588  43.961   4.188
83431W        W48592  29.070   7.202  13.979
83432W        W48593  43.278  44.361  12.271
83433W        W48594  18.161   2.135  14.505
83434W        W48595  24.889  44.448  12.798
83435W        W48596  11.667  13.538  13.770
83436W        W48597  41.662  39.417   3.696
83437W        W48598  33.947  26.528   4.159
83438W        W48599  26.000  33.580   2.776
83439W        W48600  25.665   7.684   2.690
83440W        W48601  22.757  15.336   2.334
83441W        W48602  14.800   7.363  10.776
83442W        W48603  38.126  33.622  14.625
83443W        W48604  18.524  27.953  13.421
83444W        W48605  37.886  36.464   4.886
83445W        W48606   1.286   6.397  13.047
83446W        W48607   7.303   1.222   0.895
83447W        W48608  39.951  26.012  13.755
83448W        W48609  33.530   3.280  12.149
83449W        W48610  35.368  44.559  11.172
83450W        W48611  11.886  28.409   2.764
83451W        W48612  36.043  32.105  13.895
83452W        W48613  34.687  30.335   0.266
83453W        W48614   9.884   3.318   3.394
83454W        W48615  25.940   3.846  11.917
83455W        W48616   7.161   6.787   0.149
83456W        W48617  38.938  23.449  12.958
83457W        W48618  37.947  18.249  10.713
83458W        W48619   2.289  42.506   3.937
83459W        W48620   3.492  15.249   4.180
83460W        W48621  32.102  19.136   2.771
83461W        W48622  21.942   7.717   4.806
83462W        W48623  38.427   0.177  12.638
83463W        W48624  30.384  37.217  12.433
83464W        W48625  34.031  33.960   0.010
83465W        W48626  41.925   7.867   1.799
83466W        W48627   3.158   5.377  14.499
83467W        W48628  10.581  44.129  14.815
83468W        W48629  28.705   3.210  13.902
83469W        W48630  38.405  17.854  12.589
83470W        W48631   1.847  19.661   4.205
83471W        W48632  26.029   6.213   3.515
83472W        W48633  22.205   8.565  10.158
83473W        W48634   1.384  15.537   3.585
83474W        W48635  42.232  14.510   5.091
83475W        W48636  30.950  43.781  13.059
83476W        W48637   4.949   9.147  13.353
83477W        W48638  15.220  32.337  14.461
83478W        W48639   8.338  23.283  11.654
83479W        W48640  27.532  11.205   0.273
83480W        W48641  12.690   4.358   4.063
83481W        W48642  19.234   5.933  11.229
83482W        W48643  19.320  37.822   1.502
83483W        W48644  13.838   9.385   4.840
83484W        W48645  19.323  41.483  13.088
83485W        W48646  12.243  34.908   2.739
83486W        W48647   3.326  40.029  13.061
83487W        W48648  36.620  32.238   2.198
83488W        W48649  33.948  41.841   5.053
83489W        W48650  31.824  30.841  10.748
83490W        W48651   6.230   9.858   4.143
83491W        W48652   7.645   3.411  14.409
83492W        W48653  24.673  33.345  12.389
83493W        W48654  32.134   0.686  14.777
83494W        W48655  18.346  42.736   9.647
83495W        W48656  29.898  13.746  10.696
83496W        W48657  42.861  12.028  13.274
83497W        W48658  34.435  15.282  12.527
83498W        W48659  16.653  38.062   2.686
83499W        W48660   9.359  32.650   2.452
83500W        W48661  35.924  12.833   4.370
83501W        W48662  16.415  10.602  11.501
83502W        W48663  38.120   8.635   4.731
83503W        W48664  16.603  13.695  11.838
83504W        W48665   4.949  39.999  11.968
83505W        W48666  36.460  20.189  14.359
83506W        W48667  20.078  34.563  14.074
83507W        W48668  38.617  32.620  11.596
83508W        W48669  14.772  32.621  11.244
83509W        W48670  19.154  16.838   1.202
83510W        W48671  41.527  13.587   3.148
83511W        W48672   9.403  43.259   0.286
83512W        W48673  28.640  21.341   0.626
83513W        W48674  37.959  18.540  11.156
83514W        W48675   4.630   3.324   1.240
83515W        W48676  39.118  14.909  13.378
83516W        W48677  44.736  23.921   3.199
83517W        W48678  44.826  11.650   4.064
83518W        W48679  33.050  12.320   1.757
83519W        W48680  15.076  14.669   2.593
83520W        W48681  15.465  16.680   3.557
83521W        W48682  25.664  35.703   2.300
83522W        W48683  40.897  26.614   0.650
83523W        W48684  43.505  26.613   5.002
83524W        W48685  42.339  31.577   1.713
83525W        W48686   3.413  11.923   5.074
83526W        W48687  33.008  32.130  11.893
83527W        W48688  19.805  38.794   1.408
83528W        W48689   3.201  25.484  13.885
83529W        W48690  42.942   0.764   0.296
83530W        W48691  17.985  21.730  13.365
83531W        W48692  26.569   4.976  14.864
83532W        W48693  30.420  26.195   3.322
83533W        W48694  17.907  24.628   3.237
83534W        W48695  15.781  21.035   4.531
83535W        W48696  39.499  39.354   4.900
83536W        W48697  15.262  16.262   4.506
83537W        W48698  29.525  35.564  14.712
83538W        W48699  40.467  26.020   3.134
83539W        W48700   2.116  30.465   1.375
83540W        W48701  19.722   1.305   2.186
83541W        W48702  13.443  35.134  12.409
83542W        W48703  36.970   7.397   4.961
83543W        W48704  12.356   6.654  10.668
83544W        W48705  23.904  31.919   5.152
83545W        W48706  18.050  22.789   1.706
83546W        W48707  19.507  25.637   3.602
83547W        W48708  36.823  43.982   2.387
83548W        W48709  27.162  37.479   2.638
83549W        W48710   0.411  23.083   0.906
83550W        W48711   0.756   0.231   2.719
83551W        W48712  38.585   7.716  13.925
83552W        W48713  29.156  21.107  12.106
83553W        W48714  20.514  44.037   3.253
83554W        W48715   9.593  34.642  13.182
83555W        W48716  31.909  21.371   0.952
83556W        W48717   7.268   9.422  13.579
83557W        W48718  16.848   6.857  12.873
83558W        W48719  41.385  17.012  10.942
83559W        W48720  44.308  12.676   2.234
83560W        W48721   1.845  34.853   1.032
83561W        W48722  15.080  12.619  12.198
83562W        W48723  11.149  35.084   0.498
83563W        W48724  43.583  35.589   5.527
83564W        W48725  23.725  33.486   4.222
83565W        W48726  39.822   9.618  13.223
83566W        W48727  35.862  18.851   2.807
83567W        W48728  35.850   1.254  13.593
83568W        W48729  23.065  29.508  10.256
83569W        W48730  30.168   5.795  10.742
83570W        W48731  33.686   7.166   4.098
83571W        W48732  32.887  22.756   0.059
83572W        W48733  40.452  15.482   1.319
83573W        W48734  21.987  31.395  11.085
83574W        W48735  44.519  44.440  13.009
83575W        W48736  22.142   7.830  11.560
83576W        W48737  18.510  39.369  13.236
83577W        W48738   7.344  22.847   4.141
83578W        W48739  17.558  44.332  11.499
83579W        W48740  42.145  30.753   0.406
83580W        W48741  43.721  44.020  12.482
83581W        W48742  19.689  35.450   0.014
83582W        W48743  16.958   5.359  10.890
83583W        W48744   5.441  40.450   0.282
83584W        W48745   0.400  19.225   3.900
83585W        W48746  16.809  21.708   4.180
83586W        W48747  20.435  37.875  14.906
83587W        W48748  38.633   3.512  14.354
83588W        W48749  10.184  41.568   5.018
83589W        W48750  36.532   0.161  14.732
83590W        W48751   7.251  21.223   1.754
83591W        W48752  27.172   6.368   3.725
83592W        W48753  18.744  44.565  13.309
83593W        W48754  22.814  25.200  12.001
83594W        W48755  40.327  23.462  13.460
83595W        W48756  15.696  35.360   2.226
83596W        W48757  31.889  11.192   4.199
83597W        W48758  28.726  21.130   3.325
83598W        W48759  11.928  32.116  12.525
83599W        W48760  13.849  22.721  11.006
83600W        W48761  11.247  19.685  13.166
83601W        W48762  17.292  31.432  13.623
83602W        W48763  27.305   9.728   3.351
83603W        W48764   0.331  39.025   5.426
83604W        W48765   4.769   4.148   4.662
83605W        W48766   7.722  36.888   0.974
83606W        W48767  41.263  14.408   0.334
83607W        W48768  18.111  19.238  14.042
83608W        W48769   3.895  29.894  13.159
83609W        W48770  12.816  42.051   2.199
83610W        W48771  26.000  32.138   3.079
83611W        W48772  29.562   9.652  13.215
83612W        W48773  22.978  43.504   2.353
83613W        W48774   4.908   7.058  12.970
83614W        W48775  27.761  18.844   4.122
83615W        W48776  18.451  12.805   4.086
83616W        W48777   2.673  41.618  12.753
83617W        W48778  32.610  32.408  10.580
83618W        W48779  18.729   3.543  13.896
83619W        W48780  40.225  24.250   3.828
83620W        W48781   9.289  29.924   1.709
83621W        W48782  28.413  26.103   3.206
83622W        W48783  41.298   1.201   0.982
83623W        W48784   8.732  42.459  13.599
83624W        W48785  33.912  33.484   1.271
83625W        W48786  40.493  16.213  11.862
83626W        W48787  12.390  42.179  11.494
83627W        W48788  37.807   5.835   4.905
83628W        W48789   1.217  23.619   3.763
83629W        W48790  12.735  31.579  12.491
83630W        W48791  38.973  38.227  10.010
83631W        W48792  18.544   0.885   2.767
83632W        W48793  25.627  34.645  13.965
83633W        W48794  31.481  26.417   4.573
83634W        W48795  44.059  42.512  14.856
83635W        W48796  27.165   3.278   4.156
83636W        W48797  38.801  16.018   1.796
83637W        W48798  16.104   1.657  12.505
83638W        W48799   9.456   9.463   0.397
83639W        W48800   4.764   4.810   0.598
83640W        W48801   9.933  36.189  13.115
83641W        W48802  15.754   6.717   3.883
83642W        W48803  38.053  38.501  12.077
83643W        W48804  25.597   1.271  13.257
83644W        W48805  34.373  12.551  10.835
83645W        W48806   9.588  17.255  12.412
83646W        W48807  41.284   2.296  13.597
83647W        W48808  44.415  44.818   2.889
83648W        W48809  38.359   9.234   0.797
83649W        W48810  31.414   3.475  14.405
83650W        W48811  38.793  32.037  13.011
83651W        W48812  38.090  14.777   3.743
83652W        W48813  36.390   3.000   0.809
83653W        W48814  12.049  13.210  14.512
83654W        W48815  28.905  42.232   1.733
83655W        W48816   0.308  22.650  11.054
83656W        W48817  19.741  16.043  12.515
83657W        W48818  32.935   1.465  14.339
83658W        W48819   4.994  24.682  14.162
83659W        W48820   0.220   9.662  12.843
83660W        W48821  43.079  32.582   1.455
83661W        W48822  23.414  10.305   0.004
83662W        W48823  17.133  25.993   2.849
83663W        W48824  21.664  41.218  11.566
83664W        W48825   9.697  11.115   0.331
83665W        W48826  16.949  13.280  12.500
83666W        W48827  32.034  17.797  10.582
83667W        W48828  37.851  19.537  11.150
83668W        W48829  28.306   3.424   1.710
83669W        W48830  10.134  32.398  13.076
83670W        W48831  15.593  23.087  11.091
83671W        W48832  33.087  28.528   4.756
83672W        W48833  24.524  29.778   3.024
83673W        W48834  30.251  10.133   0.812
83674W        W48835  11.808  23.438  12.098
83675W        W48836  35.481  40.886   2.669
83676W        W48837  27.703  35.036  12.484
83677W        W48838   2.471  39.873   2.753
83678W        W48839  35.458  13.884  14.370
83679W        W48840  21.820  18.291  10.706
83680W        W48841  36.313  17.904   2.407
83681W        W48842  17.153  39.169  12.641
83682W        W48843  17.543  14.116   3.666
83683W        W48844  30.556  10.278   1.199
83684W        W48845  13.277  33.912  11.668
83685W        W48846  28.080  27.109   4.533
83686W        W48847  38.901  40.858  11.452
83687W        W48848  17.796  35.577   2.332
83688W        W48849  21.479  44.656  14.427
83689W        W48850  29.300  28.972   2.924
83690W        W48851  16.087  11.957   1.288
83691W        W48852   5.425  18.702   1.201
83692W        W48853   2.823  22.842   3.352
83693W        W48854  19.806  24.613   1.844
83694W        W48855  34.920  19.227   0.277
83695W        W48856  37.407  32.909  13.885
83696W        W48857  12.050  16.613  13.106
83697W        W48858   7.854   4.430   3.341
83698W        W48859  24.371   8.126  11.577
83699W        W48860  12.630   8.591  11.569
83700W        W48861  22.723  24.759   3.811
83701W        W48862  22.769  44.387   4.620
83702W        W48863  20.098  42.411   0.279
83703W        W48864  11.122  37.008  14.858
83704W        W48865  24.819  16.159   3.713
83705W        W48866  26.077  34.149  11.988
83706W        W48867  43.290  38.808  12.946
83707W        W48868   3.423  31.882   1.342
83708W        W48869  11.632  42.721   4.097
83709W        W48870   7.964  43.803  10.882
83710W        W48871  38.373  27.038  10.626
83711W        W48872  15.174   1.888  13.447
83712W        W48873   4.090  24.299  12.976
83713W        W48874  12.113  17.282  14.216
83714W        W48875   7.166  17.381  13.561
83715W        W48876  11.408  24.146   2.599
83716W        W48877   0.561  39.719   1.773
83717W        W48878   4.000  30.491  10.318
83718W        W48879  31.011  24.675  12.075
83719W        W48880   3.907  18.205   1.561
83720W        W48881  36.419  21.491   2.258
83721W        W48882   3.372  30.158   3.194
83722W        W48883  25.849  10.318  13.301
83723W        W48884   6.211   5.152  11.302
83724W        W48885  26.606  33.647  13.140
83725W        W48886   7.895   7.906  13.894
83726W        W48887  14.917  18.045   3.441
83727W        W48888  43.528  14.747  14.862
83728W        W48889   5.756  23.747   0.046
83729W        W48890  29.454  38.150   1.196
83730W        W48891  26.184  19.549  11.684
83731W        W48892  34.639  27.951  14.385
83732W        W48893   8.306  13.632   0.004
83733W        W48894  12.557   4.693  13.340
83734W        W48895  33.969  16.901  14.819
83735W        W48896  16.736  37.881  13.466
83736W        W48897  10.746  14.330  14.326
83737W        W48898  12.823  39.932  10.704
83738W        W48899  36.237   8.237   2.702
83739W        W48900  11.417  12.552   1.808
83740W        W48901   7.320  38.583   4.788
83741W        W48902  32.230   2.663  11.683
83742W        W48903  20.237  32.711  14.379
83743W        W48904  39.104  29.647  12.966
83744W        W48905  29.093  23.925   1.293
83745W        W48906  30.975   3.693  11.184
83746W        W48907  23.030   5.605  11.597
83747W        W48908   8.420  42.222  11.131
83748W        W48909  30.929  36.102  12.914
83749W        W48910  43.917  24.629   1.379
83750W        W48911   4.530   0.521  14.606
83751W        W48912  27.937  27.619  13.177
83752W        W48913   7.959   8.839  10.575
83753W        W48914  36.838  19.767  10.397
83754W        W48915  20.249  43.519   2.804
83755W        W48916  36.549  41.397   0.065
83756W        W48917   3.866   2.283   3.679
83757W        W48918   6.190  13.847  11.574
83758W        W48919  25.855  44.826   4.728
83759W        W48920   3.519  27.350   0.443
83760W        W48921   5.568  28.371  12.891
83761W        W48922  25.662  30.594  12.960
83762W        W48923  26.187  17.839  10.462
83763W        W48924  12.607  32.019   2.712
83764W        W48925  29.123  23.747  13.559
83765W        W48926  30.923   2.863  12.345
83766W        W48927  43.956  34.808  10.182
83767W        W48928  11.624   5.149   0.537
83768W        W48929  26.947  41.558   4.456
83769W        W48930  38.981  26.549  10.210
83770W        W48931  20.808   1.896  14.711
83771W        W48932  16.516  35.714   2.609
83772W        W48933  21.482   7.824   3.879
83773W        W48934  27.154  22.228  13.451
83774W        W48935   1.004  33.387   4.551
83775W        W48936  34.956   1.690   4.555
83776W        W48937  44.095  26.085   2.937
83777W        W48938   4.231  13.119   1.629
83778W        W48939  14.584  40.561   1.088
83779W        W48940  43.995  11.502  12.466
83780W        W48941   3.262  15.631  14.128
83781W        W48942  18.485  14.198  13.075
83782W        W48943  13.852   9.605  14.529
83783W        W48944  30.695  36.366   0.805
83784W        W48945   7.677  28.620   4.214
83785W        W48946  24.951  44.240   0.153
83786W        W48947   1.326  19.744   4.146
83787W        W48948  19.030  33.357  11.046
83788W        W48949  40.568   5.947  13.054
83789W        W48950   2.419  33.518  12.956
83790W        W48951  11.393  36.498   4.548
83791W        W48952   6.419  35.201   1.226
83792W        W48953  42.821  35.127  14.412
83793W        W48954  20.527   1.358  11.251
83794W        W48955  21.336  24.171  14.282
83795W        W48956   9.458  29.512  11.020
83796W        W48957  41.746  41.868  14.266
83797W        W48958  30.976  25.429   5.161
83798W        W48959   6.766  44.705   3.101
83799W        W48960  13.821  15.591  10.722
83800W        W48961  13.517  35.035   1.470
83801W        W48962  32.446  35.508   0.791
83802W        W48963   2.768   7.590  11.247
83803W        W48964  38.528  36.642   4.555
83804W        W48965   6.198  15.420   3.876
83805W        W48966  10.181  40.310   0.716
83806W        W48967   3.310  29.565  13.305
83807W        W48968  16.036  22.247   3.803
83808W        W48969   3.161  15.446   2.334
83809W        W48970  31.870  41.396   2.347
83810W        W48971  27.361  11.675   1.487
83811W        W48972  28.100  27.487   2.157
83812W        W48973  39.584  41.812   1.894
83813W        W48974  20.855  22.211  12.472
83814W        W48975  14.210  27.500   1.403
83815W        W48976  34.170  34.261   1.841
83816W        W48977  44.954  24.973   0.841
83817W        W48978  18.328  23.519  14.344
83818W        W48979  37.419  41.387  11.612
83819W        W48980  37.565  23.061   4.795
83820W        W48981  44.871  29.148  11.536
83821W        W48982   8.557  12.341   0.705
83822W        W48983  34.357  12.698  12.171
83823W        W48984   7.762  27.165  14.399
83824W        W48985  43.383  42.547  11.651
83825W        W48986  40.817  14.158  14.596
83826W        W48987  39.275   1.604   1.975
83827W        W48988  29.108  31.652  13.372
83828W        W48989  34.361   8.246  14.224
83829W        W48990  18.657  26.721   4.433
83830W        W48991  24.306  31.482  14.456
83831W        W48992  35.557  44.292  11.552
83832W        W48993  41.088  22.045   1.947
83833W        W48994  28.973  32.376   3.159
83834W        W48995  34.572  37.744   2.262
83835W        W48996   4.358  19.071  12.849
83836W        W48997  15.081  39.754   1.847
83837W        W48998  43.089   6.896  12.911
83838W        W48999  35.530  25.040   0.424
83839W        W49000  43.038  19.558   0.801
83840W        W49001  11.438  22.993  13.266
83841W        W49002  19.201  21.176   3.135
83842W        W49003  25.020   8.598  10.772
83843W        W49004  34.060  41.979   1.867
83844W        W49005   2.037  12.792   4.017
83845W        W49006   2.303  24.829  11.589
83846W        W49007  30.244  28.190  12.144
83847W        W49008  40.126  16.766  12.062
83848W        W49009  29.018   6.691  14.096
83849W        W49010  13.818  20.081  13.456
83850W        W49011  15.538  27.885  14.962
83851W        W49012   5.587  16.142   2.430
83852W        W49013  39.679  21.491   0.016
83853W        W49014  10.831  13.676  13.437
83854W        W49015   3.024  35.282   2.754
83855W        W49016  21.431  31.588  12.626
83856W        W49017   2.351  33.216   2.371
83857W        W49018  40.511  36.037  13.819
83858W        W49019  23.590  37.531   2.353
83859W        W49020  27.137  29.559   3.850
83860W        W49021   8.354  15.124  13.532
83861W        W49022  12.447  25.443   2.380
83862W        W49023  37.761   8.166  13.931
83863W        W49024   3.920  39.363  13.993
83864W        W49025   9.835  35.698  12.877
83865W        W49026  42.494  28.930   2.346
83866W        W49027  14.133  15.575   1.301
83867W        W49028   5.439  14.382  14.853
83868W        W49029  17.752  19.942   3.377
83869W        W49030  27.523   8.744  13.451
83870W        W49031  37.619   7.017   0.246
83871W        W49032  37.261  20.104  11.307
83872W        W49033  16.988  18.780   0.849
83873W        W49034  16.282  30.892  11.440
83874W        W49035  37.899   7.985  13.434
83875W        W49036   6.422  30.547   1.567
83876W        W49037  11.430   8.775   5.107
83877W        W49038  33.555  42.770   0.495
83878W        W49039   7.329   5.128  10.895
83879W        W49040  44.517  16.015   1.323
83880W        W49041   3.319  43.754   3.243
83881W        W49042  25.622  24.529   1.121
83882W        W49043  21.232  28.429   0.437
83883W        W49044  35.376   4.728   0.104
83884W        W49045   0.197   9.513  13.399
83885W        W49046  36.918  12.419   0.415
83886W        W49047  12.411  29.707  12.515
83887W        W49048  29.413  32.086  14.496
83888W        W49049  43.265  11.669  12.190
83889W        W49050  38.450  11.185   1.151
83890W        W49051  41.687  28.555   2.452
83891W        W49052  38.339  23.186  13.990
83892W        W49053   0.225  28.236   2.656
83893W        W49054  26.930  30.430  14.399
83894W        W49055  15.096  38.767  12.859
83895W        W49056  13.339   6.799   3.790
83896W        W49057   4.908  19.627   1.460
83897W        W49058   2.846  29.727  10.335
83898W        W49059  44.548  21.223   3.081
83899W        W49060  32.853   8.354   4.552
83900W        W49061   7.322   2.269  12.447
83901W        W49062   3.899  27.324  12.038
83902W        W49063  22.378  26.430  12.439
83903W        W49064  10.818  40.519  12.951
83904W        W49065  33.058  18.913  13.494
83905W        W49066  19.739  21.686  14.933
83906W        W49067  39.597  11.203  10.732
83907W        W49068  43.466  28.049  11.143
83908W        W49069  21.048  19.693   4.171
83909W        W49070  33.620  40.786   3.197
83910W        W49071  26.588  22.703   0.270
83911W        W49072  25.985   5.345  12.792
83912W        W49073  25.599  36.366   0.837
83913W        W49074  22.985   2.779   1.896
83914W        W49075  41.340  11.268  14.002
83915W        W49076  34.914   9.743  14.953
83916W        W49077  35.178   2.097  10.353
83917W        W49078  27.270  20.663  13.100
83918W        W49079  15.844   8.815  13.215
83919W        W49080  19.500   0.455   3.681
83920W        W49081  25.407  34.762  14.429
83921W        W49082  39.375  28.105  12.995
83922W        W49083  13.306  29.792   1.318
83923W        W49084  33.329  11.212  12.803
83924W        W49085  21.863  37.626   0.315
83925W        W49086  31.996  34.206   3.322
83926W        W49087   2.078  12.530  13.337
83927W        W49088   8.432  36.364  14.297
83928W        W49089  35.089  22.527   1.848
83929W        W49090  32.138  36.027  12.428
83930W        W49091  44.999  31.420   4.282
83931W        W49092   0.496  10.699  10.624
83932W        W49093  28.451  43.994   1.728
83933W        W49094  43.862  10.600  10.354
83934W        W49095  10.670  21.001   2.405
83935W        W49096  22.456   7.699   4.719
83936W        W49097  43.797  41.830  14.305
83937W        W49098   2.125  18.613  13.558
83938W        W49099  19.013  21.170  12.009
83939W        W49100   9.430   7.468   4.625
83940W        W49101  25.123  13.171  12.505
83941W        W49102  12.203  25.677   2.777
83942W        W49103  44.358  35.640  13.292
83943W        W49104  10.193  21.736   1.922
83944W        W49105  36.582  12.403  12.991
83945W        W49106  15.552  24.020  11.372
83946W        W49107  40.906  19.147   0.617
83947W        W49108  13.775  30.629  11.079
83948W        W49109  14.789  22.233   2.342
83949W        W49110  33.566   8.558  12.697
83950W        W49111  28.495   1.656   3.459
83951W        W49112  37.141  27.032   1.350
83952W        W49113  30.324  26.035  13.405
83953W        W49114  32.976  11.305   4.652
83954W        W49115  18.538  44.245  14.738
83955W        W49116   3.956  34.096  12.613
83956W        W49117  16.031  28.475  11.334
83957W        W49118  13.395  42.268  14.341
83958W        W49119  28.169  19.108   1.804
83959W        W49120  31.644   3.825   0.212
83960W        W49121   7.922  20.961   2.163
83961W        W49122  23.522  18.274  10.700
83962W        W49123  42.730  37.071   0.375
83963W        W49124  30.273  35.530   1.489
83964W        W49125  27.516  37.745   4.812
83965W        W49126  43.437  17.718   2.645
83966W        W49127  34.089  39.618  14.795
83967W        W49128  27.838  38.890   3.024
83968W        W49129  26.000  10.274   2.343
83969W        W49130  15.035  10.103   2.300
83970W        W49131  15.590  41.508  11.812
83971W        W49132  33.399   1.352  12.966
83972W        W49133  36.583   4.818  11.173
83973W        W49134  42.871  20.112   0.065
83974W        W49135  36.467  35.415   0.195
83975W        W49136   4.550   2.866   2.376
83976W        W49137   9.665  36.093   2.189
83977W        W49138  28.763  14.919  11.116
83978W        W49139  30.629  30.011   1.497
83979W        W49140  32.646  31.191   4.615
83980W        W49141  28.582  34.079  11.181
83981W        W49142  36.432  38.557  14.983
83982W        W49143  20.215  12.460  10.582
83983W        W49144  28.977  36.747  11.438
83984W        W49145  18.535   7.378   0.954
83985W        W49146  29.748  20.540   3.513
83986W        W49147  33.854   5.447   4.254
83987W        W49148   9.945  39.024  10.948
83988W        W49149  13.633  30.587  14.020
83989W        W49150  26.480   9.193  10.062
83990W        W49151  40.184  18.144   0.334
83991W        W49152  18.190  34.783   1.174
83992W        W49153  40.278  31.383  10.715
83993W        W49154  13.756  18.790  11.034
83994W        W49155  26.082  42.050   3.682
83995W        W49156  23.974  34.715  11.137
83996W        W49157  19.078  16.112   3.610
83997W        W49158  27.468  19.616  12.342
83998W        W49159  42.554  39.962   4.603
83999W        W49160  34.842  11.726   4.525
84000W        W49161  37.562  29.669  13.070
84001W        W49162  43.522   1.312   2.172
84002W        W49163   4.506   7.337   3.264
84003W        W49164  39.336  37.655  11.650
84004W        W49165   1.315  10.444   0.907
84005W        W49166  26.899  41.636   0.810
84006W        W49167   8.280  19.807   4.281
84007W        W49168  40.469  27.156  10.745
84008W        W49169  35.179  30.693  13.506
84009W        W49170  26.101  13.695  14.682
84010W        W49171   4.507  33.620   4.851
84011W        W49172  14.640  32.931   2.937
84012W        W49173  43.272  35.217  13.032
84013W        W49174  24.792  32.489   2.353
84014W        W49175  26.154  11.286   0.705
84015W        W49176  14.614  43.413  12.076
84016W        W49177  20.197  18.740  14.427
84017W        W49178   3.417  40.397   0.852
84018W        W49179  43.775  22.070  11.563
84019W        W49180  42.527   0.705  14.195
84020W        W49181  31.176  41.279   3.671
84021W        W49182  14.250  14.823  13.853
84022W        W49183  17.028  16.122   1.260
84023W        W49184  28.439  35.963   1.756
84024W        W49185  38.385  10.674  11.462
84025W        W49186  33.046  22.145  10.498
84026W        W49187  17.125  40.786  10.563
84027W        W49188  23.578   0.563  11.530
84028W        W49189   6.300   7.699   0.505
84029W        W49190  17.674  12.444   0.666
84030W        W49191  43.984   1.604   2.119
84031W        W49192   6.207  17.515   2.821
84032W        W49193  23.749   3.925   2.248
84033W        W49194  27.277  33.038   4.646
84034W        W49195  24.962  11.878  13.612
84035W        W49196   3.974   8.091   3.604
84036W        W49197  21.179   8.828   2.423
84037W        W49198  20.290  18.556   0.950
84038W        W49199  42.826  17.781  12.642
84039W        W49200  19.915   9.206  10.659
84040W        W49201  13.469  16.688   1.743
84041W        W49202   0.893  15.050  12.084
84042W        W49203  13.614  34.404   3.689
84043W        W49204   8.007   1.501  12.635
84044W        W49205  14.188   8.378  13.932
84045W        W49206  11.367  12.713   4.337
84046W        W49207  36.156  33.965   0.804
84047W        W49208  42.020  43.327  12.078
84048W        W49209  24.466  16.766  13.349
84049W        W49210  28.440   7.820  13.892
84050W        W49211  16.927   9.393   2.714
84051W        W49212  41.814   1.490   4.253
84052W        W49213  34.871   8.202  12.392
84053W        W49214  16.079   0.777  11.605
84054W        W49215   1.344  16.885  11.103
84055W        W49216  38.138  29.112   3.799
84056W        W49217  14.670  22.154  11.209
84057W        W49218  20.088   3.150  12.851
84058W        W49219  39.996  14.508   3.116
84059W        W49220  13.643   3.143  14.299
84060W        W49221  15.156   5.580  11.100
84061W        W49222  17.596  38.038  11.517
84062W        W49223  29.735  25.092   1.857
84063W        W49224  30.190   4.380  12.866
84064W        W49225   4.344  13.365   3.231
84065W        W49226  22.879  40.741   0.601
84066W        W49227  44.705  14.749   0.785
84067W        W49228  19.785  31.981   0.786
84068W        W49229  28.222  14.504   3.285
84069W        W49230  30.542  20.164   0.290
84070W        W49231  15.603  26.420  11.085
84071W        W49232  33.678  43.080   4.115
84072W        W49233  30.037  11.780   1.345
84073W        W49234  31.171  44.889  13.473
84074W        W49235  34.101  28.922  11.526
84075W        W49236  11.342  22.572  10.618
84076W        W49237   9.464  27.580   0.053
84077W        W49238  34.156  22.949  12.146
84078W        W49239  36.136   0.322  12.025
84079W        W49240   8.832   1.382   4.560
84080W        W49241  37.800  18.819   3.665
84081W        W49242   8.640   0.441  12.147
84082W        W49243  28.604  28.228  11.562
84083W        W49244   2.206   4.280  13.613
84084W        W49245  29.047  38.808   3.538
84085W        W49246  37.785  14.615   2.824
84086W        W49247  38.508   0.279  11.130
84087W        W49248   5.166  30.166  11.984
84088W        W49249  36.280  11.597  12.506
84089W        W49250   6.820   5.280   3.681
84090W        W49251   4.437   3.902   4.293
84091W        W49252   1.397  15.411  10.101
84092W        W49253  42.850  24.326  12.387
84093W        W49254  39.413  20.060   2.652
84094W        W49255  25.761   2.244  14.553
84095W        W49256   2.985  23.269  11.745
84096W        W49257  16.764  16.906  14.647
84097W        W49258   1.814  43.813  14.908
84098W        W49259  18.726   4.838  10.666
84099W        W49260  44.910  14.331   0.516
84100W        W49261  39.516   6.203  12.005
84101W        W49262  22.043  24.982   1.317
84102W        W49263  41.405  17.112  11.439
84103W        W49264  44.900   0.344   4.577
84104W        W49265   8.870  33.898  10.639
84105W        W49266  32.087  10.686   3.337
84106W        W49267  36.563  36.421  12.543
84107W        W49268  28.102   8.821  10.278
84108W        W49269   9.644  32.424  14.769
84109W        W49270  12.574  27.679  10.784
84110W        W49271  16.100  43.955   1.850
84111W        W49272  31.486  28.064   3.057
84112W        W49273   3.895  14.022  13.872
84113W        W49274  10.296  19.814   0.695
84114W        W49275  25.442  27.990   4.690
84115W        W49276  18.202  19.174  11.193
84116W        W49277   0.276  35.617   0.264
84117W        W49278  13.992  35.766  11.992
84118W        W49279  38.491  16.231  12.291
84119W        W49280  16.339  31.637  14.651
84120W        W49281   5.924  24.626   0.928
84121W        W49282  17.312  27.063  10.883
84122W        W49283  43.807  36.666   0.306
84123W        W49284  25.060  40.296   3.176
84124W        W49285  11.687  36.097   4.891
84125W        W49286   1.503   0.503   1.774
84126W        W49287  17.746  27.561   1.225
84127W        W49288  23.228  22.690  13.527
84128W        W49289  26.875  43.377  12.487
84129W        W49290  23.518   3.600   2.692
84130W        W49291  33.066   9.378   2.665
84131W        W49292  34.901  36.783   3.703
84132W        W49293  25.760  44.221   1.725
84133W        W49294  40.414  35.362  12.989
84134W        W49295  19.595  14.751  11.580
84135W        W49296  17.156   9.367  12.932
84136W        W49297  26.179  23.731  12.974
84137W        W49298  44.020  25.698  11.160
84138W        W49299   4.010  41.941   0.089
84139W        W49300  35.167  18.777   0.259
84140W        W49301  24.669  13.581   3.721
84141W        W49302  15.264  37.101  12.401
84142W        W49303  41.639  34.486  10.307
84143W        W49304   4.443   3.474   2.239
84144W        W49305  38.985  19.108  12.829
84145W        W49306   7.679  16.728   4.535
84146W        W49307  30.794  43.633  14.941
84147W        W49308  43.288   5.250   0.026
84148W        W49309  41.892  12.260   3.899
84149W        W49310  32.571  19.090  13.317
84150W        W49311  34.137  30.238  14.391
84151W        W49312  31.864  34.904  12.417
84152W        W49313   2.545   1.749  10.599
84153W        W49314  40.205  36.045   1.658
84154W        W49315  41.157  43.167   1.310
84155W        W49316  26.950  34.466  14.772
84156W        W49317  43.897  38.118   4.006
84157W        W49318  15.848   1.292   0.337
84158W        W49319  23.015  44.767  10.536
84159W        W49320  36.752  18.925   4.992
84160W        W49321  36.822  41.097   4.226
84161W        W49322   4.380  14.291  11.173
84162W        W49323  11.631   7.294   4.342
84163W        W49324  22.126  30.137   3.542
84164W        W49325  14.192  36.659   3.831
84165W        W49326  41.329  37.351   4.078
84166W        W49327  18.139   7.468   2.124
84167W        W49328  34.460  42.570  11.108
84168W        W49329  19.403  12.194  11.563
84169W        W49330   2.244  32.972   0.264
84170W        W49331   4.835  40.022   2.357
84171W        W49332   4.605  12.550  10.340
84172W        W49333  25.817  23.504  13.317
84173W        W49334   6.687  15.797   3.244
84174W        W49335  10.251   4.403   1.084
84175W        W49336  35.954  37.906  11.774
84176W        W49337  36.593  44.905  12.476
84177W        W49338  38.899  39.346   1.646
84178W        W49339  39.964   9.877  14.337
84179W        W49340   1.131  32.975  12.013
84180W        W49341  10.597  35.389  10.608
84181W        W49342  25.102   1.078   2.236
84182W        W49343   6.301   1.531   0.412
84183W        W49344  40.582  37.928   0.734
84184W        W49345  25.648  15.891   1.282
84185W        W49346  14.213   3.844   3.052
84186W        W49347  15.756  43.306   9.877
84187W        W49348  31.980  21.654  12.744
84188W        W49349   5.747  41.038   1.894
84189W        W49350   4.937  11.091   2.218
84190W        W49351  42.818   9.241   1.138
84191W        W49352  41.197  34.494   4.590
84192W        W49353  29.767  17.649   3.146
84193W        W49354  28.974  35.846  10.930
84194W        W49355  33.050   9.761   1.400
84195W        W49356  11.411  11.355   1.288
84196W        W49357  30.692  13.830   3.617
84197W        W49358   0.509  41.591   4.119
84198W        W49359  34.337   3.855   3.172
84199W        W49360  40.797  15.974  11.525
84200W        W49361  26.625   9.218  14.792
84201W        W49362  26.702  11.757  11.574
84202W        W49363  38.619   2.716   0.862
84203W        W49364  31.010  10.409   0.268
84204W        W49365   4.596   2.965   9.888
84205W        W49366   4.839  37.276   4.358
84206W        W49367  37.674  33.165   4.573
84207W        W49368  27.652  23.301  11.540
84208W        W49369  17.956  22.105   0.061
84209W        W49370   6.988  15.211   1.158
84210W        W49371  22.961  10.146  14.035
84211W        W49372  37.534   4.614   4.536
84212W        W49373   1.871   6.848  11.948
84213W        W49374  31.960  38.116   0.268
84214W        W49375   9.924  14.236  14.280
84215W        W49376  27.130  25.277   1.052
84216W        W49377   9.690  25.590  12.591
84217W        W49378  21.621   4.737  13.806
84218W        W49379  19.735  32.203   1.264
84219W        W49380  38.690  32.392   3.628
84220W        W49381  25.849  14.920   3.248
84221W        W49382  31.087  28.670  13.626
84222W        W49383  29.130  32.760  12.992
84223W        W49384  23.563  44.327   2.901
84224W        W49385  30.506  12.295   3.198
84225W        W49386  34.588  40.319   4.864
84226W        W49387  42.344  21.746   3.674
84227W        W49388  21.203  17.203   1.121
84228W        W49389  24.492   3.583   1.923
84229W        W49390   8.923  22.258  12.614
84230W        W49391  43.872  41.338   2.305
84231W        W49392  40.913  15.606   1.508
84232W        W49393   9.839  27.590  13.821
84233W        W49394  14.784   3.537  14.886
84234W        W49395  10.729  41.279   2.001
84235W        W49396   8.184  33.554   3.379
84236W        W49397  41.314  15.382  12.021
84237W        W49398   6.135   9.116  14.418
84238W        W49399  15.263  40.247  12.875
84239W        W49400   4.077   2.397  14.516
84240W        W49401  25.548  20.605   3.125
84241W        W49402  25.239  11.230  13.527
84242W        W49403  30.215  18.244   3.711
84243W        W49404  29.618  39.971   2.809
84244W        W49405   5.643  22.039  13.463
84245W        W49406  29.127  19.268   3.317
84246W        W49407  16.534   0.956   3.883
84247W        W49408  14.642  41.108  14.964
84248W        W49409   3.991   7.943   3.077
84249W        W49410  40.687  25.725  12.968
84250W        W49411  20.669   3.795  12.646
84251W        W49412  37.545  14.919  12.560
84252W        W49413   2.505  15.529  14.315
84253W        W49414  43.753  18.209   2.557
84254W        W49415  41.599  27.380   0.855
84255W        W49416   0.420   9.721   1.712
84256W        W49417   5.037  12.310   1.315
84257W        W49418  20.466  17.535   2.205
84258W        W49419  27.932  30.334   3.333
84259W        W49420  23.065  16.133   0.975
84260W        W49421  27.857  15.241   0.839
84261W        W49422  39.264  25.546  11.696
84262W        W49423  17.864   0.921  13.634
84263W        W49424  18.163   8.263  11.456
84264W        W49425  40.771   1.012   2.368
84265W        W49426  40.956  31.539  13.321
84266W        W49427  36.478  25.065  13.134
84267W        W49428  21.521   3.204   4.923
84268W        W49429  27.241  37.047   1.215
84269W        W49430  24.098  26.117  14.483
84270W        W49431  41.072  42.874   3.398
84271W        W49432  38.102  12.752  12.105
84272W        W49433  22.699  11.213   0.693
84273W        W49434  36.519  43.505  14.327
84274W        W49435  34.568   2.821  10.708
84275W        W49436   2.218  15.833   0.913
84276W        W49437  21.744  31.404   2.352
84277W        W49438  22.845   5.479   1.422
84278W        W49439  29.519  42.515   3.383
84279W        W49440   7.733  11.305  14.240
84280W        W49441   2.429  17.163   4.015
84281W        W49442  20.639  10.083  12.554
84282W        W49443  43.044  19.165   2.780
84283W        W49444  10.704  18.339  14.341
84284W        W49445  44.559  14.244  13.927
84285W        W49446  22.076  33.786  11.606
84286W        W49447  28.613  28.184   3.102
84287W        W49448  35.667  31.463   0.029
84288W        W49449  18.575  43.526  13.405
84289W        W49450  41.983  25.952  14.374
84290W        W49451  21.202  43.444  13.901
84291W        W49452  35.508  13.219  12.551
84292W        W49453  36.390  26.017  14.767
84293W        W49454  28.868  24.759  11.074
84294W        W49455   2.201  19.569   4.578
84295W        W49456  30.669  26.650   3.306
84296W        W49457  24.794  32.866  11.200
84297W        W49458   4.929  12.780  11.298
84298W        W49459  31.484  38.095   2.816
84299W        W49460  27.758  36.642   2.188
84300W        W49461  26.214  16.704  11.919
84301W        W49462  24.391  21.019   2.245
84302W        W49463  12.257  10.422   2.625
84303W        W49464  19.528  39.361  11.330
84304W        W49465  28.302  36.321   3.251
84305W        W49466   3.432  41.469   0.645
84306W        W49467  43.695  31.035   3.356
84307W        W49468  19.113   1.892   4.496
84308W        W49469  11.652  23.738  11.268
84309W        W49470  27.918   1.855   2.751
84310W        W49471  26.808  12.928   2.392
84311W        W49472   2.091  17.268  12.834
84312W        W49473  40.896  34.049   0.945
84313W        W49474  39.275  20.499  14.034
84314W        W49475   3.262  14.572  13.460
84315W        W49476  21.550   5.895   3.591
84316W        W49477  44.887   0.900  13.000
84317W        W49478   7.544  40.536  13.645
84318W        W49479  10.910  32.443  12.371
84319W        W49480   8.697  26.763   0.283
84320W        W49481  23.735  26.100  13.851
84321W        W49482  20.203  35.297   0.882
84322W        W49483  18.225  20.178   4.520
84323W        W49484  22.452  23.334  14.723
84324W        W49485  22.493   9.196   3.733
84325W        W49486  37.316   4.689   2.684
84326W        W49487   4.859  36.865   0.890
84327W        W49488   5.406  39.550   0.205
84328W        W49489  31.626  16.834   3.517
84329W        W49490  25.303  13.070   0.812
84330W        W49491  40.104   5.711   2.292
84331W        W49492  30.163  27.463   2.233
84332W        W49493  33.516   9.114   0.849
84333W        W49494   5.549   6.450  12.537
84334W        W49495  25.801  33.234   3.609
84335W        W49496  42.727  15.828   2.199
84336W        W49497  44.662  29.679  13.249
84337W        W49498   0.909   2.536  12.295
84338W        W49499  39.717  37.508   4.075
84339W        W49500  11.662  19.646  12.349
84340W        W49501   3.476  37.079   1.743
84341W        W49502  28.772   2.002   1.676
84342W        W49503   2.668  15.812  12.061
84343W        W49504   3.288  19.007  13.756
84344W        W49505  27.196   6.174   3.245
84345W        W49506  22.369  31.370   1.023
84346W        W49507   9.570  39.004  10.554
84347W        W49508  21.310  44.387   0.601
84348W        W49509  32.420  12.723   4.421
84349W        W49510  19.795  42.317   1.718
84350W        W49511  32.797  21.377   3.832
84351W        W49512  23.526  34.792   1.995
84352W        W49513   6.874  21.181   4.743
84353W        W49514  19.810  13.019   4.687
84354W        W49515  21.601   6.288   0.789
84355W        W49516  10.196  20.831  13.902
84356W        W49517  23.676  16.673  10.673
84357W        W49518  11.543  15.874   1.688
84358W        W49519  33.481   4.797  14.368
84359W        W49520  16.854  19.955   2.733
84360W        W49521  30.153  15.622  12.116
84361W        W49522  38.310  18.759   3.603
84362W        W49523  25.564  44.703   1.702
84363W        W49524  41.389   5.077   3.621
84364W        W49525   2.021  10.308  10.221
84365W        W49526   1.917  15.594  13.531
84366W        W49527  33.644  38.400   0.258
84367W        W49528  32.875   3.005  14.466
84368W        W49529   2.418  21.581  13.552
84369W        W49530   9.061  20.285  10.640
84370W        W49531  14.590  41.042  11.050
84371W        W49532  13.360  23.469   3.765
84372W        W49533  29.670  22.787  12.053
84373W        W49534  39.388   5.846   1.052
84374W        W49535  27.025  11.741  14.041
84375W        W49536  40.939  20.893   3.746
84376W        W49537   8.866  43.400   2.302
84377W        W49538   1.188  28.571   0.828
84378W        W49539  11.389  22.519   0.640
84379W        W49540  43.899  22.726   0.818
84380W        W49541  40.838   3.859   2.299
84381W        W49542  14.792   3.206  10.653
84382W        W49543  38.005  39.362  11.030
84383W        W49544  39.396  37.372   3.679
84384W        W49545  13.950  13.902  10.331
84385W        W49546  41.920   9.933  11.143
84386W        W49547  40.433  10.104   0.784
84387W        W49548  20.405  37.709   4.631
84388W        W49549  16.708   1.496  10.700
84389W        W49550   2.929   4.359  10.717
84390W        W49551  32.538  30.247  13.922
84391W        W49552  34.074  40.150  11.570
84392W        W49553  27.713  37.057   1.678
84393W        W49554  16.845  44.253  12.013
84394W        W49555  38.560  35.620  10.658
84395W        W49556  12.931  37.838   4.894
84396W        W49557   0.560  29.198   2.852
84397W        W49558  15.130  35.801   0.918
84398W        W49559   0.207   6.920  11.865
84399W        W49560   8.269   5.022  10.395
84400W        W49561  37.662  14.737   4.034
84401W        W49562   3.861   2.295   4.657
84402W        W49563   2.645   8.492  14.048
84403W        W49564   0.690   1.576  13.205
84404W        W49565  27.903  23.953  13.316
84405W        W49566  44.080  25.475  13.432
84406W        W49567  32.600  44.493   2.150
84407W        W49568  21.702  39.428   4.843
84408W        W49569  40.503  32.978  14.286
84409W        W49570  30.629  13.491  13.858
84410W        W49571   1.364  41.579   2.901
84411W        W49572   8.488  29.617   3.887
84412W        W49573  38.327  36.159   4.610
84413W        W49574  33.210   4.767  10.599
84414W        W49575  44.358  18.270   0.777
84415W        W49576   9.271  24.516  11.061
84416W        W49577   7.804  15.643  10.574
84417W        W49578  28.163  12.947   4.950
84418W        W49579  26.585  10.817   2.427
84419W        W49580   9.211  34.248  12.320
84420W        W49581  38.048  10.084  11.094
84421W        W49582   2.589  24.200   4.563
84422W        W49583  41.223  40.767  12.696
84423W        W49584  12.433  10.677   3.844
84424W        W49585   6.716  38.601  13.028
84425W        W49586  26.490  35.405  14.909
84426W        W49587  38.072  21.231   2.232
84427W        W49588  37.413  36.036   4.121
84428W        W49589  20.078  30.437  11.203
84429W        W49590  27.719  40.800  14.862
84430W        W49591   2.842  19.126  10.618
84431W        W49592   8.139  35.527  14.838
84432W        W49593  44.927  25.241   2.676
84433W        W49594  17.047   1.447   3.184
84434W        W49595  43.796  26.611  12.090
84435W        W49596  30.571  38.832  12.628
84436W        W49597  35.133  41.589  11.642
84437W        W49598  26.787   5.268   3.249
84438W        W49599  31.576  23.888  14.527
84439W        W49600  33.600  18.552  11.550
84440W        W49601  20.610  40.760   4.275
84441W        W49602  27.756  36.556  12.086
84442W        W49603   1.011  40.171   0.979
84443W        W49604  23.286  40.709  14.318
84444W        W49605   7.408   2.805   0.760
84445W        W49606  16.071  34.739  12.594
84446W        W49607  18.060  29.520  10.625
84447W        W49608   0.887  27.765  12.035
84448W        W49609   7.785  18.605  11.541
84449W        W49610  22.416  36.001   2.766
84450W        W49611  25.600  12.903  11.171
84451W        W49612   9.817  41.084   0.829
84452W        W49613  25.680   2.684   0.728
84453W        W49614   1.269  38.889   0.294
84454W        W49615  22.705  38.100   1.208
84455W        W49616   1.425  40.386   0.195
84456W        W49617   0.735  21.204   2.132
84457W        W49618  19.608  34.446   3.519
84458W        W49619  44.266  17.469   2.247
84459W        W49620  42.762  16.853  11.622
84460W        W49621   9.746  12.963   2.628
84461W        W49622  42.746  30.951   4.723
84462W        W49623  42.590   8.416  14.391
84463W        W49624   6.478  25.175   2.153
84464W        W49625  37.876  12.411  14.463
84465W        W49626  18.965  15.229   9.752
84466W        W49627  10.791  33.341  13.479
84467W        W49628   1.652  44.344  10.661
84468W        W49629  32.600  32.567   1.830
84469W        W49630  14.552  28.509  11.525
84470W        W49631  31.096   0.481   4.087
84471W        W49632  25.059  21.768   0.921
84472W        W49633  10.670  36.976  12.338
84473W        W49634  19.200  20.333   0.685
84474W        W49635  15.530  32.056   1.557
84475W        W49636  35.575   2.044  11.622
84476W        W49637   6.248  44.442   1.357
84477W        W49638  39.770   2.639   2.245
84478W        W49639   3.428  33.888  14.317
84479W        W49640  12.677   4.300  11.607
84480W        W49641  22.863   7.862   2.427
84481W        W49642   8.311  40.823  11.372
84482W        W49643  15.707  11.849   3.650
84483W        W49644  26.418   0.902  11.076
84484W        W49645   5.422  30.846   3.268
84485W        W49646  18.029  43.476  10.518
84486W        W49647  32.106  32.368   1.755
84487W        W49648  37.976  41.818   4.951
84488W        W49649  39.416  35.384  12.081
84489W        W49650  36.263   7.270  11.907
84490W        W49651   8.898  11.899   4.167
84491W        W49652   8.316  28.405   2.810
84492W        W49653   7.386  32.304  11.234
84493W        W49654  28.079  39.046   0.737
84494W        W49655   4.834   4.505   4.278
84495W        W49656   6.349  17.997   3.774
84496W        W49657  41.839  24.763  10.996
84497W        W49658  36.541  34.509   2.636
84498W        W49659  44.209  36.340   0.385
84499W        W49660   4.542  29.487   1.325
84500W        W49661  15.579  44.267  14.355
84501W        W49662  15.876  20.217   2.637
84502W        W49663  35.689   8.140   4.241
84503W        W49664  11.548  16.383   4.532
84504W        W49665  35.946  27.217   3.181
84505W        W49666   4.230  15.045   1.156
84506W        W49667  29.098  29.989  14.085
84507W        W49668  23.268  40.816  13.804
84508W        W49669   6.381  35.878  11.047
84509W        W49670  12.158  37.429   3.100
84510W        W49671  28.279  36.066  14.837
84511W        W49672  12.055  40.641  11.566
84512W        W49673  12.416  35.506  12.434
84513W        W49674  23.154  19.643   1.825
84514W        W49675  26.436  39.859   0.145
84515W        W49676  18.746  37.310  10.712
84516W        W49677  27.132  33.512   3.872
84517W        W49678  30.225   6.318   1.181
84518W        W49679   5.822  19.168   4.259
84519W        W49680  32.087  34.847  14.798
84520W        W49681  28.274  36.344  11.969
84521W        W49682  26.582   7.272  13.849
84522W        W49683  39.825  36.852  14.025
84523W        W49684   1.309  43.464   0.812
84524W        W49685  32.474  19.808  11.259
84525W        W49686  11.077  30.044  14.497
84526W        W49687  44.642  26.188  13.530
84527W        W49688  30.591   8.687  14.938
84528W        W49689  40.172   4.228   0.884
84529W        W49690  19.192   9.379   1.966
84530W        W49691  34.984  10.873   0.929
84531W        W49692  33.056  11.715  11.767
84532W        W49693  28.463  42.931  11.899
84533W        W49694   2.535  39.551  14.047
84534W        W49695   9.401  11.620  11.580
84535W        W49696  19.643  21.489   4.029
84536W        W49697  16.485  15.496  10.649
84537W        W49698  28.516  39.097   4.113
84538W        W49699  28.046  35.382   4.136
84539W        W49700   4.220  35.904   2.203
84540W        W49701  38.185  28.598   3.724
84541W        W49702  22.912  10.341  14.864
84542W        W49703   8.433   5.716  13.993
84543W        W49704  38.959  41.863   0.040
84544W        W49705   2.976  25.669   1.131
84545W        W49706  21.676   0.277   4.239
84546W        W49707   7.771   5.409   0.096
84547W        W49708  43.360  12.121   1.261
84548W        W49709   9.161   3.641  13.961
84549W        W49710   8.463  12.286   3.612
84550W        W49711  40.886  16.748   2.724
84551W        W49712  13.783  24.687   4.612
84552W        W49713  39.850   0.939  12.840
84553W        W49714  17.366  41.023  13.089
84554W        W49715  12.836   7.905   3.696
84555W        W49716  29.221  11.017   2.469
84556W        W49717   1.502  18.632   3.354
84557W        W49718   4.415   0.553   3.566
84558W        W49719  28.985  39.270   1.681
84559W        W49720  29.087  38.306  11.525
84560W        W49721   9.093  27.695   0.448
84561W        W49722  42.585  26.098  13.360
84562W        W49723  29.128  10.285  14.606
84563W        W49724  29.197  18.677   0.548
84564W        W49725  10.179   4.505  14.833
84565W        W49726  29.561  33.904   9.591
84566W        W49727  13.530  14.550   4.018
84567W        W49728  27.488  30.498   2.467
84568W        W49729  23.124  21.263  13.470
84569W        W49730   3.839  37.932  14.987
84570W        W49731  18.149  23.797   0.647
84571W        W49732  13.899  22.992   4.161
84572W        W49733  14.204   0.513   4.189
84573W        W49734   3.767  33.221   2.699
84574W        W49735  35.378  30.593   3.742
84575W        W49736  30.420  17.550   1.458
84576W        W49737  13.633  12.603   3.213
84577W        W49738  40.491   3.818  14.986
84578W        W49739  32.593   8.892  11.980
84579W        W49740  27.622   1.195  12.497
84580W        W49741  21.987  26.431   3.872
84581W        W49742  28.667  16.144  12.346
84582W        W49743  33.395  16.265  11.167
84583W        W49744  10.724   3.947   4.132
84584W        W49745  20.969   8.201   1.590
84585W        W49746  43.283  42.767   2.738
84586W        W49747  10.860  35.676   4.451
84587W        W49748  43.748  31.361   1.119
84588W        W49749  15.264  28.518   2.410
84589W        W49750  44.286  41.571   0.126
84590W        W49751   7.309  24.984  11.162
84591W        W49752   0.340  24.854  13.083
84592W        W49753  40.546  41.449  11.184
84593W        W49754   7.431  27.428   4.100
84594W        W49755   4.242  38.333   1.660
84595W        W49756  31.948  40.859   2.752
84596W        W49757  41.291  24.020   3.355
84597W        W49758  39.982  22.534  11.689
84598W        W49759  15.751   9.283   0.761
84599W        W49760   6.240  27.530   2.436
84600W        W49761  24.010   7.418   3.161
84601W        W49762  14.702  12.140  11.614
84602W        W49763  44.684  11.813  12.002
84603W        W49764  28.220   6.258  12.929
84604W        W49765   7.013   2.504   0.979
84605W        W49766  32.217  11.529   4.471
84606W        W49767  12.208   3.043  11.148
84607W        W49768  29.673  40.871   4.562
84608W        W49769  42.518   3.894   3.184
84609W        W49770  10.654   2.732  14.972
84610W        W49771  20.314  26.583   1.970
84611W        W49772  23.102   7.516  11.527
84612W        W49773  39.064  35.048  11.286
84613W        W49774  26.921   9.761  12.453
84614W        W49775   0.186  40.568   1.490
84615W        W49776  29.938  34.444  10.637
84616W        W49777  18.117   1.654  11.156
84617W        W49778  12.603  25.974   0.472
84618W        W49779  38.771  35.974  12.187
84619W        W49780   4.209  41.255  14.350
84620W        W49781  23.011  16.112   1.948
84621W        W49782  21.099  39.118   1.929
84622W        W49783  35.010  26.202  10.728
84623W        W49784  16.507  20.058   4.972
84624W        W49785  10.782  38.348  13.810
84625W        W49786  34.474   4.548   2.904
84626W        W49787  34.286  38.089  12.586
84627W        W49788   6.447   5.314  13.768
84628W        W49789  21.682  32.198   0.101
84629W        W49790  20.079  12.191   0.025
84630W        W49791  31.187  42.852  14.847
84631W        W49792   8.259  29.293   5.137
84632W        W49793   6.349  13.163   4.897
84633W        W49794   1.569  34.046   0.163
84634W        W49795  22.687   8.179   0.786
84635W        W49796  19.196  17.663   0.765
84636W        W49797  27.217  34.915  13.780
84637W        W49798  19.971   0.212   0.858
84638W        W49799  42.951   6.477   0.427
84639W        W49800  38.675  15.357   4.152
84640W        W49801   6.652  22.307  11.056
84641W        W49802  39.783  26.728  14.801
84642W        W49803  10.952  30.953   4.394
84643W        W49804  18.298   3.044   1.392
84644W        W49805  11.344  32.638   4.676
84645W        W49806   3.392   8.668   2.199
84646W        W49807  20.549  28.006   3.224
84647W        W49808  22.050  39.485   0.931
84648W        W49809  21.201  24.236  11.152
84649W        W49810  41.915  16.031  12.024
84650W        W49811  13.487  41.715  14.503
84651W        W49812   9.703  42.984  11.652
84652W        W49813  19.539   4.843   2.497
84653W        W49814   2.260  21.823   1.274
84654W        W49815  12.417  30.005   4.030
84655W        W49816  18.250  41.905   3.879
84656W        W49817  26.342  23.053  11.752
84657W        W49818  16.342  21.535   1.264
84658W        W49819  44.001   3.715   1.128
84659W        W49820  36.891  28.865  11.152
84660W        W49821  33.034  21.692  12.333
84661W        W49822  12.143  13.946  14.022
84662W        W49823  36.168  28.533   4.540
84663W        W49824   7.686   7.289   4.462
84664W        W49825  25.117  18.691  14.757
84665W        W49826  44.171  20.359  12.115
84666W        W49827  40.587  42.563   2.191
84667W        W49828  36.934  29.114   0.694
84668W        W49829  35.805  21.654   1.356
84669W        W49830  16.174   9.339   0.067
84670W        W49831  40.748  26.312  12.529
84671W        W49832   6.367  14.814   3.021
84672W        W49833  29.963  26.959   2.344
84673W        W49834  18.311  20.581  10.941
84674W        W49835  43.136  11.553  11.542
84675W        W49836   6.389  44.753   0.936
84676W        W49837  27.541  34.946   3.261
84677W        W49838   5.805  27.832   5.475
84678W        W49839  26.448   7.113  12.057
84679W        W49840  28.610  43.690  12.356
84680W        W49841  11.392   3.881  11.564
84681W        W49842  26.420   6.396   1.798
84682W        W49843  37.591  27.675   1.780
84683W        W49844  11.282  32.232  11.924
84684W        W49845  13.087  22.986   3.689
84685W        W49846  35.454  23.089   2.897
84686W        W49847  22.443  44.028  13.076
84687W        W49848  17.693  33.481   1.929
84688W        W49849  12.849  21.679  12.464
84689W        W49850  11.979  19.700   5.154
84690W        W49851  37.454  36.484   1.191
84691W        W49852  33.533  40.511  14.469
84692W        W49853  27.338   1.345  13.358
84693W        W49854  41.306   1.851   3.954
84694W        W49855   2.478   7.856  12.999
84695W        W49856  12.572  10.006   0.395
84696W        W49857   2.934  40.970   2.738
84697W        W49858  24.800  13.134   0.811
84698W        W49859  21.623  18.033  11.093
84699W        W49860  31.586  25.972  13.384
84700W        W49861  25.547  19.565  10.558
84701W        W49862  41.091  37.236   2.595
84702W        W49863   8.241  11.127   1.805
84703W        W49864  27.677   1.420  14.741
84704W        W49865  12.671  13.358   4.247
84705W        W49866  42.422  34.629   1.276
84706W        W49867  24.686  19.835   1.793
84707W        W49868   3.226  37.479  11.916
84708W        W49869   1.451  38.468  14.905
84709W        W49870  42.868  28.057  13.545
84710W        W49871   1.172  35.862   0.339
84711W        W49872   2.428  22.527   3.288
84712W        W49873  27.151  38.799   0.353
84713W        W49874  27.968   8.586   4.230
84714W        W49875  43.894  24.818  10.723
84715W        W49876  27.540   9.615   3.810
84716W        W49877  23.529  10.379  10.712
84717W        W49878  18.417  29.481   3.256
84718W        W49879  43.977   4.871   4.041
84719W        W49880  42.976  22.890   2.710
84720W        W49881   6.521  17.611   4.926
84721W        W49882  32.647   5.956  13.454
84722W        W49883  42.545  30.453  11.171
84723W        W49884   4.958   3.284  12.094
84724W        W49885  32.113  39.903   1.370
84725W        W49886  15.578  32.570  13.484
84726W        W49887   0.467  24.717  14.902
84727W        W49888  26.944  29.000  12.889
84728W        W49889  43.557  16.255  12.499
84729W        W49890  13.251   5.056   0.723
84730W        W49891   3.286  42.506   0.284
84731W        W49892   0.647  41.383  10.208
84732W        W49893  39.246   6.014   2.727
84733W        W49894   8.631  30.608   2.763
84734W        W49895   0.067   0.502   0.961
84735W        W49896  13.537   3.799   0.445
84736W        W49897  29.205  21.344  13.797
84737W        W49898  38.973  25.176   3.650
84738W        W49899  11.056  40.871   2.674
84739W        W49900   1.252   9.775  14.827
84740W        W49901  19.409  16.471  13.535
84741W        W49902  12.445   4.498  13.844
84742W        W49903   9.444  18.687  13.871
84743W        W49904  23.163  35.756   0.346
84744W        W49905  18.362  32.008  10.730
84745W        W49906  25.967   5.778   1.853
84746W        W49907   2.534  34.906   2.264
84747W        W49908  33.495  40.159  11.188
84748W        W49909  17.247  44.207  14.944
84749W        W49910  19.388  30.776   4.251
84750W        W49911  22.198   9.691  13.913
84751W        W49912   3.505  37.193  12.344
84752W        W49913  10.142  16.265  12.045
84753W        W49914  43.470  25.444  12.064
84754W        W49915  40.751  25.619   3.700
84755W        W49916  15.578   7.218  14.738
84756W        W49917  38.074  29.663   2.670
84757W        W49918  10.304  12.361   3.905
84758W        W49919   6.142  25.681  13.027
84759W        W49920  41.556  14.046   4.904
84760W        W49921  17.197  10.757   0.759
84761W        W49922  28.236  18.213   3.566
84762W        W49923  31.957  38.998  13.215
84763W        W49924   8.202   3.658   0.210
84764W        W49925  24.297  44.259   4.417
84765W        W49926  31.560   9.865   3.221
84766W        W49927  10.393   1.001  11.552
84767W        W49928   9.613   1.728   2.712
84768W        W49929   6.259  11.780   5.016
84769W        W49930  35.318   0.677  14.042
84770W        W49931   2.231  29.440   4.133
84771W        W49932  11.227  28.555  14.301
84772W        W49933  16.650  31.422  12.918
84773W        W49934   9.885  26.515   4.588
84774W        W49935  24.506  39.512   0.179
84775W        W49936   2.287   5.096  14.340
84776W        W49937  35.337   3.860   3.229
84777W        W49938   2.912  24.693   3.587
84778W        W49939  28.098   4.690   4.136
84779W        W49940  40.370  25.141   2.378
84780W        W49941  20.715  37.299   1.674
84781W        W49942  26.688  36.512  14.496
84782W        W49943  39.300  15.848   1.258
84783W        W49944  43.457   1.700   1.501
84784W        W49945  18.150  11.706  11.210
84785W        W49946  21.539   2.739  12.015
84786W        W49947  44.197  30.965   3.140
84787W        W49948   8.855  44.996  11.946
84788W        W49949  40.226  40.809  10.651
84789W        W49950  40.788  32.616  14.055
84790W        W49951   6.851  40.453   4.591
84791W        W49952  43.917   6.248  12.870
84792W        W49953   0.443  30.167   4.560
84793W        W49954  33.890  26.001  14.030
84794W        W49955   4.217  17.918   3.343
84795W        W49956   0.252   2.388  11.533
84796W        W49957   8.727  20.073  13.528
84797W        W49958  13.182   0.792   3.035
84798W        W49959  10.758  38.794  11.956
84799W        W49960   1.555  15.257   3.179
84800W        W49961   2.399   0.722  10.274
84801W        W49962  30.198  43.755   0.357
84802W        W49963  40.991   9.275  14.132
84803W        W49964  25.991   1.467  13.569
84804W        W49965  28.098   8.666  11.977
84805W        W49966  11.131  37.551   4.167
84806W        W49967  42.067   0.257   4.306
84807W        W49968  18.237  38.010   2.254
84808W        W49969   0.954  35.581   2.759
84809W        W49970  35.946  10.321  13.054
84810W        W49971   1.243   1.539  11.970
84811W        W49972  33.311  35.827  12.432
84812W        W49973  25.979  35.001  13.808
84813W        W49974  23.197  32.018  13.551
84814W        W49975  41.008  16.811  11.232
84815W        W49976  22.091   1.301  13.115
84816W        W49977   9.177   6.953   3.216
84817W        W49978  36.371  31.653   4.966
84818W        W49979   4.286  16.626  14.238
84819W        W49980   5.058  44.943  13.952
84820W        W49981  42.508  39.392  13.843
84821W        W49982   9.602  44.853   2.791
84822W        W49983   1.649   7.756   4.035
84823W        W49984  18.151   0.518  11.957
84824W        W49985  19.805  34.471  14.993
84825W        W49986  34.030  20.744   4.877
84826W        W49987  21.535  15.286   1.712
84827W        W49988  33.293  32.949   3.899
84828W        W49989  41.300  41.607  14.921
84829W        W49990  22.174  39.684   4.954
84830W        W49991  27.088  38.595  14.866
84831W        W49992  27.980   0.257  10.751
84832W        W49993  26.099   2.296   1.936
84833W        W49994  34.278  43.540   1.810
84834W        W49995  29.412  16.208   0.990
84835W        W49996  41.241   5.259   1.277
84836W        W49997  27.856   1.858   4.259
84837W        W49998  42.623  44.939  11.680
84838W        W49999  34.017  26.636   3.192
84839W        W50000  10.131   0.382   1.395
84840W        W50001  34.208  35.819  11.128
84841W        W50002   7.056   3.447   4.542
84842W        W50003   0.524  12.825  13.577
84843W        W50004   7.808  44.186   0.267
84844W        W50005   8.789  26.508   0.789
84845W        W50006   1.711  18.140  11.897
84846W        W50007  20.821  35.932   2.302
84847W        W50008   0.213  17.390   1.352
84848W        W50009  39.264  11.204  13.982
84849W        W50010   9.801   5.870   3.664
84850W        W50011  33.406  31.128   2.398
84851W        W50012   6.193   4.893   1.384
84852W        W50013  17.708  22.075   3.081
84853W        W50014  21.780  17.627   2.837
84854W        W50015  34.507  18.249  14.259
84855W        W50016  33.516  20.798  12.254
84856W        W50017  42.490   9.193   4.971
84857W        W50018   1.775  22.486  12.054
84858W        W50019  11.312  21.300  12.381
84859W        W50020  13.420  44.902   0.545
84860W        W50021  17.967  33.390  11.655
84861W        W50022  33.467   7.133   2.715
84862W        W50023  11.664  17.396  11.172
84863W        W50024   7.068  27.172  14.953
84864W        W50025  30.532   5.243   3.184
84865W        W50026  16.807  43.830  14.277
84866W        W50027  34.921   4.845  13.815
84867W        W50028  10.052  22.466   2.780
84868W        W50029  40.025  23.076   3.759
84869W        W50030  17.649  28.021  11.253
84870W        W50031  14.284  41.800   0.434
84871W        W50032  14.629   4.247   4.362
84872W        W50033  17.645  36.900   1.352
84873W        W50034  20.150  39.521  12.944
84874W        W50035   8.490  34.273   0.222
84875W        W50036  16.477  39.426   2.309
84876W        W50037  36.451  30.208  11.175
84877W        W50038  15.702  36.084   1.686
84878W        W50039   7.878  36.911  11.820
84879W        W50040  41.802  10.634  14.012
84880W        W50041  16.055  32.597   0.668
84881W        W50042  39.562  17.267   2.635
84882W        W50043  17.543  27.592  14.382
84883W        W50044  26.103  19.488  14.094
84884W        W50045  30.542   3.720   1.707
84885W        W50046  19.738   5.053   3.570
84886W        W50047  27.430  24.615   0.406
84887W        W50048  13.357  30.149   0.162
84888W        W50049  36.807   3.606   1.306
84889W        W50050  39.318   7.458  11.622
84890W        W50051  18.608  12.643   4.559
84891W        W50052  20.768  14.273  13.465
84892W        W50053  14.253  42.843   4.746
84893W        W50054   5.681  16.287  11.433
84894W        W50055  39.609  16.570   0.788
84895W        W50056   6.016  18.491  11.372
84896W        W50057  25.231  21.508  12.949
84897W        W50058  44.961  24.436   0.896
84898W        W50059   1.421  17.564   0.303
84899W        W50060  33.615   8.941  13.026
84900W        W50061  36.482  26.433  11.208
84901W        W50062  23.795  28.699  11.413
84902W        W50063  14.160  42.542   1.216
84903W        W50064  11.738  33.325  13.544
84904W        W50065  15.758  12.440   1.815
84905W        W50066  22.746  29.563   2.156
84906W        W50067  39.450  23.897   0.894
84907W        W50068  22.680  31.644   4.715
84908W        W50069  36.553  16.173  14.210
84909W        W50070  25.068  41.353   3.132
84910W        W50071   7.281  11.600   3.262
84911W        W50072  27.098   4.199   2.267
84912W        W50073  27.232  19.351   1.734
84913W        W50074  23.615  40.781  11.980
84914W        W50075   8.783  35.606  12.538
84915W        W50076  28.497  41.953   4.785
84916W        W50077   1.436  27.510   1.242
84917W        W50078  20.315  31.011   3.538
84918W        W50079   9.691  22.759   2.416
84919W        W50080   7.833   2.931  14.334
84920W        W50081  41.670   5.581   1.207
84921W        W50082  22.832  30.778   1.648
84922W        W50083  11.241  42.559   2.313
84923W        W50084   4.871  35.167  13.456
84924W        W50085   2.971  35.666   4.697
84925W        W50086  20.572  20.539  14.548
84926W        W50087   3.266   4.044   3.645
84927W        W50088  44.475  22.503   1.775
84928W        W50089  39.688  11.143  13.001
84929W        W50090  21.088  21.492  13.411
84930W        W50091  32.924  12.996  10.534
84931W        W50092   1.077   4.860   1.442
84932W        W50093  27.589  13.634  11.883
84933W        W50094  44.291  25.391   0.336
84934W        W50095  40.120  24.762  11.141
84935W        W50096  36.999  21.929  13.132
84936W        W50097   7.113  33.307  11.114
84937W        W50098   7.693  36.444   0.666
84938W        W50099  39.762  26.680   2.882
84939W        W50100   6.310  27.541   1.461
84940W        W50101  36.136  30.184   0.878
84941W        W50102  18.764  19.544   0.607
84942W        W50103  19.323  16.468   4.588
84943W        W50104  34.331  25.596   3.795
84944W        W50105  24.108  31.816   3.155
84945W        W50106  32.569  18.501   2.497
84946W        W50107  40.328  42.535   0.461
84947W        W50108  37.958  28.180   1.869
84948W        W50109  42.072  18.383  12.995
84949W        W50110  17.215  12.162  13.768
84950W        W50111   0.975   8.763  12.666
84951W        W50112  40.180  11.608  12.016
84952W        W50113   1.447  14.228   1.838
84953W        W50114   9.832   6.058  14.397
84954W        W50115   7.685   3.023   2.194
84955W        W50116  28.159  38.335  14.353
84956W        W50117  27.795  21.394   4.987
84957W        W50118  37.679  33.377  14.758
84958W        W50119   9.209  34.382   4.376
84959W        W50120  34.418  31.994   0.909
84960W        W50121  22.128  12.402  10.531
84961W        W50122  38.962  20.793   4.639
84962W        W50123  16.853  39.971  14.390
84963W        W50124  29.241  17.909  13.891
84964W        W50125  17.669  16.181   3.328
84965W        W50126  16.042  11.899   2.328
84966W        W50127  19.802   8.600   2.734
84967W        W50128  25.032   2.507  14.854
84968W        W50129  39.333  33.769  11.094
84969W        W50130  38.603  27.112  11.597
84970W        W50131  21.780  32.531  12.505
84971W        W50132   2.674  27.663   4.143
84972W        W50133  25.274   9.146   3.696
84973W        W50134   2.331  32.645   4.712
84974W        W50135   7.117  13.818   2.190
84975W        W50136  35.352   2.031  14.454
84976W        W50137   3.243  33.366   2.490
84977W        W50138  43.205  38.862  12.112
84978W        W50139   5.995  26.826   1.001
84979W        W50140  36.086  14.815  13.550
84980W        W50141   3.807  40.894  14.232
84981W        W50142  12.483  31.142  14.755
84982W        W50143  23.034   4.313   4.607
84983W        W50144   9.375  30.423  11.524
84984W        W50145  25.715  14.652  12.041
84985W        W50146  20.085  17.489   0.780
84986W        W50147  11.848  16.453  14.956
84987W        W50148  20.129  23.238  11.988
84988W        W50149  37.285   9.849  11.208
84989W        W50150  23.548   0.721   2.423
84990W        W50151   2.408  20.859  14.335
84991W        W50152   9.213  42.482   3.221
84992W        W50153  40.708  20.713  11.596
84993W        W50154   3.349  31.152  14.802
84994W        W50155  44.393  32.216   4.521
84995W        W50156  26.511  41.188   1.649
84996W        W50157  42.695   3.689   1.742
84997W        W50158  10.201   1.096   3.766
84998W        W50159  22.179   2.711   2.311
84999W        W50160  40.583   7.786   3.107
85000W        W50161  24.256  40.794  13.888
85001W        W50162  19.241  39.391  10.285
85002W        W50163   3.941  32.160  12.037
85003W        W50164  26.135   8.234  10.664
85004W        W50165   2.885  40.672  12.397
85005W        W50166  34.823  23.275  13.532
85006W        W50167  12.421  44.852   4.493
85007W        W50168  18.314  43.369  10.933
85008W        W50169  19.109  25.124  13.639
85009W        W50170  24.759  42.252  11.717
85010W        W50171  24.180  30.830   2.797
85011W        W50172  36.065   2.166   4.587
85012W        W50173  29.069  37.252  13.414
85013W        W50174   7.151  32.071   1.741
85014W        W50175   2.446  16.940   4.484
85015W        W50176  36.876  42.850  13.479
85016W        W50177  38.596  22.593  10.687
85017W        W50178  43.120  14.856   3.089
85018W        W50179  26.000  41.392  14.281
85019W        W50180  34.078  32.021   4.544
85020W        W50181  42.801  16.776   3.134
85021W        W50182   4.732  23.031   3.496
85022W        W50183  33.381   1.957   0.883
85023W        W50184  30.648  33.028  12.578
85024W        W50185  13.533  11.537  11.561
85025W        W50186  21.983  16.435  12.531
85026W        W50187  27.754  41.456  13.829
85027W        W50188  33.457  28.548   0.422
85028W        W50189  18.855  26.944  13.405
85029W        W50190  29.109  19.625  14.569
85030W        W50191  41.224  22.272  12.077
85031W        W50192  15.614  28.405   4.662
85032W        W50193   9.315  41.774   4.114
85033W        W50194  28.272  36.055  13.854
85034W        W50195  10.060  34.936   3.483
85035W        W50196  18.627  43.527   3.158
85036W        W50197  13.884  39.756   4.312
85037W        W50198  38.908  23.762  12.518
85038W        W50199  24.802  16.391   2.341
85039W        W50200  41.980  40.464  13.353
85040W        W50201  12.344  29.857  11.642
85041W        W50202   8.979  22.485  14.537
85042W        W50203  28.436  10.206   3.770
85043W        W50204   2.119  15.786   4.087
85044W        W50205  17.951  21.670  12.834
85045W        W50206  23.454  23.764   0.274
85046W        W50207  34.696   5.668   4.445
85047W        W50208   8.471  21.101  14.462
85048W        W50209   9.650  42.782   1.292
85049W        W50210  42.178  22.672   4.910
85050W        W50211  35.484  34.379   1.208
85051W        W50212   3.921  29.153  12.389
85052W        W50213   2.080  30.356   3.560
85053W        W50214  20.204  27.978   1.792
85054W        W50215  31.370   1.937   4.098
85055W        W50216  38.859   2.509  14.419
85056W        W50217  37.832  17.030  14.569
85057W        W50218  27.518  10.742  13.350
85058W        W50219  37.252  33.310   3.697
85059W        W50220  27.081  29.988  13.087
85060W        W50221   6.204  20.148  14.982
85061W        W50222  10.920   8.238  12.335
85062W        W50223  23.218  18.301  12.583
85063W        W50224   8.246   2.467  12.767
85064W        W50225   8.172  29.006   1.432
85065W        W50226  39.708  32.135  14.238
85066W        W50227   9.331  25.132   0.873
85067W        W50228  24.175   9.162   2.118
85068W        W50229  38.767   9.595  10.850
85069W        W50230  13.584   6.839  12.710
85070W        W50231  17.031  36.962  11.439
85071W        W50232  37.377  20.632   1.143
85072W        W50233  35.647  29.363   2.064
85073W        W50234  34.961  19.778   2.350
85074W        W50235  28.416   8.577  13.184
85075W        W50236  12.901  39.279   1.275
85076W        W50237  24.603   3.163   4.866
85077W        W50238  17.504   2.645   1.774
85078W        W50239   8.654   0.754  12.548
85079W        W50240  10.506   1.370   4.071
85080W        W50241  25.970  11.093  14.693
85081W        W50242   9.264  26.443  13.482
85082W        W50243  44.269   7.162   1.257
85083W        W50244   5.809  41.137   2.870
85084W        W50245  43.553  31.081  14.539
85085W        W50246  36.355   1.322  14.441
85086W        W50247   1.222  23.556   4.520
85087W        W50248  24.060   9.937  12.880
85088W        W50249  16.627  34.702  14.403
85089W        W50250  41.898  41.042  14.666
85090W        W50251   2.652  42.561  14.823
85091W        W50252  43.034  36.430  11.928
85092W        W50253  26.384  24.740   4.183
85093W        W50254   7.093  16.330  14.509
85094W        W50255  11.635  12.911  10.382
85095W        W50256  42.892  26.265  11.183
85096W        W50257  41.724   1.002   2.744
85097W        W50258   7.324  41.427  12.545
85098W        W50259  41.126  38.393  10.943
85099W        W50260  39.985  15.901   4.880
85100W        W50261   8.964  36.450  14.845
85101W        W50262  24.980  24.164   4.089
85102W        W50263  36.418   0.751   0.008
85103W        W50264  27.658   3.659   1.758
85104W        W50265   9.341   5.287  10.639
85105W        W50266   2.643  36.897  11.120
85106W        W50267  36.401  34.980  10.691
85107W        W50268  41.042  14.647  14.460
85108W        W50269  27.847   6.001  14.467
85109W        W50270  10.962   5.436   4.341
85110W        W50271  35.906  27.457  13.503
85111W        W50272  38.988  33.035   3.581
85112W        W50273   5.737  31.580  14.451
85113W        W50274   7.376  43.835   3.211
85114W        W50275  10.322  32.760   1.461
85115W        W50276  18.530  28.373  14.352
85116W        W50277  21.167  13.811  13.129
85117W        W50278  19.986  33.823   1.818
85118W        W50279  11.305  36.331  14.959
85119W        W50280  12.750   6.622   0.417
85120W        W50281   9.383  13.243   2.417
85121W        W50282  22.323  12.526   3.613
85122W        W50283   4.344  28.409   2.350
85123W        W50284  26.500  24.599  12.588
85124W        W50285  31.099  37.358  13.480
85125W        W50286   9.417  10.268  14.307
85126W        W50287  11.684  29.901   3.740
85127W        W50288   4.857  28.527   2.971
85128W        W50289  43.981  34.848  11.544
85129W        W50290   6.883  16.507   0.902
85130W        W50291  22.602  40.917   1.594
85131W        W50292  32.995  22.257  14.385
85132W        W50293   5.838  26.739  11.189
85133W        W50294   5.482  14.674   1.863
85134W        W50295  15.562  38.093   1.010
85135W        W50296  18.248  41.004  14.761
85136W        W50297  35.647   6.266  12.918
85137W        W50298  43.046  18.481  12.184
85138W        W50299   6.887  39.499  10.967
85139W        W50300  15.405  18.364  10.115
85140W        W50301  29.063  14.527   3.245
85141W        W50302  33.348  27.005  10.011
85142W        W50303  15.629  40.626  12.951
85143W        W50304  29.495  44.220   1.848
85144W        W50305  41.597  24.660   2.579
85145W        W50306  17.546   1.910  13.930
85146W        W50307   5.217  11.059  13.522
85147W        W50308   0.506  12.241  13.434
85148W        W50309  37.540  43.147   1.430
85149W        W50310  33.232  44.364   4.981
85150W        W50311   9.446   2.419   2.241
85151W        W50312  13.243  12.564  11.034
85152W        W50313  41.636  35.828   2.859
85153W        W50314  33.052  35.040  11.156
85154W        W50315  21.619  37.460   4.533
85155W        W50316  44.239   2.728   0.223
85156W        W50317  33.455  16.123  14.857
85157W        W50318  34.135  17.352   0.954
85158W        W50319  23.238  24.652  14.753
85159W        W50320  28.493  36.540  11.519
85160W        W50321  25.981  20.124  12.978
85161W        W50322  19.246  30.125   4.559
85162W        W50323   5.699  12.809   2.734
85163W        W50324  37.473  37.895   4.672
85164W        W50325   7.668  24.035  12.646
85165W        W50326  39.728  25.993  10.537
85166W        W50327  27.566  24.599  12.252
85167W        W50328  14.248   3.983   0.812
85168W        W50329  10.944  22.719  13.922
85169W        W50330   9.677  19.623  12.024
85170W        W50331  23.850  11.797   0.273
85171W        W50332  35.373  42.882   0.491
85172W        W50333  30.834  27.185   1.278
85173W        W50334   4.268  34.296  13.103
85174W        W50335  28.141   5.754   2.315
85175W        W50336  14.047  13.241   3.028
85176W        W50337  26.964  21.580  11.683
85177W        W50338   9.212  33.062   2.740
85178W        W50339  16.542  18.567  11.924
85179W        W50340  29.987  21.980  13.999
85180W        W50341  42.404  34.666   2.124
85181W        W50342   2.260   9.290   3.799
85182W        W50343  20.786   5.953  11.132
85183W        W50344   6.238  25.010   3.618
85184W        W50345  43.191  29.048   0.132
85185W        W50346   7.153  40.786  11.559
85186W        W50347   9.457   1.893  11.583
85187W        W50348   9.828   3.941  13.496
85188W        W50349  38.820  41.959  13.152
85189W        W50350  32.930  41.492   3.203
85190W        W50351   7.163   4.283   0.967
85191W        W50352  16.438  15.052  10.396
85192W        W50353  31.931   2.015  13.689
85193W        W50354  34.098  17.148  11.778
85194W        W50355  35.937  40.625  14.430
85195W        W50356  19.325  44.533   1.289
85196W        W50357  20.549  32.914  11.250
85197W        W50358  32.376   1.060   4.170
85198W        W50359  44.928   3.040   4.896
85199W        W50360  42.587   5.428   0.626
85200W        W50361  31.133  19.074  13.901
85201W        W50362  25.261  25.606   1.988
85202W        W50363   9.845   8.891  11.509
85203W        W50364   8.125  38.034   2.800
85204W        W50365  14.519  26.952   1.807
85205W        W50366  39.379  34.945   1.169
85206W        W50367  37.833  28.370  10.770
85207W        W50368  41.302  40.136   3.238
85208W        W50369  16.673  12.535   1.762
85209W        W50370  38.458   5.709  12.889
85210W        W50371  40.593  23.417  11.984
85211W        W50372  42.585  20.017   4.133
85212W        W50373  21.484   9.702  11.185
85213W        W50374  19.180  43.436  12.403
85214W        W50375   0.784  27.903   4.114
85215W        W50376  28.043  40.177   2.745
85216W        W50377   3.900  30.689  14.381
85217W        W50378  38.912  16.520  12.422
85218W        W50379   2.799  16.963   5.200
85219W        W50380   9.309   4.204   3.249
85220W        W50381  31.437   6.371  11.987
85221W        W50382   9.621  17.579  11.607
85222W        W50383   9.093  30.732  11.220
85223W        W50384  25.562   2.425  11.670
85224W        W50385  29.566  37.387   1.749
85225W        W50386  38.617  10.749  14.253
85226W        W50387  26.968  36.371  14.917
85227W        W50388  30.921   3.202   3.088
85228W        W50389  16.972  33.813  11.724
85229W        W50390  44.760   1.928  11.099
85230W        W50391  30.437  14.905   2.821
85231W        W50392  16.237  44.795   1.426
85232W        W50393  11.105   0.452  13.667
85233W        W50394  39.015  17.136   4.882
85234W        W50395  37.573   0.430  12.133
85235W        W50396  40.215  20.028   4.506
85236W        W50397  26.938   3.684   2.262
85237W        W50398   9.852  37.481  13.293
85238W        W50399   8.260  13.034   3.222
85239W        W50400  43.211  33.990   1.384
85240W        W50401   2.402  22.596   2.281
85241W        W50402  35.503  27.631  14.844
85242W        W50403  31.271  18.428   2.887
85243W        W50404  29.954  17.711   2.674
85244W        W50405  17.041  10.640  12.190
85245W        W50406   2.883  43.894   1.703
85246W        W50407  14.707  12.709   4.106
85247W        W50408  18.774  21.227  12.981
85248W        W50409  10.301  42.990   4.805
85249W        W50410   4.171  39.033   1.333
85250W        W50411  20.772  14.302  11.149
85251W        W50412  44.486  23.231  10.513
85252W        W50413   5.681  33.944   3.712
85253W        W50414  32.540  27.580   0.659
85254W        W50415   1.757  15.333  14.061
85255W        W50416  13.665   5.534   4.257
85256W        W50417  44.579  14.601   2.587
85257W        W50418   4.471  28.761   2.698
85258W        W50419  24.305  20.648   1.391
85259W        W50420  12.811  29.695  11.714
85260W        W50421  32.958  13.931   3.807
85261W        W50422  44.498  37.867   0.660
85262W        W50423   6.131  26.667   3.513
85263W        W50424  32.494  31.227   0.229
85264W        W50425   1.327  35.171  12.504
85265W        W50426   7.793  18.763   1.272
85266W        W50427  44.041  23.930   3.305
85267W        W50428  26.523   8.081   1.316
85268W        W50429  15.828  17.319   1.764
85269W        W50430   7.689  28.496   1.862
85270W        W50431   2.362  10.292  14.948
85271W        W50432   8.868  24.270   0.248
85272W        W50433  10.138  17.622  10.670
85273W        W50434  18.277   9.500  10.720
85274W        W50435  18.463  29.462   9.894
85275W        W50436  40.044   6.365  11.116
85276W        W50437  35.039  12.843   4.266
85277W        W50438  27.902   7.339  14.414
85278W        W50439  24.864  15.871  13.416
85279W        W50440  38.502   6.288   1.638
85280W        W50441  19.559  23.496  13.042
85281W        W50442  42.260  13.863   1.073
85282W        W50443  34.662  24.690  14.912
85283W        W50444  28.950  43.341  14.394
85284W        W50445  11.641  34.986  14.760
85285W        W50446  18.144   8.818  10.223
85286W        W50447  19.123   1.390   4.324
85287W        W50448   5.728  14.090   3.090
85288W        W50449   0.500  23.755  14.796
85289W        W50450  39.138  38.276  13.002
85290W        W50451  41.989  34.997  14.969
85291W        W50452   3.928  12.043  14.504
85292W        W50453  40.387  39.454   0.700
85293W        W50454   1.887  34.544  14.683
85294W        W50455  35.791  14.571  13.911
85295W        W50456  32.048   7.580   3.153
85296W        W50457  34.011   1.811   1.460
85297W        W50458  39.965   0.848   0.964
85298W        W50459  10.449  14.293   0.602
85299W        W50460  36.330  33.671  14.797
85300W        W50461   0.384  32.856   4.136
85301W        W50462  25.213  31.373  14.451
85302W        W50463  30.145  26.182   4.299
85303W        W50464  14.063   0.945   3.126
85304W        W50465  10.117  18.004  12.357
85305W        W50466  22.144  39.837  14.967
85306W        W50467  26.914  43.516  11.083
85307W        W50468  12.940   4.115  12.142
85308W        W50469  28.707  18.715   0.647
85309W        W50470   7.744  34.956  13.191
85310W        W50471  31.631   4.836   4.596
85311W        W50472   8.283  17.968  10.959
85312W        W50473  34.885  26.600  10.157
85313W        W50474  40.085  12.311  12.499
85314W        W50475  27.449   6.368  14.319
85315W        W50476  10.137  41.909   2.576
85316W        W50477  11.780   6.020  10.325
85317W        W50478  31.012  24.136   1.405
85318W        W50479  26.022  40.902   3.965
85319W        W50480   4.675  42.322  12.583
85320W        W50481  16.325  30.868   3.979
85321W        W50482  22.361  32.274  11.775
85322W        W50483  12.344  23.012   1.439
85323W        W50484  26.549  22.546  11.834
85324W        W50485  12.191  10.607   4.793
85325W        W50486   3.900  20.203  13.959
85326W        W50487  42.204   6.355   4.052
85327W        W50488  15.942   2.883  11.997
85328W        W50489  37.506   5.616  14.030
85329W        W50490  40.768  14.893  11.187
85330W        W50491  13.675  12.062  11.688
85331W        W50492  14.265  37.945  13.796
85332W        W50493  43.378  15.161  11.542
85333W        W50494   3.677  44.009   2.347
85334W        W50495  27.682  28.834   1.793
85335W        W50496  42.816  20.181  14.063
85336W        W50497   0.759  21.025  11.512
85337W        W50498  42.429   5.235  12.884
85338W        W50499  16.704  28.225  13.989
85339W        W50500  14.563  16.849   2.867
85340W        W50501   1.933  20.595   3.710
85341W        W50502  31.630  28.522   3.249
85342W        W50503  17.059  21.725  11.996
85343W        W50504  26.714  25.205   1.363
85344W        W50505  13.689   1.841   2.862
85345W        W50506  44.888  15.879  11.137
85346W        W50507  18.457  27.710  10.884
85347W        W50508  26.615  36.346   0.969
85348W        W50509  28.678  13.558  13.439
85349W        W50510  42.303   2.682   3.973
85350W        W50511  21.428   5.224  13.868
85351W        W50512  31.050  37.175  12.984
85352W        W50513   3.668  14.480   4.588
85353W        W50514   8.626  24.004  10.756
85354W        W50515   1.657  43.384  11.558
85355W        W50516  19.254  16.592  12.081
85356W        W50517  42.481  38.914   3.592
85357W        W50518  17.348  43.684  14.866
85358W        W50519  42.766   3.978  14.700
85359W        W50520  17.148  19.280  13.077
85360W        W50521   0.858  18.251  14.041
85361W        W50522  14.701  10.057  13.144
85362W        W50523  24.532  37.971  14.277
85363W        W50524  24.032  30.183  13.405
85364W        W50525  15.121  34.116   4.071
85365W        W50526  39.436  37.129   3.196
85366W        W50527  11.121  44.294   3.008
85367W        W50528  27.297  43.311   4.892
85368W        W50529   9.700  21.456   3.994
85369W        W50530   5.724  42.344   3.899
85370W        W50531  33.598  33.071  10.291
85371W        W50532  34.912  23.470  11.610
85372W        W50533  34.561  29.162  14.088
85373W        W50534  30.367   1.463   2.693
85374W        W50535   8.517  33.964  11.054
85375W        W50536   3.112  19.351   4.185
85376W        W50537   3.138  29.534   4.265
85377W        W50538  22.999  21.100  14.368
85378W        W50539   6.731  31.165  12.494
85379W        W50540  36.875   4.256  12.891
85380W        W50541  24.003  30.962   4.836
85381W        W50542  41.346  16.168   3.300
85382W        W50543  24.689  35.387   1.302
85383W        W50544  26.961  13.082  13.208
85384W        W50545   8.721  43.104   1.903
85385W        W50546  43.787   6.703  10.618
85386W        W50547  19.598  40.612   2.685
85387W        W50548  13.695  34.343   4.630
85388W        W50549  23.166   2.087  14.370
85389W        W50550  21.548  18.092   2.763
85390W        W50551   7.003  30.463  13.453
85391W        W50552  24.458   6.920  14.495
85392W        W50553  19.398  43.126   0.786
85393W        W50554  24.966   4.974   2.840
85394W        W50555   9.189  36.568   0.959
85395W        W50556   9.774  34.497   3.279
85396W        W50557  42.374  41.566   1.730
85397W        W50558   4.349  30.633   1.909
85398W        W50559   3.029   9.380   5.119
85399W        W50560  11.216  32.710   3.786
85400W        W50561  13.152   9.974  14.640
85401W        W50562  16.198  13.882   2.780
85402W        W50563  24.068   3.871   1.833
85403W        W50564  15.258  29.956   3.458
85404W        W50565  38.031  26.094  12.473
85405W        W50566  20.611  22.461  13.843
85406W        W50567   9.262   9.294   4.327
85407W        W50568  39.844  19.047   2.982
85408W        W50569  34.602  32.570  13.409
85409W        W50570  23.488  34.588  11.580
85410W        W50571  10.101  13.681   4.663
85411W        W50572  16.194   9.397   3.314
85412W        W50573  40.435  34.336  12.104
85413W        W50574  25.152  27.104   3.891
85414W        W50575  17.669  11.226  12.615
85415W        W50576  30.737  19.275   2.077
85416W        W50577   7.389  38.945   0.752
85417W        W50578  29.865  15.534  10.822
85418W        W50579  44.578  14.581  11.973
85419W        W50580  37.600  31.602   2.303
85420W        W50581  23.414  33.921   2.506
85421W        W50582  21.032   2.456  12.930
85422W        W50583  39.117  14.914  14.301
85423W        W50584  36.620  18.246  13.445
85424W        W50585  16.741   1.790  13.458
85425W        W50586   9.156   4.135   2.360
85426W        W50587   1.141  13.100   0.747
85427W        W50588   2.227  13.255   4.152
85428W        W50589  40.837  28.452  14.112
85429W        W50590  27.708  43.906   3.272
85430W        W50591   1.794   5.413  12.044
85431W        W50592  14.787   8.481   3.826
85432W        W50593   7.121  44.885   2.791
85433W        W50594  18.270   3.505  12.344
85434W        W50595   3.915   0.401   2.988
85435W        W50596  38.361   8.550  13.795
85436W        W50597   7.678  17.201  14.258
85437W        W50598  11.836   3.407   0.303
85438W        W50599  35.518  27.780   4.114
85439W        W50600  38.948   8.447   4.127
85440W        W50601   5.696  13.764  10.756
85441W        W50602   2.032   2.975  13.762
85442W        W50603   0.410   4.710  11.467
85443W        W50604   1.250  14.578   2.460
85444W        W50605   8.698  43.317  10.949
85445W        W50606  44.260  20.800   2.873
85446W        W50607   6.432  40.537  13.965
85447W        W50608  36.867  31.901   3.498
85448W        W50609  19.203  34.966   1.391
85449W        W50610  40.040   0.363  11.847
85450W        W50611  23.185  24.322  11.118
85451W        W50612  21.633  40.121   2.319
85452W        W50613   0.300  32.155   1.490
85453W        W50614  13.645   3.922   2.326
85454W        W50615  18.983   9.265  13.511
85455W        W50616  30.541  22.518   2.272
85456W        W50617  35.921  36.163   1.495
85457W        W50618  43.809   0.033  14.820
85458W        W50619  13.769  14.738   0.876
85459W        W50620  27.061  12.266  10.681
85460W        W50621  20.788  10.358   0.877
85461W        W50622  14.298  39.231   5.216
85462W        W50623  18.572   2.288   0.704
85463W        W50624  34.133  40.218   4.556
85464W        W50625  34.557  16.479   1.820
85465W        W50626  30.265   6.726   3.207
85466W        W50627   8.594  24.842  13.850
85467W        W50628  43.813  38.147   0.422
85468W        W50629  19.110  13.701  11.192
85469W        W50630   8.590  27.532  12.425
85470W        W50631   1.275  41.985  12.822
85471W        W50632  21.082  41.886  11.979
85472W        W50633  39.528  30.447  14.420
85473W        W50634  29.471   4.398  11.534
85474W        W50635  15.013  10.686   2.879
85475W        W50636   1.851  21.441  11.962
85476W        W50637   1.671  36.898   3.577
85477W        W50638  34.341   2.077   1.151
85478W        W50639  15.800  18.108   2.211
85479W        W50640  13.814   9.900   1.748
85480W        W50641  33.758  38.451  11.148
85481W        W50642   9.346   8.477   4.921
85482W        W50643  36.064  35.866   4.626
85483W        W50644   6.748  14.113   2.392
85484W        W50645  15.246  11.340  11.507
85485W        W50646  37.020  31.055  13.943
85486W        W50647  21.247  32.041  13.620
85487W        W50648  17.988  27.350   4.186
85488W        W50649  40.717   9.792  13.665
85489W        W50650   4.306  41.354  11.531
85490W        W50651  41.595  16.248   2.866
85491W        W50652  44.378  31.556   0.418
85492W        W50653  33.015  40.267  12.813
85493W        W50654   8.407  42.707  13.908
85494W        W50655  15.254  18.311   3.139
85495W        W50656  24.972  35.528  12.507
85496W        W50657  40.882  23.719   0.941
85497W        W50658  39.024   1.771  14.972
85498W        W50659  12.834  27.076   0.861
85499W        W50660  34.485   7.367  13.379
85500W        W50661  26.640   5.724  12.567
85501W        W50662  34.936  24.713   2.836
85502W        W50663  33.829  10.374   3.148
85503W        W50664   7.886  38.448  14.036
85504W        W50665   4.350  41.481   1.854
85505W        W50666   3.294  32.834  11.638
85506W        W50667  42.006  41.410   3.526
85507W        W50668  33.914  37.547   3.655
85508W        W50669  21.268  15.249   2.176
85509W        W50670   4.935   4.138   2.746
85510W        W50671   9.957  27.767   0.147
85511W        W50672  11.605  34.911   4.170
85512W        W50673  26.778  41.117  12.475
85513W        W50674   9.841  11.556  10.983
85514W        W50675   3.121  18.214  11.177
85515W        W50676  20.816  40.460   0.366
85516W        W50677  23.189   4.737  11.545
85517W        W50678  21.414  16.501   2.237
85518W        W50679  40.903   1.050   3.348
85519W        W50680  38.855  36.752   0.471
85520W        W50681  25.249   1.303   1.248
85521W        W50682  18.327  26.532  14.492
85522W        W50683   2.138  24.966   0.987
85523W        W50684  25.561   8.597  11.788
85524W        W50685  18.248   3.680  11.027
85525W        W50686  43.675   0.336  12.068
85526W        W50687  40.603  41.144  12.080
85527W        W50688   4.518  18.733  11.339
85528W        W50689  37.751  43.451  14.393
85529W        W50690  26.662  20.482  14.947
85530W        W50691  29.515  37.471  11.219
85531W        W50692  18.668  40.867  12.542
85532W        W50693  43.188  33.016   4.826
85533W        W50694  32.471   7.782  11.783
85534W        W50695  38.109   5.667  11.484
85535W        W50696  38.513  15.065  12.129
85536W        W50697  42.852  30.466  11.573
85537W        W50698  40.318  28.534   2.279
85538W        W50699  43.895  14.227   1.276
85539W        W50700  36.897  20.787  11.975
85540W        W50701   8.334   3.710   3.411
85541W        W50702  14.190  40.371   0.835
85542W        W50703  37.841  42.959  14.146
85543W        W50704  25.304  17.538  11.647
85544W        W50705  16.109   9.490   2.275
85545W        W50706  33.348  12.416   2.175
85546W        W50707  11.041  42.798  13.778
85547W        W50708  34.548  25.560  14.791
85548W        W50709  15.315   8.646  11.187
85549W        W50710  23.461  18.135   0.424
85550W        W50711   3.694   0.466   4.155
85551W        W50712  30.292   5.388   2.674
85552W        W50713  35.069  23.060  13.936
85553W        W50714  16.737  24.883   3.950
85554W        W50715  28.709   3.950  10.362
85555W        W50716   4.040  21.581  14.718
85556W        W50717  29.133  13.925  14.145
85557W        W50718  13.847   6.472   4.084
85558W        W50719  38.279  41.088   4.629
85559W        W50720  32.372  21.840   0.420
85560W        W50721   7.307  32.214  13.445
85561W        W50722  10.309  37.007  11.092
85562W        W50723  25.598   9.525  14.920
85563W        W50724   8.649  37.395  14.839
85564W        W50725  38.321   5.921   4.800
85565W        W50726  18.033  32.029  13.375
85566W        W50727  16.292  27.028  12.395
85567W        W50728  41.805  15.545  12.093
85568W        W50729  23.754  14.536   3.091
85569W        W50730   5.584   0.793  11.575
85570W        W50731  23.119   2.281  13.831
85571W        W50732  43.877  14.106  14.296
85572W        W50733  31.138  35.919  14.930
85573W        W50734   9.757  31.447   1.189
85574W        W50735  33.629  30.595  11.364
85575W        W50736   3.652  23.434   4.355
85576W        W50737  36.692  41.480  12.866
85577W        W50738  41.927  34.882  13.465
85578W        W50739   0.205   0.994   4.635
85579W        W50740  37.427  31.216   4.857
85580W        W50741   2.380  24.142   4.102
85581W        W50742   4.206  39.245  13.322
85582W        W50743  29.622  44.005  13.407
85583W        W50744  38.088  32.539  14.907
85584W        W50745  27.755  12.739   4.751
85585W        W50746  42.617  11.186  14.031
85586W        W50747   3.977  38.843   1.788
85587W        W50748  22.694  32.692  13.475
85588W        W50749  12.938  31.465  12.013
85589W        W50750  16.401  32.079   1.302
85590W        W50751  17.534  25.862   3.664
85591W        W50752   2.248   7.763   0.196
85592W        W50753   6.836  37.990   4.316
85593W        W50754  32.993   6.447  13.287
85594W        W50755   3.300   5.779  10.770
85595W        W50756  15.170   7.915   3.072
85596W        W50757  24.975  30.882   0.726
85597W        W50758  43.946   7.643   2.417
85598W        W50759  42.914  40.751  11.156
85599W        W50760  27.827   1.814   0.531
85600W        W50761  24.975  35.538  14.949
85601W        W50762  38.903  43.418  13.076
85602W        W50763  26.372  29.532  13.396
85603W        W50764  28.874  23.488  12.852
85604W        W50765  25.721  14.628   2.578
85605W        W50766   3.699   7.888  12.384
85606W        W50767   7.433  27.279   3.593
85607W        W50768  13.763  10.277  14.996
85608W        W50769   8.194  31.011  11.756
85609W        W50770  27.532  22.131  10.405
85610W        W50771  37.563  17.213  12.989
85611W        W50772   0.826   8.426  14.748
85612W        W50773   9.536   2.863  10.546
85613W        W50774  35.369  42.284   2.837
85614W        W50775   2.392  21.520  13.034
85615W        W50776  26.802  41.429  11.531
85616W        W50777  30.118  14.170  14.918
85617W        W50778  35.917   7.617   0.327
85618W        W50779  17.557  32.925  14.911
85619W        W50780  23.465  12.876  11.321
85620W        W50781  10.841  10.454   3.767
85621W        W50782   8.327  44.710   4.435
85622W        W50783  24.625  44.795  11.980
85623W        W50784  34.200  41.807   1.227
85624W        W50785   7.091  29.155   3.608
85625W        W50786  22.700  19.817  12.075
85626W        W50787  41.217  22.035   5.284
85627W        W50788   2.218  10.442   4.261
85628W        W50789  33.178   0.607  11.646
85629W        W50790  40.826  33.096  12.132
85630W        W50791  25.619  35.369   1.898
85631W        W50792  27.770   2.387  14.417
85632W        W50793  26.351  31.528  12.566
85633W        W50794  11.568  15.291  12.053
85634W        W50795  32.911  32.822  11.254
85635W        W50796   0.596  23.261  13.976
85636W        W50797  38.863  18.096   3.735
85637W        W50798  38.154   0.340   2.715
85638W        W50799  28.457   6.586  11.494
85639W        W50800  18.252  25.364  10.733
85640W        W50801  16.216  31.769   0.166
85641W        W50802   3.274  38.014   3.660
85642W        W50803  27.538  40.026   1.813
85643W        W50804  33.588  38.562  13.394
85644W        W50805  37.529  28.085   2.624
85645W        W50806  24.390  21.660  13.185
85646W        W50807  13.823  11.874   3.718
85647W        W50808  17.143  40.499   4.010
85648W        W50809  30.434  43.680   0.840
85649W        W50810   5.196   6.342   2.853
85650W        W50811   2.859  38.579   2.099
85651W        W50812   5.269  21.100  12.472
85652W        W50813   7.711  34.609  13.584
85653W        W50814  37.599  40.369   4.265
85654W        W50815  24.315  10.805   9.906
85655W        W50816  20.015  17.165  11.168
85656W        W50817   1.378  15.672  12.610
85657W        W50818  25.944  27.400  12.534
85658W        W50819  22.398  32.862  11.240
85659W        W50820  28.226  34.478   4.177
85660W        W50821  17.786  25.605   2.960
85661W        W50822  24.582  25.863  14.489
85662W        W50823  37.061  22.176   4.417
85663W        W50824  42.919  31.084  12.205
85664W        W50825  11.564  12.054  12.051
85665W        W50826   0.694  22.082  10.554
85666W        W50827  40.506  43.419   2.862
85667W        W50828   7.650  14.375  12.401
85668W        W50829   5.347  42.815  10.648
85669W        W50830   0.443  40.914  10.846
85670W        W50831  11.280  21.532   1.546
85671W        W50832  24.462   1.686   0.977
85672W        W50833  19.587  16.138   3.536
85673W        W50834  30.500  20.323   1.153
85674W        W50835   2.974  13.586  12.121
85675W        W50836   2.993  20.547   4.929
85676W        W50837  16.874  37.352   3.729
85677W        W50838  23.197  34.471  14.965
85678W        W50839   2.485  29.926   1.883
85679W        W50840  30.514  10.329  11.974
85680W        W50841  13.549  24.233   3.305
85681W        W50842  19.672  43.207  11.671
85682W        W50843  34.088  25.395   1.374
85683W        W50844  10.550   6.418  10.973
85684W        W50845   7.420  18.422   0.265
85685W        W50846  31.418  17.036   0.204
85686W        W50847  17.893   9.349  12.444
85687W        W50848  41.783   4.401  14.945
85688W        W50849   7.366  20.956   1.329
85689W        W50850   2.272  26.758   3.237
85690W        W50851  29.577  27.659   3.840
85691W        W50852   3.217  36.221   0.035
85692W        W50853  15.859   8.950  12.716
85693W        W50854  29.658  26.135   1.459
85694W        W50855  15.118  20.299   1.427
85695W        W50856  12.108  26.555  13.897
85696W        W50857  44.733  16.673  14.362
85697W        W50858  24.068  20.327   2.110
85698W        W50859  28.984   2.425   0.517
85699W        W50860   2.963  12.563  14.339
85700W        W50861  30.157  42.354   0.334
85701W        W50862  35.018  36.389  14.710
85702W        W50863  26.265   9.499  11.949
85703W        W50864   8.407  36.528   4.244
85704W        W50865  14.740  12.851  12.506
85705W        W50866  27.747  13.698   3.691
85706W        W50867  15.667  15.277   3.579
85707W        W50868  32.453  38.420  11.634
85708W        W50869  32.433  42.382   4.101
85709W        W50870  43.399   3.474   1.812
85710W        W50871  11.188   0.461  14.231
85711W        W50872  35.079   4.869  14.287
85712W        W50873  33.011  19.582  12.942
85713W        W50874   3.832  34.297   0.107
85714W        W50875  26.089   4.219   1.347
85715W        W50876  36.009  24.327   1.275
85716W        W50877  12.758  15.752  12.439
85717W        W50878  42.755  13.314   1.359
85718W        W50879  36.958  40.185   2.326
85719W        W50880  44.830  13.340  12.123
85720W        W50881  23.139  40.577   2.102
85721W        W50882   1.348  21.608  11.913
85722W        W50883  14.533  12.659  14.015
85723W        W50884   8.638  24.607   0.978
85724W        W50885  12.878  26.554   1.646
85725W        W50886  22.198  38.758  10.659
85726W        W50887   1.510  36.927   2.306
85727W        W50888   9.622  27.160  14.776
85728W        W50889  26.709  25.586  12.790
85729W        W50890  32.850  35.994  14.015
85730W        W50891  10.197  36.907  12.553
85731W        W50892  33.100  29.208  14.324
85732W        W50893   8.136  24.092   1.928
85733W        W50894  10.749  19.787  13.007
85734W        W50895  43.943  29.963   4.588
85735W        W50896  42.830  13.680  12.082
85736W        W50897  20.501   4.841   1.340
85737W        W50898  33.245  27.448  13.787
85738W        W50899  28.682  21.339  13.857
85739W        W50900   5.752  17.568   0.287
85740W        W50901   7.863  21.557   2.719
85741W        W50902  32.426  14.834   2.566
85742W        W50903  24.644  15.654  10.157
85743W        W50904  33.530  26.551  13.076
85744W        W50905  26.122  41.487   1.740
85745W        W50906  27.267  14.353  14.552
85746W        W50907  33.119   5.673  10.693
85747W        W50908  20.733  16.008   0.782
85748W        W50909  27.214   4.320   3.345
85749W        W50910  24.060   5.384   3.625
85750W        W50911  25.385   3.469  14.913
85751W        W50912  29.971   5.453   4.384
85752W        W50913   6.438  20.645   0.146
85753W        W50914  13.657  14.167  13.371
85754W        W50915   1.829   1.292  11.595
85755W        W50916  20.704  24.453   0.050
85756W        W50917  28.151   5.947   0.875
85757W        W50918  28.415  18.422   0.300
85758W        W50919   4.921   6.877   3.647
85759W        W50920  34.531  31.949   2.006
85760W        W50921   7.215  24.053  12.950
85761W        W50922  27.104  15.224  10.102
85762W        W50923  20.141  40.894  10.265
85763W        W50924   7.119  11.125   0.834
85764W        W50925  20.696  37.611   4.197
85765W        W50926   6.156  42.005  11.279
85766W        W50927  27.176  20.573  14.924
85767W        W50928  25.693  43.460   5.090
85768W        W50929   2.264   5.008  10.367
85769W        W50930  37.654  41.126   2.126
85770W        W50931  31.489  30.218  14.674
85771W        W50932   8.360  20.845  14.027
85772W        W50933  21.283   9.681   3.100
85773W        W50934  11.830  35.563   2.567
85774W        W50935  28.056  42.040   3.225
85775W        W50936  34.513  39.950  14.833
85776W        W50937   5.189  23.755   2.864
85777W        W50938  15.487  38.371  11.252
85778W        W50939   9.223  13.367   4.263
85779W        W50940  26.189  30.886  11.153
85780W        W50941  37.106  14.936  13.550
85781W        W50942  32.100  11.609  13.455
85782W        W50943  23.914  23.059   0.590
85783W        W50944  25.671  40.646  12.940
85784W        W50945  21.779   0.944  12.518
85785W        W50946  43.678  19.911   0.329
85786W        W50947  41.241  31.711  10.693
85787W        W50948  37.957  22.419  12.654
85788W        W50949   1.508  22.539   3.755
85789W        W50950  40.347  44.079  13.178
85790W        W50951  21.480  44.687  11.120
85791W        W50952   8.803  35.807   0.624
85792W        W50953  23.177  36.902  10.689
85793W        W50954  44.468  28.135   1.364
85794W        W50955  18.651  11.383  12.457
85795W        W50956  22.236  28.487  13.277
85796W        W50957  16.610  41.891   1.461
85797W        W50958  37.623  29.211   3.876
85798W        W50959  19.049  36.103   1.788
85799W        W50960  11.618  39.293   0.004
85800W        W50961  15.256  10.372   4.322
85801W        W50962   9.063  14.189  11.683
85802W        W50963  44.896  27.192  12.764
85803W        W50964  21.326  42.444  11.138
85804W        W50965  25.585   1.044  11.780
85805W        W50966  11.662  17.767  12.928
85806W        W50967  19.891  29.698   5.045
85807W        W50968  25.470   7.725  11.181
85808W        W50969  38.188  41.507   1.345
85809W        W50970  37.572   4.255   1.229
85810W        W50971  26.169  21.036  12.372
85811W        W50972   1.698  44.979   2.924
85812W        W50973  24.089   4.706   3.414
85813W        W50974  21.160   6.376   4.093
85814W        W50975  30.104  43.870  11.507
85815W        W50976  21.276   8.696  13.976
85816W        W50977  17.507   2.289  14.764
85817W        W50978  40.528  11.489   5.088
85818W        W50979  34.892   1.142   2.612
85819W        W50980  11.757  37.052   3.123
85820W        W50981  20.537  15.863   1.756
85821W        W50982  24.889  25.500  11.257
85822W        W50983  30.230  35.961  14.818
85823W        W50984  39.389  43.816   2.707
85824W        W50985  13.493  39.268   0.422
85825W        W50986   7.917  12.582   2.782
85826W        W50987  25.540  30.399  14.983
85827W        W50988  30.129  26.596  14.005
85828W        W50989  16.238  41.810  13.085
85829W        W50990  16.188  33.031  11.019
85830W        W50991  19.587  33.990  14.763
85831W        W50992   7.423  29.582   1.869
85832W        W50993  32.373  12.881   3.196
85833W        W50994   2.286  42.820  12.001
85834W        W50995  38.999   5.912   4.032
85835W        W50996  12.830  33.474   1.123
85836W        W50997  28.096  10.949   0.439
85837W        W50998   5.666  27.578  13.943
85838W        W50999  33.167   8.876   4.414
85839W        W51000   7.479  28.264   3.890
85840W        W51001   6.133  41.731   0.848
85841W        W51002  41.106  43.298   3.694
85842W        W51003   2.029  34.945  13.086
85843W        W51004  10.368  22.289  14.946
85844W        W51005  10.098   0.014   1.844
85845W        W51006  43.385  22.020   1.978
85846W        W51007  36.713   0.132   1.865
85847W        W51008   2.826   7.211  13.533
85848W        W51009  21.564   4.428   3.395
85849W        W51010  33.949  14.759  10.737
85850W        W51011   2.044   9.491  12.350
85851W        W51012   6.874  11.420   0.036
85852W        W51013  13.899  34.692  11.190
85853W        W51014  12.165  21.002  11.931
85854W        W51015  33.608   8.189   1.789
85855W        W51016   4.932   3.660   4.636
85856W        W51017  16.925  38.370   1.578
85857W        W51018  33.739  44.446  12.870
85858W        W51019  44.177  31.597  12.132
85859W        W51020  44.009  20.115   4.259
85860W        W51021  38.554  20.044  14.581
85861W        W51022  17.080  25.064   1.397
85862W        W51023  26.614  29.082  13.277
85863W        W51024   9.299  11.859   0.407
85864W        W51025  13.290  34.705  14.359
85865W        W51026  17.414  11.966   4.267
85866W        W51027  27.543   8.708   1.773
85867W        W51028   1.760  14.239   3.252
85868W        W51029  20.379   5.178  12.083
85869W        W51030  27.621   8.017   3.349
85870W        W51031  25.892  27.057  11.677
85871W        W51032  20.151   4.907  10.089
85872W        W51033  13.833   3.333  14.738
85873W        W51034  15.634  44.954  12.346
85874W        W51035  40.110  26.626   1.308
85875W        W51036  18.172   0.738   1.142
85876W        W51037   2.366  27.257  13.447
85877W        W51038  22.642   2.534  13.817
85878W        W51039  17.005  15.944  10.367
85879W        W51040  37.920  33.799   0.077
85880W        W51041  13.330  44.505  11.791
85881W        W51042  17.629  17.594   0.292
85882W        W51043   6.208  35.042  11.559
85883W        W51044  35.955  13.093   3.280
85884W        W51045  33.095  30.351   4.399
85885W        W51046  44.679   0.921  11.162
85886W        W51047  25.930   8.433  10.250
85887W        W51048  35.380  29.610   4.018
85888W        W51049   2.082  32.778   2.229
85889W        W51050  37.471  16.926   4.624
85890W        W51051  43.117  26.017   4.897
85891W        W51052   1.035  36.944  12.493
85892W        W51053  43.836  42.247   3.782
85893W        W51054  13.074  17.597  11.520
85894W        W51055  25.925   0.459  14.939
85895W        W51056  11.016  18.236   5.195
85896W        W51057  24.733  37.258   5.060
85897W        W51058  18.541  30.465   2.823
85898W        W51059  42.345  36.025   3.318
85899W        W51060  39.525  39.037   0.766
85900W        W51061  34.345   3.385   2.369
85901W        W51062  23.091  11.576  12.993
85902W        W51063  13.727  21.640  10.698
85903W        W51064  13.982  40.310  14.969
85904W        W51065   5.937  33.477   3.679
85905W        W51066  37.525   6.838  10.705
85906W        W51067  44.823  28.450   3.745
85907W        W51068  19.301  15.956   4.488
85908W        W51069  10.191  33.132   0.497
85909W        W51070  19.024  37.513   2.344
85910W        W51071  44.962  23.827   2.336
85911W        W51072   1.018  40.458   1.604
85912W        W51073   7.621  15.872   0.806
85913W        W51074   6.878  42.766  14.630
85914W        W51075  12.765   9.637  13.758
85915W        W51076  16.659  42.466  14.863
85916W        W51077  10.199   5.414   1.963
85917W        W51078  28.358  30.071   0.771
85918W        W51079  33.683  25.192  11.583
85919W        W51080  37.034   1.726  10.961
85920W        W51081  17.495  20.761  10.617
85921W        W51082   4.689  40.521   2.245
85922W        W51083  11.347  16.827  13.841
85923W        W51084  23.558   9.168  12.880
85924W        W51085  41.833  38.223   1.369
85925W        W51086   0.891   0.392  12.467
85926W        W51087  42.482  11.674  14.239
85927W        W51088  42.540  12.699  12.049
85928W        W51089  13.348  23.178  13.948
85929W        W51090  11.223  34.277   0.904
85930W        W51091  42.859   2.641  10.774
85931W        W51092  38.882   2.237   2.685
85932W        W51093   1.991  42.717  13.326
85933W        W51094   4.566  22.866   5.054
85934W        W51095  22.919  37.805  10.455
85935W        W51096  10.989  38.065   0.104
85936W        W51097  23.218  23.798  13.101
85937W        W51098   1.230   5.729  14.802
85938W        W51099  15.830  10.158  12.674
85939W        W51100  21.309  26.575   0.918
85940W        W51101  14.269  22.584   5.203
85941W        W51102  35.481  27.856   2.299
85942W        W51103  23.940  30.102  14.391
85943W        W51104  38.222   3.471   4.612
85944W        W51105  43.058   2.593  13.900
85945W        W51106   2.635  20.659  12.083
85946W        W51107   3.289  42.376   4.441
85947W        W51108  39.281  42.150  13.017
85948W        W51109  26.677  27.481   2.340
85949W        W51110  32.676  21.599   0.788
85950W        W51111  18.087  24.492   2.759
85951W        W51112  12.644  16.301   0.999
85952W        W51113  21.967  39.958   5.576
85953W        W51114  16.071  21.075   3.184
85954W        W51115  37.889  21.745  11.497
85955W        W51116  37.703   4.799  12.021
85956W        W51117  13.318  43.542  12.607
85957W        W51118  19.546  40.469  14.070
85958W        W51119   6.987  26.140  14.927
85959W        W51120  15.192  25.203   4.200
85960W        W51121  10.463   6.246   5.117
85961W        W51122  29.105  39.817   0.954
85962W        W51123  13.649   3.326  13.484
85963W        W51124  28.140  12.454   4.036
85964W        W51125  10.334  10.079   2.563
85965W        W51126  32.623  10.381  12.562
85966W        W51127  27.115   0.321   1.439
85967W        W51128  24.902   9.799   4.608
85968W        W51129  10.195  24.538   2.400
85969W        W51130  19.744   2.396   1.308
85970W        W51131  40.813  34.233   4.876
85971W        W51132  13.541  11.601   5.039
85972W        W51133  29.717  22.928   1.876
85973W        W51134  15.206   3.958  13.917
85974W        W51135  17.089  21.065   0.350
85975W        W51136   2.272   8.445  13.677
85976W        W51137  41.427   1.315  12.799
85977W        W51138  27.149  36.340   3.615
85978W        W51139   6.934  22.541   4.288
85979W        W51140  15.229  18.092   5.467
85980W        W51141  39.392  42.407   0.550
85981W        W51142  22.476  43.767   2.761
85982W        W51143  17.891   4.198   1.772
85983W        W51144   8.237  35.714   3.092
85984W        W51145   5.303  11.433  11.559
85985W        W51146  12.734  40.507   0.907
85986W        W51147  29.922   7.699   3.390
85987W        W51148   3.722   3.032   2.630
85988W        W51149   0.364  33.131   1.434
85989W        W51150  18.490  44.796   1.854
85990W        W51151   4.295  21.850  12.398
85991W        W51152  40.511   6.945  14.329
85992W        W51153   2.362   0.964  12.122
85993W        W51154  19.556  18.182   4.190
85994W        W51155  18.694  17.658   2.937
85995W        W51156  17.574   5.724  10.648
85996W        W51157  19.519  37.006  13.919
85997W        W51158  34.951   0.013  14.375
85998W        W51159  15.505   9.219   2.824
85999W        W51160  15.810   2.849   2.359
86000W        W51161  24.193   1.660  13.254
86001W        W51162  16.037  40.435   2.472
86002W        W51163  35.897  10.836   4.075
86003W        W51164  33.717  31.195   2.807
86004W        W51165  38.832  36.949   2.656
86005W        W51166  33.899  18.106  12.109
86006W        W51167  21.648  28.347  12.769
86007W        W51168  22.991  42.975   5.032
86008W        W51169   6.735  36.883   4.770
86009W        W51170  14.908  20.093   4.054
86010W        W51171  41.930  33.404   0.388
86011W        W51172  17.529   0.797   2.753
86012W        W51173  42.442  38.611  12.523
86013W        W51174  35.518  30.852   2.932
86014W        W51175  39.840  21.719  14.478
86015W        W51176  29.135   9.158   4.295
86016W        W51177  12.710  24.114  12.895
86017W        W51178  21.789  23.020   0.446
86018W        W51179  40.455  20.579  11.158
86019W        W51180  11.213   7.284  12.627
86020W        W51181  37.518  37.477   2.268
86021W        W51182  21.764  11.275  14.932
86022W        W51183  44.800   0.062   1.717
86023W        W51184   0.430  21.529   0.666
86024W        W51185   8.333  16.693  10.415
86025W        W51186  38.250  19.619   5.009
86026W        W51187   8.739  34.163  14.374
86027W        W51188  32.161  12.310   2.015
86028W        W51189  29.527  25.337  14.077
86029W        W51190   9.653  43.903   3.707
86030W        W51191   5.504  37.021  12.656
86031W        W51192  29.996  30.891   0.324
86032W        W51193   2.074  13.306  12.907
86033W        W51194  15.516  26.567   0.800
86034W        W51195   3.727  14.301  14.567
86035W        W51196  17.479  18.182  11.586
86036W        W51197  17.482  20.130  10.679
86037W        W51198   7.399  34.603   1.814
86038W        W51199  39.449  34.413   2.421
86039W        W51200  30.061  31.159   2.799
86040W        W51201   6.310  12.342   1.630
86041W        W51202  23.970   4.213  13.870
86042W        W51203  38.051  43.810   3.307
86043W        W51204  34.159  18.229   0.935
86044W        W51205  12.150  19.633  13.056
86045W        W51206  16.261  19.496  10.458
86046W        W51207  17.071  16.788   2.333
86047W        W51208  41.729   2.440   0.316
86048W        W51209  19.586  37.016   4.423
86049W        W51210  22.623  37.104   1.425
86050W        W51211  12.360  16.881  14.797
86051W        W51212  26.514  22.054   0.825
86052W        W51213   1.708  44.499  12.093
86053W        W51214  35.503  40.338  14.396
86054W        W51215  12.678  16.573  10.774
86055W        W51216  20.202  15.434   4.058
86056W        W51217  13.127   7.807  12.802
86057W        W51218  33.555  26.123  10.722
86058W        W51219  40.922  13.371   2.327
86059W        W51220  34.201  27.531  11.634
86060W        W51221  33.314  21.068  11.895
86061W        W51222  15.118  15.109  12.435
86062W        W51223  24.336  26.769   4.555
86063W        W51224  34.479  21.721   2.886
86064W        W51225  10.186  33.914   5.266
86065W        W51226  30.423  10.326   2.956
86066W        W51227  15.534  33.112   1.409
86067W        W51228  13.274  20.549  11.437
86068W        W51229  22.612  42.043   1.171
86069W        W51230   9.812  37.244  14.258
86070W        W51231  42.013  36.966  14.382
86071W        W51232  44.394  26.315  14.305
86072W        W51233  33.391  41.225   1.548
86073W        W51234  27.555  24.522   3.674
86074W        W51235  42.043  13.149   0.314
86075W        W51236  23.991   9.311  13.795
86076W        W51237   0.031  20.148  14.478
86077W        W51238  41.228  40.650  14.001
86078W        W51239  14.098  36.674  11.614
86079W        W51240  16.801  31.431  14.798
86080W        W51241  29.341   5.030  11.476
86081W        W51242  14.658  42.868   0.948
86082W        W51243  43.883  12.126  11.178
86083W        W51244  44.821  18.275   1.956
86084W        W51245  15.211   9.169  14.811
86085W        W51246  41.790   7.890   2.749
86086W        W51247  24.219  22.054  12.499
86087W        W51248   6.662  24.743  14.627
86088W        W51249  22.560   2.046  13.968
86089W        W51250  32.655  43.605   1.206
86090W        W51251  31.617  39.396   2.738
86091W        W51252   7.932  10.494  11.271
86092W        W51253  42.296  28.287   1.797
86093W        W51254   1.673  35.973  11.938
86094W        W51255  25.966  21.078  12.861
86095W        W51256  25.214  41.303  10.681
86096W        W51257  17.880  22.578  12.924
86097W        W51258  31.757   4.353  13.668
86098W        W51259  37.789  29.414  11.563
86099W        W51260  14.346  27.238  14.369
86100W        W51261  17.570   2.565   0.796
86101W        W51262  41.828  39.621   4.151
86102W        W51263  17.691  41.021  13.920
86103W        W51264   7.179  27.051   4.846
86104W        W51265   2.255   8.772   1.297
86105W        W51266  15.928  27.161   2.882
86106W        W51267  38.941   0.123  12.475
86107W        W51268  31.865  44.530  13.886
86108W        W51269  33.070   3.033  12.053
86109W        W51270   7.360  16.144  12.604
86110W        W51271  37.243  31.029  10.836
86111W        W51272  15.011  40.887  14.004
86112W        W51273  19.674  28.649   1.262
86113W        W51274  31.979  30.438   1.727
86114W        W51275   8.849  26.735  13.444
86115W        W51276   7.901  25.452  14.545
86116W        W51277  43.503  37.771   4.063
86117W        W51278  33.956  35.371  10.341
86118W        W51279   7.507   3.015  14.765
86119W        W51280  21.029  21.230   2.087
86120W        W51281  32.762  37.688  12.976
86121W        W51282   5.759  12.923  11.051
86122W        W51283   1.852  42.553  14.318
86123W        W51284  30.405  25.431  12.332
86124W        W51285  34.323  16.263   4.049
86125W        W51286  28.687  14.453   5.038
86126W        W51287  39.913  12.162  14.478
86127W        W51288  26.803  14.204   4.466
86128W        W51289  36.435  36.180  11.265
86129W        W51290  12.719  24.908  13.491
86130W        W51291   0.978  25.868  13.918
86131W        W51292   7.429  18.314  13.282
86132W        W51293   1.257  20.761   1.639
86133W        W51294  13.733  38.750  12.042
86134W        W51295  10.600  33.465   1.585
86135W        W51296  36.632  22.715  14.422
86136W        W51297  18.609  33.424   3.441
86137W        W51298  15.387  42.007  14.550
86138W        W51299  14.885  42.799  14.348
86139W        W51300  29.096   0.814   0.676
86140W        W51301  19.588  26.049  14.560
86141W        W51302  29.532  15.817   1.386
86142W        W51303   8.051  40.840   3.704
86143W        W51304  27.456  23.629  13.987
86144W        W51305  38.005  37.000   0.093
86145W        W51306  12.876  20.942  14.172
86146W        W51307  37.163   4.894  13.406
86147W        W51308  37.028   5.013   3.135
86148W        W51309  33.223  38.352  11.473
86149W        W51310  17.014   2.379   1.260
86150W        W51311  10.968  35.985   1.880
86151W        W51312  31.902   5.527   0.698
86152W        W51313   9.648  35.332   1.818
86153W        W51314  36.602  13.674   1.872
86154W        W51315  35.145  27.140  14.285
86155W        W51316  16.864  20.251  12.623
86156W        W51317   5.008  27.612   1.177
86157W        W51318  15.252   4.856   2.957
86158W        W51319  38.514  26.405  13.354
86159W        W51320  43.864  41.565  13.847
86160W        W51321   5.292  22.612  11.368
86161W        W51322  30.207  13.832   0.300
86162W        W51323  30.567  44.056  13.320
86163W        W51324  29.720   3.977   1.921
86164W        W51325  36.877  44.449   0.856
86165W        W51326  29.658  40.270   4.144
86166W        W51327  43.959  41.711  10.245
86167W        W51328  12.756  36.342   2.937
86168W        W51329   4.600  37.522  10.747
86169W        W51330  15.087  43.643   2.814
86170W        W51331  37.998  33.125   0.725
86171W        W51332  17.892   8.388   3.683
86172W        W51333  18.853  28.674  12.032
86173W        W51334  24.065  25.295   0.660
86174W        W51335  29.650  38.392  14.311
86175W        W51336   6.770  21.717  14.480
86176W        W51337  14.808  11.703  11.958
86177W        W51338   1.818  44.872   0.958
86178W        W51339  14.593  36.586   0.554
86179W        W51340  13.805  30.520   0.967
86180W        W51341   8.678  17.425  11.679
86181W        W51342  34.576  42.432   1.753
86182W        W51343  38.437  29.454  13.486
86183W        W51344  34.465   4.380   4.252
86184W        W51345  12.155   7.672  11.587
86185W        W51346   2.959   2.240   0.993
86186W        W51347  10.295   5.941   1.012
86187W        W51348  12.076   4.744  13.503
86188W        W51349  41.316  29.667   1.439
86189W        W51350  24.675   4.221   2.440
86190W        W51351  22.182  44.762   3.621
86191W        W51352   9.501  36.071   3.082
86192W        W51353  37.377  26.531  11.277
86193W        W51354  21.689  29.290  12.009
86194W        W51355  16.756   1.339  13.824
86195W        W51356  29.523   2.506  13.910
86196W        W51357   7.274  40.904   4.398
86197W        W51358  14.229  13.601  13.922
86198W        W51359  41.929  22.645  13.370
86199W        W51360  28.415  25.181  11.641
86200W        W51361   3.658  19.488   2.115
86201W        W51362   7.782  18.265   1.442
86202W        W51363  28.733  37.766   5.111
86203W        W51364  25.064   4.000   3.552
86204W        W51365  10.240   7.795   2.126
86205W        W51366  16.306  40.791  11.646
86206W        W51367  26.409  22.841   4.156
86207W        W51368  19.099  29.147  11.946
86208W        W51369  32.005  26.537  13.836
86209W        W51370  43.530  27.114  13.900
86210W        W51371   5.109  13.266  11.208
86211W        W51372  19.691   0.217  14.020
86212W        W51373  28.964   3.500  12.447
86213W        W51374  32.603  33.060   0.277
86214W        W51375   6.250  17.729   4.294
86215W        W51376  31.696   3.433   1.231
86216W        W51377  28.081  29.076   3.926
86217W        W51378  32.512  12.616  14.972
86218W        W51379  34.824  28.652  12.845
86219W        W51380  20.910  44.020  14.189
86220W        W51381  30.863  10.209   1.604
86221W        W51382  27.751  43.559   0.620
86222W        W51383  42.945  40.695   2.624
86223W        W51384  35.874  26.218  12.094
86224W        W51385  29.634   6.301  13.088
86225W        W51386  10.335  44.789  10.474
86226W        W51387  22.174  43.792   0.992
86227W        W51388  41.604   1.825   3.223
86228W        W51389  42.518  21.180  12.651
86229W        W51390  18.387   4.736   1.724
86230W        W51391  41.781   2.368  14.510
86231W        W51392  39.768  22.497  12.659
86232W        W51393  14.959  44.925   4.654
86233W        W51394  31.972  39.615  11.681
86234W        W51395  29.433  18.095  11.123
86235W        W51396   2.207  40.832   4.183
86236W        W51397   9.760  10.507  11.144
86237W        W51398  41.864   6.006   4.555
86238W        W51399  44.264  26.441  13.802
86239W        W51400  42.589   5.082   2.463
86240W        W51401  13.339  18.073  12.527
86241W        W51402  20.312  19.711   1.290
86242W        W51403   1.671  26.524   1.980
86243W        W51404  12.766  17.627  11.945
86244W        W51405  17.180  12.734   4.403
86245W        W51406  28.017  29.570   5.273
86246W        W51407   9.542  43.789  13.846
86247W        W51408   5.621  24.124   2.440
86248W        W51409  38.999  26.797  12.056
86249W        W51410   8.872  25.171  12.654
86250W        W51411  34.274  24.657   0.883
86251W        W51412  33.534  22.264  12.864
86252W        W51413  18.766   6.435  13.708
86253W        W51414  35.621   7.939  12.882
86254W        W51415  17.345  22.005   4.534
86255W        W51416   7.389  22.339   4.027
86256W        W51417  36.471   9.425  11.162
86257W        W51418  31.609  34.026   1.193
86258W        W51419  33.105  16.737  11.627
86259W        W51420  32.729  23.694   1.248
86260W        W51421  23.929  44.968  14.417
86261W        W51422  30.165  39.025  13.475
86262W        W51423  35.467   6.737   4.604
86263W        W51424  13.815  36.072   0.419
86264W        W51425   1.888  39.801   1.401
86265W        W51426   7.895  38.835   0.913
86266W        W51427  42.827  34.084  12.427
86267W        W51428  32.076  18.071   4.149
86268W        W51429   4.825   9.186  11.592
86269W        W51430  43.181  40.339   1.843
86270W        W51431   5.639  24.159   3.949
86271W        W51432  38.490  39.289  12.052
86272W        W51433  26.097  17.143  12.141
86273W        W51434  33.842  11.241   1.663
86274W        W51435  15.577  19.783  10.324
86275W        W51436  22.855   0.971   3.090
86276W        W51437  44.255  12.557   3.192
86277W        W51438  30.184  41.464  10.625
86278W        W51439   2.734  42.896   1.853
86279W        W51440   0.260  26.057  14.616
86280W        W51441  24.482  27.921  14.391
86281W        W51442  25.596  28.454   4.453
86282W        W51443  33.461   6.630   0.851
86283W        W51444  25.681  30.561  10.494
86284W        W51445  41.763  25.485  13.410
86285W        W51446  24.175  38.638  12.565
86286W        W51447  14.235  10.215   4.043
86287W        W51448  28.459  38.999  14.732
86288W        W51449  14.415  41.698  14.089
86289W        W51450  10.654  24.949   3.705
86290W        W51451  13.785  28.595  11.132
86291W        W51452   9.820  29.158   0.660
86292W        W51453  37.390  11.881   4.051
86293W        W51454  19.501  27.541  13.796
86294W        W51455   7.720  17.138  11.393
86295W        W51456  12.192  39.821  14.561
86296W        W51457  40.390  15.002  14.353
86297W        W51458   6.424  22.634   4.397
86298W        W51459  24.965  21.864   2.195
86299W        W51460   0.232  21.063  14.883
86300W        W51461  25.127  42.723  12.559
86301W        W51462  35.799   6.444  10.823
86302W        W51463  37.641  21.230  13.094
86303W        W51464   2.024  28.145  13.517
86304W        W51465   4.239  19.977   2.792
86305W        W51466  42.278   6.692  14.956
86306W        W51467  20.204  38.943   2.489
86307W        W51468  26.973   2.431   2.824
86308W        W51469  43.537  44.547   2.719
86309W        W51470  33.540  25.632   1.367
86310W        W51471   7.195   0.735   4.667
86311W        W51472  26.009  42.441  13.069
86312W        W51473   3.951  28.746   2.382
86313W        W51474  19.071  39.086  10.971
86314W        W51475  32.098  20.166   1.380
86315W        W51476  10.749  28.791   3.639
86316W        W51477   9.154  37.380  13.944
86317W        W51478  36.470  19.675   0.251
86318W        W51479  10.892  38.859  13.456
86319W        W51480  23.114  24.212   0.962
86320W        W51481  24.353  44.329  10.677
86321W        W51482  30.519  17.777  10.794
86322W        W51483  38.974  38.174   4.111
86323W        W51484  43.033  24.030   3.461
86324W        W51485  26.216  26.752   0.328
86325W        W51486  18.631  30.596   1.911
86326W        W51487  35.143   7.247  11.606
86327W        W51488   5.029  32.001  14.710
86328W        W51489  25.684  10.408   2.745
86329W        W51490  37.329  42.756  13.735
86330W        W51491  15.147   4.887  11.732
86331W        W51492  18.475  36.929   1.243
86332W        W51493  26.189  26.220   3.757
86333W        W51494   3.764  33.336  13.955
86334W        W51495  44.593  41.024  11.417
86335W        W51496   7.420  42.889  13.973
86336W        W51497  25.397  10.890   2.689
86337W        W51498  35.330  19.040  12.526
86338W        W51499  12.594  29.107  14.012
86339W        W51500  29.420  16.442   2.865
86340W        W51501  27.697  17.099   1.914
86341W        W51502  21.138  19.850   1.780
86342W        W51503  17.306   9.365   4.169
86343W        W51504  31.827  13.073  14.807
86344W        W51505  25.108   0.545   4.491
86345W        W51506  13.635  15.266  12.625
86346W        W51507  15.118  25.364  14.603
86347W        W51508  21.103  11.865  11.533
86348W        W51509  13.683  40.449   1.990
86349W        W51510  18.739  21.723   3.646
86350W        W51511  34.164  41.179  14.942
86351W        W51512   3.217  16.590   3.170
86352W        W51513  18.812   0.760   3.304
86353W        W51514  29.089  40.479  14.511
86354W        W51515  12.626  24.602  13.075
86355W        W51516  42.448  13.466   0.256
86356W        W51517  24.924  35.113   2.308
86357W        W51518  17.917  39.453  13.040
86358W        W51519  33.238  21.702   2.183
86359W        W51520   9.306  13.416   3.387
86360W        W51521  36.564  12.228  13.980
86361W        W51522  44.174  36.120  13.187
86362W        W51523  18.059  36.627  12.128
86363W        W51524  24.038   3.819  14.382
86364W        W51525  23.780  38.136   5.528
86365W        W51526  42.840  20.163  13.530
86366W        W51527  15.199   8.789   1.701
86367W        W51528  25.083  42.462   1.652
86368W        W51529  25.735  32.592  12.036
86369W        W51530   7.798   0.313   1.396
86370W        W51531   0.432  36.865   3.154
86371W        W51532  12.702  16.584   2.820
86372W        W51533  30.594  27.793  12.019
86373W        W51534  37.381  42.874  13.251
86374W        W51535  10.094   6.187   4.110
86375W        W51536  35.331  23.970   3.601
86376W        W51537  18.114  18.691  14.067
86377W        W51538   1.312  32.822  11.058
86378W        W51539   8.845   0.447   4.789
86379W        W51540  14.111  11.239  14.111
86380W        W51541  36.842   0.931  10.831
86381W        W51542  34.917   8.798   4.697
86382W        W51543  44.398   1.054  12.835
86383W        W51544  39.830  36.556  10.848
86384W        W51545  11.449  17.431  12.554
86385W        W51546  17.589  17.005   3.195
86386W        W51547  39.533   2.363  11.879
86387W        W51548  29.890  27.509  11.215
86388W        W51549  29.280  37.160   4.686
86389W        W51550  23.452  44.752   1.674
86390W        W51551  36.768  26.015  11.127
86391W        W51552  11.910  44.257  11.244
86392W        W51553  43.095  12.629  12.479
86393W        W51554  19.705  12.892   2.741
86394W        W51555  32.063   4.162   4.847
86395W        W51556   7.884  44.116  12.900
86396W        W51557  12.139  27.140  12.015
86397W        W51558   7.603  22.745  14.670
86398W        W51559  24.618   7.413  13.493
86399W        W51560   7.644  35.487  12.481
86400W        W51561  33.140  23.165  14.843
86401W        W51562  40.830   9.855   2.965
86402W        W51563  29.023  23.221  13.565
86403W        W51564  31.096  21.754  12.992
86404W        W51565  21.566  27.837  14.569
86405W        W51566   3.646  40.829   3.685
86406W        W51567  26.614   7.712  14.451
86407W        W51568  40.852  23.774  12.245
86408W        W51569  27.405  18.758  13.330
86409W        W51570  42.286  22.168  13.876
86410W        W51571  22.797  12.650   2.767
86411W        W51572  16.483  18.100  11.729
86412W        W51573  40.756   9.594   4.264
86413W        W51574  32.848   7.349   0.310
86414W        W51575  17.138  30.101  13.558
86415W        W51576   8.274  39.481  10.711
86416W        W51577  21.498  11.235   3.718
86417W        W51578  36.936  15.426   0.843
86418W        W51579  22.790  10.624   1.485
86419W        W51580  13.084  25.433   0.645
86420W        W51581  30.527  33.893   0.001
86421W        W51582  38.829  15.051  11.546
86422W        W51583  14.095  37.895  12.028
86423W        W51584  44.228  16.010  13.509
86424W        W51585  27.681  40.931   1.887
86425W        W51586   1.524  40.835   3.512
86426W        W51587  18.496   7.878  12.609
86427W        W51588  37.321  22.166   3.829
86428W        W51589  23.163  20.973   1.823
86429W        W51590  13.197  42.866   2.407
86430W        W51591  29.901  17.353  14.434
86431W        W51592  23.029  25.125   9.946
86432W        W51593  22.662  33.737   0.825
86433W        W51594  40.450  15.102   0.974
86434W        W51595  40.048  31.403  11.992
86435W        W51596   5.688  20.056  11.602
86436W        W51597  13.590  24.606  11.085
86437W        W51598  33.378  39.848   2.785
86438W        W51599   1.427  39.350   1.521
86439W        W51600  41.334   7.210   0.810
86440W        W51601  36.066  37.064   4.228
86441W        W51602  37.455  16.750   1.709
86442W        W51603  13.920  31.535   4.642
86443W        W51604  35.649  39.358  11.890
86444W        W51605   6.954   0.947  11.161
86445W        W51606  43.079  26.383   0.032
86446W        W51607  37.305   2.380  11.176
86447W        W51608  20.491  44.760   1.491
86448W        W51609  14.626  16.634  11.394
86449W        W51610  11.908   0.425   3.982
86450W        W51611  22.146  20.288   3.688
86451W        W51612  28.333  30.320   1.264
86452W        W51613   1.882  20.668  12.614
86453W        W51614  12.263  11.341   1.728
86454W        W51615  31.635   6.261  11.499
86455W        W51616  35.495   0.510  11.331
86456W        W51617  31.517   5.839   1.490
86457W        W51618  14.701  40.139  13.104
86458W        W51619  35.032  18.226   2.546
86459W        W51620   8.153  14.239   0.828
86460W        W51621  30.212  41.460   0.488
86461W        W51622  26.137  38.844  12.385
86462W        W51623   1.861  41.967   1.056
86463W        W51624  16.780  22.651  14.263
86464W        W51625  23.303   1.146   0.472
86465W        W51626  17.136  22.697   5.039
86466W        W51627   8.733  15.712  12.577
86467W        W51628  25.731   0.402   3.243
86468W        W51629  20.437  36.203  12.968
86469W        W51630  28.303  41.048   0.747
86470W        W51631  36.444  34.151   3.239
86471W        W51632  36.355  39.013   2.815
86472W        W51633  20.663  34.621   4.079
86473W        W51634  39.067  29.530   3.948
86474W        W51635  34.266  41.389   2.720
86475W        W51636   6.246  43.057  10.593
86476W        W51637  30.673  30.501   1.317
86477W        W51638  25.646  35.755   3.198
86478W        W51639  39.957  19.945  12.946
86479W        W51640  12.605  35.934  14.497
86480W        W51641  30.065  23.506  12.851
86481W        W51642  27.984  30.028   1.522
86482W        W51643   9.205  24.399  10.195
86483W        W51644  32.536  25.627  11.378
86484W        W51645  14.704  32.923  12.072
86485W        W51646   8.539  32.472   0.343
86486W        W51647  25.755  22.660  13.031
86487W        W51648   4.027  24.302   1.726
86488W        W51649  38.589  18.626  14.842
86489W        W51650  33.313  12.577  12.207
86490W        W51651   9.440   7.206   0.375
86491W        W51652   8.327   4.223   3.311
86492W        W51653  34.357   2.976   3.710
86493W        W51654   5.331  29.209  11.941
86494W        W51655  21.145  43.908   1.407
86495W        W51656  21.211  30.055   2.025
86496W        W51657   7.364  33.907   1.240
86497W        W51658  44.993  44.453   0.982
86498W        W51659  38.778   7.753  11.229
86499W        W51660  32.080  17.660  14.814
86500W        W51661  44.755  12.030   3.197
86501W        W51662   7.822  40.377   4.806
86502W        W51663  40.708   7.765  11.129
86503W        W51664  43.283  13.820   2.361
86504W        W51665  26.211  28.712   2.303
86505W        W51666   0.286  38.794   2.478
86506W        W51667  27.733  15.381   2.346
86507W        W51668  11.630  10.375  12.587
86508W        W51669  26.645  31.416  14.358
86509W        W51670  12.603   1.780  13.295
86510W        W51671  17.072  11.589  14.354
86511W        W51672  33.481  28.980   3.590
86512W        W51673  43.594  37.945   3.583
86513W        W51674   7.351  27.467  11.808
86514W        W51675  13.927  36.347  11.998
86515W        W51676  13.058  34.801  12.445
86516W        W51677   7.721  12.288  10.891
86517W        W51678  33.450  23.530  13.601
86518W        W51679  35.449  31.130  11.156
86519W        W51680  26.603  39.926   1.142
86520W        W51681  14.872   9.824   0.802
86521W        W51682   6.970  21.005  10.741
86522W        W51683  26.602   2.428   0.613
86523W        W51684  20.899  21.708   3.581
86524W        W51685  24.049   4.730   2.378
86525W        W51686   3.357  32.422   0.446
86526W        W51687  36.878   0.901   4.598
86527W        W51688   7.430   6.118   0.785
86528W        W51689  36.046   2.741  11.148
86529W        W51690   7.647  14.881  12.310
86530W        W51691   1.429   5.211  13.910
86531W        W51692   7.220  13.818  12.505
86532W        W51693   5.651  21.154   0.742
86533W        W51694  30.528  20.804  14.750
86534W        W51695  29.606  40.322   0.754
86535W        W51696  30.119  35.888  14.289
86536W        W51697  27.613  12.252  10.819
86537W        W51698  14.729  21.323  13.932
86538W        W51699   7.392  39.522   4.136
86539W        W51700   5.752  31.052   1.952
86540W        W51701  10.603  34.527  11.987
86541W        W51702  11.157  25.157   1.675
86542W        W51703  43.844  20.198  14.902
86543W        W51704  21.293  41.686   0.832
86544W        W51705  27.560  10.754   1.199
86545W        W51706  41.026   9.421   3.812
86546W        W51707   7.431   4.960  13.486
86547W        W51708  33.119  23.159  13.791
86548W        W51709  18.816  20.003   0.855
86549W        W51710  29.198  31.306   2.594
86550W        W51711  17.273  39.041  12.124
86551W        W51712  17.360  13.155   4.121
86552W        W51713  21.157  12.390  11.599
86553W        W51714  40.782   9.631  13.177
86554W        W51715  44.179  39.542  11.020
86555W        W51716  22.777   2.338   4.506
86556W        W51717  43.557  38.998   1.632
86557W        W51718  30.649  29.811  13.675
86558W        W51719  25.650   5.676  12.466
86559W        W51720  31.423  26.528   2.857
86560W        W51721  31.895   1.568   2.754
86561W        W51722  11.976  28.193  12.265
86562W        W51723  41.852  28.152   0.327
86563W        W51724  26.958  25.061   4.971
86564W        W51725  16.094  25.528   1.872
86565W        W51726  42.258  38.404   0.517
86566W        W51727  12.844  21.169  12.562
86567W        W51728  19.281   8.811  11.924
86568W        W51729  34.018   3.438   3.203
86569W        W51730  25.462  37.503   1.802
86570W        W51731  28.222  32.334   2.441
86571W        W51732  24.931  18.388  10.814
86572W        W51733   0.891  21.480   3.598
86573W        W51734  41.922  18.130   1.713
86574W        W51735   1.519  35.771   1.681
86575W        W51736   0.861  30.933   1.751
86576W        W51737  39.389  11.323  12.004
86577W        W51738   5.446   6.768   2.767
86578W        W51739  22.042  10.652  12.303
86579W        W51740  36.529  25.796   2.707
86580W        W51741  27.125  19.865  10.480
86581W        W51742  23.212  34.539   4.639
86582W        W51743   5.754   6.330  14.336
86583W        W51744  37.193  39.175  11.119
86584W        W51745  31.457  13.993   3.706
86585W        W51746  33.452  14.357   4.748
86586W        W51747   2.873  29.178  10.378
86587W        W51748  19.299  42.054  12.492
86588W        W51749  33.103  43.973   4.605
86589W        W51750  15.676   0.857   0.623
86590W        W51751  33.687   0.876   4.339
86591W        W51752  35.683  19.684   4.402
86592W        W51753  38.012  19.285  13.928
86593W        W51754  32.092  33.166   0.319
86594W        W51755  39.177  34.651   3.231
86595W        W51756   9.498   5.865  12.337
86596W        W51757  22.163  41.426   0.795
86597W        W51758   3.745  11.893  13.102
86598W        W51759  16.571   5.320   0.020
86599W        W51760  31.727  15.049   5.208
86600W        W51761  21.433  10.297   0.078
86601W        W51762  24.015  17.234  12.065
86602W        W51763  32.633  23.152   1.361
86603W        W51764  25.008   5.939   0.940
86604W        W51765   1.790   7.279   1.823
86605W        W51766  33.619  23.075  13.936
86606W        W51767  41.067   6.308   0.852
86607W        W51768  24.031  18.744   1.696
86608W        W51769  19.065  27.919  13.401
86609W        W51770  41.947  42.979  13.953
86610W        W51771  19.161  40.394   5.123
86611W        W51772  25.162   3.714  12.878
86612W        W51773  27.475   2.348  14.844
86613W        W51774  13.904  29.172  14.389
86614W        W51775  41.608  29.057  11.568
86615W        W51776   2.944  29.470   2.806
86616W        W51777  22.808  40.579  13.076
86617W        W51778  15.611  42.047   1.917
86618W        W51779  34.997  35.032  13.039
86619W        W51780  32.020  36.498   2.614
86620W        W51781   2.732  28.007  12.006
86621W        W51782  25.560   7.773   0.778
86622W        W51783  33.666  15.392   2.136
86623W        W51784  27.454  10.619  10.690
86624W        W51785  43.035  17.230  11.862
86625W        W51786  39.973  10.896  14.537
86626W        W51787   7.476  39.596   3.603
86627W        W51788   5.553   1.235  13.345
86628W        W51789  17.603  23.066  12.072
86629W        W51790  33.039   4.874   2.755
86630W        W51791  35.029  36.961   1.965
86631W        W51792  25.055  37.204   0.636
86632W        W51793   9.744  12.405  14.877
86633W        W51794  11.043  36.336  14.293
86634W        W51795  31.264   1.639   3.225
86635W        W51796   6.495  33.544  12.875
86636W        W51797  37.573  36.333   3.673
86637W        W51798  13.971  34.926   5.052
86638W        W51799  24.268  35.927   0.891
86639W        W51800   5.720  25.682   3.696
86640W        W51801   5.763  12.977   0.322
86641W        W51802  43.937  28.427  12.389
86642W        W51803   6.180  18.049   2.801
86643W        W51804  44.349  32.660  12.499
86644W        W51805  23.123  14.594  11.506
86645W        W51806  15.095  30.594   4.229
86646W        W51807  22.507   6.842   4.924
86647W        W51808   3.554  26.546  11.670
86648W        W51809  27.068   0.455  10.666
86649W        W51810  19.102   4.570   1.387
86650W        W51811  38.497   8.013   2.769
86651W        W51812  12.633  14.646   1.778
86652W        W51813  21.708   5.478  14.254
86653W        W51814  41.445  10.190   0.906
86654W        W51815   5.385  43.281  12.989
86655W        W51816  41.498  40.513  13.561
86656W        W51817  25.731  16.755  12.151
86657W        W51818  23.998  21.501  14.510
86658W        W51819  24.711  27.151   2.701
86659W        W51820   9.106   8.054   2.525
86660W        W51821  10.478  20.326  13.872
86661W        W51822   0.931  31.553   2.861
86662W        W51823  42.539  28.163  14.872
86663W        W51824  42.837  40.527   0.707
86664W        W51825  36.086   1.191   1.333
86665W        W51826  24.121  33.061  13.540
86666W        W51827  19.013  18.593   2.235
86667W        W51828  11.253  29.589  14.353
86668W        W51829  19.550   7.257  11.186
86669W        W51830  43.973  18.668   0.743
86670W        W51831  36.534  14.921  12.036
86671W        W51832  21.492  16.257  12.646
86672W        W51833  26.082  30.163   1.993
86673W        W51834  12.369  38.872   3.059
86674W        W51835  28.616  20.770  14.884
86675W        W51836  40.935  20.022   2.875
86676W        W51837  26.092  22.747  14.832
86677W        W51838  17.539   0.489   2.346
86678W        W51839  41.294  26.563  11.079
86679W        W51840  43.667  40.259   5.096
86680W        W51841  11.308  33.481   3.166
86681W        W51842  16.328  31.719   0.682
86682W        W51843  32.666   4.806   3.601
86683W        W51844  11.705  14.916  10.580
86684W        W51845   5.396  31.607  14.841
86685W        W51846  16.097   2.960   1.858
86686W        W51847  42.870  32.509   3.901
86687W        W51848  22.291  36.317  14.019
86688W        W51849  44.938  19.789   2.679
86689W        W51850  38.101  19.636   2.754
86690W        W51851  31.852   5.278  14.029
86691W        W51852  39.299  30.170   1.479
86692W        W51853  13.806  41.002   3.219
86693W        W51854  36.362  25.028  14.144
86694W        W51855  33.649  33.437   2.141
86695W        W51856   9.947  40.284  11.864
86696W        W51857   7.701  32.535  12.005
86697W        W51858   3.196  39.358   4.036
86698W        W51859  18.511  10.364   4.261
86699W        W51860  25.599  36.504   1.701
86700W        W51861  33.294   7.177   4.461
86701W        W51862  38.996  34.636   0.961
86702W        W51863  15.202   3.220   3.699
86703W        W51864   6.736  19.759   0.519
86704W        W51865   7.024  37.387   2.129
86705W        W51866  15.070   9.232   1.944
86706W        W51867  12.757   1.822  12.804
86707W        W51868  35.284  24.419   1.854
86708W        W51869   4.911  36.383  11.573
86709W        W51870  33.613  12.227  12.913
86710W        W51871   6.228  19.216   1.242
86711W        W51872  28.648  27.028   2.198
86712W        W51873  42.652  35.351  13.982
86713W        W51874  39.780  15.362  14.800
86714W        W51875  39.911  17.145  14.450
86715W        W51876  27.823  19.579   0.968
86716W        W51877  23.046  20.047  12.831
86717W        W51878  37.620   5.095  14.064
86718W        W51879  10.319  22.446   0.445
86719W        W51880   7.732  44.707   0.225
86720W        W51881  34.367  34.873  11.498
86721W        W51882  39.016  37.280  10.958
86722W        W51883  10.738   3.578   0.308
86723W        W51884  17.990   4.639   4.162
86724W        W51885  32.671  20.531  14.984
86725W        W51886  40.832  14.751   0.423
86726W        W51887  29.969  43.190   2.078
86727W        W51888  25.788  40.028  11.100
86728W        W51889  22.567  29.676   1.694
86729W        W51890   1.776   5.687  11.604
86730W        W51891  16.268  10.069   4.684
86731W        W51892  37.308  26.228   0.814
86732W        W51893  42.477  29.456  13.008
86733W        W51894  32.908  32.810   3.537
86734W        W51895  38.039  10.368   2.676
86735W        W51896  31.004  22.739   3.469
86736W        W51897  31.399   0.154  13.033
86737W        W51898  40.017  38.197  14.052
86738W        W51899  21.767  12.168   2.654
86739W        W51900  37.570  40.765  12.984
86740W        W51901  16.107  31.878   1.670
86741W        W51902   0.490  36.506  12.053
86742W        W51903  26.644  38.202   2.982
86743W        W51904  37.828  25.725   0.236
86744W        W51905   4.653   5.196   1.396
86745W        W51906  21.993   7.061  12.342
86746W        W51907  33.070  23.955  13.267
86747W        W51908  23.868  10.351  11.110
86748W        W51909  44.326  35.543   2.859
86749W        W51910  25.887  21.729   1.381
86750W        W51911  30.888  12.664  12.843
86751W        W51912  19.245  14.911  12.374
86752W        W51913   3.021  41.981  11.561
86753W        W51914  42.525  10.609   1.406
86754W        W51915  17.940  19.850  13.072
86755W        W51916  37.073  41.379   3.609
86756W        W51917  21.482  30.547  12.576
86757W        W51918   7.206  32.748  12.034
86758W        W51919  42.749  16.374  11.468
86759W        W51920  26.982  29.383   1.144
86760W        W51921   5.619  44.274  14.368
86761W        W51922  40.073   1.902   0.109
86762W        W51923  38.101   5.607  12.478
86763W        W51924  11.073  37.591  14.282
86764W        W51925  30.129  38.578  14.332
86765W        W51926  38.509  22.052   1.300
86766W        W51927  13.330  29.625  11.671
86767W        W51928  40.980  35.855  13.987
86768W        W51929   7.436  35.098  14.889
86769W        W51930  18.932  32.434   1.871
86770W        W51931  29.561  36.484  14.526
86771W        W51932  20.358  33.698   3.708
86772W        W51933   0.352  18.177  14.303
86773W        W51934  44.397  23.729  14.281
86774W        W51935  28.404  39.370   2.940
86775W        W51936  12.973  39.975  13.370
86776W        W51937   0.943  15.770  11.691
86777W        W51938  24.017  16.751   2.908
86778W        W51939  17.756  26.067   3.217
86779W        W51940  42.173   1.529  11.190
86780W        W51941  30.629  42.986  14.130
86781W        W51942  13.517  23.705  13.001
86782W        W51943  27.433   2.424   2.584
86783W        W51944  43.813  44.736   0.765
86784W        W51945  25.036  40.335   1.078
86785W        W51946  33.127  12.714   0.983
86786W        W51947  37.357  28.169  11.979
86787W        W51948  29.452  43.846   3.576
86788W        W51949  34.060  30.454  14.913
86789W        W51950   5.862  28.892  13.928
86790W        W51951  37.538  30.601   3.313
86791W        W51952  36.826  23.255   1.928
86792W        W51953  35.409  40.110   0.763
86793W        W51954   9.624  11.340   4.598
86794W        W51955  19.100  36.909  11.539
86795W        W51956  42.527  21.246  11.670
86796W        W51957  10.260   7.162  10.429
86797W        W51958  10.421  11.272  13.330
86798W        W51959  43.849   7.083   0.775
86799W        W51960  37.940  17.260   0.144
86800W        W51961  31.194  18.551  14.033
86801W        W51962   3.686  39.398   4.830
86802W        W51963  13.834  30.889  10.630
86803W        W51964  10.280  16.054   4.131
86804W        W51965  14.792   1.322   4.031
86805W        W51966  33.677  42.968  11.566
86806W        W51967  32.431  30.063  10.650
86807W        W51968  17.163  34.896   2.408
86808W        W51969  19.193  34.678  11.566
86809W        W51970  24.245  42.910  14.429
86810W        W51971   6.913  28.037  12.942
86811W        W51972  44.954  37.871  14.396
86812W        W51973  17.162  44.916  10.118
86813W        W51974  35.381  21.000  10.877
86814W        W51975  23.699  31.805  13.566
86815W        W51976  25.732  28.759   4.051
86816W        W51977  44.256  24.984   1.195
86817W        W51978  14.592  21.974  13.129
86818W        W51979  11.743  11.036  13.534
86819W        W51980  27.581  22.953   9.912
86820W        W51981   6.027   2.054   0.696
86821W        W51982  35.883  20.983  11.855
86822W        W51983  32.649  13.690  13.881
86823W        W51984   9.699  34.284  14.163
86824W        W51985  26.332  15.809  14.649
86825W        W51986   2.974  41.975  12.464
86826W        W51987   6.916  33.477  14.490
86827W        W51988  32.193   6.311   3.125
86828W        W51989  43.702   3.315   1.391
86829W        W51990  14.500   6.903   2.832
86830W        W51991   4.217  30.365  11.566
86831W        W51992   0.525  21.181  12.930
86832W        W51993   9.168  18.524  13.427
86833W        W51994   8.156  21.158   3.417
86834W        W51995  31.908  35.503   3.754
86835W        W51996   4.366  40.904   4.838
86836W        W51997  31.414   9.779  14.226
86837W        W51998  36.145  15.292   0.148
86838W        W51999  15.536  30.699  13.123
86839W        W52000  44.863  39.359   0.971
86840W        W52001  42.366   3.672   1.327
86841W        W52002   7.545  36.265   0.183
86842W        W52003  19.971  27.489   1.672
86843W        W52004  26.214  27.705   2.295
86844W        W52005  16.103  16.549  12.968
86845W        W52006  27.062  22.977   2.170
86846W        W52007  27.331  16.283   5.547
86847W        W52008   8.332  37.971   4.889
86848W        W52009   0.991  34.454  12.864
86849W        W52010  15.808  18.720  13.023
86850W        W52011   6.258  37.396  11.647
86851W        W52012  21.761  14.977   0.345
86852W        W52013  40.368  33.059  12.459
86853W        W52014  16.170  17.743   4.639
86854W        W52015   0.852  31.038  12.361
86855W        W52016  25.634   6.177  14.097
86856W        W52017  20.405  38.990   4.181
86857W        W52018  12.098  24.667   3.697
86858W        W52019  34.156  27.199   1.825
86859W        W52020  44.861  30.086  12.033
86860W        W52021  43.433   9.067  11.221
86861W        W52022  29.714  28.033   1.985
86862W        W52023  42.922  15.610   0.798
86863W        W52024   2.885  25.676   5.066
86864W        W52025  29.636  14.126   4.148
86865W        W52026  13.955  29.218   1.881
86866W        W52027  13.868  36.995  12.451
86867W        W52028   5.188  43.397   4.729
86868W        W52029  35.092  25.455   3.279
86869W        W52030  30.162  22.134   2.354
86870W        W52031  31.675  43.811  12.571
86871W        W52032  10.171  37.383   2.320
86872W        W52033  14.980  15.346  13.310
86873W        W52034  15.746  17.608   1.353
86874W        W52035  17.227   7.133  13.371
86875W        W52036  28.614  10.898  12.598
86876W        W52037  22.666   7.337   4.157
86877W        W52038  42.818  34.536   3.002
86878W        W52039   1.276   7.670  11.622
86879W        W52040  42.323   7.469  14.393
86880W        W52041  26.441  37.067  12.077
86881W        W52042  15.550  28.169  12.935
86882W        W52043  20.486  15.339   1.735
86883W        W52044  27.527  25.574   2.082
86884W        W52045  37.661  17.072  12.077
86885W        W52046  18.783  38.406  13.031
86886W        W52047   4.787  32.611   9.874
86887W        W52048   5.232  16.503   4.881
86888W        W52049  38.211  22.696   2.806
86889W        W52050  13.251  19.095   3.244
86890W        W52051  38.510   0.839   0.784
86891W        W52052  38.428  16.243   0.453
86892W        W52053  29.903  12.154  12.505
86893W        W52054  42.331  24.940   0.367
86894W        W52055   2.516  33.884   0.813
86895W        W52056  19.502  24.764  14.838
86896W        W52057  18.271  17.826   3.167
86897W        W52058  10.287  10.313  10.214
86898W        W52059   9.412  31.933   4.066
86899W        W52060  43.708   9.175  13.695
86900W        W52061  30.668   1.322  13.529
86901W        W52062   9.633  30.617  12.178
86902W        W52063  17.253   9.742   3.417
86903W        W52064   7.705  29.429  11.033
86904W        W52065   9.492  28.013   4.232
86905W        W52066  31.142  18.134  13.705
86906W        W52067  40.970   3.160  12.090
86907W        W52068  32.500   1.688  14.547
86908W        W52069  24.461  30.094  13.711
86909W        W52070  35.002  22.826  12.555
86910W        W52071   1.755   1.951  13.438
86911W        W52072  14.184  17.831  14.091
86912W        W52073  19.381   8.791  11.040
86913W        W52074   4.309  35.130   0.549
86914W        W52075  22.861  13.770   1.937
86915W        W52076  12.165  11.299  13.798
86916W        W52077  28.726   5.451  11.909
86917W        W52078   0.419   0.415   0.276
86918W        W52079  35.821   1.425  14.549
86919W        W52080  42.854  10.809  14.316
86920W        W52081  43.438   6.156   3.323
86921W        W52082  35.904  37.130   1.706
86922W        W52083   8.160  44.547   3.285
86923W        W52084  38.516   9.729   3.744
86924W        W52085   2.281  43.779   4.666
86925W        W52086  18.551   6.356   3.214
86926W        W52087  42.841  42.019   2.474
86927W        W52088  39.361  19.068   4.359
86928W        W52089  26.769  37.394   3.320
86929W        W52090  35.068   6.109  12.022
86930W        W52091  43.108  25.144  13.458
86931W        W52092  13.376  34.416  12.316
86932W        W52093  13.805  26.888  13.435
86933W        W52094  29.218   8.668   3.595
86934W        W52095  26.131   8.860  13.110
86935W        W52096  33.672  31.752   5.345
86936W        W52097  32.791  29.644  14.301
86937W        W52098  36.120  43.613   2.710
86938W        W52099   1.374  33.034   4.069
86939W        W52100   9.255   3.240   2.721
86940W        W52101  21.942  26.907  11.054
86941W        W52102  17.150  43.668   1.025
86942W        W52103   9.646  27.082  11.552
86943W        W52104  12.100  40.530  13.814
86944W        W52105  22.204  35.587  10.945
86945W        W52106  27.451  39.945   2.334
86946W        W52107  40.930  36.494   1.249
86947W        W52108  19.817  40.686   4.404
86948W        W52109  41.505  15.460  11.247
86949W        W52110   8.134   0.825  13.353
86950W        W52111  42.952  14.117  14.814
86951W        W52112   0.022  27.991   1.362
86952W        W52113  10.646  11.887  14.297
86953W        W52114  27.937  28.236  13.884
86954W        W52115  12.920  28.451  12.476
86955W        W52116  13.778  23.493  11.500
86956W        W52117  12.954  42.020   5.259
86957W        W52118  30.324  30.248  13.625
86958W        W52119  30.186  36.117  13.308
86959W        W52120   0.383  39.821   4.965
86960W        W52121  33.937  40.335   3.185
86961W        W52122  37.497  23.967  11.164
86962W        W52123   5.483  21.530   3.859
86963W        W52124  39.847   9.296   0.986
86964W        W52125  44.408  27.650  14.053
86965W        W52126   9.174  43.725   3.693
86966W        W52127  10.933  38.235  11.519
86967W        W52128  23.079  37.957   9.971
86968W        W52129  11.702   6.707   3.778
86969W        W52130  20.574  42.335   1.239
86970W        W52131  18.284  38.507  14.048
86971W        W52132  26.427  21.880  14.809
86972W        W52133  25.788   3.284  14.039
86973W        W52134  20.568  27.992  14.470
86974W        W52135   5.879  34.533  12.073
86975W        W52136  12.999  14.764  12.875
86976W        W52137  33.789  43.402   4.817
86977W        W52138  32.976  25.144   1.956
86978W        W52139  18.253  42.523   1.661
86979W        W52140  18.565  27.525  14.844
86980W        W52141  43.906  16.643   0.195
86981W        W52142  34.527  14.590   4.137
86982W        W52143  39.580  33.428  11.365
86983W        W52144   2.777  32.836  13.927
86984W        W52145  27.978  22.401  12.563
86985W        W52146   8.842   8.883  13.729
86986W        W52147  43.211   3.048  14.072
86987W        W52148   9.184  28.132  14.675
86988W        W52149  32.997  36.030   0.413
86989W        W52150  21.602  14.356   3.763
86990W        W52151  40.394  23.325   2.659
86991W        W52152  26.768   5.488  14.865
86992W        W52153  15.724  32.664   1.974
86993W        W52154  26.615  24.578  13.083
86994W        W52155  10.690  40.879   2.312
86995W        W52156  39.102  28.308   5.040
86996W        W52157  13.770  23.516   1.027
86997W        W52158  14.840  15.858  13.343
86998W        W52159  28.911   6.834   2.818
86999W        W52160  29.776   8.063   0.449
87000W        W52161   8.685  18.683  13.498
87001W        W52162  38.473  37.646   3.115
87002W        W52163  14.896  42.071  12.370
87003W        W52164  16.513  35.896  11.548
87004W        W52165  22.648   3.351  14.260
87005W        W52166  14.436  26.422   4.140
87006W        W52167  27.660   2.933   1.274
87007W        W52168  19.879  44.493  12.937
87008W        W52169  18.130  44.289   4.269
87009W        W52170  17.338   8.847   4.183
87010W        W52171  15.098  12.654   3.772
87011W        W52172  32.450   7.235   1.221
87012W        W52173   8.837   0.059   0.936
87013W        W52174  42.079  20.991   3.284
87014W        W52175  24.692  42.979   4.189
87015W        W52176  44.003  42.392  12.537
87016W        W52177  39.640  25.668  12.996
87017W        W52178   6.743  14.161   0.372
87018W        W52179  23.051  18.538   0.318
87019W        W52180  22.967  10.841  10.607
87020W        W52181  18.569  22.987  13.279
87021W        W52182  13.047  44.523   3.790
87022W        W52183   3.531  16.039  11.325
87023W        W52184  13.213  23.267   1.803
87024W        W52185  25.586  10.085   5.196
87025W        W52186   1.191  30.461   5.066
87026W        W52187   4.244   8.833   1.923
87027W        W52188   4.401  35.184   2.915
87028W        W52189  28.903  32.796  14.358
87029W        W52190   6.681  38.202   2.794
87030W        W52191   6.930  13.904  12.095
87031W        W52192   5.538  16.216  12.055
87032W        W52193  33.800  41.428   1.312
87033W        W52194   7.284  18.079  12.842
87034W        W52195  37.020   3.432   4.078
87035W        W52196   4.177  32.811   2.715
87036W        W52197  24.457  42.540   0.779
87037W        W52198  36.951  17.717  13.799
87038W        W52199  25.194  40.581  14.088
87039W        W52200  13.633   1.680  14.008
87040W        W52201  36.611  37.539   4.826
87041W        W52202   9.476   8.381   1.228
87042W        W52203  32.180   3.089   3.458
87043W        W52204  43.763  30.316   3.686
87044W        W52205  23.463  33.352  11.990
87045W        W52206  16.913  21.831  12.468
87046W        W52207  25.199   5.387   2.144
87047W        W52208  12.844  21.868  14.430
87048W        W52209  13.183  32.643  10.543
87049W        W52210  36.199  27.623   4.714
87050W        W52211  39.444  23.019  12.588
87051W        W52212   8.430  37.885  13.988
87052W        W52213  17.678  29.047   0.854
87053W        W52214  19.254   9.791   4.655
87054W        W52215  35.201  38.320  11.231
87055W        W52216  43.542   8.344  12.091
87056W        W52217   7.856  22.805   5.027
87057W        W52218  31.923  18.949   0.278
87058W        W52219  31.019  38.907   1.689
87059W        W52220  19.195  19.926   1.212
87060W        W52221  17.353  13.885   2.028
87061W        W52222  38.383  18.627  14.362
87062W        W52223   5.829  21.812  13.900
87063W        W52224  25.084  35.779  11.543
87064W        W52225  30.382  27.343  11.137
87065W        W52226  27.389  15.175  13.954
87066W        W52227  14.984  17.989   0.257
87067W        W52228  12.690   4.642   3.122
87068W        W52229  18.959   3.901  12.888
87069W        W52230   5.270  35.709  10.901
87070W        W52231  44.626  32.844   3.216
87071W        W52232  26.913  16.362   0.849
87072W        W52233  35.097  16.598  10.488
87073W        W52234  18.569  43.831   4.641
87074W        W52235   4.149  21.419   2.851
87075W        W52236  32.843  13.881   1.029
87076W        W52237  21.865  39.593  10.077
87077W        W52238  20.682   9.345  11.073
87078W        W52239   3.347  32.012   4.403
87079W        W52240  13.745  20.931  12.052
87080W        W52241  30.425  37.445   0.358
87081W        W52242  30.540  25.509  14.967
87082W        W52243  31.392   6.078   3.319
87083W        W52244  27.686  14.917  12.455
87084W        W52245  21.915  13.758  14.090
87085W        W52246   1.297  19.789   1.294
87086W        W52247  34.088  25.127   2.894
87087W        W52248  26.417   8.212   4.164
87088W        W52249   9.593  11.991   4.068
87089W        W52250   5.599  14.250   4.577
87090W        W52251  37.430  30.743   3.891
87091W        W52252  28.069  30.912   0.419
87092W        W52253  25.106   1.191  13.484
87093W        W52254   6.256  11.334   1.778
87094W        W52255  28.673  10.855   0.495
87095W        W52256  19.781  38.229  14.856
87096W        W52257  17.100   6.186  11.107
87097W        W52258  43.450  25.115   4.349
87098W        W52259   1.827  33.828  11.606
87099W        W52260  33.384   4.267  10.617
87100W        W52261   1.292  37.913  11.665
87101W        W52262   2.972   6.525  10.533
87102W        W52263   7.366  41.361   3.155
87103W        W52264  35.540   9.373   3.130
87104W        W52265  36.912  44.232  11.873
87105W        W52266  20.137  14.811  10.845
87106W        W52267  20.727  29.717   0.313
87107W        W52268  37.294  36.078   0.907
87108W        W52269  14.964  44.250   1.594
87109W        W52270  34.861   0.443  14.060
87110W        W52271   1.198  22.436  14.597
87111W        W52272   0.446  33.149   3.192
87112W        W52273  28.410  16.247   2.724
87113W        W52274  42.380  44.536  13.566
87114W        W52275  14.771  28.034  11.396
87115W        W52276  23.002   0.215   2.842
87116W        W52277  12.492  43.434   1.749
87117W        W52278  10.174   3.514   2.994
87118W        W52279  33.664   2.375   1.864
87119W        W52280  39.933  25.480   4.611
87120W        W52281  34.475   7.570   3.011
87121W        W52282   0.006  31.141  11.159
87122W        W52283  26.020   6.173  14.524
87123W        W52284  12.329  18.398  14.857
87124W        W52285  33.551   4.264   1.670
87125W        W52286  26.034  25.635   1.550
87126W        W52287  42.972   8.857  11.145
87127W        W52288  18.615  16.645   2.043
87128W        W52289  17.973  15.789   3.425
87129W        W52290  24.156   3.285   1.643
87130W        W52291  34.788  19.798   1.445
87131W        W52292  39.874   3.701  10.607
87132W        W52293  24.100  40.278   0.004
87133W        W52294  42.097  25.030   1.686
87134W        W52295  32.792  21.323   2.651
87135W        W52296   7.385   9.274   4.660
87136W        W52297  19.188  43.868  10.668
87137W        W52298   2.813  15.607   5.349
87138W        W52299  42.329  26.739   0.874
87139W        W52300  39.287  39.648  13.306
87140W        W52301  36.835  42.415   0.957
87141W        W52302  35.565   5.888  11.979
87142W        W52303  29.472  12.358  10.106
87143W        W52304  22.466  40.442  12.520
87144W        W52305  41.327  33.197  13.784
87145W        W52306   8.816   9.402  13.508
87146W        W52307  41.502  44.251   0.926
87147W        W52308   1.329  12.697  12.989
87148W        W52309  36.827  38.453  10.176
87149W        W52310  39.485  39.388  12.900
87150W        W52311  42.319  21.805   4.467
87151W        W52312   6.212  14.839   1.163
87152W        W52313  20.058   0.830   2.863
87153W        W52314   8.678  31.928   4.518
87154W        W52315   5.932  39.829  11.979
87155W        W52316  39.898  40.830  12.908
87156W        W52317  24.763   7.623  13.024
87157W        W52318   5.349  28.424   3.109
87158W        W52319  44.042  28.644   0.282
87159W        W52320  44.837  17.083   1.852
87160W        W52321  14.155   4.765   4.294
87161W        W52322  38.215  41.930  10.891
87162W        W52323  29.499  24.821  13.989
87163W        W52324  23.974  12.889  14.345
87164W        W52325  30.184  44.269   4.055
87165W        W52326  16.779  31.318  10.465
87166W        W52327   1.779  39.801  12.533
87167W        W52328  32.163   3.915   3.432
87168W        W52329  18.097  38.807   3.139
87169W        W52330   2.162   5.510  14.696
87170W        W52331  24.165  37.400   1.112
87171W        W52332   1.208   0.875   9.972
87172W        W52333  44.427  41.292   0.582
87173W        W52334   1.506  26.715  12.027
87174W        W52335  33.747  30.674  10.878
87175W        W52336  10.884  39.478  10.670
87176W        W52337  32.449  15.611  12.449
87177W        W52338  31.832  16.623   1.913
87178W        W52339  22.694   3.802  11.551
87179W        W52340  39.271   7.245  14.060
87180W        W52341  19.395  38.967  12.912
87181W        W52342  24.460  37.033   1.401
87182W        W52343  38.045  12.109   2.172
87183W        W52344  23.159  21.645   2.386
87184W        W52345   2.673  25.090   2.731
87185W        W52346   0.438  12.322   0.882
87186W        W52347  27.085  13.727  12.826
87187W        W52348   5.643  33.898   2.839
87188W        W52349  10.676   3.470  12.898
87189W        W52350  36.399  37.723  11.971
87190W        W52351  20.285   0.811   4.664
87191W        W52352  16.592   5.760  14.224
87192W        W52353   6.903   9.978   1.507
87193W        W52354  19.911  39.427  10.998
87194W        W52355  29.149  33.149  12.180
87195W        W52356  28.530  44.187  11.623
87196W        W52357  23.682  32.391   0.719
87197W        W52358  37.291  28.833  13.351
87198W        W52359  21.118  44.819   4.560
87199W        W52360  17.994  12.409  12.421
87200W        W52361  13.782  11.265   1.991
87201W        W52362   2.055  36.494   2.688
87202W        W52363  25.149  36.086  13.978
87203W        W52364  16.728   3.884   3.855
87204W        W52365  38.260  44.377   3.811
87205W        W52366   3.391   1.397  11.378
87206W        W52367   0.602  34.521  13.194
87207W        W52368  17.356  36.220  10.383
87208W        W52369  10.800  10.005   0.902
87209W        W52370  14.943  29.434   3.847
87210W        W52371   0.067  19.679  14.739
87211W        W52372  36.141  13.921   1.954
87212W        W52373   2.233  34.952  11.742
87213W        W52374   6.302   4.156   4.659
87214W        W52375  15.823  26.700   2.663
87215W        W52376   3.162  22.454   3.218
87216W        W52377  30.132  33.037   4.751
87217W        W52378  24.130  21.024  11.662
87218W        W52379  44.633  32.354   1.403
87219W        W52380  35.993   3.253   4.544
87220W        W52381  11.873  43.783   3.944
87221W        W52382  43.132  14.188  10.370
87222W        W52383  23.060  42.069  11.044
87223W        W52384   3.418  26.214  14.905
87224W        W52385  32.845  20.825  14.566
87225W        W52386   0.423  24.697  13.953
87226W        W52387  24.475  10.884   1.783
87227W        W52388  26.642  24.138   4.942
87228W        W52389  24.922   1.940   1.707
87229W        W52390  20.266  14.750  13.237
87230W        W52391  24.033  15.380   1.865
87231W        W52392  11.813  17.352   5.015
87232W        W52393  43.196  41.709  11.483
87233W        W52394  44.281  20.574   0.499
87234W        W52395   3.914  34.134  14.318
87235W        W52396   4.704  28.129   3.271
87236W        W52397  37.200  39.342   2.723
87237W        W52398  38.646  15.194  10.727
87238W        W52399  13.484  34.873  13.899
87239W        W52400   6.345   2.569  11.659
87240W        W52401  30.725  38.861   4.506
87241W        W52402  37.855   0.685   3.738
87242W        W52403  38.855   9.240   4.603
87243W        W52404  27.683  24.678   2.312
87244W        W52405  29.275   2.673  14.819
87245W        W52406  12.931  34.062   0.922
87246W        W52407  12.321   8.377   1.334
87247W        W52408  33.120  26.031   1.299
87248W        W52409  21.272   7.420   0.782
87249W        W52410  29.532  40.101  14.784
87250W        W52411   0.081  35.039  10.650
87251W        W52412  21.318  27.858   4.098
87252W        W52413  29.694  33.913  14.312
87253W        W52414  40.400  20.198  10.763
87254W        W52415  27.272  10.012  13.630
87255W        W52416  26.548  16.764  12.888
87256W        W52417  44.086  28.695   4.108
87257W        W52418  33.324  12.327   0.450
87258W        W52419  33.892   5.756  11.067
87259W        W52420  31.972  12.849  11.536
87260W        W52421   4.425  14.912   3.241
87261W        W52422   3.041  29.160   3.278
87262W        W52423   0.971  24.740  10.904
87263W        W52424   0.004  17.099  14.448
87264W        W52425  18.008  30.759   1.392
87265W        W52426  36.121  30.605   0.594
87266W        W52427  21.828  36.892  12.043
87267W        W52428  42.516  18.039  11.210
87268W        W52429  16.079  39.792   1.838
87269W        W52430  34.500  42.814  11.564
87270W        W52431  25.896   7.744  14.819
87271W        W52432  33.522   2.501  14.921
87272W        W52433  37.301  31.334   2.643
87273W        W52434  20.865  38.447  10.825
87274W        W52435  44.518  25.266   2.354
87275W        W52436  40.781   2.713  10.860
87276W        W52437  17.165  24.507   0.763
87277W        W52438   0.966  39.872   3.788
87278W        W52439  22.156  44.256   0.719
87279W        W52440  37.880  43.562   0.853
87280W        W52441   5.717  28.386   9.716
87281W        W52442  39.561  40.022  10.647
87282W        W52443   0.639  30.627   1.191
87283W        W52444  27.461  18.668   1.719
87284W        W52445  29.361  20.493  14.555
87285W        W52446   0.047  36.519   2.312
87286W        W52447   4.900   8.030  12.817
87287W        W52448  27.184  27.883  10.657
87288W        W52449  14.192  43.606  11.241
87289W        W52450  33.870  25.859  11.925
87290W        W52451  24.266   7.308  13.061
87291W        W52452  10.195   0.924  12.471
87292W        W52453  28.665   0.325  13.563
87293W        W52454  13.066   7.691  10.621
87294W        W52455  16.176  13.871  12.185
87295W        W52456  31.807  44.790   0.240
87296W        W52457  39.484  20.527   2.375
87297W        W52458  15.019  16.756   3.823
87298W        W52459  23.310   5.082  14.709
87299W        W52460  31.508  43.455   3.227
87300W        W52461  42.805   0.563   3.345
87301W        W52462  39.428  11.950   2.184
87302W        W52463  11.225  30.719   3.675
87303W        W52464  32.411  10.699   2.595
87304W        W52465  23.590  27.116   3.563
87305W        W52466  27.771  15.292   1.365
87306W        W52467  15.168  13.978  13.170
87307W        W52468   2.311  19.068   4.569
87308W        W52469  29.217  12.136   4.579
87309W        W52470   8.465  20.099   4.681
87310W        W52471  34.014  40.565   1.844
87311W        W52472  31.859  40.921  12.632
87312W        W52473  33.948  11.815  10.779
87313W        W52474  31.964  12.111  11.067
87314W        W52475  23.534  32.004  14.507
87315W        W52476  17.302  19.705   0.779
87316W        W52477   1.341  38.064  13.094
87317W        W52478  28.304  39.853  11.116
87318W        W52479  13.943  34.415   0.933
87319W        W52480   2.266  10.744   1.305
87320W        W52481  20.581  21.360   4.873
87321W        W52482   3.454   6.847   2.858
87322W        W52483  43.479  44.275  13.847
87323W        W52484  34.183   4.926  10.180
87324W        W52485  13.355  29.006  12.970
87325W        W52486  32.709  23.512   3.135
87326W        W52487  39.081  22.070   2.764
87327W        W52488  28.882  38.445   0.653
87328W        W52489  35.662   1.895   1.223
87329W        W52490  28.142  31.822   1.422
87330W        W52491  28.433  26.538   2.426
87331W        W52492  30.129   9.623  13.262
87332W        W52493  25.147  28.271  13.977
87333W        W52494   7.447   5.376   4.263
87334W        W52495   2.298  23.897  12.540
87335W        W52496   8.132   2.330  14.957
87336W        W52497  22.880  18.717  14.259
87337W        W52498  17.555   5.851  13.339
87338W        W52499  44.449  30.492   4.449
87339W        W52500  29.670   9.960  13.678
87340W        W52501  23.050  29.179  11.914
87341W        W52502  18.786  40.105   5.325
87342W        W52503  42.925  22.216  12.630
87343W        W52504  20.045  17.194  14.432
87344W        W52505  42.093  25.555   4.052
87345W        W52506   7.430   3.786  10.637
87346W        W52507   8.767  43.490  14.913
87347W        W52508  39.890  33.461   1.838
87348W        W52509  38.908  24.559   2.191
87349W        W52510  41.789  14.824   2.746
87350W        W52511   2.949  25.752   9.965
87351W        W52512  20.575  16.045  12.196
87352W        W52513  39.990  12.347  11.602
87353W        W52514  33.277   9.029  10.343
87354W        W52515  34.647   4.744   3.397
87355W        W52516  35.278   5.948  14.562
87356W        W52517   2.043  36.283  12.120
87357W        W52518  34.540  15.274  14.504
87358W        W52519  42.994   6.892   4.427
87359W        W52520  21.890   9.749   9.994
87360W        W52521  16.207  43.851  12.432
87361W        W52522  30.170  35.444  14.932
87362W        W52523   8.742  34.441  12.134
87363W        W52524  35.013  27.704   2.848
87364W        W52525  44.019  16.170   1.367
87365W        W52526  22.227  30.399  13.325
87366W        W52527  26.959  35.001   2.347
87367W        W52528  34.928  23.801  12.464
87368W        W52529  32.430  36.535  12.045
87369W        W52530   7.106  26.108  12.965
87370W        W52531  25.058  36.257  11.805
87371W        W52532  25.585  23.650   4.783
87372W        W52533   7.889  18.936  14.485
87373W        W52534  28.090  17.765   4.611
87374W        W52535  22.074  40.589   4.831
87375W        W52536  24.981  16.007   4.188
87376W        W52537  10.755  14.841  14.379
87377W        W52538  17.710   9.275  10.647
87378W        W52539  38.496  25.979   1.843
87379W        W52540  31.566  38.575  11.589
87380W        W52541  32.050  19.210  11.654
87381W        W52542  36.312  42.455   1.156
87382W        W52543  32.978   3.694   4.803
87383W        W52544  10.220  34.321   2.189
87384W        W52545  33.297  20.222  10.273
87385W        W52546   9.882  22.432  14.523
87386W        W52547  43.977   9.849  10.350
87387W        W52548  36.973  36.563   1.953
87388W        W52549   0.519  26.716   0.764
87389W        W52550  36.089  38.081   1.262
87390W        W52551  33.992   9.263  12.910
87391W        W52552  35.351  24.965  10.230
87392W        W52553  38.810  10.737   0.461
87393W        W52554  28.841  14.374   2.401
87394W        W52555  11.060  24.277   1.227
87395W        W52556  20.129   8.431  13.156
87396W        W52557  30.892   0.015  14.899
87397W        W52558  33.520  15.639   2.570
87398W        W52559   0.361  33.130   0.337
87399W        W52560  10.812  22.547   1.593
87400W        W52561  11.065  39.490  11.165
87401W        W52562  26.955  11.872  12.012
87402W        W52563  44.702  15.592   3.843
87403W        W52564  35.967   5.935  11.663
87404W        W52565  44.028  37.667   0.492
87405W        W52566  44.753  32.575  14.177
87406W        W52567  15.975  38.283   3.296
87407W        W52568  38.817  10.795   2.617
87408W        W52569  30.021  13.650  12.133
87409W        W52570   3.936  23.242   1.767
87410W        W52571  14.032  21.767  11.995
87411W        W52572  23.805   2.124  12.008
87412W        W52573  16.655  12.172   0.498
87413W        W52574   3.647  15.251  13.003
87414W        W52575  32.422  38.105   2.009
87415W        W52576  23.669   0.365   0.238
87416W        W52577  23.390  28.045   2.573
87417W        W52578  23.846  28.113  12.034
87418W        W52579  32.518  16.788   3.900
87419W        W52580   9.624  35.497   4.891
87420W        W52581  40.885  29.395   2.695
87421W        W52582  13.136   1.781  12.441
87422W        W52583  10.339   2.646   1.243
87423W        W52584  22.470  43.544   1.440
87424W        W52585  22.538  19.119  14.223
87425W        W52586  23.169  23.191   3.230
87426W        W52587  37.651  13.212  13.892
87427W        W52588  29.435  36.230   0.811
87428W        W52589  33.833  40.348  13.424
87429W        W52590   3.671  41.783  11.213
87430W        W52591   3.893  37.672   4.216
87431W        W52592  28.616  40.451   3.218
87432W        W52593  22.926  17.974   3.349
87433W        W52594  32.620  15.769   2.426
87434W        W52595  30.912  30.209   1.902
87435W        W52596  17.648  31.442  12.816
87436W        W52597   6.361  18.534   3.744
87437W        W52598  22.272  19.825   1.437
87438W        W52599  41.338  35.062  14.287
87439W        W52600  39.119   1.565   1.475
87440W        W52601  25.443  25.551  12.504
87441W        W52602  15.131  38.098  12.345
87442W        W52603  19.699   3.441   0.348
87443W        W52604  10.713  12.755  12.765
87444W        W52605  20.786  35.106  11.883
87445W        W52606  35.813  29.028   2.911
87446W        W52607  26.825  33.989   0.198
87447W        W52608  20.390  39.312   1.130
87448W        W52609   2.677  10.284   2.347
87449W        W52610  44.555  16.544  13.871
87450W        W52611  29.232  16.614  11.158
87451W        W52612  18.626   4.358   1.445
87452W        W52613  21.673  33.458  11.714
87453W        W52614  35.621  11.137   2.163
87454W        W52615  26.922  24.642   0.568
87455W        W52616  35.539  26.097   2.871
87456W        W52617  26.499  16.666   3.824
87457W        W52618   4.906   0.648  13.353
87458W        W52619   4.082  14.311  12.926
87459W        W52620  32.374  43.065   3.554
87460W        W52621  34.678  26.367   5.211
87461W        W52622  22.449  20.832  12.213
87462W        W52623   0.339  29.657   4.505
87463W        W52624  28.058  26.406  14.906
87464W        W52625   4.931  35.723  12.821
87465W        W52626  23.027  39.726  14.652
87466W        W52627  21.060  33.172  14.380
87467W        W52628  30.908  29.683   0.020
87468W        W52629   1.367  12.778   2.806
87469W        W52630  19.620  22.992   1.718
87470W        W52631  18.645  44.216   4.297
87471W        W52632  10.850  35.046   0.937
87472W        W52633  32.996  35.042   4.454
87473W        W52634  38.077   9.663  13.890
87474W        W52635   6.810  21.235   3.601
87475W        W52636   9.913  11.686  12.587
87476W        W52637   8.610   8.260  14.903
87477W        W52638  20.486  14.192  13.005
87478W        W52639  15.998  13.900  13.589
87479W        W52640  11.220  32.620  11.591
87480W        W52641  12.186   8.884   1.244
87481W        W52642   6.676   3.829   3.021
87482W        W52643   3.433  34.836   3.616
87483W        W52644  22.537  25.624  13.952
87484W        W52645   5.508  27.020   0.179
87485W        W52646  35.344  15.128   0.736
87486W        W52647  23.181  44.422  12.065
87487W        W52648  11.925  41.770   0.453
87488W        W52649  24.472  34.807   3.216
87489W        W52650  26.691   1.726   0.003
87490W        W52651   3.408  20.499  13.258
87491W        W52652   7.253  18.859   2.731
87492W        W52653   9.383  37.972  12.060
87493W        W52654  18.552  42.321   3.808
87494W        W52655   0.036  10.177   9.919
87495W        W52656  22.106  30.285   1.971
87496W        W52657  40.346  10.344   3.227
87497W        W52658   6.593  12.101  13.814
87498W        W52659   9.966  34.432  14.593
87499W        W52660  18.444   2.063  11.997
87500W        W52661  27.627  35.541   3.888
87501W        W52662  44.261  15.781   4.658
87502W        W52663  16.116  13.607   0.882
87503W        W52664  24.467  29.877   4.722
87504W        W52665  20.539  43.245   4.170
87505W        W52666  12.715  37.756  13.000
87506W        W52667   8.168  12.993  12.095
87507W        W52668   8.758  11.146   0.177
87508W        W52669  14.662  40.588  12.884
87509W        W52670  37.910  10.294   1.788
87510W        W52671   9.124  40.866  14.602
87511W        W52672   0.496  32.029  11.828
87512W        W52673  24.487  17.740  14.366
87513W        W52674  23.724  27.100   4.052
87514W        W52675   9.832  36.912   3.745
87515W        W52676  24.494  41.967   2.785
87516W        W52677  14.108  31.825   0.426
87517W        W52678   6.934   0.070  14.989
87518W        W52679   5.863  19.491   3.879
87519W        W52680  11.315  22.804   3.638
87520W        W52681  30.237   4.101  11.017
87521W        W52682  29.708  36.106  14.871
87522W        W52683  23.033  17.806  14.318
87523W        W52684  35.143  25.064   0.757
87524W        W52685  35.489   6.111  10.524
87525W        W52686  21.440  39.318   2.752
87526W        W52687  35.440  38.813  12.639
87527W        W52688  16.172   5.983   1.039
87528W        W52689  23.223  22.022   0.197
87529W        W52690  26.639  25.669   0.357
87530W        W52691  13.736   0.782   4.320
87531W        W52692  32.331  12.830  12.116
87532W        W52693  29.231  32.253  12.885
87533W        W52694  17.261   1.922   1.203
87534W        W52695  19.412  13.745   2.859
87535W        W52696  38.500  17.125   4.867
87536W        W52697  28.436  25.672  11.495
87537W        W52698  39.882  34.064   2.528
87538W        W52699  40.374   8.866  12.955
87539W        W52700  39.429   9.827   4.524
87540W        W52701   1.178   6.718   2.247
87541W        W52702  25.405   0.726  12.163
87542W        W52703  42.541   9.666   3.646
87543W        W52704  33.605  31.122   1.882
87544W        W52705  17.152  30.560   0.943
87545W        W52706  40.995   4.780   4.110
87546W        W52707  44.564   8.713   0.011
87547W        W52708   0.846  36.076  14.030
87548W        W52709  13.359  44.464  11.276
87549W        W52710  38.971  35.503  11.085
87550W        W52711  16.057  25.422  12.002
87551W        W52712  16.858  19.642   1.892
87552W        W52713  35.076  15.233  14.332
87553W        W52714  32.213  43.998   0.631
87554W        W52715  38.790  31.419   3.270
87555W        W52716  38.446  41.946   3.261
87556W        W52717  33.749  37.819  14.070
87557W        W52718  32.464  18.512   0.485
87558W        W52719   2.354  26.982   1.008
87559W        W52720   1.314  28.517  12.530
87560W        W52721  31.210  18.216  12.483
87561W        W52722  28.173  28.392   1.010
87562W        W52723  24.160  41.608   0.246
87563W        W52724  24.318   9.662  13.596
87564W        W52725  31.899   0.498   3.761
87565W        W52726   8.915  32.780  13.492
87566W        W52727  16.494   3.417   2.181
87567W        W52728   0.393  16.869  14.879
87568W        W52729  32.678  32.573   0.454
87569W        W52730  38.388  38.908  10.693
87570W        W52731  25.705  21.045   2.894
87571W        W52732  44.719  17.078  13.993
87572W        W52733  23.291  27.101   0.660
87573W        W52734   6.222  14.529   4.243
87574W        W52735  22.256  31.912   4.872
87575W        W52736  15.255  25.061   4.729
87576W        W52737  34.352  30.016  14.982
87577W        W52738  14.489  22.292  14.339
87578W        W52739   2.676  15.706   3.240
87579W        W52740  25.466  27.667   1.577
87580W        W52741  21.247  31.105   3.625
87581W        W52742  31.011  17.957   0.420
87582W        W52743   6.174  15.861  10.240
87583W        W52744  27.684  44.948  12.845
87584W        W52745  13.322   4.335   1.449
87585W        W52746  31.548  38.254  11.166
87586W        W52747  26.051  27.214   0.501
87587W        W52748   5.369  30.605   2.799
87588W        W52749  37.467  32.231  11.053
87589W        W52750  26.028  40.999  12.067
87590W        W52751  43.790  20.430   0.382
87591W        W52752  10.893  28.876   4.893
87592W        W52753  43.658  35.034  11.188
87593W        W52754  31.964  16.574  12.013
87594W        W52755   6.024  34.480   4.547
87595W        W52756   9.150  36.428  11.280
87596W        W52757   1.940  31.309   3.753
87597W        W52758   8.631  43.775   2.580
87598W        W52759   1.259   7.931  12.612
87599W        W52760  29.959   7.770   0.836
87600W        W52761   3.276  29.901   1.354
87601W        W52762  14.560  38.149  11.222
87602W        W52763   6.225  44.299  10.625
87603W        W52764  42.571  15.074  11.177
87604W        W52765   3.287   6.279  14.821
87605W        W52766  40.845  43.511  10.737
87606W        W52767  26.520  28.594   1.420
87607W        W52768  26.103   6.917   2.914
87608W        W52769  29.906  35.805   0.243
87609W        W52770   9.881   2.507  13.475
87610W        W52771   9.651  13.418  11.175
87611W        W52772  21.762  33.363   0.978
87612W        W52773   1.883  15.093  12.178
87613W        W52774  33.352   2.587   4.193
87614W        W52775  33.020  42.074   2.765
87615W        W52776  22.464  23.207   2.673
87616W        W52777   2.372  35.800   4.277
87617W        W52778  21.658  19.583  12.832
87618W        W52779  20.204  24.146   0.738
87619W        W52780  22.193  12.881   2.829
87620W        W52781   7.717  31.942  10.512
87621W        W52782   7.828  24.225   0.968
87622W        W52783   3.901  24.624   4.289
87623W        W52784  11.739  12.160   0.984
87624W        W52785  23.574  20.648  13.947
87625W        W52786  16.530  29.071   1.667
87626W        W52787  20.966  37.825  14.868
87627W        W52788  24.706  12.349   1.051
87628W        W52789  31.702  30.614   3.792
87629W        W52790   4.626  39.318  10.922
87630W        W52791   2.025  28.982   3.077
87631W        W52792  41.778  33.039  12.577
87632W        W52793   6.350  36.910  10.984
87633W        W52794   9.278   2.153   3.556
87634W        W52795   8.330   4.734  13.770
87635W        W52796  40.687  28.657  10.523
87636W        W52797   9.261  40.984  11.063
87637W        W52798  40.620  36.203  13.337
87638W        W52799  13.182  40.505   0.626
87639W        W52800  44.812  31.259   4.764
87640W        W52801  34.990  34.453  13.702
87641W        W52802  21.036  27.000   0.755
87642W        W52803  24.657  22.062  13.417
87643W        W52804  39.956  28.600   1.901
87644W        W52805  42.131  12.209   0.321
87645W        W52806  41.336   1.398  13.816
87646W        W52807  29.499  42.481   2.871
87647W        W52808  31.908  31.301   4.871
87648W        W52809  39.889  25.719  12.520
87649W        W52810  22.027  35.860  13.979
87650W        W52811  21.936  44.921   3.165
87651W        W52812  29.928  29.101   4.779
87652W        W52813  41.053  36.336   9.642
87653W        W52814   1.375  34.961   1.224
87654W        W52815  39.377  39.812  11.961
87655W        W52816  26.243  15.011   0.386
87656W        W52817  31.565   5.894   2.497
87657W        W52818  31.999   6.830   3.895
87658W        W52819  41.320  23.599   3.687
87659W        W52820  14.850  35.424   3.297
87660W        W52821  23.626  25.968  12.468
87661W        W52822  30.083  15.535   0.666
87662W        W52823   1.420   6.364   4.931
87663W        W52824  20.284   3.972   1.880
87664W        W52825  21.111  40.140  12.324
87665W        W52826   7.267  42.355   1.179
87666W        W52827  44.813   3.231   2.719
87667W        W52828  20.559  22.960  12.025
87668W        W52829  44.708  25.660   0.208
87669W        W52830   7.926   5.700  11.992
87670W        W52831  43.672  35.267   1.528
87671W        W52832  14.723  15.556  13.727
87672W        W52833   0.394  44.502   3.239
87673W        W52834  17.380   7.173  12.010
87674W        W52835  17.043   6.423  13.843
87675W        W52836  39.027   1.821  13.600
87676W        W52837  31.072  33.930  13.630
87677W        W52838  41.305   9.158  14.591
87678W        W52839  23.293  24.663  11.524
87679W        W52840  33.842  15.192   0.779
87680W        W52841  14.716  21.148   2.783
87681W        W52842   1.341  34.458   0.443
87682W        W52843  34.811   6.753   2.833
87683W        W52844   2.430   2.746  11.187
87684W        W52845  33.128  25.185  14.396
87685W        W52846  13.838  33.160  13.489
87686W        W52847  11.445  42.309  10.781
87687W        W52848  38.504  11.134  10.547
87688W        W52849  17.208   5.928   2.865
87689W        W52850   9.694  25.538   0.965
87690W        W52851  32.410  29.704   1.429
87691W        W52852  37.270  18.396   0.010
87692W        W52853  10.320  30.448   0.273
87693W        W52854  43.571  37.140  14.976
87694W        W52855  18.629   6.470   4.075
87695W        W52856  30.526   2.526  14.784
87696W        W52857  33.025   2.952  11.096
87697W        W52858  17.608   0.369  12.022
87698W        W52859   2.976  38.557   0.704
87699W        W52860  32.089   7.347   4.028
87700W        W52861  18.843  10.863   3.377
87701W        W52862  35.025  34.877   2.747
87702W        W52863  28.910   7.249  12.866
87703W        W52864   4.855  27.555  10.986
87704W        W52865  38.978  38.989   0.788
87705W        W52866   1.202  17.661   3.342
87706W        W52867  42.535  44.793   3.684
87707W        W52868   7.322   2.644  11.559
87708W        W52869  41.148  30.989   1.712
87709W        W52870  41.732  35.038   4.558
87710W        W52871  17.462  30.573   4.561
87711W        W52872   2.487  27.991  12.450
87712W        W52873   4.875  30.512  10.716
87713W        W52874   4.315   1.762  10.718
87714W        W52875  32.962   3.581   0.310
87715W        W52876   8.117  41.757  14.886
87716W        W52877  27.778  39.023   3.516
87717W        W52878  20.596  23.238  12.464
87718W        W52879  11.053   6.634   2.323
87719W        W52880  13.353  11.603   3.697
87720W        W52881  41.473  26.698  12.659
87721W        W52882  42.226  41.012   0.825
87722W        W52883  35.680  40.027   0.331
87723W        W52884   0.469  34.054   1.449
87724W        W52885   8.072  15.331   4.645
87725W        W52886  23.421  14.212   1.411
87726W        W52887   3.257  43.212   4.065
87727W        W52888   1.371  39.882  12.798
87728W        W52889   4.235   7.368  13.630
87729W        W52890  42.343  25.673  11.597
87730W        W52891   3.722  37.593  12.042
87731W        W52892  35.540   9.342  13.222
87732W        W52893  29.060  15.721   2.423
87733W        W52894  44.328  28.078   2.797
87734W        W52895  19.126  20.531   3.671
87735W        W52896  37.358  12.810   3.595
87736W        W52897  43.692  21.196  10.764
87737W        W52898  24.021  40.501   4.428
87738W        W52899  17.206  41.365  11.787
87739W        W52900  27.940  20.932  12.638
87740W        W52901  42.887  29.683   0.581
87741W        W52902  10.646   0.365   1.408
87742W        W52903  10.731   5.741   0.805
87743W        W52904  40.062  18.570   1.620
87744W        W52905  17.539  32.031  11.167
87745W        W52906  43.857  38.779   5.037
87746W        W52907  43.337  27.934  14.473
87747W        W52908  30.375  28.918   0.863
87748W        W52909  11.325  25.470   3.779
87749W        W52910  21.222  42.283   4.271
87750W        W52911  11.649   8.447   3.848
87751W        W52912  19.647  15.873  13.054
87752W        W52913   3.916  36.054  10.341
87753W        W52914  26.630  13.292  13.559
87754W        W52915  39.365  26.351  13.369
87755W        W52916  16.639  38.825   1.595
87756W        W52917  37.498  18.530   1.266
87757W        W52918  17.659  39.828   0.036
87758W        W52919  22.170  29.932  14.062
87759W        W52920  42.621  43.905  10.784
87760W        W52921   6.234  13.067  12.057
87761W        W52922   6.190  34.479  14.702
87762W        W52923  15.462  30.929  14.745
87763W        W52924  21.431  17.690   1.323
87764W        W52925   6.516  23.056  10.705
87765W        W52926  37.474  44.565   4.505
87766W        W52927  39.647  29.104   4.601
87767W        W52928  25.115  25.724   5.018
87768W        W52929  42.358   9.893   0.006
87769W        W52930  29.322  32.416  11.519
87770W        W52931   9.399  11.277   3.242
87771W        W52932  17.667  20.510   3.726
87772W        W52933  12.819  17.841   0.739
87773W        W52934  42.327  28.048  12.045
87774W        W52935  16.646   9.884   0.820
87775W        W52936   9.196  30.852   4.089
87776W        W52937  28.579  33.045   0.067
87777W        W52938  13.864   4.672   2.707
87778W        W52939   2.815  15.609   3.726
87779W        W52940  29.135  30.540   3.692
87780W        W52941  39.066   7.152   4.830
87781W        W52942  20.234  12.369  12.886
87782W        W52943  39.858  31.171  13.338
87783W        W52944   4.078  39.931  12.508
87784W        W52945  31.983  43.141   4.248
87785W        W52946  44.721  12.338  13.284
87786W        W52947  29.865  41.910  12.782
87787W        W52948  31.854  43.243   0.936
87788W        W52949  33.981  43.294   1.024
87789W        W52950  17.625  28.095   4.399
87790W        W52951  41.997  41.385  11.894
87791W        W52952   0.299  26.053  10.872
87792W        W52953   2.153  21.156   5.093
87793W        W52954   1.285  30.428   2.320
87794W        W52955   7.921  16.233  11.373
87795W        W52956  18.626  42.286   2.304
87796W        W52957  40.055  30.391   0.905
87797W        W52958  29.970   6.295   3.154
87798W        W52959   2.613  19.882   2.359
87799W        W52960  36.804   7.322  10.980
87800W        W52961  32.644   1.962   3.080
87801W        W52962  29.880  44.801   1.339
87802W        W52963  33.004   6.455  11.063
87803W        W52964  40.573   7.223  12.051
87804W        W52965  16.527  31.642  14.170
87805W        W52966  41.818  41.211  12.909
87806W        W52967   8.224   2.714  10.522
87807W        W52968  22.667  21.519  14.282
87808W        W52969  25.746  19.277   1.816
87809W        W52970   4.188  10.279  12.794
87810W        W52971   5.542   9.755   1.761
87811W        W52972  26.924  15.762  10.274
87812W        W52973  24.737  35.446   0.399
87813W        W52974  23.256  19.346   4.081
87814W        W52975   7.915  39.807  11.750
87815W        W52976  28.007  21.233   4.541
87816W        W52977  42.707   1.099   5.208
87817W        W52978  41.877  36.104  14.470
87818W        W52979  34.998  35.383  11.155
87819W        W52980  13.062   0.849  14.312
87820W        W52981  14.092  23.698  11.874
87821W        W52982  31.541  31.957   0.097
87822W        W52983  43.066   4.877   0.329
87823W        W52984   8.241   3.833   1.813
87824W        W52985  15.179   7.434   3.631
87825W        W52986  39.287  29.211   0.691
87826W        W52987  19.534   5.965  10.620
87827W        W52988  35.398  30.312  11.579
87828W        W52989  41.460  41.297   1.363
87829W        W52990  29.452  20.693  11.139
87830W        W52991  33.476  23.435   1.841
87831W        W52992  40.454  22.607   0.334
87832W        W52993  19.378  38.860   4.393
87833W        W52994  23.807  20.566  10.340
87834W        W52995  32.036  32.112   2.711
87835W        W52996  41.404  34.927   2.635
87836W        W52997  32.657  13.365  10.792
87837W        W52998  41.210  19.649  10.747
87838W        W52999  19.605  27.366   3.529
87839W        W53000  27.663  16.190   1.294
87840W        W53001  40.323  40.761   3.108
87841W        W53002  24.735  18.957   0.009
87842W        W53003   0.909  23.008   0.707
87843W        W53004   3.005  29.490   1.293
87844W        W53005  33.533   4.339  12.159
87845W        W53006  29.998   5.548  13.383
87846W        W53007  14.124   7.874  13.028
87847W        W53008  32.937  36.462  14.940
87848W        W53009   6.888  10.112  12.872
87849W        W53010  24.155  10.684  11.712
87850W        W53011   0.142   6.843  10.460
87851W        W53012  29.435  39.455   1.867
87852W        W53013  36.457  10.082   1.942
87853W        W53014  34.391  22.981  13.535
87854W        W53015  44.981  26.731   0.948
87855W        W53016  20.649  44.366   2.361
87856W        W53017  38.434   4.771  11.399
87857W        W53018  19.451   2.134  13.977
87858W        W53019   6.919  26.636  13.889
87859W        W53020  44.489   9.233   5.089
87860W        W53021  40.601  39.871   0.967
87861W        W53022  18.433  22.554  13.024
87862W        W53023  32.162  17.351   2.245
87863W        W53024  36.084  15.350  13.469
87864W        W53025   8.579  25.652   4.035
87865W        W53026  31.467  25.430   4.506
87866W        W53027  23.098  21.095  12.498
87867W        W53028   7.426  25.374  14.736
87868W        W53029  27.691   4.010  12.150
87869W        W53030   1.962   8.781  11.724
87870W        W53031   8.138  32.947   1.855
87871W        W53032  34.073   4.262  12.918
87872W        W53033  19.036  41.106  10.208
87873W        W53034   2.721  14.561   4.558
87874W        W53035  13.626  40.311  11.159
87875W        W53036  34.679  24.774   5.006
87876W        W53037  20.031  35.844  14.971
87877W        W53038  21.040  31.465  11.224
87878W        W53039   5.396  21.413  11.268
87879W        W53040   1.260  42.476   0.755
87880W        W53041   2.229  23.432   3.673
87881W        W53042  23.291  36.863   0.920
87882W        W53043  31.138   9.263   2.646
87883W        W53044  21.192  35.521  14.612
87884W        W53045  25.264  18.110   1.604
87885W        W53046  32.641  30.461  14.746
87886W        W53047  15.807  22.069   1.753
87887W        W53048  20.899  25.139   3.749
87888W        W53049   5.461  23.657   3.293
87889W        W53050  40.542   7.890  14.834
87890W        W53051   9.500  10.519  14.758
87891W        W53052  10.179  41.948   4.634
87892W        W53053  24.706  20.275   2.633
87893W        W53054  36.443   6.333  11.559
87894W        W53055   3.224  13.780  13.996
87895W        W53056  27.925   5.943   0.395
87896W        W53057  31.983  43.855   3.059
87897W        W53058  17.052  33.993   2.250
87898W        W53059  32.180  19.812  13.347
87899W        W53060   9.351  37.509  14.409
87900W        W53061  22.070  24.694  13.975
87901W        W53062  12.034  16.164   4.494
87902W        W53063   6.878  26.591  12.872
87903W        W53064  44.944   2.053   2.367
87904W        W53065  10.931  11.305   1.493
87905W        W53066  21.625  17.455   0.241
87906W        W53067  21.286  10.717   4.723
87907W        W53068   2.685  19.946  13.425
87908W        W53069  44.405   7.733   3.153
87909W        W53070  13.540  21.518   1.918
87910W        W53071   8.832  18.627   0.547
87911W        W53072  18.825  43.386  11.643
87912W        W53073  23.878  13.639  11.541
87913W        W53074  25.797  20.481   4.077
87914W        W53075  29.508  35.720   0.707
87915W        W53076  15.122  11.836  11.569
87916W        W53077  24.687   9.824  14.531
87917W        W53078   3.708  33.033  10.725
87918W        W53079  41.617  15.323   2.824
87919W        W53080  19.257  12.601  12.699
87920W        W53081  19.166   4.440  13.096
87921W        W53082   5.637  18.006   1.637
87922W        W53083  35.294  30.501   3.235
87923W        W53084  17.999  37.080  12.911
87924W        W53085  37.403  20.383  10.735
87925W        W53086   9.661  31.691   2.145
87926W        W53087  41.408   1.169   3.409
87927W        W53088   4.231  22.420  13.761
87928W        W53089   1.771  24.141   0.336
87929W        W53090  21.533  24.732   1.734
87930W        W53091  30.651  26.636   0.396
87931W        W53092  41.536  44.271  12.940
87932W        W53093  20.660   3.730  14.804
87933W        W53094  18.736   2.011  12.594
87934W        W53095  43.300  18.204   2.851
87935W        W53096  16.756  32.394  13.016
87936W        W53097  15.402  26.617   1.674
87937W        W53098  16.100  32.669   3.053
87938W        W53099  41.120  35.927   3.830
87939W        W53100  33.148  10.314   4.990
87940W        W53101  41.280  22.086   0.325
87941W        W53102  20.714  35.015  14.309
87942W        W53103   7.719  40.777   4.144
87943W        W53104  38.553   9.414  12.041
87944W        W53105  42.463   8.299   2.346
87945W        W53106   6.530  11.307   0.872
87946W        W53107   9.759  38.828  12.459
87947W        W53108  35.009  11.763   0.458
87948W        W53109  40.343  13.551   4.572
87949W        W53110   2.556  39.396  10.196
87950W        W53111  39.398  13.060  13.452
87951W        W53112  34.667  26.609   0.402
87952W        W53113  28.018  24.170   3.113
87953W        W53114  30.133  23.720   3.087
87954W        W53115  11.266  12.084   3.217
87955W        W53116   4.157   5.404   1.126
87956W        W53117  44.895  42.786   1.337
87957W        W53118   2.333  17.166   0.628
87958W        W53119  24.250  33.990  10.725
87959W        W53120  11.259  33.999  12.919
87960W        W53121  31.623   4.730   3.263
87961W        W53122  32.961  17.747   1.337
87962W        W53123  20.220  16.205  12.621
87963W        W53124  29.775  10.289   0.764
87964W        W53125  20.100   9.766   3.090
87965W        W53126  20.708  14.715  12.547
87966W        W53127   8.977   5.884   3.754
87967W        W53128  42.458  40.235   3.697
87968W        W53129   0.319   8.361  12.161
87969W        W53130  25.492  20.559   3.668
87970W        W53131  23.119  35.650   2.849
87971W        W53132  36.309  19.648  12.911
87972W        W53133  15.817  34.027  11.092
87973W        W53134  44.788  17.575   3.473
87974W        W53135   7.271  33.997  12.309
87975W        W53136  17.561   2.457  11.009
87976W        W53137  14.654  39.586  14.874
87977W        W53138  13.332   5.307   3.387
87978W        W53139  23.068  27.895   3.218
87979W        W53140  27.119  42.287   2.877
87980W        W53141   3.172   6.715  13.867
87981W        W53142   5.034  17.980  12.875
87982W        W53143  11.812   1.631  12.415
87983W        W53144  27.521   5.753  13.035
87984W        W53145  11.875  15.424  14.897
87985W        W53146  21.093  35.366   1.436
87986W        W53147  41.381   0.830  12.936
87987W        W53148   5.733  31.533   4.021
87988W        W53149  10.603  13.811   4.734
87989W        W53150  18.151   6.639  11.621
87990W        W53151  40.831  12.261  10.614
87991W        W53152  15.263  41.787  12.088
87992W        W53153  32.181  12.591  11.149
87993W        W53154  15.214   6.444  14.463
87994W        W53155  35.865  14.648   1.326
87995W        W53156  23.663  23.545   2.507
87996W        W53157  16.163  31.712  10.830
87997W        W53158  14.718  18.468   0.298
87998W        W53159  34.175  17.523  13.575
87999W        W53160   4.790   0.314  12.379
88000W        W53161  17.496  34.287   2.967
88001W        W53162   9.845  41.852   3.366
88002W        W53163  38.515  10.453  13.264
88003W        W53164  20.207  33.955   0.367
88004W        W53165  38.974  13.286  13.658
88005W        W53166   1.966   3.027   4.440
88006W        W53167  28.119  12.237  11.625
88007W        W53168  11.707  40.475  12.994
88008W        W53169  13.628   0.737  11.666
88009W        W53170  24.422  17.565   2.779
88010W        W53171  28.162  41.987   4.229
88011W        W53172  41.500  41.495   0.897
88012W        W53173  37.447  17.337  11.686
88013W        W53174  38.474  44.081  13.815
88014W        W53175   9.351   0.915  13.905
88015W        W53176  35.050  32.476   3.372
88016W        W53177  44.881  44.570   4.095
88017W        W53178  36.070   8.621  13.303
88018W        W53179  26.022  18.610  11.952
88019W        W53180  20.829   8.912  13.393
88020W        W53181  33.658  23.518  11.173
88021W        W53182   6.136  28.624  11.673
88022W        W53183  35.561  38.923  12.155
88023W        W53184  20.011   5.653  12.454
88024W        W53185  18.269  15.639   3.041
88025W        W53186  28.564  34.595  13.569
88026W        W53187  19.875   5.703  11.956
88027W        W53188  14.229  22.791  12.994
88028W        W53189  20.931  35.748  11.173
88029W        W53190   9.320  33.060  11.446
88030W        W53191  23.430   8.686  10.689
88031W        W53192  31.534  38.887   2.341
88032W        W53193  20.543  25.212   1.903
88033W        W53194  16.097   7.354  14.720
88034W        W53195  32.090  43.410  11.408
88035W        W53196  13.687  25.234   1.890
88036W        W53197   2.527  11.417  14.872
88037W        W53198   1.971  42.986   3.286
88038W        W53199  15.350  21.438  10.712
88039W        W53200   9.251  33.180   0.630
88040W        W53201   9.367  36.476  14.475
88041W        W53202  11.222   3.017  10.596
88042W        W53203  12.502   0.806   1.362
88043W        W53204  12.816  25.447   3.755
88044W        W53205  30.880  42.776   3.611
88045W        W53206  40.342  16.707  12.521
88046W        W53207   0.461  34.064  14.423
88047W        W53208  21.766  36.771   2.768
88048W        W53209  25.257  23.942   0.542
88049W        W53210  12.722   7.290  12.151
88050W        W53211  24.181  17.263  14.811
88051W        W53212   3.390  28.202   4.558
88052W        W53213   1.281  36.875   1.276
88053W        W53214   3.362  13.602   0.438
88054W        W53215   4.143  39.345   3.536
88055W        W53216  26.219  35.041   3.729
88056W        W53217  33.565  10.198   2.734
88057W        W53218  43.739  30.060   4.123
88058W        W53219   8.133   6.915   2.253
88059W        W53220  13.255  11.626   4.602
88060W        W53221   2.643  36.405   4.122
88061W        W53222  42.480  17.883   2.864
88062W        W53223  32.915  10.006  10.535
88063W        W53224   9.631  40.590   1.765
88064W        W53225  40.788   3.996  11.033
88065W        W53226  24.098   8.494  14.996
88066W        W53227   9.921  31.832  13.912
88067W        W53228  17.624  43.000  11.922
88068W        W53229   9.597  42.268   1.145
88069W        W53230  20.746   8.150  13.997
88070W        W53231   2.078  43.761   1.120
88071W        W53232   0.758  37.399  12.389
88072W        W53233  31.400   9.751   0.018
88073W        W53234  34.438  16.057   0.786
88074W        W53235  39.027   6.459   5.144
88075W        W53236   1.248  20.072  11.421
88076W        W53237  41.267  28.326  13.563
88077W        W53238   4.494  28.194   2.800
88078W        W53239  22.975   6.958   1.437
88079W        W53240  24.903  35.837   1.800
88080W        W53241  30.671   9.103   2.747
88081W        W53242   1.847   4.700  12.939
88082W        W53243  35.572  33.341  12.797
88083W        W53244  22.403  35.044  11.766
88084W        W53245  11.685   5.617   2.305
88085W        W53246  42.264  43.066   4.945
88086W        W53247  26.796   5.138   4.069
88087W        W53248  39.064  41.464  13.996
88088W        W53249  10.951   5.879   3.204
88089W        W53250  30.494  22.162  11.902
88090W        W53251  42.371   5.837  12.208
88091W        W53252   5.247  34.924   0.351
88092W        W53253  23.206  28.062  14.174
88093W        W53254  29.858  11.935  14.475
88094W        W53255   3.413  26.320   0.421
88095W        W53256  34.933   8.856  14.794
88096W        W53257  36.377   6.291  12.483
88097W        W53258  35.173  30.392   0.478
88098W        W53259  40.923  27.665  13.518
88099W        W53260  33.428  38.479   2.593
88100W        W53261  14.703  28.690  12.849
88101W        W53262   6.184  22.064   3.638
88102W        W53263  32.683  44.288   2.629
88103W        W53264   2.652   5.421  14.564
88104W        W53265  19.845  30.089   1.601
88105W        W53266  22.790  26.387  14.389
88106W        W53267  21.696  30.445   2.303
88107W        W53268  10.900  28.625  13.886
88108W        W53269   5.711  24.231  11.073
88109W        W53270  32.645  43.898  12.295
88110W        W53271  36.812  17.161   2.566
88111W        W53272  16.568  41.088  12.455
88112W        W53273   3.675  38.254   0.377
88113W        W53274  29.692  34.590   2.169
88114W        W53275  29.449  34.082   0.289
88115W        W53276  30.546  10.616   0.189
88116W        W53277  28.920  30.613   0.274
88117W        W53278  12.299  20.729   1.786
88118W        W53279  33.816  25.642   3.708
88119W        W53280  13.544  40.875  12.621
88120W        W53281  36.118  17.018   3.246
88121W        W53282  25.519  40.507   2.112
88122W        W53283  12.901  36.086  14.071
88123W        W53284  26.468   0.938  14.383
88124W        W53285   9.211  26.831   1.538
88125W        W53286  39.558  24.221   2.500
88126W        W53287   7.867  42.678   0.065
88127W        W53288  39.387  15.214   4.782
88128W        W53289  39.842   0.130  11.441
88129W        W53290  44.279  20.058  14.085
88130W        W53291   9.166  36.905  14.736
88131W        W53292  29.568  13.794  13.900
88132W        W53293   7.531  37.493   3.989
88133W        W53294   7.960   3.722  10.700
88134W        W53295  12.222  29.153   3.707
88135W        W53296  38.069  18.656   4.080
88136W        W53297  25.255  41.972   4.463
88137W        W53298  21.471   2.636  13.346
88138W        W53299  23.047  36.262   0.387
88139W        W53300  35.405  19.677  13.876
88140W        W53301  31.211  41.488   0.391
88141W        W53302  40.116  38.979   0.130
88142W        W53303  26.377  41.516   0.778
88143W        W53304   6.247  30.640   3.654
88144W        W53305  33.692  43.867  11.495
88145W        W53306  16.380  43.319   2.361
88146W        W53307  16.868  31.588  11.485
88147W        W53308  30.124  10.324  11.207
88148W        W53309   6.849  12.439   1.574
88149W        W53310  34.346   9.308   2.284
88150W        W53311  15.817  25.664  10.736
88151W        W53312  34.726  25.271  10.778
88152W        W53313  25.793  36.968  10.703
88153W        W53314  25.536  19.097  14.002
88154W        W53315   4.379  43.256   2.273
88155W        W53316   8.081  44.865  13.482
88156W        W53317  19.024  25.189   1.736
88157W        W53318  42.106  32.923   0.531
88158W        W53319   7.652  44.290   2.060
88159W        W53320  11.230   9.225   0.871
88160W        W53321  44.220  14.862   3.443
88161W        W53322  42.505  14.179  11.075
88162W        W53323  19.072  31.915   0.030
88163W        W53324  11.186  21.929   3.867
88164W        W53325  27.381  37.666  14.018
88165W        W53326   0.059   1.926   4.117
88166W        W53327  18.422  26.055   3.293
88167W        W53328  23.544  38.017  12.593
88168W        W53329  42.490  27.116   2.341
88169W        W53330   9.074  34.799  11.031
88170W        W53331  12.385  15.324   2.705
88171W        W53332  18.573  23.121  11.447
88172W        W53333   7.234   9.839   0.556
88173W        W53334  42.242   0.036  12.173
88174W        W53335  15.315  15.651  12.423
88175W        W53336  35.219  42.237  10.666
88176W        W53337  37.139  33.227   0.940
88177W        W53338  20.002   1.279  11.398
88178W        W53339  33.348  16.864   4.437
88179W        W53340  16.517  34.702  10.644
88180W        W53341  41.225  23.650  13.328
88181W        W53342  31.620  36.050  13.313
88182W        W53343  40.817  15.771  14.040
88183W        W53344  30.660  20.054   3.820
88184W        W53345  11.245  13.799  13.040
88185W        W53346  20.372  33.949  12.437
88186W        W53347   0.152  16.741   4.124
88187W        W53348  36.366  17.249   4.927
88188W        W53349  20.386  25.102   3.629
88189W        W53350  24.539  20.529   2.225
88190W        W53351  17.176   9.647  13.521
88191W        W53352  24.026  34.626   1.174
88192W        W53353   1.312  33.166   0.309
88193W        W53354  12.726  26.465   3.698
88194W        W53355  12.377   6.343   4.834
88195W        W53356  31.322  42.557   4.095
88196W        W53357  27.023  27.166   3.119
88197W        W53358   6.013  24.407   4.171
88198W        W53359   7.199  23.986  11.159
88199W        W53360  30.547  25.654   9.749
88200W        W53361  40.957  40.884  14.403
88201W        W53362  32.030  14.874   2.915
88202W        W53363  44.319  24.205   4.124
88203W        W53364  21.706  38.104   1.236
88204W        W53365  37.465  31.887  14.888
88205W        W53366  30.101  42.208  11.927
88206W        W53367  17.918  13.712  14.240
88207W        W53368  33.465   6.917   2.180
88208W        W53369   4.388  22.439  14.678
88209W        W53370  11.906   0.774   2.386
88210W        W53371  37.400   0.529   3.475
88211W        W53372   3.074  15.914  10.583
88212W        W53373  43.240   5.648  14.375
88213W        W53374  24.701  15.088  13.189
88214W        W53375  28.931  44.858   2.747
88215W        W53376  40.428  23.046  11.618
88216W        W53377  34.122  25.453   4.706
88217W        W53378  43.318  18.753  10.630
88218W        W53379  31.530  39.636   1.790
88219W        W53380  28.279  30.418  12.699
88220W        W53381  35.225  20.933   4.142
88221W        W53382  36.225   0.423   3.912
88222W        W53383   5.688  36.071   0.336
88223W        W53384  20.146  18.458  14.894
88224W        W53385  21.723  34.018   0.165
88225W        W53386  22.575  18.680   0.204
88226W        W53387   2.207  42.275  11.156
88227W        W53388  25.160   6.547   5.169
88228W        W53389   1.972  14.043  13.529
88229W        W53390  19.070  13.910  10.724
88230W        W53391   5.940  18.766   1.263
88231W        W53392  26.998  33.468  12.868
88232W        W53393   3.962  38.560  12.138
88233W        W53394   5.900  29.976  10.758
88234W        W53395   4.455   1.178  12.752
88235W        W53396   4.890  42.040  13.094
88236W        W53397   0.791  35.013  14.147
88237W        W53398   4.306  10.377   1.851
88238W        W53399  34.887  31.837  10.802
88239W        W53400   6.291  30.213  11.033
88240W        W53401   4.567  38.868  14.749
88241W        W53402   6.725  29.138   2.334
88242W        W53403  15.877  38.813   5.007
88243W        W53404  37.047  24.129  10.235
88244W        W53405  36.132  12.922  12.469
88245W        W53406  38.794  14.123   3.434
88246W        W53407  35.084  22.586  12.041
88247W        W53408  41.423   2.277  11.306
88248W        W53409  41.114  21.912   3.293
88249W        W53410  37.441   5.316  13.593
88250W        W53411  35.591  35.852   1.195
88251W        W53412  10.446  38.268   9.826
88252W        W53413  36.471  16.559   4.564
88253W        W53414  40.367  31.137  11.590
88254W        W53415   5.697  15.287   2.712
88255W        W53416  24.523  26.954   0.347
88256W        W53417   2.124  29.610   1.710
88257W        W53418  34.942   0.887  14.340
88258W        W53419   4.982  42.432  14.020
88259W        W53420  35.095  28.085  14.090
88260W        W53421  31.463  44.681   3.754
88261W        W53422   1.309  23.595   2.878
88262W        W53423  21.890  13.278  12.402
88263W        W53424  18.009  39.373   1.699
88264W        W53425  42.354  33.169   0.141
88265W        W53426   3.928  12.912   0.389
88266W        W53427   9.188  30.437   4.983
88267W        W53428  13.907  26.470  11.302
88268W        W53429  30.622  15.368  12.127
88269W        W53430  26.088  36.277  13.531
88270W        W53431   8.815  37.658  14.229
88271W        W53432   8.762  44.819   3.329
88272W        W53433  10.898  39.916   1.966
88273W        W53434  12.316  17.619   1.936
88274W        W53435  10.856  38.763   4.919
88275W        W53436   7.903  18.669  12.407
88276W        W53437  38.677  40.413   2.279
88277W        W53438  21.214  42.590   0.823
88278W        W53439   5.327   3.699  12.076
88279W        W53440  24.975   3.607   3.191
88280W        W53441  29.108   2.238  10.746
88281W        W53442   0.678  39.008   1.330
88282W        W53443  41.004   7.712  11.945
88283W        W53444  41.578   4.826   0.190
88284W        W53445  29.824  34.582  12.507
88285W        W53446   4.668  16.947  14.086
88286W        W53447  16.714  33.185  11.636
88287W        W53448  30.472  14.289   0.306
88288W        W53449  37.876   1.804   0.503
88289W        W53450   2.340  25.512  14.793
88290W        W53451  37.437  18.215  14.545
88291W        W53452  27.681   6.068   2.238
88292W        W53453   0.862   1.755  11.216
88293W        W53454  17.114  29.925   3.208
88294W        W53455  32.603   6.443  10.672
88295W        W53456  22.743  26.003   0.460
88296W        W53457  23.082   1.982  13.061
88297W        W53458  29.763  20.654  11.559
88298W        W53459   4.259  33.599   1.357
88299W        W53460  32.452  14.492  11.486
88300W        W53461  28.909  22.321   1.977
88301W        W53462  15.404  29.538   1.899
88302W        W53463  11.064  26.921   0.216
88303W        W53464  14.703  31.908  11.932
88304W        W53465  37.934  16.551   3.779
88305W        W53466   5.194  34.100  13.897
88306W        W53467  34.999  41.572   2.371
88307W        W53468   9.054  36.848  12.089
88308W        W53469  34.336  13.872   3.866
88309W        W53470  19.563  13.715  11.480
88310W        W53471  30.911  15.643  10.284
88311W        W53472  41.757  44.910  12.089
88312W        W53473   7.132  26.461   1.236
88313W        W53474  39.741   2.518  12.856
88314W        W53475  16.208   1.271  11.610
88315W        W53476  12.278  35.393   0.260
88316W        W53477  42.887   8.313  13.951
88317W        W53478   6.317  22.404   2.830
88318W        W53479  30.943  44.436   4.588
88319W        W53480  40.790  14.087  13.378
88320W        W53481  22.009  13.193   0.734
88321W        W53482   7.017   9.215   3.653
88322W        W53483  11.960  18.318  11.999
88323W        W53484  39.123  22.091   0.889
88324W        W53485   3.525  31.673   4.054
88325W        W53486  39.781  23.982  13.976
88326W        W53487  13.335  34.914   0.214
88327W        W53488  37.793  15.266   1.177
88328W        W53489  33.774  41.051  11.045
88329W        W53490  42.106   5.236   2.405
88330W        W53491  12.263  17.098  11.903
88331W        W53492  28.005  35.790  11.070
88332W        W53493   8.848  39.586   0.066
88333W        W53494  16.989  14.206   0.787
88334W        W53495  26.807  11.606   1.885
88335W        W53496   6.066  13.838  13.077
88336W        W53497  16.234  33.476   3.841
88337W        W53498  34.008  23.606   3.064
88338W        W53499  24.612   5.144   0.747
88339W        W53500   2.239  21.773  12.064
88340W        W53501  36.545  20.766   4.149
88341W        W53502  23.080  32.043   2.914
88342W        W53503  17.718  14.756  11.537
88343W        W53504  38.482  20.487   4.097
88344W        W53505  37.179  42.367   1.748
88345W        W53506  19.669  30.012  14.591
88346W        W53507   1.512  35.255   4.597
88347W        W53508  22.211  40.122  10.905
88348W        W53509  10.683   4.792  14.829
88349W        W53510  13.921  38.909  12.727
88350W        W53511  20.805  15.961   5.170
88351W        W53512  26.466  24.618  14.057
88352W        W53513  34.188  37.562  14.999
88353W        W53514  26.044  35.476   0.978
88354W        W53515  28.903  25.338  11.619
88355W        W53516   6.344   2.090   3.164
88356W        W53517   8.089   9.350  13.983
88357W        W53518  34.066   3.768  13.899
88358W        W53519   4.826   3.653  14.743
88359W        W53520  35.257  38.088   9.768
88360W        W53521  30.434   1.393  11.710
88361W        W53522  38.458  11.685  11.440
88362W        W53523  23.236  38.894   2.634
88363W        W53524  43.399  25.866   0.454
88364W        W53525  16.282   0.377   0.181
88365W        W53526  41.288  29.462  11.536
88366W        W53527  33.353  34.815  11.540
88367W        W53528  34.806  36.350  13.811
88368W        W53529  12.759  15.669   0.357
88369W        W53530  15.028  44.387  12.469
88370W        W53531  33.010  42.521  10.606
88371W        W53532  26.163  13.349  13.812
88372W        W53533   7.132   3.959  11.027
88373W        W53534  28.395  40.987   2.575
88374W        W53535  16.044  17.302   2.626
88375W        W53536  11.216   5.845   0.591
88376W        W53537   1.464  34.986   3.269
88377W        W53538   4.216   0.353  11.119
88378W        W53539  11.234  30.089  12.664
88379W        W53540  12.730   8.980  12.453
88380W        W53541  38.443   9.677  14.800
88381W        W53542  33.385   6.808  10.346
88382W        W53543  29.162  26.542  13.825
88383W        W53544  16.155  27.859  13.463
88384W        W53545  24.022  43.345   2.279
88385W        W53546  18.182  35.693   3.674
88386W        W53547   3.021  17.714   2.813
88387W        W53548   5.042  30.989  10.598
88388W        W53549  34.398  33.264   1.415
88389W        W53550  19.967  31.064   1.735
88390W        W53551  30.031  16.892  11.586
88391W        W53552   0.444  24.336  12.987
88392W        W53553  43.959  11.655   2.765
88393W        W53554   8.377  28.530  14.916
88394W        W53555  12.155  21.127  10.353
88395W        W53556  27.956   3.840   0.238
88396W        W53557   3.874  36.927   0.955
88397W        W53558  34.647  14.354  14.252
88398W        W53559  18.989  25.545   3.726
88399W        W53560   7.550  28.263  11.017
88400W        W53561   6.783  12.919  12.091
88401W        W53562  42.378  39.262   2.224
88402W        W53563   9.190  43.222   3.636
88403W        W53564  34.044  23.773  10.604
88404W        W53565  35.966   2.030   0.823
88405W        W53566  32.000  37.558  13.950
88406W        W53567  35.949  31.954  14.531
88407W        W53568   9.173   3.044   1.478
88408W        W53569  24.051  33.823  12.941
88409W        W53570  40.569  32.446  10.582
88410W        W53571  19.087  36.752   2.294
88411W        W53572  17.769  42.582  11.668
88412W        W53573  43.506  39.514   0.251
88413W        W53574  24.900  18.899  10.936
88414W        W53575   8.096  40.430  10.598
88415W        W53576  27.584  29.748  10.795
88416W        W53577  40.304   8.748  10.121
88417W        W53578   2.581  14.775   5.013
88418W        W53579  43.731  44.004   1.668
88419W        W53580  20.538  28.066   4.191
88420W        W53581  38.000  26.094   1.758
88421W        W53582  31.469  10.141   3.785
88422W        W53583  39.246   3.535   0.104
88423W        W53584  26.931   8.311  11.664
88424W        W53585  21.676  25.519   3.201
88425W        W53586  29.681   4.885   9.827
88426W        W53587   3.515   0.451   1.688
88427W        W53588   7.307   3.988   1.852
88428W        W53589   0.570  35.002  14.727
88429W        W53590  31.842  28.975  14.921
88430W        W53591  12.694   8.317  11.121
88431W        W53592  26.658  23.478   0.780
88432W        W53593  10.128   3.841  11.168
88433W        W53594  37.586  44.658   2.702
88434W        W53595   2.777  16.468   2.293
88435W        W53596   0.154  18.014   0.539
88436W        W53597  26.208  37.424  11.646
88437W        W53598  11.652  16.311  12.065
88438W        W53599  19.411  43.201   4.426
88439W        W53600  23.715  21.423   0.722
88440W        W53601  34.359  33.379  11.649
88441W        W53602  28.893  33.549  14.388
88442W        W53603  43.585  31.025  12.741
88443W        W53604   4.608   5.819  14.209
88444W        W53605  25.374  12.587  11.540
88445W        W53606  34.357  38.355  14.311
88446W        W53607  36.200  20.218   2.381
88447W        W53608  14.589   9.895   1.316
88448W        W53609  10.732  41.095   4.471
88449W        W53610  30.761   2.307  12.110
88450W        W53611   6.920   0.177  12.961
88451W        W53612  39.640   5.436   3.575
88452W        W53613  13.280  24.055   4.719
88453W        W53614  31.153   4.784  10.413
88454W        W53615  18.366   7.371  11.886
88455W        W53616  36.112  26.450  14.513
88456W        W53617   1.458  19.229  10.929
88457W        W53618  38.574  16.166  11.804
88458W        W53619  21.842  26.732  14.664
88459W        W53620  41.453  44.459   2.779
88460W        W53621  32.998  44.952  13.031
88461W        W53622  24.280  17.129   1.149
88462W        W53623  31.164   4.993  11.133
88463W        W53624  18.668   0.809  12.033
88464W        W53625  10.199  34.508  10.257
88465W        W53626  24.646  42.494   4.104
88466W        W53627  26.988  27.664  11.083
88467W        W53628  32.296   7.606  14.814
88468W        W53629  40.082  24.040  11.687
88469W        W53630   1.403  42.210   4.231
88470W        W53631  32.828  16.695  12.895
88471W        W53632  19.843   6.033   0.351
88472W        W53633  36.112  20.156  13.940
88473W        W53634  23.649  36.795  14.347
88474W        W53635  30.739   1.579  11.331
88475W        W53636  23.001   6.184  13.592
88476W        W53637  34.136  40.674  14.993
88477W        W53638  16.587  25.728  11.166
88478W        W53639  11.237  43.502   2.464
88479W        W53640  39.747   6.785  13.237
88480W        W53641  20.779  29.870  13.350
88481W        W53642  39.615  32.330   1.806
88482W        W53643   2.867  25.039   4.372
88483W        W53644   0.894  32.138   0.820
88484W        W53645  10.146  31.370  13.844
88485W        W53646  33.181  21.783  14.921
88486W        W53647   5.474  26.209  14.922
88487W        W53648  40.640  37.417   2.845
88488W        W53649   7.092   8.834   1.260
88489W        W53650  32.177   1.742   3.156
88490W        W53651   7.439  27.473  14.758
88491W        W53652  25.454  17.177   0.155
88492W        W53653  25.973  13.385   4.078
88493W        W53654  10.847  17.524  11.933
88494W        W53655  13.750  17.020  12.089
88495W        W53656  31.659  41.815   3.742
88496W        W53657  20.200   5.431  11.587
88497W        W53658  41.941  18.127   2.658
88498W        W53659  30.482  40.303  11.183
88499W        W53660   0.588  32.074  14.506
88500W        W53661  37.908  11.604  10.783
88501W        W53662  31.162  16.482  14.485
88502W        W53663  29.794  12.870   4.662
88503W        W53664   2.476   5.688  11.896
88504W        W53665  19.530  42.418  13.113
88505W        W53666  19.660  31.886   3.258
88506W        W53667   7.474  11.355   2.317
88507W        W53668  11.076  28.093  14.025
88508W        W53669   8.831  30.414  11.651
88509W        W53670   9.376  13.744   2.619
88510W        W53671  27.303  39.787   4.579
88511W        W53672  37.255  19.292   4.213
88512W        W53673  15.353  41.868   2.326
88513W        W53674  30.445   1.438  14.816
88514W        W53675  28.419  42.355   3.515
88515W        W53676  37.489  13.228   0.284
88516W        W53677  37.403   2.447  12.024
88517W        W53678  14.312  14.535  12.986
88518W        W53679  43.226   9.444   3.276
88519W        W53680  29.120   1.654   4.558
88520W        W53681  28.077  11.832   2.356
88521W        W53682   9.592  34.779   3.679
88522W        W53683   3.900  15.648  14.922
88523W        W53684  21.069  33.122   3.773
88524W        W53685  39.440  35.645  12.529
88525W        W53686  33.617  12.356  14.991
88526W        W53687  14.568  28.073   4.411
88527W        W53688  22.899   2.758   2.810
88528W        W53689  18.794  20.507  14.231
88529W        W53690  19.996   3.714  11.116
88530W        W53691   2.457  42.471   2.244
88531W        W53692  20.589   4.835   2.352
88532W        W53693  25.933   2.422  11.305
88533W        W53694  36.890   8.949  14.965
88534W        W53695  21.610  20.339   3.398
88535W        W53696  14.713  11.302  14.781
88536W        W53697   1.750  24.227  14.831
88537W        W53698  33.070  28.703  12.503
88538W        W53699   0.818  36.375  11.636
88539W        W53700  27.259  25.328   3.715
88540W        W53701  19.264  43.410  11.899
88541W        W53702  26.756  32.327  12.070
88542W        W53703   1.475  41.386  14.847
88543W        W53704   2.337  40.957  10.630
88544W        W53705   9.298  28.126   9.607
88545W        W53706  35.926   4.769  14.405
88546W        W53707   1.211  11.225  12.291
88547W        W53708   7.370  17.985   1.241
88548W        W53709   5.381   1.401   0.817
88549W        W53710  30.661  35.324  14.782
88550W        W53711  14.162   2.344   3.560
88551W        W53712  33.224  26.912   1.968
88552W        W53713  39.596  33.054  13.370
88553W        W53714  18.115   8.464   1.122
88554W        W53715   7.360   6.679   0.857
88555W        W53716  16.808  42.576   2.344
88556W        W53717  16.691  16.398  10.291
88557W        W53718  41.014  23.479   0.524
88558W        W53719  11.628  23.777   2.234
88559W        W53720   1.525  30.351   1.831
88560W        W53721  13.748   3.146   1.833
88561W        W53722  39.978  44.352   3.899
88562W        W53723  10.793  24.019   1.947
88563W        W53724  24.673  14.615  11.954
88564W        W53725   3.201   8.035   0.185
88565W        W53726  23.997  43.402   3.313
88566W        W53727   1.996  28.630   4.578
88567W        W53728  27.561  30.941   2.206
88568W        W53729  29.437   4.830  13.185
88569W        W53730  24.705   0.262   1.360
88570W        W53731  33.677  30.897  12.131
88571W        W53732  16.156  20.741   1.830
88572W        W53733  44.444  13.850  12.526
88573W        W53734  32.568   6.787  11.092
88574W        W53735  31.544  41.887   2.358
88575W        W53736  40.105  34.771   0.735
88576W        W53737   6.752  34.589  13.347
88577W        W53738  41.378   9.627  14.335
88578W        W53739  38.978  34.129  12.935
88579W        W53740   5.485  44.088   4.413
88580W        W53741   4.268  18.411  11.664
88581W        W53742  27.466  16.117  14.847
88582W        W53743  36.521  36.927  12.426
88583W        W53744  40.545  31.392  12.007
88584W        W53745  26.045  22.678  11.962
88585W        W53746  23.318   2.857   0.538
88586W        W53747  20.770  31.146   4.521
88587W        W53748  38.029   3.830  14.338
88588W        W53749  30.560  41.858  10.675
88589W        W53750  12.649  24.645  13.940
88590W        W53751  11.113  19.920  13.608
88591W        W53752  26.213  27.199   2.366
88592W        W53753  11.655  32.783  14.884
88593W        W53754   9.752  15.736  12.581
88594W        W53755  25.394   7.640  14.926
88595W        W53756  38.791   5.080  13.855
88596W        W53757  41.922  20.252  12.977
88597W        W53758  40.876   0.788  14.334
88598W        W53759  13.416  39.700   4.132
88599W        W53760  31.728  26.796  12.533
88600W        W53761   0.913  32.122   4.678
88601W        W53762  18.085   9.754   0.916
88602W        W53763  20.031  15.675  12.802
88603W        W53764  21.950  16.208  11.291
88604W        W53765  15.908  27.101  10.607
88605W        W53766  39.885  42.061   4.295
88606W        W53767  11.696   3.184  10.946
88607W        W53768   6.175  33.383  13.875
88608W        W53769   2.017   6.773   0.761
88609W        W53770  38.037  33.637   1.157
88610W        W53771  18.317  10.864  11.572
88611W        W53772  11.801  19.814   2.585
88612W        W53773  35.452  26.899  13.070
88613W        W53774  24.731   1.242  12.643
88614W        W53775  27.033  15.367   3.504
88615W        W53776  40.412  42.257   3.820
88616W        W53777  37.441  41.043  14.753
88617W        W53778  28.377  35.485   4.830
88618W        W53779   3.177  35.578  11.092
88619W        W53780  23.595  40.319   2.202
88620W        W53781  31.027  12.183  12.679
88621W        W53782  17.290  29.508  13.936
88622W        W53783  40.775  29.068   4.954
88623W        W53784  17.714  24.682  11.495
88624W        W53785  38.469  17.275   1.787
88625W        W53786   2.872  26.070   3.781
88626W        W53787   0.714   8.703  13.081
88627W        W53788  27.051  27.168   0.159
88628W        W53789   2.969   4.087   0.928
88629W        W53790  23.123  22.462   0.408
88630W        W53791   1.315   3.978  14.562
88631W        W53792   7.639  11.235  10.684
88632W        W53793  38.783  21.232   0.410
88633W        W53794  25.578  37.029   1.977
88634W        W53795  13.893  14.800  12.767
88635W        W53796  18.617  24.417   0.894
88636W        W53797  44.508  23.626  11.547
88637W        W53798  35.085  13.605  14.600
88638W        W53799  32.674   0.283   2.925
88639W        W53800  42.545  11.872   2.313
88640W        W53801   1.783   4.142  14.371
88641W        W53802  13.296  24.936  10.743
88642W        W53803  36.881  14.982  14.028
88643W        W53804  35.943  26.863   0.390
88644W        W53805  42.802  10.566   0.950
88645W        W53806  17.232  24.645  11.671
88646W        W53807  29.001  42.665   4.111
88647W        W53808  25.305  23.253  10.200
88648W        W53809  28.077   6.791  12.613
88649W        W53810  28.211  41.364   1.249
88650W        W53811  30.855  35.319  12.115
88651W        W53812   9.593  38.386  13.532
88652W        W53813   7.195   9.961  14.160
88653W        W53814  24.628  19.642  12.957
88654W        W53815  14.599  16.156  11.625
88655W        W53816  21.730  23.531   2.187
88656W        W53817  40.160   8.386   1.967
88657W        W53818  40.618  27.125  14.974
88658W        W53819  11.217  11.035  11.501
88659W        W53820  13.350  19.083  13.795
88660W        W53821  32.041  28.141   3.235
88661W        W53822  24.998   8.326  13.398
88662W        W53823  24.605  20.287  14.330
88663W        W53824  40.301  35.929  11.134
88664W        W53825  31.852  21.593  11.004
88665W        W53826  40.987  20.671  13.563
88666W        W53827   5.519  13.685   2.823
88667W        W53828   9.930  14.921   1.675
88668W        W53829  36.400  20.256   2.860
88669W        W53830  37.117  44.292   0.404
88670W        W53831  23.596  25.235  14.907
88671W        W53832  17.591  42.935   1.813
88672W        W53833  43.991  37.002  14.319
88673W        W53834  31.236  27.096   0.754
88674W        W53835   5.454   9.733  12.826
88675W        W53836  13.707  16.793  12.541
88676W        W53837  11.251  26.036   2.208
88677W        W53838   5.644  38.124   1.392
88678W        W53839  17.738  32.589  12.264
88679W        W53840  30.312   3.235   0.464
88680W        W53841  16.063  17.343  11.939
88681W        W53842  18.265  44.886  13.317
88682W        W53843   1.594  29.169  10.464
88683W        W53844  32.633  30.907   3.660
88684W        W53845   4.272  37.172  13.858
88685W        W53846  11.312   7.527  11.572
88686W        W53847  19.768  27.170  10.681
88687W        W53848  32.317   6.624  14.004
88688W        W53849  32.973  32.435  10.933
88689W        W53850   2.262  32.087   0.891
88690W        W53851  28.011   5.859  11.693
88691W        W53852   4.638  38.794   4.153
88692W        W53853  39.370  24.956   2.893
88693W        W53854  43.080  19.217  14.586
88694W        W53855  34.464  18.622   3.801
88695W        W53856   2.341  17.734  10.233
88696W        W53857   0.116  16.883   1.266
88697W        W53858   6.794   7.450   0.965
88698W        W53859   1.646   8.965  13.452
88699W        W53860  18.700  39.164   3.309
88700W        W53861  39.442  22.281  11.074
88701W        W53862   9.394  24.711  12.830
88702W        W53863   9.299  30.707   1.361
88703W        W53864  21.109  26.482   2.894
88704W        W53865  32.206  18.629   2.835
88705W        W53866  14.186  16.265   0.800
88706W        W53867  32.374  19.761  10.773
88707W        W53868  19.009  38.789  13.847
88708W        W53869  31.217  32.673   1.854
88709W        W53870  34.493  23.843  14.788
88710W        W53871  34.566   3.193  14.402
88711W        W53872  26.545  30.706   3.318
88712W        W53873   0.719  13.786   0.215
88713W        W53874  44.124  26.518  12.890
88714W        W53875  29.691  34.110  12.628
88715W        W53876   5.294  40.454  12.903
88716W        W53877  16.382  44.068  13.385
88717W        W53878  24.138  27.204   3.738
88718W        W53879  26.152  29.911  12.991
88719W        W53880  38.998   6.896   3.061
88720W        W53881  27.527  20.709   4.178
88721W        W53882  24.185  23.642   4.501
88722W        W53883  41.408  42.301  14.319
88723W        W53884  14.178  26.040   3.825
88724W        W53885  43.317  26.884  14.540
88725W        W53886   5.645  26.389  14.392
88726W        W53887   4.719   5.756   4.636
88727W        W53888   1.833   7.701  14.892
88728W        W53889  17.837   9.851  12.865
88729W        W53890  15.253  21.463   3.805
88730W        W53891  34.632  40.049   1.230
88731W        W53892  39.418  10.804   4.168
88732W        W53893  32.050  36.402  14.875
88733W        W53894   1.821  30.889   1.390
88734W        W53895  25.735  20.616  12.844
88735W        W53896  10.718  15.573  12.532
88736W        W53897  37.919  18.031   1.787
88737W        W53898  30.267  27.227  12.861
88738W        W53899  22.337   8.378  13.786
88739W        W53900  21.004  34.168  13.565
88740W        W53901  43.879  42.296   4.307
88741W        W53902  32.537   6.977  13.653
88742W        W53903   3.234  36.753   3.112
88743W        W53904  18.321  12.134   2.469
88744W        W53905  36.807  26.164  10.616
88745W        W53906  19.987   3.300  14.034
88746W        W53907  23.730  44.917   3.112
88747W        W53908  20.643  22.204  13.382
88748W        W53909  10.411  42.762  10.714
88749W        W53910  18.355  38.244  10.993
88750W        W53911   4.807  40.670  11.478
88751W        W53912  11.405  28.661   2.767
88752W        W53913   4.313  12.870  14.760
88753W        W53914  13.595  32.879   3.807
88754W        W53915  17.606  43.165   3.984
88755W        W53916   0.208  27.853   3.003
88756W        W53917  40.049  27.987  11.051
88757W        W53918  26.784   1.026   5.029
88758W        W53919  16.136  18.530   4.140
88759W        W53920  14.089  34.601  10.707
88760W        W53921  16.165   2.144   0.729
88761W        W53922  36.856   2.965   2.429
88762W        W53923  15.961  25.329  14.927
88763W        W53924  41.932  30.058  13.507
88764W        W53925  37.434   3.299  11.173
88765W        W53926  15.567  42.998   0.412
88766W        W53927  27.125   5.267  13.039
88767W        W53928  38.540   3.920   3.696
88768W        W53929  27.928  42.813  14.154
88769W        W53930  12.846  26.223   4.172
88770W        W53931  19.670  26.448  12.109
88771W        W53932   3.657  22.117   2.255
88772W        W53933  42.515  16.265   0.385
88773W        W53934  24.731  36.011  10.220
88774W        W53935  22.816  30.425   3.046
88775W        W53936   8.836  44.768   1.368
88776W        W53937   6.837  37.251   0.716
88777W        W53938   2.030  17.765  13.062
88778W        W53939  34.442  43.769  13.902
88779W        W53940  36.911  22.591   0.829
88780W        W53941   6.602   0.815   0.516
88781W        W53942   5.012   6.397  12.552
88782W        W53943  18.163  44.703  13.869
88783W        W53944  19.629  33.413  13.387
88784W        W53945  34.368  20.852   2.177
88785W        W53946  17.558  40.645  10.811
88786W        W53947  17.321  41.256   2.635
88787W        W53948   8.836  36.497  13.376
88788W        W53949   4.752  43.052   3.255
88789W        W53950  27.974   4.858  12.962
88790W        W53951  27.541   4.994  10.681
88791W        W53952  40.412  20.258   2.609
88792W        W53953  30.629  41.352   4.867
88793W        W53954  42.900  15.062   0.896
88794W        W53955   6.412  32.604   3.379
88795W        W53956  21.750  32.919   4.247
88796W        W53957  14.101  34.110  14.775
88797W        W53958  39.084  24.141  12.834
88798W        W53959   8.607   5.870   3.198
88799W        W53960  10.378  39.483  12.970
88800W        W53961  22.509  42.480   0.937
88801W        W53962  18.919   8.588  12.917
88802W        W53963  30.821   7.463  12.085
88803W        W53964  31.404  42.831   3.665
88804W        W53965   6.831   1.238   1.828
88805W        W53966  21.122  20.319  11.930
88806W        W53967   7.172  31.104   4.962
88807W        W53968   4.052  44.823   0.412
88808W        W53969  36.826   9.703  14.482
88809W        W53970   4.712  40.737  12.354
88810W        W53971  29.637   2.915   2.912
88811W        W53972  28.036  15.240   3.728
88812W        W53973  11.098  34.809  14.003
88813W        W53974  39.929  38.471  13.624
88814W        W53975  25.561  38.567  13.487
88815W        W53976  42.360  18.376   2.925
88816W        W53977  26.814  42.829  14.922
88817W        W53978   3.356  34.362   3.841
88818W        W53979  44.438  27.382  12.907
88819W        W53980  42.680  29.067   0.955
88820W        W53981  32.702  37.826  14.188
88821W        W53982  20.040  16.170  14.732
88822W        W53983  22.462   4.943  10.085
88823W        W53984   7.986  28.715  14.459
88824W        W53985  17.483  18.266  10.728
88825W        W53986  40.416  19.085   0.460
88826W        W53987   6.670  40.796   3.276
88827W        W53988  32.357  35.352  13.041
88828W        W53989  12.749  17.835  13.942
88829W        W53990  42.456  21.700  13.095
88830W        W53991  38.320  32.923   1.673
88831W        W53992  22.524   3.424   3.676
88832W        W53993  29.479  12.202   5.031
88833W        W53994  42.285  38.049  13.400
88834W        W53995  13.500  17.105   3.758
88835W        W53996   0.047   9.755  12.367
88836W        W53997  39.424  36.162   0.936
88837W        W53998  18.758  30.332  13.260
88838W        W53999   1.820  17.870  10.273
88839W        W54000   8.463  22.206  10.639
88840W        W54001   7.806  13.274   1.931
88841W        W54002  10.386   3.404   1.672
88842W        W54003   4.214  36.420   3.287
88843W        W54004  13.450  40.509  11.609
88844W        W54005   4.626  14.386  14.549
88845W        W54006  10.321  28.495   3.550
88846W        W54007  31.067   6.275   4.027
88847W        W54008   9.401   6.018  13.142
88848W        W54009   3.812  13.643  10.394
88849W        W54010  33.147   0.415  14.216
88850W        W54011  34.581  31.131  11.947
88851W        W54012  43.889  23.892   4.188
88852W        W54013   1.522  14.949   2.220
88853W        W54014  21.589  36.007  13.731
88854W        W54015  20.602  23.996  13.800
88855W        W54016   5.254  35.285  10.615
88856W        W54017  40.544  21.444  12.273
88857W        W54018  16.812   1.672   2.788
88858W        W54019   0.097  10.898   2.215
88859W        W54020  22.691  15.421  10.554
88860W        W54021  16.704   0.578  12.084
88861W        W54022  33.602  35.765   3.151
88862W        W54023  23.496   5.498  11.042
88863W        W54024  26.009  34.177   3.819
88864W        W54025   3.663  10.899   1.763
88865W        W54026  18.073  29.661   2.905
88866W        W54027  12.513   3.834  11.749
88867W        W54028   7.743  31.925   4.591
88868W        W54029   5.200  12.319  12.054
88869W        W54030   2.789  28.729  13.544
88870W        W54031  30.469  13.408  12.023
88871W        W54032  44.442  17.625   1.718
88872W        W54033  30.714  16.328   4.733
88873W        W54034  10.136  21.371  12.990
88874W        W54035  34.296  35.013  14.014
88875W        W54036  23.743  35.477   3.529
88876W        W54037  42.615  39.269  11.370
88877W        W54038  34.540  13.712   1.351
88878W        W54039  12.858   1.304   3.698
88879W        W54040  20.276   9.034  11.061
88880W        W54041  44.252  37.508  13.460
88881W        W54042   5.453  42.874  14.560
88882W        W54043  36.393  12.140  11.512
88883W        W54044  16.079  30.442   1.803
88884W        W54045  14.621  12.265   2.222
88885W        W54046  34.177  18.330   4.727
88886W        W54047  32.290   8.349  14.394
88887W        W54048  15.344  21.005  12.325
88888W        W54049  13.319  32.265   3.216
88889W        W54050  31.378  15.324  11.622
88890W        W54051  16.893   0.359  12.519
88891W        W54052  15.068   5.769  14.273
88892W        W54053   7.320  39.329  12.358
88893W        W54054  11.656  43.489   2.158
88894W        W54055  36.388  22.961   3.289
88895W        W54056  14.789  23.138   1.425
88896W        W54057  37.993  32.031   4.077
88897W        W54058   6.956   0.194   1.733
88898W        W54059  31.321   7.353  12.198
88899W        W54060  44.207   7.358  14.293
88900W        W54061  27.491  38.671  14.050
88901W        W54062  13.728  20.416   3.860
88902W        W54063  10.761  27.157   0.572
88903W        W54064  30.490  40.982   2.302
88904W        W54065  18.495  12.473  12.553
88905W        W54066   1.556  35.783   4.678
88906W        W54067  42.042  35.573   3.075
88907W        W54068   2.974  30.399   3.441
88908W        W54069   1.952   2.973  12.444
88909W        W54070   2.734  18.507   0.863
88910W        W54071  19.603  41.890   3.490
88911W        W54072  16.171  39.064   4.006
88912W        W54073  37.903  31.374  12.931
88913W        W54074  39.477   0.001  12.486
88914W        W54075  30.056  30.592  13.994
88915W        W54076   8.262  10.368   4.315
88916W        W54077  28.279   3.787   1.310
88917W        W54078  18.545  22.932   1.226
88918W        W54079  19.079  42.260  13.402
88919W        W54080  44.555   1.284   1.999
88920W        W54081   1.494   3.571   2.024
88921W        W54082   7.311  20.750   2.872
88922W        W54083  27.635  29.895   1.855
88923W        W54084   6.481  41.086   4.143
88924W        W54085  12.805  39.421   1.772
88925W        W54086  38.353  26.003  11.986
88926W        W54087  41.182  25.475  12.960
88927W        W54088  33.429  25.219  11.139
88928W        W54089  36.379  11.723  10.305
88929W        W54090  26.609  29.443   0.755
88930W        W54091  44.028  11.310   3.161
88931W        W54092  17.285   2.347   4.001
88932W        W54093  37.026  13.190  13.304
88933W        W54094  22.642  36.394   4.591
88934W        W54095   5.815  31.613   4.517
88935W        W54096   4.747  21.624   4.464
88936W        W54097  36.521   8.893  14.196
88937W        W54098  13.103   1.842   9.937
88938W        W54099  22.770  41.315   2.852
88939W        W54100  22.664  32.189   4.714
88940W        W54101  38.949  19.684  14.605
88941W        W54102   4.805  38.533   0.467
88942W        W54103  36.484  33.380  10.614
88943W        W54104  36.065   8.939   4.796
88944W        W54105  39.416   7.262   3.090
88945W        W54106  33.215  41.902   0.954
88946W        W54107  14.648   6.190   3.198
88947W        W54108  40.875  32.333   4.990
88948W        W54109   0.887  15.343  12.574
88949W        W54110  33.654  20.291   2.331
88950W        W54111  19.621  18.982  10.197
88951W        W54112  16.301  44.903  11.643
88952W        W54113  32.142  38.364   2.355
88953W        W54114  37.598  13.645   0.009
88954W        W54115  43.196  16.147   4.860
88955W        W54116  37.661  21.978   1.899
88956W        W54117  30.846   0.827  10.552
88957W        W54118  42.751   5.048  11.929
88958W        W54119  16.282  24.662  12.448
88959W        W54120  43.558  21.209  14.406
88960W        W54121  24.117  33.159   4.152
88961W        W54122   6.903  26.486   0.780
88962W        W54123   7.695  13.066  13.361
88963W        W54124  43.459   7.358   2.456
88964W        W54125  27.501  43.007   2.599
88965W        W54126  13.527  14.724  10.724
88966W        W54127  30.123  32.052   1.410
88967W        W54128   0.377  25.525   1.343
88968W        W54129  33.359  42.640   4.118
88969W        W54130  25.136   5.470  11.618
88970W        W54131  17.113  37.357   4.179
88971W        W54132  44.782   9.841  14.154
88972W        W54133  30.656  11.737   0.915
88973W        W54134  38.230  25.095  11.237
88974W        W54135  11.255   7.257   3.520
88975W        W54136   0.407   9.010   1.033
88976W        W54137  36.202  11.659  11.621
88977W        W54138  18.729  20.605   0.123
88978W        W54139   4.684  26.691  13.724
88979W        W54140  21.097  36.013  14.473
88980W        W54141   6.695  38.585   3.643
88981W        W54142  24.003  41.297  13.037
88982W        W54143   7.293  35.377  14.472
88983W        W54144  20.896  41.419  13.026
88984W        W54145  41.473  39.621   3.239
88985W        W54146  30.621  24.767   2.678
88986W        W54147  24.973  41.431  11.117
88987W        W54148  18.049  25.207  11.981
88988W        W54149  32.402  37.179   2.177
88989W        W54150   3.774  27.140  12.858
88990W        W54151   8.392  19.747  10.469
88991W        W54152  10.830  24.945  13.899
88992W        W54153  16.262  35.854  10.613
88993W        W54154  24.678  28.712  14.848
88994W        W54155   4.393  28.963   1.659
88995W        W54156   0.472  39.277   0.273
88996W        W54157  26.995  28.070   0.748
88997W        W54158  36.614  17.629   1.356
88998W        W54159  37.128  14.273   2.666
88999W        W54160  21.032  41.853   4.592
89000W        W54161  18.804  19.475   4.043
89001W        W54162  11.083  34.855   4.182
89002W        W54163  34.597  38.872  12.622
89003W        W54164  13.229   9.394  10.771
89004W        W54165  29.863   9.670   2.080
89005W        W54166  10.153  40.740  11.925
89006W        W54167   0.462  32.419   0.799
89007W        W54168  14.492   0.078  11.004
89008W        W54169  40.065  14.646  12.443
89009W        W54170  28.059  10.336  13.533
89010W        W54171   4.323  13.953  14.752
89011W        W54172  37.051  44.362  13.799
89012W        W54173  41.447  43.339  13.364
89013W        W54174  40.313  36.347  10.772
89014W        W54175   6.351  44.515  11.083
89015W        W54176  25.443   6.211   0.918
89016W        W54177  25.387  27.173   4.643
89017W        W54178  26.473  11.259  11.808
89018W        W54179  14.632  22.088  12.611
89019W        W54180  19.030  26.995  12.477
89020W        W54181  31.989  33.589  13.134
89021W        W54182  40.927  24.781   1.416
89022W        W54183   8.382   0.772   3.212
89023W        W54184   7.751  38.316  13.558
89024W        W54185  11.852  22.677   1.222
89025W        W54186  22.235   9.901   2.774
89026W        W54187  16.443  17.347  13.846
89027W        W54188  25.083  16.145  12.221
89028W        W54189  37.035  31.807  12.418
89029W        W54190   5.477   3.061  13.426
89030W        W54191  21.318   6.253   2.284
89031W        W54192  23.914  19.609   4.923
89032W        W54193  23.247  19.024  12.974
89033W        W54194  18.200  35.507  12.618
89034W        W54195  42.003  28.562   3.287
89035W        W54196   3.530   9.662  12.619
89036W        W54197   0.802  34.901  12.070
89037W        W54198  33.981  30.055  13.908
89038W        W54199  31.481  12.342  14.947
89039W        W54200  16.976  30.769   3.449
89040W        W54201  10.360  42.430   4.690
89041W        W54202   8.771  24.286  12.542
89042W        W54203  21.975  37.585  14.393
89043W        W54204  21.712  11.353  11.108
89044W        W54205  11.239  34.806   0.034
89045W        W54206   0.292  27.427   1.992
89046W        W54207  39.999   6.594   4.948
89047W        W54208  40.840   4.700   4.635
89048W        W54209   0.420  39.598   3.163
89049W        W54210  42.144  36.034   2.849
89050W        W54211  10.843  28.216   0.207
89051W        W54212  33.481  21.940  13.608
89052W        W54213  41.417  43.751  13.022
89053W        W54214  11.477   5.671   3.212
89054W        W54215  42.486  11.661   0.769
89055W        W54216  25.681  21.968  13.567
89056W        W54217  26.206  44.821  13.918
89057W        W54218  14.080   2.830  11.291
89058W        W54219  18.045  25.113  12.501
89059W        W54220  28.705  35.140   2.655
89060W        W54221  16.795  18.019   0.413
89061W        W54222  42.939  18.731   5.036
89062W        W54223  11.309   2.777  14.769
89063W        W54224  44.879  19.993   4.133
89064W        W54225  31.583  10.246  14.359
89065W        W54226  24.070  37.346   2.537
89066W        W54227  35.686  39.386   2.691
89067W        W54228  44.410  36.341  10.813
89068W        W54229  24.566  29.499  14.382
89069W        W54230  35.004  29.042  13.153
89070W        W54231   0.269   3.918  14.877
89071W        W54232  33.936  26.726  14.841
89072W        W54233  12.386  17.200   1.200
89073W        W54234  23.150  25.096  12.386
89074W        W54235  43.202  39.402  11.148
89075W        W54236  17.844  44.494  11.902
89076W        W54237   7.867  22.262   0.342
89077W        W54238   6.779   2.859   1.926
89078W        W54239  29.986   3.083   0.088
89079W        W54240   9.778  37.024  12.840
89080W        W54241   6.631   4.171  10.906
89081W        W54242  33.078   6.171   0.199
89082W        W54243  37.554   1.441  10.996
89083W        W54244   4.186  43.462   0.496
89084W        W54245  19.884   4.824  14.737
89085W        W54246   5.764  27.329   2.277
89086W        W54247  41.497  41.922   2.689
89087W        W54248  22.294  20.035  10.457
89088W        W54249  37.133  13.742   3.280
89089W        W54250  41.391  44.336  11.468
89090W        W54251  24.211   6.557   3.298
89091W        W54252  17.554  32.751   4.100
89092W        W54253  15.757  11.202  14.712
89093W        W54254  21.119   8.940   0.687
89094W        W54255  40.376   0.845   4.142
89095W        W54256  10.817  13.303   0.825
89096W        W54257   1.454  43.716  14.518
89097W        W54258  35.422  34.050   2.540
89098W        W54259  12.796  33.931   4.343
89099W        W54260   5.102  36.379   1.918
89100W        W54261  21.143  35.575   1.906
89101W        W54262  25.083  26.039   1.773
89102W        W54263  38.761   5.292  13.011
89103W        W54264  43.679  19.156   0.960
89104W        W54265   6.624  21.623   4.852
89105W        W54266   7.173  33.743   4.348
89106W        W54267  21.655  17.636  13.308
89107W        W54268  32.207   6.382  14.495
89108W        W54269   0.441   1.911   1.237
89109W        W54270  42.890  29.185   4.575
89110W        W54271  21.021  36.459  13.339
89111W        W54272  31.099  15.059  11.050
89112W        W54273  35.651  15.204   2.957
89113W        W54274  17.927  28.007   4.794
89114W        W54275  22.231  37.282  14.043
89115W        W54276  22.129  19.791  12.640
89116W        W54277  14.277  18.021   1.348
89117W        W54278   4.353  41.462   0.384
89118W        W54279  35.580  41.998  11.596
89119W        W54280  30.000  20.208  11.515
89120W        W54281  18.650  42.590   0.414
89121W        W54282   7.748  25.415  10.162
89122W        W54283  38.229   7.035   5.025
89123W        W54284  20.906   9.096  13.976
89124W        W54285  14.056  20.762   1.519
89125W        W54286  38.948  36.423  11.989
89126W        W54287  33.516  31.384  12.035
89127W        W54288  26.454  22.385  14.871
89128W        W54289  11.816  11.304   4.154
89129W        W54290  35.928  39.857   0.817
89130W        W54291  44.940  36.989  13.889
89131W        W54292  37.349  25.173  11.642
89132W        W54293  29.112   5.208   3.169
89133W        W54294   0.827  41.165  10.656
89134W        W54295  34.063  10.851   0.924
89135W        W54296  21.061  20.389  13.860
89136W        W54297  18.365  41.440   1.528
89137W        W54298  30.461  26.618  10.671
89138W        W54299  24.700  32.991  10.722
89139W        W54300  11.298  21.555  10.555
89140W        W54301  37.039  14.920   1.570
89141W        W54302   8.448  30.938  12.516
89142W        W54303   1.750  39.585  11.406
89143W        W54304  39.898  40.948   2.902
89144W        W54305  34.131  33.557  12.400
89145W        W54306  26.219  28.605   1.006
89146W        W54307  13.995  15.442   2.196
89147W        W54308  29.838  19.707   1.260
89148W        W54309  24.987  37.012   1.282
89149W        W54310   6.886  26.122   2.625
89150W        W54311  43.268  15.555   3.592
89151W        W54312  22.674   1.427  12.487
89152W        W54313  39.561   1.607  12.956
89153W        W54314  39.925   3.631   2.170
89154W        W54315  17.995  14.082  13.119
89155W        W54316  11.097   3.269   3.200
89156W        W54317  22.825   4.462  10.943
89157W        W54318   5.991  30.154   2.339
89158W        W54319  11.671   8.303   4.348
89159W        W54320   6.823  23.654   3.606
89160W        W54321   9.649  23.193  11.274
89161W        W54322  28.016   4.735   5.010
89162W        W54323  12.089   7.803   1.816
89163W        W54324   2.275  25.720   2.329
89164W        W54325   8.679  41.268   3.822
89165W        W54326  16.223  33.581  12.960
89166W        W54327  37.208  28.473   4.629
89167W        W54328   6.651  36.461   0.283
89168W        W54329  44.699  30.978   2.959
89169W        W54330   6.347  35.368  12.167
89170W        W54331  34.568  18.014  10.290
89171W        W54332  27.969  28.980  12.989
89172W        W54333   8.164  11.901  13.805
89173W        W54334  41.209   8.318   3.232
89174W        W54335  34.576  22.247  14.816
89175W        W54336  23.905  13.365  12.402
89176W        W54337  13.022  22.212   1.763
89177W        W54338   0.941   3.294  13.121
89178W        W54339  13.136  44.949   2.200
89179W        W54340  18.124  34.067  12.100
89180W        W54341   8.865   5.428  13.962
89181W        W54342  24.051  17.933   0.419
89182W        W54343  10.753  14.283   4.898
89183W        W54344  42.842  41.114   2.333
89184W        W54345   6.943   0.404   4.356
89185W        W54346   1.957  33.987   0.976
89186W        W54347  41.725  41.960   0.812
89187W        W54348  32.326  44.783  10.540
89188W        W54349  35.538  10.657   0.909
89189W        W54350  30.889  11.635  10.909
89190W        W54351  30.532  36.573   4.140
89191W        W54352   1.640  19.489  11.677
89192W        W54353  10.316   3.789   4.902
89193W        W54354   0.492  33.977  10.896
89194W        W54355  44.428  12.828   2.750
89195W        W54356  32.993  18.565  12.881
89196W        W54357  22.219   3.215   2.271
89197W        W54358  29.943  36.888  12.472
89198W        W54359  10.615   0.470   3.132
89199W        W54360  27.006  43.554  11.988
89200W        W54361  19.566  28.417   4.721
89201W        W54362   4.692   7.743  12.434
89202W        W54363   5.806  35.839  11.570
89203W        W54364   4.435   2.315   1.180
89204W        W54365  22.264  27.881  12.486
89205W        W54366   4.413  42.009  12.867
89206W        W54367  28.722  42.766  13.548
89207W        W54368  39.416  43.081  12.148
89208W        W54369  30.167  14.183  12.856
89209W        W54370  32.745   7.326  10.894
89210W        W54371   6.150  27.164   0.099
89211W        W54372  41.571  39.529   1.863
89212W        W54373  28.533   4.118  11.751
89213W        W54374  42.065  24.669   4.257
89214W        W54375  29.056  25.073  13.934
89215W        W54376  17.702  35.994   0.467
89216W        W54377  36.172  38.129   4.524
89217W        W54378  21.289  17.825  12.244
89218W        W54379  25.438  10.246  11.286
89219W        W54380  39.459  15.247  14.068
89220W        W54381  20.744  29.543  12.069
89221W        W54382  39.959  22.528  13.977
89222W        W54383  42.355  34.009  11.462
89223W        W54384  29.239  13.882   0.494
89224W        W54385  24.289  43.773   2.194
89225W        W54386   3.423  17.630  13.586
89226W        W54387  25.106  34.199  14.671
89227W        W54388  26.986   8.806   2.211
89228W        W54389   7.459   5.738  11.721
89229W        W54390  36.859   6.846   2.867
89230W        W54391   7.150   1.682  13.366
89231W        W54392  35.937  10.275   0.456
89232W        W54393   0.916  36.270   3.470
89233W        W54394  17.191   9.275   3.184
89234W        W54395  25.600   9.063  13.845
89235W        W54396  29.354  28.380   1.834
89236W        W54397   3.022   7.191   3.084
89237W        W54398  43.566   5.675   3.352
89238W        W54399   9.640  30.325  14.904
89239W        W54400  32.334  25.984  14.043
89240W        W54401  41.271  23.679   1.681
89241W        W54402   5.848  21.607  11.467
89242W        W54403  32.430  11.187  13.318
89243W        W54404  37.435   7.701   4.659
89244W        W54405  33.744  42.024   1.261
89245W        W54406  42.060  28.703   4.290
89246W        W54407  28.668  17.605  10.939
89247W        W54408  19.995  15.126   1.703
89248W        W54409  38.487   8.125   1.467
89249W        W54410   1.822  15.686   4.996
89250W        W54411   4.287  15.053  12.501
89251W        W54412  40.766  41.014   0.837
89252W        W54413  38.988  39.578   4.259
89253W        W54414  27.553  33.055  14.037
89254W        W54415   4.323  32.416  12.971
89255W        W54416  25.940  18.911  12.350
89256W        W54417  30.378  28.571  11.828
89257W        W54418   8.354   1.487  11.128
89258W        W54419  30.309  35.544   0.451
89259W        W54420   0.165  13.363   0.818
89260W        W54421  39.062  36.897   4.222
89261W        W54422  30.845  22.868  10.787
89262W        W54423  43.018   2.358  11.183
89263W        W54424  44.976  38.563   1.753
89264W        W54425   1.856   6.394   3.327
89265W        W54426  21.796   1.417   3.012
89266W        W54427   8.748  41.146  13.430
89267W        W54428   6.180  37.323  13.955
89268W        W54429   9.410  29.042  11.702
89269W        W54430  35.775   6.257  14.832
89270W        W54431  20.540   7.416  13.271
89271W        W54432  38.783  27.628  14.163
89272W        W54433  44.095  19.638  13.656
89273W        W54434  32.925  28.174   3.084
89274W        W54435   9.313  29.672   1.240
89275W        W54436  42.266  36.006   9.960
89276W        W54437  30.376  39.514   3.806
89277W        W54438  25.691  38.730   3.970
89278W        W54439  11.123  16.076   4.532
89279W        W54440  12.676  15.221   3.147
89280W        W54441  19.250  16.676  11.191
89281W        W54442  26.111  43.219   1.272
89282W        W54443  25.575  40.243   5.773
89283W        W54444  31.387  10.914   1.439
89284W        W54445  37.996  35.120   1.755
89285W        W54446  39.552  18.398  14.705
89286W        W54447  44.475   2.944   1.148
89287W        W54448  34.529  13.351  11.117
89288W        W54449  36.916  38.217  10.980
89289W        W54450   7.461   2.283   1.541
89290W        W54451  38.203  13.672   0.896
89291W        W54452  28.025  34.521  12.944
89292W        W54453  31.489   0.207   3.828
89293W        W54454  11.619  40.995  12.293
89294W        W54455  20.190  28.389   9.856
89295W        W54456  23.103   3.625  12.059
89296W        W54457  17.501  10.043   0.238
89297W        W54458  15.156  12.963   4.208
89298W        W54459  36.010  22.506   0.474
89299W        W54460  43.717  10.371  12.025
89300W        W54461  26.592  24.861   3.735
89301W        W54462  36.944  15.636   5.109
89302W        W54463   7.977  30.017  12.592
89303W        W54464  40.943  14.180  11.811
89304W        W54465  22.568  14.392   1.224
89305W        W54466  35.998  37.299  11.673
89306W        W54467   7.892  15.617  14.362
89307W        W54468  14.915  16.156   5.589
89308W        W54469  35.023  26.500  11.977
89309W        W54470  36.117  40.779   0.912
89310W        W54471  40.013  10.667   1.272
89311W        W54472  18.915  39.499  10.669
89312W        W54473  18.224   7.817   2.970
89313W        W54474  44.488  20.328   4.225
89314W        W54475  29.500  14.701  13.810
89315W        W54476   6.915  30.050   1.371
89316W        W54477   5.132  31.569   3.075
89317W        W54478  29.126  32.405  14.779
89318W        W54479  32.590  14.851   1.545
89319W        W54480  40.126  27.431  13.840
89320W        W54481  25.474  34.493   2.719
89321W        W54482  41.355  32.019   5.044
89322W        W54483   9.065  24.887   4.531
89323W        W54484  11.292   7.959   4.259
89324W        W54485  38.617  21.798   2.694
89325W        W54486  26.667  29.196   4.827
89326W        W54487  41.113  22.231  13.501
89327W        W54488   3.085   3.740   0.464
89328W        W54489  37.433  15.168   4.203
89329W        W54490  33.996   9.228  14.509
89330W        W54491  18.334   4.788  13.841
89331W        W54492  12.349  39.823   2.645
89332W        W54493  11.990  39.838   4.118
89333W        W54494   9.042  11.726   4.935
89334W        W54495  33.916  12.125   4.021
89335W        W54496   9.453  17.482  14.969
89336W        W54497  29.384  13.508   5.039
89337W        W54498  32.385  27.032  13.606
89338W        W54499  24.525  11.523  12.672
89339W        W54500  21.650  44.329  12.483
89340W        W54501  30.271  20.674  11.400
89341W        W54502  10.501  18.261   3.224
89342W        W54503  14.289  35.870   2.635
89343W        W54504  18.297  31.508  14.581
89344W        W54505  14.673  25.682  11.973
89345W        W54506  43.315  18.363   4.970
89346W        W54507  15.892   5.930   5.034
89347W        W54508   7.804  33.973   4.441
89348W        W54509  20.783  44.553   1.876
89349W        W54510  10.565  22.112  10.754
89350W        W54511   4.767   8.146   0.886
89351W        W54512  32.357   7.411  12.278
89352W        W54513  15.614  32.089  14.677
89353W        W54514   1.972  13.731  10.434
89354W        W54515  23.296  25.706   4.640
89355W        W54516  31.981   8.353  10.818
89356W        W54517   9.752  23.664  10.574
89357W        W54518  38.894  16.814   3.559
89358W        W54519  22.595   9.931  12.388
89359W        W54520  27.186  15.238  13.482
89360W        W54521  28.020  36.763   0.286
89361W        W54522  44.810  34.985  12.925
89362W        W54523  33.854  19.109   1.926
89363W        W54524  32.306  38.331   0.881
89364W        W54525  26.309  44.886   4.487
89365W        W54526  30.999   3.377  11.616
89366W        W54527   0.984  44.262   1.795
89367W        W54528  37.453  37.869  11.017
89368W        W54529  42.771  40.860   4.773
89369W        W54530  10.620  26.734  11.529
89370W        W54531  40.369  41.328   3.279
89371W        W54532  36.075  11.326   2.393
89372W        W54533  39.333  16.078   4.142
89373W        W54534  15.620  36.379  13.385
89374W        W54535   1.817  19.041   3.579
89375W        W54536  13.136  44.652  10.808
89376W        W54537   3.799  12.711   2.331
89377W        W54538  37.026  11.095  14.155
89378W        W54539   8.657  13.137  11.992
89379W        W54540   2.860  33.658   0.204
89380W        W54541  25.751  20.129  13.976
89381W        W54542   4.221   5.862  11.993
89382W        W54543  31.225   8.779   2.790
89383W        W54544  12.531  38.217   1.525
89384W        W54545   5.495  18.126  10.646
89385W        W54546  12.750  14.727   4.498
89386W        W54547  30.884   1.373  11.957
89387W        W54548  25.701  41.178  14.677
89388W        W54549  10.197  36.021  12.690
89389W        W54550  19.984  28.158   0.482
89390W        W54551   4.963  29.498   2.844
89391W        W54552   0.940  21.476   1.731
89392W        W54553  32.321  25.124  13.089
89393W        W54554  19.205  27.174   0.472
89394W        W54555  44.290   3.560   5.134
89395W        W54556  40.793  32.219  14.396
89396W        W54557   8.700  22.538   3.367
89397W        W54558  21.254  29.684   3.774
89398W        W54559   3.423   9.913   1.920
89399W        W54560  16.022  42.774  11.630
89400W        W54561  42.324  35.970  14.672
89401W        W54562  11.693   6.752  11.734
89402W        W54563  37.899  38.990  10.700
89403W        W54564  30.083   2.833   3.281
89404W        W54565  27.261  12.897   4.704
89405W        W54566   4.343  27.660   2.925
89406W        W54567  19.750  31.611  12.932
89407W        W54568  21.956  43.050   1.918
89408W        W54569  31.972  40.743  14.668
89409W        W54570  37.858  35.617   1.835
89410W        W54571   2.070   3.736   3.389
89411W        W54572  28.909  12.725  13.989
89412W        W54573   5.378  25.089  12.031
89413W        W54574  39.339  12.457   2.209
89414W        W54575   3.908  35.008   0.248
89415W        W54576  35.967  37.526  13.037
89416W        W54577  15.163  20.522  13.846
89417W        W54578  16.901  12.733   0.297
89418W        W54579  29.494   7.979   3.191
89419W        W54580   0.492  38.911  11.240
89420W        W54581  16.297   2.372   3.137
89421W        W54582  30.171  13.647  14.027
89422W        W54583  44.335  19.900  10.033
89423W        W54584  41.266  20.629   1.244
89424W        W54585  35.071  18.191  14.377
89425W        W54586  26.002  23.528   4.526
89426W        W54587   3.183  22.994  13.439
89427W        W54588  37.359   1.761  10.552
89428W        W54589  36.165   4.409   0.000
89429W        W54590  44.177  38.552  11.313
89430W        W54591  32.928  13.211   1.640
89431W        W54592   2.958  38.992  11.882
89432W        W54593   8.205  33.091  14.876
89433W        W54594  15.232  20.635  13.048
89434W        W54595  29.118   2.987  13.472
89435W        W54596   4.372  25.890  13.834
89436W        W54597  21.035  42.127   0.684
89437W        W54598  16.848  39.464   3.225
89438W        W54599  42.059   7.700   4.135
89439W        W54600  26.011  11.121   3.235
89440W        W54601  40.046  32.835  12.082
89441W        W54602   5.336  19.583   0.637
89442W        W54603  34.174  22.114   4.570
89443W        W54604   1.065  17.138  11.438
89444W        W54605  36.918  35.364  11.524
89445W        W54606  37.748  23.600  12.997
89446W        W54607  19.046   5.086   1.396
89447W        W54608  26.587  21.318   1.824
89448W        W54609   2.329  21.601   1.798
89449W        W54610  14.907  29.900  11.081
89450W        W54611  22.201  21.217  10.580
89451W        W54612  14.795  22.629   1.504
89452W        W54613  18.050   3.922   3.209
89453W        W54614  13.741  17.520  12.057
89454W        W54615  38.614  37.036  11.197
89455W        W54616  13.499  39.824   3.320
89456W        W54617  19.040  12.386  10.663
89457W        W54618   0.754  10.860  11.042
89458W        W54619   4.516  22.517  11.859
89459W        W54620  22.880  18.083   5.068
89460W        W54621  38.557  21.808   1.785
89461W        W54622  21.118   4.634  10.061
89462W        W54623  23.998  15.810  12.027
89463W        W54624  11.848  13.080   0.002
89464W        W54625  16.334  24.363  11.061
89465W        W54626  35.597  37.914  10.656
89466W        W54627  30.518   8.403   2.395
89467W        W54628  15.216  31.686   5.055
89468W        W54629  26.478   9.885   5.156
89469W        W54630  19.450  19.153  10.641
89470W        W54631  31.902  29.638   0.402
89471W        W54632  12.909  29.730   2.275
89472W        W54633  31.049   9.324   4.177
89473W        W54634  15.306  25.159   1.871
89474W        W54635  15.965  42.340   3.569
89475W        W54636  42.037  32.413   4.149
89476W        W54637  36.867  12.383   1.281
89477W        W54638  12.366  23.632  13.602
89478W        W54639  18.560  20.972  11.190
89479W        W54640   6.788  10.742  11.040
89480W        W54641   2.655  20.088   3.682
89481W        W54642  12.708  42.578  11.518
89482W        W54643  23.693  27.074  13.783
89483W        W54644  21.181  10.730   0.228
89484W        W54645  36.507  22.727  12.031
89485W        W54646  27.372  33.459  13.746
89486W        W54647  36.078   7.396  11.459
89487W        W54648  33.366  22.084   0.327
89488W        W54649  43.413  25.104   4.877
89489W        W54650  41.829   6.656  14.154
89490W        W54651  35.522  29.612  11.072
89491W        W54652  12.681  22.204  10.965
89492W        W54653  37.967  24.694  12.382
89493W        W54654  32.633   7.446  13.843
89494W        W54655  39.958  42.844   1.747
89495W        W54656  22.791   3.334  13.374
89496W        W54657  33.329   2.961  13.657
89497W        W54658  44.882  28.637  12.769
89498W        W54659  40.696  21.411  10.986
89499W        W54660  13.309  43.607   1.501
89500W        W54661  27.317  14.605  11.348
89501W        W54662  37.416  26.521  11.777
89502W        W54663   8.646  38.776   4.043
89503W        W54664  33.954   0.493  11.970
89504W        W54665  35.352  15.690  14.538
89505W        W54666  33.649  41.928  12.455
89506W        W54667  44.256  13.677   1.788
89507W        W54668  26.543  33.378  14.469
89508W        W54669  15.542  44.467  12.497
89509W        W54670  28.102  23.023   0.798
89510W        W54671  18.598  17.594   2.433
89511W        W54672  10.382  36.424  12.421
89512W        W54673  10.798  37.042   1.785
89513W        W54674  14.320  35.101  14.272
89514W        W54675  25.639  23.003  13.455
89515W        W54676   4.220  33.145   1.881
89516W        W54677  15.674   3.938   2.787
89517W        W54678  14.901  27.205  14.527
89518W        W54679  41.908  28.914  11.179
89519W        W54680   0.762  40.857   1.389
89520W        W54681  41.524  20.775  12.471
89521W        W54682   1.837  33.862   1.479
89522W        W54683  27.100  11.387  14.767
89523W        W54684  18.749  30.439   1.033
89524W        W54685  12.144  10.191   4.460
89525W        W54686  39.815  41.361   2.626
89526W        W54687  31.642   5.629  14.990
89527W        W54688  19.813   6.393  11.574
89528W        W54689  14.210  37.858   0.898
89529W        W54690  18.554  26.118   1.200
89530W        W54691  25.643  35.623   1.279
89531W        W54692  26.505  23.475   4.521
89532W        W54693  13.155  31.958   3.601
89533W        W54694  25.452  43.505  10.259
89534W        W54695  23.047   7.838  10.759
89535W        W54696  38.152  40.729  14.252
89536W        W54697  13.751  39.257  11.950
89537W        W54698  15.661  40.581   2.162
89538W        W54699  37.049  32.691   0.821
89539W        W54700  14.911  17.088  12.919
89540W        W54701  26.665  14.291   3.160
89541W        W54702  10.196  14.109  13.086
89542W        W54703  10.686  20.486   1.490
89543W        W54704  28.627  38.149   1.601
89544W        W54705  32.808  10.251   1.189
89545W        W54706  16.814  35.292   2.443
89546W        W54707  14.553  29.935  12.325
89547W        W54708  30.383  13.658   2.325
89548W        W54709  25.167  12.669  13.824
89549W        W54710  44.987  21.013  11.104
89550W        W54711  37.077  11.791  12.889
89551W        W54712   3.709  12.185   1.439
89552W        W54713  12.587  14.680   2.661
89553W        W54714  33.334  43.337   2.899
89554W        W54715  28.224  26.945   3.528
89555W        W54716  37.384  27.035  10.600
89556W        W54717  22.076   4.141   4.045
89557W        W54718  40.495   1.148  14.298
89558W        W54719  43.328  37.313  13.002
89559W        W54720  15.271  13.359   1.378
89560W        W54721  13.105  10.138   1.415
89561W        W54722  21.174  42.287  11.610
89562W        W54723  41.982  11.310   4.306
89563W        W54724  15.587  14.724   2.839
89564W        W54725   5.668   3.168  12.467
89565W        W54726  30.437  24.286  13.867
89566W        W54727  15.887  29.058  12.547
89567W        W54728  27.418  37.835  11.734
89568W        W54729  33.813  42.133   3.751
89569W        W54730   7.335   9.189  14.944
89570W        W54731  38.953   2.912   1.235
89571W        W54732   3.239  30.347   0.421
89572W        W54733  44.608  26.945   0.392
89573W        W54734  13.270  44.012   0.070
89574W        W54735  22.911  32.842  14.039
89575W        W54736  13.688  31.768   2.285
89576W        W54737  35.019  31.196  11.466
89577W        W54738  39.112  18.569  11.483
89578W        W54739  28.067  16.576   2.194
89579W        W54740   6.756  33.171  11.523
89580W        W54741  10.584  17.668   4.242
89581W        W54742  13.785  35.861   3.815
89582W        W54743  35.473  32.933  13.743
89583W        W54744  10.830  16.741   3.159
89584W        W54745  16.842  41.472   1.219
89585W        W54746   2.742  22.194  13.070
89586W        W54747  15.142  19.237  13.394
89587W        W54748  43.410  15.836   4.494
89588W        W54749   3.280  18.577  14.973
89589W        W54750   4.495  40.510   0.280
89590W        W54751   0.475   6.277   4.542
89591W        W54752  36.498  13.147   0.106
89592W        W54753  38.772  22.069  10.663
89593W        W54754  20.155   5.002  14.344
89594W        W54755  13.145  34.565  14.868
89595W        W54756  11.802   0.787   0.356
89596W        W54757  12.900  30.257   2.307
89597W        W54758  22.138  23.726  14.014
89598W        W54759  21.491  31.512   3.944
89599W        W54760  33.814  31.841   4.052
89600W        W54761   7.213   4.923   4.438
89601W        W54762  19.025  36.889  12.954
89602W        W54763  19.580  15.000  10.296
89603W        W54764  12.017  14.815  14.062
89604W        W54765  31.854  42.019   1.285
89605W        W54766  36.064  30.670   4.677
89606W        W54767   7.704  37.642   0.273
89607W        W54768  10.739  15.815  13.482
89608W        W54769  36.400   5.349   3.256
89609W        W54770  22.262  42.072   2.637
89610W        W54771  37.581  28.809   4.750
89611W        W54772   9.136  37.294   4.145
89612W        W54773   7.832  21.210   0.271
89613W        W54774  31.870  12.378  13.772
89614W        W54775  30.182  10.597   3.348
89615W        W54776   2.475  29.417   3.685
89616W        W54777  20.288  43.222   3.693
89617W        W54778  10.136  32.626   3.162
89618W        W54779  13.295   3.479  12.759
89619W        W54780  20.119  41.832   2.897
89620W        W54781  10.035  33.638  12.294
89621W        W54782  12.664   9.112   0.038
89622W        W54783  43.432   1.943  12.385
89623W        W54784  10.862  37.450  12.558
89624W        W54785  16.801  38.356  13.224
89625W        W54786  18.651  12.333   4.132
89626W        W54787  21.603   0.376  13.786
89627W        W54788   2.739  25.011  11.402
89628W        W54789   0.977   0.142   3.699
89629W        W54790  13.436  14.000  10.249
89630W        W54791   2.910   5.821  13.778
89631W        W54792  40.946  21.201  13.473
89632W        W54793  12.378  23.553  10.756
89633W        W54794   9.581   6.254   4.132
89634W        W54795  38.182  24.230  11.697
89635W        W54796  26.238   9.338  13.298
89636W        W54797   7.264  38.152   2.470
89637W        W54798   3.250   2.302  10.394
89638W        W54799   4.785  37.496  12.560
89639W        W54800   5.870  11.308  14.813
89640W        W54801  19.860  36.394   1.817
89641W        W54802  40.547   1.810   2.061
89642W        W54803  38.350  26.491   1.856
89643W        W54804  15.357  24.930  12.453
89644W        W54805  10.098  18.847   4.457
89645W        W54806   0.879   4.021  12.350
89646W        W54807   7.243  19.127   0.862
89647W        W54808  11.770   1.742   3.251
89648W        W54809  37.534   3.903  14.484
89649W        W54810  11.322  37.341   0.221
89650W        W54811  29.825  42.391  10.385
89651W        W54812  37.446  42.316   4.169
89652W        W54813  35.234   0.409  12.540
89653W        W54814   2.444   5.914   0.905
89654W        W54815  13.737   0.324  11.319
89655W        W54816  24.691   7.657   4.842
89656W        W54817  12.652  41.973  10.706
89657W        W54818  44.902  38.438  13.750
89658W        W54819  15.327  31.882   1.062
89659W        W54820  41.142  43.526  11.484
89660W        W54821  35.879  19.526  12.122
89661W        W54822  15.052  23.853  14.984
89662W        W54823  35.305  30.311   1.886
89663W        W54824  15.849  10.262  13.988
89664W        W54825  38.227  33.034  13.539
89665W        W54826  37.948  38.389  11.122
89666W        W54827  10.284  29.248   1.873
89667W        W54828  10.248  43.614  12.682
89668W        W54829   9.795  31.108  11.441
89669W        W54830  17.539  23.131   2.686
89670W        W54831  40.027   5.722  10.414
89671W        W54832   9.821   3.520   0.362
89672W        W54833  21.221  20.366   1.735
89673W        W54834   8.707   2.282  12.553
89674W        W54835  32.621  35.431  11.328
89675W        W54836  17.506  14.165  14.989
89676W        W54837  30.906  44.247   0.287
89677W        W54838  11.777  40.005  11.104
89678W        W54839  32.305   8.014   2.730
89679W        W54840  11.577   4.167   4.644
89680W        W54841  13.542  43.285   3.211
89681W        W54842  18.030  33.234  12.540
89682W        W54843  40.078  29.055  14.463
89683W        W54844  35.860  31.432   1.269
89684W        W54845  40.566  10.763  11.052
89685W        W54846  43.921  18.144   0.030
89686W        W54847  42.842  34.947   2.138
89687W        W54848  44.594   8.888  12.204
89688W        W54849  20.663   1.260   4.131
89689W        W54850  29.997  41.929  13.421
89690W        W54851   5.433  10.885   0.987
89691W        W54852  23.520  24.625   0.358
89692W        W54853  34.420  44.976   3.164
89693W        W54854  11.209  33.437  14.448
89694W        W54855  24.736   2.182  13.798
89695W        W54856  30.630  12.353   0.331
89696W        W54857  19.515  34.917   2.679
89697W        W54858  20.906   4.203  14.910
89698W        W54859  29.857  33.934   3.713
89699W        W54860  21.438  29.500   0.944
89700W        W54861  22.947   4.934   4.876
89701W        W54862  39.658  25.911  11.658
89702W        W54863  18.026  10.169   1.706
89703W        W54864  18.603  33.495   1.464
89704W        W54865  43.312  39.461   2.813
89705W        W54866   8.987  14.518   2.848
89706W        W54867  44.201  15.676   4.086
89707W        W54868  35.029  36.972  10.998
89708W        W54869  40.368  29.566   1.746
89709W        W54870  43.922  38.811  12.505
89710W        W54871  27.918   6.995  12.148
89711W        W54872  33.210  43.864  11.648
89712W        W54873  21.546  33.080   4.705
89713W        W54874  38.869  13.886   2.954
89714W        W54875  35.631  17.645  14.751
89715W        W54876  26.016   7.795  14.294
89716W        W54877   6.895  21.640   2.826
89717W        W54878  39.146   4.351  11.833
89718W        W54879  35.326  10.268   1.230
89719W        W54880  34.245  37.411  10.237
89720W        W54881  35.518   6.229   4.799
89721W        W54882   5.146   1.192   1.292
89722W        W54883  44.825  20.729   0.647
89723W        W54884  13.328  17.130  11.553
89724W        W54885  10.747  30.970  12.677
89725W        W54886  15.679  10.209   4.033
89726W        W54887  41.387  19.794   2.772
89727W        W54888   3.474  14.692   4.125
89728W        W54889  21.766  27.899  11.134
89729W        W54890   4.285  35.666  11.171
89730W        W54891  36.076  39.039   0.290
89731W        W54892   9.767  14.768   3.128
89732W        W54893  32.077  21.621   1.955
89733W        W54894  18.778  21.637  12.613
89734W        W54895  14.676  25.051  10.541
89735W        W54896  20.006   4.764   1.205
89736W        W54897  39.360   3.756   2.739
89737W        W54898  41.965  34.907   2.307
89738W        W54899  18.302   5.805  14.029
89739W        W54900  33.466  35.357   3.811
89740W        W54901  10.368  14.603   2.805
89741W        W54902  19.613  44.728  14.942
89742W        W54903  41.352  14.812   1.174
89743W        W54904  31.648  29.919  13.239
89744W        W54905  23.049  27.856  12.436
89745W        W54906  19.058  38.958   2.910
89746W        W54907  34.035   1.214   4.566
89747W        W54908   9.726  11.263   1.371
89748W        W54909   6.343  14.253  12.837
89749W        W54910   2.745  17.225  14.803
89750W        W54911  28.864  36.869   2.726
89751W        W54912   1.443  24.207  13.911
89752W        W54913  33.684  41.418  11.718
89753W        W54914  18.118  38.008   3.735
89754W        W54915  27.451  39.036   1.361
89755W        W54916  13.713  18.421  10.631
89756W        W54917   0.067   1.224  10.993
89757W        W54918  19.914   7.951   4.780
89758W        W54919   4.211  16.188   1.344
89759W        W54920  10.165  13.416  11.094
89760W        W54921  27.017  12.176  11.599
89761W        W54922  29.408   5.818  12.898
89762W        W54923  39.574  36.156  12.532
89763W        W54924   7.185  39.477  11.904
89764W        W54925   6.125   2.526  12.151
89765W        W54926  12.574  23.974   1.596
89766W        W54927   6.604   8.197   2.162
89767W        W54928  26.622  40.025  12.054
89768W        W54929  20.620   9.622   4.295
89769W        W54930  43.346  24.681  12.649
89770W        W54931  21.089  25.987   2.762
89771W        W54932  13.689   4.449   2.233
89772W        W54933  12.079  21.100   0.458
89773W        W54934  32.354  44.061   2.288
89774W        W54935   3.964   5.199  12.470
89775W        W54936  32.560  39.654   0.913
89776W        W54937  25.783   0.554   4.193
89777W        W54938  41.097  21.001   1.843
89778W        W54939   1.720  15.736   0.853
89779W        W54940   4.672  29.618  13.593
89780W        W54941  34.091  24.153   4.249
89781W        W54942  41.867   7.430  13.052
89782W        W54943  11.861   3.901   4.971
89783W        W54944   4.109  41.194  12.012
89784W        W54945  35.476  34.547   0.723
89785W        W54946  38.757  34.609  12.069
89786W        W54947  34.615  15.263  11.710
89787W        W54948  29.891  34.416  14.267
89788W        W54949   9.667  37.569  11.368
89789W        W54950  10.207  35.996  12.157
89790W        W54951  44.370   2.558   3.396
89791W        W54952  23.466   4.425   1.348
89792W        W54953  16.045   1.032  11.137
89793W        W54954   3.783   4.821   0.420
89794W        W54955   6.311  15.340   2.937
89795W        W54956  10.992  30.012   0.411
89796W        W54957  30.648  10.038   2.605
89797W        W54958  34.808  33.972  12.419
89798W        W54959  38.290  31.608   3.232
89799W        W54960  32.538  27.076   2.722
89800W        W54961   7.840  17.880  12.126
89801W        W54962  38.607   8.200  10.955
89802W        W54963  12.259   0.046   4.039
89803W        W54964   4.289  21.058  11.665
89804W        W54965  37.612  25.463  14.795
89805W        W54966  43.578  27.147   3.773
89806W        W54967  31.391  15.696  14.838
89807W        W54968   1.822  35.984   1.311
89808W        W54969   5.769   6.173   2.158
89809W        W54970   8.700  33.037   1.859
89810W        W54971  33.215  18.634  14.376
89811W        W54972  32.871  25.632   3.767
89812W        W54973   1.659   1.498   1.008
89813W        W54974  22.305  27.076  11.408
89814W        W54975  36.318  15.819  13.409
89815W        W54976   7.994  19.801  14.905
89816W        W54977  41.140   3.041   3.645
89817W        W54978  27.465  15.511  11.559
89818W        W54979  28.768   0.756   4.150
89819W        W54980  33.322  28.894   4.424
89820W        W54981  12.858  44.108   0.412
89821W        W54982  34.414   9.643  14.726
89822W        W54983  17.023   0.426  14.431
89823W        W54984  29.987   6.283   2.134
89824W        W54985  18.125  24.169  12.582
89825W        W54986  32.090  35.430  13.487
89826W        W54987  41.789  14.793   3.646
89827W        W54988  13.261   5.938  14.243
89828W        W54989   4.897  40.505   3.792
89829W        W54990  33.823  16.859  13.010
89830W        W54991   1.224  30.952  12.944
89831W        W54992  30.496  21.167   1.885
89832W        W54993   0.623  18.788   0.874
89833W        W54994  12.146  21.587  10.663
89834W        W54995  26.135   8.874  12.572
89835W        W54996  12.408  20.165  12.973
89836W        W54997  28.484  28.967  12.078
89837W        W54998   2.222  26.699   2.396
89838W        W54999  41.899  19.032  13.512
89839W        W55000  40.420   5.166  12.653
89840W        W55001   7.414  39.544   2.825
89841W        W55002   3.902   4.631   3.626
89842W        W55003  11.737  12.387  11.095
89843W        W55004  25.085  29.515  14.509
89844W        W55005  26.593  43.749  10.728
89845W        W55006   3.903  40.171  12.937
89846W        W55007  34.378   8.157  14.748
89847W        W55008  32.823  31.903   2.982
89848W        W55009  38.007   7.729  14.797
89849W        W55010  28.966  24.500   4.054
89850W        W55011  12.589   4.977  12.317
89851W        W55012   7.722  20.432   2.891
89852W        W55013  35.918  30.917  14.476
89853W        W55014   1.639  10.358   2.641
89854W        W55015  33.494  24.626   0.205
89855W        W55016  31.227   1.404   0.459
89856W        W55017  41.051  37.596  12.068
89857W        W55018  11.835  20.455  13.335
89858W        W55019  10.059  39.149   2.881
89859W        W55020  29.144  41.499  10.777
89860W        W55021  36.108  27.111  12.689
89861W        W55022  23.358  44.131  14.489
89862W        W55023   2.808  11.969   3.616
89863W        W55024   7.014  33.002   4.083
89864W        W55025  15.181  30.533  12.096
89865W        W55026  14.460   2.983  10.981
89866W        W55027   7.880   0.106  14.899
89867W        W55028  31.532  40.027   2.211
89868W        W55029  21.827  34.600   3.703
89869W        W55030  27.948   2.258  11.609
89870W        W55031  38.054  21.606   0.372
89871W        W55032  14.301   8.166   3.150
89872W        W55033  37.101   7.408   0.905
89873W        W55034   6.751  20.487   1.890
89874W        W55035  16.552  11.104   3.350
89875W        W55036  19.638  22.299   3.653
89876W        W55037   2.015  13.002   1.277
89877W        W55038   9.226  17.020   3.616
89878W        W55039  19.186  19.357   2.670
89879W        W55040  23.204  33.599  12.383
89880W        W55041   7.582  24.032   3.538
89881W        W55042   2.300  23.985  13.539
89882W        W55043  41.660  38.075   4.048
89883W        W55044   6.806   7.169  14.315
89884W        W55045  31.378  25.217  12.665
89885W        W55046   3.195  40.293   2.947
89886W        W55047  40.457   6.277   1.283
89887W        W55048  22.376   8.018   2.135
89888W        W55049  11.584   9.344  12.186
89889W        W55050  17.735  38.471   3.008
89890W        W55051  19.079  18.424  11.683
89891W        W55052  27.960  30.406   4.979
89892W        W55053  26.213  32.036   0.191
89893W        W55054   1.501  33.115  12.868
89894W        W55055  14.443   1.800   2.633
89895W        W55056  39.109  40.669  14.035
89896W        W55057   7.019  25.816  13.374
89897W        W55058   3.271   4.020  14.268
89898W        W55059  29.566  37.564   2.733
89899W        W55060   5.967  28.720  12.917
89900W        W55061  22.646  25.221   2.640
89901W        W55062   9.809  42.413   4.511
89902W        W55063  12.795   6.828  13.396
89903W        W55064  42.355   7.989   2.763
89904W        W55065   4.423  11.639   2.714
89905W        W55066  13.814  14.693  12.225
89906W        W55067  31.155  43.168  14.448
89907W        W55068  40.465  44.536   0.918
89908W        W55069  17.707  43.041  10.402
89909W        W55070   5.648  10.940  14.485
89910W        W55071  15.251  44.806  13.683
89911W        W55072   2.663  30.543  12.909
89912W        W55073  44.401  27.543  10.083
89913W        W55074  31.265  28.838  12.641
89914W        W55075  12.425  30.353  11.182
89915W        W55076  30.497  23.886  11.975
89916W        W55077  36.562  42.731  14.875
89917W        W55078  26.154  20.178   0.928
89918W        W55079  41.209  40.664   3.216
89919W        W55080  39.718  40.402   0.485
89920W        W55081  20.692  33.675   0.315
89921W        W55082  42.173  39.572  12.591
89922W        W55083  29.842  19.442  13.109
89923W        W55084  14.122   1.413  11.038
89924W        W55085  16.044   2.800   2.819
89925W        W55086   8.395  25.602   2.227
89926W        W55087  34.498  32.865   3.588
89927W        W55088  29.107  39.283   2.219
89928W        W55089  23.312  35.471  11.922
89929W        W55090  32.095  42.432   2.807
89930W        W55091  35.973  23.664  10.699
89931W        W55092  20.757  23.771   0.213
89932W        W55093  17.303  42.348   4.893
89933W        W55094   2.152  37.325   4.571
89934W        W55095  26.331  38.498   2.298
89935W        W55096  37.952  14.124  10.706
89936W        W55097  39.017  34.604  13.625
89937W        W55098   9.337  44.309   2.760
89938W        W55099  43.554  42.021   1.507
89939W        W55100   3.705  31.895  10.719
89940W        W55101  19.724  33.132   3.285
89941W        W55102  40.336   3.214  13.389
89942W        W55103  43.093   0.410   1.886
89943W        W55104   3.325  16.558   2.266
89944W        W55105   8.164  22.270   0.777
89945W        W55106  38.853  40.332   3.546
89946W        W55107  18.878  13.081   2.411
89947W        W55108   4.220  38.875   3.254
89948W        W55109  33.550  24.009   9.914
89949W        W55110  12.874   7.697   1.238
89950W        W55111   9.748  36.887   0.463
89951W        W55112  30.385  20.171  10.566
89952W        W55113  29.947   7.502  12.070
89953W        W55114  30.664  25.011  10.757
89954W        W55115  23.149   7.456  10.435
89955W        W55116  41.239   9.669   3.283
89956W        W55117  19.076  24.130  14.115
89957W        W55118  28.582  18.951  14.591
89958W        W55119  36.426  32.690  14.512
89959W        W55120  40.651  33.198   0.590
89960W        W55121  26.708  15.519  12.373
89961W        W55122  39.430  40.361   4.245
89962W        W55123   7.272  12.320   1.273
89963W        W55124  12.746  36.610   4.469
89964W        W55125   9.911  24.682  12.835
89965W        W55126  36.022  23.184   3.600
89966W        W55127  28.951  25.038   4.353
89967W        W55128  37.808  36.143   0.976
89968W        W55129  12.692  28.430   0.393
89969W        W55130  41.848  31.663  13.469
89970W        W55131  44.512   3.790   1.226
89971W        W55132  14.074   8.368   4.618
89972W        W55133   6.076  14.374   2.831
89973W        W55134  22.903   7.560  12.040
89974W        W55135   5.673  44.782   1.771
89975W        W55136   1.314  42.332   2.191
89976W        W55137  18.713  24.394   1.494
89977W        W55138  20.882  38.452   1.463
89978W        W55139  41.492  37.489  11.802
89979W        W55140  19.609  29.647   1.452
89980W        W55141  28.386  25.002   4.550
89981W        W55142   2.883  35.668  12.566
89982W        W55143  18.800  36.307  12.532
89983W        W55144  37.802  27.891  12.028
89984W        W55145   8.386  20.526   1.225
89985W        W55146  12.573   7.187   2.761
89986W        W55147  13.924  24.581  11.917
89987W        W55148  40.871  16.290  14.172
89988W        W55149   0.375  29.637   3.031
89989W        W55150  37.419  19.240  12.012
89990W        W55151  32.633  41.774  13.469
89991W        W55152  24.067  14.104  11.604
89992W        W55153  24.678  36.944   3.677
89993W        W55154  22.554  10.824  12.674
89994W        W55155  36.990  19.104  12.843
89995W        W55156  35.452  16.214   3.265
89996W        W55157  18.006  22.548  11.107
89997W        W55158  27.736  12.133  14.935
89998W        W55159   2.149  24.068   2.832
89999W        W55160   2.300  22.642   2.795
90000W        W55161   1.477  18.290   2.158
90001W        W55162  10.654  17.247   3.912
90002W        W55163  43.386   6.763  12.495
90003W        W55164  24.459   1.925   0.516
90004W        W55165  28.453  20.289  10.717
90005W        W55166  11.684   8.268   2.294
90006W        W55167  20.448   2.308  11.535
90007W        W55168  43.466   0.179   2.294
90008W        W55169  44.793  32.184   0.917
90009W        W55170  32.379  36.360   4.768
90010W        W55171  38.917  38.296  11.204
90011W        W55172   3.852  12.627  14.956
90012W        W55173   4.694  14.057   2.179
90013W        W55174  41.985  29.597   0.759
90014W        W55175  31.057  10.640  12.979
90015W        W55176  23.885  17.152  10.771
90016W        W55177  12.633  23.975  11.962
90017W        W55178  31.821  30.501  12.015
90018W        W55179  11.929  41.054   1.840
90019W        W55180  27.949   1.904  14.235
90020W        W55181  29.316  43.771  11.940
90021W        W55182  11.125  28.207  12.656
90022W        W55183  15.716  24.938   3.375
90023W        W55184   8.856  44.325  10.697
90024W        W55185  28.451   9.705  12.389
90025W        W55186  44.071  41.389   3.586
90026W        W55187  43.758  32.374   0.861
90027W        W55188   1.855   5.869  14.092
90028W        W55189  18.666  26.497  11.200
90029W        W55190   3.767  30.071   1.304
90030W        W55191  16.205   4.429  14.249
90031W        W55192  16.102  24.445   4.718
90032W        W55193  44.959   5.178   1.609
90033W        W55194  25.975  36.830   1.701
90034W        W55195  32.118  20.237  14.783
90035W        W55196  44.600   9.639  12.712
90036W        W55197  17.624  15.628   1.420
90037W        W55198   5.773   9.976   3.928
90038W        W55199  35.567  14.696   4.153
90039W        W55200  25.443   1.694  14.846
90040W        W55201   4.442  32.981  14.553
90041W        W55202  30.036   1.881  13.375
90042W        W55203  43.591  24.687   2.617
90043W        W55204   2.534  30.197  10.059
90044W        W55205  20.290  24.010   0.241
90045W        W55206   3.943  10.484   0.601
90046W        W55207  28.651  33.934  12.173
90047W        W55208  17.719   0.882  12.108
90048W        W55209  23.638   8.111   2.821
90049W        W55210  43.589  27.710  12.669
90050W        W55211  21.201   9.415  14.245
90051W        W55212  25.245   6.857  13.420
90052W        W55213  30.132   5.818   2.931
90053W        W55214   0.628   2.139  14.456
90054W        W55215  10.760  30.550   3.560
90055W        W55216  40.125  33.558   3.837
90056W        W55217  36.095  40.583   3.225
90057W        W55218  21.715  43.568  11.129
90058W        W55219  21.574  41.483  12.592
90059W        W55220  38.015  40.128  13.466
90060W        W55221  21.575  17.212   5.429
90061W        W55222  10.671   8.931  11.134
90062W        W55223  20.860  27.481  13.469
90063W        W55224   7.425   7.935   2.259
90064W        W55225  42.968  15.623  14.858
90065W        W55226  41.580  19.524   3.167
90066W        W55227  31.366  41.373  12.951
90067W        W55228  23.149  43.281  12.151
90068W        W55229  21.795  12.211   1.230
90069W        W55230  10.839   3.294   2.762
90070W        W55231  39.982  24.667   1.194
90071W        W55232  13.663  11.906  12.559
90072W        W55233  21.218  23.652   0.463
90073W        W55234  22.731  39.277  14.836
90074W        W55235  28.254   4.941  12.528
90075W        W55236  31.826  41.184  14.414
90076W        W55237  41.368  27.333  13.536
90077W        W55238  18.549  38.416   4.196
90078W        W55239  28.650  26.631   3.404
90079W        W55240  17.098  31.046  10.894
90080W        W55241  37.018  35.192  12.578
90081W        W55242  33.777   5.449   1.861
90082W        W55243  39.480  29.156  11.142
90083W        W55244  38.425  31.617  12.893
90084W        W55245  44.958  27.196   4.137
90085W        W55246   1.597  35.319   3.637
90086W        W55247  13.741   7.886   2.001
90087W        W55248  27.197  42.983   3.496
90088W        W55249  36.369  26.286   2.721
90089W        W55250  11.805  22.168  12.269
90090W        W55251  31.598  21.918   4.420
90091W        W55252  40.531   9.961   4.626
90092W        W55253   4.266   0.724   0.366
90093W        W55254  41.285  16.301  13.866
90094W        W55255  31.111   1.852   1.711
90095W        W55256  33.466  17.288  12.902
90096W        W55257  23.029  22.046   3.198
90097W        W55258  31.922   7.613   1.304
90098W        W55259  37.320  33.343   4.907
90099W        W55260  33.372  18.409   5.232
90100W        W55261  12.180  19.370  11.146
90101W        W55262  36.130  15.981  12.594
90102W        W55263  15.243  44.264  13.933
90103W        W55264  27.022  10.876   1.431
90104W        W55265  29.984   2.650   0.394
90105W        W55266  40.464  34.540  14.471
90106W        W55267  23.134  38.711   1.479
90107W        W55268   6.809  33.798   3.589
90108W        W55269  14.859  38.569   1.337
90109W        W55270  38.370   1.748   0.760
90110W        W55271  14.683  33.048  13.035
90111W        W55272   2.951  33.275  12.015
90112W        W55273  19.247   2.614  13.978
90113W        W55274  38.452   7.762  10.751
90114W        W55275   4.252  14.053  12.476
90115W        W55276  13.996  22.064   2.738
90116W        W55277  13.986  40.866   2.735
90117W        W55278  14.538   9.869  11.648
90118W        W55279  38.824  33.621   1.147
90119W        W55280  12.738  36.163   0.392
90120W        W55281  29.509   3.137  14.781
90121W        W55282  36.619   8.676   1.327
90122W        W55283  13.553  36.003  12.150
90123W        W55284  35.580   4.859   4.415
90124W        W55285  44.481   6.429   2.756
90125W        W55286   8.462  42.631   4.841
90126W        W55287  11.175  13.626  14.919
90127W        W55288  19.272  43.922   4.935
90128W        W55289  27.676  33.920  12.150
90129W        W55290  31.814  10.230   4.267
90130W        W55291  31.475   5.583   3.609
90131W        W55292  41.096  34.603  10.979
90132W        W55293  20.145  19.110   2.295
90133W        W55294  14.203  12.997  11.526
90134W        W55295  20.313   7.367  10.691
90135W        W55296   8.589  28.138   1.801
90136W        W55297  21.046   1.206  10.483
90137W        W55298  36.494  39.626  12.165
90138W        W55299  12.171  15.234   4.070
90139W        W55300  17.775  38.399  12.908
90140W        W55301  34.893  16.159   1.020
90141W        W55302  10.432   1.455   4.588
90142W        W55303  20.569  17.886  14.349
90143W        W55304  19.317  24.377   0.341
90144W        W55305  25.165   2.258  14.410
90145W        W55306  10.510  15.061  11.123
90146W        W55307   9.140  20.297   0.705
90147W        W55308  14.297   9.756   3.151
90148W        W55309  37.562  20.710  12.527
90149W        W55310  19.616  44.404   4.112
90150W        W55311  40.509   9.062  11.085
90151W        W55312  21.233  28.142   1.675
90152W        W55313  41.701  32.369  13.894
90153W        W55314  24.090  44.056   0.766
90154W        W55315  17.290  19.700  13.886
90155W        W55316   4.603  14.150  12.871
90156W        W55317  39.520   6.283  12.514
90157W        W55318  19.125  44.543  13.924
90158W        W55319  33.763  34.387   1.187
90159W        W55320  37.429   0.706  12.653
90160W        W55321  43.232   5.972  10.996
90161W        W55322  24.449   2.494  13.491
90162W        W55323  32.884  27.918  10.804
90163W        W55324  38.370  24.756   2.101
90164W        W55325   8.691   1.355   0.666
90165W        W55326  31.118  13.215  11.737
90166W        W55327  39.013  14.594   3.345
90167W        W55328  22.771  42.332   4.362
90168W        W55329   6.022  40.246  13.440
90169W        W55330  36.611  27.247  11.665
90170W        W55331   1.267  44.349  11.933
90171W        W55332  18.661  20.998   2.404
90172W        W55333  12.519   5.959   3.257
90173W        W55334  13.643  33.053  12.091
90174W        W55335  15.043  25.170   0.505
90175W        W55336  26.151  31.214   3.225
90176W        W55337  38.882  27.921  12.852
90177W        W55338  24.580  13.085   3.692
90178W        W55339  27.481   8.771   3.562
90179W        W55340  17.687  25.284  14.360
90180W        W55341  28.047  39.295   1.217
90181W        W55342  40.549   4.609   0.791
90182W        W55343  40.752  22.713   0.920
90183W        W55344  40.988  19.187  10.651
90184W        W55345  14.207  20.848  14.678
90185W        W55346   2.187  43.403  10.677
90186W        W55347  42.005  11.388   5.126
90187W        W55348  13.209   9.908  13.841
90188W        W55349  21.747  15.264  14.907
90189W        W55350  25.033  37.235   4.650
90190W        W55351  13.027   0.728  12.467
90191W        W55352   5.242  11.390   0.949
90192W        W55353  20.051  10.244   1.360
90193W        W55354  12.124  29.579  12.910
90194W        W55355  15.419  15.650   0.998
90195W        W55356  40.739   1.290   4.273
90196W        W55357  15.189   5.439   1.738
90197W        W55358  40.376  18.151   1.760
90198W        W55359  31.489  17.067  13.941
90199W        W55360  31.176  13.295   1.441
90200W        W55361  17.807  35.535  14.705
90201W        W55362  31.943  42.019   0.416
90202W        W55363  24.716   2.306  11.581
90203W        W55364  14.679  36.413  12.452
90204W        W55365   9.391  41.217  12.009
90205W        W55366  18.782  23.728   1.928
90206W        W55367  41.346  30.659   1.293
90207W        W55368  35.713  28.252   4.153
90208W        W55369  18.980  17.131  11.125
90209W        W55370  17.572   8.825   3.714
90210W        W55371  33.079  34.201  12.847
90211W        W55372  26.598   2.175   3.681
90212W        W55373  40.082  35.021   2.202
90213W        W55374  22.741  15.400   1.373
90214W        W55375   7.760   4.744   4.643
90215W        W55376  15.760  20.192   4.455
90216W        W55377  41.672  22.482  11.965
90217W        W55378  24.086  25.985   3.311
90218W        W55379  23.682  22.002  14.914
90219W        W55380  41.746  13.600   0.406
90220W        W55381   8.503  17.542  13.954
90221W        W55382  30.172  38.817  10.540
90222W        W55383  34.476  27.126   2.949
90223W        W55384  25.336  36.826   4.560
90224W        W55385  16.221  30.202   4.663
90225W        W55386  32.597  27.107  12.615
90226W        W55387  16.638  33.109  10.630
90227W        W55388  39.982  25.489  11.226
90228W        W55389  42.426  28.979   4.497
90229W        W55390  22.286  38.029   2.848
90230W        W55391  37.153  16.757  10.753
90231W        W55392   9.053  24.838  13.611
90232W        W55393   2.217  42.336   1.145
90233W        W55394   9.872  18.382   0.750
90234W        W55395  26.303  37.266  12.610
90235W        W55396  27.946  13.712   1.922
90236W        W55397  21.609  40.686  13.959
90237W        W55398  30.721  12.260  14.429
90238W        W55399  32.965   1.996  13.440
90239W        W55400   6.433  36.633   1.334
90240W        W55401  31.565   4.304   4.665
90241W        W55402  43.292  16.173  14.030
90242W        W55403  35.624   7.360   3.797
90243W        W55404  34.012  11.624   3.829
90244W        W55405  37.720   4.271  12.925
90245W        W55406   1.679   3.825  12.018
90246W        W55407   0.346  15.830   0.877
90247W        W55408   2.752   9.959  11.446
90248W        W55409  13.854  16.499   4.168
90249W        W55410  19.908  38.349   1.162
90250W        W55411   6.676  32.419   1.852
90251W        W55412   6.935  19.562   0.959
90252W        W55413  35.954  21.670  14.341
90253W        W55414  42.570   7.572  13.873
90254W        W55415  28.109  39.490  12.053
90255W        W55416  25.527   3.892   0.719
90256W        W55417  35.971  33.840  13.580
90257W        W55418  21.325  14.277  11.123
90258W        W55419  35.639  23.205   4.378
90259W        W55420  18.199  25.045  14.225
90260W        W55421  40.932  28.493   1.698
90261W        W55422  20.304  25.410  13.624
90262W        W55423   8.173  39.879   2.703
90263W        W55424  15.139  23.358  11.104
90264W        W55425  19.494  30.081  12.005
90265W        W55426  18.017  32.124   2.688
90266W        W55427   9.765  18.454   3.611
90267W        W55428  34.736  27.829   5.010
90268W        W55429  16.484   2.857  12.556
90269W        W55430  34.050  25.161   3.841
90270W        W55431   4.666  35.911  12.416
90271W        W55432  20.061   4.846   0.221
90272W        W55433  18.039  18.046  14.755
90273W        W55434   9.389  15.542   1.667
90274W        W55435   3.855  40.656   0.782
90275W        W55436  44.447  10.169   0.851
90276W        W55437  42.869  25.100   2.370
90277W        W55438   0.490   7.374   2.259
90278W        W55439   1.599  12.335  13.261
90279W        W55440  11.571  14.586   4.173
90280W        W55441  17.277   3.674   2.773
90281W        W55442  17.214  30.851   0.455
90282W        W55443   9.692  23.566   3.344
90283W        W55444  39.187  43.682   0.972
90284W        W55445   4.484  22.811   3.081
90285W        W55446  39.274  43.307   3.078
90286W        W55447  22.451   3.371  13.798
90287W        W55448   1.393  44.446  13.756
90288W        W55449  25.127  26.895  11.067
90289W        W55450   8.620  14.064   0.729
90290W        W55451  32.015  36.553   1.284
90291W        W55452  37.906  32.105  11.338
90292W        W55453  38.683  38.771  14.335
90293W        W55454   8.894   7.227   2.012
90294W        W55455  16.569  14.597  10.620
90295W        W55456  19.040   0.726  14.362
90296W        W55457  34.372   0.327  12.981
90297W        W55458  35.917  20.841   3.329
90298W        W55459  32.997  18.069   5.035
90299W        W55460  26.872  23.718  10.237
90300W        W55461  37.085  35.380  14.937
90301W        W55462   8.171  13.861  12.855
90302W        W55463  22.467  37.977   0.755
90303W        W55464  25.153  26.312  14.011
90304W        W55465  18.229  22.614  13.897
90305W        W55466   3.304  10.245  14.012
90306W        W55467  10.081   3.355  10.077
90307W        W55468  28.920  11.192  14.087
90308W        W55469  42.849   1.043  13.987
90309W        W55470  30.979  43.093   1.244
90310W        W55471   0.175   7.976   2.149
90311W        W55472  38.474   1.210  14.531
90312W        W55473  32.850  11.801   3.328
90313W        W55474  41.574  15.709   4.122
90314W        W55475  26.998  17.595  12.960
90315W        W55476  12.676  32.504   2.854
90316W        W55477  39.439  37.770  12.996
90317W        W55478   4.265  15.798   4.270
90318W        W55479   0.813   2.423   0.305
90319W        W55480  10.707  11.293  10.820
90320W        W55481  42.368  27.232  14.387
90321W        W55482  28.462  13.722  14.793
90322W        W55483  43.839  44.990  13.501
90323W        W55484  28.134  27.508  10.697
90324W        W55485  24.527  25.028  13.954
90325W        W55486   2.212  42.029  12.854
90326W        W55487  26.230  20.331   0.214
90327W        W55488  40.605  21.234  11.563
90328W        W55489  40.279   2.495  11.724
90329W        W55490  41.559  31.051   2.168
90330W        W55491  38.275  26.911  13.291
90331W        W55492   9.201  27.666  10.724
90332W        W55493  31.685   0.830   4.694
90333W        W55494  22.851  24.423  11.536
90334W        W55495   9.259   6.517  13.296
90335W        W55496  26.293  32.014   1.257
90336W        W55497  20.167   2.731  11.906
90337W        W55498  37.497  14.244   3.043
90338W        W55499   0.610  20.654  12.978
90339W        W55500  44.208  30.423   2.236
90340W        W55501  36.816  42.603  12.378
90341W        W55502  33.344  32.112   3.955
90342W        W55503  10.044  33.663   4.815
90343W        W55504  11.839  34.617   1.502
90344W        W55505  33.711  43.877  10.570
90345W        W55506  42.776  13.694   1.768
90346W        W55507   0.403   1.411   2.363
90347W        W55508  12.890  27.400  12.551
90348W        W55509  21.454  29.886  12.916
90349W        W55510  44.418  18.147   1.281
90350W        W55511  26.297  19.815  12.127
90351W        W55512  38.483  35.841   3.747
90352W        W55513  25.644  28.717   1.222
90353W        W55514  43.239  32.571   3.198
90354W        W55515  36.645  14.494  12.590
90355W        W55516  17.343  29.304   1.369
90356W        W55517  18.686  29.527   2.764
90357W        W55518  38.035  11.073   2.193
90358W        W55519  20.690  39.687   2.260
90359W        W55520  42.892   9.202  14.072
90360W        W55521  35.132  43.701  10.125
90361W        W55522  41.417  28.039   1.205
90362W        W55523  11.497  25.500   3.299
90363W        W55524  18.652  42.068   0.256
90364W        W55525  39.231  41.078  10.616
90365W        W55526  19.345   4.247   1.771
90366W        W55527  37.558  17.250   1.850
90367W        W55528   1.900   7.563   2.249
90368W        W55529  28.312  42.202  11.253
90369W        W55530  35.620   2.470   0.754
90370W        W55531   2.404  16.732   4.945
90371W        W55532  38.100  42.700   4.154
90372W        W55533  37.732   6.000   3.116
90373W        W55534  27.529  31.892   3.786
90374W        W55535  12.328  44.887   2.160
90375W        W55536  13.559  31.426  14.519
90376W        W55537  43.481   0.743   1.020
90377W        W55538   2.012  27.926  12.614
90378W        W55539  27.482   7.672  12.889
90379W        W55540  30.227   2.448   3.628
90380W        W55541  40.398  37.758  11.975
90381W        W55542  17.367  10.557  14.346
90382W        W55543  27.994   6.922  11.642
90383W        W55544  23.067  13.138  11.136
90384W        W55545  36.799  36.020  14.150
90385W        W55546   4.432   1.551   1.914
90386W        W55547  30.481  35.328  12.838
90387W        W55548  12.269  37.576  14.738
90388W        W55549  40.315  18.294  11.147
90389W        W55550   4.296  43.860   1.218
90390W        W55551  27.290  23.230  14.300
90391W        W55552  34.034  13.516  13.029
90392W        W55553  26.855  30.657   4.193
90393W        W55554  39.328  26.971   2.937
90394W        W55555  38.027  37.186   1.254
90395W        W55556  39.551  43.509   3.638
90396W        W55557  37.062   1.519  14.856
90397W        W55558   6.856  14.117   4.082
90398W        W55559  22.136  44.249   1.234
90399W        W55560  12.925  14.293  13.035
90400W        W55561  41.871   5.307   2.849
90401W        W55562  21.480  37.114   2.086
90402W        W55563  13.179   0.767   0.838
90403W        W55564  18.541  28.587  12.486
90404W        W55565  22.209   7.240   2.498
90405W        W55566  32.962  20.980   3.549
90406W        W55567  13.125  20.766   2.768
90407W        W55568  13.289  19.652  10.023
90408W        W55569  23.075   7.436   2.220
90409W        W55570  34.545   5.270   1.414
90410W        W55571  28.973  40.978  14.513
90411W        W55572  36.052  41.208  11.624
90412W        W55573  44.501  31.985  11.178
90413W        W55574  32.448  38.533   1.727
90414W        W55575  33.101  21.992   1.749
90415W        W55576   9.849  27.466   4.204
90416W        W55577  15.165  40.592  14.433
90417W        W55578  26.716  32.565   2.995
90418W        W55579   0.934  15.895   2.624
90419W        W55580  22.347  41.483  14.416
90420W        W55581  35.269  10.797   0.027
90421W        W55582  40.699  33.398  11.180
90422W        W55583  24.429  35.025   0.516
90423W        W55584  42.372  17.187   2.457
90424W        W55585  13.499  44.011  12.492
90425W        W55586  38.698   5.266   1.294
90426W        W55587   5.976  20.495   0.344
90427W        W55588   5.473  39.316  10.779
90428W        W55589  15.767   4.726  14.318
90429W        W55590  40.278  37.624   3.699
90430W        W55591  33.903  18.611  11.963
90431W        W55592  25.089  29.088   1.269
90432W        W55593  21.525   1.292   0.789
90433W        W55594   5.987  20.473   1.921
90434W        W55595   8.629  35.483  13.341
90435W        W55596   7.509  34.503  13.113
90436W        W55597  19.787  40.001   1.214
90437W        W55598  12.334  35.988   3.711
90438W        W55599  32.147  11.759  14.831
90439W        W55600  29.860   4.287   0.282
90440W        W55601   2.504  23.174  11.901
90441W        W55602  40.385  31.341   4.177
90442W        W55603  35.523  38.229   0.961
90443W        W55604  36.087  12.774   4.876
90444W        W55605  28.519  15.882  11.082
90445W        W55606  26.188  29.057  14.385
90446W        W55607   9.765  24.114  12.471
90447W        W55608  24.220  35.992  10.172
90448W        W55609  20.066   1.557   4.375
90449W        W55610  27.629  32.065  11.866
90450W        W55611  19.873  16.175  11.630
90451W        W55612  21.957  19.841  14.881
90452W        W55613   9.209  25.379   4.595
90453W        W55614  24.119  28.956   3.400
90454W        W55615  23.992   2.594  12.118
90455W        W55616  13.185  15.493   3.642
90456W        W55617  25.385  21.060   0.688
90457W        W55618  21.498  42.366   2.330
90458W        W55619  38.879  27.223  10.632
90459W        W55620  22.652  37.099  13.000
90460W        W55621  14.425   6.333   2.748
90461W        W55622  30.354   5.179   1.294
90462W        W55623  37.859  15.870  11.525
90463W        W55624  18.870   2.768  13.167
90464W        W55625  19.722   2.669   0.844
90465W        W55626   5.411   3.790   4.433
90466W        W55627  44.624  16.789   1.491
90467W        W55628   3.820  39.267  10.982
90468W        W55629  17.776   3.534  14.512
90469W        W55630  40.342  16.266  10.889
90470W        W55631  44.867  36.813  14.883
90471W        W55632   4.088  44.223   2.130
90472W        W55633  43.923   1.083   3.282
90473W        W55634  42.895  25.854   2.392
90474W        W55635  23.780  12.752   3.704
90475W        W55636  33.514  11.183  10.847
90476W        W55637  38.672   6.448   2.929
90477W        W55638  28.502  26.160  11.574
90478W        W55639   0.050  27.524  13.654
90479W        W55640   6.918  42.905   4.769
90480W        W55641  22.045  39.936  13.880
90481W        W55642  35.967  23.799   1.192
90482W        W55643  30.898   4.849   0.340
90483W        W55644  22.498  37.335   4.303
90484W        W55645  10.851  37.943   0.821
90485W        W55646  10.839   8.459  11.347
90486W        W55647  18.594   5.771   1.777
90487W        W55648  29.147  15.282   4.428
90488W        W55649  39.649  17.066  12.171
90489W        W55650  43.548  29.199  14.781
90490W        W55651  36.681  30.498   2.000
90491W        W55652  12.226  36.956   1.206
90492W        W55653   0.933  27.175   2.241
90493W        W55654  35.320  33.643  13.531
90494W        W55655  41.720  41.307   0.066
90495W        W55656  18.633  31.085  12.018
90496W        W55657  27.951  27.532  10.025
90497W        W55658  36.450  15.314   2.419
90498W        W55659  28.053  22.185  10.522
90499W        W55660  20.472   6.238   2.007
90500W        W55661  20.348  29.644  14.937
90501W        W55662  19.212  21.368   5.599
90502W        W55663  40.046  20.365  14.980
90503W        W55664  12.674  43.557  11.494
90504W        W55665  22.556  10.825   3.392
90505W        W55666  39.913  39.743  14.300
90506W        W55667  31.945  23.726   0.868
90507W        W55668   0.800  36.937  14.494
90508W        W55669   8.987   7.760   4.607
90509W        W55670  37.988  38.157  12.489
90510W        W55671  22.996   0.058   4.202
90511W        W55672   9.431   6.813   2.784
90512W        W55673  21.295   6.882   0.680
90513W        W55674  30.409  17.841  12.667
90514W        W55675  13.644  20.024   1.759
90515W        W55676   6.264  38.730  11.013
90516W        W55677  10.464  35.659  12.444
90517W        W55678  26.179  10.735   0.471
90518W        W55679  33.041   4.323   4.346
90519W        W55680  12.249   5.165   4.155
90520W        W55681  36.642  15.108   1.935
90521W        W55682  44.722   4.707  12.064
90522W        W55683  13.931  23.578  13.295
90523W        W55684  41.338  35.479  13.944
90524W        W55685  44.097  21.427   0.468
90525W        W55686  41.992  17.303  11.589
90526W        W55687  31.301   9.642   1.914
90527W        W55688  44.726  21.716   1.375
90528W        W55689  36.306   6.387  10.777
90529W        W55690  40.599  19.542   0.347
90530W        W55691  19.211  14.810   3.550
90531W        W55692  22.445  27.690   4.662
90532W        W55693   9.152   8.946  14.992
90533W        W55694  42.819  41.045   1.256
90534W        W55695  23.615   9.916  10.945
90535W        W55696   2.328  38.920   4.295
90536W        W55697  13.138  38.298   4.388
90537W        W55698  11.321  30.264   0.741
90538W        W55699  10.266  41.925   3.633
90539W        W55700   4.447  11.528  10.295
90540W        W55701  33.978   6.229   0.071
90541W        W55702  27.027  23.622   4.045
90542W        W55703  37.390  34.861  13.370
90543W        W55704  41.602  21.678  11.534
90544W        W55705   6.659  39.508  11.876
90545W        W55706  27.732  37.417   0.293
90546W        W55707  22.527  29.453   0.394
90547W        W55708  42.799  24.703   4.692
90548W        W55709  16.640   3.895   2.379
90549W        W55710  35.642  24.439  11.050
90550W        W55711  15.003   5.021  10.006
90551W        W55712  44.572  21.482   0.168
90552W        W55713  44.331  26.164  14.810
90553W        W55714  32.644  37.545  11.947
90554W        W55715  16.093  32.430  14.258
90555W        W55716   0.250  11.455   0.664
90556W        W55717  39.668  28.558  14.752
90557W        W55718  29.952  41.509   4.102
90558W        W55719  11.668   0.454  10.250
90559W        W55720  44.489   4.882   0.458
90560W        W55721  10.943   4.397   4.273
90561W        W55722  37.044  12.720  10.663
90562W        W55723  29.746  36.331  13.169
90563W        W55724  39.932  40.837  13.439
90564W        W55725  15.516  14.151  12.119
90565W        W55726  28.969  29.152  13.011
90566W        W55727  15.727  18.707   0.131
90567W        W55728   0.348  24.534   1.355
90568W        W55729   3.008  14.276  13.956
90569W        W55730  35.874  26.688  12.499
90570W        W55731  23.943  36.838   2.996
90571W        W55732   0.899  30.419   1.631
90572W        W55733  21.478  27.426  12.864
90573W        W55734  36.052   8.448   4.009
90574W        W55735  11.248   9.697  10.561
90575W        W55736  10.207  22.824  10.749
90576W        W55737  28.448  19.232  11.991
90577W        W55738  33.217  11.227   0.465
90578W        W55739  15.317   9.680   2.723
90579W        W55740  26.492  20.612  10.330
90580W        W55741  37.825  40.419   0.541
90581W        W55742  43.022  32.334   0.219
90582W        W55743   4.391  13.291  11.998
90583W        W55744  18.644  26.190  10.784
90584W        W55745  29.935  43.794   3.800
90585W        W55746   5.813  17.503  14.374
90586W        W55747   9.850  32.058  13.421
90587W        W55748  10.703  12.332  14.557
90588W        W55749  27.903  26.168   3.247
90589W        W55750  24.843   1.724   0.248
90590W        W55751  38.824  20.459  11.489
90591W        W55752  40.392  22.709   3.647
90592W        W55753  38.485  22.081   3.099
90593W        W55754   2.744  43.579  13.203
90594W        W55755   3.879  10.535   3.111
90595W        W55756  27.968  40.114   0.858
90596W        W55757  44.024   9.353  14.994
90597W        W55758  12.109  19.242   1.879
90598W        W55759  15.174  27.907   1.325
90599W        W55760  37.029   3.061  13.560
90600W        W55761  37.029  27.443  13.006
90601W        W55762  25.678   2.625   3.653
90602W        W55763  31.706  13.167   1.475
90603W        W55764  44.853  29.913  13.700
90604W        W55765   4.628  23.747   1.367
90605W        W55766  44.292  11.065  13.692
90606W        W55767  44.015  15.680  14.735
90607W        W55768  35.050  37.373  14.782
90608W        W55769  39.256  21.497  13.866
90609W        W55770   1.378   2.753  14.512
90610W        W55771  21.126  20.420   2.778
90611W        W55772  18.614  37.310   0.282
90612W        W55773  42.596   9.715  11.147
90613W        W55774  21.283  37.330  11.254
90614W        W55775  39.584  14.331   0.326
90615W        W55776  41.926  24.847   3.786
90616W        W55777  11.273  10.081  11.340
90617W        W55778  15.290  23.961   0.454
90618W        W55779  40.475  20.132   3.117
90619W        W55780  29.872  38.240  13.103
90620W        W55781  33.972  36.777  13.356
90621W        W55782  22.414  11.244   9.806
90622W        W55783  25.053  40.552   3.619
90623W        W55784  39.811  14.993   3.845
90624W        W55785  25.513  42.838   3.778
90625W        W55786  36.762  18.433   0.843
90626W        W55787  30.870  41.993   4.146
90627W        W55788   6.172  40.074  13.952
90628W        W55789  15.821  21.662  13.093
90629W        W55790  43.441  43.109   0.455
90630W        W55791  28.059   2.745  12.988
90631W        W55792  17.809  29.678  13.907
90632W        W55793  21.637   8.826   4.569
90633W        W55794  34.545  30.443  14.755
90634W        W55795  37.540  22.556  13.984
90635W        W55796  22.122  35.928   0.392
90636W        W55797  37.592  23.642   3.766
90637W        W55798  26.813  22.982  11.567
90638W        W55799  41.278  13.320  12.128
90639W        W55800   0.814  32.348   0.346
90640W        W55801  32.759  10.715   0.902
90641W        W55802  24.616  28.215  14.790
90642W        W55803  29.950  37.702  13.035
90643W        W55804  38.956  34.592   2.315
90644W        W55805  19.782  43.804  12.395
90645W        W55806  14.084  16.440   4.626
90646W        W55807  10.169   6.379  12.798
90647W        W55808  14.722  30.153   3.243
90648W        W55809  29.422   1.246   0.765
90649W        W55810  35.549   2.905  11.100
90650W        W55811  11.330  16.246  10.382
90651W        W55812   2.712   5.852   0.465
90652W        W55813  26.575  17.286  12.906
90653W        W55814  17.111  44.846   4.517
90654W        W55815  11.253  42.836   4.681
90655W        W55816  21.759  40.080   0.273
90656W        W55817  37.470  22.636   3.881
90657W        W55818  40.926  18.038   2.268
90658W        W55819   4.628  19.760  13.469
90659W        W55820  10.372  20.518  10.710
90660W        W55821  18.998   5.464   1.734
90661W        W55822   3.926  44.374  12.168
90662W        W55823  25.986  32.343  13.424
90663W        W55824  11.763  16.175  12.972
90664W        W55825  18.614  24.512   4.364
90665W        W55826  35.932  40.748   4.564
90666W        W55827  39.003   9.554  11.309
90667W        W55828  28.688  23.436   3.137
90668W        W55829   3.777  13.139   4.935
90669W        W55830  32.204  27.037  11.688
90670W        W55831  12.329  33.677   3.191
90671W        W55832  42.948  27.813  11.201
90672W        W55833  29.704  20.969   5.084
90673W        W55834  25.162  20.052   2.688
90674W        W55835  17.620  37.778   1.682
90675W        W55836  38.933  24.517  14.286
90676W        W55837  36.426  24.450  11.462
90677W        W55838  26.093  13.886  10.376
90678W        W55839  13.092  16.352  13.349
90679W        W55840  31.977  36.169  10.666
90680W        W55841  43.485  44.053  12.967
90681W        W55842  33.971  38.052   5.463
90682W        W55843   3.284  44.665  11.568
90683W        W55844  10.991  14.169  13.343
90684W        W55845   8.770  22.929   4.145
90685W        W55846  27.172   2.283  12.887
90686W        W55847  22.790  28.092  12.058
90687W        W55848  25.320  27.496   3.526
90688W        W55849  35.842   9.611  12.540
90689W        W55850  14.448  38.543  10.933
90690W        W55851   5.946  12.171   4.909
90691W        W55852   1.994  29.135   0.831
90692W        W55853  29.053  33.746   4.143
90693W        W55854  24.291  30.437   3.140
90694W        W55855   0.724  13.655  13.021
90695W        W55856  22.825  12.241   1.370
90696W        W55857  17.582  32.052   3.601
90697W        W55858  33.909  43.048   3.656
90698W        W55859  23.025  21.449  11.610
90699W        W55860  19.743  22.747  11.052
90700W        W55861  17.179   5.432   4.775
90701W        W55862  16.711  14.109   0.369
90702W        W55863  39.952  13.614   3.290
90703W        W55864  39.789  23.870   4.603
90704W        W55865   2.215   3.833  13.363
90705W        W55866  42.320  32.886   4.290
90706W        W55867   6.756   7.697  13.474
90707W        W55868  32.469  29.563  10.458
90708W        W55869  41.482  40.591  11.541
90709W        W55870  12.611   7.669   1.735
90710W        W55871  28.398  19.078   0.452
90711W        W55872   1.841  36.790  13.007
90712W        W55873  28.392   9.812   1.611
90713W        W55874  30.704  11.134  11.546
90714W        W55875  33.528  22.083  10.682
90715W        W55876   5.323  27.135  10.785
90716W        W55877  13.192  44.492   0.261
90717W        W55878   9.006  13.796  12.698
90718W        W55879  33.399   0.341  13.785
90719W        W55880  34.318   1.256  14.429
90720W        W55881  11.632   8.083   3.367
90721W        W55882  27.923   2.814   4.060
90722W        W55883  40.543   7.169  13.428
90723W        W55884  33.170  37.463   1.230
90724W        W55885  44.752  38.946   2.806
90725W        W55886  38.298  20.361   1.906
90726W        W55887  22.318  21.143   5.350
90727W        W55888   9.800  14.425   1.794
90728W        W55889  20.763  17.818  14.863
90729W        W55890  11.661  37.123  13.999
90730W        W55891  31.869  10.275   1.492
90731W        W55892   5.894  20.464  11.940
90732W        W55893  28.980  14.313  12.412
90733W        W55894  27.133  14.358   9.532
90734W        W55895   5.210  13.153   3.812
90735W        W55896  16.636  36.726  13.950
90736W        W55897   2.732  36.709   0.665
90737W        W55898  32.867  12.746   3.256
90738W        W55899   7.876  10.965   2.291
90739W        W55900  29.997  15.189  14.021
90740W        W55901   4.193   2.262  11.645
90741W        W55902   2.235  42.694   1.802
90742W        W55903  24.793  35.867   0.922
90743W        W55904  13.007  34.752   3.177
90744W        W55905  13.661   6.130   3.275
90745W        W55906  12.752  38.880   2.291
90746W        W55907  35.534  20.747  10.450
90747W        W55908  12.078  39.792   2.209
90748W        W55909  27.686  24.173  11.129
90749W        W55910  27.691  37.273   4.639
90750W        W55911   7.439   6.385  14.453
90751W        W55912   1.170  14.204   4.083
90752W        W55913  10.396   5.357  10.746
90753W        W55914  32.976  21.519  13.327
90754W        W55915   2.795  17.583   1.848
90755W        W55916  14.105   9.753  14.095
90756W        W55917  41.831  34.474  14.966
90757W        W55918  24.038  15.143  12.603
90758W        W55919   3.848   1.822  12.421
90759W        W55920   1.726   2.521   4.529
90760W        W55921  31.175   3.326   0.802
90761W        W55922  14.273  28.916   2.206
90762W        W55923  36.501  28.123   0.344
90763W        W55924  30.862  25.943  14.850
90764W        W55925  18.514  24.698  14.854
90765W        W55926  40.330   9.485  11.930
90766W        W55927  30.537  12.053  13.930
90767W        W55928  12.423  25.889   4.132
90768W        W55929  17.233   8.108  14.854
90769W        W55930  39.594  42.891   0.473
90770W        W55931  11.401  33.889   4.065
90771W        W55932  42.896  26.947   0.788
90772W        W55933  17.043  26.081  13.439
90773W        W55934  37.494  41.514   3.267
90774W        W55935  30.092  32.913   0.451
90775W        W55936  21.793  28.727   1.254
90776W        W55937  36.875  42.486  12.900
90777W        W55938  42.020  37.836   4.310
90778W        W55939   7.696  20.166   1.594
90779W        W55940  19.683  26.162   2.662
90780W        W55941   8.147  18.079   2.785
90781W        W55942  28.946  15.476   3.386
90782W        W55943  33.869   5.288  13.531
90783W        W55944  44.078   2.915  12.458
90784W        W55945  36.445  18.556  12.348
90785W        W55946   8.631  11.539   1.780
90786W        W55947   5.840  12.580   1.880
90787W        W55948   7.791  27.689  13.486
90788W        W55949  37.607   5.160   2.467
90789W        W55950  38.571  44.537  13.553
90790W        W55951  27.306  41.387  11.575
90791W        W55952  38.822  19.133  14.765
90792W        W55953  28.501   0.302   4.064
90793W        W55954  42.343   7.661  13.024
90794W        W55955  18.624  32.910  11.957
90795W        W55956  35.697   3.691   4.175
90796W        W55957  26.047  24.925  11.154
90797W        W55958  37.459  22.235   1.496
90798W        W55959  24.505   6.917  13.368
90799W        W55960  17.844   2.729   0.380
90800W        W55961  41.894   3.078  12.459
90801W        W55962  19.847  12.137   2.297
90802W        W55963  16.502  25.009   0.420
90803W        W55964  40.166  27.192  12.484
90804W        W55965  11.263  11.087  14.277
90805W        W55966  41.893  18.140  14.291
90806W        W55967  27.574   7.165   0.399
90807W        W55968  16.432   4.016  12.602
90808W        W55969  44.366  43.556  13.098
90809W        W55970  20.272   5.486   4.195
90810W        W55971   6.358  14.722   4.728
90811W        W55972   5.550  27.151   3.783
90812W        W55973   0.064   5.675   1.799
90813W        W55974  29.711   7.431  13.491
90814W        W55975  22.757  16.402   1.325
90815W        W55976   2.474  20.753   2.242
90816W        W55977  33.558  11.761  11.700
90817W        W55978  36.478  40.002  11.756
90818W        W55979  30.717  16.899  12.381
90819W        W55980  43.861  10.265  13.907
90820W        W55981   1.884  34.412  10.598
90821W        W55982  30.847  31.161  11.802
90822W        W55983  42.513   5.249   1.124
90823W        W55984   8.781  25.742  10.977
90824W        W55985  10.190  40.563  12.517
90825W        W55986  42.021  16.648   0.444
90826W        W55987   7.969  39.449   3.594
90827W        W55988  36.067  11.781   2.143
90828W        W55989  12.475  25.677  13.106
90829W        W55990  16.669  15.087   0.779
90830W        W55991  35.852  26.137  12.970
90831W        W55992   8.990  21.586  13.970
90832W        W55993  14.633  36.416   0.062
90833W        W55994   0.243   3.773  10.610
90834W        W55995  44.414  35.019  10.507
90835W        W55996  27.441  22.715  14.982
90836W        W55997  26.475  14.515  11.589
90837W        W55998  34.355  27.129   4.634
90838W        W55999  15.606  25.076  14.630
90839W        W56000   7.932  36.065   1.932
90840W        W56001  35.629  11.472   0.462
90841W        W56002  10.328  31.606   2.856
90842W        W56003  26.089  43.935  10.651
90843W        W56004  29.224   2.739   2.612
90844W        W56005  28.418   2.390   1.390
90845W        W56006   4.428  21.567  11.605
90846W        W56007   2.181  31.619  12.950
90847W        W56008  13.930  18.725  12.648
90848W        W56009   8.644   1.754   1.957
90849W        W56010   4.982  41.610  11.632
90850W        W56011  26.619  10.268   1.776
90851W        W56012  31.541  29.918   3.531
90852W        W56013  43.428  33.402   4.590
90853W        W56014  21.937  36.942   2.258
90854W        W56015  25.631  11.341   3.580
90855W        W56016   8.630  40.570  14.594
90856W        W56017  44.723   4.183  12.023
90857W        W56018   8.201  13.112  13.493
90858W        W56019  25.695  11.073  11.805
90859W        W56020  21.387  29.569   3.280
90860W        W56021  13.354   7.624   2.272
90861W        W56022  28.013  24.031   0.776
90862W        W56023  38.587  21.121   4.444
90863W        W56024  36.928  25.157   2.372
90864W        W56025  15.198  34.300  11.765
90865W        W56026  10.635   5.281   1.723
90866W        W56027  25.325  10.436   0.855
90867W        W56028   8.556   3.442  14.085
90868W        W56029  37.402   2.347   3.080
90869W        W56030  20.292  20.140  12.160
90870W        W56031  33.482  43.432  10.388
90871W        W56032  27.721  43.415   4.584
90872W        W56033   3.837  16.634   2.390
90873W        W56034  36.154   9.259  13.892
90874W        W56035  30.427   7.812   4.575
90875W        W56036  24.978  29.782  11.573
90876W        W56037  32.109  32.420  14.754
90877W        W56038   9.579   0.479  12.947
90878W        W56039   9.327  37.033   0.751
90879W        W56040  33.092  20.774  14.081
90880W        W56041  37.349  38.448   1.940
90881W        W56042  28.618  33.951  12.672
90882W        W56043   8.946  26.141  11.917
90883W        W56044  10.180  11.186   2.599
90884W        W56045  42.555  33.501  13.373
90885W        W56046  40.412  12.352  13.583
90886W        W56047  11.725   9.489  10.610
90887W        W56048  18.539  17.098  14.544
90888W        W56049  28.606   1.354  11.831
90889W        W56050  22.074  43.001  13.878
90890W        W56051   9.754  43.360   2.131
90891W        W56052   5.398   6.290  12.064
90892W        W56053   1.567  26.522  14.410
90893W        W56054   7.512   8.255  11.063
90894W        W56055  43.618  27.920   3.702
90895W        W56056  22.553  25.533   2.227
90896W        W56057  11.500  44.179   5.068
90897W        W56058  23.476  43.869   1.811
90898W        W56059  28.085   5.776  14.888
90899W        W56060   0.254  27.040  13.441
90900W        W56061  20.069  22.573  12.198
90901W        W56062  23.546  18.803  10.629
90902W        W56063  44.467  13.527   1.338
90903W        W56064   7.286  22.298  11.999
90904W        W56065  43.509   2.017  11.597
90905W        W56066   2.527  39.115   4.748
90906W        W56067  43.847  40.953  12.514
90907W        W56068  20.116  40.907  11.408
90908W        W56069  14.651  24.063  11.464
90909W        W56070  33.946   5.390  11.416
90910W        W56071  30.676  23.499  11.648
90911W        W56072  25.134  12.633   1.200
90912W        W56073  35.146  36.102  10.948
90913W        W56074  43.770  27.124   0.499
90914W        W56075   8.629  39.090   0.287
90915W        W56076   6.809  16.784  14.480
90916W        W56077  39.603  32.429  14.990
90917W        W56078  23.991   6.189   1.939
90918W        W56079   1.681  14.338   2.285
90919W        W56080   2.368  43.841   3.771
90920W        W56081  22.148  27.424   2.170
90921W        W56082  33.849   7.822  14.266
90922W        W56083  29.882  20.242  10.604
90923W        W56084  28.545  21.516  14.344
90924W        W56085  37.926  33.969   3.312
90925W        W56086  23.630  35.102  14.870
90926W        W56087  22.937  24.073  10.732
90927W        W56088  17.192  28.381  12.326
90928W        W56089  30.413   4.896   0.091
90929W        W56090   0.995  23.008   0.201
90930W        W56091  42.155  40.923  13.197
90931W        W56092  40.704  33.940  13.405
90932W        W56093  23.912  42.015  11.627
90933W        W56094   0.988  20.177   3.292
90934W        W56095  23.477  42.353  14.500
90935W        W56096  11.828  32.212  11.588
90936W        W56097  17.185  39.847   0.349
90937W        W56098   9.162  30.648  11.968
90938W        W56099   3.426  35.979  12.027
90939W        W56100  19.084  17.574  12.029
90940W        W56101  12.979  35.597  14.257
90941W        W56102  40.416   0.597  14.151
90942W        W56103   3.464   9.972   2.488
90943W        W56104   5.810  29.086   4.416
90944W        W56105  12.078  28.571  10.413
90945W        W56106  35.333  25.175   2.264
90946W        W56107  32.519  41.238  13.441
90947W        W56108  36.780  32.933   2.675
90948W        W56109  13.794   2.407   2.393
90949W        W56110  35.489  14.170  12.969
90950W        W56111  23.956   9.136  12.472
90951W        W56112  31.363  21.737   2.778
90952W        W56113  12.065  16.027   1.850
90953W        W56114  21.529   1.406   4.692
90954W        W56115   8.765   1.816  11.179
90955W        W56116  29.533  29.643  12.427
90956W        W56117  15.903  30.076  11.155
90957W        W56118  37.409  40.699   9.945
90958W        W56119  32.953  37.876   0.512
90959W        W56120  13.246  33.960  12.610
90960W        W56121  42.952  14.643  13.623
90961W        W56122  38.908  18.653   3.702
90962W        W56123  25.657  26.100  14.241
90963W        W56124   3.506  37.303   0.976
90964W        W56125  18.849  34.501  13.254
90965W        W56126   6.657   5.268  12.689
90966W        W56127  28.945  22.994  14.098
90967W        W56128  28.484  22.691   5.593
90968W        W56129  24.365  16.588  14.987
90969W        W56130  23.221  24.727  10.730
90970W        W56131   4.407  17.510  12.744
90971W        W56132  40.534   5.663  12.602
90972W        W56133   0.315  23.677   1.697
90973W        W56134   9.986   7.293  12.979
90974W        W56135  16.713  40.999   3.758
90975W        W56136  42.270  29.456  14.142
90976W        W56137  44.968  10.272  11.062
90977W        W56138  36.682  40.405   4.028
90978W        W56139  43.444  41.095  12.082
90979W        W56140   8.936  28.213  11.180
90980W        W56141  31.470  27.568   1.393
90981W        W56142  19.871  24.632  10.658
90982W        W56143  38.646  37.807  14.302
90983W        W56144  17.528  43.322   0.891
90984W        W56145  26.677  25.053   4.500
90985W        W56146  30.192  27.115  11.549
90986W        W56147  22.467  37.516  14.507
90987W        W56148  33.797  41.540   2.616
90988W        W56149  42.054  21.423  11.534
90989W        W56150  22.816  10.755  14.529
90990W        W56151  23.864  20.126  11.255
90991W        W56152  23.483   1.632  12.983
90992W        W56153  19.647   5.428  14.018
90993W        W56154  35.360  25.302  13.963
90994W        W56155  44.271  31.081  13.992
90995W        W56156  33.191  10.542  11.171
90996W        W56157  23.526  24.267   1.766
90997W        W56158  40.369  37.429  13.279
90998W        W56159  14.167  25.509   3.847
90999W        W56160  13.663  42.358   9.658
91000W        W56161  26.901  11.645   0.366
91001W        W56162  12.541  38.077  13.346
91002W        W56163  28.584  28.332   1.325
91003W        W56164  11.172   4.955   0.009
91004W        W56165  32.454  23.671  13.642
91005W        W56166  32.929  14.907  13.423
91006W        W56167  12.258   8.875  13.207
91007W        W56168  31.976  15.144  12.049
91008W        W56169  18.247  26.231  11.184
91009W        W56170  11.166  17.806   1.172
91010W        W56171  20.896  11.322   4.560
91011W        W56172  23.024  20.193  12.343
91012W        W56173  14.753  21.092  12.970
91013W        W56174   1.091  19.517  14.712
91014W        W56175  15.965  16.526  11.559
91015W        W56176   3.015  39.623  14.493
91016W        W56177  12.941  14.380  11.122
91017W        W56178  13.847  14.109   3.327
91018W        W56179  18.809   0.059  13.453
91019W        W56180  24.880  44.706   0.437
91020W        W56181   3.677  39.325  13.030
91021W        W56182  33.963  18.875  14.875
91022W        W56183  42.488  19.811   1.801
91023W        W56184  16.096  23.029   0.330
91024W        W56185   2.333   2.834   3.095
91025W        W56186  41.726  11.773   2.641
91026W        W56187   7.768  36.952  12.376
91027W        W56188  39.689  17.208   0.324
91028W        W56189  28.572  34.406   4.570
91029W        W56190  42.477   2.421   0.109
91030W        W56191  40.695  23.303  10.634
91031W        W56192  43.834  42.433   1.278
91032W        W56193   9.234  17.025  12.723
91033W        W56194  43.099  32.644  13.019
91034W        W56195   8.642   3.016  10.405
91035W        W56196  28.012  26.091  13.519
91036W        W56197   3.397   2.538   3.714
91037W        W56198  26.934  36.982  11.845
91038W        W56199  33.968  28.267  11.020
91039W        W56200  24.183  30.439  14.090
91040W        W56201   7.961  31.552   1.515
91041W        W56202  29.417  38.281  12.884
91042W        W56203  12.265  35.520   2.277
91043W        W56204   2.778  26.883   3.142
91044W        W56205  11.775  19.062  14.742
91045W        W56206  14.979  36.825   1.852
91046W        W56207  27.685   4.420  13.079
91047W        W56208   2.302  38.982  14.498
91048W        W56209  36.605   2.249   4.634
91049W        W56210  22.523   4.974  13.108
91050W        W56211  19.068  41.149   3.187
91051W        W56212   5.724  39.360  12.154
91052W        W56213  20.040  11.659   2.371
91053W        W56214  42.316  15.743  13.313
91054W        W56215   0.815   2.109   5.268
91055W        W56216  30.897  38.063  14.047
91056W        W56217  40.382   7.557   3.518
91057W        W56218  24.148  25.922  12.366
91058W        W56219  11.931  33.607   1.044
91059W        W56220  29.868  41.541  14.526
91060W        W56221   6.770   0.285   1.242
91061W        W56222   0.701  14.804   1.792
91062W        W56223  38.570  13.565  12.501
91063W        W56224  15.139  30.842   3.786
91064W        W56225   2.793  21.021  14.983
91065W        W56226  37.561  18.817   4.135
91066W        W56227  24.963  31.517   2.723
91067W        W56228   4.782  43.107   4.616
91068W        W56229  33.601  22.135  14.059
91069W        W56230  14.544  28.658   3.692
91070W        W56231  36.653  22.157  14.558
91071W        W56232   2.112  10.892  13.923
91072W        W56233   7.925  11.438  11.096
91073W        W56234  23.109  29.580   4.626
91074W        W56235  33.772  33.083   3.777
91075W        W56236  12.987   3.467   1.308
91076W        W56237  26.613  42.979   0.539
91077W        W56238  25.692  29.023   0.450
91078W        W56239  13.468  32.220  14.404
91079W        W56240  15.726  36.932  13.289
91080W        W56241  41.359  13.846  11.899
91081W        W56242   6.761  20.644   2.390
91082W        W56243  41.829  29.669  10.725
91083W        W56244  23.180  33.113  13.327
91084W        W56245  35.116  14.294  10.403
91085W        W56246  22.017  38.984   0.799
91086W        W56247   6.402   4.858  14.012
91087W        W56248  23.527  32.966   4.134
91088W        W56249   7.329  42.893  13.150
91089W        W56250  39.711  43.754   0.032
91090W        W56251  28.997   6.177   0.352
91091W        W56252   9.879   5.724   4.184
91092W        W56253  43.593   8.905   4.143
91093W        W56254  35.291   4.399   4.426
91094W        W56255  42.302  11.546  13.782
91095W        W56256  14.625  43.015   3.784
91096W        W56257  20.631  36.065  12.448
91097W        W56258   9.725  19.521   4.138
91098W        W56259  29.236  20.533   1.236
91099W        W56260   7.035   3.901  14.705
91100W        W56261  39.847  39.614   1.300
91101W        W56262  44.985  10.347  11.789
91102W        W56263  28.138  24.421   4.490
91103W        W56264   9.728  12.114  14.427
91104W        W56265   4.225  26.724  14.969
91105W        W56266  43.542  24.159   3.276
91106W        W56267  20.191  43.872   4.601
91107W        W56268  27.804  26.657   3.468
91108W        W56269  19.266  39.724  13.127
91109W        W56270  19.654   8.751  10.615
91110W        W56271  36.451   4.435  10.237
91111W        W56272  41.427  17.233   1.428
91112W        W56273  14.654  19.189  13.514
91113W        W56274  33.333  23.008   2.798
91114W        W56275  42.884  35.304  13.484
91115W        W56276   1.992   3.168   2.862
91116W        W56277  37.956  17.446  14.277
91117W        W56278   7.577  27.610  13.978
91118W        W56279  33.566  29.705  11.188
91119W        W56280  43.832   4.966  14.867
91120W        W56281  13.013   6.271  12.798
91121W        W56282  43.122  30.668  11.983
91122W        W56283  32.298  37.569  12.434
91123W        W56284  38.429  42.445  10.857
91124W        W56285   7.369  19.264  14.965
91125W        W56286  38.988  41.437   9.858
91126W        W56287   8.435   6.367  12.831
91127W        W56288  31.056  24.972  14.438
91128W        W56289  44.023   5.882  13.800
91129W        W56290  36.361  42.471  12.106
91130W        W56291  12.766  31.262   1.413
91131W        W56292  30.616  24.482   3.637
91132W        W56293   0.022  32.397  12.436
91133W        W56294  42.514  39.332   0.269
91134W        W56295  13.010  36.891  14.817
91135W        W56296  40.272  11.113   0.856
91136W        W56297  34.691  25.468  11.654
91137W        W56298  28.810  12.820   1.268
91138W        W56299  19.150  27.279   3.216
91139W        W56300  43.463  17.947  14.782
91140W        W56301  16.744  11.853  11.598
91141W        W56302  24.200  26.506   3.243
91142W        W56303  38.879  30.284   1.207
91143W        W56304  25.652  43.412  11.669
91144W        W56305  41.978  39.412  13.066
91145W        W56306  34.460  11.261  13.161
91146W        W56307  31.984  19.554  11.245
91147W        W56308  43.779   6.836   3.401
91148W        W56309  19.763  35.143  11.123
91149W        W56310   4.750  29.118  13.504
91150W        W56311  39.282   1.940   0.374
91151W        W56312  40.287   6.067   0.807
91152W        W56313   5.628   1.247   0.390
91153W        W56314   8.348   3.334   1.556
91154W        W56315   7.533   4.844   1.701
91155W        W56316   9.182  14.834  10.952
91156W        W56317  23.429  31.526   3.580
91157W        W56318  23.177  29.178   4.170
91158W        W56319   5.477  23.683   4.171
91159W        W56320  29.713  30.520  10.950
91160W        W56321  36.505  28.235  10.951
91161W        W56322  41.360   3.811   2.284
91162W        W56323  19.927  30.265  11.779
91163W        W56324   0.423  36.173   0.747
91164W        W56325  33.897  25.263   3.353
91165W        W56326  22.698  28.532   3.280
91166W        W56327   9.677  18.278  12.435
91167W        W56328  15.531  35.978  11.305
91168W        W56329  14.357   3.878  13.516
91169W        W56330  24.197  28.638  13.490
91170W        W56331  16.093  31.487   1.339
91171W        W56332  15.632   9.320  11.087
91172W        W56333  14.243  34.116  10.660
91173W        W56334  24.745  14.907   0.480
91174W        W56335  31.629   2.718   2.470
91175W        W56336   2.349  28.642  11.682
91176W        W56337  39.377  34.097  12.574
91177W        W56338  17.669  33.097   0.421
91178W        W56339  29.494  20.981   4.306
91179W        W56340  13.603  24.255   1.696
91180W        W56341  15.805  15.140  11.665
91181W        W56342  12.708  33.968  14.375
91182W        W56343  34.472  11.108  12.641
91183W        W56344  30.998  39.069  12.440
91184W        W56345  12.221  24.150   3.834
91185W        W56346  11.800  14.054   0.194
91186W        W56347  44.435  32.547  11.573
91187W        W56348  15.658  43.689   5.514
91188W        W56349  13.474  29.583  11.142
91189W        W56350   7.010  13.093  12.562
91190W        W56351   7.489  40.873  11.018
91191W        W56352   5.859  26.820   0.479
91192W        W56353  43.212  11.093  13.078
91193W        W56354   3.974  38.410   3.158
91194W        W56355  44.438  24.520  13.232
91195W        W56356  35.655   2.177  10.538
91196W        W56357  29.532  41.184   4.969
91197W        W56358  11.877  24.368   2.749
91198W        W56359  43.104  25.197   1.851
91199W        W56360  37.912  41.577  13.331
91200W        W56361  35.574  25.371   3.628
91201W        W56362  22.519  12.422  11.329
91202W        W56363  16.225  13.418  11.444
91203W        W56364  24.540  17.577   1.177
91204W        W56365  12.932  23.908  11.538
91205W        W56366  41.034  14.330   2.762
91206W        W56367  38.534   1.532  13.692
91207W        W56368  23.552  27.981   0.339
91208W        W56369  35.157  40.490   3.299
91209W        W56370   3.632  10.147   0.378
91210W        W56371  18.690  21.024   0.397
91211W        W56372  34.290  31.690   4.205
91212W        W56373  20.615  30.167  11.251
91213W        W56374  16.289  34.379  14.096
91214W        W56375   1.189   8.337  14.392
91215W        W56376   6.842  22.569   4.813
91216W        W56377  41.649  34.610   4.880
91217W        W56378  39.294  42.970  14.821
91218W        W56379  28.170  38.484  11.446
91219W        W56380  22.664  26.037  10.547
91220W        W56381  12.840  11.763   0.054
91221W        W56382  21.243   0.976  12.545
91222W        W56383  33.922  31.644   2.985
91223W        W56384  26.754  12.618  11.615
91224W        W56385   2.804   7.149  14.881
91225W        W56386  20.615  33.173   0.445
91226W        W56387  11.903  13.645   4.361
91227W        W56388  15.797  17.579   2.211
91228W        W56389  28.882  17.261  14.403
91229W        W56390   9.157   2.228   0.841
91230W        W56391  18.625  11.781  12.840
91231W        W56392  35.543  32.016  14.913
91232W        W56393  39.472  33.598  12.438
91233W        W56394  34.886   3.687   0.346
91234W        W56395  12.119   1.957   3.664
91235W        W56396  17.022  14.915   0.387
91236W        W56397  12.344   9.524  14.978
91237W        W56398  15.802  43.818   2.257
91238W        W56399  21.468  20.713  11.947
91239W        W56400  12.663   7.165  11.127
91240W        W56401  32.025  36.032   1.166
91241W        W56402  36.044   2.321   2.395
91242W        W56403  19.617  22.632   4.591
91243W        W56404   6.788  21.502   1.768
91244W        W56405  16.429  33.176  13.513
91245W        W56406  44.829  10.645  11.384
91246W        W56407  34.840  31.050  12.380
91247W        W56408  34.970  28.444   1.870
91248W        W56409  21.343  29.690  12.124
91249W        W56410  22.216   7.387   3.907
91250W        W56411  34.794   6.520  10.710
91251W        W56412   5.760  19.652   1.982
91252W        W56413  15.189  37.074   1.217
91253W        W56414  41.072  24.503   4.124
91254W        W56415  41.331  21.762   1.004
91255W        W56416   6.475  37.789  12.928
91256W        W56417  17.285  36.629   2.806
91257W        W56418  17.934  38.417  14.950
91258W        W56419  12.938  44.485   9.944
91259W        W56420  44.682  16.688   4.879
91260W        W56421  14.287  10.270   3.530
91261W        W56422  38.933  15.371   4.598
91262W        W56423  31.533  19.253  13.454
91263W        W56424  23.437  20.281   5.530
91264W        W56425  35.131  36.036   1.036
91265W        W56426  13.665   8.476  13.886
91266W        W56427   6.718  36.538   3.296
91267W        W56428   1.240  39.538  14.259
91268W        W56429  15.835   5.398  12.640
91269W        W56430  30.853  34.567   4.588
91270W        W56431   0.010  12.306   2.451
91271W        W56432  26.061  14.666  14.286
91272W        W56433  20.696  13.171  11.549
91273W        W56434  18.369  39.834  13.599
91274W        W56435  31.916  13.373   2.760
91275W        W56436  10.950  36.796   2.237
91276W        W56437  15.033  28.971  13.873
91277W        W56438  18.494  37.933   1.342
91278W        W56439  24.691  38.099   2.698
91279W        W56440  28.988  27.091   4.400
91280W        W56441  37.948  18.166  13.935
91281W        W56442  39.398  40.088  11.527
91282W        W56443  22.965   7.724   0.895
91283W        W56444  22.620  24.220  12.388
91284W        W56445   2.423  35.061   0.328
91285W        W56446  15.354   5.366   3.060
91286W        W56447  16.676  32.377   2.227
91287W        W56448  25.158  19.790   0.689
91288W        W56449  35.661   5.423  12.919
91289W        W56450  38.034  33.831   1.844
91290W        W56451   5.960  25.109  13.837
91291W        W56452  27.697   8.212   0.090
91292W        W56453   5.863  29.499   0.736
91293W        W56454  43.993  13.112  12.516
91294W        W56455  32.581  40.968   4.587
91295W        W56456  20.796  36.371  11.621
91296W        W56457  38.803  28.418  12.831
91297W        W56458  21.761  24.079  12.087
91298W        W56459  26.965   6.909  13.816
91299W        W56460  40.739  37.990  11.673
91300W        W56461  33.030  28.878   3.857
91301W        W56462  11.526  22.460  12.633
91302W        W56463   5.860  10.821  10.579
91303W        W56464   0.466   5.894   2.309
91304W        W56465  10.081   1.286   3.219
91305W        W56466  44.500  11.799  14.446
91306W        W56467  23.028  36.845  12.628
91307W        W56468   4.831  41.059  12.808
91308W        W56469  42.765  22.539   2.317
91309W        W56470  12.391   8.930  13.781
91310W        W56471  18.055  35.305   4.768
91311W        W56472  25.239   9.318   1.197
91312W        W56473  14.654   9.063   3.363
91313W        W56474  34.743  29.073   3.674
91314W        W56475  16.058  26.669  11.141
91315W        W56476  14.797  37.354  12.495
91316W        W56477  21.360  15.863  14.595
91317W        W56478  17.606   6.166  11.138
91318W        W56479  19.662  12.737   0.250
91319W        W56480  33.142  27.353  13.033
91320W        W56481   6.166  16.258   3.186
91321W        W56482  41.300  31.437  14.211
91322W        W56483  28.090  25.292   0.795
91323W        W56484  21.970  14.632  14.966
91324W        W56485  24.200  28.541   3.687
91325W        W56486  11.199   2.574   4.135
91326W        W56487  12.655  41.437  14.558
91327W        W56488   5.815  17.168   4.504
91328W        W56489  34.033  34.963  12.488
91329W        W56490   2.199  11.390   0.742
91330W        W56491  42.838  31.436   1.342
91331W        W56492  22.767  17.338  12.567
91332W        W56493   7.904  14.111   4.196
91333W        W56494   1.727  24.229   1.362
91334W        W56495  29.534   6.349   3.452
91335W        W56496  36.933  20.336   1.977
91336W        W56497   1.747  21.961  11.978
91337W        W56498  38.561  41.475  13.826
91338W        W56499   3.395  19.112   0.848
91339W        W56500   4.356  34.965  14.978
91340W        W56501   6.320  10.804   1.687
91341W        W56502  37.283  24.116  10.686
91342W        W56503  12.823  41.829  13.172
91343W        W56504  20.796   7.675   4.628
91344W        W56505   6.487  43.975   1.343
91345W        W56506  38.888  14.530  10.693
91346W        W56507  36.559   0.394   0.740
91347W        W56508  43.733   2.765   0.303
91348W        W56509  24.509  15.319  12.750
91349W        W56510  13.215  30.141  10.582
91350W        W56511  13.379  36.745  13.743
91351W        W56512  33.746  25.838  14.930
91352W        W56513  17.140  36.870   1.476
91353W        W56514  35.225  18.518  10.983
91354W        W56515   1.914   4.649  14.312
91355W        W56516  39.095  36.565  12.529
91356W        W56517  31.890  39.254   2.164
91357W        W56518  41.888   5.869  10.757
91358W        W56519  36.632  13.852   3.157
91359W        W56520  38.025  20.231   4.773
91360W        W56521  17.356  39.306   3.206
91361W        W56522  38.266  40.290   0.793
91362W        W56523  29.166  18.541   2.397
91363W        W56524  10.117  26.058  11.555
91364W        W56525  38.865  28.613  10.683
91365W        W56526  11.748  36.609  14.097
91366W        W56527  32.009  20.061  12.915
91367W        W56528  44.393  37.393  12.374
91368W        W56529  19.886  19.151  13.431
91369W        W56530  40.362   7.318   4.901
91370W        W56531   1.482   9.955  12.449
91371W        W56532  36.593  28.109  13.670
91372W        W56533  35.965   0.288   0.639
91373W        W56534  30.451  18.679  10.661
91374W        W56535  38.066   3.101  14.992
91375W        W56536  37.888  42.859   2.671
91376W        W56537  12.881   1.289  14.511
91377W        W56538  25.243   0.312  10.883
91378W        W56539  41.846  26.212  13.013
91379W        W56540   7.506  10.232   0.350
91380W        W56541   3.672  15.580  11.849
91381W        W56542  28.438  14.927   5.044
91382W        W56543  12.057  14.142   4.208
91383W        W56544   2.285  17.345  10.977
91384W        W56545  34.975  31.150   0.820
91385W        W56546  44.496  28.314   0.359
91386W        W56547   6.762  14.084   3.179
91387W        W56548  11.250  14.660   0.096
91388W        W56549  26.708  22.050   1.384
91389W        W56550  11.788  35.136   2.883
91390W        W56551  23.535  27.967   4.087
91391W        W56552  30.819   3.941   2.717
91392W        W56553  29.505  28.268  13.754
91393W        W56554  38.260  17.241  14.754
91394W        W56555  22.568  38.298  12.488
91395W        W56556  16.718   0.991   4.383
91396W        W56557   5.949  43.827  10.727
91397W        W56558  37.903  26.443  11.639
91398W        W56559  18.156   4.911  12.592
91399W        W56560  14.329  30.025  13.092
91400W        W56561   4.412  19.525   4.996
91401W        W56562   7.346  24.036   3.109
91402W        W56563  12.902   7.155   4.071
91403W        W56564  40.794   7.331  14.845
91404W        W56565  34.782   8.290   1.328
91405W        W56566  14.347  26.073  14.743
91406W        W56567   6.914  30.580   1.394
91407W        W56568  11.889   4.035  11.120
91408W        W56569  26.137  39.578  13.761
91409W        W56570   7.583  44.954  13.358
91410W        W56571  23.525  20.069  13.041
91411W        W56572  35.877  27.574   2.778
91412W        W56573  11.473  21.657  11.429
91413W        W56574  19.669  20.032  14.450
91414W        W56575  15.887  43.330   1.464
91415W        W56576  38.336  39.090   0.137
91416W        W56577  39.658  30.671   1.019
91417W        W56578  30.674  22.398   4.717
91418W        W56579   3.842  39.487  12.567
91419W        W56580  34.980  22.026  13.826
91420W        W56581  13.626  16.196  11.639
91421W        W56582  10.464  20.011  14.399
91422W        W56583  32.445  32.797  14.433
91423W        W56584   1.855   3.914   1.839
91424W        W56585  31.930  26.688   0.441
91425W        W56586  34.622  13.126  13.041
91426W        W56587  26.416  34.557  14.587
91427W        W56588  34.549  28.635   0.763
91428W        W56589  11.705  10.305  14.065
91429W        W56590  44.884   2.036  11.574
91430W        W56591  44.176  31.992  13.889
91431W        W56592  23.316  22.299   3.541
91432W        W56593  34.458  10.049   0.706
91433W        W56594  30.461  32.920  12.123
91434W        W56595   0.858  12.462  13.764
91435W        W56596  14.301  36.313  12.841
91436W        W56597   4.132  31.697  13.473
91437W        W56598  25.086  24.266  12.396
91438W        W56599  28.168   8.446   0.223
91439W        W56600  15.864  21.025   1.311
91440W        W56601   9.305  18.155  13.801
91441W        W56602  12.660   9.279  14.126
91442W        W56603  13.693   5.010   4.248
91443W        W56604  42.367  14.913   4.753
91444W        W56605  20.098  10.156   0.221
91445W        W56606  41.539  43.810   4.399
91446W        W56607  38.404  10.113   1.715
91447W        W56608  44.980  18.625  12.961
91448W        W56609  43.524  29.174  13.798
91449W        W56610  34.652   5.295   3.693
91450W        W56611  18.614  18.289   3.881
91451W        W56612  29.630  13.554  12.462
91452W        W56613  27.632  27.628  10.749
91453W        W56614  39.347  36.937   0.520
91454W        W56615  25.477   1.222   1.736
91455W        W56616   3.216  31.944  11.643
91456W        W56617   8.091  25.124   4.673
91457W        W56618  34.483  41.537  11.335
91458W        W56619  44.300  35.265   5.026
91459W        W56620  12.132  29.389  14.318
91460W        W56621  38.840   2.725   0.387
91461W        W56622  13.613  32.900  10.706
91462W        W56623  17.265   0.013   3.257
91463W        W56624  43.964  32.264   2.657
91464W        W56625  17.687   9.878   2.091
91465W        W56626  34.397  28.138  13.924
91466W        W56627  42.401  17.452   3.792
91467W        W56628  36.210  43.349   1.765
91468W        W56629  34.336  16.094  14.893
91469W        W56630   5.861   7.885   0.807
91470W        W56631  15.969  16.267   5.134
91471W        W56632   1.211  44.295  10.938
91472W        W56633  22.752   0.951  12.134
91473W        W56634  14.162  27.947  13.812
91474W        W56635   9.188  40.148  11.513
91475W        W56636   5.281  40.615   2.782
91476W        W56637  14.172   6.199  10.763
91477W        W56638  19.588  27.174   1.479
91478W        W56639  26.863  32.049  12.948
91479W        W56640  19.063  40.750   1.304
91480W        W56641  31.553  42.813   0.825
91481W        W56642  17.308   5.194  11.961
91482W        W56643  27.079  31.936  11.096
91483W        W56644  42.410  10.787  14.581
91484W        W56645  34.324  30.518   0.811
91485W        W56646  12.589   3.963  13.038
91486W        W56647  44.809  24.133  14.311
91487W        W56648   4.411  32.897   3.182
91488W        W56649  24.075  12.926   4.163
91489W        W56650  11.091  23.947  11.631
91490W        W56651  27.413  29.076  14.951
91491W        W56652  43.211  35.534   5.177
91492W        W56653  32.061   1.004  13.841
91493W        W56654   5.039  23.058  14.900
91494W        W56655  14.735  10.868   0.428
91495W        W56656  44.853   7.826  11.630
91496W        W56657   2.653  44.634  11.148
91497W        W56658  31.571   4.193  12.438
91498W        W56659   4.192   0.753  10.423
91499W        W56660  15.653   6.173  13.799
91500W        W56661  11.737   7.642  11.274
91501W        W56662  30.498  38.915   1.795
91502W        W56663  23.461  26.017   0.865
91503W        W56664  19.364  16.827  10.720
91504W        W56665  13.313   9.350  12.951
91505W        W56666   6.364  11.765  13.386
91506W        W56667   7.333  41.432   0.424
91507W        W56668  32.592  20.607  14.143
91508W        W56669   2.939   8.886   0.394
91509W        W56670  16.122  19.060   4.203
91510W        W56671  41.481  21.759  12.719
91511W        W56672  18.155   0.798  10.395
91512W        W56673  33.370  34.676   4.469
91513W        W56674  26.889  21.106   3.863
91514W        W56675  38.339   2.861  12.827
91515W        W56676  11.719  37.874  10.562
91516W        W56677  43.699   0.152   3.178
91517W        W56678  17.149  39.543  12.293
91518W        W56679  43.256   4.163  11.134
91519W        W56680  11.813   1.161  13.629
91520W        W56681  32.995  34.159  14.440
91521W        W56682  40.604   2.278   0.902
91522W        W56683  16.276  34.447   2.705
91523W        W56684  35.902  33.940   2.671
91524W        W56685   9.681  16.621   2.901
91525W        W56686  32.180   5.690  12.547
91526W        W56687  11.662  44.594  10.882
91527W        W56688  39.580  25.482   1.701
91528W        W56689   3.380  42.239  11.213
91529W        W56690   9.615  30.897   0.480
91530W        W56691  21.513  36.564  14.732
91531W        W56692   4.321   6.414   2.269
91532W        W56693  24.535   0.784   1.216
91533W        W56694   8.677  35.085  12.505
91534W        W56695  15.768  10.786   1.030
91535W        W56696   3.753  15.790  12.311
91536W        W56697  41.016  25.861  12.602
91537W        W56698  32.582   3.989   4.652
91538W        W56699  42.959  41.557  13.760
91539W        W56700  35.341  17.768  12.458
91540W        W56701   8.135   5.866   4.068
91541W        W56702  16.850  35.048   1.624
91542W        W56703  43.970  28.430   4.531
91543W        W56704  32.618  21.875  13.086
91544W        W56705  37.466  14.368  10.798
91545W        W56706   6.006   5.837   3.090
91546W        W56707  23.283  40.398  12.868
91547W        W56708  35.160  10.248  13.441
91548W        W56709   1.375   5.783  10.337
91549W        W56710  19.998  35.883   2.756
91550W        W56711  20.049   5.378  14.827
91551W        W56712  40.374   2.171  13.415
91552W        W56713  30.360  17.638  11.787
91553W        W56714  41.174  36.200   5.516
91554W        W56715  29.973   6.631   3.663
91555W        W56716  20.345  10.241  14.774
91556W        W56717  12.187   7.898   0.390
91557W        W56718  35.573   3.397  11.932
91558W        W56719   3.817  43.890  11.179
91559W        W56720  20.149  26.078   0.347
91560W        W56721   9.663   7.472  13.774
91561W        W56722  30.757  34.007  14.531
91562W        W56723  34.845   4.416  11.094
91563W        W56724  28.693   8.227   4.558
91564W        W56725   1.422   5.739  12.331
91565W        W56726  13.937   5.478  12.342
91566W        W56727  36.298  12.593  11.214
91567W        W56728  10.184  15.839   4.624
91568W        W56729  38.588  10.451  13.792
91569W        W56730   8.819  25.184   4.149
91570W        W56731  33.734  16.614  14.475
91571W        W56732  43.390  26.100  13.680
91572W        W56733  40.418   9.099  11.605
91573W        W56734   3.593  18.847  11.654
91574W        W56735  16.098  14.345   4.552
91575W        W56736   3.136   2.512  14.125
91576W        W56737  16.232  12.654  10.905
91577W        W56738   3.258  21.423   0.654
91578W        W56739  10.215  17.028  11.257
91579W        W56740   7.690  38.665  12.889
91580W        W56741  21.212  12.365   0.367
91581W        W56742  30.193  14.998  11.086
91582W        W56743   9.204  14.043   3.739
91583W        W56744  24.481  34.125   2.393
91584W        W56745  42.508  35.811   3.758
91585W        W56746  11.395  13.830  12.488
91586W        W56747  39.147  19.596   2.772
91587W        W56748  42.045   9.832   4.444
91588W        W56749  18.071  38.846   0.237
91589W        W56750  34.818  33.472  11.137
91590W        W56751  41.102  19.741  11.607
91591W        W56752   4.296  13.093   3.694
91592W        W56753  31.273  32.499  11.614
91593W        W56754   7.632  25.377   5.285
91594W        W56755   0.005   5.166   0.683
91595W        W56756   8.115  16.567   4.229
91596W        W56757  12.355   3.772  13.455
91597W        W56758   1.962  31.043  12.062
91598W        W56759  32.134  20.222   2.266
91599W        W56760  21.663   1.893   3.214
91600W        W56761  35.589  36.997   2.114
91601W        W56762   4.650   9.192   2.347
91602W        W56763   4.216   8.342   4.037
91603W        W56764   4.358  33.314  14.173
91604W        W56765   7.957  41.218   4.024
91605W        W56766  42.081  24.043   0.767
91606W        W56767  42.669  33.836  10.156
91607W        W56768   5.022   2.497  10.170
91608W        W56769   9.602  27.772   0.515
91609W        W56770  37.368  26.288   3.820
91610W        W56771   8.628   1.293   2.236
91611W        W56772  31.120  25.057   3.355
91612W        W56773  18.858  14.161  11.165
91613W        W56774  13.638  14.689  13.524
91614W        W56775  30.644   8.374   0.987
91615W        W56776   2.767  22.100   2.729
91616W        W56777   0.700  21.088  10.614
91617W        W56778  32.104  10.272  14.435
91618W        W56779  31.599  32.490  10.839
91619W        W56780  13.770  37.453   2.945
91620W        W56781  17.569   2.178  11.449
91621W        W56782  29.069  21.725   4.202
91622W        W56783  10.786  29.978  11.021
91623W        W56784   2.961   7.679  12.873
91624W        W56785   5.753  35.565   0.973
91625W        W56786  20.018  23.288   1.920
91626W        W56787  36.123  20.736   0.242
91627W        W56788  33.860  23.039   1.929
91628W        W56789  17.666  28.156  13.765
91629W        W56790  27.698  24.052  14.220
91630W        W56791  26.569   1.959   3.214
91631W        W56792  23.416   2.454  12.053
91632W        W56793  39.464  14.502   2.363
91633W        W56794  40.296  35.363   3.711
91634W        W56795  30.802  13.705  14.301
91635W        W56796  32.888  32.365   3.857
91636W        W56797   0.086  24.960  11.526
91637W        W56798  34.457  21.737   9.715
91638W        W56799   9.535  17.065   2.697
91639W        W56800  41.931  37.754   2.691
91640W        W56801  36.789  24.646   0.431
91641W        W56802  22.462  14.328  13.043
91642W        W56803  25.106  25.206   2.713
91643W        W56804   5.180  27.435  13.020
91644W        W56805  44.432  24.512   1.358
91645W        W56806  25.080  15.704   4.606
91646W        W56807  43.829  28.833  14.410
91647W        W56808  21.227   8.618  14.826
91648W        W56809   0.441  28.017  14.456
91649W        W56810  20.593   2.767   4.435
91650W        W56811  31.369  17.662   0.674
91651W        W56812  38.574  37.599  13.814
91652W        W56813   8.394  13.382  12.964
91653W        W56814   9.228  34.430  11.362
91654W        W56815  18.213  19.686  11.038
91655W        W56816  34.743  10.681  14.924
91656W        W56817   9.790  41.323   2.654
91657W        W56818  33.817  30.641   2.788
91658W        W56819  26.979   3.503  11.648
91659W        W56820  40.890   4.519  12.217
91660W        W56821  13.369  32.995  13.065
91661W        W56822  14.271  14.006  12.985
91662W        W56823   6.864  17.369  10.976
91663W        W56824  14.702  21.610   0.729
91664W        W56825  40.545  23.590   0.325
91665W        W56826  40.436  27.494   2.802
91666W        W56827  14.656  40.824  10.504
91667W        W56828   2.942  33.401   4.552
91668W        W56829   5.285  42.235   4.721
91669W        W56830   5.908  12.621   0.888
91670W        W56831  15.886  38.933   4.482
91671W        W56832  17.681  35.186  14.259
91672W        W56833  33.635  17.186   3.190
91673W        W56834  36.573  10.936  14.396
91674W        W56835   3.745  22.468   0.062
91675W        W56836  43.485  30.253  12.098
91676W        W56837  34.915  33.454  12.158
91677W        W56838  30.934  40.592   5.035
91678W        W56839  36.927  12.612  12.015
91679W        W56840   7.656   5.165   3.733
91680W        W56841  14.293  27.448  13.882
91681W        W56842  22.231  41.025   4.146
91682W        W56843  12.367   9.319   0.478
91683W        W56844  13.246  34.028   4.603
91684W        W56845  26.196  30.134   3.172
91685W        W56846   0.246  17.580   2.233
91686W        W56847  16.176  31.835  12.406
91687W        W56848  10.562  17.334  11.533
91688W        W56849  12.817  29.035  11.287
91689W        W56850   4.936  26.159   2.198
91690W        W56851  41.396  10.225  13.830
91691W        W56852  20.618  16.964   0.367
91692W        W56853  25.390  10.470   5.475
91693W        W56854  31.065  32.659   3.109
91694W        W56855   1.970  14.297  14.012
91695W        W56856  21.059  18.956   2.650
91696W        W56857  13.929   6.146  11.593
91697W        W56858  30.724   1.606   1.942
91698W        W56859  26.907  34.054   2.274
91699W        W56860  15.333  34.906  14.041
91700W        W56861  17.047  31.992   5.003
91701W        W56862   5.048   6.169   0.349
91702W        W56863  29.438  18.760  10.748
91703W        W56864  34.977  19.297   3.661
91704W        W56865  16.637  37.527   2.799
91705W        W56866  20.125   7.196  13.531
91706W        W56867  14.122  16.474  12.472
91707W        W56868   5.252  41.755   4.915
91708W        W56869  36.526  37.489  11.021
91709W        W56870   9.264   2.911   2.302
91710W        W56871  36.960  11.317   1.713
91711W        W56872  14.645  12.431   4.590
91712W        W56873  15.215  33.008  11.175
91713W        W56874  25.531  38.166  14.812
91714W        W56875  42.247   2.937  13.893
91715W        W56876  42.250  40.411  12.875
91716W        W56877  21.279  15.280  12.390
91717W        W56878  16.485  13.813  11.276
91718W        W56879   9.858   2.488  14.290
91719W        W56880   3.020  39.942   4.533
91720W        W56881  33.637   9.293  13.442
91721W        W56882  17.221  19.801  14.903
91722W        W56883  41.855   1.425  12.373
91723W        W56884  39.364  40.314   3.109
91724W        W56885  32.209   4.952   3.777
91725W        W56886   2.338  43.482   1.455
91726W        W56887   5.270  15.192  11.818
91727W        W56888   6.794  31.672   4.207
91728W        W56889  24.802  10.027  10.223
91729W        W56890  40.271  25.624   2.852
91730W        W56891  43.348  33.318  11.887
91731W        W56892  44.742  27.461  11.441
91732W        W56893  16.286  41.914  14.048
91733W        W56894   8.983  38.807   2.209
91734W        W56895  19.931   4.918   4.273
91735W        W56896  11.770  37.427  10.039
91736W        W56897  42.786  13.567  14.840
91737W        W56898  25.461   0.953   4.181
91738W        W56899   3.475  17.381  11.542
91739W        W56900   5.263   9.374  14.497
91740W        W56901  21.961  23.550   2.652
91741W        W56902  25.069  34.155   4.309
91742W        W56903   9.966  34.888  14.872
91743W        W56904  16.906  15.664   2.660
91744W        W56905  40.420  38.240   0.350
91745W        W56906  13.041  23.677  13.864
91746W        W56907  38.196  15.423   2.226
91747W        W56908  29.426  13.508  10.707
91748W        W56909   5.695   9.365   2.293
91749W        W56910  10.280  18.625  10.694
91750W        W56911   4.804   0.549   0.569
91751W        W56912  21.485  12.165   3.640
91752W        W56913   4.360   1.716  12.628
91753W        W56914   8.751  17.781  10.761
91754W        W56915   4.296  21.364  12.594
91755W        W56916  32.548  11.422   2.032
91756W        W56917  42.961  41.858   0.221
91757W        W56918  35.106  12.138  11.088
91758W        W56919  15.004  31.283  13.519
91759W        W56920  27.634   4.994   2.180
91760W        W56921  17.644  18.714   1.622
91761W        W56922   0.611  17.815  13.109
91762W        W56923  12.552  40.307  12.941
91763W        W56924  43.240  12.691   0.873
91764W        W56925  15.179  30.388   3.190
91765W        W56926  42.981  42.508   2.386
91766W        W56927  19.257  12.886   1.838
91767W        W56928  22.805   1.457   2.924
91768W        W56929  22.555  16.216   4.951
91769W        W56930  25.808   4.933  14.863
91770W        W56931  44.931  13.702   1.167
91771W        W56932   5.644  30.885   0.002
91772W        W56933  19.499   9.175   2.767
91773W        W56934   9.928  38.553   0.301
91774W        W56935  22.733   4.332  14.490
91775W        W56936   3.933  34.643  14.331
91776W        W56937  22.113   3.407  12.130
91777W        W56938  21.613  19.688   2.653
91778W        W56939   6.030  44.768  10.727
91779W        W56940  21.307  23.094   0.273
91780W        W56941  26.123  29.454   2.803
91781W        W56942  35.821  36.964   2.888
91782W        W56943  26.591  12.705   5.479
91783W        W56944  16.726  38.610   2.945
91784W        W56945   4.893  17.059   0.402
91785W        W56946  39.345  33.881  14.710
91786W        W56947  41.302  43.346   2.395
91787W        W56948  43.346  36.497  12.745
91788W        W56949  15.350  18.729  12.471
91789W        W56950  41.706  40.034  13.473
91790W        W56951  15.519  30.822   4.988
91791W        W56952   3.252  39.874   1.724
91792W        W56953   4.815  41.355   3.665
91793W        W56954  30.994  21.234  10.920
91794W        W56955  10.739  14.552   1.258
91795W        W56956  27.011  15.520   2.596
91796W        W56957  21.322  39.335   3.555
91797W        W56958   6.786   9.309  10.569
91798W        W56959  23.645  17.639   2.182
91799W        W56960  12.108  19.201  11.619
91800W        W56961  24.467  40.269  12.462
91801W        W56962  31.225   5.919   0.074
91802W        W56963  39.076  12.179   4.488
91803W        W56964   8.155  38.799  11.005
91804W        W56965  21.187   4.142   0.372
91805W        W56966   6.041  23.013  11.841
91806W        W56967   4.778   5.553   4.111
91807W        W56968  26.394  42.490  14.825
91808W        W56969  12.766   5.387   4.229
91809W        W56970  44.389  20.180  11.361
91810W        W56971   8.685   8.499   0.768
91811W        W56972   3.489  13.903   4.933
91812W        W56973  12.461  10.792  11.091
91813W        W56974  17.965   9.256   2.736
91814W        W56975  31.025  33.002   2.712
91815W        W56976  21.546   2.532  14.685
91816W        W56977  31.130  33.793  11.086
91817W        W56978   1.172  13.816  14.894
91818W        W56979  13.421  43.814  10.706
91819W        W56980  39.423   2.012  13.984
91820W        W56981   2.258  37.882  13.810
91821W        W56982  42.836  21.979   3.662
91822W        W56983  21.640   0.543   3.795
91823W        W56984  33.011   3.905  10.537
91824W        W56985  38.718   4.974   4.330
91825W        W56986  27.749   8.725   5.398
91826W        W56987  21.443  44.842  11.608
91827W        W56988  11.769  38.918   3.580
91828W        W56989  16.812  13.275   4.075
91829W        W56990  38.202  24.075   2.440
91830W        W56991  25.724  23.496   3.791
91831W        W56992   2.414  29.437   0.781
91832W        W56993  38.656  28.994  11.499
91833W        W56994  40.641  19.233  11.054
91834W        W56995  17.192  41.868  11.574
91835W        W56996  12.616   8.836   3.352
91836W        W56997   9.282   1.253  13.449
91837W        W56998   5.258  34.861   2.833
91838W        W56999   8.466  43.205   0.736
91839W        W57000   7.158   0.966  10.688
91840W        W57001  41.290  27.614  12.396
91841W        W57002  22.277   3.827  11.851
91842W        W57003  40.329  36.731   2.156
91843W        W57004  43.886   8.161   2.875
91844W        W57005  40.805   4.506  11.088
91845W        W57006  44.490  43.981  14.972
91846W        W57007  35.068  34.834  14.489
91847W        W57008  34.398  32.716  11.931
91848W        W57009  18.060   5.118   1.844
91849W        W57010   7.177   3.412   2.735
91850W        W57011  19.127  32.682   3.164
91851W        W57012   3.732  21.691  11.107
91852W        W57013  17.188  13.200  11.674
91853W        W57014  20.577  24.440   2.355
91854W        W57015   9.833   5.764  11.141
91855W        W57016   4.363   3.713  14.470
91856W        W57017  32.424  33.833  12.412
91857W        W57018  12.267  32.139  10.743
91858W        W57019  31.455  10.838  11.506
91859W        W57020  22.752  21.643   3.349
91860W        W57021   3.179  17.716   1.453
91861W        W57022  27.021  42.455   4.834
91862W        W57023  31.820  36.554  14.444
91863W        W57024  16.703  16.140   2.796
91864W        W57025  14.202  26.581  10.640
91865W        W57026  27.341  24.276   9.726
91866W        W57027  30.213  40.407  13.435
91867W        W57028   2.947  40.877   1.811
91868W        W57029  30.645  33.052   4.753
91869W        W57030   8.837  12.374   1.125
91870W        W57031  34.420  41.347  12.340
91871W        W57032  18.180  35.908  14.648
91872W        W57033   4.678   9.214   0.735
91873W        W57034   4.906  23.149  13.501
91874W        W57035   7.350  14.226  12.806
91875W        W57036  26.518  41.070   4.510
91876W        W57037  31.099   2.902  10.954
91877W        W57038   5.856   8.278   4.809
91878W        W57039   9.648  15.705   0.430
91879W        W57040  31.658  16.083  13.909
91880W        W57041   7.116  29.163  14.896
91881W        W57042  13.281  11.869   0.977
91882W        W57043   0.292  31.552   0.302
91883W        W57044  21.335  22.691   3.106
91884W        W57045  44.398  17.805  13.455
91885W        W57046  12.110  39.258  12.493
91886W        W57047  31.531  43.422   0.466
91887W        W57048  19.675   6.169   3.648
91888W        W57049   1.458  18.054   2.641
91889W        W57050  10.652   7.594  10.859
91890W        W57051  16.638  27.288   0.073
91891W        W57052  26.529  42.841  11.481
91892W        W57053   9.198  22.033   0.685
91893W        W57054   2.923  24.404  14.982
91894W        W57055  34.140  27.643   3.446
91895W        W57056   3.472  22.596  13.312
91896W        W57057  35.134  28.716   3.678
91897W        W57058   4.438   0.262   1.275
91898W        W57059  29.152  26.645  11.101
91899W        W57060  19.973  39.393   2.375
91900W        W57061  20.677   7.724   1.678
91901W        W57062  37.147  26.013   0.356
91902W        W57063  16.743  39.613   0.202
91903W        W57064  10.346   6.610   4.276
91904W        W57065   3.271  17.027  13.858
91905W        W57066  34.906  25.254  14.949
91906W        W57067   5.263   4.771  11.158
91907W        W57068   0.091  31.154  14.315
91908W        W57069  24.474   7.735  12.152
91909W        W57070   1.268   0.033   3.252
91910W        W57071  34.821  41.071   4.614
91911W        W57072   9.623   4.856  12.408
91912W        W57073   3.482   3.513   4.758
91913W        W57074  21.253  14.321  14.299
91914W        W57075  29.168  15.810   3.723
91915W        W57076  27.852   7.656  11.066
91916W        W57077  16.920  17.938  13.704
91917W        W57078  22.312   7.707   1.725
91918W        W57079   9.665  21.964   4.094
91919W        W57080  38.387  36.599   0.258
91920W        W57081  21.035   5.646  11.498
91921W        W57082   3.735  38.785  10.875
91922W        W57083  44.741  27.110  13.275
91923W        W57084  19.220   3.560   1.434
91924W        W57085   5.261  21.130   1.958
91925W        W57086  23.212   4.169  10.727
91926W        W57087   1.644  15.116   3.785
91927W        W57088   6.799  43.200   2.171
91928W        W57089  23.156  11.397   3.403
91929W        W57090  44.457  29.198   0.897
91930W        W57091   6.820   2.989  12.829
91931W        W57092  23.112   4.276  14.838
91932W        W57093   6.703  35.604   3.133
91933W        W57094  23.580  25.878  14.337
91934W        W57095  28.826  29.214  11.016
91935W        W57096   1.340  14.574   0.275
91936W        W57097   2.709   7.515   1.815
91937W        W57098  19.637   5.852  14.305
91938W        W57099  24.951   4.260  11.531
91939W        W57100  17.670  17.968   2.028
91940W        W57101  36.320  34.461  12.486
91941W        W57102   0.401  28.264   4.126
91942W        W57103  11.654  44.975  10.477
91943W        W57104   9.398  36.931   3.422
91944W        W57105   9.673  15.708  13.094
91945W        W57106   2.278  15.359   4.590
91946W        W57107  11.460  23.927   1.238
91947W        W57108  20.305  42.790   1.065
91948W        W57109   7.019  29.637   5.017
91949W        W57110  43.455   4.384  10.733
91950W        W57111  14.002  43.011  10.243
91951W        W57112   2.810  10.836   0.294
91952W        W57113  25.102  28.808  10.713
91953W        W57114  35.839   7.858   0.795
91954W        W57115  13.431   6.727  11.912
91955W        W57116  15.897  18.082  10.641
91956W        W57117  36.936  32.896  11.096
91957W        W57118  13.859  21.562   2.826
91958W        W57119  33.935  30.140   2.832
91959W        W57120  17.760  22.481   1.360
91960W        W57121  36.102  26.576  13.003
91961W        W57122  38.041  10.787  11.803
91962W        W57123   2.751  44.754  13.962
91963W        W57124  26.550  22.669   3.292
91964W        W57125  28.213   9.696  14.930
91965W        W57126  37.902  39.276  13.102
91966W        W57127   4.699  35.993   4.164
91967W        W57128  15.318  31.199  11.184
91968W        W57129  17.538  20.919   4.531
91969W        W57130   2.588  16.244  13.952
91970W        W57131  39.808  30.450   3.344
91971W        W57132   3.530  20.667   2.856
91972W        W57133  22.643  31.031  11.938
91973W        W57134  32.924  40.003  14.795
91974W        W57135  19.861  22.461   2.319
91975W        W57136  33.965  29.523  10.795
91976W        W57137  33.685  37.446   1.300
91977W        W57138   8.984  30.017  13.526
91978W        W57139   5.863  38.587   1.454
91979W        W57140  24.667  32.370  11.137
91980W        W57141   9.386   1.756   0.779
91981W        W57142  27.124  26.223   2.732
91982W        W57143   7.074  32.522  14.287
91983W        W57144  34.874   8.830  14.290
91984W        W57145  30.429  11.632  11.579
91985W        W57146   3.728  44.379   0.417
91986W        W57147  11.612   6.405   4.182
91987W        W57148  34.500  39.495   0.083
91988W        W57149  18.033  27.661  11.216
91989W        W57150  44.730  41.830   0.568
91990W        W57151  39.476  25.782   3.297
91991W        W57152  27.902  23.487   2.852
91992W        W57153  12.610  29.168   2.199
91993W        W57154  27.409  42.196  14.790
91994W        W57155   9.395  28.965  12.923
91995W        W57156  43.865  12.063  10.648
91996W        W57157   5.126  44.963   2.697
91997W        W57158  18.327  21.041   2.794
91998W        W57159   9.762   5.467   4.671
91999W        W57160   1.261  42.751   0.327
92000W        W57161  38.394  25.995   2.787
92001W        W57162  34.072  25.422  14.926
92002W        W57163   4.496  12.301  13.609
92003W        W57164  33.886  32.998  12.907
92004W        W57165  13.238   7.204   4.482
92005W        W57166  37.768   8.918  10.383
92006W        W57167  25.537  27.727   1.069
92007W        W57168  28.468  41.217  14.399
92008W        W57169  15.691  24.185  11.840
92009W        W57170  26.205   3.603  12.278
92010W        W57171  41.647  18.468  14.952
92011W        W57172   5.227  12.327  12.558
92012W        W57173  43.950  15.287  11.936
92013W        W57174  30.426  19.250  13.986
92014W        W57175  11.167   1.262   0.796
92015W        W57176   9.354  20.740  10.687
92016W        W57177  12.361   2.861   3.058
92017W        W57178   3.063  44.883  10.277
92018W        W57179  17.058   7.230   3.270
92019W        W57180   8.154  29.407  13.752
92020W        W57181   9.848  43.830  13.425
92021W        W57182  40.912   6.853   0.720
92022W        W57183  28.150  30.040   3.701
92023W        W57184   6.341  41.484   1.299
92024W        W57185  15.988  13.024  11.194
92025W        W57186  31.972  44.275   3.373
92026W        W57187  40.256   3.083   1.438
92027W        W57188  27.639   4.741   1.715
92028W        W57189  41.189  10.345  14.285
92029W        W57190  29.857  31.416  10.646
92030W        W57191  35.868  10.372  12.106
92031W        W57192  15.718   3.734  11.872
92032W        W57193  14.613  42.474   3.731
92033W        W57194  41.758   3.491  10.416
92034W        W57195  44.756   0.065   4.160
92035W        W57196   7.685  11.367  12.450
92036W        W57197  13.236  27.032   4.214
92037W        W57198  13.731   1.576  10.742
92038W        W57199  21.376  35.270   2.268
92039W        W57200   0.139  20.213   3.658
92040W        W57201  36.327  29.840  13.899
92041W        W57202   4.799  41.978   0.967
92042W        W57203   2.894   0.374   2.638
92043W        W57204  31.174  11.546   4.475
92044W        W57205  25.086  27.014  12.448
92045W        W57206  12.878  25.967   0.028
92046W        W57207   4.990  38.498   2.326
92047W        W57208  27.022  12.170  10.158
92048W        W57209  28.085  41.858   0.257
92049W        W57210  36.827  26.007   0.763
92050W        W57211   7.221  42.496  14.312
92051W        W57212  18.111  39.137  14.821
92052W        W57213  14.683  29.986   2.743
92053W        W57214   9.782  15.135  10.742
92054W        W57215  41.586   7.691  12.238
92055W        W57216  13.770  12.879   2.776
92056W        W57217  12.768   6.350   2.136
92057W        W57218  30.483  30.268   3.243
92058W        W57219   1.691  18.149  12.909
92059W        W57220  22.172  39.962  11.877
92060W        W57221  36.795  15.771  11.628
92061W        W57222  15.499  23.502  11.450
92062W        W57223  10.296  18.009  14.547
92063W        W57224   6.841  19.583  13.511
92064W        W57225  12.662  34.446   3.881
92065W        W57226  27.709  16.593  12.097
92066W        W57227  22.954  13.090  12.954
92067W        W57228  13.297   0.908   4.531
92068W        W57229   4.200  21.085  14.093
92069W        W57230  24.943  32.068  12.892
92070W        W57231   1.206  26.507   2.430
92071W        W57232  16.661  29.749  11.570
92072W        W57233   5.883  23.896   4.909
92073W        W57234  40.486   6.053  14.873
92074W        W57235  22.852  35.252  11.838
92075W        W57236  43.067  26.304   2.216
92076W        W57237   1.412  26.200   3.749
92077W        W57238  37.167  28.998  10.737
92078W        W57239  42.232   4.576   4.461
92079W        W57240   1.192  23.758   0.910
92080W        W57241  11.051   3.918  12.004
92081W        W57242  16.075  20.509  12.869
92082W        W57243  19.265   9.941  13.419
92083W        W57244  35.335  28.046   3.259
92084W        W57245  13.079  28.183   2.129
92085W        W57246  43.685  22.446   3.973
92086W        W57247  31.480  42.629  12.453
92087W        W57248  40.249  25.926  14.780
92088W        W57249  22.991  12.894  13.487
92089W        W57250  44.766  25.452  10.694
92090W        W57251  16.648  34.812   2.594
92091W        W57252  39.346   6.805  14.914
92092W        W57253  41.628  21.337  13.000
92093W        W57254  11.215  35.707   3.245
92094W        W57255   3.876  14.001   2.027
92095W        W57256  13.730  43.674   1.192
92096W        W57257  38.798   7.930  14.379
92097W        W57258  38.305  11.342  13.756
92098W        W57259  13.474  22.262   3.055
92099W        W57260  29.466  29.688  10.377
92100W        W57261  16.204  16.831   2.870
92101W        W57262  36.946  21.133   4.264
92102W        W57263  41.422  33.501   4.394
92103W        W57264  22.689  34.451  12.878
92104W        W57265  18.579  13.850  12.298
92105W        W57266  11.229  24.717  12.061
92106W        W57267  35.800  25.959  13.878
92107W        W57268   7.358  24.935   0.003
92108W        W57269  36.688   3.863   4.424
92109W        W57270  10.399  19.745  11.528
92110W        W57271  12.087  41.800  11.423
92111W        W57272  38.117   3.348   0.921
92112W        W57273   2.983   4.724   3.776
92113W        W57274   1.695  21.219  10.600
92114W        W57275   5.244  38.759   3.123
92115W        W57276   5.255  17.826   1.980
92116W        W57277   0.987  30.448  10.677
92117W        W57278   4.405  13.281  13.400
92118W        W57279  28.178  26.557   4.611
92119W        W57280  15.769  13.369   1.225
92120W        W57281  43.338  22.152  13.909
92121W        W57282   8.730  33.612  12.351
92122W        W57283  34.449  20.058   1.851
92123W        W57284  14.183  27.406   3.243
92124W        W57285   5.911  20.852  14.932
92125W        W57286  23.283  10.835   3.659
92126W        W57287  18.635  31.305   3.296
92127W        W57288  17.309  18.352   0.943
92128W        W57289   1.532  20.781   1.202
92129W        W57290  28.660  34.552  11.403
92130W        W57291  25.193  43.439   1.428
92131W        W57292  19.730  20.818   0.841
92132W        W57293  12.199  30.990  12.116
92133W        W57294  15.240  19.324   0.669
92134W        W57295  14.165  13.834  11.810
92135W        W57296   3.886   2.540  10.527
92136W        W57297  12.898  27.446  13.386
92137W        W57298  15.023  32.386   3.631
92138W        W57299   0.285  29.133   3.647
92139W        W57300   2.442  19.925   4.301
92140W        W57301   8.815  20.459  12.315
92141W        W57302  21.661   7.153  13.958
92142W        W57303  16.977   9.286  13.842
92143W        W57304  38.390   9.399   1.277
92144W        W57305  19.623   4.502  10.576
92145W        W57306  41.440  20.333   0.758
92146W        W57307   0.446  42.954   0.845
92147W        W57308  29.147  41.046   0.436
92148W        W57309  43.424  35.906   2.135
92149W        W57310  24.051  35.195   4.213
92150W        W57311  40.424  18.565  10.730
92151W        W57312   9.490  31.051   0.965
92152W        W57313  23.219  30.558  13.937
92153W        W57314  22.507  37.315   2.962
92154W        W57315  28.805  30.552  13.961
92155W        W57316   3.945   8.674  14.136
92156W        W57317  12.606   2.211  11.618
92157W        W57318  25.512  41.109   9.810
92158W        W57319  11.446  14.107  11.172
92159W        W57320  29.179  32.670  12.008
92160W        W57321  12.804   6.436  14.043
92161W        W57322  16.134  31.547  13.790
92162W        W57323  30.209  16.920  14.366
92163W        W57324   9.176  44.700  11.671
92164W        W57325  43.367   2.067  14.294
92165W        W57326  40.637   8.752  12.538
92166W        W57327   0.818  39.660   0.061
92167W        W57328  24.537  39.111  14.851
92168W        W57329  31.998  40.774  14.147
92169W        W57330  14.675   3.430  11.978
92170W        W57331  13.771  26.352  12.602
92171W        W57332  12.112  26.155   3.615
92172W        W57333   3.954  24.899  10.692
92173W        W57334  18.771   7.764  11.160
92174W        W57335  25.937   0.391  12.631
92175W        W57336  20.484   0.056   1.910
92176W        W57337  38.006  12.663   2.158
92177W        W57338  13.045  19.590   3.991
92178W        W57339  27.832   2.908  14.010
92179W        W57340  31.084  44.216   2.158
92180W        W57341   0.342   9.405  10.934
92181W        W57342  13.729  15.081   4.222
92182W        W57343  42.987  12.177   4.150
92183W        W57344   6.737  38.550   0.412
92184W        W57345  26.563  19.651  11.319
92185W        W57346  14.290   5.016   0.926
92186W        W57347   4.944  30.624  11.956
92187W        W57348  30.059  21.166   2.148
92188W        W57349  18.081  35.784   4.558
92189W        W57350  11.780  32.135  14.055
92190W        W57351  12.094  29.202  14.818
92191W        W57352  31.620  33.925   2.288
92192W        W57353  31.948  27.249   0.484
92193W        W57354  33.041   1.213   3.135
92194W        W57355  41.000   5.975   4.616
92195W        W57356  21.181  13.607   1.631
92196W        W57357   4.264  14.551  12.495
92197W        W57358  27.506   9.636  14.447
92198W        W57359  27.173  36.320  11.199
92199W        W57360  35.821   7.213  14.358
92200W        W57361  38.433  34.359  14.891
92201W        W57362  16.668  17.169   1.848
92202W        W57363  11.597  33.561  11.370
92203W        W57364  14.322  34.857   1.691
92204W        W57365  33.483  11.609   1.903
92205W        W57366  22.029   2.344  12.340
92206W        W57367  30.354  10.758  14.223
92207W        W57368  36.916   7.759   4.553
92208W        W57369  19.623  37.445   0.231
92209W        W57370  25.347  38.997   2.271
92210W        W57371   4.615  11.980   4.138
92211W        W57372  23.505  14.567  12.767
92212W        W57373   7.600  18.745   0.787
92213W        W57374  29.228  15.065   1.318
92214W        W57375   8.398   5.870   2.149
92215W        W57376   8.894  12.985   2.763
92216W        W57377  21.062  11.997  12.384
92217W        W57378  28.686  38.396  11.218
92218W        W57379  33.539  29.741  13.470
92219W        W57380  26.198   6.607   4.298
92220W        W57381   4.334  17.481  10.737
92221W        W57382  33.654   1.446  12.521
92222W        W57383  29.788  35.676   1.165
92223W        W57384  22.079   6.883  10.520
92224W        W57385  20.525  12.191   3.269
92225W        W57386   6.289  26.019   2.326
92226W        W57387  20.213   6.500  14.720
92227W        W57388  39.706   8.866   3.817
92228W        W57389   2.003  28.922  10.652
92229W        W57390  10.481  35.483   2.800
92230W        W57391  15.425  28.090   3.051
92231W        W57392  13.441  15.735   0.841
92232W        W57393  25.633  15.230   0.451
92233W        W57394  28.624  25.982  14.859
92234W        W57395  44.557   1.583   5.145
92235W        W57396  42.832   2.741   0.297
92236W        W57397  31.407   7.869   4.748
92237W        W57398  21.578  11.522   0.471
92238W        W57399   0.510  14.180  10.444
92239W        W57400  25.214  29.456  11.248
92240W        W57401  35.068  11.713  14.501
92241W        W57402  11.997   2.943  12.133
92242W        W57403   7.368  10.448  12.777
92243W        W57404  32.690  28.980   1.233
92244W        W57405  26.665   5.276  13.325
92245W        W57406  35.294  10.672  13.761
92246W        W57407  39.445  26.058  13.798
92247W        W57408  40.863  35.102   3.513
92248W        W57409  41.201  20.677  11.643
92249W        W57410  40.103   0.259  13.253
92250W        W57411  44.341  10.079  14.009
92251W        W57412  27.116  14.626   1.640
92252W        W57413  38.817  38.518   1.131
92253W        W57414  17.332  38.038  10.192
92254W        W57415   8.836   7.815  12.395
92255W        W57416   2.034  41.541  11.534
92256W        W57417  10.756  35.156  13.839
92257W        W57418  36.845   7.611  12.613
92258W        W57419  20.924   8.354   3.281
92259W        W57420  34.362  27.378   3.827
92260W        W57421  22.322   4.518  13.044
92261W        W57422  14.542  25.094  13.758
92262W        W57423  39.478   2.682   2.892
92263W        W57424  43.987  43.895   2.090
92264W        W57425   6.344  19.646  14.803
92265W        W57426   8.343  37.492   2.358
92266W        W57427  20.413  44.883   0.977
92267W        W57428   1.306  12.623   0.626
92268W        W57429  38.843  17.255   4.362
92269W        W57430  27.275  24.978  12.527
92270W        W57431  24.617  39.211   2.595
92271W        W57432   4.703   4.376   0.309
92272W        W57433   9.309  23.261  14.494
92273W        W57434  35.320  31.528  13.971
92274W        W57435  14.798  15.929   1.301
92275W        W57436  39.330  43.694  12.910
92276W        W57437   7.819   0.102   2.822
92277W        W57438  35.537  13.680  12.322
92278W        W57439  39.432  25.769   1.271
92279W        W57440  21.212   3.461   1.421
92280W        W57441  13.121  33.957  14.051
92281W        W57442  14.699  32.097   4.364
92282W        W57443   2.105  17.674  14.119
92283W        W57444  12.283   3.025  13.907
92284W        W57445  30.055   7.879   1.368
92285W        W57446  21.531  31.889   0.484
92286W        W57447  25.343  41.440   4.553
92287W        W57448  38.125   1.766  14.502
92288W        W57449  17.184  16.039   3.024
92289W        W57450  31.752   1.211   3.727
92290W        W57451  13.572  40.845  11.216
92291W        W57452  39.999  32.351   2.956
92292W        W57453  15.207  36.884  11.913
92293W        W57454  37.429   6.214   2.776
92294W        W57455  44.461  22.500  11.135
92295W        W57456  26.285  38.998  11.907
92296W        W57457  25.211  20.091   3.672
92297W        W57458  32.103  27.011   0.051
92298W        W57459  26.928  42.482   0.749
92299W        W57460   4.847  39.827   0.894
92300W        W57461  33.988   7.652   2.262
92301W        W57462  43.993   1.005   1.279
92302W        W57463  22.626  25.988  12.437
92303W        W57464  28.090  30.495   2.749
92304W        W57465  40.279  14.847   0.566
92305W        W57466  15.220  14.225   2.361
92306W        W57467  42.555  25.508   2.580
92307W        W57468  20.640  36.557   3.968
92308W        W57469  24.541  14.066   3.807
92309W        W57470  34.609  12.017   3.166
92310W        W57471  36.641  44.230   9.744
92311W        W57472  29.009  11.090   9.994
92312W        W57473  39.942  43.675   1.514
92313W        W57474  10.762   0.652  11.566
92314W        W57475   7.273  37.216  11.074
92315W        W57476   8.239  10.163  13.570
92316W        W57477  41.086  14.548   3.270
92317W        W57478  42.872  40.737  14.862
92318W        W57479  23.176  37.802   1.251
92319W        W57480  43.176   3.343  11.656
92320W        W57481  29.473  17.228   3.274
92321W        W57482  15.044   5.756   3.194
92322W        W57483   9.306   6.847  12.428
92323W        W57484   2.010  10.130  13.278
92324W        W57485  43.427   1.957   0.554
92325W        W57486  16.092  15.824  10.681
92326W        W57487  37.120  30.597   2.273
92327W        W57488   3.239  20.157   1.278
92328W        W57489  29.898  37.308   3.974
92329W        W57490   7.855   0.555   0.928
92330W        W57491  35.380  42.862  11.810
92331W        W57492  40.105  31.800   0.620
92332W        W57493  44.702   1.506   4.210
92333W        W57494  29.608  31.315   4.208
92334W        W57495  44.735  24.791  11.891
92335W        W57496   3.651  13.711   0.892
92336W        W57497  42.892  43.251  10.607
92337W        W57498  23.070  11.032  10.131
92338W        W57499  41.714  24.399   0.619
92339W        W57500  18.552   4.351   3.880
92340W        W57501  21.540  30.100   3.191
92341W        W57502   9.219   3.194  13.316
92342W        W57503  34.390  19.380  11.972
92343W        W57504  27.665  34.077  14.739
92344W        W57505  10.075  36.985   4.585
92345W        W57506  31.938   1.509  14.991
92346W        W57507   9.192   6.766   0.499
92347W        W57508  34.441   8.857   4.960
92348W        W57509  25.751  23.004   0.756
92349W        W57510  36.552   6.205   2.244
92350W        W57511  40.885   6.332  10.548
92351W        W57512  43.973  40.490   1.379
92352W        W57513  15.262  31.235   4.792
92353W        W57514  23.994  23.223   5.584
92354W        W57515  44.860  28.184   4.198
92355W        W57516  27.591  17.983   1.430
92356W        W57517  29.251  15.991  11.330
92357W        W57518  19.304  37.022  13.413
92358W        W57519  26.245  35.894  14.665
92359W        W57520  28.930  40.378   1.867
92360W        W57521   8.430  30.428   0.871
92361W        W57522  41.282  33.698  13.797
92362W        W57523  20.093  16.706   1.686
92363W        W57524   2.936  14.503  12.020
92364W        W57525  38.028  18.710   2.616
92365W        W57526   2.639  38.616  14.794
92366W        W57527  10.841  38.098   1.890
92367W        W57528   6.875  17.859  11.085
92368W        W57529   5.153  23.933   2.391
92369W        W57530  22.437  24.729  11.140
92370W        W57531  42.527  41.900  14.881
92371W        W57532  22.543   0.329   4.273
92372W        W57533   7.295   7.461  11.650
92373W        W57534   8.704  15.610  10.657
92374W        W57535  42.998   3.126   0.832
92375W        W57536   3.172  14.317   4.616
92376W        W57537   7.403  14.685   1.916
92377W        W57538   8.558  14.616  12.516
92378W        W57539   4.642  38.946  13.347
92379W        W57540  20.483   1.507   0.607
92380W        W57541  29.613  11.314   4.496
92381W        W57542  25.474   4.737  11.821
92382W        W57543   2.441  16.986  11.386
92383W        W57544  36.504  30.825  14.872
92384W        W57545  13.816  29.915   1.221
92385W        W57546   2.795  21.205  13.511
92386W        W57547  14.739  16.108  14.453
92387W        W57548  20.816  10.831  14.294
92388W        W57549   1.687   4.310  12.534
92389W        W57550  23.506   3.948  12.012
92390W        W57551   0.501  40.867  12.316
92391W        W57552  28.166  40.591  13.976
92392W        W57553  29.887  12.816   3.358
92393W        W57554   6.107  23.579  13.205
92394W        W57555  29.412  34.138  13.041
92395W        W57556  17.374  35.572  13.595
92396W        W57557  21.875  29.572  14.957
92397W        W57558  24.893  35.274  11.604
92398W        W57559  19.606   4.485   2.151
92399W        W57560  23.622  18.851   2.235
92400W        W57561   2.750   2.258  10.586
92401W        W57562  35.134  17.984  13.484
92402W        W57563  12.739   1.061   0.943
92403W        W57564  41.703  24.557   2.061
92404W        W57565  35.268  22.300  11.664
92405W        W57566  15.703  19.091   2.425
92406W        W57567  19.225  28.885   0.992
92407W        W57568  23.322  22.104  10.835
92408W        W57569  20.765  23.434   3.312
92409W        W57570  22.540   8.920  14.898
92410W        W57571  13.709  30.373  10.633
92411W        W57572  21.791  18.541  12.403
92412W        W57573  31.158   1.529  12.345
92413W        W57574   2.775  15.098   3.752
92414W        W57575  42.857  39.929  13.325
92415W        W57576  30.465  30.928  11.074
92416W        W57577  43.767   4.257  11.125
92417W        W57578  24.729  29.694  13.909
92418W        W57579  23.028  32.139   2.394
92419W        W57580  33.427  43.105  13.482
92420W        W57581  29.440  41.465   3.214
92421W        W57582  24.164  28.191   2.160
92422W        W57583  15.743  19.332   3.835
92423W        W57584  16.435   4.426  12.990
92424W        W57585  14.117  42.731   0.738
92425W        W57586   8.094   8.818   3.812
92426W        W57587   8.506   1.739  10.716
92427W        W57588  31.023  35.903   9.643
92428W        W57589  32.727  35.396  12.661
92429W        W57590  10.660  10.713  12.972
92430W        W57591  31.298  30.514  11.884
92431W        W57592  35.833  30.544  11.456
92432W        W57593  29.017   6.406  14.867
92433W        W57594  37.326  19.043   1.297
92434W        W57595  40.500  44.377   2.607
92435W        W57596  39.885  26.674  11.520
92436W        W57597  11.200  42.977   2.624
92437W        W57598  29.805   0.650   4.204
92438W        W57599  22.769  41.127  10.791
92439W        W57600  29.039  33.053   1.513
92440W        W57601  39.829  35.835   0.863
92441W        W57602  37.791  39.402   1.374
92442W        W57603  29.345  19.578  14.081
92443W        W57604  28.836  13.142  12.223
92444W        W57605   8.303  13.245  13.981
92445W        W57606   6.672  32.375   0.957
92446W        W57607   2.757  15.560   4.681
92447W        W57608   2.443  12.185   1.932
92448W        W57609  20.935  43.475  12.950
92449W        W57610   4.911   2.936   4.101
92450W        W57611  23.182   3.439  14.072
92451W        W57612   5.996   5.558  14.994
92452W        W57613  11.598   8.898  12.440
92453W        W57614  35.835  36.505  10.724
92454W        W57615   2.123  21.557  11.563
92455W        W57616  41.467  21.763   4.753
92456W        W57617  27.117  19.149   2.734
92457W        W57618  38.879  26.205  14.999
92458W        W57619   7.011  13.107  14.321
92459W        W57620   6.838  38.351  10.738
92460W        W57621  44.646  17.833   2.156
92461W        W57622   6.815  10.265  13.370
92462W        W57623   2.342  11.726   3.561
92463W        W57624   8.340  42.775   3.643
92464W        W57625  41.582  27.414   4.762
92465W        W57626  30.889  30.984   3.109
92466W        W57627   4.761  41.207   4.686
92467W        W57628   3.857  14.279   3.305
92468W        W57629  27.021  40.216   4.620
92469W        W57630  16.996  21.528  13.693
92470W        W57631  36.209  40.841  11.224
92471W        W57632  11.123  19.110   2.752
92472W        W57633  11.324  26.437   5.114
92473W        W57634  42.733  19.918   0.523
92474W        W57635  11.720  28.669   2.354
92475W        W57636  27.405   3.191  11.569
92476W        W57637   9.644   9.816   4.085
92477W        W57638  27.391  15.647  14.260
92478W        W57639   8.236  31.571  13.851
92479W        W57640   0.778   2.416  13.285
92480W        W57641  16.593  20.023   2.143
92481W        W57642  27.162  35.324   3.751
92482W        W57643  39.432  24.125   3.422
92483W        W57644  24.959  19.096   3.679
92484W        W57645  20.581  29.529   1.430
92485W        W57646  19.204  30.109   0.370
92486W        W57647   2.662  24.456  11.717
92487W        W57648  32.962  20.482   3.680
92488W        W57649  14.501  44.275  13.387
92489W        W57650   8.204   6.111   2.935
92490W        W57651  23.005   7.375   3.126
92491W        W57652  15.635  39.557  13.066
92492W        W57653  19.456  30.911  13.325
92493W        W57654  43.885  32.993  12.394
92494W        W57655  31.978  36.811  12.040
92495W        W57656   0.260  30.863  14.744
92496W        W57657  21.595  13.601   4.716
92497W        W57658  10.775  27.537  13.018
92498W        W57659  41.017  19.121  11.946
92499W        W57660  32.077  11.803   4.044
92500W        W57661  31.196  44.851   1.094
92501W        W57662  22.132  27.910   1.266
92502W        W57663   8.712   5.463   3.613
92503W        W57664  41.437  29.872  12.171
92504W        W57665  30.994  38.120  12.487
92505W        W57666  36.111  21.878   2.323
92506W        W57667   1.557   0.606   4.732
92507W        W57668  43.028   0.443  12.867
92508W        W57669  34.879  40.755   0.800
92509W        W57670  23.675  26.659  12.874
92510W        W57671  12.273   4.744  10.781
92511W        W57672  25.954  36.913  10.199
92512W        W57673  35.349   0.531   1.827
92513W        W57674  36.891   7.787  13.410
92514W        W57675  34.359   0.171  10.746
92515W        W57676  41.495   7.273  10.905
92516W        W57677  25.911  38.811   0.053
92517W        W57678  27.186   4.903  12.505
92518W        W57679   5.896  30.553   2.695
92519W        W57680  31.472  14.255   1.899
92520W        W57681  22.282  41.908  10.669
92521W        W57682  43.827  30.545   3.227
92522W        W57683   6.887  15.635  10.680
92523W        W57684  11.373  26.429  13.409
92524W        W57685  28.230   3.789  14.762
92525W        W57686  29.845  43.733  14.984
92526W        W57687   5.480  21.309   1.526
92527W        W57688  43.935  27.514   3.530
92528W        W57689  35.452   3.789   1.917
92529W        W57690   3.428  23.940   3.366
92530W        W57691  10.229  18.056   0.518
92531W        W57692  28.678   9.111  13.264
92532W        W57693  26.174  29.453  13.864
92533W        W57694   3.386   1.844  11.638
92534W        W57695  20.502   8.269  14.497
92535W        W57696  26.975   9.914   0.123
92536W        W57697  29.190  28.330  12.941
92537W        W57698  39.343  17.749   4.958
92538W        W57699  22.227  30.613  10.447
92539W        W57700  40.856  37.754  13.986
92540W        W57701  21.022  39.123  14.877
92541W        W57702   2.775  38.836  14.317
92542W        W57703   3.545   8.064   3.917
92543W        W57704  35.707   5.829   1.827
92544W        W57705  18.106  19.788   2.167
92545W        W57706  24.421  36.580   2.166
92546W        W57707  41.913  26.234   0.282
92547W        W57708  19.599  10.657   4.419
92548W        W57709  17.089  15.698   4.959
92549W        W57710  35.256  31.021  10.218
92550W        W57711  20.987  28.416  11.571
92551W        W57712  26.462  42.351   3.575
92552W        W57713  28.164  19.138   4.353
92553W        W57714  32.228  40.909   0.769
92554W        W57715   3.352  40.469  12.492
92555W        W57716   7.229   4.886  12.134
92556W        W57717  22.089   8.344  11.655
92557W        W57718  44.335  10.363   2.233
92558W        W57719  17.190   2.221   3.484
92559W        W57720  38.649   4.900  12.383
92560W        W57721  22.736  38.466  12.018
92561W        W57722  16.827  31.881  13.054
92562W        W57723   2.888   1.364  10.691
92563W        W57724  28.108  39.792   3.595
92564W        W57725   3.781  16.604   1.077
92565W        W57726  19.549  16.051  13.816
92566W        W57727  20.134  24.874  14.470
92567W        W57728   0.828  31.659  12.226
92568W        W57729  41.887  32.638   3.698
92569W        W57730  36.150  44.379  10.725
92570W        W57731  30.241  24.592   2.118
92571W        W57732  43.505  18.958  14.912
92572W        W57733   2.823  20.266  12.546
92573W        W57734  35.621  26.189   3.378
92574W        W57735  25.450  28.014   4.168
92575W        W57736  14.774  10.586  13.101
92576W        W57737  40.450  36.920  13.046
92577W        W57738  27.022  33.590  14.516
92578W        W57739  19.850  17.475  14.035
92579W        W57740  38.493  20.753   3.587
92580W        W57741  37.567  39.721   2.830
92581W        W57742  16.498  31.541   3.234
92582W        W57743  17.039  25.398  13.783
92583W        W57744  33.583  31.574   1.156
92584W        W57745  16.863   3.811  13.517
92585W        W57746  38.836  42.733  14.880
92586W        W57747  19.542  25.647   4.569
92587W        W57748  20.651  12.430   4.621
92588W        W57749  18.228  40.735   2.727
92589W        W57750   4.521   7.915   4.209
92590W        W57751   6.676  25.233   5.516
92591W        W57752  27.458  12.774   5.176
92592W        W57753  39.131  10.921  12.979
92593W        W57754   1.373  43.547  14.015
92594W        W57755  10.248  21.869  13.951
92595W        W57756   7.104  19.200  12.488
92596W        W57757  20.739   3.827  11.480
92597W        W57758  12.619  27.653  14.308
92598W        W57759  30.816  21.482   4.478
92599W        W57760  13.829  32.722  14.858
92600W        W57761  19.805  44.589   4.970
92601W        W57762  21.291   8.199   4.154
92602W        W57763  34.152  42.279   0.967
92603W        W57764  30.682   1.808   1.425
92604W        W57765  35.764  37.892  10.166
92605W        W57766   9.542  35.538   3.875
92606W        W57767   1.679  38.901  14.454
92607W        W57768  14.965  18.503   3.713
92608W        W57769  10.840  14.384   2.767
92609W        W57770  26.539   6.264  13.772
92610W        W57771   7.405  33.638   0.777
92611W        W57772  17.321   3.469  11.912
92612W        W57773  44.470  33.137  13.377
92613W        W57774   7.365   9.077  14.392
92614W        W57775   4.686  11.841  11.150
92615W        W57776  39.548  34.616  10.763
92616W        W57777  20.116  21.151   2.196
92617W        W57778  22.679   1.802   0.355
92618W        W57779  22.852   9.308  10.988
92619W        W57780  33.839  21.753  14.345
92620W        W57781  22.221  12.418   4.123
92621W        W57782  24.494  39.850  14.338
92622W        W57783  36.937  13.239   4.630
92623W        W57784  14.646   0.721   4.680
92624W        W57785   9.392  40.886   4.169
92625W        W57786  29.637  10.539  11.059
92626W        W57787   3.531  24.894   0.940
92627W        W57788   5.800  11.600   1.759
92628W        W57789  39.561  19.157   3.884
92629W        W57790  14.353   1.939   1.664
92630W        W57791   8.208  24.715  11.581
92631W        W57792  29.455  29.293  13.034
92632W        W57793   4.897  37.869  14.946
92633W        W57794  10.694   9.947   3.771
92634W        W57795   0.741  29.058   4.737
92635W        W57796  30.120  31.200   4.084
92636W        W57797   2.825   7.913  10.585
92637W        W57798  39.052  19.639  12.639
92638W        W57799  10.325  11.625   0.227
92639W        W57800  39.774  19.011  14.377
92640W        W57801  31.477  26.870   1.724
92641W        W57802  16.596  23.454  12.946
92642W        W57803  36.910   9.417   4.388
92643W        W57804  35.328  13.134  14.818
92644W        W57805  37.285  34.216  14.897
92645W        W57806   6.284  34.870  12.033
92646W        W57807  16.501  38.911  12.971
92647W        W57808  26.548  33.837   3.200
92648W        W57809  12.642  39.467   4.747
92649W        W57810  20.957   8.697   1.437
92650W        W57811  26.639  25.559  13.289
92651W        W57812   2.595   1.973   2.565
92652W        W57813   2.594  42.944  14.042
92653W        W57814   6.241  17.242   0.025
92654W        W57815  22.508  42.919   1.253
92655W        W57816  37.382  19.382  13.540
92656W        W57817  11.240  32.487  14.982
92657W        W57818  39.857   0.361  13.684
92658W        W57819  29.089  31.092   3.795
92659W        W57820  25.072   8.668   2.127
92660W        W57821  23.701   4.201   4.648
92661W        W57822  18.739  17.770   0.213
92662W        W57823  39.972  35.382  10.620
92663W        W57824  19.949  41.815  10.526
92664W        W57825  16.032  21.584   3.039
92665W        W57826  24.520  29.010   2.566
92666W        W57827  35.794  17.999  12.353
92667W        W57828  32.265   4.786  12.361
92668W        W57829  24.519  41.402  13.073
92669W        W57830   0.356  14.761   3.092
92670W        W57831  14.266  19.959   1.094
92671W        W57832  36.059  30.481   1.309
92672W        W57833   4.122  35.829  14.811
92673W        W57834  20.048  23.303  13.052
92674W        W57835  16.826  42.911  10.193
92675W        W57836  15.650  35.687  11.700
92676W        W57837  39.536  32.932   3.617
92677W        W57838  20.296  18.795  11.680
92678W        W57839   4.994  15.296   3.215
92679W        W57840  33.455   0.702   4.988
92680W        W57841  12.118  38.432   2.799
92681W        W57842   1.291  24.612  11.584
92682W        W57843   8.949  37.548  10.488
92683W        W57844  18.462  12.466   3.669
92684W        W57845  25.510   0.148   3.629
92685W        W57846   2.948  18.030  13.539
92686W        W57847  31.172   6.622  13.451
92687W        W57848  22.832  23.157   3.640
92688W        W57849  38.865  43.552   5.008
92689W        W57850  18.994   7.706  10.700
92690W        W57851  41.345  10.830  14.389
92691W        W57852  24.758  38.505  13.144
92692W        W57853  23.659  13.497  11.967
92693W        W57854  43.529  39.838   4.866
92694W        W57855  37.280  20.008  13.980
92695W        W57856  31.457  19.587  12.128
92696W        W57857  43.816  20.986  13.991
92697W        W57858  42.185  18.694   3.866
92698W        W57859  33.883  25.646   0.396
92699W        W57860  21.030   1.001   2.631
92700W        W57861  33.705  29.123   2.207
92701W        W57862  20.500  27.004  14.287
92702W        W57863  12.994  14.735  10.628
92703W        W57864  24.210  15.551  11.586
92704W        W57865  30.416  23.675   2.644
92705W        W57866  18.562  18.621  14.350
92706W        W57867  36.551   0.918   0.852
92707W        W57868  13.057  38.187  13.418
92708W        W57869  25.580  25.388   1.531
92709W        W57870  15.540  29.013  13.927
92710W        W57871  13.769  34.104   0.534
92711W        W57872   8.141   1.581   2.352
92712W        W57873  25.496  36.995   2.491
92713W        W57874  18.037   7.692   3.450
92714W        W57875  35.397  44.233  13.924
92715W        W57876   6.281  29.445   3.153
92716W        W57877  33.869  33.837  11.495
92717W        W57878  21.937  31.018   0.755
92718W        W57879  43.806  39.751  10.071
92719W        W57880  40.590   7.787  11.650
92720W        W57881  27.952  38.779   0.286
92721W        W57882  16.472  30.333   2.696
92722W        W57883  44.336  19.463  12.273
92723W        W57884  39.055  18.908  13.311
92724W        W57885  43.946  20.522   0.902
92725W        W57886  19.238  18.823  11.417
92726W        W57887  34.797  24.545   4.123
92727W        W57888  23.311  43.024  11.076
92728W        W57889   4.990  41.528  13.070
92729W        W57890  22.996  36.761   0.500
92730W        W57891  10.127  35.484   4.866
92731W        W57892  35.544  18.709  12.844
92732W        W57893  23.125  22.721   4.682
92733W        W57894   1.588  41.822  11.626
92734W        W57895   3.786   1.817   3.443
92735W        W57896  32.381  31.947  12.495
92736W        W57897  24.419   6.944  12.522
92737W        W57898  12.838  42.462  14.798
92738W        W57899  27.537  18.230  13.935
92739W        W57900  38.643  17.224   2.763
92740W        W57901   5.767  13.022  13.475
92741W        W57902  22.951  34.936  12.590
92742W        W57903  20.198  39.270   0.165
92743W        W57904   7.647  23.992   4.521
92744W        W57905  39.143   3.131  12.972
92745W        W57906  14.028   7.656   4.921
92746W        W57907   3.342  39.811  14.992
92747W        W57908  22.096   2.979   0.857
92748W        W57909   0.702  32.688  13.344
92749W        W57910   7.160  33.581   2.232
92750W        W57911   6.257  33.880   0.506
92751W        W57912  30.577  42.791  14.613
92752W        W57913   9.750  33.058   0.785
92753W        W57914  16.344  32.212   0.819
92754W        W57915   8.785  24.459  14.777
92755W        W57916  17.663  36.110   3.210
92756W        W57917   6.948  37.654  10.280
92757W        W57918  25.468  38.715  14.780
92758W        W57919   2.485  17.737  12.119
92759W        W57920  42.650  31.885  10.686
92760W        W57921  25.089  37.261   0.103
92761W        W57922  15.341  35.568   4.535
92762W        W57923  34.415  14.711   0.402
92763W        W57924  37.180  43.446  12.547
92764W        W57925  19.480  24.150  11.668
92765W        W57926  27.212  21.198  11.373
92766W        W57927  33.678  23.050   0.465
92767W        W57928  39.006  34.084   2.382
92768W        W57929  11.573  16.120  13.507
92769W        W57930  24.835   8.645   3.371
92770W        W57931  12.186  28.944   3.231
92771W        W57932  26.037  28.116   0.471
92772W        W57933  20.679  27.209  13.863
92773W        W57934  39.003  43.601  11.670
92774W        W57935  27.618  41.774   4.528
92775W        W57936  44.882  24.003   1.858
92776W        W57937   6.198  41.505   4.168
92777W        W57938  37.560  18.225   0.866
92778W        W57939  21.665  41.730   3.102
92779W        W57940   1.250   9.642  12.789
92780W        W57941  21.552  33.739  12.119
92781W        W57942  44.004   5.661  12.859
92782W        W57943  43.755   2.909  10.944
92783W        W57944   3.848   4.451   1.351
92784W        W57945  19.013  13.665   4.693
92785W        W57946  17.211  19.799  12.928
92786W        W57947  16.150  22.439   3.315
92787W        W57948   7.777  37.075  12.946
92788W        W57949  21.144  29.971  13.939
92789W        W57950  22.947  11.773  10.245
92790W        W57951  11.556  25.032  11.373
92791W        W57952  18.211  20.739   2.355
92792W        W57953  15.985  39.112   3.185
92793W        W57954  21.115  44.584   2.604
92794W        W57955  20.178   3.989   2.748
92795W        W57956  28.741  35.079  11.584
92796W        W57957  33.915  30.888   3.845
92797W        W57958  20.894  14.257   4.257
92798W        W57959  34.211  17.649  13.076
92799W        W57960  42.949   2.417  14.384
92800W        W57961   5.137  29.553   2.329
92801W        W57962  36.032  27.476  14.906
92802W        W57963  14.835  38.982  12.484
92803W        W57964  28.486  13.699  14.269
92804W        W57965   5.883  18.783  12.925
92805W        W57966   4.652  22.091  12.108
92806W        W57967  10.468  28.523  11.509
92807W        W57968  20.779  36.966   2.632
92808W        W57969   6.777  10.462   2.631
92809W        W57970  18.602   2.359  12.947
92810W        W57971  41.069  39.728   9.926
92811W        W57972   6.571  36.110  13.857
92812W        W57973  30.177  44.631   0.888
92813W        W57974   4.368   7.211   1.877
92814W        W57975   4.856  41.151  14.806
92815W        W57976  11.670  13.544   3.391
92816W        W57977   6.934  38.056  14.882
92817W        W57978  14.683  36.602   4.080
92818W        W57979  19.941  13.842   0.458
92819W        W57980   7.684  37.514   3.143
92820W        W57981  22.894   1.962   4.182
92821W        W57982   0.856  24.599   2.574
92822W        W57983  23.673  26.078  11.130
92823W        W57984   0.935  17.354  13.472
92824W        W57985  37.026  37.509   1.576
92825W        W57986  27.318   2.477  10.731
92826W        W57987  20.785  25.504   4.125
92827W        W57988  22.107  11.875  10.523
92828W        W57989  39.868  12.287  10.788
92829W        W57990  14.093  35.900  11.232
92830W        W57991  21.818  26.156  11.835
92831W        W57992  24.459   1.830   2.318
92832W        W57993  25.437  29.215  12.797
92833W        W57994  42.920  27.695   0.319
92834W        W57995  35.556  25.542  10.892
92835W        W57996  19.072  37.691  12.420
92836W        W57997  18.009  36.687  14.177
92837W        W57998  17.760  17.222   1.514
92838W        W57999  27.189  31.574  10.731
92839W        W58000  30.129  43.917  12.353
92840W        W58001   0.830  19.801   2.499
92841W        W58002  38.581  24.561   4.026
92842W        W58003  13.478  27.779   2.257
92843W        W58004  20.462  44.627   0.174
92844W        W58005  13.759   5.879  12.932
92845W        W58006  39.377   8.840  13.876
92846W        W58007  44.470  23.060   1.170
92847W        W58008  24.939  39.480   0.501
92848W        W58009   7.343  28.541   2.593
92849W        W58010   1.027  21.347  12.832
92850W        W58011  31.687   5.437  12.039
92851W        W58012  42.519  40.953   4.324
92852W        W58013  14.336  20.639  13.351
92853W        W58014  23.109  44.306  10.750
92854W        W58015  22.827  12.666   3.481
92855W        W58016   8.490  41.311   1.687
92856W        W58017   3.496  33.643   2.838
92857W        W58018  27.684  37.414  14.395
92858W        W58019   2.293  34.427   4.089
92859W        W58020  32.804  42.308   2.158
92860W        W58021  33.555   2.426   0.770
92861W        W58022  13.749  16.233   3.463
92862W        W58023  14.018   2.272   1.957
92863W        W58024  17.546  33.924   2.160
92864W        W58025   6.364  30.095   1.297
92865W        W58026  42.939   0.486  12.369
92866W        W58027  13.754   4.387   1.179
92867W        W58028  11.553  31.237   2.218
92868W        W58029   2.116  30.484   0.069
92869W        W58030   7.818   2.693  12.153
92870W        W58031  32.484  21.685  12.638
92871W        W58032  21.560  16.199   0.882
92872W        W58033  19.242  41.034   1.814
92873W        W58034  14.284   5.217  14.455
92874W        W58035  28.967  28.588   2.097
92875W        W58036  44.780  41.230  12.683
92876W        W58037  21.047  38.391   9.980
92877W        W58038  42.250   1.949   3.637
92878W        W58039   9.826  17.697   3.071
92879W        W58040  41.151   4.903   1.661
92880W        W58041  22.804  17.580   1.010
92881W        W58042  13.399  44.922  14.446
92882W        W58043  22.983  34.111   4.165
92883W        W58044   7.921  31.522   4.891
92884W        W58045  18.140  18.177  12.489
92885W        W58046   0.483  44.933   0.096
92886W        W58047   4.081  26.911   0.483
92887W        W58048  38.472  12.346   2.310
92888W        W58049  28.908  22.462  14.777
92889W        W58050  20.671  24.245   0.512
92890W        W58051   3.285  31.199   4.087
92891W        W58052  25.148  39.066   0.729
92892W        W58053  15.246  35.134  13.074
92893W        W58054  40.026  38.331   2.765
92894W        W58055  35.735   2.422  14.403
92895W        W58056   4.764  37.586   4.746
92896W        W58057   0.534  39.420  12.013
92897W        W58058  30.195  18.700  11.105
92898W        W58059  24.534  15.279   1.258
92899W        W58060   3.432   2.710  13.671
92900W        W58061  18.823  34.919  12.955
92901W        W58062   1.030   3.411   1.877
92902W        W58063  12.823  35.529  14.758
92903W        W58064   1.671  31.566   3.374
92904W        W58065  11.830  32.974   2.879
92905W        W58066  10.691  22.739   1.155
92906W        W58067  38.301   3.293  13.484
92907W        W58068  37.594  28.042   3.120
92908W        W58069   8.907  32.971   4.455
92909W        W58070  27.025  15.667   0.407
92910W        W58071  11.188  32.900   4.250
92911W        W58072   7.926  12.615  13.448
92912W        W58073  37.575  20.594   4.075
92913W        W58074  26.061   6.218  12.435
92914W        W58075   2.713   4.337  14.010
92915W        W58076  18.127  24.360  14.847
92916W        W58077  25.124  20.064   1.650
92917W        W58078  25.269  23.159   1.880
92918W        W58079   4.375  27.661  10.809
92919W        W58080  17.962  37.996  13.148
92920W        W58081  13.364  30.046   4.562
92921W        W58082  16.292  25.109   2.139
92922W        W58083  23.528  29.081  12.132
92923W        W58084  33.060   0.761   0.025
92924W        W58085  28.837  37.914  11.726
92925W        W58086   7.938  25.055   1.313
92926W        W58087  36.622  19.140  14.586
92927W        W58088  19.559  29.012   2.007
92928W        W58089  44.781   5.284  14.286
92929W        W58090  24.026   2.311   4.910
92930W        W58091  44.259  21.052   4.772
92931W        W58092  21.766  22.770   0.898
92932W        W58093  13.300  37.003  14.394
92933W        W58094   7.879  24.310  13.858
92934W        W58095  41.381  38.448   1.415
92935W        W58096  17.811  32.685  14.516
92936W        W58097  19.625  10.110  11.566
92937W        W58098  41.476  30.414   4.081
92938W        W58099  39.812  22.081  10.740
92939W        W58100  22.852  32.615   1.875
92940W        W58101  41.575   9.556  14.811
92941W        W58102   1.349  31.956  11.920
92942W        W58103  42.381  10.737  13.578
92943W        W58104  27.933  25.550  10.671
92944W        W58105  39.158  12.283  14.021
92945W        W58106   4.300  29.929   3.559
92946W        W58107  18.821  14.676  10.465
92947W        W58108  33.204  39.532  14.828
92948W        W58109   6.138  30.103  13.130
92949W        W58110  31.437  34.589  14.397
92950W        W58111  37.071   4.655   1.769
92951W        W58112  17.703  43.593  13.439
92952W        W58113  42.383  31.961   0.795
92953W        W58114   9.335   6.673  11.920
92954W        W58115  22.073  36.117  13.524
92955W        W58116  29.045  30.981  13.754
92956W        W58117  38.106  25.163   4.140
92957W        W58118  39.288  24.273  11.994
92958W        W58119   0.059  39.668   2.345
92959W        W58120   0.309  41.949  13.378
92960W        W58121  18.754   0.326  14.048
92961W        W58122  38.289  22.099  11.336
92962W        W58123   8.229  20.969  12.087
92963W        W58124   0.040   9.566   3.957
92964W        W58125  29.094  34.098   1.907
92965W        W58126   2.963   2.906  13.848
92966W        W58127  22.682  41.586  14.002
92967W        W58128  21.615  40.539  11.093
92968W        W58129  20.443  36.950   1.339
92969W        W58130  14.308  11.719   2.184
92970W        W58131   7.400  26.421  14.794
92971W        W58132  16.054  27.852   1.266
92972W        W58133  14.375  11.437  12.005
92973W        W58134  18.492  11.366  13.112
92974W        W58135  37.898  17.160  12.540
92975W        W58136  38.950  24.776   1.363
92976W        W58137  44.504  13.168   2.367
92977W        W58138  32.838  13.323  11.268
92978W        W58139   9.952  31.420  13.098
92979W        W58140  21.222   4.341   1.395
92980W        W58141   5.588  16.359   1.059
92981W        W58142  26.549  16.026  11.523
92982W        W58143  24.173  18.759  13.828
92983W        W58144   0.305  16.670  10.920
92984W        W58145   0.971   9.952   4.124
92985W        W58146  21.756  34.907   3.285
92986W        W58147  26.526  10.944  14.371
92987W        W58148   8.165  27.606   4.225
92988W        W58149  19.489  28.220  13.310
92989W        W58150   5.173  29.463  13.471
92990W        W58151  22.892   8.931   5.011
92991W        W58152  23.573  21.600   1.845
92992W        W58153  13.696   5.980   2.293
92993W        W58154   0.535  43.986  14.930
92994W        W58155  21.268  23.584   3.543
92995W        W58156  25.868   3.816   4.161
92996W        W58157  24.006  24.229   0.886
92997W        W58158  23.587  25.555  13.935
92998W        W58159  29.325  12.844   1.286
92999W        W58160  16.791  33.963  14.932
93000W        W58161  37.114  10.039   4.989
93001W        W58162  21.669  17.291   2.461
93002W        W58163  14.406  19.950  11.685
93003W        W58164  19.059  33.239   0.580
93004W        W58165  30.211  30.551  12.872
93005W        W58166   1.444  44.485   1.031
93006W        W58167  37.825  39.632  13.579
93007W        W58168  17.032   8.211   0.385
93008W        W58169  42.056  29.653  12.762
93009W        W58170   5.070  24.576   1.350
93010W        W58171   7.181  27.176  12.192
93011W        W58172  44.765  29.008  12.405
93012W        W58173  29.669  43.935   1.372
93013W        W58174  30.996  15.188  13.877
93014W        W58175  44.258  28.546   2.178
93015W        W58176  12.825  27.642   3.221
93016W        W58177  14.892  36.542  11.108
93017W        W58178  40.549  24.478  10.459
93018W        W58179   3.518   3.126  12.176
93019W        W58180  38.170   8.163   0.840
93020W        W58181   3.457  20.921  13.550
93021W        W58182  18.035  14.150   0.879
93022W        W58183  16.189  18.811  11.039
93023W        W58184  28.952  18.215  11.461
93024W        W58185  10.783   7.069  12.861
93025W        W58186  25.660  14.028   3.151
93026W        W58187  17.775  42.037   2.803
93027W        W58188  33.706   5.259  14.373
93028W        W58189  15.768  41.906  12.366
93029W        W58190  22.664  31.847   5.208
93030W        W58191  25.255  41.575   3.560
93031W        W58192   9.857  29.139  12.913
93032W        W58193  21.692  33.451   1.953
93033W        W58194   0.410  18.195   2.784
93034W        W58195  40.667  24.374  13.969
93035W        W58196  21.512  31.941  14.569
93036W        W58197  27.568  44.836   1.155
93037W        W58198  17.066  17.652  14.700
93038W        W58199  26.156  28.709  10.808
93039W        W58200  28.941  43.040   2.330
93040W        W58201  16.799  20.870   2.330
93041W        W58202  16.539  11.372  13.592
93042W        W58203  17.983   2.205   3.260
93043W        W58204   1.554  28.862  13.899
93044W        W58205   4.996  24.032   5.509
93045W        W58206   1.344  44.273  11.438
93046W        W58207  15.658  27.197  13.682
93047W        W58208  31.093  25.168  12.225
93048W        W58209  35.101   1.405   0.045
93049W        W58210  40.608   1.831   3.114
93050W        W58211  27.419  17.305  12.916
93051W        W58212  12.712  44.735  12.466
93052W        W58213   6.992  25.621  14.911
93053W        W58214   0.595  19.650  14.733
93054W        W58215  21.121   3.457   2.421
93055W        W58216  39.588  27.599   0.898
93056W        W58217  44.719   0.833   4.564
93057W        W58218  38.038   3.836  12.600
93058W        W58219  31.347  21.603  10.912
93059W        W58220  12.277  37.477   1.102
93060W        W58221  12.460  44.524  12.861
93061W        W58222  37.794  30.364  13.928
93062W        W58223  27.766  28.093  12.426
93063W        W58224  27.232  34.960   2.807
93064W        W58225  29.465  35.449   1.528
93065W        W58226  40.468  37.128  11.574
93066W        W58227  41.111  19.557   0.319
93067W        W58228  30.498  21.978  10.597
93068W        W58229   2.615   3.242   5.110
93069W        W58230  27.579   2.140  13.966
93070W        W58231   7.776  23.836   5.009
93071W        W58232  30.096  22.447  12.983
93072W        W58233   4.155  15.085  14.327
93073W        W58234  31.453  43.838   2.284
93074W        W58235  39.102   8.840  13.399
93075W        W58236  20.288   1.704   5.041
93076W        W58237  31.608  35.396  10.768
93077W        W58238  25.658  26.362   2.284
93078W        W58239  12.264  18.055   1.358
93079W        W58240   8.643  14.888  12.100
93080W        W58241  41.920  32.467  11.917
93081W        W58242  28.688   9.588  10.956
93082W        W58243   9.823  31.939   1.697
93083W        W58244  17.127  36.337  10.850
93084W        W58245  10.272  31.213  11.554
93085W        W58246  26.795  23.628   4.929
93086W        W58247  24.670  42.007  13.013
93087W        W58248  15.293  10.791  10.706
93088W        W58249  23.617   3.855   4.242
93089W        W58250  39.469  17.149   1.174
93090W        W58251  25.343  13.207  10.816
93091W        W58252  29.384  30.280   2.837
93092W        W58253  37.989  32.844   2.701
93093W        W58254   6.266   1.908  10.645
93094W        W58255   1.928   0.307  10.759
93095W        W58256   3.443  19.248  14.657
93096W        W58257  35.912  25.011  14.381
93097W        W58258   7.603  19.459  13.096
93098W        W58259  21.948  35.022  12.972
93099W        W58260  10.858  35.516   2.080
93100W        W58261   8.378   4.152   4.254
93101W        W58262   5.501  32.561  12.503
93102W        W58263  34.912  36.031   1.503
93103W        W58264  28.151   3.700  12.948
93104W        W58265   5.688  15.506   0.314
93105W        W58266   3.967  19.587   1.276
93106W        W58267  20.581  23.678   2.844
93107W        W58268  40.079  43.126   2.839
93108W        W58269  18.393  11.749  11.663
93109W        W58270   4.394  22.207  10.449
93110W        W58271  23.122  13.400   2.837
93111W        W58272   6.684   6.889   0.279
93112W        W58273  20.348  36.866   4.538
93113W        W58274  13.193  31.924  12.002
93114W        W58275  13.196  28.730  14.045
93115W        W58276  39.502   1.277  11.169
93116W        W58277   8.729   6.937  14.249
93117W        W58278   1.522   4.441   3.940
93118W        W58279  43.012  15.456  10.333
93119W        W58280  26.438  44.028  12.689
93120W        W58281  17.655   3.758   4.542
93121W        W58282  34.649   0.984  11.996
93122W        W58283  19.330   7.912  12.029
93123W        W58284  10.180  23.679   3.179
93124W        W58285   7.044   3.403  10.606
93125W        W58286  28.689  13.348   2.697
93126W        W58287  25.006  29.104  14.829
93127W        W58288  20.569  26.893   2.325
93128W        W58289   7.777   4.805   1.216
93129W        W58290  10.625  37.802  11.518
93130W        W58291  40.093  21.304  11.555
93131W        W58292  11.283  43.844   3.201
93132W        W58293  43.390   0.829   2.000
93133W        W58294  41.715   3.282  14.381
93134W        W58295  32.594   7.184   4.042
93135W        W58296  42.365  43.946  14.697
93136W        W58297   6.660   6.748  10.973
93137W        W58298  36.326  34.501   1.732
93138W        W58299  19.040  44.119   0.997
93139W        W58300   7.869   3.402   1.387
93140W        W58301  27.448   4.848  12.931
93141W        W58302  26.591   5.917   4.457
93142W        W58303   5.141  24.128   0.006
93143W        W58304  34.689  26.431  14.337
93144W        W58305  24.569  39.018  11.744
93145W        W58306  38.121  18.149   4.231
93146W        W58307  33.171   8.906  11.303
93147W        W58308  15.198  12.443   1.515
93148W        W58309  30.656  10.337  14.736
93149W        W58310   1.342   5.013  13.021
93150W        W58311   5.247   3.789  13.055
93151W        W58312   6.778   7.543   3.781
93152W        W58313  38.054   1.348  13.722
93153W        W58314  43.303  23.187   2.984
93154W        W58315  29.868  24.703  14.840
93155W        W58316  30.588  14.335   4.653
93156W        W58317  23.980  41.746   1.864
93157W        W58318  28.150  20.560   3.634
93158W        W58319  24.222   8.445  13.960
93159W        W58320  32.615  40.542  12.421
93160W        W58321  13.457  28.532   0.040
93161W        W58322   3.854  13.283   3.308
93162W        W58323  14.264  37.871  14.862
93163W        W58324  41.063  15.460  14.743
93164W        W58325   1.539   6.950  12.380
93165W        W58326  25.229   8.206   0.390
93166W        W58327   8.457  35.045  13.585
93167W        W58328  37.925   1.702   3.283
93168W        W58329   0.830   8.083  11.033
93169W        W58330  18.269  20.441  12.069
93170W        W58331  14.618   1.527  11.130
93171W        W58332   3.735  23.680   0.674
93172W        W58333  24.575  23.954  12.538
93173W        W58334   0.719  25.201  13.216
93174W        W58335   7.090  39.469  11.420
93175W        W58336   6.304  15.587   0.919
93176W        W58337  12.287   3.422  11.519
93177W        W58338  14.060  13.759   0.916
93178W        W58339  15.045   1.886   4.670
93179W        W58340  23.887  36.809   0.425
93180W        W58341  41.653  37.000  13.493
93181W        W58342  44.643  38.477  11.099
93182W        W58343  24.697  12.030   1.475
93183W        W58344   6.716  36.766   2.830
93184W        W58345  34.193  17.152   3.087
93185W        W58346  21.911  26.096   2.609
93186W        W58347   0.889  22.440  13.782
93187W        W58348  12.521  10.669  12.927
93188W        W58349   0.455   2.399  14.863
93189W        W58350  25.807   7.350  14.492
93190W        W58351   2.634  44.720   1.307
93191W        W58352  11.691  29.539  11.200
93192W        W58353  31.847  26.555  14.328
93193W        W58354  38.398  14.570   0.028
93194W        W58355  30.938  23.740   1.731
93195W        W58356  18.883  26.781   2.638
93196W        W58357  30.451  43.883   2.899
93197W        W58358  32.698  18.020   2.605
93198W        W58359  32.953  29.502   1.455
93199W        W58360  26.070   6.901  11.763
93200W        W58361  17.237  43.321  13.468
93201W        W58362  40.051  31.760  14.750
93202W        W58363  37.225  21.147   2.598
93203W        W58364   6.414   6.862   1.120
93204W        W58365   0.211  14.821   0.775
93205W        W58366   4.390  16.112  11.600
93206W        W58367  34.329  16.779   3.862
93207W        W58368  32.351  27.419  11.354
93208W        W58369   1.010  32.505  13.757
93209W        W58370  40.391  12.128   0.967
93210W        W58371  11.102  18.051  13.364
93211W        W58372  35.839  26.511  14.993
93212W        W58373  23.680  13.918   2.872
93213W        W58374  37.829  37.315  10.348
93214W        W58375  22.648  28.192  12.576
93215W        W58376   4.865   7.872   2.905
93216W        W58377  19.024  15.227  11.029
93217W        W58378   2.556  17.360  10.551
93218W        W58379  20.007   4.356  12.133
93219W        W58380   1.008  19.366  13.420
93220W        W58381  12.869   1.210   3.188
93221W        W58382  14.911   6.490  11.591
93222W        W58383  15.119  12.138   3.793
93223W        W58384  25.209  10.955  12.012
93224W        W58385  39.917  33.545   2.392
93225W        W58386  11.940  42.240  10.597
93226W        W58387  15.018  42.990   0.231
93227W        W58388  23.498  31.380   4.078
93228W        W58389  41.858  32.396   1.601
93229W        W58390  15.621  18.469  12.099
93230W        W58391  24.539  42.066   0.971
93231W        W58392  31.859  27.439  14.252
93232W        W58393  29.141  42.803   3.131
93233W        W58394  22.737  13.230  12.092
93234W        W58395  41.582  17.106   3.717
93235W        W58396  40.432  21.015   0.270
93236W        W58397  42.970  39.195  14.550
93237W        W58398  39.042  26.179  11.982
93238W        W58399   3.994  33.991   1.629
93239W        W58400   0.729   8.245   2.747
93240W        W58401  31.398  29.607   1.285
93241W        W58402  40.825  41.117  11.500
93242W        W58403  32.944  32.007  14.786
93243W        W58404  20.299  26.195  13.925
93244W        W58405   1.912  31.916   4.625
93245W        W58406  18.817  32.633  14.629
93246W        W58407  36.176  28.713  13.967
93247W        W58408  40.868  32.752   3.121
93248W        W58409  31.413  23.647  14.953
93249W        W58410  30.927   7.947   1.116
93250W        W58411  16.567  22.924   2.529
93251W        W58412   0.988   8.662  11.589
93252W        W58413   6.600   8.364  12.364
93253W        W58414   2.475   6.151  12.175
93254W        W58415  16.970  42.072   1.821
93255W        W58416  10.353   7.765   1.229
93256W        W58417  41.450  41.559  11.048
93257W        W58418   2.970  29.967  11.216
93258W        W58419  10.781  17.710   3.744
93259W        W58420  14.104   4.555   0.845
93260W        W58421  25.609  36.251   3.059
93261W        W58422  19.638  28.993  13.084
93262W        W58423  10.412  39.885  14.188
93263W        W58424  29.404  12.144   0.906
93264W        W58425  22.589  34.245   0.773
93265W        W58426  14.601   2.848  11.462
93266W        W58427  21.156   3.829   4.951
93267W        W58428  42.341  43.431  14.774
93268W        W58429  20.913  17.487   4.658
93269W        W58430  31.969  44.848   2.142
93270W        W58431  31.299  26.911   4.450
93271W        W58432  27.692   7.468   0.813
93272W        W58433  26.649  41.457   1.229
93273W        W58434  12.319   9.825  13.617
93274W        W58435  11.820   4.494  12.835
93275W        W58436   0.351  14.050   0.452
93276W        W58437   6.822   3.017   4.067
93277W        W58438  15.513  37.996  12.992
93278W        W58439  28.440  24.920  12.104
93279W        W58440  42.446  30.598   3.644
93280W        W58441  43.926   1.549  14.029
93281W        W58442  26.470  13.796   0.956
93282W        W58443  29.647  24.128   1.824
93283W        W58444  16.768  11.227  14.037
93284W        W58445   8.792  39.990   1.814
93285W        W58446  25.520  19.133  11.378
93286W        W58447   2.799  26.937  13.329
93287W        W58448   8.810  16.162  12.864
93288W        W58449  41.476  27.289  14.419
93289W        W58450  38.495  44.897  11.499
93290W        W58451   0.171   6.132   2.664
93291W        W58452  11.703   5.948  12.329
93292W        W58453  27.175  23.693   0.207
93293W        W58454  27.636   8.361   4.564
93294W        W58455  25.200  33.576  12.485
93295W        W58456   3.980  23.318   0.951
93296W        W58457  25.643   0.908   3.371
93297W        W58458  44.985  29.747  14.580
93298W        W58459   8.826  37.809   0.906
93299W        W58460  41.703  29.009   4.091
93300W        W58461   3.924  20.160   3.217
93301W        W58462  42.238  41.946   0.743
93302W        W58463  35.596  22.152   1.140
93303W        W58464  18.563  44.349  11.493
93304W        W58465  43.458  14.778   2.686
93305W        W58466  29.640  23.727   1.260
93306W        W58467   6.344  31.144   4.696
93307W        W58468   1.968   8.379  10.927
93308W        W58469   8.381   5.456   0.862
93309W        W58470  12.554  39.487  10.683
93310W        W58471  11.591  27.576  12.225
93311W        W58472  29.554  33.533   5.022
93312W        W58473  44.228   0.607  11.028
93313W        W58474  27.489  21.663   3.279
93314W        W58475  26.156   1.742   1.170
93315W        W58476  26.971  39.380   3.199
93316W        W58477   7.805  13.231   1.401
93317W        W58478  22.026  43.810   1.498
93318W        W58479  15.033  13.402  14.492
93319W        W58480  11.267  24.421  13.426
93320W        W58481  41.361  43.035   4.060
93321W        W58482  43.847   5.412   4.727
93322W        W58483   5.353  12.777  12.793
93323W        W58484  35.610  11.101  13.892
93324W        W58485  33.456  16.658  14.910
93325W        W58486  29.191  10.068   9.777
93326W        W58487   0.516  10.285   0.308
93327W        W58488  32.067   9.343   3.731
93328W        W58489   7.657   6.239   3.272
93329W        W58490   7.545  10.766  11.457
93330W        W58491  34.843  35.878  13.284
93331W        W58492   4.938  25.262   4.346
93332W        W58493  12.860  19.439  11.964
93333W        W58494  29.452  37.310   4.233
93334W        W58495  32.197  18.549  12.394
93335W        W58496   8.238   9.118   3.138
93336W        W58497  35.775  33.861   2.180
93337W        W58498   7.230  24.504   1.430
93338W        W58499  18.312  11.327   2.339
93339W        W58500  15.320  20.597   3.273
93340W        W58501  23.364  23.547  12.679
93341W        W58502   0.880  16.668   4.778
93342W        W58503  34.512  34.635   1.863
93343W        W58504   7.926  14.577   4.523
93344W        W58505   7.210  21.833  12.240
93345W        W58506  27.916  12.277   3.561
93346W        W58507  25.628   5.213  14.454
93347W        W58508  27.611  18.117  11.734
93348W        W58509  27.545  44.874  14.181
93349W        W58510  34.508  15.484  11.238
93350W        W58511  13.071  38.534  12.562
93351W        W58512  27.470  17.573   3.896
93352W        W58513  44.781  30.894   4.355
93353W        W58514  25.576  17.956  14.660
93354W        W58515  24.604  28.205  11.026
93355W        W58516   0.339  19.484  12.045
93356W        W58517  44.306  13.569  12.931
93357W        W58518  26.692  10.734   0.645
93358W        W58519  12.616  17.600   1.457
93359W        W58520  15.364  23.003  14.547
93360W        W58521  43.987  18.720  14.869
93361W        W58522   0.083  13.222   1.335
93362W        W58523  20.687  44.355  13.861
93363W        W58524  36.962  25.831  14.894
93364W        W58525  14.581  44.248   3.153
93365W        W58526   8.294  38.494   2.611
93366W        W58527   3.865  32.004   4.294
93367W        W58528  31.140   2.804   0.798
93368W        W58529  42.444   3.972  10.594
93369W        W58530  44.706  17.544  11.485
93370W        W58531   2.968   7.493   4.134
93371W        W58532   0.376   3.250  12.477
93372W        W58533  30.084  10.918  13.573
93373W        W58534  26.639  26.529  14.777
93374W        W58535  16.316  17.297  13.352
93375W        W58536  42.393  22.678   0.028
93376W        W58537  41.000   5.295   3.874
93377W        W58538  28.417  20.707   3.182
93378W        W58539  35.977  32.794   0.405
93379W        W58540  35.591  14.078   4.931
93380W        W58541  36.553  20.701  13.354
93381W        W58542   1.291  35.882   3.043
93382W        W58543  41.132   5.435   1.790
93383W        W58544  22.608  28.202   2.004
93384W        W58545  20.109  29.577  13.602
93385W        W58546  19.525   6.104  12.497
93386W        W58547  28.463   0.502   4.535
93387W        W58548  39.692  39.298  13.363
93388W        W58549  13.767  22.837   0.562
93389W        W58550  29.161  32.854   2.330
93390W        W58551   1.931  27.070   3.946
93391W        W58552  18.796  22.710  14.573
93392W        W58553   3.895   9.112  14.496
93393W        W58554  18.798   9.409  10.750
93394W        W58555  16.149  37.649   4.591
93395W        W58556  14.139  40.494  12.038
93396W        W58557  20.242  43.419  13.861
93397W        W58558  16.804  21.093   0.991
93398W        W58559  34.788  31.567   4.299
93399W        W58560   7.294  17.316  10.680
93400W        W58561  15.496   3.320  12.609
93401W        W58562   4.388  12.741   0.584
93402W        W58563  43.245  42.948   4.384
93403W        W58564   5.866  31.995  14.181
93404W        W58565  16.127  40.458  13.028
93405W        W58566   4.517  26.634  13.143
93406W        W58567  41.800   9.227  11.405
93407W        W58568  23.240  25.989   4.202
93408W        W58569   8.830  17.059  14.516
93409W        W58570  41.740  30.857  13.040
93410W        W58571  34.165   6.411   3.939
93411W        W58572  37.483  37.587   3.342
93412W        W58573  30.134   6.276  11.616
93413W        W58574   3.369  34.688  13.054
93414W        W58575  44.895   1.177  14.863
93415W        W58576  14.482  24.134   4.519
93416W        W58577   3.900  10.697  14.029
93417W        W58578  12.190  28.512   0.382
93418W        W58579  20.693  35.850   1.794
93419W        W58580  15.142  39.332  14.802
93420W        W58581  18.314  27.251  11.078
93421W        W58582   1.215   0.469   1.334
93422W        W58583  17.806   6.300  12.574
93423W        W58584  33.632  42.200   0.792
93424W        W58585   5.885  38.770   2.421
93425W        W58586  44.504  40.554   1.401
93426W        W58587  19.543  18.608   3.002
93427W        W58588  36.068  29.550   1.278
93428W        W58589  10.172  40.034   2.624
93429W        W58590   6.314  13.028   0.847
93430W        W58591   9.844  36.791   2.733
93431W        W58592  39.881  12.047   3.137
93432W        W58593  11.777  23.646  14.574
93433W        W58594  39.299  35.298   0.434
93434W        W58595  22.069  19.382  13.429
93435W        W58596  38.729  11.642   5.147
93436W        W58597  38.367  15.836  11.475
93437W        W58598  42.991  30.468  13.386
93438W        W58599  25.485   4.474   2.309
93439W        W58600  24.585  36.324   0.828
93440W        W58601  10.987  18.556   3.876
93441W        W58602  13.243  33.481  12.847
93442W        W58603  37.530  36.846   3.726
93443W        W58604   7.672  32.636  13.462
93444W        W58605  27.675  23.728  12.406
93445W        W58606   4.157  13.728   0.722
93446W        W58607  40.360   9.902   3.526
93447W        W58608  17.179  26.009   4.568
93448W        W58609   7.452   3.838   4.503
93449W        W58610  35.908  42.802   0.676
93450W        W58611  30.959  27.199  13.362
93451W        W58612  35.381  36.677   3.027
93452W        W58613  13.050  32.941   3.737
93453W        W58614  38.867  42.620   5.103
93454W        W58615  19.836   9.303   3.137
93455W        W58616  23.039  15.962  11.154
93456W        W58617  10.773  23.177   4.282
93457W        W58618  39.416  11.410   2.110
93458W        W58619  33.042   0.536   2.625
93459W        W58620  18.731  39.718   3.267
93460W        W58621  24.494  39.947  14.900
93461W        W58622   1.425  22.948   0.485
93462W        W58623  31.965  34.167  10.597
93463W        W58624  23.513   6.490  14.237
93464W        W58625  33.438  22.737  14.905
93465W        W58626  42.343   9.297   1.406
93466W        W58627   3.972  34.880   1.345
93467W        W58628  29.058  37.804  13.524
93468W        W58629  18.727  26.110  13.806
93469W        W58630  43.307   4.182   1.322
93470W        W58631  43.524  44.307   4.287
93471W        W58632   1.715  29.075  14.519
93472W        W58633  32.560   7.244   4.563
93473W        W58634   4.378  11.655  11.939
93474W        W58635  19.496  12.314   3.571
93475W        W58636  35.963  31.938   1.478
93476W        W58637  38.282  34.277   1.674
93477W        W58638  42.776  44.989  12.292
93478W        W58639   5.994   9.416  11.116
93479W        W58640  27.810   9.760   3.359
93480W        W58641  14.862  36.853  12.681
93481W        W58642  15.713  23.909   5.054
93482W        W58643  17.296  27.911  14.041
93483W        W58644   8.496  26.495   2.841
93484W        W58645  19.383   5.673   4.070
93485W        W58646  36.070  37.209  12.435
93486W        W58647  36.991   7.736  10.726
93487W        W58648  39.394  33.436   0.473
93488W        W58649  41.492  25.501  13.838
93489W        W58650  18.532   0.963   3.705
93490W        W58651  26.023  19.251  11.299
93491W        W58652  17.435  21.651  12.816
93492W        W58653  43.693   3.766  10.993
93493W        W58654  17.559  34.386   3.488
93494W        W58655  18.178   3.779   1.908
93495W        W58656  18.468  33.611   4.441
93496W        W58657   6.523  41.057  14.805
93497W        W58658   4.270  31.371  13.075
93498W        W58659  28.181   8.858  14.342
93499W        W58660  40.558  17.644  14.029
93500W        W58661  14.754  17.156   3.645
93501W        W58662   1.099  26.000  11.453
93502W        W58663  37.549  43.305  12.018
93503W        W58664  40.587  42.321  13.082
93504W        W58665  19.869  15.561   3.651
93505W        W58666   0.855  20.598  12.526
93506W        W58667  27.085  30.669   2.177
93507W        W58668  26.500  34.368   0.055
93508W        W58669   2.512  20.305   3.231
93509W        W58670  38.036   9.847   3.522
93510W        W58671  35.996  13.709  12.608
93511W        W58672  22.552   0.584  13.914
93512W        W58673  40.797  16.274  12.885
93513W        W58674  11.947  10.743  11.079
93514W        W58675  37.989  35.960  14.033
93515W        W58676  31.474  26.086  11.523
93516W        W58677  15.702  40.313   1.704
93517W        W58678  36.957  17.200   2.073
93518W        W58679  31.029  15.393  12.455
93519W        W58680  39.025   0.284   2.711
93520W        W58681  15.716   2.327  11.043
93521W        W58682   3.570  27.138  12.397
93522W        W58683   7.818  32.112  13.544
93523W        W58684  31.988  29.916  10.922
93524W        W58685   1.703  31.201  12.895
93525W        W58686  28.209  14.351  14.503
93526W        W58687  27.635  25.524  11.095
93527W        W58688  29.576   7.188  10.872
93528W        W58689   9.845  25.082  12.489
93529W        W58690  26.442  28.083   1.333
93530W        W58691  36.812  34.874  11.648
93531W        W58692  31.722  16.721  11.520
93532W        W58693  31.860   7.169  11.438
93533W        W58694  18.312  44.387   2.142
93534W        W58695  23.496  33.174  12.470
93535W        W58696  27.476   1.395   0.756
93536W        W58697  22.201  44.608   2.840
93537W        W58698  34.087   7.715   0.249
93538W        W58699   0.845  31.295  13.178
93539W        W58700  36.378  13.055   2.513
93540W        W58701  21.208   1.811   3.449
93541W        W58702  39.271   4.769   0.834
93542W        W58703   3.157  10.398   3.274
93543W        W58704   7.046   4.752  11.663
93544W        W58705  37.993  11.095  10.745
93545W        W58706   4.774  26.009  12.108
93546W        W58707   9.799  15.282   3.014
93547W        W58708  11.767  30.384   0.474
93548W        W58709  16.200  38.704   2.752
93549W        W58710  37.295  42.047   4.576
93550W        W58711  10.603  28.706  10.729
93551W        W58712  19.015   5.692   0.430
93552W        W58713  30.407   2.356   2.234
93553W        W58714  33.501  42.313   2.697
93554W        W58715  30.102  20.056   0.986
93555W        W58716  28.620   5.887   4.798
93556W        W58717  34.705   1.087  12.837
93557W        W58718  19.767   4.768  12.402
93558W        W58719  43.030  39.754   3.769
93559W        W58720  19.537  32.880   2.300
93560W        W58721  36.455  34.071   1.436
93561W        W58722  11.755  25.998  12.002
93562W        W58723   2.128  43.290  13.319
93563W        W58724  19.323  20.596  11.565
93564W        W58725  40.524  38.809  11.188
93565W        W58726  21.136  40.822   1.203
93566W        W58727  10.577  44.480  12.247
93567W        W58728  36.397  42.827  12.573
93568W        W58729   2.181   9.153  11.410
93569W        W58730  33.610  40.854   1.237
93570W        W58731   1.990  13.529  13.599
93571W        W58732  41.480  31.358  13.732
93572W        W58733  10.676  23.707  10.986
93573W        W58734  12.285  41.242  14.918
93574W        W58735  36.828  17.137  14.437
93575W        W58736  31.083  16.869   4.745
93576W        W58737  24.723  23.747  13.122
93577W        W58738  27.689   2.757  11.620
93578W        W58739  44.969   2.807  14.392
93579W        W58740   6.020  44.353   5.299
93580W        W58741  11.153  10.534  11.602
93581W        W58742  24.588  18.787   0.968
93582W        W58743   4.273  23.038   0.640
93583W        W58744   0.504  31.632   1.394
93584W        W58745   5.014   7.356  12.562
93585W        W58746  29.906  42.768   2.679
93586W        W58747  26.582  43.399   1.412
93587W        W58748   6.216  14.576   2.372
93588W        W58749  13.092   7.271   2.687
93589W        W58750   5.807  39.357   0.964
93590W        W58751  13.132   1.427  14.941
93591W        W58752  36.432  22.923  10.395
93592W        W58753  24.475  17.613   0.275
93593W        W58754  32.874  15.980   4.118
93594W        W58755   0.550  17.073  10.694
93595W        W58756   8.778  36.148  11.061
93596W        W58757   0.264  19.074  10.848
93597W        W58758  18.853  41.168  12.982
93598W        W58759  22.206   6.089  12.093
93599W        W58760  11.562  32.360  14.564
93600W        W58761  22.372   1.868  10.314
93601W        W58762   4.831  36.581  12.887
93602W        W58763  38.543   7.137   3.007
93603W        W58764   0.784   1.451  12.201
93604W        W58765  16.843  39.537   4.073
93605W        W58766   8.834  13.746  14.495
93606W        W58767  34.669  21.529   4.543
93607W        W58768  32.648  16.978  11.587
93608W        W58769  19.597   8.830   3.168
93609W        W58770   8.382  15.057   3.400
93610W        W58771   1.389   4.861   2.688
93611W        W58772  21.613   7.274   1.171
93612W        W58773   2.276  25.741  13.078
93613W        W58774  44.962   4.185  10.692
93614W        W58775   7.905  37.773   0.739
93615W        W58776   4.541  41.794  11.543
93616W        W58777   3.874  42.907  14.766
93617W        W58778  41.589   2.385   0.813
93618W        W58779  17.539  37.672  13.385
93619W        W58780   2.300  11.626  13.517
93620W        W58781  38.147  23.001   1.319
93621W        W58782  32.004  29.936   4.499
93622W        W58783  32.560   2.935  11.371
93623W        W58784  22.724  36.593  13.025
93624W        W58785  20.431  25.163  11.155
93625W        W58786  28.239  10.354  14.396
93626W        W58787  31.692  37.327  11.653
93627W        W58788  33.129  17.297   2.274
93628W        W58789  23.715  13.528  13.448
93629W        W58790  18.236  13.341  13.533
93630W        W58791  22.558   1.810  11.691
93631W        W58792   2.889  13.236  14.072
93632W        W58793  25.605  21.206  11.623
93633W        W58794  32.375  39.431   1.337
93634W        W58795  40.425  26.189  13.032
93635W        W58796  32.654   4.943   4.846
93636W        W58797  38.628  32.996   4.557
93637W        W58798  19.609  20.259  14.937
93638W        W58799  25.174  38.992  10.949
93639W        W58800  44.171  22.062  11.008
93640W        W58801  17.649  41.248   4.221
93641W        W58802  15.554   6.991  10.799
93642W        W58803   2.427  21.967  12.726
93643W        W58804   7.769  30.640   1.521
93644W        W58805  14.169  22.393   0.755
93645W        W58806   2.471  30.664  12.025
93646W        W58807  15.311   1.516   2.840
93647W        W58808   6.222  13.790  10.664
93648W        W58809  13.798  42.257   1.829
93649W        W58810  15.741  31.213  13.879
93650W        W58811  44.559  19.630   3.238
93651W        W58812  35.878  20.462   3.696
93652W        W58813  40.422  12.869  11.217
93653W        W58814   1.668  12.585   1.389
93654W        W58815  23.553  13.392  11.239
93655W        W58816   4.619  32.371   1.800
93656W        W58817  16.649  38.534   9.534
93657W        W58818  43.892  39.909  11.647
93658W        W58819  36.322   8.846  11.472
93659W        W58820   4.801  43.255   3.769
93660W        W58821  17.323  18.807  13.850
93661W        W58822  41.145  37.411   4.565
93662W        W58823   0.766   8.453   1.752
93663W        W58824  23.692  25.255   1.940
93664W        W58825   4.418   2.482  12.061
93665W        W58826  15.697  19.160   9.807
93666W        W58827  41.420  13.134   0.711
93667W        W58828   4.408  28.082   4.574
93668W        W58829  40.786  32.443   3.543
93669W        W58830   6.182  36.992  13.487
93670W        W58831  37.810   1.323   3.608
93671W        W58832  39.078   9.758   1.008
93672W        W58833  34.313  15.161   0.997
93673W        W58834   9.923  12.632   0.345
93674W        W58835  25.566  33.204  13.965
93675W        W58836  13.699  12.187  13.002
93676W        W58837   0.882  17.237   4.794
93677W        W58838  43.323  38.348   2.391
93678W        W58839  23.639  17.652  12.165
93679W        W58840   1.661  29.405   1.688
93680W        W58841  17.123   2.674  14.016
93681W        W58842  32.360   2.482   1.339
93682W        W58843  16.618  20.848  12.562
93683W        W58844  18.145  24.554  11.251
93684W        W58845   6.189   3.861  11.048
93685W        W58846  42.983  21.035   2.245
93686W        W58847  23.635  33.506   2.257
93687W        W58848  30.678  42.322  12.825
93688W        W58849  21.568  25.140   4.375
93689W        W58850   4.422  22.624   2.338
93690W        W58851  11.128  12.859   2.142
93691W        W58852  17.575  26.513  12.055
93692W        W58853  35.790  41.909   2.139
93693W        W58854  37.813  15.236   4.545
93694W        W58855   3.336  25.465  14.374
93695W        W58856  26.462  37.068  13.414
93696W        W58857  27.188  43.357   3.879
93697W        W58858  25.142  24.704   0.899
93698W        W58859  11.482  14.722   0.895
93699W        W58860  11.530  43.909  11.178
93700W        W58861  32.018  10.348   1.981
93701W        W58862  25.502  18.069   3.675
93702W        W58863   3.022  36.716  14.842
93703W        W58864  27.460   5.240   1.732
93704W        W58865  35.489  19.147  12.048
93705W        W58866   6.912  43.715   2.253
93706W        W58867  23.623  43.071  12.898
93707W        W58868  24.444  14.992  13.666
93708W        W58869  12.403  38.301   2.368
93709W        W58870  11.219  39.646  14.985
93710W        W58871   2.784  28.503  10.879
93711W        W58872  17.974  17.280  12.962
93712W        W58873   6.800  16.123  13.765
93713W        W58874  43.500   8.615   1.625
93714W        W58875  43.999  43.079  13.974
93715W        W58876  20.497  24.950  14.926
93716W        W58877   9.892  20.082   2.886
93717W        W58878   3.035  11.696  14.606
93718W        W58879  12.100  32.910  13.774
93719W        W58880  26.192  31.729  11.647
93720W        W58881  28.602  12.154  14.968
93721W        W58882  42.000  13.379  12.847
93722W        W58883  40.590  41.408   3.787
93723W        W58884   8.603  40.908   2.824
93724W        W58885  36.772  36.495  14.356
93725W        W58886  42.867  14.451  12.845
93726W        W58887  10.231  34.105  12.161
93727W        W58888  40.545  17.138   2.661
93728W        W58889  44.330  13.606  14.839
93729W        W58890   3.391  32.646  10.607
93730W        W58891  14.649  44.865   0.530
93731W        W58892  29.936   4.462  10.838
93732W        W58893  28.908   5.663   1.807
93733W        W58894  31.544   4.760  10.761
93734W        W58895  40.882  35.150  12.885
93735W        W58896  19.229  19.206  12.832
93736W        W58897  34.394  21.014   1.677
93737W        W58898  19.630   4.179   2.581
93738W        W58899  22.054  39.331  12.680
93739W        W58900  22.965   4.966   4.308
93740W        W58901  33.099  31.010  12.992
93741W        W58902  13.079  19.792  13.489
93742W        W58903  37.816  28.423  12.053
93743W        W58904  19.893  17.951   1.682
93744W        W58905  22.674  11.618   4.130
93745W        W58906  21.625  29.124  10.661
93746W        W58907  36.099  30.826  11.817
93747W        W58908  35.615   9.184  13.998
93748W        W58909  21.831  10.266   1.021
93749W        W58910  13.860  21.758   1.567
93750W        W58911  25.351  38.046  11.384
93751W        W58912  28.626  33.161  14.574
93752W        W58913  33.961  36.749  12.057
93753W        W58914   9.728  38.434   1.345
93754W        W58915   1.884  42.443  12.907
93755W        W58916  23.633  19.075  13.894
93756W        W58917  15.256  31.155  12.993
93757W        W58918  44.032  31.896   9.930
93758W        W58919   2.572  21.405  11.313
93759W        W58920  43.697   0.915   4.670
93760W        W58921  23.770  42.544  12.529
93761W        W58922  25.351  17.223  11.108
93762W        W58923   6.761  25.086   3.650
93763W        W58924  29.447  40.601   3.670
93764W        W58925  41.916   6.540   0.913
93765W        W58926  35.339  37.932  12.439
93766W        W58927  21.926  36.157   2.918
93767W        W58928  32.227  10.319   3.930
93768W        W58929   8.713  15.736   1.603
93769W        W58930  40.560  27.438   0.854
93770W        W58931  43.093  20.919   3.298
93771W        W58932  29.314  43.492   4.605
93772W        W58933  15.562  15.517   4.048
93773W        W58934  18.076  42.913  11.379
93774W        W58935   3.788  15.478   3.683
93775W        W58936   9.183  39.891  13.418
93776W        W58937   2.731  19.730   1.854
93777W        W58938   8.462  21.478  12.081
93778W        W58939  26.674  36.235  12.455
93779W        W58940  30.980  13.268  13.549
93780W        W58941  13.746  30.949  12.808
93781W        W58942  17.324   6.538   1.737
93782W        W58943   1.433  41.864   1.983
93783W        W58944  18.411  31.415   0.067
93784W        W58945  16.224  33.493   4.404
93785W        W58946  25.720  37.846  12.452
93786W        W58947  32.906  34.045  12.378
93787W        W58948  27.947  44.972  11.465
93788W        W58949  23.487  27.105   3.072
93789W        W58950  11.413  20.181  13.053
93790W        W58951  40.329  30.838   2.706
93791W        W58952  27.443  39.856  14.579
93792W        W58953  35.525  18.565  14.927
93793W        W58954   3.977  20.632   4.656
93794W        W58955   6.763   0.213  12.477
93795W        W58956   4.115  32.957  13.838
93796W        W58957  38.312  40.332   1.319
93797W        W58958  36.302  16.844  13.061
93798W        W58959  24.825  39.365   1.031
93799W        W58960  41.814  33.326   5.034
93800W        W58961  44.851   8.560   0.425
93801W        W58962  37.861  22.238  11.570
93802W        W58963  41.320  41.004   0.837
93803W        W58964  31.604  31.060   0.479
93804W        W58965  20.822   5.854   1.782
93805W        W58966  41.923  41.482   1.459
93806W        W58967   4.678  18.864  14.819
93807W        W58968  24.478  29.962  14.690
93808W        W58969  35.794  41.561  14.452
93809W        W58970   8.159  38.893  14.722
93810W        W58971  23.230  35.036  11.582
93811W        W58972  20.235  12.149   1.957
93812W        W58973  14.554   5.070  10.955
93813W        W58974  19.916   8.362  11.646
93814W        W58975  26.199  41.907  14.447
93815W        W58976   9.057  15.785   1.973
93816W        W58977  39.899  22.294   2.216
93817W        W58978  27.466   4.236  14.580
93818W        W58979   0.497  27.548   4.807
93819W        W58980  42.360  27.091  12.500
93820W        W58981  44.383  19.344  14.466
93821W        W58982  25.258  14.848   0.357
93822W        W58983  28.699  23.284   0.814
93823W        W58984  14.865  32.838   3.440
93824W        W58985   3.291  28.061  12.901
93825W        W58986  39.562  10.966   1.240
93826W        W58987  39.810   1.706   4.043
93827W        W58988  14.050  39.992  12.338
93828W        W58989  24.987   0.961   0.758
93829W        W58990  27.990  44.952  12.417
93830W        W58991  34.608  44.892  14.912
93831W        W58992  16.067  10.940  12.925
93832W        W58993  24.731  27.448   2.249
93833W        W58994  24.363  44.893  12.452
93834W        W58995  32.592   5.672   2.364
93835W        W58996  21.133  40.623   0.737
93836W        W58997  38.005  43.886  14.024
93837W        W58998   0.454  21.506  11.389
93838W        W58999  19.793  28.586  14.336
93839W        W59000  33.373  37.895  13.614
93840W        W59001  36.740  37.020   4.904
93841W        W59002  41.048  15.651   4.087
93842W        W59003  40.466  33.829  12.062
93843W        W59004  10.659  36.423   1.763
93844W        W59005  12.214  24.441   0.511
93845W        W59006  37.971  42.343  11.095
93846W        W59007  22.886   7.436  13.420
93847W        W59008  29.996   6.271   0.178
93848W        W59009  21.494   9.435   0.078
93849W        W59010  30.714   6.344  13.369
93850W        W59011  35.560  25.441  11.399
93851W        W59012  42.069   1.270   1.419
93852W        W59013  26.973  38.966   2.847
93853W        W59014  16.459  17.268  10.584
93854W        W59015  28.623  10.335   4.669
93855W        W59016   5.744  25.878  11.973
93856W        W59017  26.633   9.944  14.336
93857W        W59018  22.073  12.788  12.565
93858W        W59019  40.429  38.522  13.945
93859W        W59020  16.469  41.036   2.659
93860W        W59021  17.036  32.815  14.354
93861W        W59022  14.809  38.984   1.635
93862W        W59023  27.148  31.667   4.090
93863W        W59024  29.426  34.093   2.401
93864W        W59025  20.557   2.281  10.723
93865W        W59026  12.289  17.985  12.825
93866W        W59027  21.163  12.183   4.062
93867W        W59028  20.132  17.534  12.998
93868W        W59029  11.402  39.450  10.776
93869W        W59030  38.131  19.725  11.549
93870W        W59031  12.524  31.522   0.996
93871W        W59032   0.291   7.828  11.966
93872W        W59033   4.623  18.016   4.225
93873W        W59034  36.845  16.779  11.638
93874W        W59035  43.983  10.274  12.963
93875W        W59036  37.925   9.941  13.483
93876W        W59037  19.573  31.911  14.864
93877W        W59038  22.545  34.380   4.194
93878W        W59039  21.054  31.854  12.918
93879W        W59040  31.097  31.928   0.333
93880W        W59041  33.360  36.092  12.006
93881W        W59042  14.506  36.651   1.997
93882W        W59043   1.802  21.615   2.757
93883W        W59044  16.284  33.930   2.658
93884W        W59045  22.514   0.459  13.403
93885W        W59046  21.725  20.288  14.916
93886W        W59047   5.980  33.638  13.464
93887W        W59048   4.748  21.087  14.754
93888W        W59049   5.684  36.577  12.467
93889W        W59050   7.781  24.242  10.251
93890W        W59051  41.168  33.165  11.158
93891W        W59052   6.766   1.181   3.285
93892W        W59053  37.788  27.504  13.986
93893W        W59054  18.143   7.419  14.801
93894W        W59055  27.792  14.189  13.733
93895W        W59056   3.904  35.543  12.973
93896W        W59057  43.385  29.472  13.344
93897W        W59058  10.368  38.190   2.136
93898W        W59059  24.099   6.984   2.387
93899W        W59060  41.925  30.581   0.841
93900W        W59061  21.286   3.719  14.084
93901W        W59062  16.779  44.978   2.257
93902W        W59063  43.040   8.414   1.681
93903W        W59064  26.201   7.847  13.337
93904W        W59065   7.717  15.027   4.348
93905W        W59066  38.902  10.352   1.709
93906W        W59067   9.637  31.881  14.803
93907W        W59068  18.832   7.755   3.723
93908W        W59069  23.260   3.265  12.688
93909W        W59070  35.857  34.544   4.219
93910W        W59071   5.191  40.861  12.485
93911W        W59072  43.264  18.643   3.773
93912W        W59073  38.756  10.637  14.747
93913W        W59074  12.751   2.756   3.871
93914W        W59075  27.836   4.458  13.995
93915W        W59076  37.902  40.159   2.785
93916W        W59077   5.804  40.289  12.949
93917W        W59078  42.394  29.409  12.008
93918W        W59079  14.035  33.514  13.861
93919W        W59080  30.511  16.592  14.015
93920W        W59081  28.540   4.922   2.230
93921W        W59082  18.005  33.919  14.483
93922W        W59083  32.225  30.780  14.796
93923W        W59084   8.876   2.192  13.627
93924W        W59085  23.186  34.104  11.591
93925W        W59086   7.865  44.623  14.730
93926W        W59087  17.092  41.822  12.576
93927W        W59088  17.050   2.695   2.597
93928W        W59089  14.799   5.597   0.258
93929W        W59090  38.783  19.841  14.138
93930W        W59091  31.742  24.553   3.235
93931W        W59092  40.365  39.284   4.088
93932W        W59093  16.822   6.283   0.887
93933W        W59094  32.483   2.410   0.837
93934W        W59095  11.466  37.261   2.737
93935W        W59096  35.639  11.693   1.289
93936W        W59097  31.577  41.353  13.422
93937W        W59098  24.354   0.061  11.608
93938W        W59099  43.294  35.362  14.388
93939W        W59100  23.487  39.795   4.629
93940W        W59101  37.831  32.589  11.158
93941W        W59102  21.875  16.603   0.031
93942W        W59103   7.197   4.993   3.925
93943W        W59104  27.194  29.972  14.378
93944W        W59105  10.168  34.128   3.754
93945W        W59106  44.604  32.064  11.681
93946W        W59107  25.219  34.678   2.315
93947W        W59108   4.482  18.270   3.692
93948W        W59109  22.132  22.525  13.773
93949W        W59110  33.311  37.818   4.088
93950W        W59111  33.123   5.774   4.571
93951W        W59112  11.677  30.076   2.784
93952W        W59113  35.804  36.842   0.933
93953W        W59114  35.380  16.942  10.758
93954W        W59115  20.337   7.779  12.868
93955W        W59116  44.503  23.191  12.839
93956W        W59117   2.894  34.444   2.948
93957W        W59118  41.968  11.193  13.421
93958W        W59119  41.198  37.779   9.835
93959W        W59120  34.190   5.355  14.514
93960W        W59121  27.124  41.767   2.931
93961W        W59122  24.671  41.433   0.184
93962W        W59123  18.726  27.971   3.599
93963W        W59124   9.314   8.879  12.174
93964W        W59125   6.399  38.586  14.966
93965W        W59126  41.369  33.580   4.900
93966W        W59127  30.792   3.140   1.738
93967W        W59128  43.434  39.334  12.967
93968W        W59129  27.258  14.725   9.899
93969W        W59130  16.695  31.783   4.093
93970W        W59131  39.028   3.432   1.178
93971W        W59132  13.701  39.271   4.252
93972W        W59133  30.111  21.037  14.263
93973W        W59134   1.000  16.910  14.259
93974W        W59135  24.152  20.345  13.974
93975W        W59136   1.953  29.464  14.834
93976W        W59137   6.520   0.430  12.086
93977W        W59138  39.561  14.260   4.479
93978W        W59139  40.203   3.421  10.966
93979W        W59140  41.906   0.220   3.289
93980W        W59141  35.930   9.395  12.063
93981W        W59142   8.259   0.413   2.764
93982W        W59143   1.310  17.414  10.262
93983W        W59144  37.369  21.482   0.850
93984W        W59145  35.667  23.773  11.963
93985W        W59146  11.576  11.504  12.045
93986W        W59147   8.716  40.072  14.757
93987W        W59148  16.636  16.342  11.053
93988W        W59149  41.514   6.354  13.733
93989W        W59150  22.063  41.042  14.403
93990W        W59151  34.613  32.308  12.886
93991W        W59152  16.803  26.415  12.720
93992W        W59153   7.210  31.597  12.253
93993W        W59154   6.854  31.383  14.811
93994W        W59155  23.031  31.041   2.849
93995W        W59156  37.788  15.932   9.899
93996W        W59157   5.004  31.721  12.904
93997W        W59158  35.075  14.569  11.130
93998W        W59159   9.940  26.694  13.083
93999W        W59160  14.245  24.401  11.539
94000W        W59161  33.814  28.137  14.803
94001W        W59162   0.182  23.683  10.621
94002W        W59163   7.398  31.380   2.574
94003W        W59164   3.276  37.646  12.404
94004W        W59165  35.973   6.213   0.334
94005W        W59166  19.775  39.503  12.420
94006W        W59167  30.043  26.490   5.073
94007W        W59168  20.978  20.761   0.907
94008W        W59169  20.097  26.089  14.398
94009W        W59170  23.471  32.844  12.023
94010W        W59171  34.489  18.007   1.813
94011W        W59172  15.117  17.508  12.576
94012W        W59173  36.451  23.620  13.471
94013W        W59174   1.795   9.480  12.806
94014W        W59175  41.801  35.625  12.443
94015W        W59176  37.307   4.132   3.334
94016W        W59177  17.726  24.672  10.471
94017W        W59178  13.575  31.894   4.792
94018W        W59179  32.864   1.570   2.736
94019W        W59180   1.136  10.835   4.661
94020W        W59181  26.899  13.785   1.932
94021W        W59182  19.220  29.437  12.461
94022W        W59183  38.603  36.709  13.861
94023W        W59184   9.561  39.391   0.728
94024W        W59185   6.044   7.292  12.493
94025W        W59186  24.727  20.050   0.328
94026W        W59187   0.430  30.863   0.681
94027W        W59188   5.832  29.718   1.680
94028W        W59189  41.988  44.961  11.188
94029W        W59190  18.559  35.820  11.195
94030W        W59191  36.380  16.829   0.883
94031W        W59192  34.041  14.764   4.273
94032W        W59193  17.182  26.870  12.027
94033W        W59194  29.155  40.971  10.123
94034W        W59195  16.615  37.409   4.586
94035W        W59196  42.382  11.129  12.057
94036W        W59197  40.454   1.678  10.793
94037W        W59198  12.855  40.981  13.472
94038W        W59199  21.584   3.268   2.592
94039W        W59200   2.848  37.049  12.979
94040W        W59201  18.747   0.300  12.561
94041W        W59202  34.685  42.709   2.199
94042W        W59203  31.788  43.993  13.936
94043W        W59204  27.973  37.060  13.894
94044W        W59205  19.576   4.564  13.773
94045W        W59206  24.583  36.821   9.879
94046W        W59207  11.543  12.063   0.009
94047W        W59208  34.539  15.556   0.761
94048W        W59209  38.998  15.142  13.844
94049W        W59210   6.955   6.379   0.897
94050W        W59211  11.757  33.888  10.719
94051W        W59212  39.778  13.096   3.309
94052W        W59213   1.304  10.752  11.538
94053W        W59214  17.954   2.308   0.030
94054W        W59215   9.125  39.548   1.526
94055W        W59216  18.886  13.535   3.075
94056W        W59217  30.637  14.335  11.979
94057W        W59218  17.059  41.902   0.403
94058W        W59219  12.734  26.099  12.962
94059W        W59220  37.770  12.371   1.772
94060W        W59221  41.840  24.242  10.826
94061W        W59222  21.467  44.789   1.640
94062W        W59223  36.310  24.110  14.748
94063W        W59224  10.966   1.721   0.968
94064W        W59225  38.246  24.390  10.855
94065W        W59226  20.650  42.338   2.673
94066W        W59227  18.702   8.808   1.510
94067W        W59228  30.863  41.999  11.108
94068W        W59229   5.671   9.332  13.043
94069W        W59230  11.810  26.633   5.032
94070W        W59231  38.361   4.274   1.936
94071W        W59232  43.567   3.185   0.517
94072W        W59233  31.495  43.983   3.218
94073W        W59234   3.665  11.684   1.663
94074W        W59235  40.476   2.261  14.883
94075W        W59236  31.081  15.353   2.608
94076W        W59237  35.176   9.814  13.979
94077W        W59238   0.966   9.209  13.109
94078W        W59239  10.217  41.102   2.379
94079W        W59240  16.325  38.914  12.099
94080W        W59241  37.060   4.506   1.072
94081W        W59242   0.764  32.062  13.991
94082W        W59243  39.930  11.523  11.250
94083W        W59244  38.150  29.462  10.713
94084W        W59245  37.568  38.610  14.534
94085W        W59246  44.728   1.380  13.092
94086W        W59247  14.127  40.827   0.491
94087W        W59248  37.110  16.808   1.319
94088W        W59249  41.783  32.554  12.416
94089W        W59250  18.316   8.858   1.959
94090W        W59251  28.972  32.524  12.491
94091W        W59252  25.588   2.978   3.312
94092W        W59253  13.109  18.044   0.225
94093W        W59254  17.143  20.930  12.390
94094W        W59255  12.816  16.370  11.225
94095W        W59256   9.263  40.375   0.209
94096W        W59257   4.978  29.872  11.610
94097W        W59258  19.317  19.368  11.992
94098W        W59259  38.519  27.028   3.619
94099W        W59260  35.015   6.555  14.443
94100W        W59261  23.960  43.929  12.115
94101W        W59262  11.888  20.910  14.967
94102W        W59263   7.189  15.091   3.825
94103W        W59264  12.186  21.819  13.523
94104W        W59265  29.676   0.735  13.914
94105W        W59266  40.995  38.028   2.321
94106W        W59267  15.530  41.361  14.778
94107W        W59268  30.138  13.210   3.145
94108W        W59269  35.834   2.139  12.066
94109W        W59270  29.993  15.160   3.742
94110W        W59271  29.870  20.188   2.292
94111W        W59272  38.962  29.222   1.383
94112W        W59273  44.959  29.017  10.708
94113W        W59274   0.347   5.645   4.111
94114W        W59275  19.621   5.181   0.031
94115W        W59276   4.245  34.094   4.955
94116W        W59277  40.964  19.526   2.697
94117W        W59278  15.621  42.412   3.203
94118W        W59279  39.470  11.710   3.110
94119W        W59280   1.537  38.141   1.647
94120W        W59281  20.038  36.079   1.308
94121W        W59282  36.879  38.011   2.756
94122W        W59283  14.327  26.544   0.185
94123W        W59284  32.761  26.551  11.085
94124W        W59285  10.436  36.811   2.123
94125W        W59286  36.330  18.928  11.141
94126W        W59287  24.858  17.327   3.972
94127W        W59288   0.353  18.681  13.315
94128W        W59289  43.567  39.838  13.844
94129W        W59290  30.321   8.780   4.195
94130W        W59291  29.057  33.051   0.372
94131W        W59292  43.555  43.385   3.164
94132W        W59293  44.292   3.766   2.193
94133W        W59294  34.437  44.337   1.265
94134W        W59295  34.134  28.485   2.593
94135W        W59296  19.272   4.476   2.818
94136W        W59297  32.799  44.278   3.153
94137W        W59298   4.251   8.686  13.340
94138W        W59299  24.342  24.924   0.406
94139W        W59300   6.772  34.428   0.918
94140W        W59301  14.835  17.971   4.681
94141W        W59302  22.256  14.610   3.966
94142W        W59303  42.747  23.120   1.328
94143W        W59304  29.706   2.928  11.688
94144W        W59305  20.585  18.748  14.805
94145W        W59306  27.174  14.066   0.926
94146W        W59307  42.110  39.356  11.503
94147W        W59308  32.789  18.504  13.351
94148W        W59309  17.612  24.170  10.540
94149W        W59310  10.253   4.291   0.566
94150W        W59311  26.630   9.720  13.005
94151W        W59312   7.742   3.752  10.204
94152W        W59313   0.965  21.329  14.528
94153W        W59314  38.971  33.813  12.440
94154W        W59315  18.603   8.555   3.267
94155W        W59316  12.731   0.525   0.993
94156W        W59317  23.567  14.291  14.090
94157W        W59318  43.739   1.875  13.111
94158W        W59319  33.917  28.725  12.453
94159W        W59320  13.251  40.572  12.093
94160W        W59321  22.341  24.643  12.491
94161W        W59322  32.604  34.901   3.691
94162W        W59323  29.220  17.673   3.228
94163W        W59324  31.502  43.992  12.129
94164W        W59325   2.918   6.253  12.466
94165W        W59326  18.740  22.916   4.276
94166W        W59327  12.185  26.456   3.166
94167W        W59328  35.433   2.922   1.415
94168W        W59329  29.524  29.151   0.478
94169W        W59330  15.226   7.384  11.555
94170W        W59331  34.159  14.645   1.662
94171W        W59332  28.850   2.890   1.685
94172W        W59333  19.707  24.715  11.612
94173W        W59334   3.750  30.166   4.884
94174W        W59335  30.044  16.725  12.913
94175W        W59336  31.235  39.492   4.995
94176W        W59337  11.141   2.197   4.483
94177W        W59338  42.832  26.052  10.724
94178W        W59339  31.068  35.547   0.296
94179W        W59340  43.507  32.760  13.961
94180W        W59341  14.523  29.525  11.175
94181W        W59342  42.286  10.144   3.726
94182W        W59343  10.906  22.566  11.535
94183W        W59344  41.434  32.415   0.523
94184W        W59345  23.723  27.948  14.139
94185W        W59346  35.511  19.171  13.590
94186W        W59347  12.955   1.409   1.305
94187W        W59348   4.250  39.266   2.523
94188W        W59349  13.717  43.486   3.647
94189W        W59350   7.286  43.911  14.563
94190W        W59351  43.372   1.558  11.482
94191W        W59352  16.110  24.174   1.753
94192W        W59353   4.199  10.143   1.404
94193W        W59354  35.112  10.523   5.325
94194W        W59355   8.881  33.547   0.673
94195W        W59356   3.200  34.239   4.339
94196W        W59357  35.827  43.802   2.319
94197W        W59358  19.805  37.450   1.695
94198W        W59359  14.881  19.864  11.457
94199W        W59360   9.844  14.777   2.209
94200W        W59361  17.498  13.586   3.781
94201W        W59362  15.582  29.977   2.706
94202W        W59363  24.361  26.388  12.424
94203W        W59364  43.261  15.194  14.921
94204W        W59365  32.334   8.348   4.671
94205W        W59366  35.319  41.551  12.520
94206W        W59367  44.751  35.647   1.963
94207W        W59368  12.111  36.322  11.837
94208W        W59369   5.671  11.983   0.450
94209W        W59370  37.766  41.389   2.549
94210W        W59371  40.263   4.365   1.776
94211W        W59372  32.183  21.754  11.782
94212W        W59373   6.734   3.170  14.337
94213W        W59374  24.243  29.120   4.914
94214W        W59375   5.746  21.740   4.311
94215W        W59376  11.411  31.622  11.179
94216W        W59377  19.077  35.844  11.071
94217W        W59378  43.565   3.420   0.053
94218W        W59379  40.392   3.060   2.875
94219W        W59380  12.111  18.227   3.761
94220W        W59381  18.751  20.575  12.560
94221W        W59382  16.296  17.261   4.571
94222W        W59383  40.643  12.322   1.416
94223W        W59384  39.445  31.587   1.442
94224W        W59385  39.811  41.996  14.324
94225W        W59386  18.505   6.888  10.648
94226W        W59387  22.221  26.651   1.725
94227W        W59388  44.543  16.139   0.392
94228W        W59389  15.284  28.972   3.164
94229W        W59390   8.780  17.963   2.218
94230W        W59391  35.376  25.415   1.791
94231W        W59392  14.081   8.575  12.503
94232W        W59393   9.310   3.459  14.724
94233W        W59394  29.115  16.178  13.597
94234W        W59395   1.498  27.261   3.635
94235W        W59396  33.672  35.340   0.302
94236W        W59397  30.253  24.990   1.772
94237W        W59398  11.844  44.860  13.566
94238W        W59399  15.775  27.493  12.178
94239W        W59400   3.187  27.506  14.510
94240W        W59401  44.106   5.910   1.936
94241W        W59402  15.250  17.245  10.386
94242W        W59403   5.646  17.511   2.121
94243W        W59404  15.726  38.105   2.357
94244W        W59405  39.597  11.903  11.180
94245W        W59406  36.501   1.185   0.383
94246W        W59407  13.925  44.910   4.702
94247W        W59408  12.055  27.659   3.734
94248W        W59409  20.408  37.455   0.194
94249W        W59410  10.196   9.114   1.757
94250W        W59411  43.534  29.833   2.816
94251W        W59412  34.500  26.990   0.081
94252W        W59413  12.677  18.348   1.868
94253W        W59414  20.949  32.058   2.785
94254W        W59415  28.036  44.371   1.672
94255W        W59416  22.542   5.139   4.578
94256W        W59417  33.806   9.228   0.448
94257W        W59418  41.409  12.271   3.685
94258W        W59419  22.750  40.611   3.369
94259W        W59420   2.750  23.709  14.327
94260W        W59421   7.321  26.949  14.571
94261W        W59422  38.647  42.066   3.772
94262W        W59423  20.565  29.906   3.276
94263W        W59424  29.653  32.085  13.157
94264W        W59425   6.214  11.394   3.807
94265W        W59426  43.403   5.786   2.393
94266W        W59427   4.379  40.341  12.402
94267W        W59428  43.079  43.226   2.900
94268W        W59429  43.578  27.498  12.185
94269W        W59430  27.025  27.970  12.963
94270W        W59431  21.983  16.415   2.560
94271W        W59432  20.142  43.898  14.823
94272W        W59433   3.891   2.910  10.885
94273W        W59434  35.449  14.961   3.391
94274W        W59435  32.705   8.874   4.118
94275W        W59436  14.332  37.610  12.478
94276W        W59437  35.633  44.733  13.503
94277W        W59438  11.332  28.276  13.150
94278W        W59439  42.363   2.433  12.080
94279W        W59440  37.452  20.119   0.276
94280W        W59441  13.279  35.548  12.125
94281W        W59442  43.248  17.152   4.920
94282W        W59443  29.064  16.898  11.586
94283W        W59444  16.881   7.356   3.728
94284W        W59445   5.213  27.710   4.329
94285W        W59446  35.085  22.166  12.888
94286W        W59447   4.751  28.149   0.663
94287W        W59448   6.358  43.324  13.483
94288W        W59449  37.809  16.297  14.801
94289W        W59450  26.088  41.541   3.247
94290W        W59451  37.478  35.657  14.711
94291W        W59452  17.218  29.400   3.283
94292W        W59453  40.511  43.789   3.235
94293W        W59454  39.999  33.325   4.274
94294W        W59455   4.584  28.428   1.851
94295W        W59456   7.935  11.638   4.126
94296W        W59457   4.640  33.027   3.660
94297W        W59458  27.868  11.631   1.387
94298W        W59459  21.628   1.916   0.402
94299W        W59460  43.876  20.445   1.479
94300W        W59461   8.261  26.976  13.466
94301W        W59462  37.614  25.604  11.834
94302W        W59463   8.155  25.127   2.227
94303W        W59464  14.812  19.012   3.208
94304W        W59465  34.293  34.058  12.413
94305W        W59466  21.216  37.341  14.773
94306W        W59467  39.931  15.686  11.488
94307W        W59468  21.864  41.835  12.316
94308W        W59469  31.937  28.180   1.423
94309W        W59470  38.099  42.225   0.330
94310W        W59471  11.154  33.849  14.819
94311W        W59472  30.980  28.664  14.979
94312W        W59473  11.858  23.674  13.600
94313W        W59474  29.075  14.710   2.759
94314W        W59475   0.472   4.024  13.954
94315W        W59476  33.861  30.480  12.345
94316W        W59477  23.990  14.559  13.968
94317W        W59478  33.499  17.158  14.806
94318W        W59479  13.370  26.109   3.186
94319W        W59480   6.119   7.212  14.793
94320W        W59481  10.752  31.103  11.732
94321W        W59482  31.351  40.480   2.465
94322W        W59483  12.359  27.191  14.997
94323W        W59484  30.895  22.109  14.505
94324W        W59485  11.656  26.294  12.421
94325W        W59486  39.449  43.375  11.430
94326W        W59487   1.983  21.604   0.334
94327W        W59488  38.756  38.851   2.445
94328W        W59489   0.287   4.980  14.864
94329W        W59490  23.116  30.792   2.106
94330W        W59491  26.011   9.089   4.195
94331W        W59492   8.637  36.391  11.510
94332W        W59493  28.155  27.954  11.564
94333W        W59494  30.828  17.812  11.648
94334W        W59495  24.131   2.741   1.665
94335W        W59496  12.928   4.688  13.760
94336W        W59497  10.586  19.329   0.548
94337W        W59498   3.232   0.383  14.832
94338W        W59499  18.352  15.087   4.950
94339W        W59500  17.630  11.256   3.631
94340W        W59501  44.829  33.061  10.691
94341W        W59502  42.612  43.766   2.260
94342W        W59503  22.776   7.817  13.021
94343W        W59504  20.171  39.991  14.500
94344W        W59505  21.089  14.503  11.907
94345W        W59506  15.784  10.270  11.656
94346W        W59507  19.208  41.765   1.294
94347W        W59508   8.337   2.255   1.301
94348W        W59509  20.218  40.056  12.872
94349W        W59510  15.252  30.151   4.446
94350W        W59511   5.015   7.167   3.247
94351W        W59512  34.078  22.027   3.669
94352W        W59513  34.136   6.886  12.559
94353W        W59514  37.045  17.701   4.719
94354W        W59515  20.767   6.809   0.793
94355W        W59516  15.346  16.162  13.069
94356W        W59517  24.181   4.349  14.336
94357W        W59518  17.019  29.991   2.423
94358W        W59519  21.660  35.458  12.967
94359W        W59520  42.268  35.583   2.609
94360W        W59521   1.684  30.777  13.787
94361W        W59522  37.696  21.190   0.487
94362W        W59523  20.582  34.844  11.429
94363W        W59524  28.054  31.080  13.855
94364W        W59525  10.264  22.983   0.379
94365W        W59526   2.294   3.115  11.903
94366W        W59527  27.166  33.992  14.818
94367W        W59528  19.689  24.750   0.358
94368W        W59529  15.712  31.451   4.241
94369W        W59530  16.073  10.247   3.681
94370W        W59531   5.258  18.492   3.201
94371W        W59532  24.118   9.554   1.751
94372W        W59533   2.466  20.182  12.948
94373W        W59534   4.144  36.479  12.487
94374W        W59535  12.247  20.515  12.090
94375W        W59536   9.617  44.326  11.093
94376W        W59537  37.976  32.365  12.589
94377W        W59538  28.038  10.816  13.359
94378W        W59539  35.402  21.932  12.562
94379W        W59540  23.634  38.428   0.221
94380W        W59541  38.227  30.740   2.771
94381W        W59542  35.541  13.063  13.963
94382W        W59543  18.143  28.156   2.858
94383W        W59544  44.451   8.329   4.201
94384W        W59545  15.650  17.885  10.170
94385W        W59546  14.085  38.531  12.415
94386W        W59547  33.168   7.799   0.190
94387W        W59548  22.290  44.484   1.941
94388W        W59549  31.638  15.177  13.919
94389W        W59550   8.742  44.914   4.680
94390W        W59551  34.932  22.080   0.290
94391W        W59552  37.000  17.532  14.787
94392W        W59553  21.473  19.692   2.163
94393W        W59554  22.313  11.193   1.838
94394W        W59555  36.509  38.283   0.503
94395W        W59556  41.816  18.677  14.484
94396W        W59557  32.142  42.250  12.046
94397W        W59558  36.830  12.679  13.956
94398W        W59559  13.511   9.809  13.176
94399W        W59560  11.229  21.654   3.437
94400W        W59561  16.567  20.545  12.976
94401W        W59562   8.757  34.102  12.541
94402W        W59563   9.758  30.406   1.374
94403W        W59564  31.952   4.726   0.351
94404W        W59565  25.020  19.335   0.957
94405W        W59566  27.002  24.666  11.034
94406W        W59567  43.323  25.596  14.025
94407W        W59568  12.249  34.908  12.945
94408W        W59569  28.734  31.955   4.233
94409W        W59570  38.922  14.641   2.478
94410W        W59571  30.225   7.825   0.386
94411W        W59572  11.752  33.532   4.075
94412W        W59573  17.168  22.655  10.716
94413W        W59574  42.801  39.364   1.939
94414W        W59575  18.709   9.734  14.965
94415W        W59576  21.076   6.166  14.756
94416W        W59577  34.012   8.899   2.267
94417W        W59578  26.188  34.511   1.718
94418W        W59579   1.695  14.672   4.608
94419W        W59580   3.345  27.968   1.509
94420W        W59581  24.637  25.298  12.958
94421W        W59582  26.718  17.274  14.802
94422W        W59583  13.716  13.684  13.164
94423W        W59584  31.442   3.739   3.979
94424W        W59585  29.051  26.978  14.093
94425W        W59586  25.876  25.598  11.621
94426W        W59587  17.370  25.172   0.308
94427W        W59588  33.189  21.662   2.698
94428W        W59589  17.735   1.900   2.362
94429W        W59590   7.412   9.368   1.338
94430W        W59591  18.107   9.193   0.315
94431W        W59592  12.184  21.199   4.484
94432W        W59593  19.009  14.712  13.330
94433W        W59594  24.892   6.713  12.628
94434W        W59595   7.378  13.229   3.239
94435W        W59596  26.929   8.196  13.394
94436W        W59597  32.686  11.730   4.639
94437W        W59598   0.241  38.117  13.995
94438W        W59599   7.899   7.093   3.595
94439W        W59600  16.031  19.252   2.035
94440W        W59601  24.142  29.600   1.878
94441W        W59602  10.706  23.231   1.361
94442W        W59603  32.528   4.412  12.617
94443W        W59604  25.207  42.049  11.958
94444W        W59605  34.555  19.284  13.366
94445W        W59606  28.116  28.121   4.509
94446W        W59607  12.629  41.261  11.256
94447W        W59608  32.047  27.748   0.556
94448W        W59609   1.035  15.426  14.238
94449W        W59610   2.979  29.610   4.823
94450W        W59611  14.145  16.602   2.640
94451W        W59612   2.569  42.600   1.409
94452W        W59613  25.132  29.206   4.848
94453W        W59614   7.957   1.936   4.775
94454W        W59615  15.093  12.196   4.689
94455W        W59616   6.400  43.958  12.136
94456W        W59617  13.006  30.343   0.492
94457W        W59618  23.001  20.664   3.347
94458W        W59619  41.010   1.811   1.827
94459W        W59620  22.619  43.955   3.692
94460W        W59621  20.232  25.938   1.364
94461W        W59622  24.631  31.907  12.018
94462W        W59623  13.089   0.979   4.996
94463W        W59624   8.477  32.267  14.353
94464W        W59625  24.421  27.957   3.005
94465W        W59626  17.182  26.116  12.949
94466W        W59627  36.451   4.655   0.384
94467W        W59628  32.397  18.145   3.344
94468W        W59629  26.937  39.602  14.835
94469W        W59630  21.038  30.010  10.980
94470W        W59631  29.876   9.473  11.777
94471W        W59632  13.343  34.927  13.414
94472W        W59633  26.531  29.963   4.078
94473W        W59634  33.817   9.616   3.416
94474W        W59635  34.036   7.414   3.250
94475W        W59636  30.948  37.479   2.733
94476W        W59637  36.430  22.457   3.140
94477W        W59638  39.649   4.854  11.588
94478W        W59639  34.625  21.977   0.700
94479W        W59640  31.124  18.465  11.119
94480W        W59641  39.306  35.922  12.122
94481W        W59642  14.968  17.474  13.849
94482W        W59643  17.201   4.495   3.167
94483W        W59644  29.502  14.065  11.575
94484W        W59645  26.700  17.813  11.147
94485W        W59646  40.836   8.625  12.099
94486W        W59647  18.683  28.081   3.085
94487W        W59648  21.527   5.762  13.843
94488W        W59649   2.049  22.908  12.066
94489W        W59650  30.052  32.053  12.334
94490W        W59651  13.682  41.408   2.932
94491W        W59652  21.109  34.738  12.511
94492W        W59653  41.938  37.511  12.575
94493W        W59654  43.484  30.051   0.436
94494W        W59655   8.687  16.694   4.904
94495W        W59656  21.390  25.058   3.885
94496W        W59657  26.730  44.215  14.352
94497W        W59658  19.810   4.232   4.190
94498W        W59659  11.205  35.908   0.940
94499W        W59660   8.938  14.760   1.856
94500W        W59661  10.910  23.873  14.531
94501W        W59662   9.711   9.675  14.901
94502W        W59663  44.557  15.245   0.307
94503W        W59664   4.196  11.110   3.660
94504W        W59665  29.846  44.003  11.068
94505W        W59666   7.848  30.056   0.477
94506W        W59667  18.951  32.475  13.801
94507W        W59668  30.028  40.796  14.093
94508W        W59669  16.029  41.368   1.651
94509W        W59670  40.334  28.709   3.437
94510W        W59671   6.985  37.199   2.721
94511W        W59672  10.194  20.633   3.220
94512W        W59673   8.476  30.687  13.019
94513W        W59674  33.944  22.175   2.277
94514W        W59675  37.028  19.427   1.892
94515W        W59676   2.224   7.186   2.771
94516W        W59677  11.130  16.339   3.277
94517W        W59678  25.974  34.567  11.505
94518W        W59679  42.376  39.320  10.522
94519W        W59680  23.970   9.773   1.286
94520W        W59681  30.229   0.207  11.376
94521W        W59682  44.365   1.340  14.726
94522W        W59683   7.320   7.879  12.486
94523W        W59684   8.698  40.984  14.293
94524W        W59685   3.208  20.479  11.566
94525W        W59686   8.145  38.058  13.298
94526W        W59687  24.440   8.054   4.641
94527W        W59688  20.589   0.200  13.820
94528W        W59689  29.817  18.484   0.039
94529W        W59690  25.628   7.237  11.275
94530W        W59691  36.563  28.543   0.057
94531W        W59692  11.866  19.548  14.839
94532W        W59693   5.637  21.924   2.909
94533W        W59694  11.133  22.728  12.924
94534W        W59695   8.378  16.516  14.339
94535W        W59696  11.106   3.769  12.923
94536W        W59697  18.607  22.273   1.792
94537W        W59698  33.893   3.207   3.644
94538W        W59699  16.152  12.253   4.776
94539W        W59700  23.912  20.110   0.715
94540W        W59701  22.458  21.608   1.766
94541W        W59702  23.084  21.542  14.600
94542W        W59703  23.160   3.755   0.403
94543W        W59704  35.045   8.283   3.059
94544W        W59705  10.404   2.489  13.431
94545W        W59706  18.779  17.316  14.953
94546W        W59707   1.949   8.370  11.439
94547W        W59708  14.303  22.044   4.101
94548W        W59709  44.915  37.383  14.253
94549W        W59710  18.986  11.367  12.907
94550W        W59711  10.667  13.206  14.431
94551W        W59712  19.999  27.608  13.980
94552W        W59713  41.277  44.771   4.094
94553W        W59714  25.575  25.877   1.681
94554W        W59715  41.943  27.469  11.562
94555W        W59716  12.872  37.294  11.623
94556W        W59717  28.673   2.000  10.629
94557W        W59718   6.608  32.590  14.465
94558W        W59719  43.138  27.223  12.053
94559W        W59720  16.134  28.091  11.640
94560W        W59721  24.595  18.232   1.230
94561W        W59722  14.805  13.038  14.799
94562W        W59723  43.050  44.816  14.251
94563W        W59724  21.132   6.290  12.979
94564W        W59725  19.184  29.866  14.434
94565W        W59726   5.227  34.934   4.758
94566W        W59727   4.694  24.050  14.744
94567W        W59728   5.741  24.452   4.598
94568W        W59729   3.166  25.919   5.429
94569W        W59730  43.013  10.925   2.673
94570W        W59731  11.783  11.525  13.356
94571W        W59732   6.941   4.438   2.248
94572W        W59733  18.725  35.397  10.960
94573W        W59734  31.918  41.088   4.084
94574W        W59735  11.583  23.762   4.574
94575W        W59736  41.261  19.750   4.155
94576W        W59737  40.400  41.902   3.023
94577W        W59738  32.018  32.578  12.894
94578W        W59739   0.210  21.167  12.165
94579W        W59740   7.279  19.752  14.931
94580W        W59741  17.288  28.033   1.594
94581W        W59742  21.240  41.470   0.246
94582W        W59743  33.532   3.765  10.414
94583W        W59744  14.089  43.381  14.639
94584W        W59745   3.478  16.293   0.372
94585W        W59746  19.291  44.756  11.565
94586W        W59747  16.386  21.617  14.921
94587W        W59748  31.469  19.737   0.430
94588W        W59749  17.245   5.337  10.477
94589W        W59750  24.337  30.587   1.912
94590W        W59751  31.576  14.731   4.361
94591W        W59752  23.025  39.333   4.646
94592W        W59753  43.888   1.835  12.621
94593W        W59754  34.854  44.383   2.864
94594W        W59755  32.595  24.022  10.369
94595W        W59756  37.682  38.608   9.986
94596W        W59757   6.485  28.206   2.631
94597W        W59758  12.423  44.957   0.279
94598W        W59759  44.216  34.159  10.916
94599W        W59760  19.201   5.684  14.021
94600W        W59761   1.825   6.740   0.258
94601W        W59762  19.175   2.140   3.378
94602W        W59763  25.143  18.538  11.851
94603W        W59764  13.228  37.129   1.958
94604W        W59765  23.511  34.884  11.141
94605W        W59766  42.411  37.516  13.400
94606W        W59767  38.882  10.242   0.304
94607W        W59768  41.292  10.507  13.394
94608W        W59769  36.402  32.884  11.549
94609W        W59770  18.565  11.841  13.356
94610W        W59771   3.390   3.753  11.591
94611W        W59772   5.345   5.195  12.914
94612W        W59773  32.445  16.230   2.631
94613W        W59774  42.591   7.218   3.151
94614W        W59775  12.521  13.868   2.223
94615W        W59776  17.204  37.061  13.252
94616W        W59777  17.480  44.862  11.968
94617W        W59778   2.289  20.281   2.532
94618W        W59779  29.367   1.500  14.542
94619W        W59780  37.368  23.161  12.471
94620W        W59781   5.317  18.835   1.777
94621W        W59782  43.897  11.385   0.717
94622W        W59783   4.681  24.550   3.720
94623W        W59784  44.422  24.311   3.162
94624W        W59785  33.504  44.824   1.844
94625W        W59786   9.897  12.679  11.786
94626W        W59787  16.206   5.680   3.206
94627W        W59788  42.310  15.790  12.284
94628W        W59789  40.105  28.428  12.083
94629W        W59790  28.197  41.058   3.151
94630W        W59791   4.010   7.757   1.315
94631W        W59792  41.723  11.425  13.013
94632W        W59793  22.761  11.217  14.770
94633W        W59794  28.500  28.548   2.336
94634W        W59795  40.950  18.596   4.188
94635W        W59796  14.583   1.435  12.061
94636W        W59797  33.158  43.966  13.543
94637W        W59798  31.676  29.638  11.527
94638W        W59799  19.175  29.728  14.961
94639W        W59800  15.626  17.219  12.687
94640W        W59801  18.506   4.768   2.229
94641W        W59802  31.028  28.377   0.428
94642W        W59803  19.578  20.930  13.838
94643W        W59804  23.665  30.592  14.859
94644W        W59805  33.947  36.266   2.375
94645W        W59806   4.004  31.672   3.875
94646W        W59807   5.921  20.607   1.421
94647W        W59808  29.407   3.793  13.488
94648W        W59809  34.904  24.570   0.866
94649W        W59810  44.837  27.723   1.866
94650W        W59811   4.472  15.810   1.829
94651W        W59812  30.165   7.252   3.227
94652W        W59813   5.708  20.271  14.931
94653W        W59814  29.014  43.542   2.214
94654W        W59815  16.719  29.396   2.972
94655W        W59816  33.122  36.490   2.133
94656W        W59817  21.162  20.271  11.055
94657W        W59818   1.516  22.045  12.594
94658W        W59819  25.147  28.514   4.721
94659W        W59820   2.494  33.701  14.344
94660W        W59821  11.878  27.671   4.812
94661W        W59822  21.096  18.566   1.399
94662W        W59823  27.011  23.027   2.697
94663W        W59824  24.423  42.166   9.920
94664W        W59825  16.588  31.181  14.396
94665W        W59826  27.607  43.542   1.646
94666W        W59827   1.223  12.711   1.145
94667W        W59828  44.858  35.956   2.387
94668W        W59829  40.310  13.308   4.104
94669W        W59830   5.864  32.688   1.271
94670W        W59831   2.282  29.611   2.288
94671W        W59832   7.748   8.232   3.106
94672W        W59833  21.770  38.469  11.909
94673W        W59834  35.736  25.518  13.624
94674W        W59835  10.205  41.882   0.773
94675W        W59836  30.455  42.281   0.772
94676W        W59837   2.834  31.450  14.732
94677W        W59838  31.161  14.047  11.191
94678W        W59839  21.909   1.107   3.942
94679W        W59840  26.768  12.182   2.765
94680W        W59841  16.916   5.360  12.817
94681W        W59842   3.374  30.630   0.835
94682W        W59843  20.734  44.112   0.519
94683W        W59844  41.468  41.427  13.522
94684W        W59845  19.135  44.256  13.496
94685W        W59846   9.255  16.201  12.069
94686W        W59847  23.458   2.119  11.619
94687W        W59848  34.963  25.137   4.755
94688W        W59849   1.798  39.549   0.818
94689W        W59850   2.504  41.130   0.220
94690W        W59851  15.752   0.528   1.015
94691W        W59852  18.043   0.811   2.759
94692W        W59853  29.691   4.742   4.791
94693W        W59854  24.649  34.149  14.408
94694W        W59855  23.079  34.427   1.465
94695W        W59856  13.608  43.887  13.377
94696W        W59857  33.441  38.037   0.547
94697W        W59858  42.724  26.234   4.552
94698W        W59859  40.041   7.161   1.437
94699W        W59860  25.065  35.000   1.334
94700W        W59861  40.759  17.591  10.814
94701W        W59862  27.471  19.164  14.984
94702W        W59863   2.357  12.859   0.905
94703W        W59864  32.635   9.313  10.462
94704W        W59865  10.333  13.252  10.645
94705W        W59866  30.463   3.292  10.772
94706W        W59867  40.846   3.796   0.359
94707W        W59868  29.170  37.375   0.998
94708W        W59869  25.725  14.568   0.876
94709W        W59870  33.370  41.414  10.665
94710W        W59871   2.691  32.086  12.529
94711W        W59872  27.194  32.466  12.983
94712W        W59873  14.376  20.389  13.807
94713W        W59874  15.207   2.871  13.192
94714W        W59875  32.856   0.184  13.854
94715W        W59876  20.467   3.899   1.384
94716W        W59877   5.464  16.162  10.579
94717W        W59878  12.760  39.904   4.461
94718W        W59879  11.494   0.159  12.309
94719W        W59880   5.467  22.733   1.197
94720W        W59881  32.934  40.688   4.346
94721W        W59882  14.699  40.529  14.666
94722W        W59883   1.818   4.483  12.017
94723W        W59884  33.507  19.660  11.656
94724W        W59885  32.727  22.104  12.440
94725W        W59886  14.122  42.452  13.406
94726W        W59887   9.055  12.834   4.177
94727W        W59888  43.814  33.001  10.543
94728W        W59889  27.258  29.942  11.550
94729W        W59890  11.616  35.795   4.428
94730W        W59891  11.149  22.577   4.059
94731W        W59892  35.046  14.416   4.216
94732W        W59893  41.838  43.492  14.491
94733W        W59894   4.545   1.520   0.487
94734W        W59895   9.328  17.572  12.041
94735W        W59896  23.237   5.920  12.546
94736W        W59897  41.978  24.440   2.873
94737W        W59898  30.110  21.442  11.986
94738W        W59899  17.158   5.871   0.007
94739W        W59900  10.357  23.704  12.140
94740W        W59901  10.761   8.676   4.280
94741W        W59902  43.711   6.054   0.843
94742W        W59903  35.486  42.511   0.830
94743W        W59904  24.908   5.937  11.590
94744W        W59905  28.117   9.115   0.865
94745W        W59906  29.853  39.500   2.873
94746W        W59907  40.699   0.813  11.118
94747W        W59908  17.409   9.188  12.532
94748W        W59909   6.344   7.885   4.064
94749W        W59910  38.805  19.675   5.183
94750W        W59911  25.385  23.180   0.424
94751W        W59912  28.155  43.340   0.904
94752W        W59913  31.587   8.498   2.553
94753W        W59914  14.242  25.217  10.781
94754W        W59915  17.618   7.731   4.331
94755W        W59916   2.778  16.510   4.330
94756W        W59917  37.418  39.117  10.643
94757W        W59918  16.397  26.571   4.467
94758W        W59919  40.582  12.213   2.239
94759W        W59920   2.005   2.862   0.189
94760W        W59921  24.292  25.967  11.841
94761W        W59922  32.946  29.978   1.684
94762W        W59923   2.102  26.476  10.046
94763W        W59924  26.947  22.342  10.093
94764W        W59925  19.371  15.682   3.699
94765W        W59926  38.305  13.209   1.812
94766W        W59927  42.053  31.168  14.353
94767W        W59928  18.796  37.514  13.206
94768W        W59929  17.105  19.222   0.594
94769W        W59930   6.968  34.073   3.174
94770W        W59931   3.594  14.859  11.135
94771W        W59932  44.137  44.814  10.042
94772W        W59933  43.966  39.956  10.762
94773W        W59934  34.021  14.692  11.236
94774W        W59935  33.506  15.366   4.503
94775W        W59936  25.084  42.649   5.005
94776W        W59937   4.185  42.346   0.417
94777W        W59938   5.255  20.606   4.166
94778W        W59939  26.191  23.426   9.797
94779W        W59940  43.751  21.364   3.732
94780W        W59941  42.894  25.978   3.245
94781W        W59942  43.999  35.207  12.479
94782W        W59943  18.079  20.046   0.260
94783W        W59944  27.992  41.288   2.733
94784W        W59945  30.757  24.541  11.573
94785W        W59946   7.833  31.378  11.934
94786W        W59947   3.179  20.824  11.169
94787W        W59948  21.536  23.230   2.748
94788W        W59949  42.971  12.174   0.911
94789W        W59950  11.088   8.678  13.473
94790W        W59951  25.965   0.377   3.751
94791W        W59952  16.321  10.733  11.015
94792W        W59953   1.392  33.556  11.566
94793W        W59954  24.324  39.288  13.983
94794W        W59955  10.656  28.698   0.257
94795W        W59956  26.635   0.085  14.037
94796W        W59957  15.183  28.580  14.502
94797W        W59958   0.363  38.878  11.733
94798W        W59959  13.128   1.329  11.169
94799W        W59960  12.853   7.144  12.977
94800W        W59961  32.389  12.269   4.119
94801W        W59962  32.457  10.270  10.385
94802W        W59963  39.769  10.664  11.618
94803W        W59964  27.500   4.365  13.579
94804W        W59965   3.252  19.355  12.395
94805W        W59966  13.055  25.546  12.480
94806W        W59967  28.427   6.848  11.057
94807W        W59968  15.266  44.463  12.919
94808W        W59969  14.028  13.274  11.106
94809W        W59970  20.116   8.937   1.977
94810W        W59971  20.387   7.291   0.028
94811W        W59972  38.392   2.001   0.301
94812W        W59973  34.466  10.883   0.335
94813W        W59974  29.696  38.815   0.780
94814W        W59975  44.711  41.031  14.888
94815W        W59976   3.990  19.090  14.546
94816W        W59977  28.870  27.642  11.116
94817W        W59978  22.162  26.039   3.576
94818W        W59979   4.244  38.570   0.356
94819W        W59980  11.036  20.966   3.649
94820W        W59981  25.721  23.484   2.647
94821W        W59982   2.937   5.182  14.958
94822W        W59983  31.618  16.326   3.671
94823W        W59984  35.930  20.280   0.076
94824W        W59985  14.816   7.116   2.270
94825W        W59986  12.509  31.123   3.109
94826W        W59987  20.178  12.731   0.164
94827W        W59988  43.927   3.382   4.508
94828W        W59989  24.569  27.275  12.638
94829W        W59990  13.662  38.975   2.347
94830W        W59991   1.339  12.090  10.157
94831W        W59992  33.122   0.181   0.698
94832W        W59993  21.943  34.862  11.625
94833W        W59994   2.704   3.416  12.624
94834W        W59995  40.916  21.046   2.738
94835W        W59996  20.106  22.671  10.172
94836W        W59997  14.187  38.423   0.159
94837W        W59998  38.754  44.889  12.000
94838W        W59999  19.112  30.570   0.616
94839W        W60000  29.939   5.682  12.471
94840W        W60001  29.515  19.207  14.414
94841W        W60002   8.652   8.360  11.685
94842W        W60003  35.488  27.021   2.958
94843W        W60004  22.363  16.669  14.899
94844W        W60005   0.048  34.994  11.396
94845W        W60006   5.765   6.138   3.766
94846W        W60007  31.806  12.763  12.997
94847W        W60008  11.622   1.479  11.968
94848W        W60009  41.447  35.864   4.232
94849W        W60010  29.112  41.035   2.388
94850W        W60011  42.753  28.317   0.853
94851W        W60012  38.012  44.897  12.558
94852W        W60013  25.613  37.451  14.495
94853W        W60014  35.659   0.940   4.119
94854W        W60015   8.422  23.047   2.162
94855W        W60016  21.508  13.371  11.012
94856W        W60017  21.021  25.585   4.595
94857W        W60018   0.925   5.233   1.759
94858W        W60019  13.260   5.415  11.154
94859W        W60020  16.594  28.282  14.867
94860W        W60021  25.958  28.172   3.227
94861W        W60022   7.960   6.588   3.536
94862W        W60023  20.240  12.030   4.583
94863W        W60024  12.586  19.914   3.768
94864W        W60025   5.996   9.767   3.123
94865W        W60026   4.009   4.731  14.520
94866W        W60027  35.083   3.433  12.610
94867W        W60028  20.435  34.002  10.829
94868W        W60029  24.869  27.996   2.006
94869W        W60030  22.573  10.261  11.041
94870W        W60031  22.014  36.450   0.408
94871W        W60032  22.973  41.799   3.631
94872W        W60033  14.671  32.062   3.862
94873W        W60034  26.122  20.192  10.530
94874W        W60035  32.321   4.842  12.883
94875W        W60036   9.616  18.615   4.409
94876W        W60037  34.854  29.147   4.602
94877W        W60038   2.895   6.157   0.851
94878W        W60039  28.059  41.871  14.379
94879W        W60040  19.212   7.757   0.765
94880W        W60041   7.313  20.295  12.105
94881W        W60042   0.915   1.960  13.499
94882W        W60043  29.130  29.991  11.447
94883W        W60044  21.929  41.157   3.752
94884W        W60045  21.538  40.188  13.941
94885W        W60046   9.397   3.400  10.703
94886W        W60047   7.667  23.642  14.445
94887W        W60048   0.825  36.116  11.113
94888W        W60049  44.152  36.498   1.941
94889W        W60050   9.961  44.578   4.107
94890W        W60051  12.247   7.958   4.060
94891W        W60052   4.683  32.861   2.751
94892W        W60053   6.933  11.780  10.821
94893W        W60054  33.985  24.273  10.646
94894W        W60055  38.063  33.786  12.404
94895W        W60056   4.365  11.805  14.320
94896W        W60057   5.217  19.774  10.150
94897W        W60058  11.726  16.154   4.085
94898W        W60059  23.299  38.960   0.455
94899W        W60060  36.908  30.427   0.693
94900W        W60061  35.584  36.368  11.546
94901W        W60062  16.265  29.275  14.897
94902W        W60063  14.580  18.660  11.533
94903W        W60064  42.326  25.059   4.027
94904W        W60065  13.609  29.467   2.816
94905W        W60066  28.145  33.389  11.520
94906W        W60067  29.666   7.433   4.016
94907W        W60068   9.300  35.831   5.121
94908W        W60069  37.596  27.969   0.453
94909W        W60070  30.233  34.544   0.201
94910W        W60071  24.383  43.986  12.479
94911W        W60072  27.323  12.068  11.197
94912W        W60073   2.074  10.831  12.568
94913W        W60074  31.394  26.162   5.006
94914W        W60075  20.223  37.871  12.344
94915W        W60076  28.705  10.507  11.855
94916W        W60077  11.695  12.840  14.567
94917W        W60078  42.942  27.601  14.353
94918W        W60079  12.174  17.823   2.928
94919W        W60080  29.019  24.424   2.627
94920W        W60081  35.892  32.358   3.658
94921W        W60082  18.538  25.119  11.589
94922W        W60083  33.068  43.869   1.042
94923W        W60084  43.505  43.755   1.261
94924W        W60085   7.879  22.563   2.672
94925W        W60086  28.123  16.826  14.405
94926W        W60087  24.762  15.770   0.503
94927W        W60088  35.638  41.493  11.561
94928W        W60089  16.123  16.513  14.941
94929W        W60090  13.714  44.540   2.743
94930W        W60091  13.232  42.447   0.669
94931W        W60092  15.757  10.427  12.191
94932W        W60093  12.115  25.647  14.801
94933W        W60094  17.129  15.683  12.929
94934W        W60095  26.531  16.080   4.655
94935W        W60096  38.628  32.476   1.641
94936W        W60097  27.521  36.614   1.405
94937W        W60098   8.795  13.331  13.281
94938W        W60099  14.789  20.107  13.095
94939W        W60100  13.364  31.433   0.844
94940W        W60101  21.676  29.941   3.676
94941W        W60102  27.492  18.157   2.881
94942W        W60103  28.058  27.316  13.975
94943W        W60104   3.437  12.586   3.190
94944W        W60105  20.083  34.658   2.292
94945W        W60106  37.930  39.780  13.108
94946W        W60107  31.094   3.999  10.732
94947W        W60108  22.310  15.402   4.615
94948W        W60109   2.349  12.877  13.041
94949W        W60110  24.099   0.412   5.068
94950W        W60111  41.783  34.023   4.180
94951W        W60112  41.440  14.742  10.691
94952W        W60113  12.593   4.956   2.287
94953W        W60114  32.644  27.117   0.928
94954W        W60115   2.801  26.646  10.603
94955W        W60116  11.225  31.226   1.817
94956W        W60117  14.538   9.794  12.710
94957W        W60118  23.215  36.492   2.652
94958W        W60119  43.685  30.111  11.635
94959W        W60120  33.100   7.296  10.464
94960W        W60121   7.664  22.116  13.539
94961W        W60122  43.965  25.256   0.728
94962W        W60123  39.344   7.995  11.617
94963W        W60124   1.733   8.454   2.726
94964W        W60125  24.969  19.155   2.438
94965W        W60126  16.841   6.679  14.654
94966W        W60127  12.706   4.692  11.076
94967W        W60128   8.397  26.480  13.454
94968W        W60129  32.989  28.454  10.761
94969W        W60130  43.594  26.453  10.887
94970W        W60131  22.533  28.732   0.913
94971W        W60132   6.787  12.066   1.948
94972W        W60133  38.440  16.753   0.819
94973W        W60134  10.875  24.085   2.452
94974W        W60135  14.303  32.479  14.063
94975W        W60136   6.330  23.993  13.415
94976W        W60137   2.700  27.609  11.653
94977W        W60138   4.439  44.428  11.136
94978W        W60139  34.938  42.316  11.112
94979W        W60140  30.589  16.655  12.812
94980W        W60141  27.687   5.495   3.255
94981W        W60142  35.526  27.026   4.462
94982W        W60143  38.209  16.102   3.641
94983W        W60144  37.482   9.965   4.179
94984W        W60145   2.327   6.144   3.261
94985W        W60146  19.414  27.200   4.034
94986W        W60147   6.814  27.184  12.562
94987W        W60148  37.458  36.576  13.474
94988W        W60149  28.863   9.392   3.896
94989W        W60150   7.397  33.327   4.006
94990W        W60151  29.161  19.287   2.787
94991W        W60152  24.120  19.775  13.079
94992W        W60153   0.275  38.845  13.409
94993W        W60154  13.739  28.110  11.365
94994W        W60155   6.645  39.958   1.947
94995W        W60156  13.820  11.441   2.821
94996W        W60157  43.860  40.322  14.727
94997W        W60158  44.898  17.649  13.327
94998W        W60159  17.143  28.944   0.971
94999W        W60160  35.484  10.269   4.655
95000W        W60161  23.061  20.660  14.941
95001W        W60162  27.178  30.539  13.883
95002W        W60163   8.206  39.501  12.071
95003W        W60164  33.687  20.083   0.494
95004W        W60165   2.066  26.401  14.532
95005W        W60166  31.819  29.804  14.509
95006W        W60167  10.596  39.990   0.434
95007W        W60168  38.780  24.029  14.242
95008W        W60169  30.398   7.112   0.273
95009W        W60170  17.250  26.026  14.850
95010W        W60171  14.546  44.854   3.732
95011W        W60172  34.859  10.219  12.190
95012W        W60173  32.228  37.407  11.608
95013W        W60174  17.918  36.410  14.649
95014W        W60175  23.480  19.978  12.140
95015W        W60176   6.242  24.580  11.907
95016W        W60177   2.485  43.333   3.822
95017W        W60178  30.356  21.689  12.486
95018W        W60179  44.580   6.410  12.366
95019W        W60180  35.723   0.372   3.786
95020W        W60181  13.611  21.434  12.088
95021W        W60182   0.737  17.606   3.111
95022W        W60183  11.755  34.985  13.379
95023W        W60184  12.277   7.415  12.907
95024W        W60185  33.824   6.144   2.189
95025W        W60186  19.697   0.093  11.571
95026W        W60187  11.580   8.786   0.704
95027W        W60188  41.013  43.977   4.468
95028W        W60189  43.791  10.343   0.741
95029W        W60190  18.011   3.146   4.061
95030W        W60191  26.024  26.663   0.825
95031W        W60192  27.542   2.186   0.723
95032W        W60193  31.015   8.732  11.323
95033W        W60194  16.185  40.444  14.044
95034W        W60195  15.177  13.372   2.434
95035W        W60196  44.494   9.117  14.281
95036W        W60197  23.064  27.391   3.067
95037W        W60198   3.558   3.630  12.125
95038W        W60199  21.084  29.531  13.604
95039W        W60200  21.027  22.955  14.863
95040W        W60201  36.552   7.833   2.575
95041W        W60202  15.159  14.438   4.529
95042W        W60203   8.669   2.555   2.944
95043W        W60204  39.389  10.861  11.089
95044W        W60205  16.884  38.179   2.236
95045W        W60206  25.179  14.708   1.768
95046W        W60207  41.849  11.650   4.665
95047W        W60208  27.036   9.457  12.868
95048W        W60209   3.483  19.047   1.768
95049W        W60210  23.243  35.817   3.319
95050W        W60211  20.970   9.887  11.935
95051W        W60212   2.370  40.867  14.785
95052W        W60213  13.739  18.561  14.112
95053W        W60214  15.296  43.840   3.236
95054W        W60215  22.930  18.065   0.419
95055W        W60216   9.250  19.441   3.835
95056W        W60217  36.909  36.826   4.338
95057W        W60218   7.909  44.239  11.909
95058W        W60219  28.520   4.171   2.625
95059W        W60220  27.961  24.249  11.596
95060W        W60221   1.364  15.603   0.284
95061W        W60222  14.815  16.562   1.946
95062W        W60223   0.234  21.121   2.088
95063W        W60224  32.831  14.314  11.845
95064W        W60225  35.552  36.787  12.680
95065W        W60226   5.841  35.249  13.102
95066W        W60227  28.838  32.606   0.233
95067W        W60228   0.826  42.662  12.405
95068W        W60229  31.501  33.502   1.296
95069W        W60230   8.225  16.996   0.662
95070W        W60231  10.610  19.951  13.512
95071W        W60232   2.041   4.188   0.822
95072W        W60233  17.736  17.395  13.981
95073W        W60234   3.391   7.892  11.920
95074W        W60235  31.843  22.581  13.525
95075W        W60236  38.577   1.923   2.267
95076W        W60237   0.978   1.536   4.163
95077W        W60238  42.431   5.855   4.135
95078W        W60239  42.709  11.132  12.938
95079W        W60240  27.050   9.831  14.618
95080W        W60241   2.884  15.545   0.979
95081W        W60242  28.462  29.441  13.446
95082W        W60243  20.719   1.897   1.446
95083W        W60244  30.555   4.423  14.727
95084W        W60245  28.640  34.097   4.174
95085W        W60246  38.033  10.134   4.313
95086W        W60247  23.706  44.763   2.114
95087W        W60248  34.198  25.300  10.755
95088W        W60249  43.907  17.248   0.821
95089W        W60250   0.966  32.915   3.406
95090W        W60251  11.804   2.792  14.994
95091W        W60252   6.895  43.170   0.018
95092W        W60253  10.431  28.631  13.374
95093W        W60254  17.550   0.488   4.092
95094W        W60255   4.526  40.942   2.646
95095W        W60256   5.929  36.549  13.654
95096W        W60257  17.374   6.188  14.187
95097W        W60258  36.838  24.975  13.893
95098W        W60259  32.339  28.088  12.779
95099W        W60260  24.511  36.030   1.332
95100W        W60261  15.584  35.003  11.235
95101W        W60262  36.498  21.998  13.263
95102W        W60263  25.361  13.758   4.950
95103W        W60264  28.166  14.816   2.862
95104W        W60265  29.174  14.120   0.953
95105W        W60266   5.808  38.364   4.816
95106W        W60267  32.507  13.874  10.789
95107W        W60268   6.188  42.011  14.890
95108W        W60269   3.432  17.805  11.020
95109W        W60270  16.343  30.493   5.086
95110W        W60271  37.353  41.933  10.596
95111W        W60272  21.159  15.009  11.003
95112W        W60273   7.876  33.428  11.383
95113W        W60274  36.979  39.806   5.055
95114W        W60275  25.750  11.251  13.319
95115W        W60276  23.222  36.057   2.091
95116W        W60277  37.840  26.051  11.982
95117W        W60278  24.620   9.446   2.208
95118W        W60279  15.074  31.341  14.439
95119W        W60280   7.189  23.894  13.446
95120W        W60281  22.193  17.611   2.272
95121W        W60282  31.061  34.433  12.507
95122W        W60283   0.151   8.142  13.139
95123W        W60284  17.260  33.441   3.671
95124W        W60285  32.917  11.530  11.125
95125W        W60286  26.853   0.565   1.840
95126W        W60287  26.178   4.611  14.656
95127W        W60288   1.478  25.026  11.341
95128W        W60289   6.222  38.823   3.421
95129W        W60290  27.412   0.926   0.498
95130W        W60291   2.209  31.199   3.329
95131W        W60292  20.505  35.219  12.953
95132W        W60293   6.429   6.737  13.529
95133W        W60294  43.067  19.525   2.176
95134W        W60295  13.309  25.552   3.543
95135W        W60296  31.157  42.114  12.067
95136W        W60297  36.312   3.064   3.670
95137W        W60298  29.245   3.272   1.782
95138W        W60299  14.225  33.312  14.291
95139W        W60300   8.632   9.888   4.117
95140W        W60301  38.738   3.811   3.238
95141W        W60302  20.716  33.159   4.260
95142W        W60303  20.219  26.085   1.874
95143W        W60304  11.977  33.532  14.965
95144W        W60305  24.146  36.971  14.520
95145W        W60306  37.604  31.398  10.753
95146W        W60307  25.124   7.372  13.330
95147W        W60308  26.495  23.980  10.631
95148W        W60309  35.891   6.226   3.228
95149W        W60310  32.190  10.194  13.516
95150W        W60311  24.306  10.952   5.330
95151W        W60312  44.475   8.490   2.187
95152W        W60313  22.987  36.480  10.407
95153W        W60314  24.712   2.681  13.914
95154W        W60315  41.088  37.769  12.578
95155W        W60316  43.201   1.701   1.988
95156W        W60317  15.014  17.973   1.723
95157W        W60318  20.309  11.704   1.290
95158W        W60319   0.023  16.556   2.921
95159W        W60320  13.350   6.350  14.920
95160W        W60321  42.735  39.594  14.294
95161W        W60322  29.415  13.749  14.811
95162W        W60323   7.129  40.880   2.868
95163W        W60324  40.040  19.983   1.951
95164W        W60325  35.838  17.367  11.569
95165W        W60326  21.394   7.248   0.304
95166W        W60327  15.637  27.372   2.453
95167W        W60328  11.300  27.105   1.296
95168W        W60329  34.908  19.203   4.583
95169W        W60330  44.823  30.356  12.494
95170W        W60331  31.884  44.055  11.164
95171W        W60332  32.907  25.584   2.268
95172W        W60333  35.068  23.688   1.340
95173W        W60334   2.479  38.809  10.624
95174W        W60335  36.272  35.359   0.681
95175W        W60336   0.629  24.620  14.421
95176W        W60337  44.700  16.786   0.960
95177W        W60338  33.307  42.187   3.658
95178W        W60339  13.606  36.985   1.604
95179W        W60340  30.799  38.310  10.220
95180W        W60341  19.226  25.433   2.786
95181W        W60342  25.166  24.210   1.361
95182W        W60343  35.277  41.339   2.899
95183W        W60344   2.543  36.363   2.640
95184W        W60345  40.806  13.242  13.399
95185W        W60346  31.415  23.084   1.211
95186W        W60347  19.776  42.260  14.884
95187W        W60348   2.797  33.135   4.098
95188W        W60349  11.366  32.207   2.005
95189W        W60350  12.636  22.480  11.963
95190W        W60351  39.061   0.428   3.242
95191W        W60352  24.202  16.561  12.920
95192W        W60353  41.984  23.210   2.665
95193W        W60354  25.154  28.538   1.274
95194W        W60355   7.175  36.292  13.985
95195W        W60356  44.288  40.660  14.721
95196W        W60357   3.325  37.576  10.115
95197W        W60358   5.192  37.283  12.331
95198W        W60359   3.586  41.732  13.902
95199W        W60360   9.350   5.313   0.876
95200W        W60361  20.977   8.201  13.071
95201W        W60362  40.407  18.326  14.834
95202W        W60363  23.043  20.179   3.544
95203W        W60364  37.576  44.859   1.835
95204W        W60365  15.021  37.360  12.045
95205W        W60366  36.472  16.162   4.230
95206W        W60367  44.700  42.477   3.674
95207W        W60368  39.840   1.393   2.130
95208W        W60369  17.567  43.586   3.201
95209W        W60370  18.825  30.574   5.074
95210W        W60371  23.247  14.732   1.866
95211W        W60372  13.966   4.922   0.473
95212W        W60373  19.305  42.496  10.953
95213W        W60374  18.769  39.805   1.893
95214W        W60375  26.372   4.748  12.860
95215W        W60376  27.514  11.466   1.001
95216W        W60377  23.763  19.737   0.398
95217W        W60378  33.696  16.886   1.456
95218W        W60379  27.478   3.237   0.882
95219W        W60380  35.538  17.185   3.657
95220W        W60381  37.989  39.675   1.777
95221W        W60382  28.109  38.188   4.566
95222W        W60383  32.322  24.219  12.939
95223W        W60384  22.070  44.308  11.919
95224W        W60385  14.663  23.911  13.026
95225W        W60386  29.866  42.964  11.989
95226W        W60387  28.487  20.203  13.092
95227W        W60388  34.437  36.574   3.799
95228W        W60389  42.532  36.326  11.895
95229W        W60390  17.546  40.344   1.723
95230W        W60391  15.222  38.104   2.104
95231W        W60392  18.708   2.702   4.560
95232W        W60393  30.097  20.888   1.697
95233W        W60394   9.180  41.160  11.547
95234W        W60395  18.228   5.485   1.340
95235W        W60396   9.679  35.169  12.510
95236W        W60397  24.661  12.853   1.233
95237W        W60398  28.421  18.093  12.947
95238W        W60399  15.345   4.032   3.391
95239W        W60400  39.821  40.923  12.422
95240W        W60401  29.180  14.169  14.589
95241W        W60402  30.987   9.470   0.128
95242W        W60403  31.916  15.379   1.327
95243W        W60404   5.334   8.101   2.696
95244W        W60405  25.018  23.797   2.494
95245W        W60406  37.637  39.298  11.381
95246W        W60407  31.487  36.090   2.815
95247W        W60408  12.385  31.362   3.829
95248W        W60409  40.450  22.246  13.888
95249W        W60410  39.439  29.101   2.899
95250W        W60411  22.964  22.081  12.813
95251W        W60412   6.186  22.818   3.573
95252W        W60413  36.973  34.442   0.789
95253W        W60414   8.515  27.661   4.908
95254W        W60415   6.076  31.374   2.771
95255W        W60416   2.314  12.837   1.885
95256W        W60417  25.950  40.864   2.817
95257W        W60418  43.441   0.197   4.267
95258W        W60419  41.149  32.131   4.585
95259W        W60420  13.796  19.623   3.271
95260W        W60421  37.659  10.106  13.920
95261W        W60422   9.343  33.928   4.175
95262W        W60423  34.840  23.946  12.961
95263W        W60424   2.544  16.724   0.461
95264W        W60425   6.962  42.307  11.691
95265W        W60426  43.483   0.261  11.591
95266W        W60427  15.595  37.374   2.872
95267W        W60428   4.301   8.709   0.097
95268W        W60429  36.266   3.054   2.765
95269W        W60430   4.159  10.675   1.312
95270W        W60431   5.063  39.640  10.712
95271W        W60432  19.519  16.634   0.914
95272W        W60433  21.560   6.790  10.628
95273W        W60434  11.114   9.258  13.936
95274W        W60435   9.502  10.818  12.525
95275W        W60436   3.786  23.155   3.581
95276W        W60437  24.941   1.685  13.630
95277W        W60438  24.261  44.344   1.860
95278W        W60439  14.978   0.500  12.466
95279W        W60440   4.755   2.763  12.835
95280W        W60441  34.544  26.177   1.172
95281W        W60442  10.261  42.391   1.870
95282W        W60443  18.253  41.196   5.065
95283W        W60444   2.651   1.086  11.679
95284W        W60445  27.467  43.134   0.510
95285W        W60446  18.060  42.485  14.704
95286W        W60447   7.988  11.699  10.235
95287W        W60448  33.774  35.838   3.788
95288W        W60449  32.684  22.287   1.793
95289W        W60450  13.690  24.535   2.114
95290W        W60451  18.641   1.935   1.484
95291W        W60452  15.817  40.895   1.514
95292W        W60453  26.203  23.556  11.624
95293W        W60454   3.247  27.513  10.800
95294W        W60455   3.312   6.895   0.627
95295W        W60456  37.441  23.811   9.770
95296W        W60457  26.601  26.479   4.176
95297W        W60458  18.179  15.878   2.587
95298W        W60459  44.195  41.387  12.522
95299W        W60460  34.473  37.619  12.451
95300W        W60461  37.853  22.497   4.654
95301W        W60462  39.176  38.579  14.254
95302W        W60463  22.521  44.469   1.479
95303W        W60464  40.584  19.784  13.619
95304W        W60465   5.394  39.399   4.244
95305W        W60466  13.378  21.706   3.883
95306W        W60467  12.104   5.353   0.504
95307W        W60468  11.365  39.894  13.073
95308W        W60469  36.166   7.006   3.728
95309W        W60470   6.496  28.993  11.535
95310W        W60471  20.469   0.301   2.798
95311W        W60472  29.341  28.805  12.963
95312W        W60473  17.140  22.044  14.039
95313W        W60474   9.309  37.199  10.721
95314W        W60475  36.381   7.383   4.518
95315W        W60476  16.088  33.874   2.184
95316W        W60477  29.517  10.030   4.130
95317W        W60478   5.330  12.403  14.767
95318W        W60479  28.910   0.704  10.797
95319W        W60480  21.891  23.465   4.903
95320W        W60481  42.418  14.188  12.944
95321W        W60482  41.528  23.565   3.180
95322W        W60483  20.216  18.606   3.752
95323W        W60484   2.705  31.508   3.356
95324W        W60485  12.121  12.355   2.421
95325W        W60486  36.063  33.587  14.033
95326W        W60487  12.242   4.022  13.931
95327W        W60488  22.614  10.434   3.060
95328W        W60489  27.857  23.270   1.203
95329W        W60490  30.739  25.054   1.563
95330W        W60491   9.163  23.553   0.761
95331W        W60492   5.176   1.934  12.455
95332W        W60493  40.828  23.761   1.448
95333W        W60494  12.121  27.342   0.906
95334W        W60495  39.288  41.450  11.949
95335W        W60496  25.098   7.204   4.287
95336W        W60497  35.112  33.722   3.695
95337W        W60498  44.154  16.051   2.650
95338W        W60499  38.939   6.831  14.060
95339W        W60500  28.526   9.167   0.044
95340W        W60501  31.309  42.774   9.739
95341W        W60502  25.971  10.251   4.497
95342W        W60503  29.097  37.583  10.413
95343W        W60504  38.625  39.015   3.036
95344W        W60505  41.200  24.950  12.959
95345W        W60506   1.353  26.676   0.264
95346W        W60507  40.005  27.870   0.088
95347W        W60508  25.702   0.503   1.247
95348W        W60509   9.563   1.012   0.331
95349W        W60510  33.519   5.209  13.173
95350W        W60511  36.591  29.943   3.339
95351W        W60512  27.114  15.836   0.879
95352W        W60513  25.574  33.860  14.604
95353W        W60514  32.562   6.473  13.552
95354W        W60515   5.786   6.001  14.900
95355W        W60516  32.133   4.849   3.293
95356W        W60517   4.343  33.302   2.825
95357W        W60518  13.197   4.697   1.102
95358W        W60519  15.175  42.391  14.290
95359W        W60520  41.832  42.181  12.518
95360W        W60521  16.175  31.379   4.063
95361W        W60522  36.406  32.613   3.671
95362W        W60523  25.436   4.538  10.050
95363W        W60524   6.851  26.042   3.130
95364W        W60525  22.957  41.574  11.108
95365W        W60526  43.423   4.897  10.690
95366W        W60527  36.085   6.740  12.598
95367W        W60528  35.962  30.976   3.674
95368W        W60529   5.732  19.155  12.580
95369W        W60530  11.042  22.902  10.257
95370W        W60531  11.756  12.840  10.875
95371W        W60532   5.986   2.961  11.112
95372W        W60533  26.181  33.643   4.569
95373W        W60534  35.208   6.733   3.170
95374W        W60535  17.333   0.859   5.173
95375W        W60536  12.746  23.007   1.799
95376W        W60537   6.418  38.615   0.814
95377W        W60538  20.588   6.909   1.315
95378W        W60539  11.859  26.633  13.432
95379W        W60540  39.521  15.535  12.048
95380W        W60541  13.825  22.147  10.810
95381W        W60542  34.386  29.574  11.495
95382W        W60543  17.037   0.737   0.449
95383W        W60544  25.603  12.600  14.410
95384W        W60545  22.710  31.649   1.745
95385W        W60546  30.404  12.700  13.038
95386W        W60547  12.095   3.684   1.452
95387W        W60548  30.863  26.030   2.486
95388W        W60549  13.765  29.166   4.332
95389W        W60550  35.301   5.276   4.086
95390W        W60551  19.665  11.549   1.686
95391W        W60552  11.977  27.163   4.790
95392W        W60553   0.310   0.373  13.187
95393W        W60554  22.969   0.183  12.512
95394W        W60555  13.813  39.578   3.820
95395W        W60556   0.064  37.974  13.514
95396W        W60557  43.578  17.794   1.103
95397W        W60558  34.621   0.769   2.235
95398W        W60559  32.125  42.384  11.567
95399W        W60560  39.889  31.904  11.996
95400W        W60561  27.465  17.981   4.202
95401W        W60562  39.671  20.809  14.169
95402W        W60563  36.849   3.468  13.816
95403W        W60564  30.684   5.051   4.956
95404W        W60565  20.757  39.325  13.046
95405W        W60566  36.819  11.384   4.047
95406W        W60567  10.392  14.259  10.337
95407W        W60568  11.827  19.209  13.801
95408W        W60569  26.846  18.778  12.484
95409W        W60570   4.911  19.277  13.442
95410W        W60571  15.732  36.597   1.791
95411W        W60572   5.901  32.981  10.753
95412W        W60573  42.800  23.587   3.612
95413W        W60574  26.952  39.886  14.334
95414W        W60575  27.913  25.648   1.144
95415W        W60576  19.286  22.537   0.510
95416W        W60577  41.707  40.498   3.167
95417W        W60578  23.210   4.541  14.360
95418W        W60579  18.796   8.182  10.691
95419W        W60580  34.644   7.250   0.041
95420W        W60581  27.574  12.151  11.646
95421W        W60582  38.284  20.641  13.905
95422W        W60583   2.437  31.902   0.432
95423W        W60584   8.846   6.235  12.570
95424W        W60585  22.919  20.213  11.229
95425W        W60586  38.344  30.890  11.558
95426W        W60587  39.795  33.362   3.382
95427W        W60588  35.928   4.056   1.989
95428W        W60589  18.212  14.202   4.788
95429W        W60590   4.804  21.972   0.717
95430W        W60591  42.751   0.872  13.019
95431W        W60592  21.513  24.735   2.632
95432W        W60593   7.329  24.405   2.260
95433W        W60594   7.621  42.829   0.496
95434W        W60595  19.954   8.350   1.377
95435W        W60596  21.683  25.460  11.102
95436W        W60597   2.837  25.621  11.900
95437W        W60598   5.980  34.029  12.133
95438W        W60599  29.993   8.738   3.149
95439W        W60600   6.285   1.460   4.549
95440W        W60601  43.424  25.601   5.041
95441W        W60602  44.740  37.488  11.332
95442W        W60603  44.913  18.568  14.790
95443W        W60604   2.473  31.468  11.236
95444W        W60605  17.579   7.947  13.006
95445W        W60606  28.949  10.676   5.082
95446W        W60607  19.851  25.698  11.485
95447W        W60608  22.121  15.893   3.164
95448W        W60609  36.014  30.136   0.359
95449W        W60610  38.397  30.672  13.918
95450W        W60611   5.839  14.219   4.130
95451W        W60612  17.824  12.254  10.702
95452W        W60613  34.145  34.642   1.472
95453W        W60614  19.542  14.311  13.837
95454W        W60615   9.224  24.157   0.979
95455W        W60616  41.735  17.673  12.434
95456W        W60617  25.030  31.310   4.055
95457W        W60618   5.279  42.333   4.180
95458W        W60619  37.833   9.315  10.719
95459W        W60620  44.424  11.646   3.291
95460W        W60621  42.771  43.850  11.273
95461W        W60622  19.691  34.499  13.297
95462W        W60623  14.148  39.393   2.137
95463W        W60624  21.119  20.776  14.346
95464W        W60625  13.671  43.815  12.021
95465W        W60626  15.090  26.914   4.531
95466W        W60627  44.362   3.304   2.434
95467W        W60628   8.652  18.699  12.062
95468W        W60629  42.838  15.739  12.523
95469W        W60630  17.685  18.789   2.713
95470W        W60631  12.522   5.000  13.783
95471W        W60632   0.612  10.224   1.681
95472W        W60633  22.673  27.520   3.350
95473W        W60634  33.404  24.803   0.720
95474W        W60635   3.440   6.501  12.554
95475W        W60636   8.359  38.601   0.730
95476W        W60637   4.144  15.792   2.318
95477W        W60638  42.646  14.252  12.037
95478W        W60639  11.662  16.765   2.787
95479W        W60640  34.803  44.846   2.122
95480W        W60641  25.167  23.691  13.390
95481W        W60642   4.736  25.754   0.000
95482W        W60643   5.367  30.284   0.495
95483W        W60644  34.041  32.144  14.235
95484W        W60645  27.243   1.793  13.099
95485W        W60646  35.378  11.723  11.246
95486W        W60647  41.804  23.666  13.934
95487W        W60648   2.398  15.083   2.065
95488W        W60649  44.648  22.081  13.048
95489W        W60650   6.423  39.157   0.795
95490W        W60651  27.915  10.933   2.444
95491W        W60652  27.940  13.206   3.594
95492W        W60653  28.956  19.298  12.057
95493W        W60654  19.770  11.855   3.686
95494W        W60655   5.902  17.104  12.489
95495W        W60656  14.606   6.110   1.469
95496W        W60657  39.744  17.725   4.561
95497W        W60658  29.025  30.216  10.971
95498W        W60659  41.410  29.831   0.929
95499W        W60660  44.974  27.187   0.679
95500W        W60661  16.555  43.308  13.846
95501W        W60662  22.245   2.298  11.088
95502W        W60663   9.833  13.182  12.577
95503W        W60664   3.982  15.483   4.574
95504W        W60665  43.542   2.947  13.231
95505W        W60666  30.643   2.343   4.522
95506W        W60667  10.295  18.206   1.003
95507W        W60668  10.358  18.090  10.553
95508W        W60669   9.409   4.817  11.095
95509W        W60670  27.236  33.165  10.611
95510W        W60671  37.425   0.203  14.987
95511W        W60672   9.404   9.320   3.821
95512W        W60673  19.151  19.739   1.708
95513W        W60674   0.465  11.772   4.674
95514W        W60675  32.486  30.892   0.626
95515W        W60676   6.184  19.415  11.151
95516W        W60677  39.453  30.694   1.494
95517W        W60678  13.101  42.877   9.969
95518W        W60679  16.639  32.072   0.434
95519W        W60680  37.118  26.681   0.959
95520W        W60681  19.469  29.092   0.549
95521W        W60682   2.905  43.259   0.901
95522W        W60683  22.973  34.060   2.773
95523W        W60684  17.764  27.345  11.497
95524W        W60685  17.164  19.971  11.097
95525W        W60686  35.531  42.870  14.798
95526W        W60687   5.790  41.074  11.699
95527W        W60688  25.705   6.780   1.783
95528W        W60689   0.454   4.773   4.781
95529W        W60690  35.032  41.075   2.473
95530W        W60691  40.051  31.171  14.255
95531W        W60692  16.142  28.480   2.117
95532W        W60693  29.735   5.785   2.211
95533W        W60694  29.160  28.388   4.145
95534W        W60695   6.394  33.085   3.146
95535W        W60696   4.753  24.048   3.014
95536W        W60697   4.888   3.741  10.576
95537W        W60698   9.439  26.952  11.097
95538W        W60699  34.220  30.297  10.919
95539W        W60700  33.840   9.725  14.415
95540W        W60701  29.424  41.349   1.865
95541W        W60702  30.074   9.003  11.020
95542W        W60703   9.978   8.169  11.105
95543W        W60704  36.001  21.208   3.790
95544W        W60705  31.064  42.736  10.664
95545W        W60706  21.195  31.965  11.933
95546W        W60707   2.906   8.133  13.086
95547W        W60708   0.893   5.352   1.197
95548W        W60709  44.265  27.218  14.311
95549W        W60710  20.593  42.496  11.511
95550W        W60711  28.490  29.170  13.894
95551W        W60712  40.944  37.828  11.209
95552W        W60713  40.288  29.614   3.135
95553W        W60714  40.768  25.884  14.873
95554W        W60715  30.104   7.201   4.912
95555W        W60716  30.564  26.606   1.383
95556W        W60717  11.889   1.481   3.709
95557W        W60718  17.224   0.029  11.103
95558W        W60719  26.561  29.372   3.037
95559W        W60720  12.406  15.736   0.751
95560W        W60721  35.900  22.554   4.213
95561W        W60722  35.083   0.289   4.525
95562W        W60723  39.076   0.887   5.042
95563W        W60724  18.439  12.255  11.518
95564W        W60725   6.275  38.810  12.833
95565W        W60726  28.045   7.530   1.740
95566W        W60727  24.868  20.608   4.346
95567W        W60728  21.976  24.101  11.617
95568W        W60729  13.169  36.980  10.459
95569W        W60730  43.318  15.050   3.515
95570W        W60731  38.892  40.539  13.116
95571W        W60732  20.063  37.469   3.219
95572W        W60733  14.132  34.608  13.386
95573W        W60734  18.121   7.371  11.015
95574W        W60735  19.343   1.886  10.890
95575W        W60736  28.649  17.737  10.441
95576W        W60737  17.197  42.274  12.359
95577W        W60738  41.811  31.229  14.813
95578W        W60739  38.421  25.908  14.332
95579W        W60740   5.877   9.169  12.611
95580W        W60741   3.642  35.263   1.231
95581W        W60742  43.939  41.189  12.063
95582W        W60743  25.475  43.962  12.368
95583W        W60744  24.412  34.492   2.795
95584W        W60745  32.972  37.259  10.223
95585W        W60746  27.310  15.264   4.619
95586W        W60747  13.734  22.608  14.802
95587W        W60748  39.127  38.093   1.285
95588W        W60749   9.901   3.494   3.889
95589W        W60750   5.488  29.660  10.759
95590W        W60751  20.697  10.960  13.017
95591W        W60752  27.991  22.040   1.681
95592W        W60753   9.375  24.909   1.891
95593W        W60754   0.059  30.435  11.603
95594W        W60755  16.875  40.826   2.366
95595W        W60756   9.198   8.748   0.979
95596W        W60757  23.918  41.257  11.248
95597W        W60758  34.069  40.184   0.839
95598W        W60759   3.873  21.209  12.862
95599W        W60760   9.371  13.176  14.946
95600W        W60761  30.932  13.800  12.366
95601W        W60762  43.295  20.985  12.134
95602W        W60763  21.134  26.021  14.521
95603W        W60764  28.074  24.332   1.224
95604W        W60765   3.111  39.962  12.383
95605W        W60766  17.761   1.643   1.894
95606W        W60767  32.597   5.603  14.776
95607W        W60768   7.575  13.679   1.249
95608W        W60769  18.498  12.764  11.663
95609W        W60770  29.835  32.036   0.977
95610W        W60771   7.650  25.998  12.541
95611W        W60772  23.581  29.669   4.833
95612W        W60773  18.664   4.305  13.005
95613W        W60774  44.620  29.472  12.215
95614W        W60775  37.125  21.587   2.870
95615W        W60776  24.462  14.414   2.422
95616W        W60777  21.746  31.999   0.961
95617W        W60778  28.705  26.017   1.340
95618W        W60779  25.338  41.754  11.536
95619W        W60780   1.187  42.682   1.267
95620W        W60781  18.057   7.954   4.526
95621W        W60782   5.936  10.523  14.508
95622W        W60783  44.332   8.285   3.182
95623W        W60784  25.101  40.465  10.807
95624W        W60785  21.703  18.098  13.554
95625W        W60786  38.912  13.692   2.484
95626W        W60787  39.150   4.814  14.297
95627W        W60788  30.604  30.156  11.645
95628W        W60789  28.455  17.176  10.737
95629W        W60790  10.336  43.104   2.641
95630W        W60791  11.137   1.995  13.353
95631W        W60792   8.891   8.072   3.687
95632W        W60793  40.568  11.672   3.406
95633W        W60794  14.839  41.388   1.443
95634W        W60795  17.554  43.144  14.915
95635W        W60796   5.393   8.286  13.710
95636W        W60797  10.895  19.787  11.480
95637W        W60798  24.624  21.287   2.752
95638W        W60799  12.556  20.289   3.276
95639W        W60800  10.632  41.801   2.699
95640W        W60801  22.469  10.703  11.960
95641W        W60802  29.181  35.876   2.337
95642W        W60803  25.585   7.897   4.021
95643W        W60804  21.738   1.279  14.493
95644W        W60805  38.970  22.946  12.855
95645W        W60806   8.838   3.922  10.726
95646W        W60807  22.608   6.002   2.269
95647W        W60808  28.544  22.803   0.895
95648W        W60809  13.110   8.571  14.645
95649W        W60810  32.348  22.685   1.839
95650W        W60811  17.239   5.369  11.491
95651W        W60812  32.990  26.888  12.034
95652W        W60813  22.763   0.306   1.509
95653W        W60814  10.558   6.634  13.071
95654W        W60815   4.173  20.036   1.731
95655W        W60816  28.536  22.823  10.984
95656W        W60817  31.245   7.457  13.975
95657W        W60818  29.737  26.505   4.127
95658W        W60819  40.377  17.739  11.955
95659W        W60820  26.287  18.208   3.264
95660W        W60821  29.921   3.335   3.342
95661W        W60822  39.839  17.319   4.869
95662W        W60823  29.267  28.181   2.311
95663W        W60824  38.826   1.638  11.082
95664W        W60825  19.781   5.321  11.122
95665W        W60826  38.340   5.290  14.539
95666W        W60827  40.556   2.725   1.164
95667W        W60828  39.808  26.532  13.592
95668W        W60829  18.579  13.058   1.953
95669W        W60830  20.792  21.610  13.822
95670W        W60831  36.867  42.923  11.562
95671W        W60832  43.587  36.749   1.168
95672W        W60833  32.066  27.584   4.454
95673W        W60834  30.441  26.797   5.052
95674W        W60835  26.752   2.192  13.457
95675W        W60836  39.828  32.882  12.539
95676W        W60837  14.469   2.902  14.316
95677W        W60838  14.604  39.994   3.570
95678W        W60839  36.389  34.171  11.075
95679W        W60840  18.638   4.796  14.973
95680W        W60841   4.616  33.982   1.142
95681W        W60842   5.380  24.388  14.436
95682W        W60843   7.406  19.032   4.910
95683W        W60844  12.216  17.074  12.876
95684W        W60845  14.994   7.861  10.871
95685W        W60846  17.295   4.145  12.825
95686W        W60847   6.261  26.511   1.419
95687W        W60848   7.342  25.486   1.285
95688W        W60849  13.629  40.534   4.710
95689W        W60850   5.396   2.037   4.167
95690W        W60851  42.529  17.677  12.021
95691W        W60852  29.606  14.235   2.132
95692W        W60853  37.427  14.144  11.243
95693W        W60854  13.719  42.261  11.369
95694W        W60855   1.914  24.287   2.269
95695W        W60856  27.125  31.937  11.970
95696W        W60857  37.333   3.646   3.673
95697W        W60858  43.340  11.238  11.905
95698W        W60859  31.353   5.373  14.045
95699W        W60860  16.617  10.712   2.205
95700W        W60861   7.921  22.102  11.776
95701W        W60862  19.572  41.043  13.409
95702W        W60863   2.068  27.025  13.045
95703W        W60864  11.728   7.392  10.519
95704W        W60865   5.328  22.974  14.483
95705W        W60866  33.939  37.334   9.819
95706W        W60867   5.416  34.803  13.593
95707W        W60868  43.617  23.495  14.738
95708W        W60869  21.142  36.516   4.111
95709W        W60870   0.541  42.632   3.111
95710W        W60871  10.348  25.696  12.312
95711W        W60872  25.510  25.292   3.343
95712W        W60873  44.272  43.360  11.621
95713W        W60874  29.045   5.741  11.572
95714W        W60875  41.241  34.012   2.729
95715W        W60876  40.934  11.880  12.905
95716W        W60877  33.049  29.597  11.252
95717W        W60878   7.406  31.318  13.154
95718W        W60879  41.468  18.737   3.157
95719W        W60880  16.193  30.851  14.379
95720W        W60881  43.483  11.761   3.041
95721W        W60882  20.710  42.742  11.032
95722W        W60883   2.335  15.379   3.787
95723W        W60884  40.115  17.623  14.359
95724W        W60885  43.153  32.882   9.719
95725W        W60886  21.174  14.801  12.347
95726W        W60887  30.595  11.786   4.490
95727W        W60888  42.784  15.566   2.711
95728W        W60889   9.122  14.185   0.821
95729W        W60890  22.006  39.324  14.031
95730W        W60891  16.768  24.074  13.788
95731W        W60892  43.295  23.900   2.302
95732W        W60893   1.569   6.335   2.890
95733W        W60894  39.983  17.282   1.234
95734W        W60895   5.370   4.011  11.670
95735W        W60896   6.855   8.833  12.486
95736W        W60897  23.805  18.921  12.536
95737W        W60898  11.634  17.731  11.551
95738W        W60899  26.546  27.274   4.454
95739W        W60900  28.889   0.387   2.762
95740W        W60901  44.486  39.458  14.722
95741W        W60902  26.364  24.168  12.355
95742W        W60903  35.967  42.301   0.705
95743W        W60904  17.954  29.951   4.116
95744W        W60905   1.850   2.702  10.696
95745W        W60906   1.266  28.198  12.026
95746W        W60907   6.295   0.936   3.255
95747W        W60908  10.630  28.523   1.757
95748W        W60909  41.929  41.452   2.005
95749W        W60910  41.926  38.991   2.258
95750W        W60911  18.521  11.170   4.645
95751W        W60912  22.140  15.304  14.246
95752W        W60913  26.714  18.772   2.648
95753W        W60914  39.062  38.760   9.952
95754W        W60915  10.643   6.447  12.600
95755W        W60916   5.288  28.532   4.562
95756W        W60917  13.056  43.996  13.453
95757W        W60918  27.675  10.706   0.254
95758W        W60919  38.828  20.339   0.302
95759W        W60920  20.201  24.465   9.978
95760W        W60921  40.477  28.072  13.956
95761W        W60922  33.575  18.697   2.539
95762W        W60923   9.694  15.244  13.328
95763W        W60924  37.270  13.879  12.488
95764W        W60925  33.809  28.891   2.672
95765W        W60926  12.077  35.611   1.318
95766W        W60927  44.534  29.064  11.945
95767W        W60928   7.102  27.453   0.380
95768W        W60929  44.823  11.238  12.970
95769W        W60930  27.269  23.666  11.545
95770W        W60931  43.253  42.305  10.770
95771W        W60932  29.903  34.717  13.473
95772W        W60933   6.345   0.859   2.741
95773W        W60934  23.556   0.346  13.700
95774W        W60935  33.424  18.232   1.882
95775W        W60936  24.663  10.652  12.950
95776W        W60937  12.700  13.413   2.930
95777W        W60938  29.216  30.262   0.563
95778W        W60939   7.675  42.742  11.169
95779W        W60940  29.311   9.688   3.691
95780W        W60941  36.411  37.510   3.361
95781W        W60942  36.091  25.993   3.472
95782W        W60943  26.540  27.537   1.432
95783W        W60944  17.313  42.517   1.301
95784W        W60945  30.656  44.208  11.940
95785W        W60946  42.525  29.910  14.047
95786W        W60947  14.476  28.092  14.204
95787W        W60948  18.131  14.766   1.351
95788W        W60949  30.923  35.118  10.461
95789W        W60950  38.188  44.515  11.204
95790W        W60951  15.351   6.154  12.188
95791W        W60952   6.779  43.789   3.880
95792W        W60953  37.303  34.949  11.500
95793W        W60954  10.950  35.179  14.846
95794W        W60955   0.908  26.021   3.367
95795W        W60956   5.467  23.483  11.543
95796W        W60957  37.311  44.221  14.922
95797W        W60958   9.781  10.395  12.581
95798W        W60959  35.458  42.640  12.339
95799W        W60960  16.195   8.220  14.907
95800W        W60961   4.420  17.158  14.526
95801W        W60962   7.970  18.088  11.610
95802W        W60963  11.786  25.115   0.927
95803W        W60964  39.093   7.747  13.972
95804W        W60965  17.062  34.938  12.446
95805W        W60966  43.566  29.762   3.713
95806W        W60967  25.770  29.748   1.186
95807W        W60968  31.737  23.514   3.088
95808W        W60969  10.188  10.901  12.984
95809W        W60970   8.458  35.326   2.837
95810W        W60971  16.295  35.264   2.438
95811W        W60972  10.853  39.075   3.410
95812W        W60973   1.894  11.985   2.780
95813W        W60974  13.900  13.829  14.571
95814W        W60975  27.620  25.196   1.223
95815W        W60976  40.105  34.070  12.400
95816W        W60977  13.836  33.684  13.413
95817W        W60978   9.563  22.385   2.900
95818W        W60979  44.715  29.202   1.714
95819W        W60980   5.307  27.612   2.506
95820W        W60981  37.580  38.939   3.702
95821W        W60982  13.398   0.138   1.805
95822W        W60983  35.094  17.736   1.237
95823W        W60984  27.441  22.360  11.321
95824W        W60985  39.079   3.847   4.542
95825W        W60986  27.402  33.956   3.908
95826W        W60987   3.992  13.616   4.979
95827W        W60988  21.038  12.629   4.307
95828W        W60989  20.717  11.730   3.856
95829W        W60990   4.245  25.081   1.273
95830W        W60991  16.844  36.483  11.311
95831W        W60992  30.856   9.646  11.539
95832W        W60993  39.017  16.685  12.888
95833W        W60994   4.315  11.901   0.892
95834W        W60995  10.552  29.218   0.252
95835W        W60996  30.577  11.260   4.525
95836W        W60997  28.815  21.746  12.394
95837W        W60998   0.531   9.659   5.423
95838W        W60999  19.855  28.641  13.423
95839W        W61000  14.194  33.540  12.522
95840W        W61001  13.023  18.141  12.936
95841W        W61002  16.763  15.165  11.547
95842W        W61003  37.367   8.357  11.037
95843W        W61004  13.761  21.948   2.149
95844W        W61005  29.925  12.165   1.004
95845W        W61006  22.033  10.855  10.738
95846W        W61007  28.637  39.500   0.431
95847W        W61008  38.340  37.621   1.274
95848W        W61009   2.107   9.923   4.228
95849W        W61010  42.729  13.900   0.235
95850W        W61011  38.349  34.285  12.074
95851W        W61012  27.127   7.628   0.799
95852W        W61013  14.358   8.971   0.391
95853W        W61014   4.809  42.202  14.896
95854W        W61015  36.831  26.309  14.771
95855W        W61016   8.927   3.768   2.776
95856W        W61017  25.602   0.055  11.742
95857W        W61018  21.753  26.330  14.200
95858W        W61019  17.174   4.652  13.455
95859W        W61020  30.658  19.301   4.047
95860W        W61021   4.941  10.713  12.193
95861W        W61022  26.645  26.206   2.472
95862W        W61023   9.172  18.338   2.765
95863W        W61024   9.617  13.144  11.634
95864W        W61025   5.688  18.516   1.651
95865W        W61026  12.855  34.936   3.627
95866W        W61027  38.062  31.206  11.187
95867W        W61028   0.804  18.208  12.012
95868W        W61029  10.668  44.811  12.634
95869W        W61030   6.030  12.968   1.279
95870W        W61031  36.360  42.996  14.393
95871W        W61032   7.063  21.532  10.990
95872W        W61033   9.876  34.161  12.564
95873W        W61034  18.325   8.968  13.945
95874W        W61035  40.418  36.602   1.188
95875W        W61036  33.528   9.845  13.363
95876W        W61037  35.985  38.229   0.760
95877W        W61038  12.344   2.464   3.373
95878W        W61039  39.846  35.979   3.545
95879W        W61040   2.346  35.974  10.780
95880W        W61041  21.558   3.539   2.131
95881W        W61042  23.542  13.214   3.516
95882W        W61043  33.468  13.201   2.748
95883W        W61044  35.705  28.957  12.209
95884W        W61045  24.749  24.204   2.301
95885W        W61046  39.787   8.892   2.788
95886W        W61047  42.895  17.251   1.384
95887W        W61048   2.701   7.643  14.988
95888W        W61049  35.638  43.751  11.569
95889W        W61050  40.354   3.874  10.743
95890W        W61051  26.119  24.074  10.936
95891W        W61052   6.254  44.989  12.001
95892W        W61053   9.611  30.937   2.788
95893W        W61054  41.285  36.805   2.913
95894W        W61055  33.776  27.498   1.977
95895W        W61056  28.556  37.922   0.713
95896W        W61057  37.946   9.330   3.559
95897W        W61058   8.850  21.279   0.360
95898W        W61059  19.073  24.518   4.692
95899W        W61060  42.007  36.629  12.559
95900W        W61061  32.134  23.530  12.041
95901W        W61062   7.586  43.382  13.850
95902W        W61063  10.205   0.521  11.541
95903W        W61064  35.820  27.609  11.540
95904W        W61065  39.549  18.816  12.398
95905W        W61066  34.673   3.019  11.164
95906W        W61067  35.153  21.401   4.358
95907W        W61068  35.695  24.666  11.995
95908W        W61069  31.795  21.944   3.926
95909W        W61070  33.849   6.836  10.716
95910W        W61071  32.319  42.877  10.678
95911W        W61072  12.620  13.745   3.551
95912W        W61073  31.847  20.082   1.829
95913W        W61074  11.637   2.471  14.470
95914W        W61075   7.365  44.269  13.974
95915W        W61076  27.732  15.267  14.367
95916W        W61077  29.937   3.873  13.537
95917W        W61078  39.956  32.796  14.803
95918W        W61079  28.003  22.554  12.025
95919W        W61080   0.011  20.807   4.508
95920W        W61081  34.436   8.366   1.707
95921W        W61082  11.094  27.481  10.394
95922W        W61083  39.699  19.573   4.153
95923W        W61084  16.062  28.889   1.779
95924W        W61085  10.342  25.091  11.150
95925W        W61086  22.135  24.620  14.819
95926W        W61087   2.429  21.294   0.304
95927W        W61088   4.294   5.615  12.467
95928W        W61089  44.167  37.863   4.901
95929W        W61090  39.515  10.799  13.770
95930W        W61091   2.211  38.279  13.441
95931W        W61092  33.999  42.116  10.232
95932W        W61093  43.100  36.326   2.191
95933W        W61094   8.687  14.900   4.152
95934W        W61095   7.928  40.894   0.944
95935W        W61096  41.077   6.504   0.385
95936W        W61097   2.994  19.001   3.191
95937W        W61098  41.855  21.133   0.989
95938W        W61099  28.327  39.515  15.000
95939W        W61100  31.371  19.708   4.824
95940W        W61101  33.948  23.460   3.566
95941W        W61102   2.485  38.676   0.847
95942W        W61103  29.811  26.016  13.385
95943W        W61104  27.215  35.828   5.083
95944W        W61105  17.762  20.055  12.620
95945W        W61106  26.700  33.160  10.556
95946W        W61107  36.501  25.534   3.325
95947W        W61108  15.063  40.861   2.730
95948W        W61109  33.129  36.930  12.321
95949W        W61110  21.013  43.239  11.528
95950W        W61111   5.390  35.082  11.640
95951W        W61112  26.534  25.031  10.382
95952W        W61113  14.623   0.266   4.402
95953W        W61114  20.404  10.652  13.557
95954W        W61115  22.163  10.573  11.144
95955W        W61116  31.427  23.586   0.842
95956W        W61117  40.997  33.449  13.427
95957W        W61118  29.121  31.851   2.281
95958W        W61119  40.846  34.633   0.233
95959W        W61120  11.850  10.954  10.609
95960W        W61121  28.759  35.577  13.396
95961W        W61122  36.783   5.074   2.262
95962W        W61123   1.643  13.356   3.209
95963W        W61124  17.287   0.312   2.796
95964W        W61125  43.274  32.409  10.919
95965W        W61126  37.203  28.442   1.213
95966W        W61127  14.538  44.387  10.254
95967W        W61128  42.886   0.730   4.586
95968W        W61129   5.706  43.373  14.478
95969W        W61130   6.364  10.829  10.736
95970W        W61131  21.934   8.735  12.588
95971W        W61132   8.887   6.233   3.413
95972W        W61133  26.455  18.846  12.120
95973W        W61134  29.774  12.299   3.712
95974W        W61135  41.711   1.790   0.107
95975W        W61136   5.385  38.393   3.857
95976W        W61137  29.572  25.440   0.922
95977W        W61138  22.216  15.771  11.167
95978W        W61139  42.554  20.644  13.883
95979W        W61140   5.717   4.336  10.590
95980W        W61141  12.373  26.054   0.004
95981W        W61142  31.934  22.276  13.952
95982W        W61143  16.133  27.263  12.852
95983W        W61144  22.127  18.073  11.064
95984W        W61145   6.737  43.526   1.274
95985W        W61146   7.660  10.215  13.635
95986W        W61147  35.350   4.861   2.782
95987W        W61148  25.641  18.707   2.194
95988W        W61149  41.914  11.925  12.111
95989W        W61150  37.652  18.705  10.790
95990W        W61151  18.515  13.141   3.298
95991W        W61152   6.101  17.033   3.561
95992W        W61153  27.846   7.363   1.297
95993W        W61154  14.782  24.594   4.578
95994W        W61155   5.496   8.184   4.050
95995W        W61156   4.440  15.118  13.874
95996W        W61157   2.300  39.214  12.921
95997W        W61158  26.645   6.270   1.321
95998W        W61159  12.309  24.889   4.123
95999W        W61160  30.907  31.582  13.773
96000W        W61161  43.797   2.467  10.598
96001W        W61162   1.771  34.875   1.557
96002W        W61163  13.248  16.048   2.426
96003W        W61164  34.059   7.694  13.415
96004W        W61165  14.694  10.274   1.869
96005W        W61166   3.453  38.059   1.419
96006W        W61167  37.577  36.880  12.426
96007W        W61168  31.999  17.095   5.155
96008W        W61169  23.594  44.996  12.902
96009W        W61170  22.976  34.455  12.405
96010W        W61171   4.454   6.876  13.626
96011W        W61172  40.447  12.899  14.287
96012W        W61173  24.965  33.939  12.977
96013W        W61174  42.495   8.675  10.900
96014W        W61175  37.372  32.091  12.091
96015W        W61176   8.811  40.834  13.825
96016W        W61177  23.451  32.082  13.995
96017W        W61178  19.846  36.532   4.497
96018W        W61179   3.575  34.432   3.316
96019W        W61180   4.945   8.904   4.222
96020W        W61181  15.433  41.381  12.957
96021W        W61182  29.859  22.688  13.359
96022W        W61183   8.088  21.678   4.671
96023W        W61184  43.293  33.423   0.490
96024W        W61185  26.598   1.901  10.757
96025W        W61186   9.882  23.770   3.772
96026W        W61187  37.334  44.740  13.995
96027W        W61188   1.539  34.017   0.678
96028W        W61189   6.536  32.045  11.205
96029W        W61190  16.086  22.848   0.827
96030W        W61191  37.778  33.547  14.245
96031W        W61192   1.514  27.178   0.238
96032W        W61193  30.554  29.001  12.038
96033W        W61194  33.584  18.701  13.970
96034W        W61195  28.494  17.654  14.544
96035W        W61196  28.587   6.415   0.152
96036W        W61197   3.951   6.720   2.816
96037W        W61198   3.040   2.748   0.396
96038W        W61199  28.330  12.634   1.370
96039W        W61200  15.765   8.456   1.526
96040W        W61201  23.583  32.139   4.770
96041W        W61202  44.527  25.696  13.327
96042W        W61203  13.822   5.799   3.781
96043W        W61204  24.787  30.445  13.431
96044W        W61205  44.167  33.069   2.338
96045W        W61206  21.262  18.817  13.315
96046W        W61207   1.895  15.424  11.781
96047W        W61208  25.261  38.579  12.674
96048W        W61209  40.097   5.208  10.379
96049W        W61210  40.701  17.243   0.443
96050W        W61211  41.564  34.387   0.412
96051W        W61212  14.199  38.888  14.874
96052W        W61213  15.112  16.334   2.292
96053W        W61214  23.344  12.167   1.490
96054W        W61215  12.081  32.394  12.019
96055W        W61216   8.753   0.403   0.231
96056W        W61217  32.018  19.367  13.536
96057W        W61218  38.931  24.156   3.618
96058W        W61219  25.579   0.719   1.709
96059W        W61220  34.976  13.254  11.850
96060W        W61221   6.608  16.258  14.728
96061W        W61222  14.923   2.935   0.667
96062W        W61223  30.912  21.639   5.468
96063W        W61224  11.848  19.398  10.372
96064W        W61225  32.608  10.269  14.512
96065W        W61226  36.880  30.444   4.485
96066W        W61227  42.379  41.292   2.205
96067W        W61228  44.336   6.392  14.994
96068W        W61229   0.658   1.393   2.798
96069W        W61230  29.209  14.384   5.059
96070W        W61231  29.430  13.504  14.328
96071W        W61232  19.322  24.978   4.713
96072W        W61233   1.935   6.936  11.192
96073W        W61234   8.266  28.907  13.760
96074W        W61235  24.754  25.544  10.740
96075W        W61236  33.554  26.787   3.388
96076W        W61237  29.449  16.910   4.157
96077W        W61238  17.040  18.249   4.118
96078W        W61239  34.083  15.092   3.175
96079W        W61240   6.674  40.584  11.127
96080W        W61241  19.765   9.235  11.677
96081W        W61242  42.287  19.646  14.585
96082W        W61243  23.270  38.387  14.824
96083W        W61244   2.040   1.776  11.613
96084W        W61245  21.068  40.823   3.518
96085W        W61246  12.331  21.197   0.904
96086W        W61247  23.771  38.318  12.120
96087W        W61248  34.794   2.164   3.222
96088W        W61249  42.354  40.237  11.533
96089W        W61250  30.744  22.067   0.121
96090W        W61251  21.497  41.278   5.055
96091W        W61252   3.698   4.720  11.572
96092W        W61253  35.517  38.326  14.017
96093W        W61254  28.375   2.903   1.941
96094W        W61255  25.203  24.113  10.653
96095W        W61256  30.681  22.571  14.409
96096W        W61257  22.614  26.454   5.028
96097W        W61258  41.121  37.100  13.406
96098W        W61259  17.790  32.121   1.305
96099W        W61260  27.359  29.957  12.356
96100W        W61261  21.052  22.246  14.450
96101W        W61262  24.235  25.197   3.719
96102W        W61263  32.859  35.074  10.660
96103W        W61264   6.062  42.721   3.760
96104W        W61265  34.124  23.782   2.059
96105W        W61266   3.394  43.321  12.788
96106W        W61267  10.900  11.359  12.428
96107W        W61268  24.460   0.466  14.009
96108W        W61269   6.494   6.280   2.147
96109W        W61270  14.206  26.182  12.260
96110W        W61271  17.725   1.038   4.070
96111W        W61272  41.764  13.093   4.186
96112W        W61273  15.588  12.159  12.912
96113W        W61274  29.112  39.776  11.637
96114W        W61275  21.978   2.724   3.892
96115W        W61276  16.433  33.598  12.396
96116W        W61277  11.881  43.427  13.747
96117W        W61278   1.435  25.958  12.600
96118W        W61279   2.964   1.222   3.174
96119W        W61280  19.756   1.660  12.588
96120W        W61281  33.425  20.767   3.718
96121W        W61282   4.228  21.800   0.279
96122W        W61283  16.705  42.017   4.602
96123W        W61284  27.054  32.151   0.899
96124W        W61285   0.359  30.055  14.378
96125W        W61286   2.358  36.803   3.305
96126W        W61287  15.254  14.674  13.897
96127W        W61288   3.440   4.470   3.838
96128W        W61289   5.153  39.842  12.474
96129W        W61290  41.406  28.790  11.118
96130W        W61291  29.462  26.731  13.413
96131W        W61292   4.709  16.875   1.340
96132W        W61293  30.398  15.130   4.244
96133W        W61294  27.419  24.164  11.558
96134W        W61295  42.156  13.062  12.480
96135W        W61296  10.756  27.544   1.947
96136W        W61297   7.443  22.785   0.948
96137W        W61298  29.011  13.257  13.169
96138W        W61299  22.206  29.795  12.522
96139W        W61300  13.325  39.181   1.632
96140W        W61301  20.587  22.457  12.918
96141W        W61302  12.960  32.094  12.572
96142W        W61303  33.761   9.875  12.873
96143W        W61304  43.903   0.362   3.645
96144W        W61305  21.746  30.713   4.981
96145W        W61306  17.538  12.755   2.688
96146W        W61307  34.429  12.890   3.577
96147W        W61308  33.399  17.792   1.627
96148W        W61309  10.708  32.051   2.635
96149W        W61310  41.494  25.673  12.569
96150W        W61311  22.940  31.066  14.449
96151W        W61312  25.427  38.621  12.177
96152W        W61313  31.361  30.233  13.548
96153W        W61314  32.799  12.620  12.058
96154W        W61315  43.189  25.583  10.792
96155W        W61316  20.976   2.716  12.058
96156W        W61317   9.936   1.798  14.292
96157W        W61318  42.579   7.112   3.662
96158W        W61319   1.714  40.941   2.389
96159W        W61320  16.818  17.519   1.205
96160W        W61321  18.268   9.591  14.471
96161W        W61322   9.640  35.353  10.757
96162W        W61323  31.355   7.384  11.389
96163W        W61324  28.625  16.706   3.460
96164W        W61325   6.676  40.005   3.698
96165W        W61326  12.211   3.490  12.990
96166W        W61327  18.127   0.272   0.007
96167W        W61328  16.235   2.375   2.577
96168W        W61329   1.467  33.122   1.249
96169W        W61330  17.697   1.929  14.431
96170W        W61331  32.326  24.073   0.779
96171W        W61332  44.068  39.018  11.132
96172W        W61333  30.616   9.801  13.271
96173W        W61334  44.970   6.626   2.746
96174W        W61335   4.204   3.404   4.121
96175W        W61336  35.755  23.489  12.854
96176W        W61337   5.066  23.255  10.680
96177W        W61338  14.099  41.982  11.136
96178W        W61339  19.541  13.448  12.926
96179W        W61340  13.672   2.467   1.135
96180W        W61341  10.202  23.303  11.503
96181W        W61342  35.095  18.619   1.497
96182W        W61343  41.930  44.862  13.368
96183W        W61344  37.949   5.528   0.813
96184W        W61345  20.592  18.463   0.226
96185W        W61346  44.940  24.267  12.575
96186W        W61347  21.610  39.331  12.426
96187W        W61348   7.669  29.607   0.251
96188W        W61349   1.638   3.826   0.373
96189W        W61350  32.635  36.104  13.226
96190W        W61351  17.128  16.949   3.411
96191W        W61352  25.318  29.651   3.346
96192W        W61353  24.658   0.370  13.530
96193W        W61354  44.525  24.967   1.661
96194W        W61355  20.383  13.552  11.461
96195W        W61356   6.516  14.256  10.000
96196W        W61357  30.295   3.961  11.522
96197W        W61358   6.168  42.569  10.709
96198W        W61359  39.105  29.872  11.186
96199W        W61360   2.783  39.301   1.341
96200W        W61361  31.335  29.123  11.071
96201W        W61362   2.307   5.496   4.729
96202W        W61363   7.858   3.962  12.411
96203W        W61364  32.010  31.881  14.868
96204W        W61365  38.673   3.526   2.724
96205W        W61366  11.702  39.930  10.592
96206W        W61367   5.347  36.533  12.874
96207W        W61368  32.792  38.341   5.299
96208W        W61369  23.359   3.118   1.800
96209W        W61370  41.317  13.329  11.241
96210W        W61371   2.971  38.988   2.643
96211W        W61372  11.106  26.465   1.921
96212W        W61373   6.773  35.103   4.106
96213W        W61374  35.642  13.469  11.151
96214W        W61375  12.947  42.431  10.695
96215W        W61376  34.922  30.635   4.019
96216W        W61377  10.582  26.108  14.347
96217W        W61378  39.359   8.610  14.521
96218W        W61379  33.439  14.031  11.187
96219W        W61380  24.438  19.380   1.839
96220W        W61381  16.745  42.077  10.624
96221W        W61382  13.117   9.515   3.731
96222W        W61383   8.297  16.124  13.976
96223W        W61384   7.661   2.429   1.031
96224W        W61385  35.604  34.887   1.111
96225W        W61386   8.099  20.120  12.699
96226W        W61387  42.791   1.569  14.021
96227W        W61388   1.298  18.101  11.596
96228W        W61389  12.109  20.192   4.577
96229W        W61390  20.226  24.560  11.490
96230W        W61391  27.033  17.275  12.537
96231W        W61392  30.138  13.198  12.352
96232W        W61393   4.149  24.053  14.494
96233W        W61394   5.875   1.202  12.436
96234W        W61395   1.423   4.379   4.869
96235W        W61396   5.818   7.733  13.772
96236W        W61397  23.883  44.286  10.863
96237W        W61398  18.112  13.593  13.083
96238W        W61399  42.624  42.522   3.634
96239W        W61400   3.019  36.955   0.295
96240W        W61401  17.064  23.881   2.594
96241W        W61402  11.295   4.008  10.616
96242W        W61403  23.346   8.419   4.305
96243W        W61404  23.040  33.091   4.330
96244W        W61405  34.359  38.388   0.755
96245W        W61406  11.583  16.000  12.475
96246W        W61407  44.266  34.597   4.167
96247W        W61408  42.105  31.367   0.310
96248W        W61409  26.060   8.581   4.108
96249W        W61410  30.953   5.399  11.441
96250W        W61411   7.557  19.584   3.154
96251W        W61412  18.646  22.067  13.348
96252W        W61413  40.393  28.574  13.882
96253W        W61414   7.686  31.427  10.624
96254W        W61415  34.769   2.393   1.538
96255W        W61416  13.220  23.291   0.340
96256W        W61417  36.449   5.035  11.700
96257W        W61418  27.615  44.596  12.438
96258W        W61419  21.188   4.956  14.723
96259W        W61420   3.754  41.325   3.809
96260W        W61421   1.997  34.844   4.134
96261W        W61422  41.880   9.313   1.079
96262W        W61423   6.557  14.681  13.928
96263W        W61424  16.663  13.026   3.631
96264W        W61425  25.179   3.942  14.188
96265W        W61426  30.906  29.327   0.402
96266W        W61427  24.792  31.703  14.440
96267W        W61428   7.638  33.089  12.671
96268W        W61429   9.471   9.832   3.133
96269W        W61430  18.095  21.480   1.771
96270W        W61431   5.461  41.515   3.022
96271W        W61432  43.785   5.708   3.832
96272W        W61433  38.702  12.412  10.969
96273W        W61434  24.983  27.021  14.762
96274W        W61435  29.027  42.596   3.591
96275W        W61436   7.053  25.350   4.655
96276W        W61437   0.212  17.474  11.589
96277W        W61438  34.111  35.149   1.354
96278W        W61439  38.335  32.434  11.188
96279W        W61440  27.584  24.525  12.768
96280W        W61441  25.712  29.502   3.073
96281W        W61442  15.617  21.667   0.987
96282W        W61443  13.175   6.201   4.299
96283W        W61444  32.825  32.398   2.808
96284W        W61445  18.391  11.171  12.006
96285W        W61446  25.572  26.206   3.101
96286W        W61447  10.407   8.216  12.380
96287W        W61448  17.533  17.183  14.414
96288W        W61449   5.915  21.390  14.809
96289W        W61450  41.481  42.256  11.843
96290W        W61451  32.585  24.623  14.261
96291W        W61452  21.376  19.261   4.201
96292W        W61453   2.572   9.899   0.863
96293W        W61454   1.346   9.806   4.887
96294W        W61455   2.692   4.818  11.547
96295W        W61456  11.885  23.733   3.810
96296W        W61457   2.906  31.877   4.662
96297W        W61458   7.049  23.040   1.817
96298W        W61459   6.248   4.353  10.621
96299W        W61460   5.524   4.506  14.884
96300W        W61461   6.869   6.425  13.722
96301W        W61462  32.484  26.019   2.771
96302W        W61463  24.800  39.373  14.206
96303W        W61464   5.253  10.670   4.436
96304W        W61465  10.850  23.626  10.516
96305W        W61466  23.688   5.211  14.383
96306W        W61467  17.649  12.105  11.167
96307W        W61468  29.565  38.583  11.865
96308W        W61469  18.089  39.351  12.556
96309W        W61470   8.811  26.217   1.711
96310W        W61471  35.612  12.118  11.032
96311W        W61472  13.143  16.246  14.311
96312W        W61473  10.049  29.578   2.756
96313W        W61474  27.505  31.159  11.257
96314W        W61475  11.693  41.942  12.156
96315W        W61476  36.970  29.102   1.878
96316W        W61477  38.883   9.780   0.015
96317W        W61478  36.581   1.410  14.921
96318W        W61479  37.189  12.313  11.166
96319W        W61480  23.508  37.629   3.386
96320W        W61481  19.159  20.106   2.099
96321W        W61482  21.194   4.763   4.554
96322W        W61483  28.143   1.516   0.261
96323W        W61484  16.506   4.790  13.361
96324W        W61485  10.215  33.499   3.338
96325W        W61486  42.631  12.229   2.715
96326W        W61487  39.392  23.943   2.908
96327W        W61488   2.044  16.815   0.373
96328W        W61489   3.695   7.986   0.950
96329W        W61490   5.340  19.185  13.741
96330W        W61491  32.932  33.681  12.955
96331W        W61492  21.632  17.426  10.212
96332W        W61493  40.865   6.626   1.193
96333W        W61494  25.012   5.962  14.485
96334W        W61495  40.268  16.235   2.312
96335W        W61496  12.056  17.843   4.108
96336W        W61497  40.020  13.885   3.737
96337W        W61498  20.551  16.503   0.855
96338W        W61499  22.654  14.604  11.802
96339W        W61500  44.523  44.767  10.392
96340W        W61501   4.199  33.815  12.979
96341W        W61502  34.114  35.422  13.210
96342W        W61503   6.356  26.180   1.825
96343W        W61504   5.989  13.124  12.554
96344W        W61505  25.520  32.846  11.619
96345W        W61506   0.455  23.114   4.657
96346W        W61507   9.142  13.073  13.992
96347W        W61508  38.945  20.720   4.145
96348W        W61509  26.446  35.268   4.115
96349W        W61510  39.096  16.962   2.626
96350W        W61511   2.289  12.226  11.642
96351W        W61512  16.703   2.326   4.829
96352W        W61513  41.539  41.833   1.304
96353W        W61514   4.568  20.460   4.914
96354W        W61515   8.613  38.171   1.231
96355W        W61516  19.230  19.338   0.339
96356W        W61517  15.177   1.582  14.435
96357W        W61518  41.271  28.085   3.001
96358W        W61519  23.681  36.998   2.213
96359W        W61520   4.466  44.109  13.633
96360W        W61521   6.780  19.560  12.373
96361W        W61522  22.379   2.457  13.297
96362W        W61523  29.124   7.902   2.251
96363W        W61524  12.397  30.630   2.858
96364W        W61525  32.147   0.935  12.959
96365W        W61526  37.299   4.624   4.996
96366W        W61527  34.540  35.896   2.811
96367W        W61528   3.803  38.889  11.359
96368W        W61529  31.674  19.101  13.937
96369W        W61530  18.569   8.232  11.144
96370W        W61531  12.783  28.020  14.817
96371W        W61532  11.765   4.743  10.575
96372W        W61533   7.405  37.803  12.858
96373W        W61534   9.180  22.755   2.905
96374W        W61535  25.880  20.571  12.348
96375W        W61536  19.216  29.617   2.743
96376W        W61537  14.792  38.504   1.847
96377W        W61538  27.763  28.495  12.969
96378W        W61539  28.730  23.182   1.626
96379W        W61540  27.087  40.760  12.144
96380W        W61541   2.329  42.976   4.156
96381W        W61542  20.145   2.674   0.518
96382W        W61543  44.962  23.165   1.422
96383W        W61544   8.893   4.684  11.164
96384W        W61545  10.412  10.365   4.064
96385W        W61546  36.784  21.152  10.727
96386W        W61547   4.516   3.011   0.215
96387W        W61548   3.295  21.709  12.521
96388W        W61549   2.726   4.790  12.915
96389W        W61550  30.398  18.681   3.339
96390W        W61551  39.758  22.518   0.814
96391W        W61552   2.908  13.637   1.853
96392W        W61553   6.847  22.217  14.366
96393W        W61554  17.357   3.107   3.146
96394W        W61555  25.954  23.664  13.787
96395W        W61556  41.564  25.462  10.475
96396W        W61557  34.816   4.930   2.850
96397W        W61558  20.521  25.492  10.740
96398W        W61559  42.628   0.236   2.071
96399W        W61560  28.239  29.940  14.384
96400W        W61561   6.898  36.564  11.618
96401W        W61562  24.418  30.489  11.849
96402W        W61563   5.163  42.192   2.549
96403W        W61564  11.095  43.897  12.052
96404W        W61565  26.208  18.099   1.444
96405W        W61566  35.653   5.448   0.819
96406W        W61567   7.053  19.582   4.054
96407W        W61568  14.174  31.058   4.764
96408W        W61569   3.231   5.514   1.559
96409W        W61570  10.173  29.748  13.158
96410W        W61571  38.416  18.247  13.397
96411W        W61572  34.367  12.590   2.225
96412W        W61573  17.779  44.232   4.617
96413W        W61574  39.123  20.791   1.343
96414W        W61575  33.618   5.721  12.439
96415W        W61576  39.480  20.674  12.773
96416W        W61577   2.957  26.429   3.032
96417W        W61578   7.004   9.632  12.713
96418W        W61579   4.656   3.886  11.005
96419W        W61580   3.935  14.545   2.878
96420W        W61581  25.732   9.040  14.719
96421W        W61582   9.326   8.242   3.914
96422W        W61583  42.145  10.217  13.324
96423W        W61584   3.937  22.645   9.874
96424W        W61585   2.073  23.112   2.851
96425W        W61586  23.162  19.551  12.914
96426W        W61587  37.123   0.846   2.365
96427W        W61588   5.691  43.820   1.777
96428W        W61589  30.605  15.326   1.820
96429W        W61590  36.512  42.014   4.095
96430W        W61591  40.294  16.118   0.793
96431W        W61592  35.399  36.633   1.797
96432W        W61593  18.812   0.450   2.735
96433W        W61594  43.472  34.339  12.047
96434W        W61595   6.782  24.913  10.280
96435W        W61596  43.752  36.023  12.920
96436W        W61597  34.513  36.599  12.700
96437W        W61598  19.290  20.657   3.192
96438W        W61599  13.942  21.250   1.382
96439W        W61600  17.778   3.797   1.428
96440W        W61601  20.040  33.628   2.329
96441W        W61602  44.448  25.799   3.299
96442W        W61603   4.934   7.651   3.361
96443W        W61604  44.481  11.621  12.979
96444W        W61605  24.524  25.477   1.352
96445W        W61606   4.201  37.350   2.275
96446W        W61607  33.153  22.311  14.875
96447W        W61608   3.410  30.348   3.704
96448W        W61609  36.064  38.024  13.154
96449W        W61610  37.829   4.314  14.350
96450W        W61611  38.449   7.487   0.024
96451W        W61612  37.304  23.318  14.368
96452W        W61613  26.888  34.278  11.819
96453W        W61614  16.492   6.486   3.196
96454W        W61615  25.068  43.876   4.549
96455W        W61616   3.736  24.624  13.705
96456W        W61617  39.294  41.613  10.786
96457W        W61618   8.377  34.819   4.614
96458W        W61619  21.096  10.364   2.228
96459W        W61620  38.055  39.593   4.258
96460W        W61621  43.935   9.286   3.730
96461W        W61622  23.161  26.684  12.927
96462W        W61623  17.624  28.531   3.657
96463W        W61624   7.730  41.370   4.507
96464W        W61625  43.747  25.698  13.761
96465W        W61626   5.385   4.293  11.250
96466W        W61627  26.619  40.230   4.960
96467W        W61628  17.804  29.714  12.352
96468W        W61629  21.704  25.926  13.258
96469W        W61630   8.140  11.100  13.437
96470W        W61631   6.255  32.079   2.735
96471W        W61632  22.630  39.584  10.196
96472W        W61633   3.322  24.102  12.455
96473W        W61634   6.116  21.947   2.729
96474W        W61635   6.762  14.873   3.642
96475W        W61636  41.812  10.761   2.291
96476W        W61637   1.688  16.078  13.449
96477W        W61638  23.002  43.888  14.219
96478W        W61639  42.137  14.945   2.162
96479W        W61640  32.876  21.321  12.004
96480W        W61641   3.012  25.702  13.459
96481W        W61642  12.139  30.993  14.396
96482W        W61643  42.600  44.905  14.493
96483W        W61644  14.647  33.807   3.256
96484W        W61645  15.326  21.097  11.406
96485W        W61646  25.184   5.952  13.958
96486W        W61647  33.429  40.669  11.123
96487W        W61648  33.496   1.423   2.234
96488W        W61649  23.425  42.479  14.004
96489W        W61650  26.111  30.960   1.436
96490W        W61651  23.097   6.066   2.438
96491W        W61652  29.032  11.366   4.126
96492W        W61653  30.416   6.692  10.557
96493W        W61654  21.573   9.886   1.858
96494W        W61655  29.465  10.002  12.843
96495W        W61656  40.898  35.189   4.532
96496W        W61657   2.203  29.964  14.108
96497W        W61658  12.323  18.219   3.281
96498W        W61659  35.946  11.328   3.949
96499W        W61660  43.361  27.953   0.424
96500W        W61661  16.929   8.338   1.863
96501W        W61662  18.199   3.720  13.583
96502W        W61663  39.875   9.291   4.674
96503W        W61664   6.793  28.505  14.610
96504W        W61665   9.118   4.744   0.662
96505W        W61666  12.052  32.908  12.016
96506W        W61667  40.013  43.250  13.514
96507W        W61668   2.137  42.816   4.595
96508W        W61669  27.414  16.225   2.902
96509W        W61670  14.900  12.601  11.693
96510W        W61671  26.082  16.711   4.107
96511W        W61672  27.896  15.762  13.350
96512W        W61673  40.462  43.009   2.500
96513W        W61674  14.819  42.887   3.314
96514W        W61675  17.559  13.815  12.234
96515W        W61676  37.523  37.734   5.172
96516W        W61677  41.888   2.784   0.694
96517W        W61678  21.473  23.722   2.642
96518W        W61679  39.102  30.770  14.341
96519W        W61680  31.505  37.432  12.974
96520W        W61681   1.784   1.606   3.599
96521W        W61682  16.643  26.389   2.353
96522W        W61683  21.176  38.950   3.219
96523W        W61684  43.929   0.078  10.944
96524W        W61685   9.339  10.776   2.043
96525W        W61686   7.620  32.096   1.510
96526W        W61687  18.277  34.394   3.348
96527W        W61688  42.549  15.631  10.605
96528W        W61689  39.610  43.016  12.620
96529W        W61690  28.001  22.195   2.668
96530W        W61691  36.855  13.634  12.612
96531W        W61692  11.138  42.936  12.020
96532W        W61693  43.484  21.994   4.150
96533W        W61694   5.462  10.379   4.032
96534W        W61695  44.286  32.367   3.977
96535W        W61696  38.863  41.668   4.050
96536W        W61697  32.535  34.939   4.740
96537W        W61698  36.344  36.853   1.729
96538W        W61699  22.999  25.357  12.827
96539W        W61700  42.714   6.967   2.420
96540W        W61701  30.211  31.408   4.591
96541W        W61702  17.328   4.695   0.814
96542W        W61703   0.244  12.616  12.256
96543W        W61704   8.847  29.125   0.323
96544W        W61705  40.434  17.085  10.578
96545W        W61706  39.851   2.452  11.442
96546W        W61707  25.993  43.086  10.967
96547W        W61708   0.205  38.288   0.406
96548W        W61709  28.210   3.905  10.602
96549W        W61710  29.909  10.698  14.010
96550W        W61711   6.668  35.684   1.340
96551W        W61712  28.163   0.757   1.806
96552W        W61713  34.385   0.392  13.876
96553W        W61714  28.025  16.070   4.164
96554W        W61715  32.723  19.433   4.486
96555W        W61716  26.490  38.415  11.924
96556W        W61717  29.076  15.614   2.912
96557W        W61718  27.842  34.430  10.241
96558W        W61719  12.561  18.368  13.046
96559W        W61720  14.708  20.745   0.374
96560W        W61721  21.389  18.380  14.993
96561W        W61722  36.711  39.357   4.953
96562W        W61723  25.201  22.743  13.229
96563W        W61724  42.012  29.467   2.123
96564W        W61725  19.675  11.860  12.026
96565W        W61726  42.858  19.407  10.215
96566W        W61727  26.185  35.017  14.676
96567W        W61728   6.838  14.302   0.904
96568W        W61729   7.598  14.168   2.863
96569W        W61730  20.029   3.494   1.829
96570W        W61731  20.088   6.365   1.688
96571W        W61732  24.122  20.556  11.377
96572W        W61733  12.120  27.653  12.171
96573W        W61734  10.333  15.650  11.035
96574W        W61735  31.711  23.512   1.289
96575W        W61736  22.939  13.386   3.306
96576W        W61737  10.790  20.833   0.531
96577W        W61738  31.716  26.994   0.858
96578W        W61739  11.740   7.212  10.997
96579W        W61740  43.038  42.853   1.412
96580W        W61741  36.502  26.950  11.152
96581W        W61742  21.578  39.322   0.796
96582W        W61743  25.119  29.886   4.263
96583W        W61744  39.617  40.311  14.951
96584W        W61745  20.575  22.737   3.645
96585W        W61746  34.605  34.348   0.142
96586W        W61747  37.519  24.894  12.601
96587W        W61748  12.289  33.653   4.065
96588W        W61749  32.574  37.857   5.246
96589W        W61750  36.597  37.932  14.452
96590W        W61751  27.241  26.775   4.285
96591W        W61752  14.802   7.613   1.362
96592W        W61753  30.204  41.443   3.624
96593W        W61754  30.371   4.187   3.149
96594W        W61755  26.854  39.848   2.979
96595W        W61756  17.180  26.495  12.385
96596W        W61757  11.288  18.516  10.712
96597W        W61758  30.504   0.525   2.443
96598W        W61759  32.458  14.817   2.049
96599W        W61760  11.875   1.460   2.744
96600W        W61761  16.043  39.001   9.609
96601W        W61762   7.706  44.220  11.093
96602W        W61763  22.864   2.317  13.373
96603W        W61764  21.620  33.553  13.955
96604W        W61765   9.857   7.069  14.487
96605W        W61766  31.857  42.730  11.942
96606W        W61767   4.020   3.285   3.635
96607W        W61768  21.606  15.535   3.069
96608W        W61769  29.477  40.083   3.675
96609W        W61770  22.207  20.014   0.843
96610W        W61771  37.692  13.338   0.754
96611W        W61772   9.758   8.808   2.630
96612W        W61773  16.320  34.927   1.611
96613W        W61774   9.163  38.615  13.931
96614W        W61775  12.133  43.545  14.202
96615W        W61776  20.839  20.686   1.883
96616W        W61777  41.580   1.372  11.951
96617W        W61778  15.267   1.261  12.078
96618W        W61779   2.229  17.782  11.682
96619W        W61780  34.046   1.978  10.792
96620W        W61781   0.728  30.902  12.844
96621W        W61782  20.718  13.861   1.873
96622W        W61783  11.503   3.583   3.174
96623W        W61784  31.367  15.772   0.792
96624W        W61785  23.174  10.695  13.957
96625W        W61786   0.769  28.400  13.744
96626W        W61787  36.452  40.340   5.166
96627W        W61788   4.956   3.971   4.202
96628W        W61789  37.437   2.352   2.558
96629W        W61790  36.522   4.838   3.146
96630W        W61791  38.655  26.795   2.274
96631W        W61792  25.529   3.765  13.394
96632W        W61793   7.332  21.342  12.110
96633W        W61794  17.563  12.386  11.579
96634W        W61795  42.926  10.624   4.276
96635W        W61796  12.291   0.976   0.324
96636W        W61797   0.956  20.107  10.012
96637W        W61798  25.507  30.071   2.486
96638W        W61799  10.186  17.112   4.047
96639W        W61800  33.060  36.889   0.844
96640W        W61801  14.788  29.452   0.410
96641W        W61802  21.989  36.622  13.374
96642W        W61803   1.883  42.781  12.480
96643W        W61804  43.694  24.679   1.881
96644W        W61805   7.017  10.373  10.771
96645W        W61806  11.517  37.201   5.175
96646W        W61807  19.563  19.579   1.967
96647W        W61808  25.372  20.681  12.438
96648W        W61809  38.316  20.529  11.289
96649W        W61810  27.948  40.448  12.362
96650W        W61811  40.440   1.003   1.673
96651W        W61812  43.128  19.334   4.697
96652W        W61813  30.521  43.192  12.882
96653W        W61814  28.075   6.299   0.038
96654W        W61815   9.228  11.942  11.933
96655W        W61816  12.297  36.363   0.222
96656W        W61817   3.668  12.552   1.799
96657W        W61818  44.014  15.061  13.450
96658W        W61819  30.155  21.731  11.576
96659W        W61820  16.930  27.078   2.713
96660W        W61821  31.104  19.020  13.309
96661W        W61822  17.742  30.160  13.758
96662W        W61823  23.304  37.792  14.455
96663W        W61824  11.255  18.556  11.589
96664W        W61825   2.402  43.285   4.587
96665W        W61826   1.980  32.339   3.773
96666W        W61827  17.598  13.295   0.548
96667W        W61828  26.201  18.968   2.666
96668W        W61829  26.178  41.771   4.114
96669W        W61830   6.251  35.550  11.683
96670W        W61831  17.037  10.731   4.293
96671W        W61832  34.714  40.713   0.255
96672W        W61833  22.125  20.481  10.244
96673W        W61834  35.937  38.585  12.330
96674W        W61835   4.438   9.798   1.086
96675W        W61836  27.693   9.645  14.979
96676W        W61837  36.570  16.753   4.094
96677W        W61838  42.968  37.652  14.493
96678W        W61839  18.296  29.030  12.382
96679W        W61840  12.596  31.651   4.194
96680W        W61841  44.811  33.593  10.785
96681W        W61842  17.496  17.519  12.947
96682W        W61843  22.629  16.298  10.207
96683W        W61844  43.227  40.867   0.842
96684W        W61845  26.496  13.543   4.252
96685W        W61846  42.482  27.918   2.746
96686W        W61847   1.818  44.032   0.368
96687W        W61848  29.935  43.685   4.760
96688W        W61849  17.775   5.427   2.151
96689W        W61850  42.559  19.225  10.949
96690W        W61851  26.610  14.746   1.412
96691W        W61852  20.222  17.009   2.761
96692W        W61853  11.810  22.555   5.190
96693W        W61854  27.598   8.718  14.478
96694W        W61855  38.310  30.410  13.059
96695W        W61856   6.908  18.105  13.390
96696W        W61857   6.211   7.754  14.100
96697W        W61858  41.838  21.162  14.405
96698W        W61859  11.559  27.962  13.920
96699W        W61860  35.992  26.563   1.806
96700W        W61861  36.337  35.975  11.723
96701W        W61862  44.056  43.806  14.466
96702W        W61863  15.684  27.228  12.614
96703W        W61864   9.768  14.354  11.175
96704W        W61865  37.032   5.722   2.673
96705W        W61866  38.694   4.015  14.352
96706W        W61867  14.170   9.085  12.446
96707W        W61868  20.172  34.441   4.137
96708W        W61869  38.900  15.831   4.052
96709W        W61870   9.855   8.667  12.857
96710W        W61871   3.424  17.225   0.801
96711W        W61872   0.432  20.874   1.258
96712W        W61873  18.375   1.426   3.457
96713W        W61874   5.767  27.192  14.752
96714W        W61875  14.116  23.743   4.488
96715W        W61876  38.797  40.430  12.649
96716W        W61877   4.500  38.421  14.444
96717W        W61878  41.618  42.029  10.854
96718W        W61879  36.546  15.903  12.922
96719W        W61880  18.156   7.296   3.124
96720W        W61881  23.799  42.748  11.155
96721W        W61882  40.506  38.211   2.326
96722W        W61883  40.707  11.182  12.989
96723W        W61884  20.327  28.139   3.714
96724W        W61885  29.852  18.222  10.611
96725W        W61886  44.807   1.030   3.251
96726W        W61887  20.412  28.038  12.410
96727W        W61888  22.115  17.628  10.189
96728W        W61889  21.656   9.364   0.954
96729W        W61890  37.782  35.287   2.623
96730W        W61891  23.601   9.222  11.537
96731W        W61892   7.342   1.473  12.906
96732W        W61893  14.593  22.218  12.101
96733W        W61894  22.501  33.716  12.150
96734W        W61895  19.507  42.411  14.099
96735W        W61896   4.477  35.481   0.918
96736W        W61897  10.594   2.505  12.943
96737W        W61898  12.357   3.291   0.336
96738W        W61899   0.888  24.671  11.895
96739W        W61900  17.130   0.529  10.748
96740W        W61901  35.975   5.162   4.589
96741W        W61902  44.062  42.893   1.121
96742W        W61903  25.737  29.935   4.552
96743W        W61904  17.551   8.467  14.386
96744W        W61905   9.023  26.627  11.038
96745W        W61906  28.049  23.918   2.624
96746W        W61907   1.878  11.542   3.671
96747W        W61908  30.308  42.662   4.167
96748W        W61909  18.690  42.184  12.102
96749W        W61910  26.244  27.832  14.298
96750W        W61911  20.711  35.600  12.036
96751W        W61912  33.899   0.215   4.943
96752W        W61913  43.903  33.247   0.745
96753W        W61914  39.344   1.361  14.773
96754W        W61915  13.739   1.647  11.664
96755W        W61916  10.805  43.266   2.751
96756W        W61917  42.364  32.069   1.494
96757W        W61918  16.866  39.028  11.168
96758W        W61919  24.644  36.320   1.752
96759W        W61920  37.951  23.256  11.583
96760W        W61921  11.754  19.623   3.111
96761W        W61922   2.335   0.064  12.034
96762W        W61923   7.510  39.845  12.095
96763W        W61924  38.523  39.249  14.330
96764W        W61925   2.467  23.350  11.081
96765W        W61926  21.256  21.528  14.998
96766W        W61927  29.529  39.703   5.016
96767W        W61928   6.877   3.942   4.443
96768W        W61929  25.443   3.751  11.960
96769W        W61930  17.040  18.684  11.954
96770W        W61931   6.858  20.063  12.161
96771W        W61932  27.574  44.329  14.338
96772W        W61933  34.589  13.707  11.883
96773W        W61934  16.708  27.909  10.800
96774W        W61935   8.368  33.554   2.448
96775W        W61936  37.399   9.823  13.512
96776W        W61937  28.575   5.242   0.397
96777W        W61938  19.289  17.432   4.597
96778W        W61939  39.617   2.458   0.824
96779W        W61940  13.323  26.670  13.403
96780W        W61941  10.647  39.936   2.442
96781W        W61942  24.616  18.694   1.999
96782W        W61943  14.910  40.917   1.683
96783W        W61944  42.055   2.052   0.431
96784W        W61945  24.144  26.302   3.733
96785W        W61946   7.907  16.657   2.376
96786W        W61947  13.076  18.863  14.748
96787W        W61948   1.844   3.160  11.576
96788W        W61949   2.248   0.434  13.324
96789W        W61950  14.098  29.019   3.738
96790W        W61951  22.106  41.340  14.858
96791W        W61952  15.150  17.145  10.993
96792W        W61953  23.293  14.566   4.638
96793W        W61954  22.422   2.291   3.362
96794W        W61955  23.920  32.934  13.052
96795W        W61956  36.600  20.697  14.404
96796W        W61957  29.875  36.470  11.087
96797W        W61958   7.986  40.792  11.831
96798W        W61959  32.117  43.433   3.870
96799W        W61960  23.957  14.851  13.538
96800W        W61961  24.260  41.515   2.756
96801W        W61962  18.940  42.598   2.617
96802W        W61963  23.966  37.359   3.050
96803W        W61964  24.797  12.843   3.297
96804W        W61965   3.829   3.663   2.345
96805W        W61966  24.846  28.853   0.775
96806W        W61967  38.353   6.207  12.905
96807W        W61968  11.452  30.554  11.435
96808W        W61969   3.152  26.254   9.387
96809W        W61970  36.577   6.456   3.315
96810W        W61971  16.522  14.235  14.764
96811W        W61972  18.284  17.980   2.608
96812W        W61973  19.577  10.682  12.010
96813W        W61974  20.484  35.409  11.578
96814W        W61975  35.571   9.890   3.832
96815W        W61976  25.118  28.111   0.414
96816W        W61977  16.330  13.102   0.896
96817W        W61978  28.921   3.352  11.546
96818W        W61979  11.912   1.001  13.151
96819W        W61980  39.024  20.780   2.230
96820W        W61981  39.022   2.689  11.193
96821W        W61982   6.379   1.958  14.502
96822W        W61983  35.533  24.663   4.669
96823W        W61984  17.662   2.554   2.280
96824W        W61985   2.515   1.493   3.204
96825W        W61986  39.466  22.906   0.606
96826W        W61987  29.002  21.523   1.276
96827W        W61988  13.954  18.806   3.720
96828W        W61989  14.707  22.975  12.927
96829W        W61990  30.647  36.380  13.917
96830W        W61991  38.574  19.630  12.474
96831W        W61992  37.880   6.048   2.614
96832W        W61993   5.913   2.432   2.268
96833W        W61994  35.097  38.317  13.641
96834W        W61995   8.195  44.289  14.939
96835W        W61996  26.516  32.485  12.486
96836W        W61997   5.206   0.774   2.214
96837W        W61998  35.769  33.074   2.692
96838W        W61999  22.982   9.174  13.958
96839W        W62000  26.193  34.332  12.439
96840W        W62001  22.075  43.805   2.420
96841W        W62002  23.272  16.285   2.354
96842W        W62003  37.269  27.072  13.484
96843W        W62004   2.704   5.806  11.463
96844W        W62005   5.715   9.102  13.911
96845W        W62006   9.770  18.779  12.516
96846W        W62007  36.857  21.964   3.909
96847W        W62008  19.524  20.647  13.005
96848W        W62009  38.506  33.296   2.470
96849W        W62010   5.407  32.405   1.357
96850W        W62011  43.916  21.882   0.721
96851W        W62012  34.822  28.409  14.466
96852W        W62013   7.651   7.261  14.971
96853W        W62014   4.382  24.572   1.968
96854W        W62015  30.695  40.895  11.938
96855W        W62016  44.690  40.508  11.921
96856W        W62017  19.088  25.012  11.593
96857W        W62018  39.003  31.842   4.675
96858W        W62019  31.826  20.634   2.183
96859W        W62020  33.811  24.563   5.037
96860W        W62021   6.195  15.790  13.862
96861W        W62022  27.146  20.665  14.423
96862W        W62023  13.191  40.545   2.788
96863W        W62024  27.477  10.171   1.892
96864W        W62025  24.629  26.127   3.693
96865W        W62026  28.715  41.236  10.993
96866W        W62027  27.244  10.265   2.584
96867W        W62028  21.692   4.259   1.619
96868W        W62029  37.918  34.519   4.669
96869W        W62030   8.870  28.675   1.248
96870W        W62031  15.266  16.590   1.637
96871W        W62032  21.661  11.339   1.790
96872W        W62033  19.622  30.728  12.004
96873W        W62034  19.214  42.060   0.870
96874W        W62035  19.904  18.702  13.819
96875W        W62036  14.007  37.913  14.282
96876W        W62037  21.679   6.869   5.062
96877W        W62038  12.685   7.258   3.613
96878W        W62039  17.270  14.029  10.328
96879W        W62040  18.346  29.107  10.684
96880W        W62041  10.586  14.255   3.209
96881W        W62042  39.703  20.143  14.043
96882W        W62043  14.085  19.222   4.751
96883W        W62044   8.668   7.307  14.950
96884W        W62045  21.774  20.642   1.766
96885W        W62046  33.806  12.746   0.288
96886W        W62047  20.066  38.783   9.917
96887W        W62048  13.647  23.044   3.727
96888W        W62049   9.859  25.230   1.500
96889W        W62050   3.397  23.195   1.713
96890W        W62051  31.488  36.114   1.850
96891W        W62052   0.932  42.975  14.085
96892W        W62053  24.347   3.424  11.116
96893W        W62054  43.447  27.501   3.414
96894W        W62055  36.330  36.469   1.366
96895W        W62056  24.550   1.063   2.983
96896W        W62057  14.510   4.495  14.027
96897W        W62058  44.291  40.935   3.467
96898W        W62059  30.004   4.867   1.515
96899W        W62060  24.090  40.816  12.166
96900W        W62061  25.666  20.322  11.668
96901W        W62062  24.941  25.211   4.201
96902W        W62063  27.263  23.551   5.138
96903W        W62064  13.168  34.264   3.131
96904W        W62065  42.293  38.874  11.489
96905W        W62066  12.420  31.970   2.179
96906W        W62067  26.469  39.758   2.597
96907W        W62068  18.560  25.900  14.244
96908W        W62069  41.031  30.188   4.343
96909W        W62070  40.522   2.494  11.254
96910W        W62071   7.508   0.403   3.476
96911W        W62072   4.387  43.924   0.705
96912W        W62073  42.201  14.318   0.828
96913W        W62074   0.743  25.264   4.532
96914W        W62075  18.847  40.869  11.022
96915W        W62076  16.692  31.649   1.877
96916W        W62077  22.438  31.825  13.052
96917W        W62078  32.823  24.117   3.686
96918W        W62079  36.776   9.880   4.632
96919W        W62080   3.312  44.535   2.852
96920W        W62081  27.651  10.147  10.688
96921W        W62082  23.309   9.724   2.256
96922W        W62083   8.164  26.961   9.865
96923W        W62084  13.589  13.266  12.887
96924W        W62085  23.873  19.320  14.888
96925W        W62086  23.822  37.993   0.403
96926W        W62087   1.793  33.528   0.525
96927W        W62088   1.328  12.590   1.822
96928W        W62089  43.315  11.800  14.803
96929W        W62090  16.359   6.807   4.687
96930W        W62091  23.693   7.074  11.068
96931W        W62092  42.359  26.458  13.905
96932W        W62093  14.405   8.182  14.405
96933W        W62094  17.362  30.479  14.334
96934W        W62095  36.632  43.707  11.565
96935W        W62096  39.270  10.123   5.302
96936W        W62097  12.131  19.739  11.490
96937W        W62098   9.264  24.989   0.388
96938W        W62099   6.140   2.570   3.099
96939W        W62100  13.211  16.579  12.508
96940W        W62101  34.986   7.481  14.110
96941W        W62102  29.292   3.798   1.672
96942W        W62103  25.349  30.138  11.903
96943W        W62104  12.871  42.293  13.396
96944W        W62105   1.493  21.119  12.129
96945W        W62106  11.719  27.403   0.566
96946W        W62107  37.606  12.374   2.293
96947W        W62108  17.077  25.617  12.130
96948W        W62109  30.704   5.546   1.292
96949W        W62110  14.596  29.514   4.811
96950W        W62111  43.971  35.167   9.791
96951W        W62112   9.787  31.055  13.472
96952W        W62113  34.410  31.985  10.642
96953W        W62114  34.520  22.693   0.797
96954W        W62115   9.934   7.910  13.910
96955W        W62116   4.226  35.471   3.396
96956W        W62117   2.754  39.596   2.331
96957W        W62118  14.849  41.003  14.493
96958W        W62119  38.473   6.735   3.814
96959W        W62120   3.058  38.363  10.703
96960W        W62121  42.514  22.519  11.130
96961W        W62122  12.786   0.850   0.467
96962W        W62123  37.338  25.133  13.033
96963W        W62124  12.359  17.203   2.277
96964W        W62125  33.391  26.186   4.542
96965W        W62126  28.615  38.599  12.584
96966W        W62127  41.615  31.551   0.296
96967W        W62128  22.538  12.604  10.805
96968W        W62129  38.917  11.821  11.736
96969W        W62130   9.611   5.215   1.328
96970W        W62131  15.006   8.732   5.083
96971W        W62132  21.710  39.703  13.024
96972W        W62133  40.241   8.176  13.491
96973W        W62134  32.918  28.017   4.531
96974W        W62135  12.771  34.974  10.670
96975W        W62136  17.079  42.825   2.786
96976W        W62137  23.532  19.820  14.960
96977W        W62138  11.869  36.577   1.322
96978W        W62139   9.160  42.712   3.681
96979W        W62140  27.325  27.473  11.818
96980W        W62141  42.500   6.694   1.552
96981W        W62142   7.340  22.717  10.732
96982W        W62143  36.695   8.004  13.882
96983W        W62144  39.415  39.813   2.979
96984W        W62145  24.513  42.214  14.806
96985W        W62146  26.871   2.456   1.402
96986W        W62147  22.547   3.271  11.541
96987W        W62148   4.060  18.540  11.202
96988W        W62149   9.343  30.960  11.616
96989W        W62150  35.544  33.127  11.031
96990W        W62151  37.626   9.785   3.213
96991W        W62152  37.064  12.556   2.346
96992W        W62153  13.713  16.630   2.329
96993W        W62154  24.133   1.340  11.541
96994W        W62155  38.870  37.502  13.384
96995W        W62156  16.940  42.557  11.519
96996W        W62157   4.921  23.416  12.513
96997W        W62158  36.580   2.922  11.138
96998W        W62159  22.830  24.698  12.329
96999W        W62160  30.879  38.430   1.847
97000W        W62161  43.411  21.260   0.379
97001W        W62162  14.395  25.056   2.325
97002W        W62163  21.717  34.448  13.956
97003W        W62164  26.711  21.166  11.491
97004W        W62165  44.854  22.961   1.884
97005W        W62166  41.009  37.739   4.973
97006W        W62167  30.168  15.470  13.345
97007W        W62168  41.317  12.810  11.434
97008W        W62169   8.278  14.723  14.753
97009W        W62170  15.617  22.123   0.744
97010W        W62171  33.871  40.620   2.749
97011W        W62172  24.839   9.646  12.287
97012W        W62173  13.313   1.797  11.946
97013W        W62174  37.899  10.448  11.437
97014W        W62175   8.082  43.778  12.552
97015W        W62176  34.974  35.658  10.713
97016W        W62177   8.296  41.260  12.619
97017W        W62178  28.604  32.922  13.036
97018W        W62179  23.197  13.664   0.267
97019W        W62180  22.108  30.144  12.901
97020W        W62181  16.154  15.678  12.002
97021W        W62182  18.305  41.792  12.528
97022W        W62183  32.137  11.445  11.513
97023W        W62184  29.498  19.508  11.272
97024W        W62185  11.097  37.075   4.787
97025W        W62186   7.055  41.856   4.830
97026W        W62187  20.084   6.814   3.765
97027W        W62188  12.867  18.945  12.082
97028W        W62189  12.430  20.449  13.387
97029W        W62190  14.802  10.088  13.943
97030W        W62191   8.127   1.069   2.283
97031W        W62192   1.203  40.423  13.376
97032W        W62193   1.801  31.448  10.764
97033W        W62194  38.193  22.009  14.427
97034W        W62195  43.426   5.731   1.370
97035W        W62196  10.581  39.101   2.869
97036W        W62197  11.740  26.451   2.785
97037W        W62198  10.858  30.992   3.898
97038W        W62199  21.983  37.127   0.399
97039W        W62200   5.030  18.691   0.209
97040W        W62201  12.151  40.972   3.625
97041W        W62202  14.820  14.336   2.874
97042W        W62203   2.255  28.579   2.285
97043W        W62204  21.607  40.396   1.400
97044W        W62205   2.383   2.716  10.665
97045W        W62206  40.523  23.257  13.932
97046W        W62207  35.559  27.601   1.248
97047W        W62208  44.793  30.867  11.541
97048W        W62209  15.628  26.896   3.766
97049W        W62210   3.908  34.453   2.910
97050W        W62211  28.188  35.136   2.744
97051W        W62212   3.844   1.724  10.959
97052W        W62213  24.610  29.019  10.540
97053W        W62214  14.132  19.206  11.123
97054W        W62215  35.781  12.338  14.350
97055W        W62216   8.298  13.222   4.410
97056W        W62217  17.700   8.079   1.241
97057W        W62218   6.074  16.765   3.142
97058W        W62219   3.821   4.810  12.153
97059W        W62220  34.415  26.039   1.655
97060W        W62221  17.178   4.912   1.837
97061W        W62222  42.068  34.854   1.732
97062W        W62223  13.254  42.157  13.065
97063W        W62224  26.082  28.902   1.442
97064W        W62225  10.957   4.869  12.331
97065W        W62226   2.130  37.199  14.982
97066W        W62227   0.661  19.314   0.707
97067W        W62228  27.038  22.720  11.998
97068W        W62229  29.936  43.615   0.771
97069W        W62230   3.420   2.519   4.537
97070W        W62231  21.777  32.410   2.971
97071W        W62232   4.402  32.027   3.240
97072W        W62233  25.234  32.682   2.643
97073W        W62234  39.071  23.656  10.227
97074W        W62235  37.684  25.699   1.625
97075W        W62236   8.155  35.212   1.835
97076W        W62237  12.109  20.014  13.417
97077W        W62238  29.001  16.334   1.825
97078W        W62239  30.014  44.031   1.730
97079W        W62240  18.678  12.398   2.779
97080W        W62241  25.648  29.715  11.958
97081W        W62242  22.946  21.127  11.092
97082W        W62243  23.813   7.924   2.028
97083W        W62244   2.883  41.845   0.937
97084W        W62245  35.548  35.117   1.783
97085W        W62246  25.483  17.030  13.898
97086W        W62247  31.056  22.359   2.267
97087W        W62248  40.127   5.310   1.305
97088W        W62249  24.587  43.032  10.948
97089W        W62250   7.445  35.940  13.427
97090W        W62251  19.272  24.225  10.271
97091W        W62252   0.552  34.755  11.397
97092W        W62253  19.305  17.471  13.495
97093W        W62254   0.984   3.531  11.609
97094W        W62255   7.459  30.143   3.249
97095W        W62256  38.317  32.563  13.395
97096W        W62257  28.449   6.910   0.945
97097W        W62258   5.497  13.319  14.416
97098W        W62259  25.069  35.505   4.154
97099W        W62260  19.198  43.278  13.377
97100W        W62261   3.863  27.489   2.692
97101W        W62262  10.094  25.623  11.202
97102W        W62263   1.242  27.523   3.252
97103W        W62264  10.419   4.708  11.681
97104W        W62265  24.026  29.494  11.174
97105W        W62266  38.756  14.050  12.539
97106W        W62267  30.935  33.106   4.348
97107W        W62268  35.720   6.760  14.085
97108W        W62269  32.040  18.002   1.958
97109W        W62270   6.716   4.025   3.964
97110W        W62271   3.201  23.516   4.624
97111W        W62272  30.990  34.435   3.814
97112W        W62273  38.128   1.923   3.693
97113W        W62274  35.803  22.235  11.622
97114W        W62275  39.487  21.127  10.480
97115W        W62276   9.741   6.089   1.326
97116W        W62277  28.995  32.509   3.661
97117W        W62278   8.389  33.946   2.120
97118W        W62279  30.191   0.788  12.420
97119W        W62280  11.732  32.584   3.811
97120W        W62281  26.950  40.925  14.578
97121W        W62282  19.190  27.216   1.837
97122W        W62283  20.651   3.299  13.456
97123W        W62284  14.304  10.356  13.045
97124W        W62285  22.252   6.025  10.607
97125W        W62286  41.026   9.770   4.672
97126W        W62287  11.601  30.984  11.201
97127W        W62288  29.859  16.721   2.711
97128W        W62289  37.136  43.321  13.478
97129W        W62290  44.287  18.821  14.452
97130W        W62291  43.904  19.131  14.330
97131W        W62292   8.783   3.970   3.242
97132W        W62293   0.296   0.189  10.778
97133W        W62294  32.653  32.087   2.039
97134W        W62295  13.232   4.431  13.439
97135W        W62296  13.689  19.297  10.889
97136W        W62297   3.413  24.648  14.827
97137W        W62298  22.310  42.757  11.206
97138W        W62299   2.232  40.392  11.498
97139W        W62300   0.801  33.964   1.838
97140W        W62301  34.432  29.505  12.659
97141W        W62302  13.382  40.858  14.365
97142W        W62303  23.543  38.100  11.645
97143W        W62304   6.152  41.036   4.572
97144W        W62305   3.210  28.588   3.130
97145W        W62306  43.244  44.030  11.220
97146W        W62307   1.470  28.930   1.717
97147W        W62308  23.176  42.400  10.486
97148W        W62309  38.337  15.174  14.474
97149W        W62310   7.693  14.934   3.163
97150W        W62311  39.338  17.042   0.670
97151W        W62312  12.378  33.353   0.875
97152W        W62313  24.057   6.091   1.458
97153W        W62314   1.382  12.117  12.849
97154W        W62315  20.174  24.963   4.490
97155W        W62316  12.872  32.342  13.514
97156W        W62317  23.201  14.955  11.097
97157W        W62318  32.818  38.184  12.821
97158W        W62319  35.316  12.776  12.074
97159W        W62320  40.751  29.381  11.540
97160W        W62321  28.215  36.385  14.320
97161W        W62322  42.319  27.254  13.440
97162W        W62323   9.657  17.127   0.510
97163W        W62324  27.023  25.488   2.392
97164W        W62325   4.310   4.388   4.093
97165W        W62326  17.014   9.440   0.268
97166W        W62327  33.031  16.997  14.013
97167W        W62328   7.980  37.083   5.220
97168W        W62329  17.704  26.168  10.702
97169W        W62330  33.494  32.058   2.352
97170W        W62331  23.146  29.618   1.497
97171W        W62332  23.033   8.171   4.648
97172W        W62333  19.146  19.766   4.386
97173W        W62334  12.935  39.891   4.938
97174W        W62335  28.868  21.697   0.277
97175W        W62336   1.853  19.870   3.308
97176W        W62337  38.916  29.764   1.356
97177W        W62338  32.595  12.854  13.449
97178W        W62339  38.840  36.574   3.893
97179W        W62340  37.261  18.678  13.837
97180W        W62341  37.826  18.767  12.997
97181W        W62342  38.020  29.901   0.712
97182W        W62343  18.272  33.214   2.678
97183W        W62344  29.491  37.606   0.292
97184W        W62345  16.017  10.878   3.350
97185W        W62346  12.578  11.152   2.134
97186W        W62347   0.761  27.631   0.477
97187W        W62348   5.600  43.267   3.196
97188W        W62349  39.768  28.045  13.483
97189W        W62350  34.598  27.892   0.291
97190W        W62351   3.271  24.628  12.463
97191W        W62352   7.626  17.257   3.676
97192W        W62353  32.143  30.465  12.485
97193W        W62354  42.316  22.810   2.176
97194W        W62355  16.152  43.411   4.668
97195W        W62356  30.501  40.018  12.664
97196W        W62357  22.460  18.109   4.690
97197W        W62358  29.019   8.330  14.311
97198W        W62359   8.870   0.872   1.873
97199W        W62360  19.720  16.816  12.021
97200W        W62361  25.440  44.256  13.531
97201W        W62362   8.432  13.839   2.810
97202W        W62363   0.338  24.199   1.753
97203W        W62364  35.805   3.968  13.842
97204W        W62365  25.994  20.601   2.847
97205W        W62366  34.144  14.243   4.180
97206W        W62367  12.077  15.331  12.006
97207W        W62368  40.649  25.188   0.951
97208W        W62369  16.731  17.256   0.025
97209W        W62370   9.607  42.316  12.387
97210W        W62371  13.323  15.073   3.344
97211W        W62372   1.995  37.707  11.078
97212W        W62373   7.771   0.417  10.679
97213W        W62374  41.580  33.490   1.573
97214W        W62375  13.938  40.849   1.708
97215W        W62376  16.725  37.088   3.310
97216W        W62377  13.217  19.256  11.615
97217W        W62378   5.745  36.484  10.419
97218W        W62379  14.140   5.414   3.592
97219W        W62380  42.789  15.602  13.520
97220W        W62381   8.599   9.294   2.700
97221W        W62382  38.555  16.672   2.673
97222W        W62383  11.362  24.137  13.860
97223W        W62384  20.967  18.441  10.796
97224W        W62385  31.906  29.423  14.082
97225W        W62386  20.670  40.546   3.782
97226W        W62387   5.499  31.156  14.591
97227W        W62388  44.198  22.267  12.882
97228W        W62389  10.677  20.644  12.438
97229W        W62390  26.211  35.077   0.698
97230W        W62391   3.642   4.492   2.785
97231W        W62392  23.611  37.712   4.268
97232W        W62393  35.224  29.243   3.682
97233W        W62394   8.929  16.792   3.977
97234W        W62395  18.133  34.919   0.315
97235W        W62396  42.236   1.421   2.355
97236W        W62397  25.676  42.290   4.634
97237W        W62398   5.887  42.614  12.700
97238W        W62399   5.014  41.323   0.287
97239W        W62400  16.793  37.690   2.334
97240W        W62401  10.090  44.008  12.972
97241W        W62402  22.621  11.774  13.071
97242W        W62403  29.156  25.228  12.150
97243W        W62404  28.691   6.149  12.830
97244W        W62405  41.521  22.240   4.009
97245W        W62406  22.183  20.092   4.985
97246W        W62407  40.452  18.961   2.405
97247W        W62408   8.921   9.363   2.278
97248W        W62409  44.088  35.749  14.028
97249W        W62410  30.134  16.568  11.193
97250W        W62411  32.344   3.970   1.362
97251W        W62412   5.370  35.613  11.392
97252W        W62413  12.770  26.216  14.150
97253W        W62414  27.705   1.751   3.223
97254W        W62415   6.960  13.297   0.693
97255W        W62416  30.430   2.721   4.107
97256W        W62417  28.466   4.658  12.963
97257W        W62418  24.498   7.423   1.285
97258W        W62419  13.675  40.926  13.902
97259W        W62420  40.411  22.934   4.105
97260W        W62421  30.126  24.136   2.774
97261W        W62422   1.542   3.114   1.793
97262W        W62423  25.720  20.272   0.182
97263W        W62424  18.315  37.318   4.326
97264W        W62425  23.163  26.977   4.467
97265W        W62426  30.008  44.931  14.069
97266W        W62427  16.777   6.144  13.461
97267W        W62428  22.501   5.453   0.459
97268W        W62429  13.950  15.795   0.850
97269W        W62430  20.338  27.549   3.118
97270W        W62431  44.068  11.231   1.679
97271W        W62432  18.235   5.001   0.425
97272W        W62433  43.418  18.151   0.316
97273W        W62434  39.023  11.265   1.244
97274W        W62435  12.373  37.237  12.530
97275W        W62436   2.157  42.358  12.466
97276W        W62437  38.415   3.824   1.653
97277W        W62438  39.592  20.261  12.012
97278W        W62439  41.257   9.790   2.444
97279W        W62440  26.187  16.801  14.520
97280W        W62441  37.381  20.306   3.697
97281W        W62442  40.030  23.021  14.866
97282W        W62443  40.254  43.882   2.785
97283W        W62444  43.546   9.499  12.027
97284W        W62445  25.137  22.489  14.758
97285W        W62446  25.091   0.374   1.737
97286W        W62447  35.877  38.850  10.657
97287W        W62448   9.964  31.178   0.749
97288W        W62449   0.940  10.074  12.705
97289W        W62450  21.900  28.839  13.467
97290W        W62451  10.684  27.169   2.320
97291W        W62452  41.439  13.175   3.704
97292W        W62453  35.263  17.611  11.098
97293W        W62454  17.741  20.611   1.892
97294W        W62455  24.978   1.957   4.843
97295W        W62456  25.906  30.185   0.977
97296W        W62457  39.296  22.139  13.418
97297W        W62458  44.315  10.044  12.608
97298W        W62459  39.508   0.259  14.481
97299W        W62460   7.913  26.569  12.910
97300W        W62461  33.601  16.019  13.869
97301W        W62462  28.786  40.009   9.857
97302W        W62463  29.680  44.710   1.851
97303W        W62464  38.836  44.213  12.525
97304W        W62465   3.164  35.907   0.839
97305W        W62466  15.143  33.634   3.237
97306W        W62467   9.894   3.018   0.380
97307W        W62468  37.449  26.971   2.330
97308W        W62469   3.758  19.698   3.443
97309W        W62470  33.160  27.579   1.363
97310W        W62471  16.322  43.082  13.410
97311W        W62472  25.274  12.265  11.945
97312W        W62473   6.759   9.674   1.038
97313W        W62474  35.000  21.579   0.086
97314W        W62475  23.359   5.771  13.527
97315W        W62476  42.434  20.082   1.359
97316W        W62477   4.995   4.436  14.833
97317W        W62478  32.234  31.495   0.932
97318W        W62479  36.609  16.600   1.305
97319W        W62480   6.219  18.952   0.801
97320W        W62481  18.966  15.577  10.269
97321W        W62482  39.216  30.950   4.939
97322W        W62483   3.331  35.893  12.545
97323W        W62484   0.322   7.365  11.122
97324W        W62485  13.563  35.593   0.469
97325W        W62486  16.225  21.782   1.710
97326W        W62487  41.543  26.253  14.347
97327W        W62488  12.118   2.820  14.370
97328W        W62489  40.586  21.989  14.354
97329W        W62490  30.324  40.460  12.041
97330W        W62491  39.703   3.383   4.502
97331W        W62492  24.785   7.883  12.568
97332W        W62493  13.644   4.884   1.281
97333W        W62494  25.415   6.310   1.790
97334W        W62495   4.775  12.531  12.284
97335W        W62496  25.593  29.242   1.239
97336W        W62497  31.036  44.498   0.737
97337W        W62498  23.298  24.500  12.444
97338W        W62499  40.966  13.668  13.649
97339W        W62500  26.148  11.340   2.780
97340W        W62501  40.983  25.275   1.328
97341W        W62502  11.588  42.876  13.706
97342W        W62503  40.281  23.983  13.398
97343W        W62504  16.314   2.942   4.166
97344W        W62505  27.383  42.267   0.792
97345W        W62506  26.669  40.413   1.362
97346W        W62507  22.814   2.783  11.598
97347W        W62508   4.191  25.216  14.758
97348W        W62509  15.262  29.976   3.962
97349W        W62510   2.541  41.758   1.756
97350W        W62511  27.408  12.424   4.525
97351W        W62512  35.735  25.055   1.885
97352W        W62513  34.479  11.014  13.607
97353W        W62514  26.692  31.678   2.534
97354W        W62515  10.471  18.432   2.657
97355W        W62516  41.374   6.142  14.828
97356W        W62517  35.547  19.127   0.405
97357W        W62518   7.385  27.776   3.702
97358W        W62519  30.890   5.799   4.148
97359W        W62520   6.642  28.722  12.332
97360W        W62521  26.674  15.298   0.337
97361W        W62522   1.092  21.700  14.898
97362W        W62523  28.383  27.580   4.617
97363W        W62524  14.747  19.178   0.935
97364W        W62525  33.607  12.466   0.884
97365W        W62526  12.271  13.365  12.914
97366W        W62527  17.636  21.394   3.307
97367W        W62528   8.481  21.787  14.953
97368W        W62529  26.762   9.039   2.665
97369W        W62530  16.980   0.883  12.609
97370W        W62531  11.399   6.724  10.898
97371W        W62532  28.358  37.052  14.739
97372W        W62533   6.369  15.660  11.993
97373W        W62534  22.913  20.318   5.434
97374W        W62535  38.925   8.629   2.302
97375W        W62536  18.670  13.777  11.489
97376W        W62537  23.670  22.223   0.394
97377W        W62538  35.179   4.798   4.748
97378W        W62539   4.786  29.615  11.206
97379W        W62540   3.445  44.243   0.022
97380W        W62541  34.981  39.526  14.239
97381W        W62542  19.202  30.527  13.113
97382W        W62543  17.701  17.304   2.805
97383W        W62544  35.581  43.774  14.224
97384W        W62545  12.623  18.788  12.632
97385W        W62546   0.076   2.887  13.395
97386W        W62547  14.292  42.238   2.015
97387W        W62548  33.715   1.867  13.966
97388W        W62549  21.231  20.937   2.819
97389W        W62550  15.059   0.429   4.636
97390W        W62551   7.264  42.890   2.491
97391W        W62552  35.470  22.483   2.280
97392W        W62553  41.182  18.095  12.049
97393W        W62554  16.825  30.493   2.344
97394W        W62555   8.356  38.849   2.223
97395W        W62556  30.998  30.095  13.017
97396W        W62557  38.946  39.388   2.160
97397W        W62558  35.556   3.344   1.676
97398W        W62559  29.073  20.802   4.007
97399W        W62560  40.427  32.597  14.744
97400W        W62561  16.527  29.542   1.093
97401W        W62562  40.820  34.546  12.386
97402W        W62563  15.149  14.153   1.448
97403W        W62564  13.488   9.206   3.885
97404W        W62565  20.489  19.763  14.917
97405W        W62566  28.564   9.074   4.956
97406W        W62567  23.585  14.849  11.605
97407W        W62568   9.947   0.474  12.331
97408W        W62569  19.226  25.422  11.310
97409W        W62570  43.460  16.998  11.171
97410W        W62571  32.435  30.076   2.207
97411W        W62572  28.910  36.442   4.410
97412W        W62573  40.054  14.837  14.728
97413W        W62574  30.234   0.833  14.917
97414W        W62575   8.093  27.058  12.987
97415W        W62576  13.620  38.501   0.793
97416W        W62577  21.797   9.210  12.497
97417W        W62578   1.167  31.395   0.502
97418W        W62579  43.483  40.257  11.638
97419W        W62580  33.345  34.298  11.517
97420W        W62581   4.483  24.786  14.860
97421W        W62582  38.475   3.327  12.080
97422W        W62583  44.453   6.880   1.890
97423W        W62584   9.580  39.948  13.091
97424W        W62585  40.341  22.676   4.564
97425W        W62586  34.897  17.670  11.504
97426W        W62587  32.179  44.422  12.993
97427W        W62588  12.350  40.270   3.188
97428W        W62589  28.376  31.195   2.796
97429W        W62590  18.694   1.188   4.614
97430W        W62591  16.527  37.051  12.856
97431W        W62592  43.845   6.320   2.147
97432W        W62593  11.870  44.528  11.697
97433W        W62594  28.147  43.447  12.291
97434W        W62595  35.159   1.402  11.173
97435W        W62596  35.101  10.646  12.243
97436W        W62597  10.047  39.256   4.144
97437W        W62598  34.637  14.548  14.956
97438W        W62599  41.482  30.359  12.351
97439W        W62600  40.514  33.142   1.181
97440W        W62601   6.070  23.978   2.636
97441W        W62602   7.559  25.252   4.772
97442W        W62603  15.215  19.704  12.508
97443W        W62604   8.009  43.470   0.624
97444W        W62605  29.385  31.223   3.403
97445W        W62606  40.980  26.053  12.124
97446W        W62607   8.488   6.315  14.589
97447W        W62608  26.395   2.736   4.173
97448W        W62609  33.937  34.847   0.971
97449W        W62610  19.020  25.201   3.261
97450W        W62611  31.217   2.972   4.252
97451W        W62612  33.073   1.760  12.978
97452W        W62613  11.346   6.096  13.959
97453W        W62614  39.124  40.716   2.232
97454W        W62615  25.046   8.390   2.940
97455W        W62616  36.644  42.987  11.125
97456W        W62617  29.972  34.086   4.495
97457W        W62618   6.634   0.040   2.701
97458W        W62619   3.394   4.601  11.994
97459W        W62620  27.560   1.215   3.398
97460W        W62621  19.797  15.776  14.967
97461W        W62622  15.700  35.640   3.595
97462W        W62623  12.315  13.209  12.414
97463W        W62624  39.512  27.807  14.903
97464W        W62625  31.653  27.195   4.168
97465W        W62626  42.879  44.396   0.242
97466W        W62627  23.927   6.967   1.256
97467W        W62628   1.936  34.034  11.142
97468W        W62629  40.738  40.417   5.412
97469W        W62630   1.548   3.689   1.348
97470W        W62631   3.437  28.628  14.213
97471W        W62632  38.926  37.482   2.442
97472W        W62633  43.406  39.343  12.090
97473W        W62634  39.472   6.930  10.742
97474W        W62635   9.386  32.678  10.668
97475W        W62636  42.012  24.539   1.017
97476W        W62637   6.327  18.327  11.748
97477W        W62638  31.944  40.967   1.219
97478W        W62639  31.618  42.295   2.736
97479W        W62640   8.321  35.129  11.536
97480W        W62641  19.543  10.770  14.924
97481W        W62642  23.088  32.461   3.242
97482W        W62643   7.863   0.594   1.851
97483W        W62644  27.425   1.832  11.097
97484W        W62645  40.815  13.767  10.577
97485W        W62646  40.811   5.798  12.129
97486W        W62647  42.386  10.490  10.499
97487W        W62648  12.898  30.205   4.029
97488W        W62649  16.668  29.556  12.533
97489W        W62650  38.497  41.279   1.713
97490W        W62651   7.682   3.449  11.486
97491W        W62652  42.453  43.723   1.335
97492W        W62653  16.688  17.546   2.246
97493W        W62654  26.708  36.168   0.327
97494W        W62655   3.476  33.485   3.705
97495W        W62656   1.473  33.918   3.229
97496W        W62657  40.926  24.249  12.494
97497W        W62658   4.870  12.611  13.953
97498W        W62659  17.346  33.511   5.138
97499W        W62660  33.038  23.256  11.865
97500W        W62661   4.719  39.412  14.025
97501W        W62662  36.446  35.819   0.531
97502W        W62663  16.666   0.521   4.622
97503W        W62664  18.854   2.036  10.783
97504W        W62665  30.763  14.116  13.647
97505W        W62666  23.081  22.701  13.013
97506W        W62667   9.726   5.576   2.161
97507W        W62668  27.550   6.083   0.874
97508W        W62669  30.088  12.636   0.820
97509W        W62670   6.772  10.943   1.151
97510W        W62671  26.549   8.117   2.628
97511W        W62672  32.414  19.580   0.288
97512W        W62673  21.090   0.455  12.527
97513W        W62674  39.304  37.636   3.255
97514W        W62675  15.122  27.505   1.691
97515W        W62676   7.339  22.266  12.549
97516W        W62677  26.125  25.999  14.947
97517W        W62678  19.542  44.944   1.008
97518W        W62679   9.784  16.649  12.615
97519W        W62680  20.584  41.053   3.830
97520W        W62681  20.074  26.126  12.636
97521W        W62682  11.370  39.030   3.288
97522W        W62683  32.439  35.810  12.783
97523W        W62684  17.602   3.282  10.617
97524W        W62685  35.825  36.799   3.767
97525W        W62686   6.935  12.429  13.550
97526W        W62687  43.459   9.925   3.240
97527W        W62688  36.708  29.685  12.480
97528W        W62689  31.494  28.509   0.230
97529W        W62690  32.645   5.675  13.916
97530W        W62691  21.230  32.978   4.279
97531W        W62692   5.666  16.831  11.150
97532W        W62693   6.731  39.840  10.604
97533W        W62694  28.068  40.275  11.852
97534W        W62695  34.371  23.457  13.320
97535W        W62696  14.430  36.518  11.988
97536W        W62697  28.618   6.597  14.594
97537W        W62698  35.522   6.931   0.702
97538W        W62699  27.108  34.506  12.829
97539W        W62700   0.499  22.224   1.194
97540W        W62701  36.896   1.202   3.712
97541W        W62702  35.518  32.534  14.089
97542W        W62703  19.421  39.431  10.790
97543W        W62704  22.737  43.025   2.322
97544W        W62705   9.893   5.037  14.369
97545W        W62706  19.237   2.735   0.168
97546W        W62707  27.291  32.645   2.167
97547W        W62708   5.359  29.992   1.462
97548W        W62709  39.799   8.162  14.443
97549W        W62710  13.824  19.702   0.930
97550W        W62711  37.414  21.315   4.082
97551W        W62712  13.134  44.264  10.447
97552W        W62713  26.659  44.515   1.298
97553W        W62714  21.024   4.316   4.782
97554W        W62715  43.276   2.232   2.726
97555W        W62716  11.184  15.560  14.367
97556W        W62717  44.773  40.359   1.803
97557W        W62718   9.062  28.869   2.418
97558W        W62719  32.236   7.454  10.750
97559W        W62720  22.542   7.527   2.187
97560W        W62721   8.711  17.937  11.706
97561W        W62722   9.841  36.906  13.860
97562W        W62723  40.302   5.852  12.145
97563W        W62724  35.585  39.826  14.449
97564W        W62725  31.877  37.324  14.526
97565W        W62726  33.707  44.375   0.754
97566W        W62727  36.838  16.655  12.157
97567W        W62728  29.545   0.540  14.464
97568W        W62729  12.094  13.781   3.502
97569W        W62730  21.637  26.002   3.458
97570W        W62731  34.453  25.566  12.379
97571W        W62732   4.922  11.823   2.769
97572W        W62733  18.608   8.317   1.292
97573W        W62734  20.622  44.627  10.646
97574W        W62735   3.027  30.483   4.487
97575W        W62736  28.624   7.415   0.670
97576W        W62737  13.340  11.298  11.974
97577W        W62738  10.251  11.329  10.583
97578W        W62739  34.869  37.073  14.405
97579W        W62740  38.467   6.078   2.113
97580W        W62741  24.916   4.747  14.794
97581W        W62742   3.648   7.194   4.539
97582W        W62743  41.858  10.362  12.092
97583W        W62744   8.466   9.310   0.377
97584W        W62745  41.004  36.283  13.690
97585W        W62746  43.746  11.022   2.844
97586W        W62747  32.192  23.166   1.693
97587W        W62748  37.865   4.374   4.161
97588W        W62749  40.728  26.088   1.740
97589W        W62750  37.448   2.941  14.928
97590W        W62751  32.618  11.677  13.431
97591W        W62752   7.058  27.078   2.285
97592W        W62753   5.932  36.145  10.832
97593W        W62754  11.463  10.927  14.927
97594W        W62755  41.288  14.787   3.688
97595W        W62756   0.452   3.037   3.286
97596W        W62757   4.359   2.588   1.911
97597W        W62758  10.218  26.984   3.053
97598W        W62759  19.951  40.058  13.478
97599W        W62760   0.904  19.784  11.187
97600W        W62761  17.614  22.688   0.897
97601W        W62762  27.638   5.559  14.676
97602W        W62763  29.321   5.758  14.574
97603W        W62764  19.223   0.972   0.097
97604W        W62765  30.865  34.757  12.075
97605W        W62766  30.913  26.957   2.362
97606W        W62767  44.288   8.763   4.475
97607W        W62768  16.246   7.304   2.269
97608W        W62769  25.961  11.438  12.054
97609W        W62770  37.050  16.291  11.569
97610W        W62771  23.173  11.696   0.860
97611W        W62772  23.520   9.845   0.954
97612W        W62773  31.993  18.243   3.680
97613W        W62774   0.839  20.304  11.169
97614W        W62775  12.280  13.378   2.186
97615W        W62776   2.989  16.151   4.026
97616W        W62777  23.492  30.127   3.466
97617W        W62778  28.395   5.644   1.785
97618W        W62779  17.157   0.203   0.359
97619W        W62780  13.015  19.489  14.395
97620W        W62781  27.189   5.385  11.869
97621W        W62782  18.037  38.864  10.606
97622W        W62783  42.977  26.221  12.036
97623W        W62784  12.094   4.152  12.522
97624W        W62785  31.584  33.219  13.348
97625W        W62786  36.915  38.381   3.253
97626W        W62787  36.033  26.491   3.256
97627W        W62788  19.053  30.776   3.852
97628W        W62789  39.943  32.032   4.149
97629W        W62790  14.984  25.347   9.748
97630W        W62791  36.149  35.099  13.838
97631W        W62792   7.251  36.302  13.057
97632W        W62793  44.970   0.369  14.995
97633W        W62794  26.523  34.065   4.611
97634W        W62795  19.328  18.527  14.982
97635W        W62796  10.022  40.279  10.113
97636W        W62797  37.792  38.949  13.910
97637W        W62798  12.723  19.251  14.852
97638W        W62799   2.497  42.827   0.941
97639W        W62800  35.022  38.813  13.490
97640W        W62801   2.753  17.143   2.732
97641W        W62802  36.927   7.750  11.714
97642W        W62803  28.252  35.427  14.271
97643W        W62804   6.935   7.857  11.535
97644W        W62805  37.484   5.790  11.479
97645W        W62806  41.359  14.863  12.026
97646W        W62807  36.783  18.692  13.636
97647W        W62808   9.743  24.686  10.927
97648W        W62809  40.366   3.628  14.531
97649W        W62810  38.906  30.648  13.872
97650W        W62811  34.494   1.396  11.111
97651W        W62812  16.595  18.127   2.915
97652W        W62813  38.329  33.882  11.254
97653W        W62814  38.675  13.898   0.815
97654W        W62815  14.588   8.557   3.354
97655W        W62816  43.741  21.352  14.887
97656W        W62817  40.872  39.550   1.262
97657W        W62818  31.601  40.934   2.377
97658W        W62819  18.346  31.928   0.727
97659W        W62820  25.868   7.530   1.160
97660W        W62821  13.028  31.680  13.309
97661W        W62822  40.364  18.657  14.389
97662W        W62823  42.727   7.067  13.794
97663W        W62824  36.684  39.037  11.140
97664W        W62825  28.652   9.077   4.439
97665W        W62826  42.058   5.244  10.655
97666W        W62827  27.726   0.971   4.058
97667W        W62828  43.597   8.487   0.762
97668W        W62829  11.245  15.651  11.510
97669W        W62830  22.036  34.821  12.516
97670W        W62831  29.517  38.667  10.068
97671W        W62832  13.061   7.435   1.860
97672W        W62833  40.361  33.125  14.745
97673W        W62834  18.010   8.145  11.917
97674W        W62835  38.268  19.231  11.666
97675W        W62836  34.601  33.930  11.131
97676W        W62837  36.433  21.715   4.073
97677W        W62838   0.148  29.508   0.873
97678W        W62839  44.511  38.319   4.573
97679W        W62840  11.230   0.967  11.234
97680W        W62841  39.397   8.951   2.437
97681W        W62842  12.275  39.076  11.542
97682W        W62843   6.214  27.149   0.614
97683W        W62844  23.837  40.329  12.156
97684W        W62845  39.712  29.828   1.398
97685W        W62846  44.720  18.100  11.561
97686W        W62847  16.663  19.015   1.257
97687W        W62848  16.362  20.577   0.433
97688W        W62849  19.284  22.991  11.063
97689W        W62850  19.790  42.721  10.905
97690W        W62851  32.646  20.191   1.388
97691W        W62852  28.255   2.191   4.110
97692W        W62853  20.108   0.440  14.790
97693W        W62854  28.612  42.445  12.981
97694W        W62855  42.268  31.095   2.834
97695W        W62856  10.139  33.436  10.678
97696W        W62857  31.556  40.283   4.228
97697W        W62858   5.388  35.255  13.385
97698W        W62859  32.570  33.578  14.906
97699W        W62860  25.290  28.680   2.138
97700W        W62861   5.408   6.481   1.392
97701W        W62862  42.494  35.877   1.725
97702W        W62863  26.122  32.017   0.723
97703W        W62864   6.397  37.328   3.705
97704W        W62865  11.615  42.590   1.229
97705W        W62866  41.968   2.879   4.833
97706W        W62867  15.132  34.362   2.746
97707W        W62868  40.537  31.400   2.742
97708W        W62869  18.780   8.611   1.979
97709W        W62870  21.262   9.058   1.177
97710W        W62871  11.747  31.527  12.942
97711W        W62872  42.721  22.708   0.447
97712W        W62873  35.620  43.277   3.150
97713W        W62874  26.463  32.596  14.883
97714W        W62875  19.760  17.130  11.618
97715W        W62876  25.130   4.271   4.181
97716W        W62877  19.490  15.355  11.152
97717W        W62878  21.966   5.113  13.936
97718W        W62879   1.619  20.620  12.160
97719W        W62880  21.029  24.631  12.057
97720W        W62881   4.110   7.763  10.767
97721W        W62882   7.578  14.808  13.968
97722W        W62883  11.169  41.282   1.743
97723W        W62884  18.232  23.056  11.093
97724W        W62885  31.333  30.964  13.992
97725W        W62886  15.631  42.861   1.447
97726W        W62887   8.939  41.828  12.970
97727W        W62888  41.038  13.191  11.652
97728W        W62889  40.339  44.409  11.270
97729W        W62890  20.423  22.099   2.319
97730W        W62891  14.233  11.226  12.486
97731W        W62892  35.555   4.357   3.403
97732W        W62893  34.123   7.428   1.819
97733W        W62894  10.251  36.160  13.523
97734W        W62895  43.762  21.053   4.963
97735W        W62896  21.291  36.463  11.577
97736W        W62897  44.424  12.247  10.363
97737W        W62898  15.094  15.568   2.971
97738W        W62899  36.625  14.587   1.459
97739W        W62900   8.696   5.983   0.417
97740W        W62901  32.037  10.867  13.890
97741W        W62902   4.312  41.919   1.172
97742W        W62903  39.364   2.429   3.600
97743W        W62904   0.336  41.482  13.976
97744W        W62905   5.923  22.281  12.547
97745W        W62906  20.613  24.199   2.834
97746W        W62907   0.630   7.994  12.909
97747W        W62908  42.076  27.052  12.022
97748W        W62909  14.345  37.739   5.017
97749W        W62910   8.961  10.569  11.961
97750W        W62911  15.353  13.899   4.175
97751W        W62912  10.780  10.497  10.239
97752W        W62913  38.970  37.340  11.468
97753W        W62914  11.190  30.509   4.148
97754W        W62915  17.298  44.962  14.412
97755W        W62916  20.370  17.012  14.823
97756W        W62917  31.043  37.999   4.619
97757W        W62918  32.445  36.708   4.291
97758W        W62919  15.133  14.354  10.394
97759W        W62920  22.644  42.241  14.808
97760W        W62921   0.235  35.477   3.944
97761W        W62922  41.001  11.068  12.576
97762W        W62923  16.681  32.858  14.786
97763W        W62924   1.554  17.290   4.069
97764W        W62925   7.263   8.164   1.801
97765W        W62926  31.995  13.629   5.058
97766W        W62927   5.030  19.727  10.637
97767W        W62928  29.940  18.266   1.432
97768W        W62929  12.727  39.782   1.325
97769W        W62930  15.191  35.662  12.541
97770W        W62931  36.282  21.207   3.347
97771W        W62932  39.451  42.837   4.520
97772W        W62933   7.020  24.443   3.130
97773W        W62934  40.091   2.828   1.876
97774W        W62935   4.964  28.502   0.364
97775W        W62936  22.488   1.965   3.779
97776W        W62937   9.780  37.507   1.187
97777W        W62938  20.125  14.606   1.802
97778W        W62939  28.436  44.959   4.560
97779W        W62940  20.153  29.693  12.588
97780W        W62941  31.480   3.582   2.090
97781W        W62942  17.888  44.527   5.020
97782W        W62943  23.441   0.566  10.687
97783W        W62944  42.043   7.256   3.420
97784W        W62945   0.959  32.630  10.728
97785W        W62946   4.555   1.348  14.962
97786W        W62947  21.569  27.283  13.851
97787W        W62948  32.113  40.319  14.955
97788W        W62949  15.603  39.945   0.773
97789W        W62950   6.245   3.771  10.068
97790W        W62951  41.429   2.191   3.590
97791W        W62952  44.741   3.371  14.120
97792W        W62953  36.916  27.120  14.539
97793W        W62954   4.511   8.918  12.948
97794W        W62955   8.121  30.003  11.517
97795W        W62956   1.256  44.527   4.298
97796W        W62957  44.490  37.364  12.903
97797W        W62958   4.019   7.813   0.534
97798W        W62959  22.952  12.775  10.481
97799W        W62960  16.617  26.041  11.562
97800W        W62961  36.325   1.795  10.573
97801W        W62962  17.153  10.415   0.338
97802W        W62963  33.474  23.030  11.127
97803W        W62964  26.591  17.538  12.443
97804W        W62965  27.164  31.181   0.682
97805W        W62966  14.162  44.485  11.543
97806W        W62967  12.184  18.494  12.599
97807W        W62968  23.306  18.808  12.473
97808W        W62969   7.641  32.615  12.931
97809W        W62970  44.638  40.687  14.299
97810W        W62971   9.982  23.100   2.141
97811W        W62972  39.861  41.258   0.726
97812W        W62973  22.893  37.045   5.493
97813W        W62974  15.801  26.320   3.060
97814W        W62975   5.704   7.326   1.562
97815W        W62976   0.452  40.869  11.330
97816W        W62977   6.720  24.007  14.022
97817W        W62978  34.069   8.131  11.540
97818W        W62979  16.334  28.007   1.841
97819W        W62980  41.546  31.132  11.462
97820W        W62981   4.249  44.879  10.956
97821W        W62982  15.584  34.557  12.001
97822W        W62983  37.337  15.475   4.609
97823W        W62984  40.175  37.905   2.010
97824W        W62985  41.190  19.278   1.049
97825W        W62986  38.387   8.896  11.219
97826W        W62987  12.840   3.666  11.310
97827W        W62988  38.061  29.934   4.331
97828W        W62989  43.055  24.234   4.770
97829W        W62990  26.579  17.266  11.984
97830W        W62991  17.605  38.443  12.434
97831W        W62992  20.296  15.211  14.457
97832W        W62993  27.764  32.144   4.203
97833W        W62994   5.752  19.458   0.333
97834W        W62995  39.667  17.296  14.010
97835W        W62996  21.242  30.235   2.520
97836W        W62997  39.427  39.922   1.163
97837W        W62998  23.949  26.548  13.629
97838W        W62999   4.468   5.515  14.596
97839W        W63000  40.141  37.516   2.775
97840W        W63001  43.693  18.678   1.183
97841W        W63002  16.052  27.605   2.606
97842W        W63003  44.867  27.892  13.977
97843W        W63004  18.569  15.267   0.964
97844W        W63005  11.326  36.495  10.859
97845W        W63006  39.429  42.745   1.836
97846W        W63007  18.757  44.711  14.752
97847W        W63008  34.536  32.337  14.311
97848W        W63009  23.374  10.324  11.190
97849W        W63010  21.940  25.140   3.993
97850W        W63011  12.293  28.737  14.919
97851W        W63012   9.616  27.612  11.595
97852W        W63013  44.477  20.572  11.714
97853W        W63014  26.051  42.331  11.084
97854W        W63015   6.248   7.224   0.283
97855W        W63016  22.494  26.008   3.159
97856W        W63017  29.476  43.740   0.940
97857W        W63018  36.546   4.011   3.954
97858W        W63019  24.086  30.740   1.487
97859W        W63020  28.923  23.401   2.620
97860W        W63021   0.797   3.856   1.709
97861W        W63022  34.268  14.350  10.676
97862W        W63023  12.294  10.654  10.610
97863W        W63024  13.983  30.536   0.463
97864W        W63025  27.426  16.229   0.808
97865W        W63026  42.305  13.721   2.683
97866W        W63027   5.345  12.646  13.729
97867W        W63028  24.171   4.952   4.845
97868W        W63029  41.914   2.386  11.134
97869W        W63030  32.119  24.388   4.838
97870W        W63031  32.561  22.029  14.556
97871W        W63032  41.329  34.929  13.023
97872W        W63033  29.184  25.660   0.638
97873W        W63034   3.707  41.484   2.366
97874W        W63035  18.300   3.092  11.945
97875W        W63036  41.355  31.708   3.356
97876W        W63037  14.308  26.733  11.127
97877W        W63038   9.109  17.354   2.787
97878W        W63039  37.418  20.474   0.651
97879W        W63040  22.720   8.931  12.251
97880W        W63041  38.003   6.168   3.531
97881W        W63042  21.520  26.374  13.053
97882W        W63043  42.836  23.623  14.716
97883W        W63044  39.588   3.861   4.718
97884W        W63045  29.381  25.530  11.474
97885W        W63046  38.807  18.280  12.063
97886W        W63047  20.003  20.723   4.272
97887W        W63048  36.649  33.050   0.867
97888W        W63049  35.928  23.950  13.328
97889W        W63050  29.621  10.346   9.761
97890W        W63051  38.806  40.521   1.791
97891W        W63052   1.015  44.886  13.667
97892W        W63053  24.994  36.444  14.899
97893W        W63054  22.145   1.899  11.391
97894W        W63055  33.837   4.537  11.510
97895W        W63056  16.797   0.844  14.694
97896W        W63057  33.499  27.501   4.080
97897W        W63058  23.887   5.282  12.004
97898W        W63059  27.282  39.514   0.628
97899W        W63060   0.117  44.281   2.819
97900W        W63061   5.572  39.569  11.220
97901W        W63062  43.507  15.324   1.388
97902W        W63063  36.758  14.057  12.356
97903W        W63064  32.516  28.024   3.410
97904W        W63065  37.898   0.305   1.302
97905W        W63066   1.160  25.409  13.395
97906W        W63067  20.353  36.304   1.659
97907W        W63068  37.281  27.455  13.843
97908W        W63069  20.359  24.940   1.439
97909W        W63070  26.063  40.700   1.403
97910W        W63071  39.457  12.157  11.607
97911W        W63072  34.065  10.766   4.082
97912W        W63073  32.957  10.106  11.048
97913W        W63074  23.976  23.588   3.482
97914W        W63075  44.799  18.825   2.300
97915W        W63076   5.160  39.323   4.696
97916W        W63077  31.824  11.165   0.962
97917W        W63078  25.096   3.771   4.058
97918W        W63079  10.332  43.783  10.570
97919W        W63080  17.669  35.044   2.347
97920W        W63081   5.225  40.652   0.941
97921W        W63082   0.410   5.932   3.670
97922W        W63083  33.881  21.755  13.322
97923W        W63084  35.367  39.601   2.347
97924W        W63085  28.783  44.325   1.489
97925W        W63086  13.710   4.695  12.627
97926W        W63087   7.181  23.566  10.825
97927W        W63088  37.573  33.058  14.358
97928W        W63089  44.803  30.513  11.160
97929W        W63090  14.621  18.230   1.009
97930W        W63091   6.452  41.859   3.527
97931W        W63092  30.087  19.610  13.550
97932W        W63093  17.155  36.967  11.928
97933W        W63094   1.465   9.770   3.986
97934W        W63095  10.674  16.328  14.545
97935W        W63096  24.570  35.332   4.098
97936W        W63097  21.176  32.313  10.556
97937W        W63098  15.113   7.109   2.736
97938W        W63099   9.194  40.066   1.488
97939W        W63100   1.472  24.133  10.878
97940W        W63101  19.150   9.780  10.760
97941W        W63102  28.463  29.802  14.848
97942W        W63103  12.142  27.543  11.679
97943W        W63104  41.363   7.870   3.045
97944W        W63105  16.743   1.431   4.084
97945W        W63106   4.329  10.167   4.363
97946W        W63107   2.832  10.206   3.717
97947W        W63108  20.699  35.414   0.763
97948W        W63109  22.412  16.218   2.748
97949W        W63110  21.404   0.921  11.655
97950W        W63111  18.697  20.667   4.688
97951W        W63112  13.774   3.441   1.382
97952W        W63113  42.688  43.944   0.911
97953W        W63114   4.744   4.247  10.644
97954W        W63115  23.712  42.351   3.656
97955W        W63116   3.237  39.150   3.109
97956W        W63117  20.107  40.170   0.043
97957W        W63118  35.995  25.953  10.445
97958W        W63119  31.125  10.823  13.918
97959W        W63120  21.135  29.908   1.002
97960W        W63121  43.919  29.498   2.593
97961W        W63122  41.120  15.869  13.622
97962W        W63123  39.146  18.047  11.697
97963W        W63124   9.892  44.075   4.129
97964W        W63125  10.020   3.636   1.304
97965W        W63126  44.464   4.031  12.547
97966W        W63127   1.532   0.303   0.890
97967W        W63128  31.936  29.928   0.870
97968W        W63129  37.787   8.032  11.055
97969W        W63130  28.380  12.692  11.637
97970W        W63131  32.866  24.454  10.251
97971W        W63132  37.558  26.850  14.353
97972W        W63133   5.237  38.916   4.102
97973W        W63134   7.335  31.140  12.067
97974W        W63135  40.550  35.785  14.281
97975W        W63136   3.021  19.482   0.927
97976W        W63137   1.670  16.577  12.536
97977W        W63138   4.983  28.018   2.828
97978W        W63139  13.251  32.976   1.663
97979W        W63140   4.768  39.041  11.947
97980W        W63141   0.298   4.717   1.644
97981W        W63142  37.584  36.556   4.153
97982W        W63143  33.686   5.081   3.799
97983W        W63144  28.117  24.900   2.807
97984W        W63145  33.156  20.541   1.808
97985W        W63146  43.130  18.628   2.284
97986W        W63147  20.259   1.325  12.257
97987W        W63148  23.753  17.533  14.683
97988W        W63149  33.704  10.884   4.469
97989W        W63150  14.781  28.938  12.384
97990W        W63151  13.386   5.375   2.546
97991W        W63152  15.236  35.311   1.936
97992W        W63153   6.812  31.337   3.236
97993W        W63154  19.620  43.667   1.446
97994W        W63155   4.173  12.226  14.067
97995W        W63156  27.206  17.276   1.891
97996W        W63157  33.460  35.512  14.342
97997W        W63158  14.227  42.226  11.574
97998W        W63159  36.147   8.669  14.480
97999W        W63160  18.066  34.694   3.742
98000W        W63161  15.737  11.011   9.892
98001W        W63162  43.064  13.367   4.591
98002W        W63163  27.680  12.752   2.116
98003W        W63164  33.920  16.025   0.294
98004W        W63165  22.102  31.922  11.099
98005W        W63166  24.710   2.902  11.425
98006W        W63167  31.553  14.393   0.608
98007W        W63168  38.956  25.694   1.036
98008W        W63169   4.886  41.699   4.531
98009W        W63170  28.373  11.410   3.094
98010W        W63171  23.973   2.900  10.657
98011W        W63172  21.012  26.374  13.001
98012W        W63173  25.475  10.714   1.260
98013W        W63174  13.308  24.631   0.297
98014W        W63175  29.446  28.191  12.497
98015W        W63176  41.186  40.922   4.748
98016W        W63177  32.569  20.370  12.063
98017W        W63178   5.861  35.618   0.462
98018W        W63179  41.600  21.652   2.630
98019W        W63180   1.779  41.540  11.075
98020W        W63181  26.973   5.051  13.695
98021W        W63182  16.644  37.977  14.400
98022W        W63183  36.987  31.812  11.918
98023W        W63184  41.792   5.531  11.586
98024W        W63185  40.104  12.050  11.190
98025W        W63186  42.377  43.324  12.928
98026W        W63187  14.177  40.397   1.836
98027W        W63188  34.048  23.724   5.130
98028W        W63189   0.853  15.537  14.691
98029W        W63190  40.397   1.364   2.289
98030W        W63191   9.235  34.091   3.701
98031W        W63192   1.645   6.662  11.509
98032W        W63193   5.175  42.929   1.868
98033W        W63194  17.229  33.608   1.187
98034W        W63195  17.451  40.652  14.219
98035W        W63196  28.972  37.639   9.912
98036W        W63197  39.665  39.455  14.998
98037W        W63198  41.028  36.163   0.558
98038W        W63199  19.491  12.190   0.931
98039W        W63200   5.657  33.331   4.096
98040W        W63201  12.773  20.214  12.616
98041W        W63202  16.663   9.744   4.622
98042W        W63203  39.269  16.172  12.851
98043W        W63204   2.046  39.540  13.765
98044W        W63205  37.406  13.386   2.333
98045W        W63206  24.218  35.523  12.939
98046W        W63207  19.123  37.868   4.559
98047W        W63208  27.117  44.959  12.018
98048W        W63209  23.337  21.118  13.916
98049W        W63210   3.411  24.858  10.681
98050W        W63211  29.648  31.921   2.324
98051W        W63212  40.087  36.371  11.252
98052W        W63213  41.090   4.968  11.538
98053W        W63214  35.869  15.596   3.689
98054W        W63215   8.634  32.110   1.167
98055W        W63216  22.067  12.554   1.907
98056W        W63217   4.083   5.272  11.207
98057W        W63218   0.496   8.203   1.316
98058W        W63219  14.628  11.450   1.192
98059W        W63220  42.591  14.695  14.437
98060W        W63221   9.420   7.916  13.979
98061W        W63222  24.137  32.888  11.447
98062W        W63223  25.587  37.343  12.493
98063W        W63224  16.362  24.539   1.216
98064W        W63225  17.192  44.775   1.951
98065W        W63226   9.450  43.431   2.912
98066W        W63227  30.895   8.901  13.523
98067W        W63228  10.960   4.584   3.797
98068W        W63229  20.295  31.122   4.050
98069W        W63230  43.526  30.651  14.239
98070W        W63231  16.634  26.060   4.546
98071W        W63232  31.126  43.520   4.067
98072W        W63233  38.302  31.855  14.539
98073W        W63234  19.020   2.837   0.985
98074W        W63235  12.511  34.812   1.433
98075W        W63236  15.621  10.932   3.660
98076W        W63237  19.733   9.645  14.486
98077W        W63238  22.754   2.409   1.473
98078W        W63239  15.063   5.100  10.947
98079W        W63240  24.123  32.555   0.970
98080W        W63241  13.131  21.286   2.692
98081W        W63242  39.544  36.097  14.542
98082W        W63243   3.858  16.449  14.019
98083W        W63244   4.802  34.596  11.998
98084W        W63245  31.194  32.356  11.133
98085W        W63246  21.290   3.906   1.702
98086W        W63247   8.117  38.784  13.718
98087W        W63248  16.492  44.787   2.829
98088W        W63249  42.061   9.305  14.072
98089W        W63250  33.601  29.520  13.009
98090W        W63251   1.078  16.612   1.461
98091W        W63252  36.009  11.425  13.463
98092W        W63253  27.157   9.818   2.859
98093W        W63254  16.053  34.538  13.346
98094W        W63255  40.269  28.581   4.337
98095W        W63256  28.716   0.896   3.628
98096W        W63257   3.161  26.598  13.521
98097W        W63258  35.915  15.762  12.023
98098W        W63259  41.229  17.749   0.933
98099W        W63260  33.256  36.413  10.015
98100W        W63261   4.860  36.337  14.995
98101W        W63262  14.520  38.296   1.041
98102W        W63263  38.167   9.843   1.166
98103W        W63264  40.597  26.053  14.411
98104W        W63265   3.682  22.120   4.469
98105W        W63266  15.791  17.717   4.987
98106W        W63267  42.568  18.888   1.827
98107W        W63268   4.115  23.289   5.739
98108W        W63269  14.736  29.240  11.832
98109W        W63270  20.295  42.196  12.023
98110W        W63271  17.569   2.786  14.937
98111W        W63272  27.718  21.287  14.812
98112W        W63273  41.373   9.099  11.133
98113W        W63274  14.696  25.436  10.936
98114W        W63275  11.693   2.428   4.643
98115W        W63276  20.393  32.424  14.778
98116W        W63277  10.610  11.448   3.644
98117W        W63278  10.685  44.431   4.379
98118W        W63279  18.094  12.181   2.930
98119W        W63280   4.162  15.684   1.437
98120W        W63281   4.168   7.143   4.551
98121W        W63282  35.358  11.234   2.598
98122W        W63283  27.736  12.750   3.744
98123W        W63284  18.551  36.920  11.509
98124W        W63285  28.872  19.844  14.115
98125W        W63286  34.065  44.090  13.977
98126W        W63287   5.806  11.095   1.656
98127W        W63288  32.484  34.982   0.765
98128W        W63289  38.466   5.284  11.470
98129W        W63290   1.351  33.057  14.796
98130W        W63291  21.303   8.174  13.995
98131W        W63292  15.012  21.005   3.158
98132W        W63293  31.514  43.013   1.306
98133W        W63294  21.848  28.641  10.676
98134W        W63295   2.817  39.825   1.340
98135W        W63296  10.444   7.254  13.204
98136W        W63297  13.445  27.877   3.559
98137W        W63298  13.782  29.711   4.210
98138W        W63299   1.761  12.350   4.052
98139W        W63300  36.960  18.483   4.697
98140W        W63301  23.602   6.305  12.458
98141W        W63302  14.461  28.024   2.059
98142W        W63303  24.172  12.065  14.018
98143W        W63304  22.669   3.930  12.195
98144W        W63305  20.110  30.138   0.802
98145W        W63306  38.329  19.203  12.642
98146W        W63307  21.667  32.151  11.238
98147W        W63308  44.471  29.669  14.220
98148W        W63309  38.361  29.222  11.134
98149W        W63310  42.536  38.091   0.188
98150W        W63311   6.349  30.100   4.555
98151W        W63312   6.266   7.684   4.540
98152W        W63313   0.996  13.185   1.222
98153W        W63314   0.245  21.654  13.011
98154W        W63315  22.562  31.861   1.253
98155W        W63316  35.087  36.327  13.352
98156W        W63317  23.660  12.759   1.253
98157W        W63318  35.942  29.411  10.377
98158W        W63319  16.888  40.418  10.304
98159W        W63320  16.583  44.352  10.280
98160W        W63321  23.109   2.103   0.151
98161W        W63322   1.646  27.902  13.859
98162W        W63323  32.026  34.323   4.211
98163W        W63324  13.265  17.050  13.875
98164W        W63325   7.053  25.936   1.345
98165W        W63326  43.889  37.378  11.652
98166W        W63327  20.140  23.530  12.464
98167W        W63328  43.986  43.278   0.278
98168W        W63329  14.529   3.245   1.429
98169W        W63330   2.248  15.317  13.847
98170W        W63331  35.924  25.118  12.043
98171W        W63332  26.340  27.642   0.519
98172W        W63333  29.887  18.682  14.180
98173W        W63334   5.179   6.050   3.306
98174W        W63335  32.418  23.538  14.902
98175W        W63336  14.074  21.381   1.867
98176W        W63337  14.625   8.687  10.392
98177W        W63338  30.780  32.239  14.311
98178W        W63339  17.157  16.200   4.047
98179W        W63340  34.824  43.024  13.308
98180W        W63341  33.028   4.453   1.503
98181W        W63342  33.773  20.066  12.765
98182W        W63343  42.451  44.698  11.167
98183W        W63344  19.616   2.239   3.137
98184W        W63345  17.074  10.277   4.042
98185W        W63346  15.598  12.209   4.522
98186W        W63347  14.504  30.455  12.219
98187W        W63348   3.800  42.921  11.892
98188W        W63349  32.379  22.714   0.085
98189W        W63350   7.686  10.443  12.115
98190W        W63351  23.444  23.870  13.838
98191W        W63352   3.267   4.546  14.305
98192W        W63353  17.499  25.121  11.309
98193W        W63354   3.165  22.496  12.900
98194W        W63355  19.858  26.421   3.145
98195W        W63356  36.735  43.297   1.800
98196W        W63357  26.187  11.191   0.188
98197W        W63358  35.919   3.678   4.869
98198W        W63359  16.446  26.346  13.084
98199W        W63360  11.708  17.671   3.131
98200W        W63361  12.345   3.697  12.525
98201W        W63362   8.882  43.465   0.947
98202W        W63363  11.722  37.641   3.289
98203W        W63364  27.949  24.619   0.020
98204W        W63365  12.668  32.536  12.598
98205W        W63366   2.991  28.522   3.668
98206W        W63367  16.351  18.698   2.390
98207W        W63368   0.463  35.195  10.283
98208W        W63369  38.603   1.381  12.837
98209W        W63370  21.012  31.842  14.501
98210W        W63371  38.009   9.226  11.188
98211W        W63372  30.441   0.039  13.805
98212W        W63373  15.111  13.610   0.908
98213W        W63374  29.481   9.426   2.375
98214W        W63375   6.202  18.468  10.888
98215W        W63376  25.830   0.802   2.899
98216W        W63377  28.618   7.926  12.010
98217W        W63378  23.515  36.608   1.325
98218W        W63379  39.783  10.298  10.622
98219W        W63380   5.802   1.732  10.756
98220W        W63381   4.221  28.972  14.430
98221W        W63382  22.649   9.589   2.785
98222W        W63383  16.863  12.002  14.605
98223W        W63384  30.360   6.275   2.808
98224W        W63385   4.970  13.208  10.674
98225W        W63386  30.628   1.280   1.543
98226W        W63387  30.211   3.232  11.271
98227W        W63388   3.008  32.191  11.236
98228W        W63389  10.141  28.926  11.577
98229W        W63390   3.052  29.895   0.619
98230W        W63391  41.558  23.183  13.767
98231W        W63392  10.730  26.160   2.182
98232W        W63393  17.302  21.455  12.360
98233W        W63394   1.800   3.780  10.698
98234W        W63395  42.476   6.215   1.359
98235W        W63396  35.220  14.923   3.851
98236W        W63397   9.183   7.389  14.957
98237W        W63398  13.736   6.146  11.110
98238W        W63399  39.526  20.961   3.671
98239W        W63400  30.577  29.981   4.737
98240W        W63401  17.246  21.802  13.305
98241W        W63402  37.290   0.775  13.155
98242W        W63403  30.690  13.198   0.888
98243W        W63404  41.297  26.460   3.897
98244W        W63405  25.770   4.124   1.765
98245W        W63406  26.353  21.265  11.131
98246W        W63407  17.658  15.591   2.393
98247W        W63408  36.182  33.610   1.379
98248W        W63409  33.882  37.785   5.034
98249W        W63410   1.873  22.939   1.698
98250W        W63411  24.218  41.030  14.359
98251W        W63412   2.231  26.601   0.012
98252W        W63413  33.388  11.687  14.494
98253W        W63414  41.250  18.645  14.030
98254W        W63415   2.869   3.244   0.257
98255W        W63416  13.476  38.283   4.010
98256W        W63417  16.377   4.179   2.868
98257W        W63418  16.289  10.613  13.328
98258W        W63419   9.034  32.524   0.880
98259W        W63420  33.493  41.772  13.999
98260W        W63421  34.331  11.262   2.651
98261W        W63422   0.996  11.169   1.367
98262W        W63423  12.068  25.619  12.780
98263W        W63424  37.110  20.725   3.313
98264W        W63425   7.904  24.489  14.965
98265W        W63426  29.123  44.538   1.125
98266W        W63427  10.933  32.335   2.261
98267W        W63428   9.239  33.445   1.275
98268W        W63429   4.278   6.345  13.063
98269W        W63430  37.875  28.159  11.278
98270W        W63431  43.788  12.227   3.746
98271W        W63432  18.787  44.939  11.594
98272W        W63433  36.877  43.467  13.920
98273W        W63434  17.173   7.701   0.982
98274W        W63435  17.063  39.019  11.650
98275W        W63436  24.133  35.514  13.490
98276W        W63437   3.448  20.902  10.154
98277W        W63438  14.509  13.769  12.600
98278W        W63439  26.503  21.008   2.250
98279W        W63440  21.312  32.440   2.686
98280W        W63441  39.909  31.689  13.325
98281W        W63442  20.352   0.986  13.475
98282W        W63443  21.275  16.807   5.263
98283W        W63444  35.472  23.466  14.719
98284W        W63445  40.129  34.049   0.247
98285W        W63446   4.739  41.040  14.299
98286W        W63447   6.827  16.728  13.083
98287W        W63448  34.587  25.051   1.599
98288W        W63449  11.676   3.242  10.437
98289W        W63450  43.943   4.161   0.854
98290W        W63451  25.939  19.841  14.966
98291W        W63452   7.695   8.412  14.881
98292W        W63453  34.626  15.324   1.358
98293W        W63454  20.046  29.027  13.787
98294W        W63455   4.854  28.267   3.810
98295W        W63456   1.971   6.657  13.435
98296W        W63457  33.448  39.888  12.708
98297W        W63458  43.697  31.389  11.187
98298W        W63459  11.781  17.077   4.532
98299W        W63460  27.485  31.590  14.948
98300W        W63461  33.540  16.362   0.339
98301W        W63462  25.209  32.025  10.420
98302W        W63463  29.573  12.382   1.331
98303W        W63464  23.446  33.043  11.126
98304W        W63465  23.622  19.669  11.213
98305W        W63466  44.837   9.677  11.910
98306W        W63467  11.322  17.710  11.945
98307W        W63468   5.220  28.194   4.169
98308W        W63469  16.527  37.011  11.420
98309W        W63470  44.186  43.774  12.377
98310W        W63471  10.607   4.153   4.596
98311W        W63472   3.699  21.308   0.930
98312W        W63473  20.638  39.191   2.375
98313W        W63474  17.054  14.751   1.403
98314W        W63475  34.819  43.357   2.940
98315W        W63476  31.190  11.842  10.557
98316W        W63477  38.227   3.488  14.011
98317W        W63478  40.551  39.872   1.506
98318W        W63479  19.685   3.227  12.509
98319W        W63480  29.850  28.622  10.457
98320W        W63481  39.836  14.871   4.706
98321W        W63482  42.968   3.568   4.949
98322W        W63483  34.132  21.177  10.621
98323W        W63484  15.659   8.909   9.770
98324W        W63485  31.033  34.206   3.028
98325W        W63486   1.327  38.053   3.750
98326W        W63487  41.392  12.956  10.439
98327W        W63488   4.434  20.640  14.706
98328W        W63489  44.281  28.991   4.484
98329W        W63490   0.270   5.382   2.417
98330W        W63491  42.278  43.815  13.834
98331W        W63492  22.821   3.014  13.921
98332W        W63493  19.185  32.444  13.351
98333W        W63494   0.898  36.598   3.081
98334W        W63495  37.037  37.802   5.003
98335W        W63496  35.534  12.548  10.717
98336W        W63497  23.509  17.324   3.924
98337W        W63498   8.451   6.754  11.891
98338W        W63499  28.085  23.463   4.108
98339W        W63500  29.612  15.596   5.211
98340W        W63501   5.330  10.935  13.022
98341W        W63502  21.851  27.247  11.611
98342W        W63503  31.301  33.376   4.622
98343W        W63504  36.544   0.850  14.520
98344W        W63505   4.204  12.716   2.770
98345W        W63506   9.848  28.651  12.357
98346W        W63507  37.426  26.656   0.532
98347W        W63508  10.612  42.451   1.505
98348W        W63509  18.854  44.838  12.349
98349W        W63510  30.079  25.417   1.121
98350W        W63511  31.974  16.960  10.906
98351W        W63512  42.809  11.344   4.522
98352W        W63513  44.070   2.994   3.343
98353W        W63514   0.221  15.323  11.659
98354W        W63515   5.267  38.842   2.615
98355W        W63516   5.682   4.382  14.368
98356W        W63517  44.301  18.320  13.364
98357W        W63518  24.945   1.872   1.130
98358W        W63519   3.721  34.918   3.139
98359W        W63520  29.303   6.962   3.196
98360W        W63521  10.901  42.173   3.596
98361W        W63522  29.300  11.244  13.327
98362W        W63523  24.456  20.301   1.749
98363W        W63524   1.884  34.129   2.456
98364W        W63525   4.955  27.259   0.790
98365W        W63526  21.668  12.552  12.799
98366W        W63527   2.947  40.281  12.785
98367W        W63528  41.112   6.238  11.991
98368W        W63529  33.563  13.045  12.269
98369W        W63530  37.310  32.437   1.224
98370W        W63531  16.728  40.510  10.796
98371W        W63532  27.256  22.778  10.284
98372W        W63533  31.205  43.446  11.715
98373W        W63534  40.238  39.930  13.911
98374W        W63535  44.465  25.987   1.336
98375W        W63536   5.785   0.749   3.156
98376W        W63537  14.169  18.554   3.270
98377W        W63538  12.594  31.415  13.344
98378W        W63539   4.531  38.399   3.582
98379W        W63540  35.582  29.779  13.282
98380W        W63541  42.661   2.466   5.090
98381W        W63542  16.490   4.406   2.383
98382W        W63543  39.492   4.828  12.482
98383W        W63544  13.590  19.515  14.396
98384W        W63545  19.097  31.086   3.446
98385W        W63546  28.384   3.290   1.200
98386W        W63547  29.654  26.743  13.898
98387W        W63548   8.283  31.981   5.005
98388W        W63549  19.743  39.666   5.015
98389W        W63550  42.570  26.154   3.662
98390W        W63551   8.386   8.702  12.597
98391W        W63552  21.152  18.188   3.403
98392W        W63553  28.189  22.814   3.490
98393W        W63554   1.402  18.821   1.993
98394W        W63555  10.870  26.799   1.537
98395W        W63556  36.220  11.744   1.214
98396W        W63557  35.439  20.924   5.030
98397W        W63558   4.007  33.020  11.146
98398W        W63559  39.295   8.063  14.399
98399W        W63560   0.804  14.843   3.368
98400W        W63561  36.501  17.746  13.537
98401W        W63562  15.826  44.418  11.174
98402W        W63563   6.378  14.337  11.527
98403W        W63564  16.608  17.027   2.341
98404W        W63565  29.388   4.745  11.916
98405W        W63566   3.054   5.309  12.295
98406W        W63567  11.398  15.731  14.809
98407W        W63568  20.665  12.123   4.214
98408W        W63569  10.694  35.894  12.850
98409W        W63570   3.976   1.875  13.427
98410W        W63571  39.369  42.608  12.356
98411W        W63572  13.135  30.089  11.615
98412W        W63573  13.251   4.659   2.419
98413W        W63574  26.973  19.651   2.805
98414W        W63575  36.503   6.213   3.778
98415W        W63576  16.530  28.395  11.487
98416W        W63577  21.304   7.817  13.057
98417W        W63578  13.778  25.618   2.877
98418W        W63579  13.925  27.665   5.026
98419W        W63580  41.932  37.910   2.197
98420W        W63581   8.136  10.368  14.047
98421W        W63582  42.892  21.817   1.755
98422W        W63583  40.319  17.615  12.529
98423W        W63584  35.999   7.150  13.857
98424W        W63585  31.374  11.381  10.785
98425W        W63586  36.088   8.918   4.266
98426W        W63587  33.265   8.735  10.813
98427W        W63588  20.154  40.303   2.593
98428W        W63589  11.112  28.142   4.450
98429W        W63590   5.245  16.511  11.267
98430W        W63591  41.359  26.466  14.788
98431W        W63592   3.374  31.502   4.553
98432W        W63593  32.005  23.656   1.717
98433W        W63594   2.320  25.900  10.720
98434W        W63595  24.792  43.384  10.634
98435W        W63596  43.041  31.868   0.404
98436W        W63597  16.491  28.722   2.415
98437W        W63598  13.777  22.299  14.401
98438W        W63599  25.102  38.435   2.862
98439W        W63600   4.433  30.187  14.890
98440W        W63601  26.229  20.718   4.888
98441W        W63602  17.567  21.685  10.766
98442W        W63603   4.805  12.039  13.150
98443W        W63604  29.716  28.921  14.430
98444W        W63605  23.135  10.330   3.593
98445W        W63606  10.124  44.017   2.805
98446W        W63607  18.702  42.410  11.630
98447W        W63608  12.558  31.090  13.733
98448W        W63609   5.670   0.759   0.535
98449W        W63610  22.949  16.048   2.763
98450W        W63611  19.807  36.158   2.320
98451W        W63612   4.435  43.381   0.019
98452W        W63613  32.407   3.431  11.521
98453W        W63614   2.768  18.302  13.143
98454W        W63615   7.950  16.356   3.760
98455W        W63616  37.900  11.384   2.636
98456W        W63617  30.487   9.705  14.182
98457W        W63618  35.126  43.252   0.879
98458W        W63619  21.546  27.943  10.670
98459W        W63620  20.203  29.693   1.743
98460W        W63621  34.129  36.401  12.394
98461W        W63622  44.204  37.495   0.943
98462W        W63623   0.333  39.362  11.516
98463W        W63624  29.955  11.499   0.339
98464W        W63625  32.584  19.084  12.417
98465W        W63626  44.235  30.065  14.435
98466W        W63627  24.205  41.997  14.437
98467W        W63628   8.084  24.531  11.120
98468W        W63629  10.571  26.627  10.759
98469W        W63630  14.531  22.033   2.736
98470W        W63631   1.502  20.836   3.230
98471W        W63632  37.359   9.180   1.309
98472W        W63633  11.345  34.407   4.161
98473W        W63634  24.181   5.664   2.775
98474W        W63635  35.203  32.441  10.683
98475W        W63636  30.178  35.164  11.329
98476W        W63637  18.032  14.685   3.155
98477W        W63638  43.333  14.326   2.454
98478W        W63639  17.579  15.186  12.468
98479W        W63640  26.851   8.272   1.657
98480W        W63641  34.392  40.842  12.480
98481W        W63642  38.306   1.712  12.568
98482W        W63643   1.416  43.025  13.940
98483W        W63644  11.304  35.891  11.645
98484W        W63645  10.753  24.699   1.323
98485W        W63646  40.949   2.975   0.791
98486W        W63647  26.661  39.427  12.058
98487W        W63648  18.367  43.378  14.880
98488W        W63649  29.304  23.279   2.258
98489W        W63650  18.823  29.121   4.492
98490W        W63651   7.716  22.053   2.546
98491W        W63652  18.250   1.668   1.253
98492W        W63653   7.198   6.335  14.906
98493W        W63654  28.441  36.568  10.625
98494W        W63655  37.190  40.468  11.995
98495W        W63656  44.312   1.677   3.731
98496W        W63657  40.995  18.270   2.740
98497W        W63658  15.125   9.827   3.158
98498W        W63659  11.621   3.910   2.776
98499W        W63660  42.311  36.495   3.063
98500W        W63661   0.889  40.543  12.411
98501W        W63662  17.290  15.588  13.971
98502W        W63663  15.206   3.761   1.571
98503W        W63664  20.027   6.364   4.043
98504W        W63665   9.417  12.747   0.264
98505W        W63666  21.182   1.706   0.598
98506W        W63667  37.190  43.342   3.559
98507W        W63668  24.740  43.352   3.852
98508W        W63669  10.664  40.819  11.990
98509W        W63670  19.085   8.951  10.639
98510W        W63671  25.638  21.414   3.666
98511W        W63672   2.286   2.662  12.152
98512W        W63673  20.671  36.573  12.403
98513W        W63674  27.462  37.026   2.326
98514W        W63675  32.092   8.723   1.349
98515W        W63676  39.702  11.188   2.495
98516W        W63677  17.102  25.365  11.054
98517W        W63678  44.660  19.746  11.391
98518W        W63679  39.219  44.804   3.311
98519W        W63680  16.704  13.688   2.811
98520W        W63681  37.719  42.400   4.743
98521W        W63682  31.023  37.943  13.514
98522W        W63683  29.159  12.143   1.729
98523W        W63684  35.165  44.962  13.369
98524W        W63685  41.957  16.802   0.938
98525W        W63686  22.620  38.127  11.629
98526W        W63687   6.260  14.358  12.345
98527W        W63688  15.214  19.254   1.188
98528W        W63689   4.433  36.889   2.172
98529W        W63690  21.678  24.058  11.159
98530W        W63691  29.608  41.053  13.846
98531W        W63692  44.441  44.383  13.676
98532W        W63693  32.572  29.166  14.360
98533W        W63694  12.751   1.768  14.324
98534W        W63695  32.945   1.903   1.201
98535W        W63696  39.311  16.790   1.494
98536W        W63697   0.337  20.731   2.869
98537W        W63698  28.540  25.563   2.330
98538W        W63699  39.905  39.895  11.023
98539W        W63700  39.704  42.311  11.056
98540W        W63701  21.792  31.471  14.551
98541W        W63702  27.949  13.529  14.824
98542W        W63703  13.596  16.331  13.414
98543W        W63704  11.790  24.137   0.879
98544W        W63705   5.877   0.939  13.614
98545W        W63706  20.605   4.983   0.393
98546W        W63707  37.806  40.348   9.940
98547W        W63708  12.703   3.121  10.722
98548W        W63709  24.685  21.290  10.997
98549W        W63710  13.365   6.299   1.274
98550W        W63711  12.090  13.387   3.080
98551W        W63712  40.572  30.954   0.833
98552W        W63713  44.381  33.159  12.371
98553W        W63714  12.938   3.392   2.713
98554W        W63715  27.383  17.228   4.336
98555W        W63716  37.968  17.935   0.201
98556W        W63717  21.502   9.862   0.878
98557W        W63718  33.461   0.396  12.005
98558W        W63719  20.799  18.674  11.569
98559W        W63720  27.548  19.574  11.504
98560W        W63721   9.487  11.894  11.165
98561W        W63722   9.548   7.940   0.959
98562W        W63723  16.957  15.140   3.577
98563W        W63724   9.222  11.610   2.838
98564W        W63725   6.290  20.799   2.195
98565W        W63726  33.825  30.913  14.832
98566W        W63727  22.564  33.829   4.062
98567W        W63728   3.161  44.075  12.857
98568W        W63729  42.290  35.351   1.739
98569W        W63730   9.715  25.520   4.551
98570W        W63731  40.682  20.736   4.194
98571W        W63732  27.946  19.014  12.888
98572W        W63733  30.661  25.710   2.820
98573W        W63734  12.631  12.852  12.931
98574W        W63735   2.067   0.486   4.885
98575W        W63736  39.400  43.048   3.499
98576W        W63737  33.698  30.451  14.560
98577W        W63738  30.138   9.907  11.959
98578W        W63739  27.425  34.050   2.158
98579W        W63740  29.157  17.324   3.989
98580W        W63741  43.487  11.696  10.742
98581W        W63742   7.943  16.839   3.616
98582W        W63743  19.683  41.891  13.912
98583W        W63744   7.719  22.736   9.896
98584W        W63745   5.940   9.127  10.678
98585W        W63746  39.336  44.024   3.643
98586W        W63747  14.267  30.103   1.929
98587W        W63748  35.883  36.158   2.391
98588W        W63749  40.234  42.586  14.936
98589W        W63750  37.553   3.806   1.502
98590W        W63751  43.420  28.870   2.647
98591W        W63752  38.796   4.503   2.848
98592W        W63753  28.932  40.924   3.885
98593W        W63754  29.650  18.970  14.898
98594W        W63755  25.714  43.854  13.771
98595W        W63756   5.426  32.076   0.062
98596W        W63757  30.589  22.911   4.710
98597W        W63758   3.469  35.001  10.808
98598W        W63759  18.907  37.502   1.679
98599W        W63760  40.730  17.268   1.764
98600W        W63761  39.035  38.960   1.325
98601W        W63762  24.244  28.327   2.660
98602W        W63763  15.602  10.869  13.495
98603W        W63764  23.745   2.333   3.162
98604W        W63765   1.241  36.683  14.267
98605W        W63766  41.017  32.025  12.589
98606W        W63767  41.889  24.670  13.868
98607W        W63768   9.728  11.495   4.116
98608W        W63769   5.942  22.552   1.204
98609W        W63770  21.753  12.228   2.146
98610W        W63771  12.225  12.625  11.924
98611W        W63772  35.058  28.183   2.299
98612W        W63773  38.077  43.893   4.681
98613W        W63774  17.784  24.391   2.360
98614W        W63775  19.249  10.104   0.880
98615W        W63776   8.261  37.326  12.756
98616W        W63777  43.298  26.583  11.881
98617W        W63778  21.109   9.810   2.117
98618W        W63779  33.242  31.888   1.497
98619W        W63780  13.652   7.562  11.856
98620W        W63781  37.405  43.719  14.739
98621W        W63782   7.414  18.596  14.393
98622W        W63783   1.013  10.724   3.726
98623W        W63784   3.841  14.169  10.639
98624W        W63785  44.949  20.541  12.578
98625W        W63786  36.585  29.633   2.232
98626W        W63787  18.900  40.034   9.786
98627W        W63788  39.464  36.869  13.037
98628W        W63789  32.688   3.333  12.356
98629W        W63790  31.455  27.690   4.172
98630W        W63791  41.687   6.617   1.757
98631W        W63792   4.949  31.955   0.267
98632W        W63793  41.391   4.763   5.082
98633W        W63794  15.832  24.564  12.192
98634W        W63795  19.767  34.983   4.112
98635W        W63796  25.185  37.675   0.434
98636W        W63797   3.078  12.330   0.303
98637W        W63798   4.484  24.445  14.438
98638W        W63799  14.906  18.785  10.991
98639W        W63800  29.548  27.138  14.186
98640W        W63801  40.094   9.755  10.693
98641W        W63802  16.697  10.920  13.390
98642W        W63803   5.787   9.662   1.074
98643W        W63804  22.605  23.684   0.417
98644W        W63805  25.437  11.888   3.710
98645W        W63806   2.430  14.563   4.124
98646W        W63807  42.302   5.994  13.505
98647W        W63808  11.879  24.416  14.588
98648W        W63809  29.879  15.399   0.213
98649W        W63810  13.657  32.670  11.163
98650W        W63811  15.135  19.783   1.164
98651W        W63812  41.406  32.492   4.861
98652W        W63813  33.343  10.894  11.511
98653W        W63814  44.022  23.318  10.732
98654W        W63815   5.740  22.656  11.105
98655W        W63816  21.336  21.984  11.644
98656W        W63817  15.487  24.488  13.070
98657W        W63818  19.605  12.396   2.666
98658W        W63819   5.807  42.923  10.868
98659W        W63820   7.138  37.032   4.466
98660W        W63821  33.047  27.515   4.371
98661W        W63822  23.913  32.639  13.859
98662W        W63823  33.767  33.552   0.776
98663W        W63824   1.680  19.120  14.460
98664W        W63825  37.403  29.007   2.150
98665W        W63826  13.851  14.117   5.311
98666W        W63827  44.803  41.743  12.846
98667W        W63828  29.374   7.311   9.960
98668W        W63829  24.537  31.092  12.850
98669W        W63830  34.523  10.247   3.128
98670W        W63831  20.822  25.547   9.935
98671W        W63832   6.294  19.254   4.008
98672W        W63833  36.957  20.304   0.378
98673W        W63834  41.728  26.524  13.510
98674W        W63835  28.126  17.045  11.605
98675W        W63836  24.722  34.650   3.636
98676W        W63837  20.292  24.243  12.862
98677W        W63838  31.679  35.105  13.434
98678W        W63839  21.762  41.456  13.494
98679W        W63840  11.317  21.045  10.884
98680W        W63841  29.710  11.372   1.320
98681W        W63842  24.396  29.137  14.749
98682W        W63843  14.850   5.900   3.748
98683W        W63844  23.640  30.196   4.631
98684W        W63845  43.864   5.613  11.968
98685W        W63846  22.626  19.018   4.620
98686W        W63847  10.965  10.925   2.820
98687W        W63848   2.274   5.545  11.183
98688W        W63849  19.801   5.957  13.304
98689W        W63850  18.638  41.431   3.864
98690W        W63851  19.459  36.808   1.392
98691W        W63852  41.574  23.511   2.638
98692W        W63853  19.626  23.723  11.411
98693W        W63854  32.454  13.579   2.359
98694W        W63855   1.510  28.211  10.729
98695W        W63856  19.375  43.419  10.412
98696W        W63857  41.248  42.785  11.960
98697W        W63858   9.889  11.831  14.885
98698W        W63859  35.944  14.182   3.225
98699W        W63860  18.606  36.896   4.882
98700W        W63861  30.950  40.762  12.927
98701W        W63862  14.548  16.220  12.589
98702W        W63863  20.044  14.296   3.180
98703W        W63864  24.287  38.350  12.136
98704W        W63865   3.175  18.091   0.779
98705W        W63866  40.048  42.235   1.351
98706W        W63867  42.437  30.186   3.248
98707W        W63868  16.294  44.426  13.012
98708W        W63869  29.306   4.326  12.411
98709W        W63870  14.346  17.797   4.607
98710W        W63871  14.132  32.016  10.738
98711W        W63872   0.333  30.486  12.503
98712W        W63873  37.068   7.643  13.872
98713W        W63874  30.289  16.733   1.824
98714W        W63875   1.415  42.795  12.240
98715W        W63876  44.943   6.833  14.563
98716W        W63877  32.584  43.624   0.675
98717W        W63878  18.801   7.586   0.512
98718W        W63879  25.426  10.608  10.884
98719W        W63880  29.039  12.268  10.383
98720W        W63881  27.470  44.027  14.996
98721W        W63882  36.988  41.741   0.010
98722W        W63883  22.620  40.550  14.034
98723W        W63884  40.405  32.790  12.890
98724W        W63885  26.520  32.117   3.216
98725W        W63886  44.785  41.526   1.458
98726W        W63887  23.136   6.264  12.174
98727W        W63888  38.676  34.588   3.221
98728W        W63889  31.994  16.341   2.363
98729W        W63890   7.020   5.158   0.653
98730W        W63891  44.296   6.622  10.663
98731W        W63892  21.458   5.708  12.582
98732W        W63893  24.674  30.811  14.855
98733W        W63894  10.708   6.407   2.660
98734W        W63895   1.680  27.676  14.985
98735W        W63896  40.029  27.189  14.814
98736W        W63897  22.640  14.725  13.320
98737W        W63898  37.429  21.688   3.722
98738W        W63899  23.599  17.078   0.529
98739W        W63900  26.759  44.374  12.462
98740W        W63901  18.037  36.869  14.857
98741W        W63902  29.081  12.241  13.895
98742W        W63903  16.643   3.645   2.842
98743W        W63904  34.576   4.854  10.980
98744W        W63905  29.449  31.690  10.412
98745W        W63906  27.642  39.076  12.186
98746W        W63907  43.224  28.939  12.455
98747W        W63908  35.456  35.690  11.035
98748W        W63909  26.546  18.645   4.828
98749W        W63910  25.148  33.891   3.858
98750W        W63911   1.944   5.816   0.885
98751W        W63912  14.292  18.074   2.882
98752W        W63913  28.433   1.172   3.278
98753W        W63914  27.406  15.820   5.281
98754W        W63915  16.411   6.122  12.719
98755W        W63916   6.492  12.723   1.277
98756W        W63917  38.862   1.528   4.374
98757W        W63918  27.759  11.757   3.643
98758W        W63919  14.925  13.728   0.449
98759W        W63920  30.973  34.436  13.509
98760W        W63921  31.296  26.269  11.955
98761W        W63922  16.679   5.630   1.715
98762W        W63923  25.824  42.850   2.188
98763W        W63924  27.566  11.899   2.278
98764W        W63925   6.466  31.007   2.307
98765W        W63926  40.721   0.103  11.615
98766W        W63927  36.860  15.707   0.372
98767W        W63928  12.775  24.116   0.728
98768W        W63929  44.482  27.690  12.401
98769W        W63930  18.137  29.974  11.403
98770W        W63931   7.597  17.341   0.034
98771W        W63932  26.159   3.505   2.850
98772W        W63933  25.333  15.080  14.073
98773W        W63934  15.588   2.905   4.581
98774W        W63935  12.110  19.103   0.521
98775W        W63936  23.282  44.402  14.037
98776W        W63937  30.352  37.385  13.946
98777W        W63938  23.215  22.736  11.648
98778W        W63939  16.333  12.227   2.652
98779W        W63940   2.897  25.768  14.227
98780W        W63941  26.517   9.763  14.842
98781W        W63942  34.283  41.842  10.690
98782W        W63943  41.362  40.136  14.745
98783W        W63944  38.659  44.528   4.107
98784W        W63945  26.875  39.074  13.976
98785W        W63946  33.112  43.989   2.845
98786W        W63947  29.028  31.641   0.377
98787W        W63948  29.016   5.315   4.482
98788W        W63949  37.538   7.919   4.202
98789W        W63950  32.538  43.543   3.605
98790W        W63951  43.310  34.421   2.257
98791W        W63952  39.667  37.970   4.515
98792W        W63953  21.621  16.580  13.613
98793W        W63954  31.633  25.983  11.051
98794W        W63955  17.435  22.335  10.394
98795W        W63956  18.236  15.345  14.330
98796W        W63957  40.307  42.425   1.767
98797W        W63958  15.656  17.746   4.489
98798W        W63959  44.865   5.768   4.348
98799W        W63960  43.265   1.247   1.726
98800W        W63961  13.108  18.293   0.695
98801W        W63962   3.852  30.373   0.728
98802W        W63963  30.432  42.354   1.946
98803W        W63964  14.301  12.779   4.429
98804W        W63965  33.625  14.849   3.126
98805W        W63966  31.595  17.629  10.790
98806W        W63967  27.940  11.159   1.100
98807W        W63968  39.274  13.937   3.266
98808W        W63969  40.722  32.867   4.481
98809W        W63970  11.952  12.424  12.476
98810W        W63971  32.539  21.528  14.036
98811W        W63972   0.551  42.119   4.174
98812W        W63973   5.611  40.587  13.341
98813W        W63974  33.366  43.099   3.663
98814W        W63975  39.394   6.409   3.878
98815W        W63976  33.830   3.466  14.434
98816W        W63977  12.875  38.093   1.895
98817W        W63978  31.633   4.466  14.419
98818W        W63979  42.371  32.523  13.428
98819W        W63980   5.453  17.072   4.108
98820W        W63981  42.754  15.108  14.883
98821W        W63982  34.699  43.605   5.466
98822W        W63983  35.674  23.581   3.639
98823W        W63984  29.934  15.394  11.676
98824W        W63985   4.253  43.874  11.852
98825W        W63986  21.735  38.083  14.411
98826W        W63987  18.837   0.801  12.566
98827W        W63988  16.687  33.512   4.683
98828W        W63989  21.715  39.288  14.891
98829W        W63990  30.489  14.387   2.802
98830W        W63991   8.277  25.477  12.087
98831W        W63992  37.008  20.483   2.852
98832W        W63993   5.345  19.129   0.890
98833W        W63994  10.297  34.038  11.047
98834W        W63995  28.936   8.615  11.997
98835W        W63996  11.171   8.109   4.760
98836W        W63997  17.194   3.710  13.101
98837W        W63998  38.665  43.549  12.630
98838W        W63999   4.349  12.755  12.865
98839W        W64000   2.651  38.415   9.914
98840W        W64001  28.571  14.678   2.080
98841W        W64002  20.086  44.660  14.298
98842W        W64003  22.217   5.702   4.099
98843W        W64004  29.435  29.004  12.099
98844W        W64005  44.964  30.480   2.816
98845W        W64006  25.627  28.615  12.848
98846W        W64007  13.391  17.117  12.951
98847W        W64008  14.581  24.024   0.833
98848W        W64009  25.681  17.816   1.403
98849W        W64010   3.701  13.958  12.967
98850W        W64011  18.001   9.160  14.333
98851W        W64012  27.495  44.911  13.639
98852W        W64013  18.830  16.247   2.305
98853W        W64014  27.511   9.635   1.933
98854W        W64015  42.258   9.712   4.994
98855W        W64016  28.643  14.736  12.781
98856W        W64017   8.361  39.107   3.551
98857W        W64018  23.666   4.405   3.795
98858W        W64019  21.948  38.339  12.950
98859W        W64020  30.901   2.254   2.320
98860W        W64021  31.948  33.631  12.571
98861W        W64022  35.198   1.246  10.678
98862W        W64023  23.743  18.748   2.729
98863W        W64024  20.743  20.707  12.639
98864W        W64025  15.972  41.179   2.520
98865W        W64026   6.715  14.429  12.093
98866W        W64027  21.613  13.582  12.025
98867W        W64028  34.599  38.510   1.395
98868W        W64029  12.637  13.991   0.929
98869W        W64030  28.722  38.106   9.890
98870W        W64031  13.798  20.056  14.331
98871W        W64032  42.192  12.542  12.586
98872W        W64033  32.459  11.821  10.226
98873W        W64034   8.898  16.760   0.895
98874W        W64035  15.896  34.870  13.904
98875W        W64036  28.126  37.732   0.453
98876W        W64037  19.369  24.818   3.382
98877W        W64038  33.871   2.427   2.362
98878W        W64039  43.680  19.701  14.590
98879W        W64040   8.136  22.958  12.037
98880W        W64041  22.626   7.775  10.457
98881W        W64042  21.307   0.824   0.811
98882W        W64043  13.369  29.590  14.902
98883W        W64044  12.937  21.504  12.953
98884W        W64045  36.013  32.416  14.302
98885W        W64046  10.775  20.200  12.716
98886W        W64047   9.125   0.200  10.710
98887W        W64048  21.254   7.022   2.869
98888W        W64049  11.012  38.615   3.242
98889W        W64050  31.519  12.724   3.249
98890W        W64051  19.688  41.064   2.931
98891W        W64052  22.137   7.431   1.006
98892W        W64053   9.398  17.884   1.778
98893W        W64054  24.014   8.707   1.853
98894W        W64055   6.452  19.781  14.316
98895W        W64056  19.629   4.399  14.262
98896W        W64057  33.840   9.785   1.955
98897W        W64058  31.383   8.842   2.212
98898W        W64059   0.550  27.682  13.586
98899W        W64060  33.614  34.250  13.855
98900W        W64061  26.476  12.360  14.714
98901W        W64062  40.014  19.393   3.785
98902W        W64063  12.996   6.234   3.803
98903W        W64064   2.232  31.852  13.469
98904W        W64065  42.041   0.701   4.529
98905W        W64066   4.284  22.359  12.334
98906W        W64067   3.291  26.053   1.954
98907W        W64068  36.495  42.963   3.232
98908W        W64069   1.032  23.968  12.954
98909W        W64070  36.319  10.188  10.450
98910W        W64071   8.455  11.837  14.266
98911W        W64072  35.349  40.402   2.821
98912W        W64073  11.925   5.133   2.181
98913W        W64074  39.404  11.373  11.167
98914W        W64075  42.830  15.200   4.302
98915W        W64076  29.399  26.094  12.388
98916W        W64077  12.588  24.532  10.797
98917W        W64078  28.355  23.299   0.444
98918W        W64079  37.462   2.507   0.208
98919W        W64080  10.735  16.341  13.228
98920W        W64081  19.003  39.862   0.324
98921W        W64082  24.082  44.744  14.849
98922W        W64083  27.970  37.549  14.825
98923W        W64084  25.919  15.150  12.221
98924W        W64085  11.311  34.008  11.387
98925W        W64086  23.282  23.609   1.148
98926W        W64087  12.327  15.570   1.675
98927W        W64088  41.342  24.608  11.038
98928W        W64089  28.687  26.491   4.784
98929W        W64090   8.232   1.068  14.007
98930W        W64091  32.181  30.152   1.256
98931W        W64092  13.141  35.820  13.492
98932W        W64093   2.427  17.434   3.556
98933W        W64094  31.151  39.075  11.957
98934W        W64095  21.920   9.847  13.479
98935W        W64096  18.788  43.397  11.139
98936W        W64097  35.039  31.889  13.719
98937W        W64098  36.365   3.479  13.604
98938W        W64099  14.690  20.393  11.692
98939W        W64100   2.454  24.439   3.637
98940W        W64101  43.424  11.175   0.908
98941W        W64102  27.131   7.928  14.423
98942W        W64103  23.478  16.139   0.653
98943W        W64104  42.434   1.424   3.535
98944W        W64105  20.689  31.608  10.395
98945W        W64106  42.901  41.295   4.473
98946W        W64107   2.718  39.412   2.800
98947W        W64108  32.111  42.805   3.197
98948W        W64109  19.369  27.128  12.804
98949W        W64110  26.445  14.734   2.370
98950W        W64111   2.438  24.665   0.273
98951W        W64112   5.056   0.843  11.487
98952W        W64113  32.924   9.367  12.909
98953W        W64114  11.381   0.074  13.874
98954W        W64115  12.213   8.227  10.753
98955W        W64116  20.742  26.898   3.606
98956W        W64117  39.549  29.289   3.914
98957W        W64118  22.230   9.374  12.164
98958W        W64119  13.931  40.965   4.617
98959W        W64120  10.682  19.377  11.264
98960W        W64121   7.631  15.166  14.357
98961W        W64122  33.866  34.899  11.553
98962W        W64123  15.205  17.488  13.068
98963W        W64124  23.788  30.097  11.131
98964W        W64125  29.172  25.964  12.844
98965W        W64126  20.868  33.869  12.558
98966W        W64127  16.120  26.028   4.641
98967W        W64128  39.446  17.449  13.028
98968W        W64129  37.914  33.984   4.599
98969W        W64130   6.481  39.478   2.425
98970W        W64131  16.616  28.189  12.922
98971W        W64132   7.949  42.821   3.293
98972W        W64133  13.242  21.910   2.137
98973W        W64134  14.816  29.477   2.765
98974W        W64135  40.061  23.343   3.321
98975W        W64136  33.585  38.272   4.147
98976W        W64137  28.858   1.766   0.840
98977W        W64138  38.059  22.050   4.828
98978W        W64139  10.787  42.267   0.900
98979W        W64140   1.893  44.493   2.880
98980W        W64141   1.232  34.772   2.856
98981W        W64142   3.536   0.124  11.581
98982W        W64143  28.478  24.137   1.855
98983W        W64144  24.605  31.013   4.099
98984W        W64145   9.714  30.704   2.279
98985W        W64146  18.436  13.876   2.636
98986W        W64147  39.935  17.563  12.905
98987W        W64148  11.177  23.544   4.316
98988W        W64149  40.816  10.118  12.998
98989W        W64150  31.733   4.283   2.802
98990W        W64151  30.834  41.863  13.016
98991W        W64152  21.767  44.484  14.819
98992W        W64153  35.122  21.571  13.542
98993W        W64154  33.944  11.489  14.821
98994W        W64155  21.989  40.189  10.211
98995W        W64156  35.879  17.501  12.297
98996W        W64157  11.709  19.904   0.597
98997W        W64158  23.341  28.873   3.760
98998W        W64159  44.007  30.660  12.994
98999W        W64160  39.599  19.490  11.545
99000W        W64161  15.567  30.634   4.452
99001W        W64162  44.809  23.705  13.241
99002W        W64163  11.900   3.480   2.706
99003W        W64164   5.645   8.717  10.754
99004W        W64165   7.732  15.470  14.835
99005W        W64166  36.062  19.819  11.177
99006W        W64167  32.802  26.694   3.343
99007W        W64168  35.541  42.531   1.867
99008W        W64169  31.046  42.960   0.752
99009W        W64170  29.494  11.577  10.717
99010W        W64171  16.704  36.006   3.004
99011W        W64172   9.240  13.375  13.576
99012W        W64173   9.690  42.098   0.672
99013W        W64174   4.394  42.372   0.909
99014W        W64175  43.950   1.528   1.289
99015W        W64176  24.648  18.538  12.606
99016W        W64177  37.560   3.920  11.812
99017W        W64178  26.276  24.738  12.080
99018W        W64179   0.149   4.798  10.586
99019W        W64180   6.613  18.746  10.796
99020W        W64181  44.019  31.908   0.719
99021W        W64182   8.781  16.784  14.945
99022W        W64183   7.721  10.861   3.693
99023W        W64184   2.150  22.205   2.069
99024W        W64185  42.150   8.398  11.977
99025W        W64186  35.862  13.557  10.621
99026W        W64187  40.618  12.946   4.998
99027W        W64188  28.997  31.416  14.847
99028W        W64189  26.522  39.870   0.652
99029W        W64190  17.850  34.609   3.137
99030W        W64191  13.186  30.761  13.142
99031W        W64192  39.043   6.742   4.053
99032W        W64193  35.966   8.136   3.150
99033W        W64194   1.959  43.882   1.620
99034W        W64195  27.960  31.614   4.606
99035W        W64196  32.073  17.545  12.033
99036W        W64197  39.034  42.804  11.960
99037W        W64198  15.180  43.708  10.303
99038W        W64199  25.047  26.483   2.037
99039W        W64200  39.973  44.836   3.623
99040W        W64201  39.094  15.048   4.112
99041W        W64202  40.551   5.026   3.886
99042W        W64203  31.911  22.003   2.249
99043W        W64204  25.635  33.434   0.514
99044W        W64205   0.485   7.837  13.399
99045W        W64206  16.607  14.860   4.121
99046W        W64207  29.722  12.348   4.606
99047W        W64208   3.789  25.765  12.178
99048W        W64209  14.228  29.942  14.928
99049W        W64210   1.805  37.468   3.594
99050W        W64211  33.436  36.456   3.884
99051W        W64212   9.310  33.569   2.868
99052W        W64213   5.244  36.421   3.303
99053W        W64214  14.251  13.190   3.481
99054W        W64215  24.932  43.886  13.430
99055W        W64216  26.134  32.593   1.940
99056W        W64217   6.200  21.745   4.047
99057W        W64218  33.078  11.037  11.094
99058W        W64219  14.089  35.317  12.833
99059W        W64220  44.292  40.315  12.203
99060W        W64221  28.223  37.508   2.374
99061W        W64222  43.249   9.176  12.478
99062W        W64223  27.964  29.189  13.880
99063W        W64224  14.777  21.735  11.941
99064W        W64225  41.972   1.304   3.707
99065W        W64226   7.015   4.712  10.788
99066W        W64227  32.605   3.735   2.150
99067W        W64228  17.541  22.321  14.229
99068W        W64229  37.793  13.642  12.956
99069W        W64230  12.788  30.850  10.558
99070W        W64231  24.580   6.740   2.406
99071W        W64232  17.018  40.424  12.039
99072W        W64233  15.284  36.014   4.286
99073W        W64234   3.469  20.576  10.640
99074W        W64235  24.844  37.483  12.041
99075W        W64236  19.583  17.497  12.125
99076W        W64237  32.671  44.792  13.457
99077W        W64238  13.026  22.338   2.756
99078W        W64239  40.868  31.658   4.355
99079W        W64240   5.258  10.270   3.578
99080W        W64241   0.478  41.495   3.259
99081W        W64242  40.541  26.252   0.160
99082W        W64243  44.987  16.107   2.611
99083W        W64244  13.831  32.574   2.784
99084W        W64245  33.626  32.304  11.503
99085W        W64246  37.782  27.123  13.375
99086W        W64247  21.007  31.014   1.781
99087W        W64248  12.379  35.163  13.380
99088W        W64249  22.497  13.023   3.305
99089W        W64250  39.852   6.789  13.741
99090W        W64251  29.932  11.088   1.933
99091W        W64252  38.376   8.266  12.424
99092W        W64253   1.763  11.626   4.980
99093W        W64254  44.650  33.789  11.221
99094W        W64255   4.408  28.555   1.369
99095W        W64256   6.787  35.435  14.020
99096W        W64257   4.343  22.130   1.133
99097W        W64258  20.728   6.960  14.814
99098W        W64259  19.525  24.389  13.972
99099W        W64260   1.250   6.863  12.806
99100W        W64261  37.560   5.554  12.408
99101W        W64262  24.931   3.436   1.703
99102W        W64263   8.390  11.860   1.437
99103W        W64264  13.358  26.028  14.838
99104W        W64265  24.133  36.251   2.429
99105W        W64266  36.046  23.237   2.089
99106W        W64267  44.354  32.888  13.878
99107W        W64268  31.446  36.848   2.383
99108W        W64269  12.683  35.964   3.277
99109W        W64270  15.196   6.271  10.717
99110W        W64271  41.370  38.816  12.639
99111W        W64272  26.087  11.177  14.168
99112W        W64273   8.871  12.477   2.781
99113W        W64274  35.780   2.976   3.664
99114W        W64275   7.124   9.883   2.432
99115W        W64276  28.513  23.176  13.653
99116W        W64277   9.448  24.486   3.260
99117W        W64278  18.672  16.311  12.583
99118W        W64279  27.911  23.460   1.883
99119W        W64280  22.206   5.583  11.923
99120W        W64281  13.227  44.980   1.348
99121W        W64282   5.823  39.675   1.438
99122W        W64283   8.815  16.614  13.101
99123W        W64284  18.631  43.791   3.721
99124W        W64285  22.128  10.659  13.979
99125W        W64286  10.878  36.083   3.417
99126W        W64287  36.524  37.458  12.454
99127W        W64288  20.003  15.716   1.389
99128W        W64289   4.752  18.450   3.237
99129W        W64290  44.333  30.952   1.206
99130W        W64291   5.651  11.695   0.027
99131W        W64292  44.478  37.294   4.492
99132W        W64293  40.743  24.640   4.597
99133W        W64294  11.064  31.493  14.957
99134W        W64295   1.064  24.183   3.758
99135W        W64296  35.983  12.259   3.625
99136W        W64297  43.732  41.766   3.657
99137W        W64298  24.892  38.612   0.663
99138W        W64299  11.020  29.945   1.300
99139W        W64300  25.972  23.016   2.714
99140W        W64301   9.454  15.266   4.287
99141W        W64302  39.103  27.483   4.160
99142W        W64303  25.072   2.844   4.757
99143W        W64304  15.731   2.743  13.783
99144W        W64305  35.743  16.236  12.062
99145W        W64306   1.868  40.506   0.828
99146W        W64307   0.266  25.543   1.869
99147W        W64308  37.087  27.695   0.876
99148W        W64309  38.294  39.101   2.607
99149W        W64310  24.921  33.017  13.084
99150W        W64311  44.651  38.113   3.502
99151W        W64312  43.324  36.207  13.167
99152W        W64313  33.844  15.016   0.257
99153W        W64314  44.703  15.274   1.951
99154W        W64315  43.570  20.705  11.647
99155W        W64316  38.279  12.642  12.646
99156W        W64317   9.677  20.066   1.507
99157W        W64318  11.738  29.184  14.020
99158W        W64319  26.086   9.263   0.380
99159W        W64320  26.493  23.092   3.657
99160W        W64321  16.504  15.207  13.910
99161W        W64322   8.856  35.662   4.621
99162W        W64323  12.784  34.089   0.364
99163W        W64324  27.051  32.380   1.760
99164W        W64325  43.922  17.712   3.390
99165W        W64326  19.330  19.642  10.720
99166W        W64327  30.621  39.063  10.600
99167W        W64328  13.562  13.709   1.817
99168W        W64329   9.033  26.494   2.783
99169W        W64330  43.234  16.196   4.165
99170W        W64331  10.637   7.565   0.822
99171W        W64332  41.781  37.912  13.420
99172W        W64333  26.442  30.005   0.809
99173W        W64334  16.369  29.054  13.557
99174W        W64335  18.201   7.285  12.369
99175W        W64336  17.125  30.885   1.378
99176W        W64337  36.098  37.940   0.346
99177W        W64338  26.725  19.222  13.416
99178W        W64339  35.688  17.605   0.277
99179W        W64340  29.159  40.528   0.487
99180W        W64341  18.957   7.459   1.279
99181W        W64342   3.755  30.598   1.211
99182W        W64343  29.108  41.900  11.553
99183W        W64344  30.507  42.869  12.455
99184W        W64345  37.899   4.795   3.853
99185W        W64346  24.770  29.486   2.663
99186W        W64347  18.744  26.921   1.759
99187W        W64348  24.698  14.121  13.818
99188W        W64349  42.926   9.939  12.160
99189W        W64350  22.115   4.663  11.678
99190W        W64351  36.870   1.251  14.457
99191W        W64352  38.910  10.390   4.055
99192W        W64353  18.681  29.889  14.585
99193W        W64354   9.264  39.628  13.837
99194W        W64355   0.921  41.094   3.811
99195W        W64356  39.945  19.524   1.719
99196W        W64357  39.636  43.804   4.402
99197W        W64358   8.359   1.915  12.459
99198W        W64359  32.161   1.714   4.841
99199W        W64360   9.837   5.665   1.650
99200W        W64361  26.506  43.732   1.818
99201W        W64362  36.942  19.037   0.912
99202W        W64363  43.521  18.219   1.395
99203W        W64364  16.379  18.322   0.575
99204W        W64365   4.993  40.668   0.410
99205W        W64366  34.990  43.958  13.364
99206W        W64367  19.577  32.501  11.113
99207W        W64368  19.926  39.043  12.717
99208W        W64369  24.507  42.986  12.778
99209W        W64370   5.623  40.575  11.600
99210W        W64371   2.737  17.074  13.223
99211W        W64372  17.698  36.944   0.804
99212W        W64373  24.487  31.028   0.665
99213W        W64374  39.460   2.745  11.534
99214W        W64375  33.094   9.655  13.844
99215W        W64376   2.383  39.255  13.466
99216W        W64377  40.645  36.018   1.936
99217W        W64378  37.631  41.275  12.973
99218W        W64379  35.424   2.484  11.369
99219W        W64380  28.012  23.692  12.866
99220W        W64381   7.834  33.024   3.996
99221W        W64382  13.635  31.868  10.706
99222W        W64383   9.467  40.616   4.941
99223W        W64384  34.104   6.317   2.656
99224W        W64385   3.553   1.858  13.130
99225W        W64386  17.255  38.506   4.551
99226W        W64387  27.623   6.401   3.483
99227W        W64388  27.228   0.989   0.989
99228W        W64389  17.373  17.193   5.517
99229W        W64390  35.420   3.778   1.403
99230W        W64391  26.245  38.385   1.357
99231W        W64392  40.540  40.592  11.968
99232W        W64393  43.527  29.095  11.434
99233W        W64394  22.973  40.100  13.169
99234W        W64395   5.177  37.945   1.245
99235W        W64396   1.122  31.829  10.017
99236W        W64397  25.919   0.957  13.516
99237W        W64398  38.282  28.387  14.370
99238W        W64399  11.789  29.694  14.968
99239W        W64400  42.862  17.185   4.542
99240W        W64401   6.649  13.130   0.312
99241W        W64402  32.909  44.273  11.682
99242W        W64403  22.029  41.086   0.320
99243W        W64404  19.554  16.238  11.136
99244W        W64405   9.336  36.783   2.494
99245W        W64406  27.743  33.165  10.709
99246W        W64407  41.571  33.644  11.666
99247W        W64408  38.818  20.749  14.022
99248W        W64409  26.623  16.993   1.979
99249W        W64410  13.060  34.809  11.115
99250W        W64411  13.651   0.633  13.786
99251W        W64412  43.234  27.470  13.609
99252W        W64413  34.233  18.264   1.446
99253W        W64414   4.608  17.799  14.816
99254W        W64415  18.358  33.411  14.780
99255W        W64416  31.671  40.039  11.748
99256W        W64417  35.982  39.413  12.349
99257W        W64418   5.030   6.382   9.939
99258W        W64419  33.359  20.760   2.260
99259W        W64420  22.307  35.919  12.404
99260W        W64421  17.907   9.376  14.817
99261W        W64422  16.135  42.015   1.268
99262W        W64423  33.016  26.564   4.611
99263W        W64424  41.265  29.147   0.412
99264W        W64425  27.077  20.737  11.520
99265W        W64426  32.211  42.539   1.351
99266W        W64427  42.115   7.623   2.456
99267W        W64428  35.026  29.288  11.047
99268W        W64429   8.368  19.717  11.489
99269W        W64430  10.376   3.213   0.383
99270W        W64431  25.340  38.938   0.265
99271W        W64432  15.052  10.160   0.320
99272W        W64433  38.188  17.013   2.859
99273W        W64434   9.418  14.073  12.921
99274W        W64435  32.991  26.074   4.021
99275W        W64436   5.735  27.066  13.822
99276W        W64437  36.321   1.835   3.394
99277W        W64438  24.694   5.302  10.694
99278W        W64439  14.687  16.339   0.950
99279W        W64440  12.673  15.739   2.518
99280W        W64441  41.466  21.133  10.701
99281W        W64442  26.745  10.232  14.773
99282W        W64443  32.104   8.814  14.349
99283W        W64444  22.162  18.510   2.404
99284W        W64445  14.810   5.465  10.702
99285W        W64446  31.467  11.364   0.038
99286W        W64447  37.441  34.505   4.450
99287W        W64448  31.389   0.739   0.403
99288W        W64449  27.265   8.120   0.533
99289W        W64450   5.083   1.204   3.338
99290W        W64451   4.660  14.225  10.300
99291W        W64452  28.742  13.676   2.231
99292W        W64453  22.393  42.083  13.137
99293W        W64454  30.870  39.766   3.716
99294W        W64455  40.191  21.596   3.673
99295W        W64456   4.235   8.168   4.549
99296W        W64457  34.844   7.660  11.687
99297W        W64458  33.636  16.965  11.568
99298W        W64459  32.921   7.489   4.308
99299W        W64460  21.232  13.858  12.575
99300W        W64461  26.818  43.496  14.375
99301W        W64462   4.752  40.467   2.766
99302W        W64463  16.042  13.303   4.575
99303W        W64464   0.610  17.032   1.270
99304W        W64465  16.714  13.788   4.145
99305W        W64466  12.187  40.462   4.908
99306W        W64467   1.400  18.050  13.339
99307W        W64468  25.999  23.996  13.375
99308W        W64469  26.688  10.166  11.209
99309W        W64470  20.295  13.345   5.072
99310W        W64471  43.546   2.229  12.808
99311W        W64472   4.706  42.305   2.783
99312W        W64473  36.007   9.310   0.454
99313W        W64474  24.046   0.745   3.720
99314W        W64475  14.253  28.223  11.179
99315W        W64476  30.894   6.541  10.397
99316W        W64477  25.444   7.880   2.271
99317W        W64478   4.766   4.966  11.855
99318W        W64479  15.811  17.029  11.626
99319W        W64480  44.483  31.143  13.488
99320W        W64481  37.891  38.822  11.646
99321W        W64482   1.264  22.150  14.164
99322W        W64483  26.885  30.083  11.180
99323W        W64484  26.817  41.044   3.304
99324W        W64485  34.003  33.512   3.231
99325W        W64486   5.773   0.017  13.116
99326W        W64487  24.429  19.644   1.373
99327W        W64488  33.941  21.222   0.552
99328W        W64489  31.023  39.038  14.082
99329W        W64490  39.392  38.345  13.439
99330W        W64491   4.821   7.713   1.238
99331W        W64492  33.017  40.571  14.339
99332W        W64493  26.039  42.823  14.032
99333W        W64494  27.480  32.717  10.779
99334W        W64495  33.933   8.893   4.949
99335W        W64496   5.980   6.851  14.416
99336W        W64497  37.339  29.242  11.153
99337W        W64498  37.597  27.592   0.827
99338W        W64499  30.519  36.813   4.609
99339W        W64500  14.676  20.654   1.359
99340W        W64501  24.507  41.520   2.278
99341W        W64502  41.548  28.025  14.913
99342W        W64503   8.248  29.801   2.623
99343W        W64504  16.559   0.417   2.090
99344W        W64505   9.824   0.705  14.952
99345W        W64506  11.708  18.241  11.561
99346W        W64507   5.134  40.405  13.464
99347W        W64508  28.564  12.145  13.046
99348W        W64509   9.078  22.358  11.314
99349W        W64510  29.196  12.836  11.124
99350W        W64511  28.056   4.882  11.451
99351W        W64512  22.901  38.544  13.232
99352W        W64513  11.471  21.759  13.075
99353W        W64514  31.392  42.945   0.328
99354W        W64515  43.836  25.984  14.616
99355W        W64516   7.805   2.090   1.888
99356W        W64517  27.749  12.682  13.025
99357W        W64518  34.076  24.488  11.111
99358W        W64519   6.887  44.546   0.126
99359W        W64520  19.169  26.031   3.614
99360W        W64521   6.837  12.783  11.196
99361W        W64522   6.855  18.227   0.866
99362W        W64523  33.486  36.907  13.766
99363W        W64524  27.941  43.140  13.733
99364W        W64525  33.276  31.944   0.979
99365W        W64526  35.485   1.803  11.174
99366W        W64527  17.626  34.662   4.470
99367W        W64528  37.024  26.761   3.223
99368W        W64529   3.444  43.737  13.140
99369W        W64530  36.482  36.360   1.854
99370W        W64531  31.794  11.815  11.527
99371W        W64532  16.143  19.267  11.988
99372W        W64533  15.186   3.633   4.828
99373W        W64534  34.883  18.970   1.157
99374W        W64535   2.293  14.420  12.740
99375W        W64536  42.985  32.818   0.342
99376W        W64537  30.565  28.458  13.480
99377W        W64538   1.465  31.664   4.544
99378W        W64539  41.440   0.628  11.603
99379W        W64540  30.059  21.429   1.724
99380W        W64541  22.498   4.865   0.154
99381W        W64542  36.531  11.315  11.974
99382W        W64543  43.385  20.490  14.802
99383W        W64544  20.263  26.746   3.330
99384W        W64545  19.712  31.837  13.397
99385W        W64546  25.380  44.332  10.117
99386W        W64547   2.418  36.020   0.275
99387W        W64548  40.919   4.811  13.612
99388W        W64549  14.769  13.991   3.230
99389W        W64550  24.916   0.065   4.634
99390W        W64551  16.103  13.541  10.972
99391W        W64552  15.127  37.599   1.260
99392W        W64553  41.470  23.677  11.445
99393W        W64554  11.847  28.613   4.085
99394W        W64555   0.570  29.842  12.889
99395W        W64556  24.493  37.418  13.331
99396W        W64557  44.438  23.706   4.201
99397W        W64558  44.174  37.062  13.202
99398W        W64559  24.728   8.439   1.194
99399W        W64560  29.883  27.066   3.390
99400W        W64561   4.991  44.902  11.523
99401W        W64562   2.141  22.750   1.262
99402W        W64563   6.609   1.691  12.496
99403W        W64564  40.573  27.696   4.591
99404W        W64565  10.805  36.910   2.768
99405W        W64566  38.223  39.755   0.794
99406W        W64567  14.659   7.209   3.965
99407W        W64568  30.176  12.878   4.304
99408W        W64569  20.706  20.239   1.670
99409W        W64570  23.516  26.218  12.039
99410W        W64571  40.241  25.617   3.878
99411W        W64572  11.759  29.405   3.701
99412W        W64573  26.191  26.811   4.124
99413W        W64574  31.105   4.503  10.848
99414W        W64575  36.012  26.147   1.492
99415W        W64576  30.183   8.113  12.844
99416W        W64577  20.822  12.788  14.633
99417W        W64578  37.380  25.007  14.989
99418W        W64579  24.673  40.818  14.473
99419W        W64580  36.655   0.217  12.032
99420W        W64581  29.127  43.796  13.291
99421W        W64582  39.552  31.237  11.191
99422W        W64583  43.930  35.872  10.858
99423W        W64584  26.594  42.414  11.767
99424W        W64585  26.548  19.573  13.826
99425W        W64586  23.055  34.384   0.953
99426W        W64587   2.145   2.366   3.248
99427W        W64588  37.893  44.021   3.787
99428W        W64589  44.393  32.453  10.698
99429W        W64590   8.702   9.719   3.609
99430W        W64591   5.990   0.018  14.989
99431W        W64592  34.596  31.988   4.561
99432W        W64593  15.236  18.705  13.416
99433W        W64594  19.758  42.817  13.396
99434W        W64595  36.853  34.401  12.164
99435W        W64596  29.476  27.765   0.348
99436W        W64597  34.965  35.603  11.625
99437W        W64598  29.509  34.629  11.205
99438W        W64599  15.611   3.392  10.044
99439W        W64600  18.735  13.786  12.892
99440W        W64601  20.129  21.893   1.467
99441W        W64602   1.264   3.137   2.274
99442W        W64603  23.742   8.772   4.445
99443W        W64604  26.803  31.238  10.771
99444W        W64605  19.190   5.294  10.030
99445W        W64606   3.829   1.051  12.097
99446W        W64607  12.478  29.012  12.138
99447W        W64608  29.140  11.139   4.820
99448W        W64609  34.591  31.128   3.118
99449W        W64610  23.750  42.043   4.110
99450W        W64611  32.603  17.755   3.044
99451W        W64612   7.383   5.202  13.936
99452W        W64613  13.590  33.736  14.046
99453W        W64614  25.473   1.863  14.357
99454W        W64615  29.609  26.293   2.417
99455W        W64616  14.285  25.739   2.863
99456W        W64617  18.094  36.043  12.906
99457W        W64618  30.197   3.888  12.954
99458W        W64619  13.329  24.971   0.699
99459W        W64620  31.948  13.524   0.722
99460W        W64621  23.516  10.422   2.411
99461W        W64622  41.944  19.982  11.250
99462W        W64623   5.698  31.641   0.303
99463W        W64624   0.794   9.663  11.082
99464W        W64625  17.214  33.319  11.710
99465W        W64626  30.675  40.718  14.899
99466W        W64627  32.838  15.990  11.977
99467W        W64628  33.058  29.983   2.187
99468W        W64629  22.976  40.894   3.764
99469W        W64630  14.342   5.859   3.796
99470W        W64631   6.363   7.770  13.112
99471W        W64632  42.020  33.557  11.308
99472W        W64633  30.588  11.116   0.110
99473W        W64634  21.089  43.424   0.202
99474W        W64635  31.670   2.230   0.455
99475W        W64636  16.508  17.817  14.035
99476W        W64637  37.177  34.988   3.701
99477W        W64638   0.465  19.235  11.299
99478W        W64639  32.019  34.822   4.310
99479W        W64640   9.270  37.468   0.457
99480W        W64641  28.906  22.672  11.578
99481W        W64642   9.925   8.113   1.326
99482W        W64643  23.217  21.777  13.617
99483W        W64644  37.999  17.309   1.536
99484W        W64645  14.744  21.173   4.541
99485W        W64646   1.197  20.234  12.246
99486W        W64647  19.662   3.125   2.658
99487W        W64648  36.652  40.843  10.653
99488W        W64649   0.342  19.209  14.041
99489W        W64650  21.928  22.595   2.996
99490W        W64651   9.741  18.743   3.177
99491W        W64652  31.897  31.523  14.027
99492W        W64653  34.035  16.028   3.054
99493W        W64654   5.317  18.659  10.638
99494W        W64655  19.364  38.837   0.549
99495W        W64656  23.050   9.215   4.593
99496W        W64657  11.636  11.595  11.207
99497W        W64658  13.704  24.890  14.477
99498W        W64659  18.461  12.871  10.333
99499W        W64660  17.009   9.917   0.031
99500W        W64661  22.445   7.681  13.476
99501W        W64662  36.302  22.519  11.174
99502W        W64663  21.162  34.196  11.629
99503W        W64664  28.756  31.565   2.721
99504W        W64665   7.803  19.987   4.121
99505W        W64666  13.387  15.023   1.818
99506W        W64667   5.808  15.587  14.787
99507W        W64668  43.344  37.895   2.118
99508W        W64669  40.407  33.923   1.197
99509W        W64670   3.739  39.970   3.911
99510W        W64671   4.229  25.064  12.216
99511W        W64672  24.832  18.221  14.399
99512W        W64673   8.227  42.060  12.045
99513W        W64674  16.671  40.265  13.985
99514W        W64675  11.959  24.257  11.396
99515W        W64676  17.348  10.242   0.950
99516W        W64677  29.932   9.434  11.256
99517W        W64678   9.075  40.619   2.415
99518W        W64679  30.957  26.340   4.644
99519W        W64680   5.715  14.103   2.578
99520W        W64681   3.420  22.941  14.488
99521W        W64682  27.109   7.877  11.925
99522W        W64683  36.539  24.268  11.935
99523W        W64684   3.680   3.555   2.848
99524W        W64685  36.245  33.400   0.893
99525W        W64686  19.699   6.700  11.995
99526W        W64687  28.187  37.026   1.910
99527W        W64688  36.925  28.964  13.016
99528W        W64689  34.093  39.457   4.072
99529W        W64690  40.561  24.461   4.147
99530W        W64691  27.999  22.928  12.578
99531W        W64692   9.684  24.102  11.591
99532W        W64693  36.556  44.619  14.608
99533W        W64694  38.506   6.820   1.710
99534W        W64695   0.815  24.719   1.174
99535W        W64696   0.653  19.468  10.791
99536W        W64697   4.456  16.321   1.774
99537W        W64698  20.606   1.198  13.061
99538W        W64699  10.217  28.892   0.471
99539W        W64700  24.478  44.580   4.048
99540W        W64701  20.180  19.250  14.450
99541W        W64702  23.229   5.159   3.703
99542W        W64703  40.560  30.401   0.816
99543W        W64704   2.479  24.933  13.457
99544W        W64705  37.985  31.592   1.469
99545W        W64706  33.317   5.711   1.851
99546W        W64707   8.169   0.782  10.710
99547W        W64708  39.822   2.751  13.425
99548W        W64709   5.855   6.702  13.922
99549W        W64710  44.860  17.955  14.156
99550W        W64711   6.255  41.275   2.691
99551W        W64712   7.187   4.237  11.463
99552W        W64713  27.230  16.255   5.043
99553W        W64714  15.620  31.887  11.651
99554W        W64715   6.530  18.571  11.304
99555W        W64716  17.847  21.684   0.363
99556W        W64717   3.350  43.902   4.570
99557W        W64718  28.483  44.571  11.971
99558W        W64719  33.360  23.240   5.439
99559W        W64720  25.982  39.968  14.367
99560W        W64721  30.874   6.338   1.854
99561W        W64722  32.663   8.289   2.481
99562W        W64723   2.932  29.983   4.472
99563W        W64724  19.853  29.261  11.620
99564W        W64725   1.554  39.525  11.878
99565W        W64726  33.530   4.546  14.820
99566W        W64727  40.513  39.807   2.908
99567W        W64728   7.746  32.803  14.884
99568W        W64729  18.197   3.525   1.238
99569W        W64730  41.531  32.306   4.268
99570W        W64731   1.861   7.352  14.394
99571W        W64732  21.105   6.152   1.426
99572W        W64733  24.068   6.374   3.754
99573W        W64734  23.285  41.804  12.854
99574W        W64735  27.239  32.168   4.213
99575W        W64736   2.240  28.077   0.760
99576W        W64737  40.329  31.909   2.774
99577W        W64738  32.782  28.107  14.976
99578W        W64739   7.562  14.722   3.604
99579W        W64740  39.478  21.142  11.004
99580W        W64741  29.431  18.224   5.223
99581W        W64742   1.354  21.590  10.924
99582W        W64743   5.267  37.782  12.432
99583W        W64744  26.411   1.981  12.052
99584W        W64745  35.975   1.727  11.340
99585W        W64746  42.993  25.186  12.017
99586W        W64747  16.759  34.509  12.527
99587W        W64748  27.004  39.439   2.683
99588W        W64749  14.238   4.804  13.488
99589W        W64750   7.870  14.304   0.410
99590W        W64751  43.051  35.840  14.816
99591W        W64752  38.787  35.522   1.230
99592W        W64753  33.277  24.071  14.727
99593W        W64754  15.218   6.341   4.506
99594W        W64755   7.279   7.370  11.141
99595W        W64756  27.446  11.315  14.032
99596W        W64757  24.670  22.564  13.988
99597W        W64758  35.222  13.879   3.713
99598W        W64759  38.961  28.882   0.418
99599W        W64760  30.472  22.450   0.350
99600W        W64761  14.652  31.600   3.618
99601W        W64762   6.127  24.161   3.712
99602W        W64763  12.119  21.122   2.455
99603W        W64764   4.921   2.246  14.839
99604W        W64765  31.987   3.529  10.735
99605W        W64766  38.382  36.932  14.281
99606W        W64767   3.886   0.600   3.466
99607W        W64768  13.202  21.481  14.421
99608W        W64769  42.572  13.645   4.122
99609W        W64770   3.391  18.182   1.601
99610W        W64771  31.679  35.800   1.467
99611W        W64772   5.057  15.258  13.280
99612W        W64773  44.132  38.990   4.191
99613W        W64774   3.768  16.741  11.820
99614W        W64775  26.991  10.768  12.046
99615W        W64776   5.957  40.330   0.292
99616W        W64777   3.541   2.805   4.122
99617W        W64778   9.248  16.196  11.052
99618W        W64779  31.662  12.585   0.938
99619W        W64780   0.307  42.355  14.109
99620W        W64781  29.871  16.596  14.924
99621W        W64782  30.852  32.289   1.804
99622W        W64783  21.299  39.824  11.368
99623W        W64784  30.194   7.167  12.856
99624W        W64785   8.196  17.251  12.547
99625W        W64786   7.737  23.309   5.007
99626W        W64787  34.978   5.225  13.040
99627W        W64788  42.990  28.747   0.699
99628W        W64789  19.220   6.660  13.839
99629W        W64790   4.391   7.916  11.524
99630W        W64791  11.353   8.338  11.045
99631W        W64792  22.687  41.719   1.540
99632W        W64793   5.451  22.138   1.932
99633W        W64794  25.582  33.338  14.477
99634W        W64795  12.190  19.952   1.385
99635W        W64796  29.104  33.837  10.592
99636W        W64797  43.315  39.038  13.409
99637W        W64798  40.410  14.218  14.950
99638W        W64799   7.616   8.749   3.110
99639W        W64800   2.857  40.473   2.604
99640W        W64801  35.289  12.193  14.388
99641W        W64802  35.365   5.331  11.197
99642W        W64803   9.779  22.312  11.193
99643W        W64804   3.420   7.526  12.670
99644W        W64805  23.399  41.598   3.272
99645W        W64806   5.916   3.950  13.473
99646W        W64807  26.683  20.834  14.550
99647W        W64808  34.909  21.573   1.996
99648W        W64809  41.288   3.483   2.702
99649W        W64810  37.857  19.753   1.132
99650W        W64811  23.692  26.148   3.014
99651W        W64812  35.575  39.524   1.869
99652W        W64813  16.050  20.224   4.031
99653W        W64814  29.209  25.038   1.817
99654W        W64815  13.075  21.731  13.968
99655W        W64816  32.945  19.085  11.189
99656W        W64817  17.106  35.087   3.705
99657W        W64818  36.704  29.494  13.818
99658W        W64819  26.974   3.535  12.479
99659W        W64820  22.207  17.796  13.455
99660W        W64821   2.676  18.650   1.851
99661W        W64822  31.333  40.087   1.624
99662W        W64823  11.110   5.355   3.413
99663W        W64824   0.463   6.166   0.494
99664W        W64825  44.818  32.114   1.841
99665W        W64826  42.293  18.762  11.694
99666W        W64827  34.128  15.781  10.440
99667W        W64828   6.375   1.686   4.092
99668W        W64829  18.430  21.678  13.021
99669W        W64830  17.213   8.493   4.842
99670W        W64831  41.850  30.507   1.491
99671W        W64832  17.226  35.583  12.003
99672W        W64833  42.093   6.392   3.557
99673W        W64834  29.684  11.342  11.472
99674W        W64835   2.759   9.372   3.645
99675W        W64836   5.180  21.147   0.503
99676W        W64837   0.559  43.354   2.658
99677W        W64838  25.909  22.246  12.189
99678W        W64839  40.507  21.208   4.040
99679W        W64840  41.107  28.981  11.589
99680W        W64841  27.861  12.704  10.777
99681W        W64842  21.553  24.362  10.753
99682W        W64843  43.168  25.897  14.972
99683W        W64844  21.827  13.455   0.315
99684W        W64845   7.588  43.676  12.645
99685W        W64846  44.730   6.872   0.623
99686W        W64847  38.364  38.484   3.760
99687W        W64848  34.319  37.771   1.802
99688W        W64849  42.228  40.357   3.234
99689W        W64850  28.949  11.861   1.328
99690W        W64851  40.227  35.046  14.926
99691W        W64852   0.652   4.316   3.802
99692W        W64853  42.396  20.975  11.241
99693W        W64854   3.127   5.150  11.485
99694W        W64855   7.499  33.065  13.177
99695W        W64856  36.852  19.795  11.167
99696W        W64857  16.561  35.804   3.769
99697W        W64858   3.269  33.749   4.803
99698W        W64859   4.967  38.034   4.555
99699W        W64860  43.936   9.237   2.232
99700W        W64861  14.802  40.657   0.153
99701W        W64862   0.333  36.577   2.734
99702W        W64863  19.311   2.264   5.015
99703W        W64864  37.540  44.475  10.667
99704W        W64865  25.193  38.436  11.745
99705W        W64866  42.248  25.683  13.372
99706W        W64867  37.508   7.595  14.997
99707W        W64868  38.822  11.694   4.550
99708W        W64869  17.716  22.270   2.608
99709W        W64870  28.472   6.615  10.597
99710W        W64871  21.380  23.383   4.900
99711W        W64872   8.301  16.323   3.191
99712W        W64873   9.621  26.258  14.356
99713W        W64874  13.477  33.512   2.836
99714W        W64875   0.518  18.929   0.385
99715W        W64876  10.125  35.571   1.875
99716W        W64877  40.875  35.023   2.624
99717W        W64878  12.232  18.297   4.268
99718W        W64879  25.167  36.799   1.754
99719W        W64880   3.207  15.241  13.369
99720W        W64881  22.522   0.363   3.748
99721W        W64882  16.572  13.572  12.334
99722W        W64883  27.139  13.274   1.234
99723W        W64884  12.824  11.578  13.947
99724W        W64885  41.602   7.185  13.413
99725W        W64886  12.816  23.903  14.444
99726W        W64887   8.815  13.774  11.477
99727W        W64888  28.944  16.841   1.714
99728W        W64889   2.683  19.399   4.765
99729W        W64890  24.821  26.451   5.102
99730W        W64891  13.353  39.336  13.166
99731W        W64892   6.537  33.351  11.952
99732W        W64893  17.966   3.979   0.743
99733W        W64894   7.144  32.531   4.531
99734W        W64895  17.624   8.927  10.256
99735W        W64896   4.925  14.773   3.273
99736W        W64897  39.780  22.253  14.442
99737W        W64898  24.587   6.221   3.604
99738W        W64899  11.905  16.128   0.392
99739W        W64900   6.983  43.093   1.295
99740W        W64901  23.281  24.968   5.037
99741W        W64902  13.006  24.596  14.870
99742W        W64903  38.127  41.974   2.773
99743W        W64904  17.700   4.301  14.098
99744W        W64905  11.775  15.516  12.463
99745W        W64906  16.629  24.072  12.035
99746W        W64907  12.246  42.784  11.703
99747W        W64908   5.403  34.047   0.238
99748W        W64909  16.193   2.538  11.124
99749W        W64910  33.998   2.482  10.811
99750W        W64911  29.013   5.752   0.886
99751W        W64912  33.546   1.983  14.896
99752W        W64913  44.968  17.574   1.801
99753W        W64914  14.734  35.022  12.939
99754W        W64915  26.857  15.918   5.006
99755W        W64916  16.269  25.621  13.479
99756W        W64917  10.944  41.490   0.386
99757W        W64918   6.861  14.067  10.778
99758W        W64919  14.704   8.876   4.108
99759W        W64920  36.394  17.284  11.552
99760W        W64921  20.221   6.142   3.622
99761W        W64922  24.153  25.064   2.137
99762W        W64923  20.150  26.040   2.852
99763W        W64924  15.600  44.466  11.652
99764W        W64925  23.190  34.731  14.495
99765W        W64926   8.899  36.497  12.441
99766W        W64927  17.511  12.557  12.935
99767W        W64928  43.428  37.537   3.121
99768W        W64929   2.361   8.762  12.046
99769W        W64930  13.393   7.327  10.778
99770W        W64931   6.210  39.682   2.017
99771W        W64932  38.461  12.754  13.159
99772W        W64933  39.866  21.768   2.269
99773W        W64934  43.021  18.043  13.066
99774W        W64935  25.335   6.922  12.424
99775W        W64936  10.883  12.803   2.738
99776W        W64937  16.203  44.285   0.688
99777W        W64938  28.476  40.527   4.624
99778W        W64939   5.458  41.910   3.343
99779W        W64940  31.470  11.273   0.563
99780W        W64941  20.516  42.221  14.349
99781W        W64942  16.062  42.953   2.590
99782W        W64943  36.662  24.754  11.828
99783W        W64944  34.879  34.486  12.315
99784W        W64945  29.892  26.252  11.442
99785W        W64946  26.150  18.808  11.500
99786W        W64947  37.696  24.087   2.592
99787W        W64948  21.072  27.272   3.479
99788W        W64949  28.603  31.096  14.004
99789W        W64950   3.744  26.282   2.133
99790W        W64951  22.450   8.069   9.730
99791W        W64952  37.912  14.647  10.783
99792W        W64953  15.297   7.412  10.683
99793W        W64954   1.903  20.174   4.865
99794W        W64955   7.286   7.441   2.211
99795W        W64956  13.769  31.106   3.689
99796W        W64957  34.525   3.411   3.391
99797W        W64958  30.716  34.102   2.632
99798W        W64959  12.010  43.503   0.188
99799W        W64960  12.359  23.521   0.363
99800W        W64961  38.793  43.333   4.545
99801W        W64962  36.278  18.386   0.978
99802W        W64963  22.191  19.757  12.126
99803W        W64964  14.178   5.129   2.362
99804W        W64965  11.826  35.215  12.912
99805W        W64966  28.596  21.808  11.582
99806W        W64967  32.696   3.625  12.834
99807W        W64968  11.353  33.753  10.424
99808W        W64969  34.481  41.664   3.524
99809W        W64970  26.425  36.413  11.611
99810W        W64971  26.269  17.559  10.892
99811W        W64972  34.395  21.779   1.143
99812W        W64973  14.000  39.414  14.964
99813W        W64974  41.542  27.421  10.705
99814W        W64975  23.022  36.464   4.226
99815W        W64976  27.593  12.815  10.217
99816W        W64977  41.148  41.867  10.723
99817W        W64978  41.247  16.569  14.356
99818W        W64979  41.353  29.407   2.951
99819W        W64980  25.801  14.184   4.584
99820W        W64981  14.310  29.501  10.710
99821W        W64982  32.152   6.155  11.508
99822W        W64983  25.686  12.808   3.556
99823W        W64984  20.621  31.508  13.930
99824W        W64985   9.646  15.682   2.720
99825W        W64986  33.889   0.770  11.026
99826W        W64987  19.344  38.553   2.764
99827W        W64988  15.190  13.302  11.493
99828W        W64989  19.645  41.281  10.919
99829W        W64990  42.754  30.943  11.742
99830W        W64991  32.638   1.223  10.608
99831W        W64992  31.935  21.207   3.754
99832W        W64993  31.728  31.342  10.969
99833W        W64994   3.504  43.773  12.575
99834W        W64995  31.961  44.749   3.136
99835W        W64996  42.226  34.866  11.156
99836W        W64997  30.052   9.858  10.974
99837W        W64998  30.360   1.324  13.958
99838W        W64999  42.917  11.744  14.502
99839W        W65000  27.759  25.828   4.032
99840W        W65001  33.377  19.671  13.808
99841W        W65002   9.650  38.043  11.585
99842W        W65003  23.778   7.641   0.450
99843W        W65004  44.653  24.055   9.796
99844W        W65005   3.468  13.122   0.240
99845W        W65006  22.087  13.617   2.167
99846W        W65007  26.399  17.477   2.217
99847W        W65008  43.295  41.229  11.609
99848W        W65009  23.232  24.340  10.383
99849W        W65010  26.009  19.951   0.485
99850W        W65011  44.048   1.984  14.923
99851W        W65012   7.725  42.712   2.336
99852W        W65013  10.605   9.645   2.392
99853W        W65014  24.810  39.226  13.713
99854W        W65015  11.342  41.295   2.689
99855W        W65016  18.238  36.803  13.307
99856W        W65017  34.920  35.967   0.035
99857W        W65018  17.538  27.666   0.745
99858W        W65019  20.810  19.839   1.362
99859W        W65020   1.820  40.132  10.741
99860W        W65021  30.157  42.852   0.951
99861W        W65022  39.945  25.627  13.420
99862W        W65023  11.358  16.554  11.153
99863W        W65024   8.243  21.190   2.900
99864W        W65025  13.835  19.029   4.316
99865W        W65026  43.270  37.104   0.887
99866W        W65027  10.233  30.639   1.384
99867W        W65028  41.028  37.267  12.488
99868W        W65029  28.437  17.784   0.952
99869W        W65030  30.439  13.208   3.591
99870W        W65031  21.507  15.985   0.432
99871W        W65032  20.184   6.220   0.731
99872W        W65033  12.336  36.930  13.464
99873W        W65034  41.003  38.477  14.226
99874W        W65035  32.688  15.647  12.915
99875W        W65036  35.170  39.235   2.025
99876W        W65037  37.529  31.574   3.748
99877W        W65038  43.021  31.077   2.198
99878W        W65039  36.560  18.605   1.731
99879W        W65040  34.348  21.538   1.593
99880W        W65041  43.387  37.880   0.257
99881W        W65042  38.512  12.396   3.222
99882W        W65043  36.036   2.148  14.889
99883W        W65044  33.434   9.933   3.174
99884W        W65045  38.934  36.094   3.722
99885W        W65046   8.458  12.657  13.427
99886W        W65047  25.213   9.761   3.140
99887W        W65048  21.031  36.198  10.482
99888W        W65049  18.224  38.458   0.916
99889W        W65050  27.022  18.275  10.741
99890W        W65051  43.387  36.534   1.713
99891W        W65052  11.372  28.854  13.877
99892W        W65053   1.563  29.846   1.917
99893W        W65054  31.101  30.833   3.847
99894W        W65055  37.416   0.962   2.799
99895W        W65056  32.037   4.227  14.656
99896W        W65057  35.830  26.091   1.961
99897W        W65058   7.115  11.248  11.728
99898W        W65059   8.172   4.954   4.355
99899W        W65060   9.504  15.401  11.212
99900W        W65061  40.972  38.859   1.549
99901W        W65062  34.942  42.120   3.234
99902W        W65063   9.214   9.692  12.490
99903W        W65064   6.467  33.435   3.688
99904W        W65065  22.956  26.899   1.040
99905W        W65066   2.196  44.146  14.814
99906W        W65067  14.843  39.424   9.932
99907W        W65068  24.716   8.914   2.946
99908W        W65069  10.833   3.145  14.040
99909W        W65070   6.672   6.599   4.107
99910W        W65071  21.014  41.374  11.220
99911W        W65072  29.075  29.192   0.715
99912W        W65073  33.691  22.087   0.788
99913W        W65074  22.595  39.058  10.522
99914W        W65075   2.156  12.682   0.464
99915W        W65076  17.032  12.290   4.123
99916W        W65077  10.186  16.605   1.860
99917W        W65078   5.704   8.012  11.516
99918W        W65079  41.542  41.447  12.107
99919W        W65080  15.011  19.093  10.576
99920W        W65081  41.106  38.624   1.028
99921W        W65082   5.955  26.528  10.743
99922W        W65083  13.910  14.849  14.373
99923W        W65084   1.675  20.164  12.403
99924W        W65085  17.516  38.836  12.966
99925W        W65086  15.148  21.050  13.845
99926W        W65087  38.346  35.048   0.450
99927W        W65088  38.984  36.064   2.633
99928W        W65089  10.520  18.597  14.804
99929W        W65090   0.901  31.697  11.726
99930W        W65091  42.566  25.205  13.342
99931W        W65092  11.333   9.610   3.780
99932W        W65093  38.602   8.837   4.782
99933W        W65094  28.069  17.539   0.400
99934W        W65095   1.546  39.080   0.714
99935W        W65096   3.408  39.556  12.304
99936W        W65097  17.081  28.705   4.757
99937W        W65098  39.886  41.022  13.935
99938W        W65099  36.891   8.227   2.585
99939W        W65100   6.717  43.818   1.786
99940W        W65101  30.514  41.780   0.749
99941W        W65102  40.475  42.447  11.193
99942W        W65103   5.131  33.929   2.867
99943W        W65104  35.234  43.548   1.898
99944W        W65105  24.196  31.843  12.271
99945W        W65106  11.847  42.601  10.960
99946W        W65107  44.348  16.834  14.692
99947W        W65108  14.875  21.259  14.438
99948W        W65109  41.809  13.916   3.884
99949W        W65110  39.311   9.854  12.317
99950W        W65111  41.569   6.139  12.298
99951W        W65112  32.434  27.517  13.408
99952W        W65113  11.177  22.792  11.059
99953W        W65114  43.293  26.652  11.275
99954W        W65115   9.300   6.462   1.768
99955W        W65116  43.170  44.686   1.429
99956W        W65117   9.104  33.498   4.396
99957W        W65118  18.265  37.550  13.041
99958W        W65119  26.220  43.752   2.450
99959W        W65120   0.966   4.300  10.697
99960W        W65121  33.874  12.831  10.454
99961W        W65122   4.802   2.701  12.337
99962W        W65123  29.110  39.107  14.103
99963W        W65124  10.421  18.139  11.918
99964W        W65125  21.079  26.947  11.868
99965W        W65126  36.984   2.758   0.215
99966W        W65127  33.518  36.528  12.935
99967W        W65128  39.977   2.322  10.510
99968W        W65129   1.933  32.811  14.098
99969W        W65130  34.327   7.680  12.981
99970W        W65131  29.368  24.903   4.066
99971W        W65132  36.959  11.229  11.684
99972W        W65133  16.108  23.404  11.894
99973W        W65134  36.953  42.527   4.173
99974W        W65135  21.487  11.828   2.366
99975W        W65136   1.991  35.293   0.819
99976W        W65137  21.993  18.746   1.473
99977W        W65138  12.838  21.964   0.818
99978W        W65139   8.167  36.821  12.715
99979W        W65140   1.697  41.645   0.246
99980W        W65141  26.536   9.637  10.885
99981W        W65142  37.505   9.222  11.197
99982W        W65143  29.648  33.726   3.128
99983W        W65144  28.457  27.954   0.962
99984W        W65145  13.893   8.240  14.326
99985W        W65146   2.545   4.327  11.619
99986W        W65147  40.911  26.142   3.372
99987W        W65148  22.990  12.264  11.699
99988W        W65149  27.193   2.842   0.725
99989W        W65150  25.742  17.650  12.673
99990W        W65151   9.400  22.695  13.339
99991W        W65152  23.654   4.164  14.284
99992W        W65153  13.369   4.961  13.530
99993W        W65154  11.330  11.762   4.559
99994W        W65155  44.842  43.403   3.195
99995W        W65156  27.698  14.799  11.056
99996W        W65157  21.954  43.913  14.928
99997W        W65158   1.836   7.947  11.178
99998W        W65159   7.249   5.707  12.727
99999W        W65160  18.341  13.082   2.410
    0W        W65161  20.013  32.836  14.848
    1W        W65162  40.791  37.216  14.036
    2W        W65163  27.156  44.407  11.622
    3W        W65164  10.142  33.469  11.194
    4W        W65165  35.574  43.031   0.991
    5W        W65166  19.703  40.263  10.440
    6W        W65167  30.830  32.709   1.502
    7W        W65168  41.346   1.720   0.986
    8W        W65169  21.582  41.351  14.781
    9W        W65170  14.288  20.175   2.579
   10W        W65171  10.815  29.187  14.342
   11W        W65172  33.115  10.745  12.923
   12W        W65173  33.436  42.087   4.152
   13W        W65174   2.566  44.308   0.154
   14W        W65175  27.356  12.697  10.706
   15W        W65176  22.128   3.228   1.362
   16W        W65177  31.781  26.186  14.908
   17W        W65178   7.620  13.834  13.047
   18W        W65179   9.174  24.359  11.581
   19W        W65180   8.236  14.085   4.577
   20W        W65181  42.313  11.338   4.685
   21W        W65182  17.261  39.190  14.440
   22W        W65183  27.683  10.407  11.132
   23W        W65184   7.279  10.937  14.067
   24W        W65185  13.053   5.314   2.954
   25W        W65186  12.575  35.580   4.568
   26W        W65187  10.213  16.288   3.667
   27W        W65188  17.760  32.976   4.858
   28W        W65189  25.323  24.602  14.661
   29W        W65190  38.210   3.891   0.763
   30W        W65191  35.965  23.315  14.898
   31W        W65192  20.703  24.769   4.518
   32W        W65193  23.989  40.289  11.170
   33W        W65194  12.937  38.366   2.338
   34W        W65195  32.479  38.549  12.153
   35W        W65196  12.233  35.852  14.906
   36W        W65197  41.883  32.534   2.695
   37W        W65198  36.723  26.185   2.346
   38W        W65199  13.027  28.704  11.621
   39W        W65200   5.790  40.619   2.742
   40W        W65201  32.208  11.133   2.332
   41W        W65202  12.175  11.647  12.086
   42W        W65203  18.769  11.746   0.690
   43W        W65204  10.021  18.983   3.571
   44W        W65205  26.089   7.317  11.488
   45W        W65206  24.163  33.586   3.413
   46W        W65207  31.958   8.318   0.200
   47W        W65208   7.631  27.794  12.619
   48W        W65209  25.419  18.766   0.320
   49W        W65210  36.019  11.434   4.469
   50W        W65211  12.704  20.509   0.506
   51W        W65212  17.509  10.108  13.548
   52W        W65213  21.473  14.785   2.304
   53W        W65214  19.269  11.828  13.604
   54W        W65215  41.360   6.272  13.245
   55W        W65216  29.303  42.386  11.668
   56W        W65217  14.975  13.297   3.881
   57W        W65218  36.523  41.643   4.468
   58W        W65219  43.099  11.821  11.074
   59W        W65220  10.815  15.115  13.949
   60W        W65221  12.643  27.674  11.658
   61W        W65222  24.532   0.500   3.795
   62W        W65223  25.582  24.490   2.595
   63W        W65224  30.980  20.108   2.023
   64W        W65225  37.367  14.710   2.548
   65W        W65226  14.629  16.854  14.834
   66W        W65227  16.085  15.007  14.849
   67W        W65228  15.213  32.893   0.405
   68W        W65229  17.832  22.648   0.376
   69W        W65230  31.964  29.486   4.134
   70W        W65231  30.549  24.344  12.909
   71W        W65232   2.446  41.929  12.408
   72W        W65233  15.175  44.436   2.467
   73W        W65234  14.596  44.013  14.528
   74W        W65235   8.624  17.113   0.306
   75W        W65236  39.829  31.903   2.675
   76W        W65237  11.143  39.479   3.176
   77W        W65238  16.479  15.715   4.372
   78W        W65239   3.856  33.472  14.838
   79W        W65240  12.141   2.018  13.096
   80W        W65241  15.303   2.045   1.433
   81W        W65242   5.538  20.776   0.328
   82W        W65243  12.604  17.090   2.727
   83W        W65244   2.191  27.549   0.004
   84W        W65245  29.075  12.660   1.717
   85W        W65246   1.751  41.122  10.776
   86W        W65247  15.486  19.778   4.591
   87W        W65248  13.731  34.807   1.904
   88W        W65249  14.645  10.394  10.185
   89W        W65250  13.251  27.249  11.236
   90W        W65251  12.722  36.733   1.021
   91W        W65252   5.308  38.895  11.150
   92W        W65253  11.207  30.415   3.266
   93W        W65254  16.759  44.111   4.144
   94W        W65255  35.633  27.890   0.391
   95W        W65256  10.361   0.628  12.037
   96W        W65257  21.057  39.012  11.949
   97W        W65258  11.836  17.905   4.923
   98W        W65259   4.488  29.573  11.877
   99W        W65260  31.823  35.765   2.011
  100W        W65261  15.716  36.590   2.728
  101W        W65262  30.906  25.527  14.022
  102W        W65263  40.828  33.039  13.724
  103W        W65264   2.509  35.284   0.946
  104W        W65265  44.675  43.565  12.665
  105W        W65266  17.804  23.592   2.674
  106W        W65267  36.138  22.682  13.459
  107W        W65268   9.175  31.355  10.701
  108W        W65269  26.278  28.649   3.998
  109W        W65270  16.686  25.930  12.051
  110W        W65271  20.685  11.050   2.641
  111W        W65272  36.596  19.614  14.342
  112W        W65273  15.019   1.431   0.898
  113W        W65274  10.367  42.414  14.981
  114W        W65275  40.951  29.408   2.175
  115W        W65276   1.213  12.851  13.914
  116W        W65277   0.301  22.656  12.099
  117W        W65278  11.679  16.785  10.499
  118W        W65279   5.316  10.207   2.555
  119W        W65280  20.191  26.923  11.586
  120W        W65281  25.487  39.933  12.549
  121W        W65282  36.300  39.567  13.999
  122W        W65283  39.365  27.683   0.444
  123W        W65284  11.184  43.862  13.101
  124W        W65285  20.968   6.337   1.903
  125W        W65286  17.854   5.944  14.638
  126W        W65287  41.505   3.620  14.702
  127W        W65288  42.750  12.581  14.827
  128W        W65289  36.526   3.275   4.247
  129W        W65290  10.868  12.778  11.300
  130W        W65291   7.224  18.769  14.867
  131W        W65292   4.414   3.003  12.082
  132W        W65293  26.515  28.540  14.403
  133W        W65294  17.262  27.492   1.426
  134W        W65295   6.205  37.305  14.864
  135W        W65296  33.291  25.728   4.737
  136W        W65297  26.477  21.307  13.448
  137W        W65298   8.636  44.697   2.392
  138W        W65299  31.824  24.238   0.851
  139W        W65300  22.143  31.856  11.598
  140W        W65301  24.632   4.369   2.950
  141W        W65302  41.356  26.754   1.793
  142W        W65303  41.497   1.385   3.859
  143W        W65304   9.166   5.872   4.863
  144W        W65305  10.641   1.108  13.300
  145W        W65306  43.570  41.262   3.541
  146W        W65307  41.937   7.909  14.856
  147W        W65308  35.783   5.833  14.479
  148W        W65309   9.886  10.369  13.506
  149W        W65310  22.684  29.071   1.320
  150W        W65311  25.210  14.169  13.923
  151W        W65312  41.548  12.180   1.237
  152W        W65313   4.620   3.226   2.756
  153W        W65314  40.886  26.323   4.287
  154W        W65315   2.496   4.687  12.008
  155W        W65316   5.325  15.370  12.829
  156W        W65317  22.442  13.287   4.943
  157W        W65318   2.757  13.639   0.994
  158W        W65319  44.269  43.457   3.787
  159W        W65320  38.499  12.928   3.159
  160W        W65321  37.608   2.787   2.874
  161W        W65322  33.337  29.315  13.676
  162W        W65323  28.925  17.678  13.544
  163W        W65324  36.118  25.330  12.462
  164W        W65325   2.503  30.468   3.248
  165W        W65326  22.157  32.255   1.375
  166W        W65327   2.384  13.922  10.159
  167W        W65328  35.353   9.687   2.302
  168W        W65329  25.034  32.160  14.840
  169W        W65330  35.234  21.987   2.852
  170W        W65331   5.851  43.273   4.212
  171W        W65332  39.220   3.260   4.361
  172W        W65333  34.435   0.855   4.600
  173W        W65334  14.574   4.857  12.332
  174W        W65335  24.744  11.838   0.982
  175W        W65336  32.960  25.127   2.959
  176W        W65337  32.840  36.079   2.508
  177W        W65338  27.521  10.714   2.692
  178W        W65339  42.447  27.753  14.458
  179W        W65340   4.004  37.173   4.167
  180W        W65341  26.236  30.056  14.979
  181W        W65342  37.626   7.854  12.915
  182W        W65343   4.454   8.203  12.393
  183W        W65344  37.321  42.986  12.341
  184W        W65345  31.981   1.334  10.673
  185W        W65346  38.860  32.362  14.440
  186W        W65347  29.448  15.024   4.088
  187W        W65348  18.973  19.526   3.514
  188W        W65349  25.934   9.283  14.285
  189W        W65350   2.656  19.672  10.541
  190W        W65351  43.034  40.456  10.727
  191W        W65352  39.385  20.528   3.403
  192W        W65353  36.523  13.129   3.603
  193W        W65354  28.534  24.604   2.740
  194W        W65355  42.794   8.402   1.136
  195W        W65356  43.967  18.571   4.422
  196W        W65357  22.418  41.279  11.907
  197W        W65358  29.171   9.886  13.486
  198W        W65359  17.095  29.490  14.930
  199W        W65360   6.697  20.809  13.207
  200W        W65361  31.426  35.890   4.619
  201W        W65362  35.175   2.167   2.396
  202W        W65363  15.070  20.799  14.281
  203W        W65364  21.562   3.544   0.730
  204W        W65365  31.050  29.512  13.902
  205W        W65366  42.332   2.465   3.503
  206W        W65367   8.698  14.744   0.350
  207W        W65368  10.304  30.112  10.681
  208W        W65369  24.579  38.086  14.823
  209W        W65370  11.948   8.527   0.993
  210W        W65371  39.429   4.719   3.166
  211W        W65372  19.334  32.544   1.283
  212W        W65373  42.134  14.374  11.388
  213W        W65374   0.510  28.611   4.490
  214W        W65375  26.814  21.760  12.162
  215W        W65376   2.205  35.479  11.010
  216W        W65377  31.061  43.012   4.033
  217W        W65378  15.808  31.042  11.280
  218W        W65379  29.883  37.841  14.967
  219W        W65380  34.336   0.974   0.950
  220W        W65381  10.430  39.566   2.725
  221W        W65382   3.268  19.201   3.632
  222W        W65383  22.097  28.221  10.882
  223W        W65384  15.954  44.913   4.528
  224W        W65385   3.612   6.237   0.242
  225W        W65386  43.374  40.308  14.955
  226W        W65387   9.766   3.313  11.090
  227W        W65388  32.874   7.448   1.016
  228W        W65389   1.995  40.735  14.438
  229W        W65390  44.592  13.548  14.407
  230W        W65391   2.891   1.227  13.882
  231W        W65392  40.449   9.868  11.624
  232W        W65393  40.085  21.734  13.611
  233W        W65394  23.733  25.998  10.635
  234W        W65395  38.074  13.769  14.494
  235W        W65396  32.875  37.076  14.850
  236W        W65397  12.835  32.862  13.515
  237W        W65398  39.891  40.878   0.366
  238W        W65399  23.194  16.154   1.484
  239W        W65400  13.647  21.779  11.180
  240W        W65401   3.639  29.656   4.177
  241W        W65402  23.274  36.007   4.153
  242W        W65403   3.661  36.998   2.956
  243W        W65404  42.169  37.985  12.447
  244W        W65405  15.848  13.689   4.069
  245W        W65406  43.086  33.897   3.780
  246W        W65407  39.573   1.807   2.353
  247W        W65408   5.146  42.385  12.775
  248W        W65409  28.528  39.715  14.215
  249W        W65410  39.411   3.055  13.461
  250W        W65411  16.264  37.263   1.736
  251W        W65412  19.111   7.927   2.094
  252W        W65413  13.336  42.561  14.776
  253W        W65414   2.931  27.145  10.499
  254W        W65415  15.002  31.614  13.073
  255W        W65416  26.981  12.234  14.628
  256W        W65417   3.318  29.945  10.372
  257W        W65418  43.883  30.700   1.835
  258W        W65419  27.559  21.736  12.577
  259W        W65420  40.841  14.736   0.958
  260W        W65421  17.155  34.177  10.218
  261W        W65422   2.734  16.454  11.559
  262W        W65423  24.612  34.779  13.972
  263W        W65424   7.826  23.598   0.472
  264W        W65425  31.972   6.716   2.669
  265W        W65426   1.560  15.574   1.599
  266W        W65427  37.437  25.154   2.248
  267W        W65428  37.953  21.303   3.137
  268W        W65429  14.413  43.491   4.026
  269W        W65430  21.246  12.922  13.534
  270W        W65431  11.265  34.328   2.738
  271W        W65432  33.953  14.085   3.567
  272W        W65433  16.050  20.589   4.635
  273W        W65434   5.859  18.934  14.424
  274W        W65435   0.310  24.946   2.826
  275W        W65436  22.607  37.035  14.300
  276W        W65437  40.768   5.901  11.637
  277W        W65438  25.262  23.135   0.919
  278W        W65439  32.367  32.166   0.121
  279W        W65440  43.057   9.767   3.636
  280W        W65441  17.063  38.903  10.601
  281W        W65442  32.773  18.273   1.341
  282W        W65443   1.871  24.634  12.621
  283W        W65444  32.548  10.960   1.714
  284W        W65445  28.646  30.896   4.552
  285W        W65446  11.710  35.738  12.932
  286W        W65447  38.482  41.769   1.834
  287W        W65448  28.350  31.502  13.786
  288W        W65449   6.629  31.202   4.247
  289W        W65450  38.570  12.978  13.621
  290W        W65451  25.144  17.054  14.766
  291W        W65452  30.441  37.863   3.395
  292W        W65453  35.923  39.206  11.470
  293W        W65454  10.804  29.468  11.111
  294W        W65455  25.981  37.846  14.453
  295W        W65456  30.832  26.835   4.706
  296W        W65457  41.443  12.330   4.673
  297W        W65458  31.579   5.397  13.593
  298W        W65459  20.870   1.595   3.139
  299W        W65460  28.993  36.628  10.797
  300W        W65461  18.172  36.692   3.562
  301W        W65462  39.524  14.288   0.842
  302W        W65463  11.856  29.086  12.935
  303W        W65464   7.480  32.122   4.188
  304W        W65465   4.750  36.798   4.568
  305W        W65466  15.055  29.075  10.499
  306W        W65467   1.803  26.059   1.791
  307W        W65468   4.006   7.856   4.138
  308W        W65469  11.325  36.971   3.863
  309W        W65470  32.148  11.795   3.542
  310W        W65471   3.178  30.690   4.990
  311W        W65472  15.167  17.605   3.765
  312W        W65473  41.710   5.045   1.151
  313W        W65474  38.100  34.626   0.728
  314W        W65475  43.832  34.948  13.592
  315W        W65476  22.214   0.479   3.149
  316W        W65477  43.376  33.940  14.288
  317W        W65478  43.929   7.656   2.947
  318W        W65479  36.109  35.558  14.853
  319W        W65480  28.571  32.020  11.170
  320W        W65481  39.236   6.259   4.736
  321W        W65482  15.838  29.007  13.501
  322W        W65483  43.553  33.539  10.222
  323W        W65484  32.892  12.196   4.166
  324W        W65485   1.820   5.338   1.008
  325W        W65486  39.381  10.604   1.666
  326W        W65487  29.377   3.802  14.398
  327W        W65488   6.886  43.331  13.180
  328W        W65489  35.931  43.730   4.014
  329W        W65490  29.110   6.263  14.384
  330W        W65491  29.787  38.782  11.398
  331W        W65492  26.972  32.605  11.688
  332W        W65493  22.753   5.430  13.064
  333W        W65494  21.289   8.009  11.170
  334W        W65495  15.066  32.587  12.281
  335W        W65496  13.316  29.921   4.080
  336W        W65497  28.241  36.863   4.105
  337W        W65498  25.665  15.305  11.306
  338W        W65499   7.573   5.235   2.391
  339W        W65500   3.797   5.998  10.776
  340W        W65501  22.677  35.940  10.931
  341W        W65502  30.484   5.379   0.825
  342W        W65503  29.021  28.580  14.413
  343W        W65504  31.294  39.948   4.754
  344W        W65505  15.777  15.131   4.504
  345W        W65506   0.313  33.270  13.967
  346W        W65507  32.361   7.514   2.749
  347W        W65508  27.442  41.405   1.824
  348W        W65509  15.284  11.262  12.441
  349W        W65510  17.769   1.687   4.711
  350W        W65511   5.861   0.850  14.122
  351W        W65512  43.895  29.453  13.559
  352W        W65513  36.359  22.973  12.455
  353W        W65514  43.542  30.158  13.940
  354W        W65515  15.154  34.392  14.286
  355W        W65516  21.019  25.084  14.306
  356W        W65517  32.082   1.969  14.743
  357W        W65518   0.503  34.443   2.705
  358W        W65519   0.847  22.154  13.345
  359W        W65520   1.903   0.366   4.394
  360W        W65521  31.166  31.204  13.556
  361W        W65522  41.472  20.552   0.286
  362W        W65523  28.849  44.355  14.394
  363W        W65524  34.036  27.464   2.429
  364W        W65525  37.998   8.963   3.035
  365W        W65526  11.125  35.395  10.694
  366W        W65527   5.666   1.007   2.170
  367W        W65528  34.654  44.422  13.415
  368W        W65529  13.187   8.408  14.129
  369W        W65530  21.776   8.358  10.388
  370W        W65531  22.721  24.503  12.810
  371W        W65532  11.342  30.618   0.322
  372W        W65533  34.384   3.541   0.885
  373W        W65534   0.937  29.567  10.680
  374W        W65535  31.501  41.144   1.446
  375W        W65536   8.741  28.363  13.071
  376W        W65537  11.693  19.448  11.418
  377W        W65538  28.358   7.317  12.020
  378W        W65539  15.713  25.985   4.214
  379W        W65540  42.571  43.786  12.959
  380W        W65541  18.800   7.262  14.329
  381W        W65542  28.518  27.873   2.659
  382W        W65543  20.544  34.866  10.420
  383W        W65544  22.925   3.482   4.907
  384W        W65545  29.120  22.088   0.513
  385W        W65546  10.789  30.105  10.508
  386W        W65547  26.860  21.267   5.856
  387W        W65548  11.432  38.164  11.083
  388W        W65549  36.165  37.024   1.256
  389W        W65550  24.762  27.941  12.136
  390W        W65551  38.334   9.239   3.903
  391W        W65552  15.289  21.097  12.867
  392W        W65553  21.500  38.306   0.751
  393W        W65554  36.292  15.746   2.630
  394W        W65555   8.223  10.598  10.125
  395W        W65556  11.714  18.037   4.418
  396W        W65557  16.660  17.764  14.999
  397W        W65558   8.332  40.857   1.884
  398W        W65559   7.674  12.140  12.955
  399W        W65560  41.205   4.011   0.666
  400W        W65561  28.338  26.422  14.396
  401W        W65562   2.638   8.238   3.192
  402W        W65563  39.013  11.678   0.381
  403W        W65564  16.848   4.603   2.725
  404W        W65565  26.510  18.077   4.086
  405W        W65566  17.999  40.414  11.971
  406W        W65567  42.901   4.984  11.118
  407W        W65568  36.454  24.681   3.624
  408W        W65569  44.356  28.260   4.030
  409W        W65570  39.945  42.507  14.498
  410W        W65571  14.275  10.678  11.046
  411W        W65572  43.445   3.371   4.137
  412W        W65573  43.160  35.502  12.581
  413W        W65574   5.670  31.008  13.217
  414W        W65575  25.454  37.260   4.318
  415W        W65576  31.380  41.450   3.221
  416W        W65577  31.611   3.805  13.370
  417W        W65578  23.499  17.257   2.488
  418W        W65579  13.564  41.411  12.533
  419W        W65580   9.253  33.565  10.709
  420W        W65581  14.615   1.755   4.402
  421W        W65582  28.689   3.163  11.937
  422W        W65583   3.251   1.883  14.977
  423W        W65584  23.056  10.692   3.202
  424W        W65585   4.535  24.549   2.841
  425W        W65586   6.695  17.206  13.847
  426W        W65587  12.383  28.950  14.453
  427W        W65588  39.979   2.966   4.715
  428W        W65589  25.909   7.876  13.764
  429W        W65590   6.765   6.566   1.806
  430W        W65591  37.657  33.604  12.869
  431W        W65592   9.729  34.110   0.880
  432W        W65593  27.205  23.332  13.636
  433W        W65594   6.859  34.040   2.266
  434W        W65595  17.045  16.237   9.918
  435W        W65596  22.763  16.250  11.629
  436W        W65597  36.949  21.106  12.453
  437W        W65598  10.648  10.868   0.378
  438W        W65599  35.919  31.350   2.630
  439W        W65600  38.047  42.012   1.868
  440W        W65601  26.113   8.490  11.999
  441W        W65602  16.041  17.974   4.190
  442W        W65603   3.091  18.703   3.617
  443W        W65604   4.781  33.246   4.129
  444W        W65605  12.203  22.762  14.842
  445W        W65606  11.580  14.384   5.122
  446W        W65607  38.339  13.135  12.324
  447W        W65608  22.088  17.725   4.830
  448W        W65609  32.458  32.144   4.072
  449W        W65610  12.996  30.682  11.693
  450W        W65611   7.711  44.333   1.077
  451W        W65612   0.823  37.618  13.254
  452W        W65613  10.401  42.880   3.515
  453W        W65614  14.408  21.164  10.256
  454W        W65615  19.092  39.259  14.017
  455W        W65616  16.558  13.538   3.689
  456W        W65617  40.362  16.056  14.776
  457W        W65618   1.657  19.672  10.737
  458W        W65619  29.977  17.269  12.944
  459W        W65620  40.315  29.452   4.520
  460W        W65621  29.530  14.298   3.130
  461W        W65622   0.154   4.928   1.166
  462W        W65623  32.386   8.623   0.899
  463W        W65624  13.598  11.272   1.445
  464W        W65625  26.043  16.758   3.216
  465W        W65626  33.166  29.142   2.212
  466W        W65627   3.866  40.094   4.400
  467W        W65628  42.767  27.115   2.935
  468W        W65629  42.524  30.000  14.822
  469W        W65630   5.858  13.958  11.191
  470W        W65631  36.592   6.904  10.727
  471W        W65632   9.690  33.482  10.957
  472W        W65633  21.849  32.435  11.749
  473W        W65634  39.058  21.384  11.196
  474W        W65635  16.582  41.938  14.508
  475W        W65636  11.252  43.717  13.610
  476W        W65637  32.872  37.588  13.511
  477W        W65638  29.044  28.139   0.897
  478W        W65639  43.281  12.902  13.427
  479W        W65640   3.038   4.691   1.854
  480W        W65641  31.188  37.960  12.049
  481W        W65642  41.572  36.106   1.662
  482W        W65643  29.721  33.358  13.388
  483W        W65644  40.477  14.990   1.486
  484W        W65645  35.720  26.529   2.236
  485W        W65646  37.021   5.242  14.753
  486W        W65647  38.249  10.016  10.059
  487W        W65648  38.275  36.206   3.146
  488W        W65649   9.590   0.344   3.149
  489W        W65650  13.905  41.834  12.478
  490W        W65651  17.728  43.767  12.962
  491W        W65652  41.795   5.330   0.401
  492W        W65653  13.624  23.666   4.643
  493W        W65654  23.185  32.311   3.782
  494W        W65655  10.802  22.010  14.741
  495W        W65656  10.226  28.378  12.918
  496W        W65657   9.300   2.876  11.534
  497W        W65658  32.128  40.404  10.660
  498W        W65659  12.166  22.178   4.723
  499W        W65660  15.584  30.633   2.954
  500W        W65661  15.093  29.451   3.325
  501W        W65662  44.543  10.246   1.771
  502W        W65663  27.190   7.396  13.890
  503W        W65664   0.440   9.397   0.688
  504W        W65665  21.729   6.630   0.436
  505W        W65666   7.601  21.341  14.386
  506W        W65667  22.283  42.976   4.469
  507W        W65668  22.187  14.539  11.564
  508W        W65669  30.861  25.660  12.577
  509W        W65670  33.101  14.754   4.814
  510W        W65671  39.968  44.428  11.947
  511W        W65672  16.219  35.023  14.402
  512W        W65673  29.440  21.035  11.657
  513W        W65674  34.587  37.386  11.532
  514W        W65675  10.268   1.734  10.619
  515W        W65676   7.717  28.695   1.365
  516W        W65677  31.679  38.661  13.505
  517W        W65678  39.084   4.991   0.348
  518W        W65679   5.944   3.317  12.870
  519W        W65680  20.027  37.393  12.285
  520W        W65681   3.381  16.781   0.098
  521W        W65682  24.961  21.010   4.661
  522W        W65683  42.546  15.326  12.469
  523W        W65684  40.315  11.269   3.199
  524W        W65685  39.943   0.664   2.609
  525W        W65686  25.955  24.969   3.255
  526W        W65687  13.158   2.680  11.426
  527W        W65688  24.518  32.193   3.332
  528W        W65689  22.789   2.991  14.809
  529W        W65690  27.967  43.187  11.874
  530W        W65691  25.160  25.874  12.198
  531W        W65692  26.219   3.375  11.217
  532W        W65693  21.986  37.893  14.852
  533W        W65694  39.584  28.275   3.675
  534W        W65695  16.634  26.571   0.825
  535W        W65696  12.850   3.108  13.400
  536W        W65697   6.256  15.200   1.777
  537W        W65698   7.375   0.648  11.067
  538W        W65699   6.726  20.414  14.779
  539W        W65700  17.602  43.871   1.733
  540W        W65701  29.369  41.842  12.950
  541W        W65702  22.977  24.984  14.453
  542W        W65703  14.743  19.187  14.041
  543W        W65704   1.180  14.670   1.949
  544W        W65705  19.253  28.661  13.435
  545W        W65706   3.856   3.985   1.920
  546W        W65707  32.201   7.443  13.089
  547W        W65708  35.072  10.741  10.716
  548W        W65709  18.605  28.201  12.875
  549W        W65710  40.287  16.271  12.828
  550W        W65711  28.786  20.560  13.489
  551W        W65712   4.490  36.886  14.258
  552W        W65713   9.280  43.025   4.098
  553W        W65714  25.275  18.348  13.427
  554W        W65715  34.099  38.238   4.267
  555W        W65716  21.544  23.790  14.797
  556W        W65717  18.095   8.897  14.842
  557W        W65718  17.315  28.038   1.031
  558W        W65719   3.197  18.142  10.679
  559W        W65720  38.612  44.720  12.527
  560W        W65721  38.812  20.276  13.838
  561W        W65722  26.891  32.127   2.790
  562W        W65723   6.450  33.087  14.697
  563W        W65724  34.034  27.889  11.986
  564W        W65725   4.992   7.723  12.027
  565W        W65726  10.387  33.145  12.471
  566W        W65727  37.414  25.641   2.549
  567W        W65728  38.419  36.078  10.383
  568W        W65729  27.247   1.643  14.962
  569W        W65730   3.853  18.078  11.144
  570W        W65731  28.467  27.154  12.409
  571W        W65732  20.341  34.590   3.654
  572W        W65733  38.189  44.483   0.936
  573W        W65734   5.771  34.740  11.627
  574W        W65735   9.307  39.129  12.539
  575W        W65736  40.276  27.189   4.609
  576W        W65737  33.400  20.347  12.469
  577W        W65738  44.917  31.361  12.588
  578W        W65739  41.934   6.399  13.259
  579W        W65740  23.512   8.104   3.722
  580W        W65741   5.283  17.656  10.750
  581W        W65742  22.014  32.156  13.084
  582W        W65743  25.187   3.537   2.679
  583W        W65744  11.221   4.020   1.509
  584W        W65745  13.761  38.594  14.876
  585W        W65746   4.887  13.544  13.453
  586W        W65747  41.222  11.896  13.340
  587W        W65748  37.745   3.787   0.992
  588W        W65749  11.794  22.526   4.664
  589W        W65750  15.668   4.782  12.890
  590W        W65751   0.391  43.362  11.248
  591W        W65752  10.772   2.273   4.108
  592W        W65753   4.852  39.089   2.901
  593W        W65754  18.064  44.782   0.179
  594W        W65755  25.760  41.911   2.358
  595W        W65756   6.132   7.719   2.727
  596W        W65757  24.674  11.411   2.216
  597W        W65758  23.963  35.445   3.028
  598W        W65759  30.606  34.372  14.851
  599W        W65760   1.355  32.925   0.793
  600W        W65761   2.978  40.305  14.308
  601W        W65762  32.843   0.745   2.184
  602W        W65763  10.457  31.314   0.215
  603W        W65764  20.993  10.823   0.706
  604W        W65765  11.870  27.810  12.585
  605W        W65766  22.235  38.929   0.333
  606W        W65767   3.427  31.354   2.606
  607W        W65768  11.184   9.560  12.709
  608W        W65769  38.560  41.860  11.577
  609W        W65770  29.096  12.868   3.450
  610W        W65771   4.962  22.819   1.195
  611W        W65772  33.944  35.134   4.953
  612W        W65773  19.687  36.510  14.001
  613W        W65774  39.298  42.808  13.941
  614W        W65775  14.678  43.867  10.310
  615W        W65776  34.814  25.814  11.056
  616W        W65777  13.484  22.563   3.817
  617W        W65778  40.556   3.986   2.817
  618W        W65779  18.822  40.061   3.657
  619W        W65780   2.382  25.735  11.213
  620W        W65781  21.952  13.700  13.585
  621W        W65782   8.133  43.242  11.013
  622W        W65783   0.695  41.886   0.482
  623W        W65784  43.220  18.041  12.388
  624W        W65785  16.301  36.894  14.350
  625W        W65786  39.997  24.708  14.424
  626W        W65787  41.399  34.195  13.713
  627W        W65788  21.264  35.481  14.090
  628W        W65789  28.010  41.857   0.777
  629W        W65790  41.626  36.241   2.158
  630W        W65791  20.230  25.034  10.575
  631W        W65792  37.511   0.434  10.720
  632W        W65793  33.960  44.269   3.365
  633W        W65794  43.786   0.918   2.801
  634W        W65795   4.443  29.065   4.405
  635W        W65796   3.240  19.232   2.237
  636W        W65797  25.050  28.909  11.712
  637W        W65798  35.465  39.390  12.377
  638W        W65799  41.716  18.160  12.128
  639W        W65800  23.241   6.981   4.087
  640W        W65801  23.948  31.000  10.789
  641W        W65802  38.753  43.228   3.146
  642W        W65803  15.191  15.327  14.491
  643W        W65804  35.506  13.364  14.379
  644W        W65805  12.406  37.875  11.056
  645W        W65806  28.902  11.204  14.624
  646W        W65807   1.099  40.498   3.555
  647W        W65808  42.726  23.214  11.043
  648W        W65809  35.880   7.622  13.585
  649W        W65810  10.726  21.615   4.644
  650W        W65811  21.471  37.623  14.415
  651W        W65812  32.546  31.205  14.669
  652W        W65813  26.416  23.908   2.809
  653W        W65814   5.830  40.403  10.729
  654W        W65815  38.896  34.149  14.750
  655W        W65816  22.841  15.872   9.903
  656W        W65817  44.444   3.590  10.417
  657W        W65818  23.223  22.023  14.694
  658W        W65819  22.152  14.585  12.633
  659W        W65820  17.229  41.390  12.342
  660W        W65821   2.397  10.343  12.942
  661W        W65822  41.512  17.833   4.510
  662W        W65823  11.393  42.887  12.469
  663W        W65824  22.772  23.574  13.262
  664W        W65825  21.344  25.616  12.508
  665W        W65826   3.005   8.358  12.621
  666W        W65827  30.426  41.234   3.205
  667W        W65828   2.278  30.674   2.246
  668W        W65829  25.087  43.292   2.433
  669W        W65830  38.859  39.966  13.535
  670W        W65831  44.061   8.815  12.205
  671W        W65832  23.537  34.350   3.304
  672W        W65833  36.536  21.160   1.516
  673W        W65834   1.911  17.274  11.898
  674W        W65835  41.489  41.596   1.767
  675W        W65836  35.969   4.255   2.918
  676W        W65837  21.145  29.845  14.455
  677W        W65838  29.890  35.195   1.364
  678W        W65839  37.183  10.224  10.186
  679W        W65840  12.218  23.992  13.928
  680W        W65841  20.735  39.832  10.581
  681W        W65842   9.703  14.834   0.774
  682W        W65843  43.342   7.021   4.802
  683W        W65844  14.767  17.451   4.558
  684W        W65845   0.359   7.061   1.839
  685W        W65846  13.109  32.934  12.039
  686W        W65847   4.860  44.935  12.958
  687W        W65848  44.079  22.944  11.938
  688W        W65849  44.688  15.092   3.686
  689W        W65850  23.750  42.787  14.396
  690W        W65851   9.794  31.599   3.999
  691W        W65852   4.026  12.130   0.017
  692W        W65853  27.896  43.450  11.048
  693W        W65854  13.190   5.779   1.206
  694W        W65855  31.730  11.299   1.461
  695W        W65856  29.037  36.878   3.667
  696W        W65857  28.230  21.278  10.761
  697W        W65858  38.346  24.958  12.151
  698W        W65859  18.797  26.020   0.096
  699W        W65860  33.613  33.251  10.773
  700W        W65861  41.144  19.176  11.141
  701W        W65862  32.707  10.263   0.436
  702W        W65863  26.189  41.509  10.749
  703W        W65864  17.813  40.627  12.426
  704W        W65865   1.362  34.329  12.067
  705W        W65866  30.960  40.272   3.765
  706W        W65867  25.507   8.924   2.281
  707W        W65868  21.166  32.885  11.062
  708W        W65869  34.915  33.308   1.346
  709W        W65870  21.278  28.467   5.065
  710W        W65871   4.694  27.876   4.178
  711W        W65872  38.450  17.177  13.364
  712W        W65873  28.220  20.052  12.584
  713W        W65874   7.852   7.743   0.157
  714W        W65875  30.109  31.384  13.416
  715W        W65876  39.047  43.523   3.505
  716W        W65877   4.278   7.177   2.818
  717W        W65878   2.954  14.579   3.158
  718W        W65879  18.587   4.901   1.263
  719W        W65880  29.203   5.808  10.695
  720W        W65881  18.964   4.098  13.404
  721W        W65882  38.881  22.441  12.874
  722W        W65883  11.310  19.443  13.617
  723W        W65884   2.936  42.864  12.441
  724W        W65885  32.222   5.318   1.478
  725W        W65886  40.389  31.666   4.584
  726W        W65887   9.180  27.284  11.586
  727W        W65888  36.612   0.892   2.379
  728W        W65889  13.160   8.123  12.407
  729W        W65890  38.822  41.798  12.039
  730W        W65891  23.557  23.126   5.281
  731W        W65892  13.894   7.196  12.937
  732W        W65893   4.340  33.462  14.681
  733W        W65894  31.664  13.395  11.804
  734W        W65895  14.513  38.711  12.189
  735W        W65896  26.651  31.063  11.245
  736W        W65897  22.548  38.074  10.702
  737W        W65898  24.497  18.131  10.661
  738W        W65899  20.523   1.489   4.593
  739W        W65900  24.225  31.570  11.469
  740W        W65901  20.382  41.305  12.972
  741W        W65902  14.245  21.135   3.655
  742W        W65903  38.412   4.204   3.280
  743W        W65904  39.578  24.103  11.610
  744W        W65905  31.533   9.823   2.341
  745W        W65906   8.495  12.562  11.190
  746W        W65907   1.317  24.579  12.962
  747W        W65908  20.519  42.416   2.169
  748W        W65909  16.894  41.413  12.803
  749W        W65910  15.789  21.115   2.139
  750W        W65911   8.266   3.367  11.178
  751W        W65912  30.575  20.230  12.390
  752W        W65913  42.476   7.965   1.119
  753W        W65914  23.053  37.884  11.451
  754W        W65915   3.959  13.041  12.131
  755W        W65916  30.129  44.444  14.933
  756W        W65917   3.462   5.400  10.470
  757W        W65918  44.875   6.222   3.072
  758W        W65919  29.588   3.772   3.851
  759W        W65920  12.669  21.776   2.157
  760W        W65921   3.940  20.057  14.450
  761W        W65922  19.833  21.558  12.957
  762W        W65923  39.022   3.887  12.107
  763W        W65924   9.268  38.444   2.902
  764W        W65925  34.472  32.634   0.517
  765W        W65926   3.683  26.068   2.883
  766W        W65927   3.803  22.605  11.129
  767W        W65928  12.020   3.204   9.728
  768W        W65929  38.346  29.314  14.717
  769W        W65930  41.690  20.734   4.166
  770W        W65931  35.269  17.693  14.371
  771W        W65932   8.961  29.493  14.902
  772W        W65933   0.941  40.384   3.066
  773W        W65934  31.082  32.090   1.357
  774W        W65935  30.916  39.511   2.806
  775W        W65936  27.965  25.702  12.395
  776W        W65937  41.718   6.015  11.743
  777W        W65938  33.353  26.560  11.375
  778W        W65939   6.202   6.606  12.517
  779W        W65940  24.776  23.118   0.783
  780W        W65941   7.306  23.320   0.809
  781W        W65942   7.722  22.210   3.046
  782W        W65943   7.243  10.416  13.897
  783W        W65944  17.757  40.906  13.412
  784W        W65945  23.206  14.001   4.616
  785W        W65946  23.400  13.627   3.206
  786W        W65947   1.736  39.631  10.824
  787W        W65948  11.708  35.834  13.549
  788W        W65949  17.017  23.769  12.088
  789W        W65950   8.645  35.542  11.587
  790W        W65951  24.928   1.507   0.728
  791W        W65952  20.173   0.192  14.287
  792W        W65953  22.386  19.278  12.051
  793W        W65954  39.300  15.840  13.227
  794W        W65955  36.088  11.285   2.898
  795W        W65956  27.278  20.855  13.960
  796W        W65957   8.377  13.229  14.676
  797W        W65958   0.594  44.222   2.655
  798W        W65959   0.648  11.820  12.126
  799W        W65960   5.406   3.406   3.140
  800W        W65961  13.219  20.739  10.597
  801W        W65962  25.530  10.698  14.521
  802W        W65963  28.014  25.620   2.261
  803W        W65964  12.619  41.441  13.552
  804W        W65965  42.119  12.717  13.473
  805W        W65966  42.848  27.017  13.479
  806W        W65967  13.225  22.613  10.345
  807W        W65968  30.586  39.760   4.222
  808W        W65969  14.759  33.921  13.476
  809W        W65970  40.973  26.164   2.432
  810W        W65971  35.573   6.300  13.878
  811W        W65972   4.649   9.602  10.739
  812W        W65973  27.114   8.090  10.875
  813W        W65974  32.472   6.685   4.666
  814W        W65975  26.109  39.930  12.037
  815W        W65976  39.846  42.703   2.659
  816W        W65977  33.649  22.634   4.835
  817W        W65978  16.363   3.266   0.395
  818W        W65979  17.231   3.930   4.805
  819W        W65980  22.946   0.283   1.000
  820W        W65981  10.775  17.443  11.087
  821W        W65982  28.517   1.436   0.611
  822W        W65983  44.353  40.314   4.069
  823W        W65984  20.586  18.797  12.975
  824W        W65985  33.975  38.936   4.115
  825W        W65986  15.855   8.001   3.189
  826W        W65987  30.364  25.616  10.245
  827W        W65988  31.431  31.114   4.644
  828W        W65989  25.681   6.726  14.758
  829W        W65990   8.587  17.538   1.925
  830W        W65991  14.203  18.022  12.638
  831W        W65992  43.514  11.768  14.347
  832W        W65993  38.814  36.626   2.226
  833W        W65994  12.474  42.453   4.590
  834W        W65995  18.584  24.478  13.917
  835W        W65996  38.656  18.848  12.514
  836W        W65997   3.428  36.886  12.758
  837W        W65998   6.661  44.337   4.000
  838W        W65999  34.870  24.777  10.670
  839W        W66000   8.049  20.689  11.671
  840W        W66001   5.324  43.904  11.550
  841W        W66002   0.030  13.716   2.542
  842W        W66003   7.833  41.132  12.844
  843W        W66004  32.851  39.401   2.195
  844W        W66005  23.845  25.011   0.303
  845W        W66006  44.497   8.116   1.239
  846W        W66007   7.011  43.392   1.736
  847W        W66008  18.556  42.679  13.032
  848W        W66009  14.607  34.392   1.318
  849W        W66010  19.603  40.154   5.099
  850W        W66011  34.746  12.666  11.173
  851W        W66012  19.031  24.683   0.625
  852W        W66013  10.824  29.627   0.089
  853W        W66014   2.798  13.182   3.097
  854W        W66015  11.638  35.355  13.750
  855W        W66016  26.097   8.853  13.621
  856W        W66017  15.837  37.759   3.169
  857W        W66018   4.914  35.897   1.752
  858W        W66019  17.807  20.496   0.230
  859W        W66020  10.606  44.043  11.973
  860W        W66021   6.272   5.774  10.749
  861W        W66022   8.187  10.965   3.527
  862W        W66023  27.487  14.215   2.802
  863W        W66024  17.151   2.863  10.732
  864W        W66025   0.936  18.808   4.577
  865W        W66026  33.135  33.603   2.185
  866W        W66027  11.973  42.087  13.101
  867W        W66028  44.960   8.820   4.663
  868W        W66029   9.253   5.161  12.679
  869W        W66030   1.744  24.826  13.073
  870W        W66031  30.979  12.390  14.003
  871W        W66032  40.501   9.567   0.776
  872W        W66033   4.827   8.739  12.145
  873W        W66034  44.306  17.284  10.735
  874W        W66035  14.348  15.855  13.502
  875W        W66036  34.547  14.493  13.497
  876W        W66037  14.187   0.782   2.655
  877W        W66038  13.399  19.858  14.997
  878W        W66039  14.511  35.495  13.026
  879W        W66040  24.520   8.727   1.963
  880W        W66041   8.144   8.847  11.649
  881W        W66042   6.975  16.394  11.870
  882W        W66043  40.813   7.672  14.457
  883W        W66044  42.825  38.544  10.918
  884W        W66045  43.940   6.741   1.835
  885W        W66046   0.624  39.123   3.286
  886W        W66047   9.240  20.227   3.139
  887W        W66048   7.260  40.913   3.883
  888W        W66049  17.168  21.187  13.334
  889W        W66050  39.072  31.116  11.156
  890W        W66051   6.726  38.082  13.885
  891W        W66052   1.749  42.950   4.921
  892W        W66053  26.224  19.843   3.572
  893W        W66054  16.186   8.754  11.545
  894W        W66055  38.071   5.255   3.681
  895W        W66056   9.766  19.785   0.760
  896W        W66057  29.841  34.259  11.110
  897W        W66058   8.614  27.170  14.949
  898W        W66059  24.477  21.569   0.250
  899W        W66060  38.339   6.717  12.872
  900W        W66061  21.284  29.582  10.704
  901W        W66062  10.409  27.520  11.995
  902W        W66063   1.882  45.000  14.512
  903W        W66064  24.088  17.550   0.866
  904W        W66065  38.916  42.356  12.631
  905W        W66066  34.317  29.100   4.529
  906W        W66067  24.055  39.984  12.623
  907W        W66068  29.042  12.489   0.065
  908W        W66069  42.431  26.358   4.112
  909W        W66070  25.194  21.558   1.773
  910W        W66071  37.930  10.117   0.434
  911W        W66072  44.729  23.196   4.996
  912W        W66073  25.468   4.310   3.628
  913W        W66074   4.712  20.217  12.508
  914W        W66075  31.052  12.381   4.209
  915W        W66076   7.993  19.546   2.868
  916W        W66077  29.545   0.232  14.947
  917W        W66078  18.870  31.022  11.554
  918W        W66079  26.270  34.938   2.709
  919W        W66080  20.098   2.815   2.625
  920W        W66081  30.695  17.632  14.037
  921W        W66082  38.765  22.157  13.471
  922W        W66083  35.026   4.569   2.069
  923W        W66084  26.522   3.901   0.437
  924W        W66085  43.989  27.524   0.825
  925W        W66086   4.196  42.347  13.317
  926W        W66087  21.784   3.307   4.091
  927W        W66088  28.985   5.871  14.946
  928W        W66089  20.320  20.315   2.830
  929W        W66090  35.377  36.590   3.539
  930W        W66091  16.862   0.311  13.850
  931W        W66092  35.480  22.060   4.735
  932W        W66093  36.907   5.452   1.278
  933W        W66094  17.264  24.558  10.649
  934W        W66095  41.299  41.894  12.176
  935W        W66096  21.277  12.228   1.206
  936W        W66097  24.175  25.728  10.673
  937W        W66098  28.020  32.095   3.748
  938W        W66099  34.542  17.064   2.703
  939W        W66100   3.867  26.204   0.670
  940W        W66101  33.964  32.104  14.846
  941W        W66102  13.188  27.920  12.943
  942W        W66103  43.539   3.016   4.530
  943W        W66104  37.490  25.737   3.946
  944W        W66105   0.381   3.688   2.641
  945W        W66106   9.005  41.569   2.527
  946W        W66107  40.188   0.896  11.153
  947W        W66108  20.763  41.324  14.309
  948W        W66109  23.528   8.210   1.690
  949W        W66110  37.487  35.014   1.716
  950W        W66111  34.033   3.216   1.703
  951W        W66112  23.059  10.111   4.432
  952W        W66113  12.412  39.069   1.752
  953W        W66114   1.884  27.577   3.806
  954W        W66115   0.461  34.563   0.917
  955W        W66116   8.871  22.952  14.798
  956W        W66117   8.749  25.671   1.841
  957W        W66118   2.285  14.861   1.197
  958W        W66119  15.418  10.758  14.535
  959W        W66120  16.823  38.092  10.231
  960W        W66121  37.875  33.508   3.126
  961W        W66122  15.684  33.590  12.933
  962W        W66123   6.789  11.629  11.602
  963W        W66124  30.263  27.150  10.687
  964W        W66125  44.790  12.324   1.486
  965W        W66126  26.140  30.240   2.494
  966W        W66127   7.754   2.414   0.450
  967W        W66128  19.292  21.109  11.584
  968W        W66129   1.819   7.949   2.585
  969W        W66130   1.629  15.907   4.080
  970W        W66131  32.793  10.365  11.965
  971W        W66132  13.733  15.286   0.658
  972W        W66133  18.824   3.274   1.278
  973W        W66134   9.201  26.760  11.517
  974W        W66135  21.026  25.462  10.817
  975W        W66136  25.423  16.415   5.079
  976W        W66137  22.197  16.343  14.321
  977W        W66138   5.240  11.275   9.427
  978W        W66139  21.696  27.287   2.355
  979W        W66140  34.998  26.323   1.686
  980W        W66141  31.027   7.233  14.407
  981W        W66142  15.756  17.993  14.336
  982W        W66143  10.916   4.372  10.898
  983W        W66144   4.822   6.377   3.510
  984W        W66145  24.152  13.726   2.746
  985W        W66146   5.559  23.965  12.424
  986W        W66147  19.146  41.031  12.522
  987W        W66148  29.421  16.540   4.538
  988W        W66149  24.351  22.760   3.395
  989W        W66150  15.271  22.479  14.658
  990W        W66151   3.889   7.677  11.953
  991W        W66152  12.418  31.181  12.552
  992W        W66153  26.480   8.733   3.341
  993W        W66154  17.388  21.683   2.934
  994W        W66155  30.193   6.630  11.205
  995W        W66156   6.221  10.214  11.358
  996W        W66157   0.892  17.894  13.572
  997W        W66158  28.109   6.468   3.643
  998W        W66159  21.106  17.303  13.601
  999W        W66160  33.012  14.873   3.864
 1000W        W66161  16.630  13.054   1.642
 1001W        W66162  20.050  35.442  13.229
 1002W        W66163   8.883  10.854  13.403
 1003W        W66164   7.807  27.967  10.668
 1004W        W66165  44.387  41.413  12.040
 1005W        W66166  35.938  10.343  14.547
 1006W        W66167  41.636  42.452   0.214
 1007W        W66168  37.817  14.904  11.669
 1008W        W66169  21.200  42.005  12.950
 1009W        W66170  28.678  32.852  10.768
 1010W        W66171  44.573   1.956  11.978
 1011W        W66172  32.568  19.336  12.860
 1012W        W66173  11.687   1.864  10.715
 1013W        W66174   5.066  34.437  11.153
 1014W        W66175  16.900  33.601  13.869
 1015W        W66176  42.398   3.177   3.808
 1016W        W66177   7.055   3.363  14.749
 1017W        W66178   2.942   0.328   4.619
 1018W        W66179  12.827  35.474  10.791
 1019W        W66180   3.303  19.556   3.149
 1020W        W66181  23.499  15.313  11.353
 1021W        W66182   0.424   7.811  12.457
 1022W        W66183  32.005  16.017   4.444
 1023W        W66184  43.496  43.242  10.619
 1024W        W66185  40.531   6.302  10.946
 1025W        W66186  10.421  10.314   3.534
 1026W        W66187  11.789  40.549  11.142
 1027W        W66188  20.162  29.382   4.196
 1028W        W66189  43.544  11.240   1.533
 1029W        W66190  31.701   2.693  11.572
 1030W        W66191  41.419  26.517  13.926
 1031W        W66192  25.400  21.844   1.350
 1032W        W66193  30.878  38.425   0.818
 1033W        W66194  24.260  23.968   3.710
 1034W        W66195   7.682  14.450   0.908
 1035W        W66196   5.417   2.583  14.338
 1036W        W66197  30.483  25.919  11.987
 1037W        W66198   3.655  30.651  11.518
 1038W        W66199  40.256  28.292  13.468
 1039W        W66200  32.919  38.182  11.060
 1040W        W66201   1.849  31.806  14.998
 1041W        W66202  17.601  16.648   3.578
 1042W        W66203   9.421   8.354  14.484
 1043W        W66204  32.214  21.529   0.000
 1044W        W66205  42.564  20.719  11.660
 1045W        W66206   2.493  29.496   1.338
 1046W        W66207  22.652  29.072   3.281
 1047W        W66208  15.732  16.319   3.784
 1048W        W66209  40.191  40.367   0.280
 1049W        W66210  17.062  40.132   1.836
 1050W        W66211  28.435  11.148   1.302
 1051W        W66212  10.087  17.240  11.721
 1052W        W66213  20.691  34.945  14.825
 1053W        W66214  28.607  40.436  13.792
 1054W        W66215   7.195   7.244  14.685
 1055W        W66216  18.523  44.366   0.707
 1056W        W66217  41.957  37.496  13.106
 1057W        W66218  16.847   9.741  13.048
 1058W        W66219  43.382   0.945  10.953
 1059W        W66220  11.884  13.650  11.773
 1060W        W66221  32.220  33.506  11.158
 1061W        W66222   6.343   6.887  14.019
 1062W        W66223  38.365  18.125  14.231
 1063W        W66224  23.733  19.216   4.039
 1064W        W66225  14.195  44.237   0.893
 1065W        W66226  27.255  33.067   4.128
 1066W        W66227  41.320  35.412   2.816
 1067W        W66228  10.408  32.102  11.506
 1068W        W66229   5.686  10.206  10.683
 1069W        W66230  32.628   1.482   3.274
 1070W        W66231   1.709  14.742   2.637
 1071W        W66232   5.190  38.274   1.647
 1072W        W66233  20.854  23.308  10.342
 1073W        W66234  30.473  30.763   4.011
 1074W        W66235  41.724  43.773  13.444
 1075W        W66236  19.704  25.777   0.010
 1076W        W66237  31.715  30.644  11.496
 1077W        W66238   9.875  11.085   3.250
 1078W        W66239  22.947  27.178  12.847
 1079W        W66240  17.762  12.186  12.011
 1080W        W66241  14.128  34.851   0.661
 1081W        W66242  26.746  31.667   3.050
 1082W        W66243  29.697   7.948  13.515
 1083W        W66244  43.044  44.330   5.244
 1084W        W66245  22.579   5.884   3.737
 1085W        W66246  13.244   6.127   4.823
 1086W        W66247   3.266  23.715  10.606
 1087W        W66248  41.715  44.015   3.928
 1088W        W66249  19.508  20.462   1.911
 1089W        W66250   8.689   9.159   1.740
 1090W        W66251  11.909  20.218  13.913
 1091W        W66252  31.612   3.032   0.922
 1092W        W66253  37.354  31.658   4.234
 1093W        W66254   6.109  25.664   0.300
 1094W        W66255  16.514   9.170   2.941
 1095W        W66256  28.010  30.784  11.019
 1096W        W66257  29.917  13.590  13.597
 1097W        W66258   8.258  31.706   3.229
 1098W        W66259  23.340  39.947   3.594
 1099W        W66260  44.017  32.849   0.428
 1100W        W66261  11.404   4.481   3.543
 1101W        W66262  43.518  24.561   3.604
 1102W        W66263  42.072  33.451   1.698
 1103W        W66264  18.051   0.107   3.699
 1104W        W66265  39.882  14.700  12.909
 1105W        W66266  15.880   7.727   4.312
 1106W        W66267   1.207  42.875  10.339
 1107W        W66268  21.071  35.776   3.658
 1108W        W66269  22.254  36.851   0.058
 1109W        W66270  18.830  35.702   5.100
 1110W        W66271   4.913  16.046   1.657
 1111W        W66272  28.167   0.932  12.617
 1112W        W66273   4.438  40.895  11.748
 1113W        W66274  10.192  44.320   4.511
 1114W        W66275  14.666  43.410  11.137
 1115W        W66276  40.941  24.237   2.933
 1116W        W66277  14.653   4.219   1.787
 1117W        W66278  44.349  39.080  14.353
 1118W        W66279  39.619   4.243   3.273
 1119W        W66280  24.510   7.193   3.621
 1120W        W66281  44.183   1.471   4.192
 1121W        W66282   2.594  19.731   1.067
 1122W        W66283  42.037   7.837   0.744
 1123W        W66284  24.148  40.761   1.679
 1124W        W66285  15.678  16.527   2.266
 1125W        W66286  24.634  44.244  11.894
 1126W        W66287  39.434  38.991  11.124
 1127W        W66288  27.693  37.326   1.248
 1128W        W66289  33.102  16.213  11.587
 1129W        W66290  35.003  15.971  12.479
 1130W        W66291  14.026  28.512   3.639
 1131W        W66292  38.850   0.861   2.750
 1132W        W66293  17.053  17.671   4.800
 1133W        W66294  14.336  43.503  13.490
 1134W        W66295  14.635  16.297  13.506
 1135W        W66296  11.657  16.372  10.786
 1136W        W66297  41.469  40.035   1.849
 1137W        W66298  20.260   9.145  11.941
 1138W        W66299   6.754  24.177  12.087
 1139W        W66300  32.007   0.264   3.312
 1140W        W66301  15.744  19.806  13.060
 1141W        W66302   0.228  44.915   1.010
 1142W        W66303  34.584  22.467   4.508
 1143W        W66304  21.648  23.470   0.260
 1144W        W66305  15.087  36.362  13.404
 1145W        W66306  32.996  29.000   1.681
 1146W        W66307  41.330  16.311  12.925
 1147W        W66308   4.698  44.727  14.313
 1148W        W66309  31.008   2.243  11.607
 1149W        W66310  28.104  41.097  13.974
 1150W        W66311  18.977  34.938  14.866
 1151W        W66312  38.848  32.447  13.911
 1152W        W66313  29.981  40.796   3.067
 1153W        W66314   6.145   6.410   2.477
 1154W        W66315   2.707   0.413  13.551
 1155W        W66316   2.808  39.093   4.287
 1156W        W66317  43.020  17.642  12.159
 1157W        W66318  28.635  29.968   3.568
 1158W        W66319  16.424   6.513  13.199
 1159W        W66320  23.046  31.121  10.632
 1160W        W66321  42.509  16.971  13.130
 1161W        W66322   6.730  23.184  11.950
 1162W        W66323   7.290  29.554  11.890
 1163W        W66324   2.271  17.379   2.828
 1164W        W66325  26.866  15.156  13.083
 1165W        W66326  43.407   2.366   0.228
 1166W        W66327  10.601  24.287  14.500
 1167W        W66328  33.479   0.680  14.499
 1168W        W66329  14.335  35.145  13.368
 1169W        W66330  40.021  32.038  12.474
 1170W        W66331  16.721  33.407  12.926
 1171W        W66332  43.023  30.068  13.937
 1172W        W66333  10.280  25.868  13.008
 1173W        W66334   3.635  20.305  11.339
 1174W        W66335  10.714  13.828  14.217
 1175W        W66336  11.866  42.756  14.486
 1176W        W66337  38.370  29.105   1.798
 1177W        W66338  37.932  15.433   1.681
 1178W        W66339  22.253  35.452   3.748
 1179W        W66340   1.725   8.632   3.695
 1180W        W66341  12.800  44.457  13.296
 1181W        W66342  31.685  32.858   0.389
 1182W        W66343  20.144  32.117  13.595
 1183W        W66344   1.800   5.753  10.648
 1184W        W66345   2.107  43.258  12.443
 1185W        W66346  35.830  19.802  14.837
 1186W        W66347  44.912   7.938  12.507
 1187W        W66348  21.262  39.513   4.504
 1188W        W66349  13.350  10.402  10.777
 1189W        W66350  31.391  36.322  12.892
 1190W        W66351  11.133   2.231   3.738
 1191W        W66352  20.208  37.630  10.529
 1192W        W66353  25.181  23.581  10.582
 1193W        W66354  44.984  11.853   2.698
 1194W        W66355  35.930  23.706   2.276
 1195W        W66356  44.335  40.252   0.033
 1196W        W66357  33.327   4.283  13.638
 1197W        W66358  30.992   6.969  12.077
 1198W        W66359  17.555  24.204  13.382
 1199W        W66360   0.807  20.027  11.651
 1200W        W66361  27.523  33.881   4.950
 1201W        W66362  16.541   4.173   1.417
 1202W        W66363  39.045  30.528  12.419
 1203W        W66364  23.508  29.130   2.948
 1204W        W66365  34.370  15.984  11.196
 1205W        W66366  17.312   1.607   1.624
 1206W        W66367  20.504   4.450  13.847
 1207W        W66368   3.711  10.905   0.390
 1208W        W66369   8.195  44.964  14.492
 1209W        W66370  18.061   8.160  12.972
 1210W        W66371  43.025  37.132  14.470
 1211W        W66372  22.239   7.205   1.920
 1212W        W66373  27.608   7.293   3.946
 1213W        W66374  15.682   6.325   3.069
 1214W        W66375  29.690  31.574   2.724
 1215W        W66376  29.588  25.936   4.154
 1216W        W66377   9.626  15.210   2.503
 1217W        W66378  29.040  32.901  14.848
 1218W        W66379  42.541   7.434   0.275
 1219W        W66380  13.103  33.471   3.652
 1220W        W66381  27.245  28.457  13.860
 1221W        W66382  18.724   9.782  13.429
 1222W        W66383  37.837   1.340   0.238
 1223W        W66384   9.343  29.877  13.942
 1224W        W66385  22.168  44.805  15.000
 1225W        W66386  24.608  12.023  12.530
 1226W        W66387  35.484  42.082  12.498
 1227W        W66388  20.168   6.129  11.930
 1228W        W66389  16.052   6.036  14.147
 1229W        W66390  43.096  15.149   2.670
 1230W        W66391  23.087  35.514  12.788
 1231W        W66392   9.684  44.267  13.221
 1232W        W66393  38.967   8.642   3.246
 1233W        W66394  12.719  16.742   3.309
 1234W        W66395  12.372  33.133  11.496
 1235W        W66396  21.974  22.129  12.826
 1236W        W66397  31.233  11.402   1.628
 1237W        W66398  27.894  33.542  11.111
 1238W        W66399   0.315   5.849  13.386
 1239W        W66400  40.880  12.160  13.720
 1240W        W66401  25.979  10.195   3.242
 1241W        W66402  17.328  24.820  10.165
 1242W        W66403  13.789   5.764  11.937
 1243W        W66404  26.697   3.930   3.594
 1244W        W66405  10.327  23.251  14.920
 1245W        W66406  12.887  10.198   3.243
 1246W        W66407  37.593  14.692  11.208
 1247W        W66408  39.985  20.277   1.522
 1248W        W66409  36.867  42.269  11.978
 1249W        W66410   0.288  14.032   1.371
 1250W        W66411  13.155   6.278   0.420
 1251W        W66412  12.460   3.010  12.982
 1252W        W66413  10.089  11.857   4.031
 1253W        W66414  25.806  33.002   0.246
 1254W        W66415  37.800  18.017  12.026
 1255W        W66416   0.673  25.061  12.180
 1256W        W66417  16.113   7.275   5.042
 1257W        W66418   8.764  22.796   0.334
 1258W        W66419   7.685  37.429  12.081
 1259W        W66420   2.519   2.364  12.495
 1260W        W66421  20.340  35.870   3.211
 1261W        W66422   5.816  19.992   0.378
 1262W        W66423  30.104  31.999  12.844
 1263W        W66424  37.911   2.620  14.897
 1264W        W66425   2.715  27.497   4.994
 1265W        W66426  14.696  30.181  14.987
 1266W        W66427  27.550  42.810  12.019
 1267W        W66428  23.156  20.693   5.726
 1268W        W66429  10.114   4.341   3.671
 1269W        W66430  15.582  32.973  13.165
 1270W        W66431   5.922   4.377   4.332
 1271W        W66432   6.887  31.108   1.323
 1272W        W66433   4.013  22.547  11.940
 1273W        W66434   1.668  14.357   4.098
 1274W        W66435  32.882  15.736   1.433
 1275W        W66436   8.924  30.888  12.883
 1276W        W66437   0.502   0.723  14.313
 1277W        W66438  37.939   5.455  14.259
 1278W        W66439  25.378  43.539  12.649
 1279W        W66440   1.260  21.218  14.971
 1280W        W66441  37.684  41.483  14.251
 1281W        W66442  13.818  40.590  14.304
 1282W        W66443  18.461  19.274  11.620
 1283W        W66444  42.802  32.986   1.618
 1284W        W66445   9.674  20.112  11.843
 1285W        W66446  32.519   2.934   4.677
 1286W        W66447  39.729  41.840   1.383
 1287W        W66448   1.189   7.310  11.137
 1288W        W66449  17.769  37.597   0.079
 1289W        W66450   8.969  34.396  13.084
 1290W        W66451  20.981  11.585  13.839
 1291W        W66452  34.877  22.648   4.919
 1292W        W66453  39.535  41.070   3.653
 1293W        W66454   8.212  36.540   3.355
 1294W        W66455  19.597  10.816   4.926
 1295W        W66456  28.629  36.075  11.645
 1296W        W66457   5.177  23.528   4.597
 1297W        W66458  20.015  25.501  10.599
 1298W        W66459  24.245   5.222   4.086
 1299W        W66460  23.466  42.829   2.796
 1300W        W66461  33.646   1.980  12.544
 1301W        W66462  26.996  41.068  14.090
 1302W        W66463   7.766   8.399  12.079
 1303W        W66464  18.997  16.457   2.740
 1304W        W66465  14.459  13.330   3.921
 1305W        W66466  10.047   4.702  12.109
 1306W        W66467   2.800  38.740   1.246
 1307W        W66468  18.564  13.556   0.523
 1308W        W66469  29.597  35.568  12.915
 1309W        W66470  40.635  10.378   5.049
 1310W        W66471  44.869  43.301   2.222
 1311W        W66472  13.142  15.661   2.759
 1312W        W66473  24.032  24.790  10.422
 1313W        W66474  28.529  13.116   2.253
 1314W        W66475   5.650  33.753  11.255
 1315W        W66476  42.973   9.166   2.276
 1316W        W66477  40.386  31.933  13.428
 1317W        W66478  36.125   2.099  11.647
 1318W        W66479  21.128  33.103   3.255
 1319W        W66480  42.997  26.876  14.949
 1320W        W66481  17.111   6.709   2.174
 1321W        W66482  21.612  29.459   0.435
 1322W        W66483  28.588   5.486  13.441
 1323W        W66484  24.266   0.341   4.199
 1324W        W66485  27.262  32.695   2.753
 1325W        W66486  13.273  21.105  12.839
 1326W        W66487  35.847  44.361   4.545
 1327W        W66488  28.173  41.298   2.229
 1328W        W66489  32.168  39.149   1.715
 1329W        W66490   0.372  33.441   2.774
 1330W        W66491  20.778   0.833  12.336
 1331W        W66492  10.894  44.858   2.238
 1332W        W66493  43.408  24.702  11.725
 1333W        W66494  17.320  21.017  11.615
 1334W        W66495  29.439  41.128  10.598
 1335W        W66496  19.049   4.704   2.351
 1336W        W66497   2.588  26.466   0.843
 1337W        W66498  19.604  37.453  11.123
 1338W        W66499  18.575  13.272   4.988
 1339W        W66500   0.435  35.130   2.419
 1340W        W66501  43.445  26.554  10.388
 1341W        W66502  11.305  34.785   0.894
 1342W        W66503  32.278   2.234  10.998
 1343W        W66504   6.293  40.431  12.041
 1344W        W66505  22.617   9.424  14.780
 1345W        W66506  18.079  42.608  12.824
 1346W        W66507  38.909  19.683  12.087
 1347W        W66508  24.457  15.436  13.946
 1348W        W66509   4.352   5.009   0.856
 1349W        W66510  16.251  16.033  11.171
 1350W        W66511  15.627  28.239  11.490
 1351W        W66512   7.883   3.474  13.502
 1352W        W66513  32.112  28.340  13.993
 1353W        W66514  39.964  38.044   0.483
 1354W        W66515   5.686   7.476   1.080
 1355W        W66516  34.358   5.324  13.403
 1356W        W66517  27.079   0.259  13.791
 1357W        W66518   6.659  30.664  12.546
 1358W        W66519  11.840  39.054  14.242
 1359W        W66520  41.783  31.211   4.085
 1360W        W66521  24.087  20.795   1.845
 1361W        W66522  44.794  34.613   3.447
 1362W        W66523   2.465   1.988   3.056
 1363W        W66524   5.630  20.045  13.525
 1364W        W66525   3.286   7.075   1.146
 1365W        W66526   1.302   4.175  14.084
 1366W        W66527  41.904  33.460  10.812
 1367W        W66528   5.341  25.216   2.576
 1368W        W66529  20.955  41.651  14.768
 1369W        W66530  34.845  11.154   2.674
 1370W        W66531  20.788   9.327  11.896
 1371W        W66532   2.918  20.211  12.012
 1372W        W66533   1.415  34.595  11.625
 1373W        W66534  39.524  28.772   3.783
 1374W        W66535   6.918  18.717   1.099
 1375W        W66536  11.604  13.039   0.457
 1376W        W66537  39.501  19.730  12.875
 1377W        W66538   4.778   0.539   2.399
 1378W        W66539   6.816  23.507  12.394
 1379W        W66540  17.512  40.576  11.989
 1380W        W66541  42.726  30.135  10.562
 1381W        W66542  44.123  31.965  11.564
 1382W        W66543  39.402  13.861   0.267
 1383W        W66544  13.476  43.210  13.956
 1384W        W66545   7.229   8.664   2.769
 1385W        W66546  27.847  26.195   0.905
 1386W        W66547  42.875   5.336  11.502
 1387W        W66548  27.989  31.331   3.185
 1388W        W66549  43.124  23.953  10.642
 1389W        W66550  41.444  27.542  11.543
 1390W        W66551  15.429  34.401   0.867
 1391W        W66552  24.479  30.906   4.594
 1392W        W66553  10.751   9.212  13.024
 1393W        W66554   1.954  35.493  10.555
 1394W        W66555  35.847  30.197   1.721
 1395W        W66556  29.642  20.924  14.529
 1396W        W66557  23.266  16.099  10.119
 1397W        W66558   9.778  35.634   3.161
 1398W        W66559   0.867   7.603  12.625
 1399W        W66560   4.769  39.426  13.498
 1400W        W66561  19.695  20.519   4.616
 1401W        W66562  27.972  10.588  10.705
 1402W        W66563   6.122  42.324  13.043
 1403W        W66564  11.611  39.036   1.272
 1404W        W66565  33.466  10.855   0.198
 1405W        W66566  36.474  38.512  12.447
 1406W        W66567  39.149  10.646   0.851
 1407W        W66568  39.551  38.501   2.865
 1408W        W66569  44.530  14.769  13.934
 1409W        W66570  34.460   9.955   4.111
 1410W        W66571  22.204  29.887  13.437
 1411W        W66572  11.138  20.124   0.806
 1412W        W66573  28.038  43.961  13.016
 1413W        W66574  24.992  41.084   4.451
 1414W        W66575  10.205  36.431   2.490
 1415W        W66576  27.264  32.957  11.976
 1416W        W66577  16.324  44.990  10.668
 1417W        W66578  11.292   1.416   1.299
 1418W        W66579  23.952  30.585   4.455
 1419W        W66580  41.395  21.247   4.813
 1420W        W66581   8.406   1.671   4.739
 1421W        W66582  13.900  40.342  10.296
 1422W        W66583  39.697  28.867   1.541
 1423W        W66584  30.862  39.029  11.074
 1424W        W66585  33.122   1.428  10.734
 1425W        W66586  21.747   3.728   1.658
 1426W        W66587   5.318  41.706   1.284
 1427W        W66588  23.514  15.790  11.082
 1428W        W66589  27.363  30.048   2.728
 1429W        W66590  28.890  36.790  13.255
 1430W        W66591  19.302  10.577  11.154
 1431W        W66592  19.212  39.900   3.375
 1432W        W66593  14.872  22.119  13.965
 1433W        W66594  32.975  28.043   0.502
 1434W        W66595   5.355   2.871  10.625
 1435W        W66596  44.876  14.280   4.180
 1436W        W66597  37.090   3.465  10.514
 1437W        W66598  12.273   8.241  12.460
 1438W        W66599  30.670  21.329   3.188
 1439W        W66600  32.127   8.766  12.154
 1440W        W66601   9.857  37.501   1.733
 1441W        W66602  21.537  30.310  13.822
 1442W        W66603  38.901  19.142   1.835
 1443W        W66604  42.890  10.084   4.023
 1444W        W66605  26.820   0.864   2.788
 1445W        W66606  11.855  16.242  10.338
 1446W        W66607  28.054  10.645  13.978
 1447W        W66608  15.265  31.320  12.468
 1448W        W66609   4.479  32.698  13.392
 1449W        W66610  12.187  19.135   3.717
 1450W        W66611  40.972  27.929   1.458
 1451W        W66612  28.120  35.839  10.011
 1452W        W66613  24.544   2.855   2.911
 1453W        W66614  26.294   9.729   3.142
 1454W        W66615  24.133  31.354  13.583
 1455W        W66616  35.942   6.509   4.564
 1456W        W66617  10.761  20.605  11.918
 1457W        W66618  11.527  14.547   1.758
 1458W        W66619  32.201   1.216   3.292
 1459W        W66620   7.901   9.570   1.252
 1460W        W66621  12.206   8.505  13.576
 1461W        W66622  24.675  14.597   1.898
 1462W        W66623   9.370  33.975  14.434
 1463W        W66624  26.975   4.766   3.254
 1464W        W66625  44.336  39.258   4.615
 1465W        W66626   6.264  17.359  13.560
 1466W        W66627   8.110  43.034   0.357
 1467W        W66628   6.418  34.147  11.569
 1468W        W66629  29.468  22.047  14.209
 1469W        W66630  29.649  35.035   2.698
 1470W        W66631   4.893  11.699  12.743
 1471W        W66632  28.911  30.713   4.125
 1472W        W66633  28.564   5.562  14.912
 1473W        W66634   7.032  13.026  10.782
 1474W        W66635  31.492  41.894  13.548
 1475W        W66636   9.782  13.903   1.726
 1476W        W66637  35.549  29.117  10.937
 1477W        W66638  42.403   4.440  13.372
 1478W        W66639  15.770  39.959   2.461
 1479W        W66640  36.955   2.813  11.926
 1480W        W66641  42.757  35.450   2.611
 1481W        W66642  27.908  26.224  12.527
 1482W        W66643  16.116   8.417  11.932
 1483W        W66644  15.814  28.685   0.358
 1484W        W66645  20.618  31.705  11.424
 1485W        W66646   6.166  33.352   4.121
 1486W        W66647  24.390  14.685  13.256
 1487W        W66648  37.129   9.646   3.274
 1488W        W66649  39.194  36.109   3.133
 1489W        W66650   2.421  42.840  12.496
 1490W        W66651  16.657  43.438   0.933
 1491W        W66652  39.229  44.225  12.897
 1492W        W66653  23.614   7.353  14.229
 1493W        W66654  16.714  38.506   4.494
 1494W        W66655  42.512  17.359   2.928
 1495W        W66656  16.997  32.871  13.498
 1496W        W66657  38.531  20.976   2.259
 1497W        W66658  37.385  23.715  11.890
 1498W        W66659  12.699  18.786   4.654
 1499W        W66660  44.477   0.544  14.238
 1500W        W66661  10.320  30.875  12.360
 1501W        W66662   2.512  26.667  14.572
 1502W        W66663  42.142  42.012   4.328
 1503W        W66664  15.783   4.660  13.780
 1504W        W66665  36.885  19.019   3.963
 1505W        W66666   1.525  42.410   3.216
 1506W        W66667  33.135  16.730  12.466
 1507W        W66668  42.822  43.105  14.028
 1508W        W66669  44.349  26.573   3.781
 1509W        W66670  27.956  38.151   1.781
 1510W        W66671  40.956  26.392  10.731
 1511W        W66672  33.606  33.113   0.424
 1512W        W66673  32.360   8.599  12.583
 1513W        W66674  42.996   5.456   2.366
 1514W        W66675  36.530  31.373  13.078
 1515W        W66676  34.038  39.692   4.548
 1516W        W66677  29.581  15.772   0.421
 1517W        W66678  39.016   4.916   1.675
 1518W        W66679   7.629  11.874   3.579
 1519W        W66680  17.658  36.346   1.319
 1520W        W66681  26.973  26.043   3.313
 1521W        W66682   5.939   2.568  14.468
 1522W        W66683   8.944   0.310  12.540
 1523W        W66684   1.330  35.345   1.929
 1524W        W66685  13.718  38.251   0.279
 1525W        W66686   4.352  44.935   0.845
 1526W        W66687  39.392  30.204  11.940
 1527W        W66688  36.601  27.010   1.348
 1528W        W66689   9.651  37.830   0.369
 1529W        W66690   1.983  44.220  12.520
 1530W        W66691  21.094  44.324  10.825
 1531W        W66692  44.845  16.309   0.012
 1532W        W66693  37.019  15.626  13.828
 1533W        W66694  33.842  28.406   4.239
 1534W        W66695  16.332  16.362   3.124
 1535W        W66696  18.225  29.720   2.003
 1536W        W66697  28.961  19.128   0.450
 1537W        W66698  10.590  34.563   4.712
 1538W        W66699  12.690  34.113  11.863
 1539W        W66700  14.628  26.391  12.524
 1540W        W66701  42.851  33.205   2.169
 1541W        W66702   0.659   3.822  11.903
 1542W        W66703  19.113  28.212   0.393
 1543W        W66704  19.936  21.955   2.358
 1544W        W66705  31.526   0.502   3.394
 1545W        W66706  10.776  15.736   2.128
 1546W        W66707  43.318   7.373  14.030
 1547W        W66708  12.417  21.501   0.435
 1548W        W66709  26.089  34.045   3.335
 1549W        W66710  38.024  30.142   1.581
 1550W        W66711  24.662  15.310  11.420
 1551W        W66712   6.261  10.853  13.620
 1552W        W66713   7.843  25.683   0.501
 1553W        W66714  32.915  16.050   4.627
 1554W        W66715   7.411  22.730  11.519
 1555W        W66716  12.335  32.958   1.680
 1556W        W66717   1.522  23.525  13.600
 1557W        W66718  39.766   2.212   1.263
 1558W        W66719  24.874  43.723  12.487
 1559W        W66720  38.916   3.686  11.131
 1560W        W66721  10.891  20.979   2.888
 1561W        W66722  33.409  11.704  10.840
 1562W        W66723   8.524  43.795  10.260
 1563W        W66724  18.734  20.709   1.474
 1564W        W66725  40.076  23.530  14.905
 1565W        W66726  26.173  43.614   5.191
 1566W        W66727  31.636  29.145   0.387
 1567W        W66728  40.673   0.750   3.699
 1568W        W66729  23.638  21.703   1.322
 1569W        W66730  20.068  40.529  12.611
 1570W        W66731  25.694  41.570   4.196
 1571W        W66732  17.226   8.366  10.594
 1572W        W66733  24.878   6.212  14.988
 1573W        W66734  33.838   4.352   1.213
 1574W        W66735   7.631  23.641  12.025
 1575W        W66736  23.510  28.136   3.067
 1576W        W66737  26.174  32.591  12.852
 1577W        W66738  15.566  34.322  10.739
 1578W        W66739  12.733  18.191   4.424
 1579W        W66740  18.846   7.764  13.015
 1580W        W66741   2.997  36.563  11.032
 1581W        W66742  19.677   8.202   0.158
 1582W        W66743   9.319  31.226  13.646
 1583W        W66744  39.946  10.971  12.588
 1584W        W66745  32.008  20.863  14.234
 1585W        W66746   6.938  34.806   4.524
 1586W        W66747   4.820  39.793  12.866
 1587W        W66748  24.201  13.822  11.192
 1588W        W66749  40.214  19.193   3.344
 1589W        W66750  18.518   6.423   5.023
 1590W        W66751  38.828  29.462  11.640
 1591W        W66752   1.875  30.561  14.613
 1592W        W66753  33.654  14.316   2.421
 1593W        W66754  28.698  22.905   3.185
 1594W        W66755  15.763  21.546   3.887
 1595W        W66756  27.001  26.689  14.410
 1596W        W66757  43.576  39.531   9.174
 1597W        W66758  43.220  15.702  12.893
 1598W        W66759  12.165   4.974  10.325
 1599W        W66760  38.953  21.284   2.249
 1600W        W66761   1.502  15.612  14.444
 1601W        W66762  23.893  39.112   3.669
 1602W        W66763  20.975  17.561   4.043
 1603W        W66764  20.708   7.260   3.147
 1604W        W66765  24.874  35.102   4.474
 1605W        W66766  32.897   1.633  11.197
 1606W        W66767  12.144   1.502  13.974
 1607W        W66768  29.230  44.914  11.626
 1608W        W66769   5.851  30.615  11.079
 1609W        W66770  13.749  42.746   4.252
 1610W        W66771  17.265  21.265   0.820
 1611W        W66772  32.542   2.033   1.511
 1612W        W66773   3.489  41.952  10.761
 1613W        W66774  29.676  25.630   1.404
 1614W        W66775   2.388  30.355  12.510
 1615W        W66776  11.287  21.467  11.885
 1616W        W66777  38.876  28.607  14.942
 1617W        W66778   4.484  19.083  14.309
 1618W        W66779  43.247  21.237   4.607
 1619W        W66780  31.438  20.244  13.661
 1620W        W66781   2.267   4.210  12.066
 1621W        W66782  38.154  23.873  10.764
 1622W        W66783  27.508  35.576  11.620
 1623W        W66784  29.600  39.922  13.857
 1624W        W66785  11.190  17.086  12.979
 1625W        W66786   1.554  10.691  10.622
 1626W        W66787  18.912  42.917   0.808
 1627W        W66788   2.862  32.109   2.253
 1628W        W66789  11.691  22.604  11.022
 1629W        W66790  17.097  29.143   4.388
 1630W        W66791  17.588   7.965  11.667
 1631W        W66792  23.431  36.603   0.231
 1632W        W66793  23.488   7.737  11.064
 1633W        W66794  44.994  18.296   1.446
 1634W        W66795  44.851  32.451   4.527
 1635W        W66796  36.412  34.472   0.706
 1636W        W66797  37.630  29.427  10.739
 1637W        W66798  39.910  12.130   0.395
 1638W        W66799   7.327  43.571  12.175
 1639W        W66800   6.446  25.553   0.716
 1640W        W66801  27.423   7.771   2.460
 1641W        W66802  15.949  26.230  12.417
 1642W        W66803  29.156  18.766   1.928
 1643W        W66804  43.491  12.618  12.138
 1644W        W66805  31.707   3.186  12.701
 1645W        W66806  15.157   7.454  13.473
 1646W        W66807  25.435   2.912   4.338
 1647W        W66808  39.603  11.919   3.579
 1648W        W66809   1.141  35.526   3.812
 1649W        W66810  40.013  20.297   3.290
 1650W        W66811   3.941  35.963   3.230
 1651W        W66812  11.195  29.848  10.730
 1652W        W66813  17.817  18.099   0.221
 1653W        W66814  33.853  12.598   1.348
 1654W        W66815  23.605   9.054  12.025
 1655W        W66816  33.711  37.004   3.245
 1656W        W66817   5.241  28.998   1.206
 1657W        W66818   8.751  17.675   2.981
 1658W        W66819   8.342   5.358   4.638
 1659W        W66820  34.504  43.903  10.951
 1660W        W66821  30.837  17.855   1.338
 1661W        W66822  12.224   6.932  13.078
 1662W        W66823  36.584  13.098  13.771
 1663W        W66824  33.001  36.783   5.135
 1664W        W66825  37.052  33.865   2.813
 1665W        W66826   9.716  14.644   4.109
 1666W        W66827  14.659  28.429  14.543
 1667W        W66828  26.974  28.134  14.722
 1668W        W66829  25.488  32.324  11.659
 1669W        W66830   9.451  14.953  14.045
 1670W        W66831  31.174  14.881   0.190
 1671W        W66832   4.451  22.073  11.440
 1672W        W66833  42.732  24.997  13.842
 1673W        W66834  25.606  40.086  12.022
 1674W        W66835   2.778  43.643   1.233
 1675W        W66836  15.541  19.278  11.688
 1676W        W66837   6.987  22.211  12.947
 1677W        W66838  28.151  19.345   1.292
 1678W        W66839  32.086   9.818   4.421
 1679W        W66840   2.245   9.528   0.693
 1680W        W66841  14.366  26.942  11.619
 1681W        W66842   4.079  10.438  10.920
 1682W        W66843  17.473  41.542  13.880
 1683W        W66844   5.884  10.123   1.894
 1684W        W66845   4.471  18.664   5.026
 1685W        W66846  43.781   1.136   0.813
 1686W        W66847  23.195  43.425   1.873
 1687W        W66848   6.779   5.013  11.127
 1688W        W66849  11.052  20.597  14.876
 1689W        W66850  38.582  32.384   0.790
 1690W        W66851   9.447  19.211  13.760
 1691W        W66852  11.263  24.664  13.908
 1692W        W66853  18.236   4.805   3.733
 1693W        W66854  39.281  36.497  13.421
 1694W        W66855   6.465  23.202  11.530
 1695W        W66856   5.378   9.258  12.454
 1696W        W66857  27.794  29.033  12.486
 1697W        W66858  10.801  22.253   0.247
 1698W        W66859  35.414  17.167   1.451
 1699W        W66860   2.868  31.621   0.492
 1700W        W66861  40.578  21.201  13.909
 1701W        W66862  39.847  44.579  14.796
 1702W        W66863   4.288  39.360  14.988
 1703W        W66864  11.714  27.482  13.834
 1704W        W66865   8.228   1.900   1.666
 1705W        W66866  11.454  26.127   1.730
 1706W        W66867  33.846  17.321   0.527
 1707W        W66868   5.391  21.665  11.747
 1708W        W66869  40.553  13.059   0.665
 1709W        W66870  33.980  42.691  10.854
 1710W        W66871  44.159   4.766  14.463
 1711W        W66872  32.403  16.202   1.273
 1712W        W66873   2.360  15.197  11.976
 1713W        W66874   2.962  26.677   1.150
 1714W        W66875  10.453  38.346  14.326
 1715W        W66876  40.003  18.597  12.576
 1716W        W66877  40.123   7.935   3.269
 1717W        W66878  23.730  10.484   4.970
 1718W        W66879  10.163  14.666   4.386
 1719W        W66880   0.908  37.912  12.833
 1720W        W66881  10.309  12.415  11.955
 1721W        W66882   6.248   0.433   3.428
 1722W        W66883  20.305   3.575  14.414
 1723W        W66884   3.006  14.555   0.775
 1724W        W66885  29.601   0.498  13.045
 1725W        W66886  32.491  35.774  13.646
 1726W        W66887   4.765  18.998   4.169
 1727W        W66888   0.210  34.570  13.526
 1728W        W66889   0.080  15.282  14.480
 1729W        W66890  32.550  14.481  14.494
 1730W        W66891   2.314  16.551  14.252
 1731W        W66892   9.219  33.470  11.723
 1732W        W66893   6.369  37.388  11.143
 1733W        W66894  26.916  21.572   1.446
 1734W        W66895  26.389  20.209  13.439
 1735W        W66896  25.593  32.942   1.408
 1736W        W66897  24.438   3.622   4.682
 1737W        W66898   3.668  19.105  14.119
 1738W        W66899  37.566  31.892  10.665
 1739W        W66900   3.230  13.574  11.634
 1740W        W66901  11.358   6.797  14.818
 1741W        W66902  27.187   5.234  11.028
 1742W        W66903  43.933  39.459   4.166
 1743W        W66904   3.897  37.401  13.482
 1744W        W66905  39.904  43.073   2.257
 1745W        W66906  40.718  36.823  14.392
 1746W        W66907   8.630  41.865   1.166
 1747W        W66908  37.926  18.023  11.172
 1748W        W66909  44.982  21.502   4.103
 1749W        W66910  34.492   9.813   0.245
 1750W        W66911  39.318  41.790   0.997
 1751W        W66912   5.251  43.102  12.539
 1752W        W66913  13.482  43.507   4.498
 1753W        W66914  36.146  24.004   4.244
 1754W        W66915  23.368  44.984  13.382
 1755W        W66916  36.582  14.919   4.040
 1756W        W66917  17.057  22.227   2.323
 1757W        W66918  15.213  38.329   1.619
 1758W        W66919  30.744  16.790  14.458
 1759W        W66920   5.311   9.874  10.543
 1760W        W66921   5.487  31.794  10.611
 1761W        W66922  10.612  31.413  13.596
 1762W        W66923  33.098  26.370   2.634
 1763W        W66924  24.055  10.472   4.497
 1764W        W66925  10.876  24.434  13.044
 1765W        W66926  22.560  19.288   1.569
 1766W        W66927  36.851  21.659  14.526
 1767W        W66928  22.136  16.651  12.969
 1768W        W66929  42.960  21.294  12.396
 1769W        W66930  33.868   0.186   2.856
 1770W        W66931   3.726  41.345  13.402
 1771W        W66932  42.489   1.733   4.041
 1772W        W66933  20.583  39.709   3.999
 1773W        W66934  26.004  23.791   4.090
 1774W        W66935  35.484   9.849  13.422
 1775W        W66936  44.972  32.225  10.196
 1776W        W66937   0.249  28.376  11.938
 1777W        W66938  20.128  28.373   4.150
 1778W        W66939  17.364   0.103  10.581
 1779W        W66940  37.569  35.937  10.545
 1780W        W66941   8.276  28.298  12.848
 1781W        W66942  27.577  31.645   3.312
 1782W        W66943  17.943   2.124  11.069
 1783W        W66944   2.409   6.335   4.118
 1784W        W66945  44.476  33.298   3.611
 1785W        W66946   2.424  38.986   3.558
 1786W        W66947  16.115  26.001  12.853
 1787W        W66948  34.245  10.683   3.222
 1788W        W66949  32.496  26.738   2.200
 1789W        W66950  14.384  27.746  11.164
 1790W        W66951  17.780  33.322  12.992
 1791W        W66952   5.695  41.457   0.885
 1792W        W66953  20.442  26.020  11.189
 1793W        W66954  18.102  18.166  11.562
 1794W        W66955  34.929  31.834   5.155
 1795W        W66956  37.845  20.684   1.351
 1796W        W66957  38.063  41.931  11.394
 1797W        W66958  28.086  23.248  10.680
 1798W        W66959   9.891  33.904  10.728
 1799W        W66960  28.214  40.906   1.887
 1800W        W66961  20.490  36.539  13.343
 1801W        W66962  40.956  36.401  14.204
 1802W        W66963   5.782  28.390   5.507
 1803W        W66964  37.543  13.077  11.460
 1804W        W66965  24.166   5.987   0.983
 1805W        W66966   2.504  34.450   1.957
 1806W        W66967  29.348  44.424  11.530
 1807W        W66968  39.917  28.680  13.504
 1808W        W66969  22.169  29.043  13.954
 1809W        W66970   5.417  39.625  14.369
 1810W        W66971  15.040  14.173  11.894
 1811W        W66972  13.640  16.218   0.641
 1812W        W66973  29.273  33.511  13.577
 1813W        W66974  32.395   5.360   0.994
 1814W        W66975  30.052  32.464  12.631
 1815W        W66976   6.975   4.465  14.883
 1816W        W66977   8.841   2.262   1.720
 1817W        W66978   0.270  32.506  11.955
 1818W        W66979  24.009  30.348   2.676
 1819W        W66980  15.577  42.929   2.362
 1820W        W66981  37.937  35.683  14.471
 1821W        W66982  20.786  14.059   2.445
 1822W        W66983  31.118   4.645   3.187
 1823W        W66984   0.147   6.802  13.716
 1824W        W66985  40.309  25.308  11.946
 1825W        W66986   6.833  11.967   1.362
 1826W        W66987  12.325   6.140  11.542
 1827W        W66988   8.237  36.984  10.840
 1828W        W66989   2.279  17.219  10.146
 1829W        W66990  20.071  29.702  13.098
 1830W        W66991  34.716  15.249  10.797
 1831W        W66992  37.632  35.626  13.829
 1832W        W66993  42.765  33.845   1.585
 1833W        W66994  17.544  31.905   2.698
 1834W        W66995   4.468  31.632   0.881
 1835W        W66996  44.456  13.828  11.591
 1836W        W66997  18.618  14.270  10.736
 1837W        W66998  11.750  13.819  12.849
 1838W        W66999  26.013   5.247   3.616
 1839W        W67000  20.035  11.372   3.382
 1840W        W67001   4.295  29.893  14.473
 1841W        W67002  41.275  24.189  13.179
 1842W        W67003  38.937  40.650   4.474
 1843W        W67004  33.851  40.833  14.201
 1844W        W67005  27.132  19.152   2.209
 1845W        W67006   6.767  35.880   3.776
 1846W        W67007  26.917  22.037   4.292
 1847W        W67008  12.601  23.195   3.586
 1848W        W67009  30.442  39.031   3.655
 1849W        W67010  25.592  34.303   2.253
 1850W        W67011   8.804   0.023   2.849
 1851W        W67012  26.564  44.399  14.878
 1852W        W67013  35.074   7.110   4.685
 1853W        W67014  32.498  18.787  12.014
 1854W        W67015  32.758  40.963   0.814
 1855W        W67016   6.278  17.622  10.400
 1856W        W67017  28.186  12.302  13.375
 1857W        W67018  31.002   3.393  10.769
 1858W        W67019   9.971  20.317  13.942
 1859W        W67020  23.214   2.597   4.668
 1860W        W67021  12.150  26.748  10.601
 1861W        W67022   8.873   1.403  10.902
 1862W        W67023  15.287  28.677   1.028
 1863W        W67024  24.035  38.871  13.814
 1864W        W67025   1.992  28.738  14.220
 1865W        W67026  28.889  13.698   0.897
 1866W        W67027  17.541  38.922   4.662
 1867W        W67028  30.599  28.491   2.344
 1868W        W67029   7.680  24.577  14.296
 1869W        W67030   5.143  22.059  12.080
 1870W        W67031  30.800  43.199   2.217
 1871W        W67032   2.986  19.987   3.304
 1872W        W67033   5.351   1.757   2.356
 1873W        W67034  38.627  28.891  14.590
 1874W        W67035  13.625  32.357   5.010
 1875W        W67036  43.179  19.768  13.384
 1876W        W67037   5.878  42.548   1.513
 1877W        W67038  34.446  42.461  14.655
 1878W        W67039  41.347  43.960   1.719
 1879W        W67040  34.001  36.758   5.002
 1880W        W67041  10.895  21.038  11.678
 1881W        W67042  16.824  12.752  13.486
 1882W        W67043  24.803  40.521   2.781
 1883W        W67044   6.527   4.816  10.658
 1884W        W67045   1.475  21.732  13.943
 1885W        W67046  39.956   3.289   3.167
 1886W        W67047   1.401  16.635  13.009
 1887W        W67048  13.733  20.904   3.672
 1888W        W67049  12.811  33.235  11.067
 1889W        W67050  31.309  34.880  12.529
 1890W        W67051  35.442  37.982  11.944
 1891W        W67052  25.666  26.899  13.002
 1892W        W67053  22.824  15.410   4.560
 1893W        W67054  11.237  15.038  14.276
 1894W        W67055  14.596   4.618   1.428
 1895W        W67056  14.087   8.715  14.405
 1896W        W67057  33.358  17.262   0.288
 1897W        W67058  34.522   8.950  11.929
 1898W        W67059  18.775  14.810  11.622
 1899W        W67060  20.293   8.727  14.751
 1900W        W67061  26.384  15.187  10.766
 1901W        W67062  31.557  12.235  12.830
 1902W        W67063  28.549   6.336   2.866
 1903W        W67064  34.288  24.657   4.103
 1904W        W67065   8.218   0.182  11.454
 1905W        W67066  15.687  34.216   3.842
 1906W        W67067  26.052   8.995   5.060
 1907W        W67068  12.926  18.668   1.035
 1908W        W67069  27.611  21.759   1.878
 1909W        W67070  16.139   5.811  10.903
 1910W        W67071   8.698  33.972   4.927
 1911W        W67072  28.726  37.595   2.217
 1912W        W67073  35.529  35.283   3.078
 1913W        W67074  32.090  35.468  12.590
 1914W        W67075   9.975  32.449   2.568
 1915W        W67076  23.482  10.758   9.985
 1916W        W67077  29.421   8.652  10.551
 1917W        W67078  36.936   8.159  12.515
 1918W        W67079  38.142  11.601   1.399
 1919W        W67080  14.712   7.649  13.781
 1920W        W67081  18.802  32.504   1.368
 1921W        W67082   9.769   6.268  14.917
 1922W        W67083  43.295  30.458   0.705
 1923W        W67084  17.101  36.743  14.217
 1924W        W67085  24.505  12.529  12.461
 1925W        W67086   0.071  30.107   1.964
 1926W        W67087  35.345  22.478  14.665
 1927W        W67088  40.327  22.226  12.053
 1928W        W67089  44.161  22.902   0.405
 1929W        W67090  12.836   9.675   4.154
 1930W        W67091  35.303  11.903  13.546
 1931W        W67092   5.152  31.663  12.023
 1932W        W67093   0.567  30.154   2.872
 1933W        W67094  24.196   9.649   2.401
 1934W        W67095  10.173  28.741   1.858
 1935W        W67096  12.500  25.476   4.460
 1936W        W67097  15.222  26.553   2.154
 1937W        W67098  30.332  19.677   3.870
 1938W        W67099  34.902   2.317  13.201
 1939W        W67100  33.911   0.923  14.292
 1940W        W67101  31.263  30.537  13.102
 1941W        W67102  13.323  25.081  12.637
 1942W        W67103  18.445  22.296  14.852
 1943W        W67104  39.089  19.496  13.135
 1944W        W67105   2.961  41.946   2.833
 1945W        W67106  21.124  40.783  10.432
 1946W        W67107  20.254  19.713   3.711
 1947W        W67108  15.043  34.146   3.233
 1948W        W67109  37.611  31.943  13.963
 1949W        W67110   1.962  20.545   1.338
 1950W        W67111  43.375  23.608   0.946
 1951W        W67112   2.054  37.757   3.234
 1952W        W67113  11.773  22.094  11.283
 1953W        W67114  18.498  15.461   2.634
 1954W        W67115  22.642   5.850  10.162
 1955W        W67116  26.301  39.527   0.961
 1956W        W67117  44.847  24.286   3.535
 1957W        W67118  41.267  29.325   4.918
 1958W        W67119   4.537  23.192  14.774
 1959W        W67120  43.054  29.389  14.752
 1960W        W67121   8.382  27.418  11.972
 1961W        W67122  15.769  13.720  11.911
 1962W        W67123   3.029  29.595  12.877
 1963W        W67124  18.589  24.677   0.376
 1964W        W67125  17.206  12.243  14.291
 1965W        W67126  43.509  35.058  14.814
 1966W        W67127   4.301   7.645   4.597
 1967W        W67128  21.510  43.752  13.021
 1968W        W67129   9.773  30.145   3.610
 1969W        W67130  39.831  40.927   1.943
 1970W        W67131  34.959   0.655   2.725
 1971W        W67132  22.433  16.205  13.070
 1972W        W67133  31.102  17.387   9.521
 1973W        W67134  27.901  44.816  14.625
 1974W        W67135  40.718  32.919   0.059
 1975W        W67136  10.821  41.092  14.352
 1976W        W67137  22.859  24.698   1.120
 1977W        W67138  41.707  27.458  12.094
 1978W        W67139  34.620  34.820  12.748
 1979W        W67140  43.014  14.832  14.114
 1980W        W67141  26.268  13.867  11.168
 1981W        W67142  40.982  29.060  11.103
 1982W        W67143  32.770  42.031  12.911
 1983W        W67144  32.071   8.402  13.074
 1984W        W67145   7.990   5.954  14.049
 1985W        W67146  30.608  29.540  12.466
 1986W        W67147   4.693  25.035   3.956
 1987W        W67148  38.407   8.618   1.584
 1988W        W67149   8.286  33.159   4.221
 1989W        W67150  27.661  38.985  13.199
 1990W        W67151  18.552  13.391   2.741
 1991W        W67152  42.820  28.135   4.569
 1992W        W67153  34.112  12.526  14.865
 1993W        W67154  26.116  18.365   0.410
 1994W        W67155  20.266   0.702  14.348
 1995W        W67156  10.274  44.949  12.940
 1996W        W67157  44.087  20.577   3.540
 1997W        W67158  36.308  43.836  11.931
 1998W        W67159  40.447  28.391   3.901
 1999W        W67160  18.839  32.386   2.844
 2000W        W67161   8.416  18.315   0.764
 2001W        W67162   8.890  20.760  12.804
 2002W        W67163   1.663  22.503  14.357
 2003W        W67164  12.335  44.918   3.204
 2004W        W67165   2.484  44.236  12.362
 2005W        W67166  44.776  36.568  12.709
 2006W        W67167   6.291  38.303   4.589
 2007W        W67168   5.296  41.179   1.011
 2008W        W67169  13.606  38.762   0.350
 2009W        W67170  19.429   1.132  12.010
 2010W        W67171  15.171  21.504   1.927
 2011W        W67172  37.988  24.791  14.885
 2012W        W67173   4.450  42.773  12.510
 2013W        W67174  26.490  32.873  14.421
 2014W        W67175  34.905  20.139  11.434
 2015W        W67176   3.658  18.029   4.074
 2016W        W67177  30.908  17.822  12.617
 2017W        W67178  42.623   8.192   0.696
 2018W        W67179   0.133  40.780   0.054
 2019W        W67180   7.520  12.519   4.257
 2020W        W67181   4.064  38.403  10.845
 2021W        W67182  37.987  36.725  12.052
 2022W        W67183  32.125  25.536   1.340
 2023W        W67184  34.856   1.659   3.083
 2024W        W67185  38.350  27.453   0.375
 2025W        W67186   3.306  36.336   2.169
 2026W        W67187   5.773  18.013   4.518
 2027W        W67188  28.464   5.586  11.444
 2028W        W67189  23.999  23.468  11.947
 2029W        W67190  34.943  18.082  12.600
 2030W        W67191  33.792  28.723  11.168
 2031W        W67192  34.305   6.908   3.037
 2032W        W67193  16.720  23.853   3.858
 2033W        W67194  42.749  26.729  12.895
 2034W        W67195  36.459  32.811   1.295
 2035W        W67196  27.571   3.332  14.113
 2036W        W67197  40.932  39.093   1.075
 2037W        W67198   8.097   1.604   5.160
 2038W        W67199  10.376   7.374   2.396
 2039W        W67200  35.850  26.037   2.464
 2040W        W67201  16.105  15.981   0.519
 2041W        W67202  22.925  16.047  13.008
 2042W        W67203   8.116  36.528   1.677
 2043W        W67204  14.284  31.226  13.404
 2044W        W67205  42.451  30.378   2.171
 2045W        W67206  34.599  28.166   1.653
 2046W        W67207   2.125  18.110   9.921
 2047W        W67208  20.285   8.416   0.420
 2048W        W67209   2.576  36.840   5.091
 2049W        W67210  22.516  14.592  10.606
 2050W        W67211   4.600  36.501   4.160
 2051W        W67212  12.275   9.322   3.408
 2052W        W67213   0.050  43.827  11.941
 2053W        W67214  25.576  35.135   1.437
 2054W        W67215  17.152  43.352  10.409
 2055W        W67216  30.859  39.737  12.928
 2056W        W67217   0.285  24.592  11.202
 2057W        W67218  24.932  17.745  13.884
 2058W        W67219  17.237  16.279   0.778
 2059W        W67220  17.646  15.504   3.717
 2060W        W67221  19.693  33.736   4.719
 2061W        W67222  12.022   7.505   4.074
 2062W        W67223  42.451  31.373   4.730
 2063W        W67224  10.844  35.990  11.382
 2064W        W67225  22.793   8.652  11.803
 2065W        W67226  15.102  18.452  13.872
 2066W        W67227  34.295   9.666   3.710
 2067W        W67228  44.380   9.342  11.038
 2068W        W67229  26.212  23.568   3.641
 2069W        W67230  19.469  37.975  13.894
 2070W        W67231  39.859  27.937   0.587
 2071W        W67232  19.303   4.775   1.825
 2072W        W67233  38.415  24.749   1.240
 2073W        W67234  42.913  44.151  12.913
 2074W        W67235  38.485   9.782  10.469
 2075W        W67236   6.916  22.994  12.382
 2076W        W67237  17.163  11.711   0.747
 2077W        W67238  26.959   0.910  10.912
 2078W        W67239  28.128  36.819  12.523
 2079W        W67240   7.653  32.063   0.442
 2080W        W67241  20.141  32.653  13.562
 2081W        W67242  27.704  34.329   4.191
 2082W        W67243  39.121  34.320  10.595
 2083W        W67244   7.329  32.222  12.216
 2084W        W67245  28.414  24.235   3.947
 2085W        W67246  29.094  10.662   1.802
 2086W        W67247   1.937   4.433   1.342
 2087W        W67248  34.171  23.464  12.029
 2088W        W67249   5.416   2.643   1.324
 2089W        W67250   1.821  37.141   0.398
 2090W        W67251  19.964  20.078   1.335
 2091W        W67252  20.178  27.126  13.848
 2092W        W67253  12.791  17.606  10.612
 2093W        W67254  40.832  37.496  13.552
 2094W        W67255  16.833  33.695   2.727
 2095W        W67256  12.135  31.138  13.440
 2096W        W67257   3.897  40.438  13.961
 2097W        W67258  43.762  28.165   1.706
 2098W        W67259  16.086   3.902  12.968
 2099W        W67260  11.818  16.607   3.287
 2100W        W67261  42.210  42.844  13.522
 2101W        W67262  16.094  20.573  13.952
 2102W        W67263  18.630   8.908  13.305
 2103W        W67264  10.666   4.222  12.559
 2104W        W67265  37.233   3.837  14.059
 2105W        W67266  32.455  31.431   3.727
 2106W        W67267  38.433  11.796  14.584
 2107W        W67268  23.004  36.152   3.647
 2108W        W67269  23.637   7.805  13.474
 2109W        W67270  35.434  12.130  14.898
 2110W        W67271   9.176  43.043   1.291
 2111W        W67272   6.777  31.702   2.388
 2112W        W67273  40.442  12.292  14.483
 2113W        W67274   7.347  33.467   5.017
 2114W        W67275   5.994   0.572   4.547
 2115W        W67276  15.887  20.634   2.316
 2116W        W67277  13.741  44.804   4.181
 2117W        W67278  22.763  37.451  14.921
 2118W        W67279   5.059  40.434  11.095
 2119W        W67280  39.825  12.810  12.887
 2120W        W67281   6.717  24.709   2.191
 2121W        W67282  32.332  44.150  10.130
 2122W        W67283   3.850  16.876  13.735
 2123W        W67284   4.772  36.518  14.503
 2124W        W67285   7.815   5.778   3.003
 2125W        W67286  34.769  16.935  10.211
 2126W        W67287   4.463  32.086   2.230
 2127W        W67288  16.499  32.636  10.738
 2128W        W67289  17.063  29.965   4.120
 2129W        W67290  24.311   9.813   0.504
 2130W        W67291  43.270  18.723  12.587
 2131W        W67292  33.509   9.260   4.342
 2132W        W67293   6.814   4.508  11.230
 2133W        W67294   2.842  23.230  13.117
 2134W        W67295  40.119  37.768  14.317
 2135W        W67296  30.660  35.069   2.812
 2136W        W67297   1.828  28.458   0.168
 2137W        W67298  32.263  20.207   3.866
 2138W        W67299  33.071   3.843   3.811
 2139W        W67300  24.982  22.255  12.142
 2140W        W67301  22.603  40.044  13.915
 2141W        W67302  27.956  20.774   0.291
 2142W        W67303  21.746   4.785   1.494
 2143W        W67304  38.987  22.826   2.256
 2144W        W67305  10.407   7.201   0.498
 2145W        W67306   0.672  41.372   4.565
 2146W        W67307  38.794   9.326  13.329
 2147W        W67308  30.410   6.802  13.177
 2148W        W67309  27.006  11.654   2.692
 2149W        W67310  16.124   2.030  11.128
 2150W        W67311  31.415  28.994   0.844
 2151W        W67312  24.416  23.155  11.933
 2152W        W67313  15.990   3.826  14.324
 2153W        W67314  16.342  27.140  14.202
 2154W        W67315   5.127  12.714  10.406
 2155W        W67316  29.022  32.169   0.430
 2156W        W67317  43.956  19.047   4.229
 2157W        W67318  41.806  21.639   1.481
 2158W        W67319  43.206  36.344   1.254
 2159W        W67320  13.305  10.195  11.250
 2160W        W67321  11.123   3.502  14.957
 2161W        W67322  22.026  30.464  11.354
 2162W        W67323  43.579  38.270  11.959
 2163W        W67324  21.204  37.426  13.174
 2164W        W67325   2.432   5.834   3.948
 2165W        W67326  34.373   6.217  13.450
 2166W        W67327  33.737  18.140   1.442
 2167W        W67328  32.931  35.965  12.754
 2168W        W67329  19.613  26.921  11.092
 2169W        W67330  33.709  19.464  13.435
 2170W        W67331  42.965  37.625   3.409
 2171W        W67332  33.039   3.532  12.014
 2172W        W67333  41.438  11.108  11.175
 2173W        W67334   0.541  17.078  11.515
 2174W        W67335   6.246  36.333   4.534
 2175W        W67336  31.961  27.065  12.156
 2176W        W67337  26.138  28.194  13.353
 2177W        W67338  32.470   9.375  14.391
 2178W        W67339  12.142  17.549  13.084
 2179W        W67340  35.847  34.161  11.670
 2180W        W67341  33.342  44.952  14.865
 2181W        W67342   3.457  13.371   2.687
 2182W        W67343  37.767  44.379   1.269
 2183W        W67344  19.716  40.631  10.080
 2184W        W67345  24.191  32.883   1.930
 2185W        W67346   1.422  41.923  14.843
 2186W        W67347  15.170  15.772   4.311
 2187W        W67348  22.007  38.406   4.548
 2188W        W67349  19.510  33.353  11.293
 2189W        W67350   2.388   0.544   0.040
 2190W        W67351   0.074  33.075  10.206
 2191W        W67352  38.270  36.667  13.436
 2192W        W67353   6.258  11.935   4.534
 2193W        W67354  42.098  41.967  13.855
 2194W        W67355  20.679   5.013  12.535
 2195W        W67356   4.508  23.427   2.250
 2196W        W67357   3.033  35.199  13.021
 2197W        W67358  28.775  30.579   1.285
 2198W        W67359  18.804  30.412  14.650
 2199W        W67360   1.793  15.356   0.475
 2200W        W67361   4.474  36.577   2.833
 2201W        W67362  33.563  20.098  14.144
 2202W        W67363  32.908  34.527   4.635
 2203W        W67364  32.299  22.014   4.101
 2204W        W67365  10.396  40.135  12.794
 2205W        W67366   8.130   2.875  13.509
 2206W        W67367  24.578   9.282   0.348
 2207W        W67368  20.576  34.876  12.401
 2208W        W67369  21.257   1.989   1.389
 2209W        W67370  10.904  14.107  13.846
 2210W        W67371  35.915  18.783  14.148
 2211W        W67372  36.717  13.986  13.461
 2212W        W67373  16.615  21.164  13.497
 2213W        W67374  40.057  23.758   1.516
 2214W        W67375  25.408  37.796   5.471
 2215W        W67376  13.642  38.944   4.659
 2216W        W67377  10.736  21.653  13.897
 2217W        W67378  42.904  30.395  14.854
 2218W        W67379   5.861  21.190  11.176
 2219W        W67380  31.701  12.159   3.332
 2220W        W67381   2.272  10.102  14.273
 2221W        W67382  19.303  15.646  14.030
 2222W        W67383  10.614  35.181  12.549
 2223W        W67384  44.774   7.836   4.872
 2224W        W67385  12.791  42.180   0.698
 2225W        W67386  13.581  12.923   2.290
 2226W        W67387   1.609  13.293   0.840
 2227W        W67388  14.859   2.961   1.171
 2228W        W67389  31.725  35.064   2.785
 2229W        W67390   1.178  32.315  11.094
 2230W        W67391  12.426  43.390  13.780
 2231W        W67392   8.534  12.877   4.102
 2232W        W67393  44.116  30.988   9.941
 2233W        W67394  32.600  28.265   4.208
 2234W        W67395   0.670  37.371  13.677
 2235W        W67396  28.926  20.103   1.247
 2236W        W67397  12.132  18.253   0.330
 2237W        W67398  30.431  42.276   2.898
 2238W        W67399  35.988   6.677   0.073
 2239W        W67400  22.996   0.267  10.690
 2240W        W67401   6.765  27.709   1.271
 2241W        W67402  33.507  18.232  13.718
 2242W        W67403  40.351   5.813  13.517
 2243W        W67404  21.735   7.410   4.097
 2244W        W67405   6.777  39.282  10.513
 2245W        W67406  35.849  21.016  14.064
 2246W        W67407   0.344  10.656   1.836
 2247W        W67408  30.208   2.331   0.895
 2248W        W67409  19.217  13.405   0.440
 2249W        W67410   1.315   1.018   4.500
 2250W        W67411   6.144  29.688  10.271
 2251W        W67412  11.649   0.861   2.854
 2252W        W67413  38.841   6.316   4.297
 2253W        W67414   0.550   1.824   4.177
 2254W        W67415  12.711   2.807   1.839
 2255W        W67416  13.286  30.788   2.764
 2256W        W67417  13.393  43.489  13.118
 2257W        W67418  13.019  14.341  14.836
 2258W        W67419   6.140   1.841   1.907
 2259W        W67420  32.609  31.003  14.186
 2260W        W67421  44.482   7.232   4.063
 2261W        W67422  17.794  32.488  12.780
 2262W        W67423   2.877  32.552  11.577
 2263W        W67424  33.530  24.148  13.462
 2264W        W67425  33.209  17.726  12.813
 2265W        W67426   5.332  16.544  13.396
 2266W        W67427  34.307   9.906  14.277
 2267W        W67428  44.962  11.204  11.091
 2268W        W67429   6.653  11.145  11.400
 2269W        W67430   7.387   1.745  11.212
 2270W        W67431  33.317   7.617  11.532
 2271W        W67432  21.481  28.061  11.595
 2272W        W67433  41.960  21.054   1.495
 2273W        W67434  25.903  27.790   4.099
 2274W        W67435  22.505  44.221  11.593
 2275W        W67436  27.732   6.202  13.007
 2276W        W67437  10.775  12.315  14.033
 2277W        W67438  30.701  20.206   1.614
 2278W        W67439  40.044  21.548   2.740
 2279W        W67440  39.865   1.606  11.398
 2280W        W67441   0.420  18.972  12.245
 2281W        W67442   9.675  11.146   1.873
 2282W        W67443  16.564  20.182  13.960
 2283W        W67444  28.192  10.650  12.425
 2284W        W67445  13.683  34.150   3.215
 2285W        W67446   0.367  26.570   1.248
 2286W        W67447  44.993  28.050  13.484
 2287W        W67448  21.488  38.216  10.184
 2288W        W67449  10.717   4.994  10.932
 2289W        W67450   9.770  28.759   0.252
 2290W        W67451  12.764  17.166  13.872
 2291W        W67452  15.254  16.751   4.302
 2292W        W67453  24.052  18.583  13.352
 2293W        W67454   0.262   6.631   3.167
 2294W        W67455  37.243  11.925   1.431
 2295W        W67456  41.468  27.053  13.093
 2296W        W67457  41.892  41.954   2.268
 2297W        W67458  21.986  13.385   4.017
 2298W        W67459  15.755  25.406  12.741
 2299W        W67460  23.440  30.077  10.695
 2300W        W67461   3.354  11.589  12.160
 2301W        W67462  43.475  21.194   2.419
 2302W        W67463   1.011  16.158   1.219
 2303W        W67464  35.532  25.456  10.393
 2304W        W67465  37.749  44.505   3.905
 2305W        W67466  30.423   0.233   2.846
 2306W        W67467  44.512  42.996  14.018
 2307W        W67468  19.663  22.926   2.214
 2308W        W67469   0.831   3.069   1.063
 2309W        W67470  29.384   4.358   2.100
 2310W        W67471  27.480  20.611   2.426
 2311W        W67472  33.124  38.925  11.794
 2312W        W67473  15.071  42.456   3.501
 2313W        W67474  37.113  18.189   1.125
 2314W        W67475   9.997  18.567   4.048
 2315W        W67476  22.139  11.541  10.127
 2316W        W67477   4.096  10.806  12.594
 2317W        W67478  12.149  12.728  10.576
 2318W        W67479  19.352  14.189  12.065
 2319W        W67480  10.118  42.320  14.520
 2320W        W67481  14.703  16.711   3.354
 2321W        W67482  21.601  31.130  14.966
 2322W        W67483  44.997  10.267   4.525
 2323W        W67484  33.949  28.548   3.750
 2324W        W67485   7.873  22.515  11.462
 2325W        W67486  42.167  18.584   2.477
 2326W        W67487  38.456  22.509  13.730
 2327W        W67488   3.818  38.583   2.248
 2328W        W67489   1.091  11.582  11.551
 2329W        W67490  18.753  26.906  12.072
 2330W        W67491  29.570  33.728  12.307
 2331W        W67492  16.922  31.486  11.983
 2332W        W67493  36.521  11.599   4.415
 2333W        W67494  39.487  15.778   4.728
 2334W        W67495  41.311  15.325   0.442
 2335W        W67496  43.231  35.190   5.569
 2336W        W67497   5.161   8.838   3.558
 2337W        W67498  16.629   2.213  14.923
 2338W        W67499  17.587  36.991   2.258
 2339W        W67500  39.594  38.922   4.626
 2340W        W67501  41.081  34.273  14.311
 2341W        W67502  25.613  21.021  10.696
 2342W        W67503   8.690  37.125   2.309
 2343W        W67504  14.834  28.221   4.003
 2344W        W67505  29.516  32.080   0.389
 2345W        W67506  12.693  17.631   0.185
 2346W        W67507  41.444  36.634   2.467
 2347W        W67508  19.329   0.356   2.721
 2348W        W67509  41.008  24.001   4.229
 2349W        W67510  21.549  38.532  11.426
 2350W        W67511   0.842  10.073  13.653
 2351W        W67512  13.657  34.144   4.142
 2352W        W67513  11.140  15.380   3.306
 2353W        W67514  38.965  37.571  12.512
 2354W        W67515   4.399  15.245   1.602
 2355W        W67516  43.684  25.800  10.791
 2356W        W67517  30.093  25.104   2.267
 2357W        W67518  36.586  22.676   0.268
 2358W        W67519  21.136   4.743  12.516
 2359W        W67520   5.102   2.286   3.327
 2360W        W67521  21.257  30.546   4.187
 2361W        W67522  37.244  43.486  14.296
 2362W        W67523  34.926  13.724   0.995
 2363W        W67524  36.425  31.131  13.528
 2364W        W67525  16.581   3.511   0.791
 2365W        W67526  37.911   1.767  14.010
 2366W        W67527  11.798  20.113   2.134
 2367W        W67528  24.048  13.208   3.698
 2368W        W67529   8.600  28.181   1.268
 2369W        W67530  25.739  40.464   4.569
 2370W        W67531  38.200  14.339  12.461
 2371W        W67532  24.054  16.709   2.399
 2372W        W67533  15.682  36.143   3.986
 2373W        W67534  17.997   2.408  13.608
 2374W        W67535   9.911  38.844   2.443
 2375W        W67536  17.442   9.330   3.667
 2376W        W67537  16.515  40.046   2.779
 2377W        W67538  32.453  14.789  14.966
 2378W        W67539  30.386  44.974  10.355
 2379W        W67540  41.246  37.809   3.808
 2380W        W67541   0.657  26.611   4.208
 2381W        W67542   3.870  25.599   2.999
 2382W        W67543  41.530  41.383  14.437
 2383W        W67544  20.183  36.008  11.494
 2384W        W67545  41.274  21.578   2.241
 2385W        W67546  24.946  32.068  14.012
 2386W        W67547  43.771  31.958   1.190
 2387W        W67548  39.052   2.556   4.614
 2388W        W67549  16.286  10.620   1.734
 2389W        W67550  38.135  18.065  12.976
 2390W        W67551  37.085  19.812  12.495
 2391W        W67552  12.972  42.326   4.536
 2392W        W67553  39.900  40.639   4.342
 2393W        W67554  37.504  21.657  11.160
 2394W        W67555   3.471  21.539  12.996
 2395W        W67556   2.643  32.672   0.467
 2396W        W67557   5.093  44.229   1.356
 2397W        W67558  29.242  12.567  14.377
 2398W        W67559   8.738  39.727  13.238
 2399W        W67560   3.108  40.843  11.063
 2400W        W67561  37.950  36.223  12.155
 2401W        W67562  41.683  32.071   0.236
 2402W        W67563  15.922   0.448  14.822
 2403W        W67564  18.183  21.189   5.073
 2404W        W67565  28.677  12.383   0.435
 2405W        W67566   1.630  19.696  13.846
 2406W        W67567  44.500  37.378   3.115
 2407W        W67568  15.169   4.281  10.587
 2408W        W67569  41.291  35.146   1.343
 2409W        W67570  23.121  25.226   4.632
 2410W        W67571  12.412  26.985  13.853
 2411W        W67572  25.063  23.599  11.587
 2412W        W67573   8.479   7.742   4.511
 2413W        W67574  42.746   3.012  13.882
 2414W        W67575  32.486   7.249   3.176
 2415W        W67576  32.564  28.475   4.709
 2416W        W67577  17.667  12.707  11.994
 2417W        W67578  14.791  31.573  14.813
 2418W        W67579  32.949  34.645   4.116
 2419W        W67580  43.788  34.356   3.374
 2420W        W67581  17.761  17.514   1.081
 2421W        W67582   2.260  29.034   1.251
 2422W        W67583   7.007  34.610  11.593
 2423W        W67584   9.632  21.882  11.554
 2424W        W67585   8.154  23.912   2.782
 2425W        W67586  26.168  16.517  10.370
 2426W        W67587  27.058  29.776  11.987
 2427W        W67588  13.123  12.187  12.221
 2428W        W67589  33.988  24.084  10.174
 2429W        W67590  15.288  12.704   4.626
 2430W        W67591  26.206  44.430  10.744
 2431W        W67592   1.392  16.785   2.268
 2432W        W67593  15.483   8.887   2.164
 2433W        W67594  42.964  11.077   0.069
 2434W        W67595  32.357  11.555   3.149
 2435W        W67596  13.185  40.145   2.484
 2436W        W67597  20.819  32.941  13.956
 2437W        W67598  42.840  11.656  13.813
 2438W        W67599  29.619  27.409   0.696
 2439W        W67600  44.951   2.527  14.832
 2440W        W67601  14.506  31.443  12.969
 2441W        W67602  25.188  21.437   4.451
 2442W        W67603   9.547  24.611   0.896
 2443W        W67604   2.170  29.997   4.595
 2444W        W67605  44.253  20.678   1.875
 2445W        W67606  31.614  21.790  12.405
 2446W        W67607  25.616  20.006   0.835
 2447W        W67608  25.103   4.919   0.754
 2448W        W67609   1.211  38.477   4.045
 2449W        W67610  26.054  29.064  13.481
 2450W        W67611  18.505   9.050   3.444
 2451W        W67612  34.872  44.362  12.509
 2452W        W67613   8.783  20.694  14.372
 2453W        W67614   7.923   8.302   4.396
 2454W        W67615   9.331  41.059  12.483
 2455W        W67616  24.958  36.639  11.401
 2456W        W67617   2.356  11.568  11.114
 2457W        W67618   5.212  32.069   3.721
 2458W        W67619  41.973  33.082   3.951
 2459W        W67620  13.756   6.757  13.183
 2460W        W67621  19.701  42.838  14.338
 2461W        W67622  31.386  20.450  14.506
 2462W        W67623  14.764  38.278  12.037
 2463W        W67624  33.635  26.052   5.006
 2464W        W67625  13.349  15.731  11.451
 2465W        W67626  18.255  25.995   2.779
 2466W        W67627  37.382  19.104   2.796
 2467W        W67628  24.228  35.726   5.512
 2468W        W67629  30.636  27.796  11.158
 2469W        W67630  18.720  15.427   3.161
 2470W        W67631   8.964  39.398   0.546
 2471W        W67632  26.606  28.986   3.392
 2472W        W67633  17.126  13.250   3.662
 2473W        W67634  18.552  33.367   0.533
 2474W        W67635  20.760  11.729   3.328
 2475W        W67636  19.702  12.376  11.987
 2476W        W67637  14.299   8.421   2.178
 2477W        W67638  34.039  27.409  14.304
 2478W        W67639  33.412  24.312  14.304
 2479W        W67640  31.458  41.464   4.088
 2480W        W67641  42.055  14.710  14.482
 2481W        W67642   9.264  17.141   0.877
 2482W        W67643  14.963  24.151  11.023
 2483W        W67644   7.803  13.879   0.819
 2484W        W67645  38.529  23.527  14.775
 2485W        W67646  19.680  18.224  13.822
 2486W        W67647  42.170  15.629   0.364
 2487W        W67648   3.215   7.472  12.180
 2488W        W67649   5.738  15.867  11.721
 2489W        W67650  35.998  43.299   0.763
 2490W        W67651  44.441  29.979   1.467
 2491W        W67652  15.126  35.052  12.573
 2492W        W67653  25.253   2.178   1.378
 2493W        W67654  39.926  10.176  13.889
 2494W        W67655  34.299   4.425  13.381
 2495W        W67656  16.347  27.722  13.008
 2496W        W67657   9.577  10.369  11.775
 2497W        W67658  33.750  13.188  11.485
 2498W        W67659  44.786  37.074  12.565
 2499W        W67660  36.626   9.003  12.011
 2500W        W67661  26.156   9.726  14.439
 2501W        W67662  40.934  22.671  13.734
 2502W        W67663   9.007  26.965   1.100
 2503W        W67664  29.297  34.560   0.469
 2504W        W67665  39.286  33.528   4.863
 2505W        W67666  29.967  27.038   4.947
 2506W        W67667  13.245   4.555  12.246
 2507W        W67668  44.208  22.730  12.657
 2508W        W67669  38.855  42.747  10.678
 2509W        W67670  15.755  34.919   3.139
 2510W        W67671  37.748  10.029   4.754
 2511W        W67672   9.193   6.291   2.621
 2512W        W67673  37.468  40.555  11.181
 2513W        W67674   8.378  28.916  11.183
 2514W        W67675  17.555  38.856   0.992
 2515W        W67676  39.413  36.306   3.558
 2516W        W67677  43.053  38.377  11.986
 2517W        W67678  29.528   5.513  11.514
 2518W        W67679  22.650  10.766   0.008
 2519W        W67680  43.291  36.994  12.618
 2520W        W67681  22.255  26.501  14.414
 2521W        W67682  20.607  29.199   2.949
 2522W        W67683  39.277   4.503  12.829
 2523W        W67684  43.367  17.192   4.413
 2524W        W67685  43.863  34.705  12.609
 2525W        W67686   1.013   2.482  11.802
 2526W        W67687  42.340  36.448   0.946
 2527W        W67688   3.717  29.474  14.081
 2528W        W67689  35.616   0.615  14.470
 2529W        W67690  36.422  40.823  11.695
 2530W        W67691  21.358  33.588   3.722
 2531W        W67692  30.095  24.391  14.466
 2532W        W67693  23.203  41.394  10.694
 2533W        W67694  39.149  19.527   4.241
 2534W        W67695  29.699  15.305   1.440
 2535W        W67696  36.147  24.584  14.572
 2536W        W67697  33.230  41.971   4.620
 2537W        W67698  43.698  14.604   0.943
 2538W        W67699  24.530  15.198   1.781
 2539W        W67700  19.408  13.014   2.326
 2540W        W67701  10.798   5.009  13.182
 2541W        W67702  37.836  18.319  11.610
 2542W        W67703   2.435  30.925   0.217
 2543W        W67704   6.872   7.961  13.027
 2544W        W67705  25.688  18.805   2.708
 2545W        W67706  10.340  14.896   2.324
 2546W        W67707  23.030  16.693  11.615
 2547W        W67708  42.444  40.440   4.470
 2548W        W67709  19.539   5.242   0.954
 2549W        W67710   9.792   2.019   0.186
 2550W        W67711  34.481   1.454   3.372
 2551W        W67712  23.323  28.162  11.955
 2552W        W67713  41.444  43.682   3.236
 2553W        W67714  16.077  14.315   3.676
 2554W        W67715  30.012  43.501   1.628
 2555W        W67716  27.991   0.938   3.550
 2556W        W67717   7.898  18.345   0.958
 2557W        W67718  18.507   8.236   2.787
 2558W        W67719  24.954  29.058   2.886
 2559W        W67720  25.455  26.159  13.209
 2560W        W67721  36.501  15.193  14.326
 2561W        W67722  40.046  26.764  12.723
 2562W        W67723   4.697   1.912   2.921
 2563W        W67724  41.816  26.459   3.885
 2564W        W67725  37.491  19.188  13.023
 2565W        W67726   9.432   0.244   0.795
 2566W        W67727  14.734  14.649  13.915
 2567W        W67728  20.626  30.668   1.283
 2568W        W67729   5.728  20.849  14.082
 2569W        W67730  21.586  17.776   2.311
 2570W        W67731  18.053  23.478  14.792
 2571W        W67732   0.652  38.101   3.205
 2572W        W67733  33.929  31.201  14.373
 2573W        W67734   5.230  17.356  10.295
 2574W        W67735  21.741  31.096   3.530
 2575W        W67736  43.213   4.368   3.238
 2576W        W67737  12.167  40.312  14.743
 2577W        W67738  13.874  10.342  10.694
 2578W        W67739  39.575  26.300   3.234
 2579W        W67740  35.506  32.060   2.931
 2580W        W67741  21.483  33.432  13.013
 2581W        W67742   7.558  29.835   5.161
 2582W        W67743  10.432  23.186  13.009
 2583W        W67744  27.456  26.179  14.368
 2584W        W67745  25.063  14.931  14.503
 2585W        W67746  40.835  42.383   1.788
 2586W        W67747   5.566   2.300  11.348
 2587W        W67748  11.491  35.767  14.042
 2588W        W67749   8.667  25.150   2.257
 2589W        W67750  35.398  26.143  11.942
 2590W        W67751  38.844  26.700  14.900
 2591W        W67752  24.019  40.096   2.404
 2592W        W67753   1.331   5.366   3.671
 2593W        W67754  34.554   0.095   1.719
 2594W        W67755  42.934   4.717   0.833
 2595W        W67756  34.071  37.441  13.138
 2596W        W67757  11.806  36.298   0.087
 2597W        W67758  18.328  40.095   1.280
 2598W        W67759  32.724  13.273   3.225
 2599W        W67760  36.975  16.399   4.111
 2600W        W67761   4.988  14.362  11.625
 2601W        W67762   1.329  26.769   1.669
 2602W        W67763   4.419  34.546  12.708
 2603W        W67764   8.797  41.355  13.937
 2604W        W67765  14.772   2.750  13.466
 2605W        W67766  20.734  23.292  11.126
 2606W        W67767  44.283  17.593   4.131
 2607W        W67768   7.337   5.280   3.334
 2608W        W67769  22.981   4.675  13.268
 2609W        W67770  40.108  12.381  14.973
 2610W        W67771  25.420  43.890   4.963
 2611W        W67772  43.263  29.778   3.249
 2612W        W67773  22.834  13.787  11.498
 2613W        W67774  37.977  35.440   0.460
 2614W        W67775   9.462  13.923  11.159
 2615W        W67776  27.600  23.070   0.762
 2616W        W67777  11.304   1.488  11.560
 2617W        W67778   8.676  10.172   3.342
 2618W        W67779  32.013  42.930  12.921
 2619W        W67780  29.521  19.541   5.033
 2620W        W67781  26.444   3.046   0.381
 2621W        W67782  36.399  42.038  14.418
 2622W        W67783  32.977   2.814   3.942
 2623W        W67784  17.317  23.953   4.641
 2624W        W67785  23.179  38.311   1.110
 2625W        W67786  31.648  17.968   1.015
 2626W        W67787   5.936  17.179  11.426
 2627W        W67788  35.705  12.072   3.219
 2628W        W67789  34.955  25.422   1.484
 2629W        W67790  34.397   9.143  12.574
 2630W        W67791  13.207  14.812  11.117
 2631W        W67792  28.656   4.072  10.858
 2632W        W67793   7.354  28.958   4.005
 2633W        W67794  19.562  19.648  11.201
 2634W        W67795  39.278  10.681  14.762
 2635W        W67796  19.574  43.545   2.244
 2636W        W67797   6.764   8.688   3.030
 2637W        W67798  36.366   2.345  11.250
 2638W        W67799  25.526  12.854  12.535
 2639W        W67800  44.337  16.207   1.782
 2640W        W67801  19.025  21.114  12.535
 2641W        W67802  37.139   7.651  12.187
 2642W        W67803  23.179  23.242   0.758
 2643W        W67804   7.519  41.444  13.972
 2644W        W67805   5.124  16.154   4.082
 2645W        W67806  42.327  35.258   4.580
 2646W        W67807  29.055   4.237   0.748
 2647W        W67808  12.177  31.733  14.431
 2648W        W67809  37.160  33.360   1.471
 2649W        W67810  14.532  34.704   4.393
 2650W        W67811  26.929  16.024   1.708
 2651W        W67812  30.411  10.800  14.722
 2652W        W67813  10.415   7.863   4.224
 2653W        W67814  29.948  42.395   0.813
 2654W        W67815  40.480  16.655   4.870
 2655W        W67816   5.327   7.943   3.192
 2656W        W67817  41.017   0.441  11.833
 2657W        W67818  33.296  26.599  12.345
 2658W        W67819  10.280  17.291  12.922
 2659W        W67820   1.035  34.476   3.603
 2660W        W67821  36.709   1.771   1.171
 2661W        W67822  32.027  24.673   2.781
 2662W        W67823   3.799   7.337  10.664
 2663W        W67824   1.276   0.212  10.456
 2664W        W67825  41.619  25.268   5.089
 2665W        W67826  11.765  40.287   3.976
 2666W        W67827  33.146  44.218  11.208
 2667W        W67828  37.459  42.683   0.850
 2668W        W67829  27.180  32.052  10.559
 2669W        W67830  19.324  32.458   3.590
 2670W        W67831  36.864  36.543  10.751
 2671W        W67832  15.683   1.187  11.459
 2672W        W67833   6.771  15.114   3.090
 2673W        W67834  30.374   7.866  14.883
 2674W        W67835   3.902  16.290  11.583
 2675W        W67836  14.672   5.890   0.972
 2676W        W67837  38.656  24.420  11.666
 2677W        W67838  42.023  37.102   1.733
 2678W        W67839  13.324  42.048   2.439
 2679W        W67840  28.386  21.178   1.931
 2680W        W67841  29.183   3.941  10.630
 2681W        W67842  26.840  24.173   2.614
 2682W        W67843  33.676  27.596   1.455
 2683W        W67844  18.345   5.256  14.925
 2684W        W67845   8.884   8.230   0.346
 2685W        W67846  18.826  17.285  12.795
 2686W        W67847  16.168  31.428   1.909
 2687W        W67848  29.152  26.178  11.925
 2688W        W67849  20.129  28.174  14.732
 2689W        W67850  33.683  21.715   2.485
 2690W        W67851  29.495  41.964   2.967
 2691W        W67852  23.147  37.416  13.894
 2692W        W67853  19.288   3.750   0.468
 2693W        W67854  12.056  15.189   1.388
 2694W        W67855  15.085   4.416  14.927
 2695W        W67856   9.765  27.012   3.308
 2696W        W67857  22.587   0.512  12.396
 2697W        W67858  36.471  13.969  11.143
 2698W        W67859  10.310  13.138  13.423
 2699W        W67860  43.014  38.931  11.211
 2700W        W67861  23.365  18.851   4.037
 2701W        W67862  19.331  30.185  10.990
 2702W        W67863   4.463  23.184   1.773
 2703W        W67864  39.808  37.188   0.433
 2704W        W67865  25.026   6.793   4.648
 2705W        W67866   2.474  40.817  14.268
 2706W        W67867  12.343  22.643   4.864
 2707W        W67868  23.527  37.589   2.877
 2708W        W67869  27.371  18.402  12.071
 2709W        W67870  42.395  44.327   3.455
 2710W        W67871  34.068  36.008   4.596
 2711W        W67872  31.367  13.573  12.532
 2712W        W67873   0.011  36.393  14.430
 2713W        W67874  18.008  40.575  14.117
 2714W        W67875  14.379  12.552  11.710
 2715W        W67876   4.887  33.490   3.698
 2716W        W67877   6.735  25.525  12.319
 2717W        W67878  15.027  12.149  11.182
 2718W        W67879  17.844   9.813  10.641
 2719W        W67880   0.242  10.948   0.832
 2720W        W67881   9.590   8.826   0.373
 2721W        W67882  27.066   4.320  14.929
 2722W        W67883  22.286  22.258   2.751
 2723W        W67884  31.629  31.178  14.365
 2724W        W67885  17.314  18.174  14.014
 2725W        W67886  13.102   7.770  11.607
 2726W        W67887  30.352  38.510  12.987
 2727W        W67888   9.726  22.245   2.418
 2728W        W67889  13.641  24.780   1.645
 2729W        W67890  10.785  13.208  12.522
 2730W        W67891  37.306   9.259   2.250
 2731W        W67892  32.023  38.341  14.456
 2732W        W67893  14.275  33.464   3.107
 2733W        W67894  17.068  14.979  13.355
 2734W        W67895  42.355   9.369  13.337
 2735W        W67896   0.634   9.145  11.600
 2736W        W67897  33.648  31.944  11.131
 2737W        W67898  23.928  10.122   4.127
 2738W        W67899  25.480  37.340   0.911
 2739W        W67900  12.229   2.005   1.893
 2740W        W67901  26.009  39.779   0.417
 2741W        W67902  29.073   2.788  10.650
 2742W        W67903  12.055   8.165   3.626
 2743W        W67904  12.160  11.982   1.226
 2744W        W67905   7.771  22.201  14.023
 2745W        W67906  39.776  43.273   4.592
 2746W        W67907  11.475   9.189  13.345
 2747W        W67908  22.203  30.952   4.920
 2748W        W67909  25.826  39.473   0.779
 2749W        W67910   1.705  11.659  14.948
 2750W        W67911  12.899  28.491   4.528
 2751W        W67912  22.037  12.892   4.198
 2752W        W67913  41.969  22.512   1.324
 2753W        W67914  38.671  12.203  14.831
 2754W        W67915  24.980  18.597   1.252
 2755W        W67916  31.100   4.213   0.925
 2756W        W67917  17.230  22.165   2.814
 2757W        W67918   3.632  15.635   2.260
 2758W        W67919  12.353   1.222   3.720
 2759W        W67920   9.142  38.927   2.681
 2760W        W67921  22.380  34.136  14.921
 2761W        W67922   6.327  33.519   1.370
 2762W        W67923  31.772  30.139   2.097
 2763W        W67924  41.548  23.653  11.933
 2764W        W67925  37.542  37.331   0.136
 2765W        W67926  38.660   8.103   0.987
 2766W        W67927  25.680   3.823  12.899
 2767W        W67928  21.486  38.437   4.613
 2768W        W67929  28.691  43.474   4.065
 2769W        W67930  24.007  26.341  12.045
 2770W        W67931   9.506  27.965  13.689
 2771W        W67932  31.544  40.501  14.214
 2772W        W67933  37.921  35.269  13.574
 2773W        W67934   9.091  31.346  12.451
 2774W        W67935  10.786  27.975   4.075
 2775W        W67936  27.189  28.468  12.947
 2776W        W67937   2.690  26.929   2.475
 2777W        W67938  23.021  32.091   4.352
 2778W        W67939  14.821  11.782   2.113
 2779W        W67940  27.613  20.229  12.214
 2780W        W67941   5.153  22.594  12.678
 2781W        W67942  40.473   3.564   1.423
 2782W        W67943  41.139  25.026  14.965
 2783W        W67944  13.920  10.237  11.692
 2784W        W67945  21.378   0.172  11.207
 2785W        W67946  39.887   8.349   0.480
 2786W        W67947  21.363  25.049  12.125
 2787W        W67948  16.634  20.697   2.798
 2788W        W67949   5.488   6.022  11.607
 2789W        W67950   4.328  24.538   0.425
 2790W        W67951   1.422   1.977   3.600
 2791W        W67952  15.011  37.321   1.683
 2792W        W67953   2.365  31.695   4.723
 2793W        W67954   7.571  23.156   0.374
 2794W        W67955  34.922   7.303   0.471
 2795W        W67956  24.948  23.149   3.640
 2796W        W67957  18.282  18.242  13.004
 2797W        W67958  26.968  16.127  14.887
 2798W        W67959  29.104   8.114  12.071
 2799W        W67960  37.008   5.732  13.852
 2800W        W67961  22.290   2.967  14.858
 2801W        W67962  42.694  27.644   1.172
 2802W        W67963  31.582   8.913   1.343
 2803W        W67964   2.736  14.570  12.499
 2804W        W67965  30.867  19.527  13.939
 2805W        W67966  14.771  25.455   3.196
 2806W        W67967  28.000   7.834   1.132
 2807W        W67968  22.793   3.774  13.962
 2808W        W67969   4.298   4.563   0.598
 2809W        W67970  25.964  27.282   4.094
 2810W        W67971  17.366   2.302  14.265
 2811W        W67972  34.069  10.536  12.500
 2812W        W67973   5.456  43.877   1.243
 2813W        W67974  39.957  36.997  13.156
 2814W        W67975  30.990  34.978   0.424
 2815W        W67976  19.552  29.373   3.753
 2816W        W67977  29.612   7.654   1.217
 2817W        W67978   1.991   8.308   1.234
 2818W        W67979  44.395  35.381  12.029
 2819W        W67980  33.832  37.798   4.140
 2820W        W67981  36.646  10.828   2.920
 2821W        W67982   7.745  28.110  12.240
 2822W        W67983   5.388  18.566   2.710
 2823W        W67984  15.559  18.473   1.248
 2824W        W67985   1.497   2.502   0.918
 2825W        W67986  16.412   6.844   2.859
 2826W        W67987  17.934  19.124   3.634
 2827W        W67988   5.461  27.214  14.265
 2828W        W67989  39.129   9.499   4.253
 2829W        W67990   9.533  17.589   2.660
 2830W        W67991  30.652  10.422   0.683
 2831W        W67992   7.485  10.714  10.645
 2832W        W67993  23.494  17.105  14.556
 2833W        W67994  15.182  31.807  12.592
 2834W        W67995  25.068  23.743  12.407
 2835W        W67996   3.273  22.931  10.978
 2836W        W67997   6.254  36.815  14.038
 2837W        W67998  32.152  41.962   3.591
 2838W        W67999   4.730  22.990   4.033
 2839W        W68000  17.839  30.455   2.339
 2840W        W68001  27.466  41.797  14.086
 2841W        W68002  44.264  43.365   1.222
 2842W        W68003  10.724  20.097   4.582
 2843W        W68004  40.399   2.194   4.752
 2844W        W68005  34.704  15.671  12.992
 2845W        W68006  22.323  26.655   0.789
 2846W        W68007  11.360  25.143  14.736
 2847W        W68008  39.029  28.820  11.122
 2848W        W68009  44.897  12.348   5.322
 2849W        W68010  37.117  24.622  13.568
 2850W        W68011  12.359  32.989   4.465
 2851W        W68012   5.374   3.924  10.599
 2852W        W68013  30.447  30.185   4.232
 2853W        W68014  42.987  37.869   1.486
 2854W        W68015  35.259  30.810   1.158
 2855W        W68016  17.126   3.843   2.171
 2856W        W68017  38.792  28.024   3.051
 2857W        W68018  32.157  30.437  11.648
 2858W        W68019  39.874  14.701  11.125
 2859W        W68020  40.744  23.623   2.860
 2860W        W68021  13.244  24.534   2.375
 2861W        W68022   5.487  32.191  12.109
 2862W        W68023  17.675  26.613  12.571
 2863W        W68024  23.446   4.928  14.031
 2864W        W68025  40.710  37.419   1.635
 2865W        W68026   1.467  23.077   4.501
 2866W        W68027  28.852  24.204   2.191
 2867W        W68028  29.408  10.212   3.654
 2868W        W68029  44.356  13.109  11.974
 2869W        W68030  10.658  37.233   5.047
 2870W        W68031  35.038   6.300   2.907
 2871W        W68032  15.595  20.510   1.345
 2872W        W68033  26.422  19.314   0.890
 2873W        W68034  33.114   8.749  14.620
 2874W        W68035  26.599  14.291  11.093
 2875W        W68036  29.576  14.232  13.621
 2876W        W68037  17.740  17.071  14.881
 2877W        W68038  21.672  21.727   3.385
 2878W        W68039  25.663  10.051   5.705
 2879W        W68040   9.714  19.394   3.644
 2880W        W68041  15.261  17.205   4.584
 2881W        W68042  34.221  16.448  14.505
 2882W        W68043  43.527  26.048  14.171
 2883W        W68044  39.628  38.470  10.584
 2884W        W68045  13.650  29.708   3.277
 2885W        W68046  23.728  15.035   3.259
 2886W        W68047  39.794  30.968  13.838
 2887W        W68048  34.703  33.573   2.413
 2888W        W68049  28.974  25.338   0.285
 2889W        W68050  40.782  27.597   3.806
 2890W        W68051  21.222  29.061   3.194
 2891W        W68052   9.788  37.838  12.366
 2892W        W68053  43.074  22.384   2.728
 2893W        W68054  15.934   3.708  11.404
 2894W        W68055  33.865  41.787   4.127
 2895W        W68056   9.359  23.778  14.415
 2896W        W68057  38.162  23.086  11.160
 2897W        W68058  29.027  12.618  13.475
 2898W        W68059  17.610  33.485   0.884
 2899W        W68060  34.870  19.247   2.255
 2900W        W68061  20.427   8.573  11.198
 2901W        W68062  27.779  39.916   3.160
 2902W        W68063  14.766   2.892  14.754
 2903W        W68064  14.376   1.928  14.426
 2904W        W68065  25.955  15.664   1.633
 2905W        W68066  19.159  21.634   3.361
 2906W        W68067  20.610  30.698  14.515
 2907W        W68068  43.519  28.491  13.147
 2908W        W68069  31.810  32.882   4.289
 2909W        W68070  38.438  37.813   5.134
 2910W        W68071   4.693   0.231   3.899
 2911W        W68072   7.009   8.170  11.127
 2912W        W68073   2.781  19.455  11.941
 2913W        W68074  21.233  16.015   2.151
 2914W        W68075  44.807  19.019   3.264
 2915W        W68076   1.365  30.508   0.811
 2916W        W68077  35.816  44.747  14.357
 2917W        W68078  35.866  15.539  12.500
 2918W        W68079  25.632  11.345   2.680
 2919W        W68080  25.486  13.856   0.420
 2920W        W68081  33.565  44.123   2.581
 2921W        W68082  44.880  19.346   2.387
 2922W        W68083  17.758   9.635   4.149
 2923W        W68084   7.878  12.781  14.336
 2924W        W68085   8.796  38.472   3.138
 2925W        W68086  38.553  39.529  11.563
 2926W        W68087  44.212  21.259  12.042
 2927W        W68088  24.275   7.495   4.614
 2928W        W68089  19.731  21.461  13.612
 2929W        W68090   3.063  43.884   0.840
 2930W        W68091  16.151  29.983  14.568
 2931W        W68092   4.901  20.449   2.343
 2932W        W68093  15.157  16.280  13.540
 2933W        W68094  13.258   6.936   1.706
 2934W        W68095  19.068   8.710  11.443
 2935W        W68096  35.775  22.134  14.248
 2936W        W68097  13.531   7.975  12.114
 2937W        W68098  32.458   5.786   1.274
 2938W        W68099  35.491  41.444  14.037
 2939W        W68100  10.633  31.835   4.100
 2940W        W68101  25.060  41.221   1.381
 2941W        W68102   5.394  35.479  12.920
 2942W        W68103  33.654  25.140   1.489
 2943W        W68104  40.636  14.866   4.175
 2944W        W68105  27.382  36.480   4.117
 2945W        W68106  42.453  29.435   0.687
 2946W        W68107  13.061  13.809  14.932
 2947W        W68108  12.224   2.046  12.088
 2948W        W68109  13.370  37.804  14.836
 2949W        W68110   2.465  10.157   2.788
 2950W        W68111  25.091  30.131   2.176
 2951W        W68112  12.405   7.220  11.572
 2952W        W68113  36.434   1.241  13.938
 2953W        W68114  36.458  28.979   1.919
 2954W        W68115  23.039   8.262  12.989
 2955W        W68116   2.931   9.244   0.015
 2956W        W68117  20.517  42.519  12.390
 2957W        W68118  18.814  35.111   0.782
 2958W        W68119  33.391   3.237   0.306
 2959W        W68120   3.041  42.974  11.577
 2960W        W68121  20.107   4.515  12.708
 2961W        W68122  18.845   9.257   0.940
 2962W        W68123   1.662  27.518  12.658
 2963W        W68124  19.845   6.811   1.889
 2964W        W68125  29.949  11.761   2.261
 2965W        W68126   2.724  25.466   4.628
 2966W        W68127  20.532  31.712  14.410
 2967W        W68128  21.223  15.122   3.093
 2968W        W68129  18.834  17.760  13.335
 2969W        W68130   6.901  21.720   0.447
 2970W        W68131  10.407   4.829   0.814
 2971W        W68132  28.971  34.774  12.852
 2972W        W68133  29.725  11.927   3.065
 2973W        W68134  31.064  27.714  11.428
 2974W        W68135  27.702  12.637  14.708
 2975W        W68136   6.617  12.645  13.913
 2976W        W68137  33.970  39.645  11.592
 2977W        W68138   6.285  13.968   4.235
 2978W        W68139  19.713  29.147   4.193
 2979W        W68140   4.685  15.155  12.918
 2980W        W68141  32.421  22.121   1.334
 2981W        W68142  11.759  34.435  13.529
 2982W        W68143  19.715  35.549   0.917
 2983W        W68144  22.651  11.695   0.864
 2984W        W68145  19.072  10.611  12.055
 2985W        W68146  21.084  34.893   3.892
 2986W        W68147  42.572  18.809   2.720
 2987W        W68148   3.706  16.553   2.921
 2988W        W68149  24.859  26.163   2.653
 2989W        W68150  40.210  28.639  14.752
 2990W        W68151  33.500   9.047  12.006
 2991W        W68152   6.447  33.780   4.098
 2992W        W68153  36.778  10.944  13.710
 2993W        W68154   0.215   1.799  12.696
 2994W        W68155  24.930  38.482  12.294
 2995W        W68156   3.855   2.787  12.886
 2996W        W68157  44.592  23.016  11.877
 2997W        W68158  32.903   5.432  11.100
 2998W        W68159  16.783  26.961   4.547
 2999W        W68160  35.836   8.555   2.865
 3000W        W68161   9.376  37.537   1.508
 3001W        W68162  20.220  18.739   2.797
 3002W        W68163  38.877  25.630  11.386
 3003W        W68164  34.563  10.570   0.801
 3004W        W68165  20.531  33.438   2.209
 3005W        W68166   7.348  19.599   3.621
 3006W        W68167  15.844  26.859  13.336
 3007W        W68168  24.005  37.417   4.044
 3008W        W68169   4.434  27.984   3.675
 3009W        W68170  40.921  31.035  13.469
 3010W        W68171  24.895   6.248   1.778
 3011W        W68172  16.054  15.981  14.944
 3012W        W68173  12.308  25.081   0.948
 3013W        W68174   4.840  41.569  10.613
 3014W        W68175  25.019  14.826   1.287
 3015W        W68176   6.583  14.301   4.504
 3016W        W68177   1.477   8.650   4.143
 3017W        W68178  16.029  39.065  11.696
 3018W        W68179  16.790  24.133  11.119
 3019W        W68180   9.883  18.111  11.917
 3020W        W68181  25.698   9.194   2.701
 3021W        W68182  36.846  20.257  12.269
 3022W        W68183  16.885   6.357  12.983
 3023W        W68184   8.581   1.911  14.416
 3024W        W68185  29.133  37.355   2.010
 3025W        W68186  23.288  13.350  14.870
 3026W        W68187  14.086  39.921   2.006
 3027W        W68188  27.662  20.519  10.997
 3028W        W68189  41.468  17.130  14.915
 3029W        W68190  34.903  17.167   1.317
 3030W        W68191  18.179   6.719   3.225
 3031W        W68192  33.565   0.490   2.582
 3032W        W68193  24.248  34.943  11.564
 3033W        W68194  10.772  41.928  11.475
 3034W        W68195  25.630   8.340   1.399
 3035W        W68196  38.104  32.898   4.586
 3036W        W68197  10.129  43.214  12.291
 3037W        W68198   2.701  40.896   1.261
 3038W        W68199   7.832  41.932   4.659
 3039W        W68200  42.820  34.460  13.171
 3040W        W68201  35.528   7.649   4.205
 3041W        W68202  23.719   7.600   4.262
 3042W        W68203   0.977  29.009  10.615
 3043W        W68204  38.548  31.670  11.997
 3044W        W68205  38.975  27.492  10.174
 3045W        W68206  14.030  23.155   0.223
 3046W        W68207   9.236  28.102  10.474
 3047W        W68208   7.399  41.965   0.411
 3048W        W68209  42.525  25.441  12.049
 3049W        W68210  14.084  26.150   0.430
 3050W        W68211  44.950  15.175   1.036
 3051W        W68212  19.229   0.349  10.402
 3052W        W68213  25.801   9.703   4.472
 3053W        W68214  20.593  23.935   2.365
 3054W        W68215  18.316  30.465  12.069
 3055W        W68216  23.291  29.640   2.808
 3056W        W68217  16.286   7.670   1.406
 3057W        W68218  22.265  42.854   2.288
 3058W        W68219  22.004  41.083   4.629
 3059W        W68220  18.663  41.857   2.572
 3060W        W68221  44.127  16.627   9.732
 3061W        W68222  15.239   8.659   2.610
 3062W        W68223  31.165  32.897   3.563
 3063W        W68224  28.967   5.814  13.130
 3064W        W68225  26.441  24.467   1.792
 3065W        W68226   8.378  14.721  11.700
 3066W        W68227  41.178  34.532   5.107
 3067W        W68228  19.076  12.592   2.231
 3068W        W68229  28.074  12.094   1.212
 3069W        W68230  18.617  20.295  13.001
 3070W        W68231   0.819  39.888   2.924
 3071W        W68232  18.125  18.217   2.100
 3072W        W68233  10.595  31.328   4.194
 3073W        W68234  22.655  27.290   2.763
 3074W        W68235  42.245   3.316   5.040
 3075W        W68236  27.581  12.096   1.314
 3076W        W68237  38.916   6.744  12.460
 3077W        W68238  43.044  23.960  11.421
 3078W        W68239  33.584   2.468  12.695
 3079W        W68240   7.442  36.761   0.273
 3080W        W68241   5.747  25.428  11.694
 3081W        W68242  40.543  21.963  13.466
 3082W        W68243  23.972  11.942  12.473
 3083W        W68244  16.110   1.981  13.819
 3084W        W68245   5.049   1.397  12.123
 3085W        W68246  36.021  10.220  14.057
 3086W        W68247   5.706  31.069  11.380
 3087W        W68248  28.683  22.559   2.381
 3088W        W68249   2.564  25.241  12.869
 3089W        W68250  35.098  30.573  14.984
 3090W        W68251  21.660  25.227   2.612
 3091W        W68252   2.289  42.765   0.215
 3092W        W68253  34.543  43.526  14.407
 3093W        W68254  24.192  21.339   4.543
 3094W        W68255   2.234  11.641   2.056
 3095W        W68256   6.686  21.051  11.698
 3096W        W68257   0.826  22.512   0.866
 3097W        W68258   9.197  44.328  13.016
 3098W        W68259  18.705  24.120   4.663
 3099W        W68260   6.079  39.939  10.631
 3100W        W68261  37.610  36.057   1.899
 3101W        W68262  41.032  25.168   3.755
 3102W        W68263  20.154  44.518   2.570
 3103W        W68264  36.803  22.815   1.410
 3104W        W68265  42.918  43.458   3.337
 3105W        W68266   8.945  17.814  13.962
 3106W        W68267  29.574  31.190  12.974
 3107W        W68268  17.581  11.107   0.256
 3108W        W68269   1.011   7.664   1.427
 3109W        W68270  28.353  34.487  14.501
 3110W        W68271  30.617  12.800  14.418
 3111W        W68272  13.758  15.045   4.735
 3112W        W68273  35.922  16.035   4.291
 3113W        W68274  41.940   1.555   0.518
 3114W        W68275  31.389  38.614   3.238
 3115W        W68276  30.384  35.302   3.779
 3116W        W68277  22.766  26.175   4.125
 3117W        W68278  31.838  42.341   3.250
 3118W        W68279  21.618  43.764   1.186
 3119W        W68280   0.644  42.720  10.490
 3120W        W68281  24.153   8.696   2.356
 3121W        W68282  25.475  20.204  13.078
 3122W        W68283  13.779   4.796   1.805
 3123W        W68284  43.579  37.401   0.440
 3124W        W68285  41.104  13.170  12.970
 3125W        W68286  26.037   0.418   4.638
 3126W        W68287   7.100  13.214   3.680
 3127W        W68288  37.488  13.779   0.952
 3128W        W68289  27.180  16.778  11.644
 3129W        W68290  11.783   3.153  13.872
 3130W        W68291   5.414  23.077  13.473
 3131W        W68292  37.233  18.895  13.378
 3132W        W68293  19.762  10.817  11.040
 3133W        W68294  26.622  31.664   1.486
 3134W        W68295  35.606  24.953  11.588
 3135W        W68296  33.837  41.315  12.986
 3136W        W68297  21.639  26.556  12.129
 3137W        W68298  25.012  17.667   1.389
 3138W        W68299   2.777  22.837  14.816
 3139W        W68300  39.309  27.837  13.421
 3140W        W68301   8.403  37.045  14.545
 3141W        W68302  27.463  26.040   1.832
 3142W        W68303  42.881   4.942   1.374
 3143W        W68304   5.210   1.325  11.633
 3144W        W68305   5.205  35.181  13.902
 3145W        W68306   1.570  23.294  11.351
 3146W        W68307  41.394  32.038   2.074
 3147W        W68308  26.674  19.275   1.455
 3148W        W68309  37.193  16.051   3.710
 3149W        W68310  35.526  26.645  12.094
 3150W        W68311   2.392  27.940  13.843
 3151W        W68312  23.975  21.004  14.291
 3152W        W68313  27.707  34.442  11.120
 3153W        W68314   8.730  38.581   0.342
 3154W        W68315  35.498   8.717  12.588
 3155W        W68316  37.180  13.226   0.708
 3156W        W68317  43.533  35.010   3.041
 3157W        W68318  34.362  30.033   0.980
 3158W        W68319  13.804  29.192   2.407
 3159W        W68320  32.073   0.993  12.118
 3160W        W68321   3.833  21.306   4.192
 3161W        W68322  25.310  19.152   5.010
 3162W        W68323  13.658  38.550  10.465
 3163W        W68324   8.906  37.206  14.419
 3164W        W68325  31.169   4.911  13.892
 3165W        W68326   7.676  35.676   4.164
 3166W        W68327  28.061  30.635  11.834
 3167W        W68328  38.987  31.888  10.673
 3168W        W68329  20.550  38.318   1.849
 3169W        W68330  33.222  42.480  12.723
 3170W        W68331   2.494  41.822  11.610
 3171W        W68332  24.581  30.221   2.787
 3172W        W68333  13.244  31.696  14.845
 3173W        W68334  18.020  20.603   2.809
 3174W        W68335  40.904  16.844   4.580
 3175W        W68336  23.696  25.811   4.345
 3176W        W68337  21.447  14.825   3.676
 3177W        W68338  10.250  32.901   0.965
 3178W        W68339  36.930  30.083   2.240
 3179W        W68340  12.819   4.309  14.760
 3180W        W68341   6.345  35.415   1.685
 3181W        W68342  38.367  24.047  14.552
 3182W        W68343  28.178  33.604   2.391
 3183W        W68344  36.607  42.030  13.010
 3184W        W68345   6.671  22.707  14.425
 3185W        W68346   6.626  39.100  13.057
 3186W        W68347  39.116   1.362  10.796
 3187W        W68348  42.464  24.430  13.573
 3188W        W68349  42.868  18.791  13.862
 3189W        W68350  13.852   1.802   1.811
 3190W        W68351  21.540  11.751   2.880
 3191W        W68352   1.350  23.219   0.920
 3192W        W68353   4.717  28.025  11.150
 3193W        W68354   5.572  43.631   3.593
 3194W        W68355  35.517  43.787  14.747
 3195W        W68356  40.123  19.529  11.567
 3196W        W68357  19.792  32.379  14.838
 3197W        W68358  43.039   7.299  10.303
 3198W        W68359   2.744  17.970   3.206
 3199W        W68360  39.561  21.954  14.038
 3200W        W68361  14.109  20.295  14.685
 3201W        W68362   3.675   9.634  11.586
 3202W        W68363   5.156   6.668   3.229
 3203W        W68364  33.386  11.687  12.168
 3204W        W68365  28.198  21.114  13.897
 3205W        W68366  22.506  26.302  12.917
 3206W        W68367  33.512   0.966  14.936
 3207W        W68368   9.104   4.204  13.488
 3208W        W68369   0.969  35.568  12.423
 3209W        W68370  10.312   9.162  11.424
 3210W        W68371  10.794   7.139   0.171
 3211W        W68372   1.319  34.060   1.699
 3212W        W68373  19.671  43.121   4.917
 3213W        W68374  29.526   7.896   4.670
 3214W        W68375  14.387   9.875  13.575
 3215W        W68376  24.072   0.226   2.894
 3216W        W68377   1.188   3.317   4.536
 3217W        W68378  42.347  23.540  11.188
 3218W        W68379  41.133   6.471  10.969
 3219W        W68380  30.497  31.482  10.725
 3220W        W68381  40.547  22.213  10.625
 3221W        W68382  26.991  12.463  11.167
 3222W        W68383  36.638  41.967  11.185
 3223W        W68384  30.922  37.599  14.375
 3224W        W68385  12.090  29.972   3.135
 3225W        W68386  10.044  42.679   3.849
 3226W        W68387   1.244  32.797  13.380
 3227W        W68388  43.286   9.825  11.721
 3228W        W68389  28.100  14.806  11.631
 3229W        W68390  36.007  34.839  13.424
 3230W        W68391   2.700   9.601  12.909
 3231W        W68392  35.818  16.612  12.976
 3232W        W68393  35.902   3.268  11.132
 3233W        W68394  29.083  29.571   4.100
 3234W        W68395   2.355  16.062   2.294
 3235W        W68396  24.981   6.985   3.737
 3236W        W68397   3.211  32.058   3.903
 3237W        W68398   2.060  22.274  14.578
 3238W        W68399  22.189  17.188   3.653
 3239W        W68400   4.010  16.030   1.841
 3240W        W68401  28.951  18.612  12.423
 3241W        W68402   3.636   7.271  13.077
 3242W        W68403   2.025   1.561   2.001
 3243W        W68404  28.401   6.843   2.752
 3244W        W68405   0.215  42.286   3.767
 3245W        W68406   3.145  12.147  10.978
 3246W        W68407  25.994  17.885  14.984
 3247W        W68408  10.286  15.265  10.697
 3248W        W68409   2.755  32.417  12.071
 3249W        W68410   7.710  39.689  13.240
 3250W        W68411   6.498  15.673  14.371
 3251W        W68412  14.307  27.671  13.399
 3252W        W68413  26.145   6.166   2.186
 3253W        W68414   6.211  19.317  14.422
 3254W        W68415   3.414  21.913   0.730
 3255W        W68416  38.456   7.211  14.584
 3256W        W68417  13.154  41.582   3.266
 3257W        W68418  40.056  33.208  13.524
 3258W        W68419  27.695  15.274  13.391
 3259W        W68420  26.495   1.341  14.707
 3260W        W68421  36.995  13.060   2.299
 3261W        W68422  10.932   6.711   1.018
 3262W        W68423  41.992   7.002   4.787
 3263W        W68424   7.140  25.503   3.706
 3264W        W68425   0.408   1.877   2.138
 3265W        W68426  36.985   3.857  11.128
 3266W        W68427  42.916  31.863   5.056
 3267W        W68428  15.712  30.657   0.966
 3268W        W68429  31.988   9.696  10.855
 3269W        W68430   1.537  12.267  11.109
 3270W        W68431  20.856  44.437   3.734
 3271W        W68432  37.834  34.896  10.617
 3272W        W68433  33.159  42.870   3.163
 3273W        W68434  35.423  23.687   2.363
 3274W        W68435  44.300  35.101   4.131
 3275W        W68436  22.661  24.269  11.108
 3276W        W68437  44.728   8.780  13.104
 3277W        W68438   0.371  11.404  12.296
 3278W        W68439  28.285  30.665  14.031
 3279W        W68440  16.817  22.580   0.303
 3280W        W68441  14.569  14.336  14.514
 3281W        W68442  14.305  26.192  11.157
 3282W        W68443  36.644  36.546   3.707
 3283W        W68444  39.521  40.456   1.346
 3284W        W68445  29.537  42.697   0.795
 3285W        W68446   0.867  19.051  11.584
 3286W        W68447  42.844  20.090   3.112
 3287W        W68448  29.360  32.883  12.561
 3288W        W68449  30.355  34.292  11.100
 3289W        W68450  19.627  22.733   2.688
 3290W        W68451  10.633   5.312  14.867
 3291W        W68452   5.991  23.419  11.526
 3292W        W68453   9.287   0.240   2.676
 3293W        W68454  17.675   7.085  11.166
 3294W        W68455  13.848  20.245  11.074
 3295W        W68456  44.888  20.044  12.600
 3296W        W68457  23.045  32.648   2.383
 3297W        W68458  33.555  20.084  10.711
 3298W        W68459  16.942  22.389  12.462
 3299W        W68460  40.342  28.153   0.389
 3300W        W68461  41.814  13.139  13.540
 3301W        W68462  22.685  35.394  13.083
 3302W        W68463  23.878  27.440  14.087
 3303W        W68464  39.289  19.637   3.269
 3304W        W68465   3.711  33.082   4.154
 3305W        W68466  27.524  22.459  13.170
 3306W        W68467  17.810  41.364  14.272
 3307W        W68468  19.692  10.615  11.507
 3308W        W68469  39.903   7.670   3.751
 3309W        W68470   3.342  34.492   1.792
 3310W        W68471  24.613  20.787   3.593
 3311W        W68472   1.478  16.836   1.697
 3312W        W68473  34.627  40.295  12.981
 3313W        W68474   9.363   2.900   0.992
 3314W        W68475  22.045   2.247   3.724
 3315W        W68476  44.222  10.259  12.148
 3316W        W68477  26.169  31.806  10.765
 3317W        W68478   6.409   6.503  12.022
 3318W        W68479  36.671  23.967   4.169
 3319W        W68480  16.246  30.725   0.884
 3320W        W68481  34.200  26.570   2.284
 3321W        W68482   4.390  43.824  14.708
 3322W        W68483  20.789   4.505   1.679
 3323W        W68484  40.405  29.899  14.201
 3324W        W68485  25.387  36.909   5.595
 3325W        W68486   5.463  31.463   3.583
 3326W        W68487  41.725   5.396  13.793
 3327W        W68488  13.204  43.331  12.142
 3328W        W68489   0.409  19.480   2.393
 3329W        W68490   6.152   1.333  10.645
 3330W        W68491  10.584  25.616   2.904
 3331W        W68492   5.293  31.067  13.585
 3332W        W68493  40.558  16.734  12.976
 3333W        W68494  26.614  34.501  12.658
 3334W        W68495  39.794  41.841  12.374
 3335W        W68496  25.703  24.368  12.879
 3336W        W68497   3.826   6.802   4.239
 3337W        W68498  27.687   5.359  11.050
 3338W        W68499  33.637   7.178   1.763
 3339W        W68500   3.259  21.890   2.738
 3340W        W68501  43.286  22.045   1.483
 3341W        W68502  32.571  21.096   3.172
 3342W        W68503  12.706  23.474   4.435
 3343W        W68504  15.181  27.444   3.685
 3344W        W68505  23.650   6.581  12.937
 3345W        W68506   1.415  22.752   3.243
 3346W        W68507  41.623  25.349  12.145
 3347W        W68508  36.886  40.455   1.884
 3348W        W68509  27.659  34.064   1.201
 3349W        W68510   7.354   2.142   2.195
 3350W        W68511  32.535  40.582   0.473
 3351W        W68512  44.321   8.212  14.246
 3352W        W68513  42.586  26.545   0.039
 3353W        W68514  23.713   6.657   3.473
 3354W        W68515   7.723   0.708   3.862
 3355W        W68516  32.287   8.382  11.238
 3356W        W68517  21.992   5.918  14.830
 3357W        W68518  23.984   0.700  10.722
 3358W        W68519  30.179  20.715   0.115
 3359W        W68520  11.896  29.745   2.406
 3360W        W68521  32.131  26.557  14.777
 3361W        W68522  29.664  41.386   4.523
 3362W        W68523  25.851  11.122  12.832
 3363W        W68524  30.546  28.029  12.511
 3364W        W68525  10.257  29.554  12.334
 3365W        W68526   1.240   3.401  12.388
 3366W        W68527   0.264   1.394  12.381
 3367W        W68528  26.159  23.086   2.227
 3368W        W68529  23.189  44.799   3.761
 3369W        W68530  32.130   1.484   0.482
 3370W        W68531  40.588  29.870   4.373
 3371W        W68532   9.119  30.781   2.759
 3372W        W68533  38.841  21.032  14.939
 3373W        W68534  15.489  10.587   3.058
 3374W        W68535  34.322  32.938  14.861
 3375W        W68536   7.382  31.585  11.761
 3376W        W68537   1.327  10.802  13.023
 3377W        W68538  23.110  10.222  13.070
 3378W        W68539   3.307   3.503   0.021
 3379W        W68540  14.066   7.730   4.407
 3380W        W68541  36.219  15.123   2.938
 3381W        W68542  31.481  26.730   3.333
 3382W        W68543  44.819   5.427  10.467
 3383W        W68544   8.348  18.274   2.310
 3384W        W68545  19.782  13.398   2.705
 3385W        W68546  33.012  14.281  11.380
 3386W        W68547  12.393   9.238  12.855
 3387W        W68548  11.829  22.108  13.297
 3388W        W68549  23.382   3.314  14.745
 3389W        W68550  14.038  43.575   4.405
 3390W        W68551  10.569   7.792   1.709
 3391W        W68552  10.328  29.580  14.387
 3392W        W68553  44.785  16.669  10.473
 3393W        W68554  20.859   7.712  11.183
 3394W        W68555  36.270  23.441  10.326
 3395W        W68556  30.018  30.058  12.877
 3396W        W68557   2.615  39.946  14.389
 3397W        W68558  18.233  38.354   0.383
 3398W        W68559  31.317  37.184  12.543
 3399W        W68560  40.930  26.688  13.851
 3400W        W68561   6.242   8.597  13.490
 3401W        W68562  14.186  11.783   0.305
 3402W        W68563   9.422  41.748  12.197
 3403W        W68564  19.458  12.826  14.431
 3404W        W68565  29.706  21.464  11.577
 3405W        W68566  32.981  24.624   4.666
 3406W        W68567  10.171  22.521   4.114
 3407W        W68568  27.063  39.901   5.035
 3408W        W68569  39.259  28.509  11.509
 3409W        W68570   1.151   0.431  12.016
 3410W        W68571   1.269  44.747  10.690
 3411W        W68572  15.925  30.678   0.479
 3412W        W68573  11.149   2.555  11.684
 3413W        W68574  39.053  20.987  11.537
 3414W        W68575  19.805  12.608  11.534
 3415W        W68576  35.435  21.493  14.851
 3416W        W68577  42.098  19.577  12.492
 3417W        W68578   0.870   0.460  15.000
 3418W        W68579  19.054  27.428  13.539
 3419W        W68580  24.892  13.356   4.585
 3420W        W68581  21.759  42.422   4.314
 3421W        W68582  22.159  20.366  11.262
 3422W        W68583  28.857   3.343   1.418
 3423W        W68584   2.555  24.529   1.855
 3424W        W68585  12.700   8.380  14.352
 3425W        W68586  20.956  32.416   0.713
 3426W        W68587  29.131  27.193   0.552
 3427W        W68588  27.214  20.005   1.119
 3428W        W68589   1.038   9.706  12.312
 3429W        W68590  31.187  19.660  13.560
 3430W        W68591  33.630  27.091  13.888
 3431W        W68592  18.283   0.974   4.193
 3432W        W68593  16.620  24.721   2.176
 3433W        W68594   3.778  37.125  14.548
 3434W        W68595  44.296  15.242  14.870
 3435W        W68596   4.642  30.306  12.814
 3436W        W68597  38.088  24.564  13.843
 3437W        W68598  29.576  33.863   1.049
 3438W        W68599  35.455  20.165   3.650
 3439W        W68600   0.358  11.552   4.222
 3440W        W68601  27.889  26.773  11.141
 3441W        W68602   6.296  38.973   5.360
 3442W        W68603  28.663   0.401  11.148
 3443W        W68604  17.486  28.469   2.346
 3444W        W68605  30.100  43.813   4.282
 3445W        W68606  17.498   8.796   2.330
 3446W        W68607  42.757  31.023   2.655
 3447W        W68608  10.472  28.512  14.813
 3448W        W68609  14.411   4.325   3.128
 3449W        W68610   5.434   0.080   4.063
 3450W        W68611  13.232  15.977   0.412
 3451W        W68612  30.208  22.154   4.570
 3452W        W68613  18.036  28.734  11.546
 3453W        W68614  44.744  31.660   0.913
 3454W        W68615  43.273  16.318  11.477
 3455W        W68616  17.961  20.723  14.765
 3456W        W68617  18.967   9.140   2.744
 3457W        W68618  13.191  26.175   2.271
 3458W        W68619  26.780  43.837   1.221
 3459W        W68620  43.447  38.829   0.535
 3460W        W68621   6.233   2.897  12.523
 3461W        W68622  17.891   0.678   4.440
 3462W        W68623  11.258   7.088  13.100
 3463W        W68624  23.044  44.034  13.728
 3464W        W68625   7.952   9.987  11.223
 3465W        W68626   5.685  23.161  13.907
 3466W        W68627   9.797  44.825  11.137
 3467W        W68628   9.794  21.101   4.545
 3468W        W68629   0.492  19.476   3.280
 3469W        W68630  17.560  20.699  13.958
 3470W        W68631  33.444  26.996   2.846
 3471W        W68632  22.688  39.089  10.017
 3472W        W68633  25.683  16.724  13.181
 3473W        W68634  39.378  21.542  14.350
 3474W        W68635   1.467  13.336  14.001
 3475W        W68636  30.969   0.743  11.048
 3476W        W68637   4.998  32.854   0.237
 3477W        W68638  27.480   3.955   3.080
 3478W        W68639   5.195  10.612  11.348
 3479W        W68640  25.680   5.333   1.871
 3480W        W68641  44.653  22.723   3.832
 3481W        W68642  41.324  38.339   3.747
 3482W        W68643  18.136  24.532   4.096
 3483W        W68644   7.891  17.651   2.581
 3484W        W68645   4.759  11.149  11.970
 3485W        W68646   4.438  32.386   4.099
 3486W        W68647  35.982  15.370   0.801
 3487W        W68648   2.554  26.466  11.568
 3488W        W68649   6.187  24.167   0.758
 3489W        W68650   8.485  33.172   3.210
 3490W        W68651  37.553  13.436  12.543
 3491W        W68652  32.249  32.363  14.255
 3492W        W68653  10.846  31.487  12.048
 3493W        W68654  26.167   7.245  14.826
 3494W        W68655  40.374   3.974   0.473
 3495W        W68656  27.758  35.363  11.190
 3496W        W68657  29.237  44.001   2.238
 3497W        W68658  28.017  13.127  13.824
 3498W        W68659  28.522  43.232  14.709
 3499W        W68660  18.121  28.711   3.689
 3500W        W68661  29.908  21.712   0.363
 3501W        W68662  30.636  43.141   3.334
 3502W        W68663   6.926  11.149  13.764
 3503W        W68664  22.642  27.148  13.464
 3504W        W68665  37.472  44.474   2.208
 3505W        W68666  16.308  29.150  11.053
 3506W        W68667  31.266  29.063   3.886
 3507W        W68668  35.953  14.345   0.879
 3508W        W68669  27.993  12.298  14.288
 3509W        W68670  16.968  16.359  11.851
 3510W        W68671  21.047  40.436  10.047
 3511W        W68672  31.994   1.802  11.130
 3512W        W68673  33.284  24.617   4.253
 3513W        W68674   7.114   3.754   0.245
 3514W        W68675  35.786  28.638  10.814
 3515W        W68676  43.062   3.242   4.540
 3516W        W68677  39.412  38.755  13.803
 3517W        W68678  19.432   1.225   0.718
 3518W        W68679  33.930  43.265  13.599
 3519W        W68680   8.709  12.377   4.090
 3520W        W68681  44.738  26.133   3.025
 3521W        W68682  26.587  17.117   4.677
 3522W        W68683  34.690  40.797   3.313
 3523W        W68684  40.053   7.298  11.192
 3524W        W68685  37.461  10.544   0.465
 3525W        W68686  22.869   7.359   0.494
 3526W        W68687  21.548  15.171  10.728
 3527W        W68688   8.920   9.227  11.608
 3528W        W68689  23.946   6.038   5.069
 3529W        W68690   8.745   1.896   4.401
 3530W        W68691  20.106  39.384  13.897
 3531W        W68692   7.146  12.685   2.466
 3532W        W68693  39.480  37.949   0.311
 3533W        W68694  40.822  39.212  11.093
 3534W        W68695   6.067  19.909   4.065
 3535W        W68696  35.446  25.236  14.467
 3536W        W68697  37.484  11.215   3.387
 3537W        W68698  43.536  25.050   3.787
 3538W        W68699  30.112  29.045  10.575
 3539W        W68700  33.630  44.708   2.725
 3540W        W68701   9.633   9.176  14.977
 3541W        W68702  40.120  38.230  14.552
 3542W        W68703  40.318  39.461  14.494
 3543W        W68704  35.343   9.333  11.790
 3544W        W68705  26.030  30.961  14.843
 3545W        W68706  31.037  39.005   5.017
 3546W        W68707  22.560  35.808  14.136
 3547W        W68708  37.334  14.530   3.670
 3548W        W68709   0.298  23.104  11.303
 3549W        W68710  22.720  20.771  13.571
 3550W        W68711  36.409  20.432   4.552
 3551W        W68712  31.819  24.787  12.472
 3552W        W68713  42.857  32.951  13.393
 3553W        W68714  33.628  13.772  14.860
 3554W        W68715  21.729  22.298  14.986
 3555W        W68716  13.792  26.084   0.854
 3556W        W68717  11.219  43.785   4.699
 3557W        W68718  36.979  12.735  13.018
 3558W        W68719  33.484  14.160  14.520
 3559W        W68720   0.094  29.918   0.050
 3560W        W68721  27.632   6.004  14.956
 3561W        W68722  41.473  34.883   1.770
 3562W        W68723  38.405   1.727   4.160
 3563W        W68724  35.551  31.607  14.535
 3564W        W68725   2.526  34.034   0.330
 3565W        W68726  41.560  19.057  12.103
 3566W        W68727  17.307  33.883   1.693
 3567W        W68728  34.067  41.366   2.211
 3568W        W68729   2.886  20.746  14.086
 3569W        W68730  23.516   7.822  10.547
 3570W        W68731  22.434  36.183   2.270
 3571W        W68732  44.541   5.417  11.161
 3572W        W68733  36.918  44.354   4.518
 3573W        W68734  36.771  39.552   9.604
 3574W        W68735  43.973  17.592  10.499
 3575W        W68736  44.956  22.600  13.274
 3576W        W68737   4.468  15.492   3.395
 3577W        W68738  24.056  26.944  14.956
 3578W        W68739  35.608   7.984  12.043
 3579W        W68740  38.479  33.592   0.384
 3580W        W68741  20.591   6.428  11.108
 3581W        W68742  37.334  32.536  11.834
 3582W        W68743   9.801  18.768  13.514
 3583W        W68744  28.752   6.552   0.644
 3584W        W68745  27.343  34.491  11.563
 3585W        W68746   2.395   8.250  11.258
 3586W        W68747  39.509  20.664  10.764
 3587W        W68748   1.036   5.863   1.089
 3588W        W68749  23.290  29.914  11.179
 3589W        W68750  37.207  22.044   3.143
 3590W        W68751  10.285  34.837  12.745
 3591W        W68752  36.358  30.891  13.080
 3592W        W68753  24.662  27.661   4.384
 3593W        W68754  34.041  14.595   3.340
 3594W        W68755  20.721  14.829  11.182
 3595W        W68756   1.525  36.974  12.332
 3596W        W68757  25.116  37.057  14.185
 3597W        W68758  19.637  18.672  11.110
 3598W        W68759  29.594  21.209  14.999
 3599W        W68760   6.356  12.563  11.166
 3600W        W68761  32.082  32.024  13.892
 3601W        W68762   8.296  11.642   2.869
 3602W        W68763   3.355  26.429  14.006
 3603W        W68764  11.387  44.254  12.814
 3604W        W68765  36.130  36.961   3.294
 3605W        W68766   9.638  26.112  10.650
 3606W        W68767  18.124   7.202   4.165
 3607W        W68768   3.392   9.135  14.324
 3608W        W68769  23.187  24.776   0.729
 3609W        W68770  40.558  25.435  14.748
 3610W        W68771  36.440   3.183  14.102
 3611W        W68772  14.710   9.110  12.933
 3612W        W68773  12.073  16.216  13.446
 3613W        W68774  24.425  17.216  14.295
 3614W        W68775  41.098  38.287  12.502
 3615W        W68776  21.466  44.435   3.309
 3616W        W68777  40.080  24.221   4.842
 3617W        W68778  27.292   5.263   4.135
 3618W        W68779  19.122  21.651   1.518
 3619W        W68780  34.557  42.309   4.800
 3620W        W68781  12.411  26.205  12.055
 3621W        W68782  22.144  39.605   4.042
 3622W        W68783  24.016  19.515   4.373
 3623W        W68784  36.083  30.560   0.061
 3624W        W68785  18.252  20.780   0.189
 3625W        W68786  32.514  34.491   4.989
 3626W        W68787  18.193   6.356   0.885
 3627W        W68788  25.154   8.374  13.922
 3628W        W68789  23.494  23.456   2.019
 3629W        W68790  26.523   2.747  12.395
 3630W        W68791  19.841  31.456  14.950
 3631W        W68792  22.624  40.884   2.638
 3632W        W68793  11.729  29.430   1.942
 3633W        W68794  20.342   4.529   1.969
 3634W        W68795  38.535   2.000  11.793
 3635W        W68796  38.620   8.775  12.534
 3636W        W68797  10.264  30.316  11.666
 3637W        W68798   7.715  20.653  12.076
 3638W        W68799  33.943  38.491   3.836
 3639W        W68800  26.741  29.841   0.328
 3640W        W68801  11.891  27.232  10.528
 3641W        W68802  43.953  13.110  10.620
 3642W        W68803  38.075  10.048  14.757
 3643W        W68804  27.335  43.887  12.221
 3644W        W68805  40.067  34.873  12.400
 3645W        W68806  43.545  15.207   0.372
 3646W        W68807  23.175  31.520  13.437
 3647W        W68808  21.308  15.951  10.575
 3648W        W68809   9.599  42.414  14.399
 3649W        W68810  35.003  29.939  14.289
 3650W        W68811  21.002  35.650   3.147
 3651W        W68812   9.716  12.160   1.265
 3652W        W68813  12.352  14.245   1.910
 3653W        W68814  38.415  19.526   3.160
 3654W        W68815  42.296  29.935  13.166
 3655W        W68816  44.379  42.526   2.439
 3656W        W68817   1.395  19.911  13.395
 3657W        W68818   3.312  13.031  12.759
 3658W        W68819  14.760  12.265   1.686
 3659W        W68820  20.508  22.566   4.136
 3660W        W68821  28.850   4.405  13.812
 3661W        W68822   7.532   3.890  12.818
 3662W        W68823  39.563  34.108  10.754
 3663W        W68824  32.840  44.030  10.831
 3664W        W68825   3.376  44.434  10.031
 3665W        W68826  31.833  19.782  10.821
 3666W        W68827   9.129  42.106  11.988
 3667W        W68828  16.105  27.570   4.109
 3668W        W68829  37.377  14.132  14.752
 3669W        W68830  25.927  35.081   4.201
 3670W        W68831  29.657   5.231   1.677
 3671W        W68832  16.299  12.686   3.435
 3672W        W68833  33.557  42.039  11.098
 3673W        W68834  17.972  11.247  13.058
 3674W        W68835  12.204  15.705   0.249
 3675W        W68836  31.454   7.860   1.348
 3676W        W68837  38.957  23.125  13.368
 3677W        W68838  18.591  31.875   1.593
 3678W        W68839  36.230  35.181   5.168
 3679W        W68840  29.443   9.484  12.649
 3680W        W68841  12.842  22.502   0.872
 3681W        W68842   4.320  16.612  13.742
 3682W        W68843  33.566  33.315   1.627
 3683W        W68844  22.659  13.113  10.739
 3684W        W68845  13.279   6.616   2.131
 3685W        W68846  40.040   4.280   3.546
 3686W        W68847   7.617  41.745  13.508
 3687W        W68848  35.963  17.791  11.837
 3688W        W68849   7.209  36.924   2.238
 3689W        W68850  36.538  12.486   0.780
 3690W        W68851   8.429  29.396   1.673
 3691W        W68852  23.548  31.359  10.720
 3692W        W68853  44.243  40.344   1.822
 3693W        W68854  43.115  12.111  12.407
 3694W        W68855   9.069  36.402  11.802
 3695W        W68856  41.349  13.764  14.012
 3696W        W68857   0.301  18.335   0.977
 3697W        W68858   2.527  17.856   3.819
 3698W        W68859   5.724   9.259   0.757
 3699W        W68860   6.635   4.755   3.083
 3700W        W68861  12.540  20.707  12.495
 3701W        W68862  10.155  18.528  12.153
 3702W        W68863  34.056  17.250  12.288
 3703W        W68864  26.712  34.994   0.832
 3704W        W68865   8.651  35.331   1.872
 3705W        W68866  39.550  13.751   0.771
 3706W        W68867  25.502  40.090   2.391
 3707W        W68868  21.816  40.881  14.814
 3708W        W68869  26.739  43.754   3.694
 3709W        W68870   4.642   2.232  13.595
 3710W        W68871  41.499  15.322  14.974
 3711W        W68872  20.641  39.042   4.777
 3712W        W68873  10.235  21.788  10.375
 3713W        W68874  29.755  29.019   3.784
 3714W        W68875  27.722  26.699   4.422
 3715W        W68876  27.018  19.198  14.763
 3716W        W68877  36.542  15.618  10.330
 3717W        W68878  25.097  43.787   0.855
 3718W        W68879  40.838  36.806   3.778
 3719W        W68880  11.627  19.089  12.482
 3720W        W68881  28.139   9.039   4.426
 3721W        W68882   1.642  14.324  11.198
 3722W        W68883  13.141  16.613   4.182
 3723W        W68884  38.281  33.804  13.513
 3724W        W68885   7.213   3.694  11.479
 3725W        W68886  23.597  11.696  13.797
 3726W        W68887  17.034   9.748  11.578
 3727W        W68888  17.792  18.297   4.608
 3728W        W68889   7.126   2.272  11.210
 3729W        W68890  20.313  17.057  13.030
 3730W        W68891  28.199  28.100   2.270
 3731W        W68892   5.788   8.848  13.478
 3732W        W68893   0.282  18.470   0.309
 3733W        W68894  42.683  43.937  12.475
 3734W        W68895  31.936  23.904   2.348
 3735W        W68896   1.070  14.566  12.056
 3736W        W68897  26.640  34.825   3.241
 3737W        W68898  19.473  24.974  11.211
 3738W        W68899   2.873  41.500  11.706
 3739W        W68900  22.233  36.895   3.201
 3740W        W68901  20.130  38.861  11.236
 3741W        W68902  15.790  29.489  14.030
 3742W        W68903  12.812  17.318  12.349
 3743W        W68904  44.750  12.290   2.005
 3744W        W68905  27.663  26.654   0.737
 3745W        W68906  18.060  26.655  14.927
 3746W        W68907  43.402   4.985   0.740
 3747W        W68908  25.984  41.335   4.745
 3748W        W68909  24.582  13.735   4.225
 3749W        W68910   8.955  24.124  13.480
 3750W        W68911  43.350  10.650   0.788
 3751W        W68912  44.564  11.789   4.701
 3752W        W68913  28.634  31.609   1.325
 3753W        W68914  22.617  29.471  13.292
 3754W        W68915   3.660   5.927   4.754
 3755W        W68916   5.329  36.931   2.747
 3756W        W68917   2.781  31.543  10.797
 3757W        W68918   0.396  14.874   4.533
 3758W        W68919  22.524   6.167  13.418
 3759W        W68920   4.862   1.780   1.690
 3760W        W68921  21.142  43.083   0.939
 3761W        W68922  10.291   3.423  11.883
 3762W        W68923  23.216   5.474  12.808
 3763W        W68924  33.001  18.108   4.536
 3764W        W68925  44.271  11.102   0.421
 3765W        W68926  44.781   6.812  11.535
 3766W        W68927  20.105  33.850  14.860
 3767W        W68928  40.833  15.627   0.472
 3768W        W68929   6.782  23.491   2.703
 3769W        W68930  19.457  44.926   2.007
 3770W        W68931  33.143  40.138  14.090
 3771W        W68932  34.866   4.656  13.000
 3772W        W68933  10.265  24.663  14.369
 3773W        W68934  40.521  15.380  12.450
 3774W        W68935  32.426  28.005  10.519
 3775W        W68936  30.590   8.630   1.436
 3776W        W68937  34.569  29.793  13.491
 3777W        W68938  38.009  26.200  14.452
 3778W        W68939  29.935  37.419   4.481
 3779W        W68940  24.655  11.496  14.924
 3780W        W68941  22.794  42.503   1.388
 3781W        W68942  37.081   3.938   4.076
 3782W        W68943  30.401  32.708   1.916
 3783W        W68944  29.368  17.095   1.567
 3784W        W68945  44.402   4.722   5.009
 3785W        W68946   8.806  37.190   4.565
 3786W        W68947  24.174  28.764  10.690
 3787W        W68948   3.864  37.431  14.019
 3788W        W68949  23.930  11.371  12.170
 3789W        W68950  36.334  25.063  14.689
 3790W        W68951  23.209  43.983   1.206
 3791W        W68952  34.066  15.736   2.128
 3792W        W68953  37.909  29.635  14.826
 3793W        W68954  44.416   7.928  11.892
 3794W        W68955   5.349   9.704  11.036
 3795W        W68956  24.902  19.417  11.043
 3796W        W68957  19.126   6.540  14.856
 3797W        W68958  10.864   1.446   2.797
 3798W        W68959  30.423  43.511  11.316
 3799W        W68960  17.092  33.372  14.282
 3800W        W68961  14.552  33.917  11.822
 3801W        W68962  16.875  36.586   0.829
 3802W        W68963  33.403  31.902  12.112
 3803W        W68964  20.167  40.928  14.839
 3804W        W68965  43.819  19.232  13.831
 3805W        W68966  21.018   7.716   0.369
 3806W        W68967   8.278  11.368   3.860
 3807W        W68968  20.661  21.026  14.406
 3808W        W68969   2.275  40.100   0.401
 3809W        W68970  27.633  44.942   4.200
 3810W        W68971   6.701  29.609   5.427
 3811W        W68972  18.642  23.496   2.374
 3812W        W68973  28.148  23.758  10.556
 3813W        W68974   0.321  44.073   2.239
 3814W        W68975  36.100   7.283  14.875
 3815W        W68976  27.042   4.254   1.390
 3816W        W68977  43.777  44.289   4.742
 3817W        W68978   3.524  25.612   1.762
 3818W        W68979  18.533  24.069  10.924
 3819W        W68980  41.848  40.572   2.170
 3820W        W68981  22.630  39.016  12.031
 3821W        W68982  36.478  17.003   3.637
 3822W        W68983   2.712  13.807  14.008
 3823W        W68984  25.550  22.762   1.177
 3824W        W68985   4.597  35.613  13.396
 3825W        W68986  38.399   4.868   3.716
 3826W        W68987  13.829  13.899  11.021
 3827W        W68988   4.857   6.668  13.928
 3828W        W68989  43.477   7.799   3.675
 3829W        W68990   1.787   0.126   3.411
 3830W        W68991  23.575   9.394   0.278
 3831W        W68992   4.693  12.129   9.640
 3832W        W68993   9.343  40.509   1.241
 3833W        W68994   3.434   7.029  12.572
 3834W        W68995  43.446  39.265  10.693
 3835W        W68996  41.855  19.427   3.622
 3836W        W68997  32.352   8.905  10.671
 3837W        W68998  32.502  21.127   4.184
 3838W        W68999   6.269  42.379  11.602
 3839W        W69000  21.271  41.314  10.705
 3840W        W69001  26.727   8.251   0.565
 3841W        W69002  33.831   5.324   0.932
 3842W        W69003  42.128   1.453  11.944
 3843W        W69004  38.559  11.019   4.319
 3844W        W69005  16.147   6.400   2.837
 3845W        W69006  24.602  32.741  14.465
 3846W        W69007  43.393   2.494  11.512
 3847W        W69008  42.294  17.148  11.208
 3848W        W69009   0.388  37.881   2.410
 3849W        W69010   7.622  20.487  12.958
 3850W        W69011   7.333  20.081  14.122
 3851W        W69012  12.625  33.901  12.314
 3852W        W69013  41.951  34.596  14.046
 3853W        W69014  30.907   7.266  11.100
 3854W        W69015  24.190   6.914   1.890
 3855W        W69016  40.937  18.329  12.428
 3856W        W69017  32.478  39.079   2.393
 3857W        W69018  21.796  41.743  11.507
 3858W        W69019   4.843  30.648   3.314
 3859W        W69020   8.884  21.287   2.233
 3860W        W69021  29.043  44.001  11.488
 3861W        W69022  36.129  34.344   2.886
 3862W        W69023  34.222  36.255  10.824
 3863W        W69024  10.692  15.794   1.283
 3864W        W69025  15.120  16.078   0.866
 3865W        W69026  42.273  41.179  10.663
 3866W        W69027  31.947  31.100  12.840
 3867W        W69028  43.399  32.099   3.934
 3868W        W69029  33.983  28.255  13.372
 3869W        W69030  44.484   4.182  14.029
 3870W        W69031  39.568   1.893   4.471
 3871W        W69032  15.041  37.394  11.177
 3872W        W69033  43.095  23.627   3.165
 3873W        W69034  22.213  36.559  12.075
 3874W        W69035  26.640  44.296  11.513
 3875W        W69036  36.761  33.748  12.708
 3876W        W69037  16.132   9.937   0.065
 3877W        W69038  10.346  34.017  10.519
 3878W        W69039  30.089  34.628   3.261
 3879W        W69040  11.661  44.463  10.383
 3880W        W69041  24.590  20.922  10.656
 3881W        W69042  30.899  42.795   0.290
 3882W        W69043  42.969  28.617  10.657
 3883W        W69044  40.051  25.005   4.762
 3884W        W69045  21.107  22.340  12.914
 3885W        W69046   9.681   2.245   1.320
 3886W        W69047   3.235  19.558  14.279
 3887W        W69048  24.848   6.640   1.427
 3888W        W69049  24.112  28.433  11.097
 3889W        W69050   7.197  37.281  11.973
 3890W        W69051   3.967   2.105   0.128
 3891W        W69052  13.692  11.271  14.503
 3892W        W69053  35.616  18.737   3.253
 3893W        W69054  43.860  20.044   2.373
 3894W        W69055   4.573   2.251  14.451
 3895W        W69056  10.825   5.145   2.210
 3896W        W69057  32.146  36.542  12.472
 3897W        W69058  24.247  35.455  10.836
 3898W        W69059  20.744  40.779  14.899
 3899W        W69060  31.873  10.269  12.089
 3900W        W69061  23.105  28.782  10.735
 3901W        W69062  29.568  29.800  12.910
 3902W        W69063  24.678   6.732   3.412
 3903W        W69064  11.849  15.414  10.743
 3904W        W69065  19.721  27.978  11.145
 3905W        W69066  31.616  20.882   3.014
 3906W        W69067  20.855  27.520   0.276
 3907W        W69068  10.828  24.752   4.686
 3908W        W69069  44.176  42.487   3.470
 3909W        W69070  43.465  23.292   4.943
 3910W        W69071  44.760  12.723   3.140
 3911W        W69072  25.694  17.657  12.161
 3912W        W69073  18.711  21.509   1.193
 3913W        W69074  35.612  36.788   4.246
 3914W        W69075  16.239   3.875   2.067
 3915W        W69076   0.315  14.525  11.334
 3916W        W69077  22.098  37.568   0.771
 3917W        W69078  11.204  27.453   1.746
 3918W        W69079  37.051   7.739   2.705
 3919W        W69080  26.009   4.400  11.069
 3920W        W69081  22.039   9.246  12.956
 3921W        W69082   3.842  37.431  11.225
 3922W        W69083  39.999  16.763   2.159
 3923W        W69084  35.512  30.984   3.424
 3924W        W69085  15.454  11.679  14.879
 3925W        W69086  27.103  21.980  12.548
 3926W        W69087  29.119  23.205  12.505
 3927W        W69088  36.464  26.145   1.143
 3928W        W69089  21.133  37.525   1.893
 3929W        W69090  43.596  32.952   3.347
 3930W        W69091  41.919  26.394   0.828
 3931W        W69092   2.275  19.098  13.392
 3932W        W69093  14.451  38.559   4.154
 3933W        W69094  25.137   6.937  13.917
 3934W        W69095   7.401   3.385  11.918
 3935W        W69096  22.623  36.970  10.793
 3936W        W69097  21.485  20.761   0.802
 3937W        W69098  18.286  44.397   2.662
 3938W        W69099  38.824  28.501   3.293
 3939W        W69100  28.923  23.009   1.182
 3940W        W69101   8.189  39.107  11.709
 3941W        W69102  33.317  36.810  14.990
 3942W        W69103  31.147  25.710  13.545
 3943W        W69104   8.064  16.735   2.996
 3944W        W69105  18.859  12.306  12.934
 3945W        W69106  30.420  21.688   0.257
 3946W        W69107  24.577  44.960  12.932
 3947W        W69108  36.602   5.723  12.007
 3948W        W69109   5.479  41.096   4.116
 3949W        W69110  24.193   5.932   2.338
 3950W        W69111  41.566  42.534  12.882
 3951W        W69112  29.372  35.060  14.016
 3952W        W69113  29.105   9.407   0.853
 3953W        W69114  25.143  36.298  11.067
 3954W        W69115  32.827  24.199  12.882
 3955W        W69116  11.428  25.982   4.253
 3956W        W69117  41.660  32.819   4.257
 3957W        W69118   7.952   7.364  12.286
 3958W        W69119  37.556  11.778  11.952
 3959W        W69120  11.564  33.608  13.123
 3960W        W69121  33.647  19.247   3.233
 3961W        W69122  20.191  21.159   4.072
 3962W        W69123  42.939  24.082   1.471
 3963W        W69124  21.924  23.526  14.443
 3964W        W69125  18.630   0.523  10.737
 3965W        W69126  37.016  34.590  14.417
 3966W        W69127   5.341   5.998  12.495
 3967W        W69128  30.105   9.628  14.914
 3968W        W69129   5.165   3.696  11.034
 3969W        W69130  28.462  20.482  14.489
 3970W        W69131  42.107  20.500  11.286
 3971W        W69132  26.085  21.607   5.448
 3972W        W69133  14.387   4.673  10.698
 3973W        W69134  33.168  19.392  12.485
 3974W        W69135   8.860  22.249  13.625
 3975W        W69136  38.340  16.059  13.131
 3976W        W69137  21.005  28.010  14.781
 3977W        W69138  25.996  13.850  13.658
 3978W        W69139  41.715  18.817   2.362
 3979W        W69140  29.924  37.860   1.121
 3980W        W69141   1.487  43.885   1.832
 3981W        W69142  19.565  37.529  12.444
 3982W        W69143  11.454   6.264   0.869
 3983W        W69144  31.358  20.195   1.694
 3984W        W69145  38.024  22.751  13.939
 3985W        W69146   6.487  13.636   3.172
 3986W        W69147  37.053  17.789   0.252
 3987W        W69148   9.871  19.251   3.163
 3988W        W69149  17.159  18.652   1.811
 3989W        W69150  27.585  24.613   4.482
 3990W        W69151  35.970   1.824   2.301
 3991W        W69152   1.774  21.074   4.558
 3992W        W69153   9.550  36.582  13.040
 3993W        W69154  16.467  11.812   2.087
 3994W        W69155  37.051  10.154  11.590
 3995W        W69156   0.772   2.366  12.762
 3996W        W69157  41.839   3.843   3.847
 3997W        W69158  25.638  39.884   1.949
 3998W        W69159  27.642   0.289   1.371
 3999W        W69160  11.937  38.619  14.524
 4000W        W69161  28.177   8.127   4.115
 4001W        W69162  39.072  26.717  14.353
 4002W        W69163  31.196  13.629   0.228
 4003W        W69164  26.729  17.988   3.151
 4004W        W69165  25.541  22.586  13.983
 4005W        W69166  28.705  29.036   2.215
 4006W        W69167  23.740  29.164   4.793
 4007W        W69168   9.716  20.979   1.728
 4008W        W69169  33.551  39.942   1.014
 4009W        W69170  29.222  24.802   2.302
 4010W        W69171  41.047  41.588   1.310
 4011W        W69172  13.123  25.527  14.819
 4012W        W69173  35.563   4.213   1.646
 4013W        W69174  43.590  43.478   1.786
 4014W        W69175  43.313  27.604  13.106
 4015W        W69176  37.622  41.051   3.000
 4016W        W69177  32.028  11.807   2.187
 4017W        W69178  21.501  40.437  12.513
 4018W        W69179   6.469   5.346  10.032
 4019W        W69180  16.712   2.045   3.275
 4020W        W69181  36.421  13.629  12.347
 4021W        W69182  22.177  44.738   1.031
 4022W        W69183   6.949  40.320  11.543
 4023W        W69184  36.618  18.206   1.325
 4024W        W69185  15.263  12.100  10.736
 4025W        W69186  32.222  32.860   1.615
 4026W        W69187  32.815  15.224  11.061
 4027W        W69188  38.081  43.028   5.108
 4028W        W69189  23.494  20.974  10.231
 4029W        W69190  26.566   5.738  13.534
 4030W        W69191  21.501  34.347  13.469
 4031W        W69192  10.907  31.958  12.219
 4032W        W69193   2.158  20.974  10.552
 4033W        W69194  44.929  40.981  11.031
 4034W        W69195  13.459  17.596   0.793
 4035W        W69196   7.857  16.106   0.357
 4036W        W69197  42.067   0.303   2.315
 4037W        W69198  34.685  19.573   2.751
 4038W        W69199  42.836  19.963  11.214
 4039W        W69200  37.154  29.135   4.125
 4040W        W69201   4.317  35.266  13.113
 4041W        W69202  29.662  39.508   0.318
 4042W        W69203   7.699   3.315   2.829
 4043W        W69204  43.907   9.874  11.995
 4044W        W69205   1.337  41.200  11.080
 4045W        W69206  27.992   6.777  10.654
 4046W        W69207  43.099  13.541  11.632
 4047W        W69208   9.836   5.954   0.776
 4048W        W69209  27.462   0.132  12.407
 4049W        W69210  44.756  22.860  11.392
 4050W        W69211   8.356  40.459   0.423
 4051W        W69212  42.820  33.996   4.218
 4052W        W69213  42.238  28.710  13.320
 4053W        W69214  22.968  15.636  12.016
 4054W        W69215  21.423  35.368   0.394
 4055W        W69216  28.596  37.548   3.628
 4056W        W69217  17.255  23.801  10.375
 4057W        W69218  24.228   2.904  13.853
 4058W        W69219  43.989  14.206   0.751
 4059W        W69220  29.432  21.493   0.982
 4060W        W69221  43.854  25.227  11.568
 4061W        W69222  40.031  36.364   0.891
 4062W        W69223  32.386  43.448   3.134
 4063W        W69224  20.566  26.287   4.933
 4064W        W69225  38.982  18.098   1.894
 4065W        W69226  12.261  40.815   3.104
 4066W        W69227   2.453  28.914  14.006
 4067W        W69228  43.707  18.658  14.432
 4068W        W69229  14.792   9.658  12.060
 4069W        W69230  40.250   9.127  12.533
 4070W        W69231  41.052  17.245   2.764
 4071W        W69232  19.690  18.149   0.191
 4072W        W69233  36.792  29.911  14.759
 4073W        W69234  16.566  14.183  11.672
 4074W        W69235  14.900  11.782   3.023
 4075W        W69236  44.767  36.940  11.245
 4076W        W69237   5.325   3.880  12.552
 4077W        W69238   6.390  37.790   4.542
 4078W        W69239  29.535  36.873   3.474
 4079W        W69240   0.218  29.101   2.472
 4080W        W69241   0.782   8.769   2.787
 4081W        W69242  39.040  32.645   3.908
 4082W        W69243  44.064  34.139   3.786
 4083W        W69244  44.884  30.456   4.799
 4084W        W69245  36.554  44.622   1.877
 4085W        W69246  11.658   7.640   3.097
 4086W        W69247  13.607  32.413  13.093
 4087W        W69248  16.239   6.847   3.801
 4088W        W69249   9.426  31.095  12.127
 4089W        W69250  42.983  25.153  12.944
 4090W        W69251  12.789  36.847  14.354
 4091W        W69252  20.551  39.792   3.290
 4092W        W69253  24.481  31.373  13.990
 4093W        W69254  42.484  10.598  10.985
 4094W        W69255   3.327   9.583   1.245
 4095W        W69256  14.123  11.084   4.578
 4096W        W69257   7.142   1.813  11.652
 4097W        W69258  34.905   3.827  13.982
 4098W        W69259   6.746   5.566  12.026
 4099W        W69260  39.594  10.285  14.908
 4100W        W69261  12.284  29.010  10.618
 4101W        W69262  14.330  11.641  13.843
 4102W        W69263   5.404  12.600   1.585
 4103W        W69264  33.917  21.186  11.083
 4104W        W69265  27.085  25.380   4.556
 4105W        W69266   5.432  17.116  11.600
 4106W        W69267  35.994  20.368   0.585
 4107W        W69268  42.313  33.904  12.474
 4108W        W69269  24.705  12.494   0.277
 4109W        W69270   7.678  42.830   2.849
 4110W        W69271  23.057  11.672  13.915
 4111W        W69272  33.020  44.713   2.329
 4112W        W69273   6.662  12.100  11.481
 4113W        W69274  18.253  14.876   3.602
 4114W        W69275  32.644  26.164  13.430
 4115W        W69276  24.002  15.643  14.000
 4116W        W69277  24.476   4.664   2.073
 4117W        W69278  14.823  29.257   4.359
 4118W        W69279   6.729  44.100  11.757
 4119W        W69280  29.968  23.943  13.492
 4120W        W69281  11.811   6.222   2.246
 4121W        W69282  38.123  24.703   3.899
 4122W        W69283   3.198  36.093  10.984
 4123W        W69284  31.627  17.808  12.087
 4124W        W69285  14.885  23.663   3.819
 4125W        W69286  32.540  12.099  14.903
 4126W        W69287  40.432  36.311  14.277
 4127W        W69288  44.407   2.242  11.575
 4128W        W69289  24.021   3.212  10.254
 4129W        W69290  24.192  33.745   0.381
 4130W        W69291  31.269  15.924   5.127
 4131W        W69292   4.904  21.676  14.819
 4132W        W69293  43.785  38.097   2.294
 4133W        W69294  13.273  13.171  12.456
 4134W        W69295  33.935  32.984   1.454
 4135W        W69296  25.653  41.947  12.215
 4136W        W69297  22.731  27.872   5.083
 4137W        W69298  31.571  25.997  12.841
 4138W        W69299  42.441  15.168   3.943
 4139W        W69300  44.415  21.710  10.606
 4140W        W69301   1.663  43.395  10.740
 4141W        W69302  19.858  39.265   3.930
 4142W        W69303  15.111  21.683   1.032
 4143W        W69304  26.412  42.605  12.750
 4144W        W69305   6.525   4.660  13.508
 4145W        W69306  25.406  24.990   1.255
 4146W        W69307   7.256   7.615  12.924
 4147W        W69308  16.725  20.536  14.317
 4148W        W69309  21.301   0.570   2.592
 4149W        W69310  25.540   5.424   4.507
 4150W        W69311   0.144   3.886   3.152
 4151W        W69312   0.322  11.275  12.804
 4152W        W69313  15.978  35.861   3.201
 4153W        W69314   5.770  37.807  11.043
 4154W        W69315  35.356  28.593   1.547
 4155W        W69316  24.109  34.934  14.107
 4156W        W69317  14.096   3.323  11.094
 4157W        W69318  26.337  34.541   4.527
 4158W        W69319  16.647  23.708   0.689
 4159W        W69320  27.840  44.784   2.020
 4160W        W69321  23.690  23.856  11.787
 4161W        W69322   0.222  14.274  10.885
 4162W        W69323  31.153  39.560  12.225
 4163W        W69324   0.575   3.463   0.799
 4164W        W69325   3.200  14.357   3.770
 4165W        W69326   6.774  33.205   1.351
 4166W        W69327  29.931  27.395  14.461
 4167W        W69328  18.264   9.831   2.868
 4168W        W69329  20.174   3.675  13.029
 4169W        W69330   1.233  34.053  12.488
 4170W        W69331  21.662   2.353   0.709
 4171W        W69332  36.006  23.430  13.295
 4172W        W69333  23.655  32.478  13.045
 4173W        W69334   1.487  16.918   4.409
 4174W        W69335  12.163   7.234   3.658
 4175W        W69336   3.598  28.660   4.342
 4176W        W69337  20.199  43.140   9.502
 4177W        W69338  21.653  39.193  12.989
 4178W        W69339  28.240  18.642   0.865
 4179W        W69340   6.121  36.453   1.785
 4180W        W69341  20.110   9.726   1.387
 4181W        W69342  31.710   4.030   3.645
 4182W        W69343  11.607   5.226   0.035
 4183W        W69344  20.203  30.452  12.533
 4184W        W69345  14.417  41.755  12.342
 4185W        W69346  17.380  15.510   2.824
 4186W        W69347  37.712   4.340   2.737
 4187W        W69348   3.372   3.027   4.582
 4188W        W69349  43.494  42.805  10.892
 4189W        W69350  24.203  28.983   3.931
 4190W        W69351  18.118  10.375  11.715
 4191W        W69352   2.811  30.136   1.379
 4192W        W69353  23.646   0.334  14.199
 4193W        W69354  29.948   9.166   2.324
 4194W        W69355  20.254  28.218  11.150
 4195W        W69356  37.553   9.601  13.958
 4196W        W69357  32.485  21.570   1.281
 4197W        W69358   9.706  22.810  12.775
 4198W        W69359  30.733  43.130  14.976
 4199W        W69360  26.180   1.732  11.670
 4200W        W69361   6.245  21.770   2.266
 4201W        W69362  19.137  12.177   2.747
 4202W        W69363   3.872  27.725   2.165
 4203W        W69364  24.075  24.692   4.628
 4204W        W69365  30.681  10.646   1.807
 4205W        W69366  21.682   3.501   3.609
 4206W        W69367   3.318  28.444  11.609
 4207W        W69368  28.961  10.682  13.815
 4208W        W69369  33.671   7.802  13.764
 4209W        W69370  29.865   1.213  14.058
 4210W        W69371  13.227  16.499   0.328
 4211W        W69372  38.231   9.846  13.057
 4212W        W69373   1.198   2.590   2.391
 4213W        W69374  36.466  25.175   1.201
 4214W        W69375   4.880  12.246   3.759
 4215W        W69376   3.948  43.543   0.943
 4216W        W69377  29.768   3.189   1.737
 4217W        W69378   5.365  32.484  11.161
 4218W        W69379  14.503  10.697   2.827
 4219W        W69380  33.013  28.362   3.904
 4220W        W69381  25.309  44.350   4.355
 4221W        W69382  19.536  31.237  11.990
 4222W        W69383  40.969  30.665   4.110
 4223W        W69384  36.440  16.797   2.292
 4224W        W69385   8.085  23.146  10.654
 4225W        W69386  22.832  41.745  12.385
 4226W        W69387  26.534   6.495   2.310
 4227W        W69388  22.980  37.367  14.438
 4228W        W69389  12.103  19.666   0.336
 4229W        W69390  37.080  10.734  14.538
 4230W        W69391   1.396  10.541   4.336
 4231W        W69392  28.374  11.227   0.779
 4232W        W69393  23.806  34.013   4.324
 4233W        W69394  43.994  30.982   0.809
 4234W        W69395   9.372  24.736  11.867
 4235W        W69396   8.596   7.995   0.904
 4236W        W69397   1.719   7.197   0.854
 4237W        W69398  43.705  18.237  14.105
 4238W        W69399  32.735  16.169  12.942
 4239W        W69400  27.505  22.862   2.858
 4240W        W69401   6.219  41.963  13.939
 4241W        W69402  34.834  25.742  13.614
 4242W        W69403   9.056  28.634   0.262
 4243W        W69404   9.429  43.366  11.414
 4244W        W69405  35.448  12.775   4.591
 4245W        W69406  22.580   5.317   4.085
 4246W        W69407  21.046   4.520  14.507
 4247W        W69408  31.278   6.919  11.187
 4248W        W69409  24.262  25.466   5.004
 4249W        W69410  20.609   0.529   3.399
 4250W        W69411  40.938  25.642  14.227
 4251W        W69412   5.855  12.176  10.485
 4252W        W69413  43.482  42.975  12.928
 4253W        W69414  16.986  20.236  13.148
 4254W        W69415   4.890  23.472   1.794
 4255W        W69416  37.765  33.181  10.922
 4256W        W69417  44.639  18.366  14.408
 4257W        W69418  30.707  19.841   1.254
 4258W        W69419   9.687  40.906   1.300
 4259W        W69420  37.864  31.232   4.578
 4260W        W69421  20.729  35.866  10.732
 4261W        W69422  39.482   7.843   1.219
 4262W        W69423  19.618  26.679   1.372
 4263W        W69424   4.362  33.460  13.334
 4264W        W69425  18.487  25.163   1.709
 4265W        W69426   2.786  24.577   1.360
 4266W        W69427  21.988   1.400  13.620
 4267W        W69428  38.210  13.226  11.843
 4268W        W69429  19.368  42.094  11.706
 4269W        W69430   3.729  32.744   4.540
 4270W        W69431  39.102   6.585   9.849
 4271W        W69432  34.154  24.418   3.228
 4272W        W69433  26.897   3.708   4.094
 4273W        W69434   6.922   5.684   3.373
 4274W        W69435   3.457  39.464   2.235
 4275W        W69436  23.569  20.533   0.862
 4276W        W69437  41.513   8.155   1.745
 4277W        W69438  22.634  25.156   4.497
 4278W        W69439  38.963  33.135  14.780
 4279W        W69440   5.530  12.356   2.911
 4280W        W69441   7.575  23.016   4.625
 4281W        W69442   1.917  12.822  10.912
 4282W        W69443  14.613  21.505  14.812
 4283W        W69444  36.368  38.963  13.970
 4284W        W69445  23.534  44.547  10.572
 4285W        W69446  18.749  33.986   1.338
 4286W        W69447  19.069  32.972   1.380
 4287W        W69448  34.138  42.305  14.231
 4288W        W69449  25.893  43.769   0.307
 4289W        W69450  31.381  37.351  14.367
 4290W        W69451  32.951   9.267   3.533
 4291W        W69452  24.965   9.511   5.384
 4292W        W69453  38.555  25.256  12.515
 4293W        W69454  17.053  25.155  11.953
 4294W        W69455  29.361   3.467   1.271
 4295W        W69456  23.584  22.950  11.368
 4296W        W69457   8.359  12.265  12.416
 4297W        W69458  17.020  39.134   1.814
 4298W        W69459   8.713   1.336  13.294
 4299W        W69460  32.546  21.033  13.833
 4300W        W69461  38.436  30.633   3.777
 4301W        W69462  42.090  34.858  12.512
 4302W        W69463  43.339   4.764  14.863
 4303W        W69464  41.264  11.591  11.081
 4304W        W69465  38.228  37.842   4.250
 4305W        W69466   8.158  34.901   0.415
 4306W        W69467  40.988  35.549  10.724
 4307W        W69468  15.791   0.857  14.542
 4308W        W69469   4.843  23.251  11.156
 4309W        W69470  37.412  29.174  12.924
 4310W        W69471   6.365  30.982   1.291
 4311W        W69472  41.856  18.604  11.439
 4312W        W69473  29.397  37.220  13.034
 4313W        W69474  24.196  26.759  10.768
 4314W        W69475  30.004  18.014   0.787
 4315W        W69476  40.655  10.357  11.496
 4316W        W69477   6.762  19.473   0.091
 4317W        W69478  12.409  20.241   4.153
 4318W        W69479  31.411  17.280   3.364
 4319W        W69480  24.557   0.366   2.386
 4320W        W69481  33.975  17.155   1.852
 4321W        W69482  11.256  26.610   2.896
 4322W        W69483  25.760   6.957  12.805
 4323W        W69484   9.213  10.301   2.371
 4324W        W69485  11.385  28.397  11.135
 4325W        W69486  24.408   6.449   1.729
 4326W        W69487   6.464  41.803   1.706
 4327W        W69488  11.564   3.809   0.568
 4328W        W69489  44.330  29.133   3.704
 4329W        W69490  16.629   6.677  12.414
 4330W        W69491  32.189  25.851   0.806
 4331W        W69492   4.683  21.842  14.349
 4332W        W69493  42.813  22.053   4.466
 4333W        W69494   4.450  18.169  11.231
 4334W        W69495   6.517  28.865   0.917
 4335W        W69496   4.891  20.725   2.768
 4336W        W69497  38.659  40.449  13.868
 4337W        W69498  23.011  26.888   2.266
 4338W        W69499  43.350  28.431   0.955
 4339W        W69500  16.517  19.542   2.323
 4340W        W69501   3.264  21.674   3.239
 4341W        W69502   7.668  43.263   3.342
 4342W        W69503  13.408  10.784  12.025
 4343W        W69504   8.990  27.668  10.263
 4344W        W69505  37.415  37.655   1.002
 4345W        W69506  38.925   7.873   4.098
 4346W        W69507  44.241  23.627  11.114
 4347W        W69508  31.084  12.858  11.380
 4348W        W69509  10.219  19.817  10.282
 4349W        W69510  37.442  35.346   3.428
 4350W        W69511  15.124   2.780   3.407
 4351W        W69512  34.186  40.785   3.160
 4352W        W69513  29.555  41.572  13.523
 4353W        W69514  36.620  38.045   4.759
 4354W        W69515  32.830   4.179  13.825
 4355W        W69516  37.329  16.137  11.989
 4356W        W69517  32.661  39.025  13.079
 4357W        W69518  44.561  14.168  10.744
 4358W        W69519  27.619  10.399   0.718
 4359W        W69520  10.130  21.079   2.407
 4360W        W69521  33.768  37.572  10.241
 4361W        W69522  37.934   6.097   2.109
 4362W        W69523  44.363   3.514   4.238
 4363W        W69524  34.076  41.457   0.361
 4364W        W69525  44.892  34.575   5.200
 4365W        W69526  27.269  11.191   2.623
 4366W        W69527  25.197  40.524  10.306
 4367W        W69528  16.839  21.209   2.768
 4368W        W69529  24.233   2.216   4.125
 4369W        W69530  22.880  13.415  12.559
 4370W        W69531  43.939  21.170  12.640
 4371W        W69532   5.637   1.733   3.811
 4372W        W69533  17.735   5.375  13.209
 4373W        W69534  33.511  25.708  10.400
 4374W        W69535   3.741  37.509  13.007
 4375W        W69536  29.867  17.209   1.244
 4376W        W69537  31.535  36.560   3.730
 4377W        W69538  40.588  32.819   5.044
 4378W        W69539  30.090  25.749   3.483
 4379W        W69540  26.587  22.171  11.460
 4380W        W69541  22.217  41.641  13.338
 4381W        W69542  28.066  23.717   0.327
 4382W        W69543  43.570  34.309   0.328
 4383W        W69544  28.997  36.914   0.692
 4384W        W69545  34.894  29.609   3.828
 4385W        W69546  44.095   9.324   4.761
 4386W        W69547  34.680  10.642   4.591
 4387W        W69548  22.288  23.728  13.097
 4388W        W69549  28.470  28.248  13.884
 4389W        W69550  35.280  16.274  10.888
 4390W        W69551  40.297   5.811   3.344
 4391W        W69552  41.680  32.184   3.795
 4392W        W69553  35.005  25.671  12.619
 4393W        W69554   2.455   9.304  13.279
 4394W        W69555   3.902  41.057  14.713
 4395W        W69556  44.486  25.980  11.033
 4396W        W69557  30.556   0.505   0.798
 4397W        W69558   1.650   2.306   3.286
 4398W        W69559   1.842  14.632  12.621
 4399W        W69560  22.731  30.953   1.165
 4400W        W69561   1.763  21.610  12.425
 4401W        W69562  23.071  28.173   0.459
 4402W        W69563  28.175  37.375   3.406
 4403W        W69564  30.600  25.999  12.961
 4404W        W69565  30.697  22.240   9.784
 4405W        W69566  40.507  38.110   1.208
 4406W        W69567  18.518   9.634   3.552
 4407W        W69568  28.210  11.804   3.382
 4408W        W69569  11.341  30.586   2.793
 4409W        W69570  35.935  22.324   2.456
 4410W        W69571  20.782  13.284  14.443
 4411W        W69572   9.289  31.590  12.048
 4412W        W69573   4.321  29.425  11.412
 4413W        W69574  38.639   5.326   3.732
 4414W        W69575  10.243   8.114   4.659
 4415W        W69576  36.394   9.935  14.296
 4416W        W69577  25.060  32.816   4.709
 4417W        W69578  37.305  37.641  11.515
 4418W        W69579  17.564  19.295  14.067
 4419W        W69580  16.560  33.466   0.603
 4420W        W69581   1.205  35.344   0.468
 4421W        W69582  39.774  15.956   1.459
 4422W        W69583   3.986  24.669  14.687
 4423W        W69584  35.491   5.731   2.872
 4424W        W69585   3.922  33.627  14.350
 4425W        W69586  44.434   2.324  14.919
 4426W        W69587  12.810  12.440  12.590
 4427W        W69588  22.753  20.656   2.219
 4428W        W69589  42.996  12.357  11.137
 4429W        W69590  21.898   4.280  13.873
 4430W        W69591   9.569  14.150  11.608
 4431W        W69592  35.956  39.559   0.385
 4432W        W69593  40.305  15.294  10.479
 4433W        W69594  44.539  44.215   4.245
 4434W        W69595  35.857  29.468  12.309
 4435W        W69596  42.332  19.039   2.273
 4436W        W69597  18.998  16.589  14.973
 4437W        W69598   8.258   1.259   0.355
 4438W        W69599  18.741  22.210   0.432
 4439W        W69600   1.699  29.674   0.767
 4440W        W69601  27.608  16.390   3.355
 4441W        W69602   3.080   3.532  14.265
 4442W        W69603  17.802   0.959   3.183
 4443W        W69604   1.210  26.377  11.085
 4444W        W69605  31.707  25.916   4.592
 4445W        W69606  35.890  18.820   1.847
 4446W        W69607  27.192  42.538  14.447
 4447W        W69608  14.830  41.943  14.282
 4448W        W69609   5.444  10.750   3.641
 4449W        W69610  39.398   0.527  14.954
 4450W        W69611  25.689  38.374  11.604
 4451W        W69612   1.896  10.409  12.861
 4452W        W69613  19.588  41.747   3.978
 4453W        W69614  24.940  38.831   1.147
 4454W        W69615   3.817  10.421   1.627
 4455W        W69616  30.673  37.150  11.993
 4456W        W69617  19.024   7.153   1.687
 4457W        W69618  26.592  30.201  13.040
 4458W        W69619  39.287  24.675   4.793
 4459W        W69620  37.443  24.545   4.613
 4460W        W69621  20.174  34.459   0.514
 4461W        W69622  42.332  10.286   2.790
 4462W        W69623  11.211  42.487   2.844
 4463W        W69624   6.916  31.603  12.692
 4464W        W69625   8.362  16.130   0.298
 4465W        W69626   3.117  41.428   2.853
 4466W        W69627  39.851  13.258  12.502
 4467W        W69628   7.950  13.914  11.134
 4468W        W69629  17.759  32.552   3.641
 4469W        W69630   7.947  19.138   1.989
 4470W        W69631   5.737  44.963  12.056
 4471W        W69632  18.622  17.530   3.442
 4472W        W69633  29.528  20.620  14.085
 4473W        W69634  13.501  43.187  10.133
 4474W        W69635  43.341  43.861   4.482
 4475W        W69636  38.941  35.935  10.787
 4476W        W69637   4.365  31.550   4.608
 4477W        W69638   8.269  41.393  10.707
 4478W        W69639  34.799   3.557   2.599
 4479W        W69640  34.495  24.180  13.832
 4480W        W69641  19.205  37.301  14.956
 4481W        W69642   1.710  31.698  12.779
 4482W        W69643  28.222  40.380   2.290
 4483W        W69644  29.477  38.754  14.636
 4484W        W69645  31.406   1.465  14.964
 4485W        W69646  28.155  21.689   2.634
 4486W        W69647   3.347  11.218   3.343
 4487W        W69648   6.471  25.253  14.748
 4488W        W69649  15.312  37.930   4.148
 4489W        W69650  35.577  12.173  13.105
 4490W        W69651   7.596  12.729  14.883
 4491W        W69652  27.208  22.263   3.881
 4492W        W69653  15.315  23.968  14.532
 4493W        W69654  18.857  27.223  12.936
 4494W        W69655  20.840  19.122   3.084
 4495W        W69656  25.630  43.619   4.090
 4496W        W69657  31.951   5.178  12.470
 4497W        W69658  35.632   1.356  11.389
 4498W        W69659  44.996  17.684   4.853
 4499W        W69660  18.642  36.895   4.307
 4500W        W69661  38.117   8.494  12.068
 4501W        W69662  37.374  25.061   4.548
 4502W        W69663  19.575  36.314   1.384
 4503W        W69664  42.117   0.926  13.413
 4504W        W69665   2.354  39.539   3.539
 4505W        W69666  34.562   7.385   4.906
 4506W        W69667   9.874  18.088   1.720
 4507W        W69668  28.809  11.847   5.146
 4508W        W69669   8.031   4.744   1.676
 4509W        W69670  34.811   5.422  11.392
 4510W        W69671  19.556   8.434   3.519
 4511W        W69672  31.718   1.343  13.473
 4512W        W69673  21.204  11.587  11.133
 4513W        W69674  37.743  19.020  13.484
 4514W        W69675   3.923   0.714  14.068
 4515W        W69676  22.232  26.157  14.035
 4516W        W69677  35.272  42.959  14.350
 4517W        W69678  19.126  39.800  13.778
 4518W        W69679  30.749   2.510   3.646
 4519W        W69680   2.001  37.316   0.866
 4520W        W69681  36.830  13.791   0.356
 4521W        W69682  40.951   9.321   1.796
 4522W        W69683   9.072   6.401  11.544
 4523W        W69684  16.332   0.161   2.492
 4524W        W69685  15.087  18.062   3.970
 4525W        W69686  28.784  38.927  11.608
 4526W        W69687  25.979  32.971   2.289
 4527W        W69688   5.192  20.771  11.910
 4528W        W69689  26.197  20.750   0.775
 4529W        W69690  38.483  17.526   1.329
 4530W        W69691  15.697  18.496  13.469
 4531W        W69692  16.478   5.416  11.072
 4532W        W69693  16.855  21.538   1.267
 4533W        W69694  37.472  41.062   0.270
 4534W        W69695  36.978  18.041  14.767
 4535W        W69696   0.967  15.776   3.753
 4536W        W69697  36.638  43.760   2.810
 4537W        W69698  15.794  27.251   3.374
 4538W        W69699  16.261  38.960   0.445
 4539W        W69700  10.314  24.749  11.934
 4540W        W69701  11.316  24.482   3.402
 4541W        W69702  11.722  39.767  11.651
 4542W        W69703  20.708   9.013   2.333
 4543W        W69704  10.362  29.328  11.359
 4544W        W69705   2.815  18.443   4.536
 4545W        W69706  44.317  23.702   9.992
 4546W        W69707  26.710  40.504  11.791
 4547W        W69708  20.074  13.632  12.093
 4548W        W69709  36.885   9.788   1.877
 4549W        W69710   7.825  19.075   4.105
 4550W        W69711  22.850  34.882   0.297
 4551W        W69712   9.474  10.212   3.754
 4552W        W69713   6.351  11.341   2.308
 4553W        W69714  43.728  27.482  13.470
 4554W        W69715  25.877   3.215   1.490
 4555W        W69716   3.164  36.429   1.646
 4556W        W69717  16.786  24.371   0.408
 4557W        W69718   0.205  34.678  11.008
 4558W        W69719  36.523  27.850   1.484
 4559W        W69720  29.459   1.995  13.936
 4560W        W69721   1.306   3.673  14.975
 4561W        W69722   5.404  24.497  11.399
 4562W        W69723   8.174  29.287  10.918
 4563W        W69724   3.224   8.948   2.663
 4564W        W69725  33.565   5.687  13.414
 4565W        W69726  31.941   9.864   2.859
 4566W        W69727  29.948  18.498   4.090
 4567W        W69728   8.810  18.937  11.614
 4568W        W69729  35.681  32.938  13.263
 4569W        W69730  36.914  23.320  13.097
 4570W        W69731  22.481  31.984  14.412
 4571W        W69732  14.342  35.167  11.543
 4572W        W69733  11.267   4.518  10.537
 4573W        W69734   4.797   2.749  11.828
 4574W        W69735  43.226  20.631   3.863
 4575W        W69736  31.139   0.884   4.773
 4576W        W69737  39.361  20.525   3.914
 4577W        W69738  39.126  15.832  11.111
 4578W        W69739  10.768  30.398  11.429
 4579W        W69740  44.897  44.463  10.690
 4580W        W69741  38.789  12.703  12.750
 4581W        W69742  34.988   8.864  11.080
 4582W        W69743  29.114   8.220  11.111
 4583W        W69744  44.662  41.462   4.755
 4584W        W69745   0.378  35.781   3.147
 4585W        W69746  13.817  16.523  12.061
 4586W        W69747   6.117  19.464   1.668
 4587W        W69748   9.338   4.100   1.482
 4588W        W69749  40.255  17.833  14.858
 4589W        W69750  29.552  16.686   5.036
 4590W        W69751  15.316  30.915   3.316
 4591W        W69752  35.462   3.472   4.682
 4592W        W69753  23.799  29.373  11.651
 4593W        W69754  39.361  11.246   3.357
 4594W        W69755   8.206  12.338   4.050
 4595W        W69756  37.844  35.476  13.120
 4596W        W69757   4.760  27.136  12.986
 4597W        W69758   4.769  43.210  14.659
 4598W        W69759  12.295   0.001  13.811
 4599W        W69760  11.596  25.119   0.204
 4600W        W69761  16.976  13.863  11.521
 4601W        W69762  17.990  32.397  14.126
 4602W        W69763  41.647  36.307  11.707
 4603W        W69764   3.795  13.858   5.387
 4604W        W69765  29.812  16.222  13.028
 4605W        W69766  33.091   6.527   2.116
 4606W        W69767  18.627  23.803  14.764
 4607W        W69768  24.548  13.622   1.944
 4608W        W69769  18.487   3.010  14.618
 4609W        W69770   1.013   6.169  10.396
 4610W        W69771  33.436   0.021   2.348
 4611W        W69772  32.958  15.626  10.746
 4612W        W69773  20.225   4.399  11.671
 4613W        W69774  26.874  12.882   3.162
 4614W        W69775  43.525  36.459  11.759
 4615W        W69776  11.133  22.059   0.796
 4616W        W69777  42.012  30.246   0.380
 4617W        W69778  15.161  12.416  12.904
 4618W        W69779  26.629   8.210   4.984
 4619W        W69780  38.534  21.934  14.865
 4620W        W69781  31.626  14.857  11.594
 4621W        W69782  21.614  39.668  13.988
 4622W        W69783  20.521  43.823   1.430
 4623W        W69784   8.497   4.619  11.649
 4624W        W69785  20.124  19.142  13.921
 4625W        W69786  25.114  21.330  11.744
 4626W        W69787  30.446  32.997   0.017
 4627W        W69788  25.026   5.313   4.545
 4628W        W69789   9.003  23.328  12.427
 4629W        W69790  14.128  37.296  13.047
 4630W        W69791  21.679  43.074  10.754
 4631W        W69792  18.500  15.800   0.936
 4632W        W69793  27.483   8.635   4.974
 4633W        W69794  40.493  41.217  10.299
 4634W        W69795  12.292  17.560  10.788
 4635W        W69796  18.584  26.798  10.802
 4636W        W69797  31.591  13.967   0.896
 4637W        W69798  16.931   7.918  11.709
 4638W        W69799   6.809  20.359   3.641
 4639W        W69800  26.529   4.289  10.822
 4640W        W69801  31.893  42.292  12.488
 4641W        W69802  31.429  18.131  14.236
 4642W        W69803  39.116  23.437   4.205
 4643W        W69804  33.113  11.764  10.397
 4644W        W69805  40.244   6.481   0.003
 4645W        W69806  36.779  20.135  11.539
 4646W        W69807  28.055  34.583  13.951
 4647W        W69808  32.935  23.744  11.619
 4648W        W69809  13.701  17.234  11.210
 4649W        W69810  29.598  21.773  14.844
 4650W        W69811  24.754  12.711  14.163
 4651W        W69812   3.823  23.556  13.305
 4652W        W69813  18.486  29.052   4.107
 4653W        W69814  27.339  26.965   1.825
 4654W        W69815  19.760  21.360  14.117
 4655W        W69816  22.590  20.419   5.040
 4656W        W69817   7.729  27.782   1.164
 4657W        W69818  21.272  21.695   2.136
 4658W        W69819  42.505  38.477   2.697
 4659W        W69820  26.656  27.997   2.209
 4660W        W69821  30.991  42.073  13.470
 4661W        W69822  25.750  19.943   4.951
 4662W        W69823  27.464  29.612   2.460
 4663W        W69824  41.905  24.963   2.878
 4664W        W69825  37.620  27.032  13.874
 4665W        W69826   3.068  44.499   0.285
 4666W        W69827  43.904  32.035  12.033
 4667W        W69828  30.977  21.236  12.983
 4668W        W69829   1.858  10.811   4.251
 4669W        W69830  15.226  35.587   2.362
 4670W        W69831  11.003  41.043  10.713
 4671W        W69832  43.413  12.190   2.762
 4672W        W69833  37.979  27.873  10.852
 4673W        W69834   2.525   8.326   1.338
 4674W        W69835  39.420   4.970   3.684
 4675W        W69836  37.946  42.842   3.189
 4676W        W69837  25.798  18.090   3.252
 4677W        W69838  15.081  20.160   2.276
 4678W        W69839   9.416  33.081   4.301
 4679W        W69840  13.264  31.881  11.064
 4680W        W69841  12.709  21.676   1.268
 4681W        W69842  42.052  32.984   2.916
 4682W        W69843  42.252  44.942  10.719
 4683W        W69844  18.431  16.314   1.692
 4684W        W69845   6.767   7.467  12.994
 4685W        W69846   3.589  11.703   2.592
 4686W        W69847  30.984  17.754   4.772
 4687W        W69848   4.135   8.281   0.327
 4688W        W69849  10.360  15.625   0.925
 4689W        W69850  36.395  36.109  14.500
 4690W        W69851   2.765  30.420  10.576
 4691W        W69852  37.236   8.848   4.983
 4692W        W69853  28.989  14.759  11.532
 4693W        W69854  33.365  19.533   1.075
 4694W        W69855  20.526  37.001  13.079
 4695W        W69856   0.436  30.576   3.222
 4696W        W69857  27.235  19.851   1.877
 4697W        W69858   4.401   2.734  10.773
 4698W        W69859  19.045  33.463  11.564
 4699W        W69860  22.977  13.067   2.491
 4700W        W69861  14.611  35.119  13.825
 4701W        W69862   5.637  10.811  11.536
 4702W        W69863  24.255  27.490   0.821
 4703W        W69864  35.693  29.161   0.185
 4704W        W69865  19.062  22.364  13.612
 4705W        W69866  11.464  32.513  10.634
 4706W        W69867  25.700  14.834  13.458
 4707W        W69868  18.790  44.552  10.509
 4708W        W69869  39.437   3.413   2.201
 4709W        W69870  43.851  31.190   1.668
 4710W        W69871  21.724   7.699   0.865
 4711W        W69872  24.600  44.516  13.641
 4712W        W69873  41.872  32.183  12.767
 4713W        W69874  22.036  17.229  12.108
 4714W        W69875  42.003   8.381   2.734
 4715W        W69876   5.854   2.715  10.671
 4716W        W69877  33.614  28.562   4.696
 4717W        W69878  35.950  38.931  13.475
 4718W        W69879  28.126   9.607  14.029
 4719W        W69880  21.103   5.619   3.536
 4720W        W69881  30.536  38.357  12.495
 4721W        W69882  21.771  16.542  14.533
 4722W        W69883  24.816  24.026  13.903
 4723W        W69884   2.362  21.288  10.163
 4724W        W69885  27.877  27.247   2.614
 4725W        W69886  39.784  28.164   2.663
 4726W        W69887  24.140  20.725   0.031
 4727W        W69888   3.970  38.409  13.028
 4728W        W69889  35.077  22.060  12.120
 4729W        W69890  23.978  18.057  10.650
 4730W        W69891   0.374  13.137   2.692
 4731W        W69892  26.993  25.655   1.409
 4732W        W69893  43.936  39.545  12.950
 4733W        W69894  16.218  20.026  11.484
 4734W        W69895  36.294  14.743  14.054
 4735W        W69896  11.231  30.198  11.123
 4736W        W69897  10.406  39.836  11.322
 4737W        W69898  10.144   8.195   1.820
 4738W        W69899  12.327  22.171   2.197
 4739W        W69900  13.317  17.576  12.419
 4740W        W69901   4.791  20.122  10.872
 4741W        W69902  34.871  41.073  12.403
 4742W        W69903  18.618  18.250  13.420
 4743W        W69904  31.885   3.769  12.335
 4744W        W69905  18.207  23.281   1.450
 4745W        W69906  25.846  36.755  11.388
 4746W        W69907  10.655  11.437  14.542
 4747W        W69908  38.900  34.117  13.806
 4748W        W69909   3.362  22.944  11.922
 4749W        W69910  22.890  33.945  14.860
 4750W        W69911  32.073  18.485   1.224
 4751W        W69912  13.475  30.532   0.532
 4752W        W69913  29.165  32.171  11.960
 4753W        W69914  39.636   4.346  11.586
 4754W        W69915  33.784  43.326  14.897
 4755W        W69916  27.552  32.630   3.615
 4756W        W69917  22.484  40.520   0.862
 4757W        W69918  15.849  28.955  14.921
 4758W        W69919  43.443  27.679  14.958
 4759W        W69920  30.922  36.387  13.353
 4760W        W69921   8.389  36.116  13.552
 4761W        W69922   5.517  41.490  13.046
 4762W        W69923   8.684   2.776  12.361
 4763W        W69924  40.354   9.879   4.144
 4764W        W69925  37.011  43.009   4.464
 4765W        W69926  41.980  14.416   0.016
 4766W        W69927  24.551  15.645   4.875
 4767W        W69928   5.249   4.722   3.356
 4768W        W69929  24.548  37.108   2.330
 4769W        W69930  37.422  25.546   3.048
 4770W        W69931  24.039  33.201   1.535
 4771W        W69932  31.058  18.700   2.041
 4772W        W69933  19.126  18.260  12.671
 4773W        W69934  17.016  17.128   4.914
 4774W        W69935   4.417   0.072   4.368
 4775W        W69936   7.816  25.537   1.519
 4776W        W69937  20.760  44.273   1.428
 4777W        W69938  34.101  12.777   4.091
 4778W        W69939  42.368  43.294   1.626
 4779W        W69940  37.437   9.686   1.413
 4780W        W69941  12.164  17.363   4.175
 4781W        W69942  21.190  32.355  14.633
 4782W        W69943  14.616  39.347   5.605
 4783W        W69944  12.208  22.429   3.862
 4784W        W69945  22.199  23.602   1.268
 4785W        W69946  27.370  24.148  12.441
 4786W        W69947  40.507  19.764   2.700
 4787W        W69948   1.790  43.056   4.294
 4788W        W69949  42.439  36.086  13.576
 4789W        W69950  34.846  39.534   2.298
 4790W        W69951  11.344  38.926  11.581
 4791W        W69952  15.699  35.841   4.837
 4792W        W69953   5.889  39.058  12.593
 4793W        W69954  21.997  27.069   0.791
 4794W        W69955   1.432  25.526   0.229
 4795W        W69956  13.671  39.514  14.392
 4796W        W69957  31.520  17.444  14.286
 4797W        W69958  32.602  38.229  14.521
 4798W        W69959  37.330  20.071   2.878
 4799W        W69960  28.510  22.694   1.387
 4800W        W69961  41.917  43.197   1.862
 4801W        W69962  27.571  40.971   2.756
 4802W        W69963  11.579  22.218   1.004
 4803W        W69964  40.358   5.470   4.124
 4804W        W69965  28.967  41.999   0.349
 4805W        W69966  22.303   5.806   0.873
 4806W        W69967  27.236  23.533  14.714
 4807W        W69968  25.262  42.438  13.856
 4808W        W69969  15.618  11.731   1.306
 4809W        W69970   7.583  29.056  14.507
 4810W        W69971  10.357  28.256   4.278
 4811W        W69972   8.386  43.411  11.417
 4812W        W69973  34.439  13.754   2.368
 4813W        W69974   5.312   5.635   2.482
 4814W        W69975  35.816  19.391   4.793
 4815W        W69976  20.049  25.221  12.585
 4816W        W69977  42.877   4.979  14.820
 4817W        W69978  40.512  21.782   0.764
 4818W        W69979  40.865  34.388  14.778
 4819W        W69980  24.346  10.904   2.746
 4820W        W69981   1.673  29.713  11.638
 4821W        W69982  11.261   1.892  13.838
 4822W        W69983  43.332  27.008  10.851
 4823W        W69984  29.608  24.503  14.358
 4824W        W69985  23.430   6.343  11.431
 4825W        W69986  21.297   0.351   3.050
 4826W        W69987  39.357  33.019   2.711
 4827W        W69988  16.739  42.848  12.955
 4828W        W69989   3.758   6.231   0.997
 4829W        W69990   3.024   4.111  11.571
 4830W        W69991  35.650  35.304  13.905
 4831W        W69992  35.572  16.273   0.353
 4832W        W69993   4.323  10.798   3.268
 4833W        W69994   4.450  27.227   9.658
 4834W        W69995  37.807  38.783  13.033
 4835W        W69996   1.440  14.278   3.645
 4836W        W69997  17.551  26.066  13.421
 4837W        W69998  19.055  11.425   1.397
 4838W        W69999  36.648   5.287   3.712
 4839W        W70000  29.182  38.827   0.863
 4840W        W70001  32.698  20.744   0.892
 4841W        W70002  13.641  10.655   2.712
 4842W        W70003  18.000  26.673   3.667
 4843W        W70004  24.420  32.880  13.161
 4844W        W70005  18.040  42.986   4.363
 4845W        W70006  30.352  28.683  13.901
 4846W        W70007   7.675   4.346   1.774
 4847W        W70008  18.294  32.971  12.914
 4848W        W70009  22.622  32.687  12.054
 4849W        W70010  35.671  10.767  14.705
 4850W        W70011  27.265   5.175  10.269
 4851W        W70012  26.842  40.429  14.410
 4852W        W70013  11.925   5.992   4.122
 4853W        W70014  23.435   9.988   4.076
 4854W        W70015  16.108   6.857  13.505
 4855W        W70016  20.794  15.722   4.658
 4856W        W70017  25.619  12.902  14.964
 4857W        W70018  34.452   1.644  10.652
 4858W        W70019   9.831  13.462   0.008
 4859W        W70020  16.248  20.598  12.018
 4860W        W70021  28.181  30.093   4.558
 4861W        W70022  40.956   5.519   4.914
 4862W        W70023  16.068  28.964  10.617
 4863W        W70024   0.383   5.679   1.408
 4864W        W70025  24.761   0.300  10.717
 4865W        W70026  39.958   3.516   1.343
 4866W        W70027  32.294  34.439  10.870
 4867W        W70028   7.453  36.059   0.921
 4868W        W70029   2.234  12.764  12.106
 4869W        W70030  14.720  32.037   3.353
 4870W        W70031  32.199  32.933  10.706
 4871W        W70032  19.570  42.810   4.035
 4872W        W70033  16.626   0.012   5.338
 4873W        W70034  36.856  19.069   1.528
 4874W        W70035  44.966   0.573  12.033
 4875W        W70036  13.944   9.289  12.026
 4876W        W70037  38.933   4.299   3.308
 4877W        W70038  38.338  20.576   1.444
 4878W        W70039  44.390   9.836  14.509
 4879W        W70040  36.890  44.821   2.264
 4880W        W70041  31.547  37.272   3.246
 4881W        W70042  43.498   3.919  10.522
 4882W        W70043  44.761  10.002  10.602
 4883W        W70044  32.553  28.778  13.940
 4884W        W70045   7.906  18.077   3.257
 4885W        W70046   1.909  11.049   1.841
 4886W        W70047  41.823  13.661   2.448
 4887W        W70048  27.204  27.111  14.164
 4888W        W70049  10.978  12.521   3.158
 4889W        W70050   3.490  30.881  12.895
 4890W        W70051  40.816   4.891   3.051
 4891W        W70052  18.312  13.502   1.799
 4892W        W70053   5.296   6.721  11.211
 4893W        W70054   5.180  31.132   0.720
 4894W        W70055  17.368  41.804  14.935
 4895W        W70056   5.704  33.941  13.152
 4896W        W70057  35.021  27.525   0.795
 4897W        W70058  43.916  22.436  10.765
 4898W        W70059  18.501  31.326  13.355
 4899W        W70060  21.684  19.255   1.959
 4900W        W70061   1.440  32.000   2.597
 4901W        W70062   8.906  11.916  14.508
 4902W        W70063   4.225   4.323   0.137
 4903W        W70064   3.614   8.213   0.477
 4904W        W70065  31.394  42.051   4.112
 4905W        W70066   8.760   0.067   3.790
 4906W        W70067  44.478  34.980   3.240
 4907W        W70068   5.350   5.955  10.761
 4908W        W70069   0.232  16.633  14.446
 4909W        W70070  30.402  23.860  12.919
 4910W        W70071  15.731  41.776   1.497
 4911W        W70072  30.444  13.618  13.029
 4912W        W70073  41.268  10.747  13.864
 4913W        W70074  32.044  35.284  12.101
 4914W        W70075   8.341  11.585  13.396
 4915W        W70076  29.378  36.612  11.142
 4916W        W70077   0.880  25.248   3.661
 4917W        W70078  13.349  35.491   2.170
 4918W        W70079  34.457   9.183  13.111
 4919W        W70080   7.349  41.212  11.734
 4920W        W70081   2.025  16.001  10.562
 4921W        W70082  28.221  10.152  12.512
 4922W        W70083  29.575  29.531   3.700
 4923W        W70084  22.866  41.458  14.499
 4924W        W70085  26.916  22.174  10.564
 4925W        W70086  27.069  19.383  10.646
 4926W        W70087  43.332  14.748  13.282
 4927W        W70088  33.987  40.726  10.692
 4928W        W70089  22.822  22.399   2.898
 4929W        W70090  10.242   0.835   3.038
 4930W        W70091  10.084  27.079   0.011
 4931W        W70092  22.348  33.472  13.782
 4932W        W70093  40.983  11.709   3.085
 4933W        W70094  41.852  30.088  11.961
 4934W        W70095  26.278  30.756   2.028
 4935W        W70096  37.742  11.949  13.626
 4936W        W70097  39.572   6.155  11.073
 4937W        W70098   8.307  23.023  13.952
 4938W        W70099  27.150  28.448   3.531
 4939W        W70100  19.222   6.938   3.578
 4940W        W70101  33.465  14.834   3.606
 4941W        W70102  36.592  25.164  12.620
 4942W        W70103  35.382  15.701   4.599
 4943W        W70104  16.991  22.709   3.648
 4944W        W70105  16.099  33.912   1.218
 4945W        W70106  33.951   2.771   1.414
 4946W        W70107   5.262  21.160  12.977
 4947W        W70108  16.161  18.088   5.020
 4948W        W70109  37.350  26.505   2.777
 4949W        W70110  28.205   0.732   3.117
 4950W        W70111   5.780  31.509  13.950
 4951W        W70112  18.050  35.414   1.520
 4952W        W70113  31.217  32.166   2.152
 4953W        W70114  36.561  41.277   3.648
 4954W        W70115  32.303  27.489   0.180
 4955W        W70116  28.059   4.925   2.780
 4956W        W70117  41.517  20.769  13.717
 4957W        W70118   3.167  18.737  11.920
 4958W        W70119   7.696   9.140  10.905
 4959W        W70120   1.223   2.485  13.022
 4960W        W70121   4.687  21.678   2.035
 4961W        W70122  17.598  29.716  11.534
 4962W        W70123  26.434  32.286  13.675
 4963W        W70124  42.430  31.982   4.107
 4964W        W70125  24.975  34.506  11.690
 4965W        W70126  35.539   0.681  13.565
 4966W        W70127  26.803  42.738   1.904
 4967W        W70128   0.386  17.070   2.842
 4968W        W70129   4.879  28.810  13.940
 4969W        W70130  36.084  39.000  14.401
 4970W        W70131   5.374   5.750   0.363
 4971W        W70132  13.406  44.909   4.567
 4972W        W70133  29.400   5.216   3.589
 4973W        W70134   8.876  27.236  13.380
 4974W        W70135  33.061  30.878  13.491
 4975W        W70136  38.590  21.268   2.685
 4976W        W70137  36.826  15.713   2.623
 4977W        W70138  14.397  29.566   1.886
 4978W        W70139  30.453   7.274  14.372
 4979W        W70140  11.652  31.821  13.363
 4980W        W70141  34.095  40.878   1.429
 4981W        W70142  40.020  33.054   3.763
 4982W        W70143  35.484  21.420  12.588
 4983W        W70144  18.704   7.766   2.791
 4984W        W70145   0.187  29.192  11.135
 4985W        W70146  31.038  18.212   2.246
 4986W        W70147   4.665  19.206   4.658
 4987W        W70148   5.576  20.550   3.760
 4988W        W70149   0.718   8.180   3.664
 4989W        W70150  35.567  20.186  12.021
 4990W        W70151  13.870   9.839   4.125
 4991W        W70152  31.096  20.256  11.994
 4992W        W70153  17.696  32.257   4.069
 4993W        W70154  14.502  20.505  14.948
 4994W        W70155  29.222  41.551   0.352
 4995W        W70156   1.608  37.376  10.451
 4996W        W70157   6.828   5.764   3.902
 4997W        W70158  10.877  14.213  11.248
 4998W        W70159  11.908   6.307  10.742
 4999W        W70160  10.159  22.017  13.288
 5000W        W70161  24.070   5.813  14.733
 5001W        W70162  26.890  15.357   0.820
 5002W        W70163  31.862   7.903  14.913
 5003W        W70164  20.316  36.075   2.244
 5004W        W70165  17.638  42.903   4.681
 5005W        W70166  38.940  15.706   3.192
 5006W        W70167  10.618  12.176   0.930
 5007W        W70168  41.022  39.374  11.546
 5008W        W70169   4.008  26.195  13.489
 5009W        W70170  39.382  40.747   0.073
 5010W        W70171  35.047  13.131  14.336
 5011W        W70172  39.461   1.500  13.896
 5012W        W70173  33.984   2.709   0.886
 5013W        W70174   3.271  41.005  12.441
 5014W        W70175  20.314  13.263  12.603
 5015W        W70176   4.640  16.159  10.291
 5016W        W70177  18.122  25.995   0.277
 5017W        W70178  22.158  14.127  13.795
 5018W        W70179   0.036  25.453   4.209
 5019W        W70180   0.507  10.390  11.934
 5020W        W70181  27.535   5.577   4.475
 5021W        W70182   8.167   6.214  11.458
 5022W        W70183  32.921  37.095  11.831
 5023W        W70184  43.566  32.138  10.185
 5024W        W70185  26.624  22.083   4.744
 5025W        W70186   4.622  30.430   2.343
 5026W        W70187  10.261  27.231   2.614
 5027W        W70188  18.761  19.542  13.517
 5028W        W70189  28.602   9.530  14.646
 5029W        W70190  38.707  27.566   1.384
 5030W        W70191  44.753  43.075  12.613
 5031W        W70192   2.371  43.867  14.390
 5032W        W70193   8.317  25.585  14.262
 5033W        W70194   5.413  36.928  11.626
 5034W        W70195  39.839  27.985   1.653
 5035W        W70196  11.252  30.886  13.295
 5036W        W70197  17.526  20.755   2.736
 5037W        W70198  34.895  40.130  12.435
 5038W        W70199  42.066   2.785  13.428
 5039W        W70200  26.055  15.193  13.547
 5040W        W70201  28.421   6.746   1.923
 5041W        W70202  18.844  26.412   1.761
 5042W        W70203  14.699  34.116   3.677
 5043W        W70204  40.084  28.256   3.541
 5044W        W70205  12.665  36.128   4.702
 5045W        W70206  43.775  39.898  13.371
 5046W        W70207   6.485  32.141   2.285
 5047W        W70208  44.319  29.595  11.076
 5048W        W70209  28.832  41.591  12.884
 5049W        W70210  16.859  25.194   0.806
 5050W        W70211  12.168   3.142  14.851
 5051W        W70212   9.575   1.482   1.701
 5052W        W70213  16.875   3.037  14.326
 5053W        W70214  12.768  35.124  14.358
 5054W        W70215  35.491  28.399   2.500
 5055W        W70216  30.330  34.317  11.938
 5056W        W70217   0.421  29.448  10.723
 5057W        W70218  34.278  10.146   2.172
 5058W        W70219   0.996  21.143   4.580
 5059W        W70220   9.669  32.415   3.316
 5060W        W70221  23.031  17.520  12.990
 5061W        W70222  40.436  42.216   2.561
 5062W        W70223   9.832  37.549  14.680
 5063W        W70224  31.857   4.676  11.542
 5064W        W70225  14.341  16.694   2.171
 5065W        W70226  36.504  27.150  14.876
 5066W        W70227   0.712  23.647   4.573
 5067W        W70228  10.081   2.131   2.943
 5068W        W70229  12.768  31.236   0.198
 5069W        W70230  24.501  13.804   0.925
 5070W        W70231  28.956  36.385  13.605
 5071W        W70232  40.351   0.939  12.967
 5072W        W70233   1.143   6.685   1.401
 5073W        W70234   0.285  43.072  13.098
 5074W        W70235  24.388  14.888   0.926
 5075W        W70236  11.022  25.880   3.666
 5076W        W70237   4.457  37.123  11.975
 5077W        W70238  11.101  19.271   3.645
 5078W        W70239  44.418  42.868  10.891
 5079W        W70240  18.361  24.159   5.066
 5080W        W70241  21.796  19.413   3.378
 5081W        W70242  36.774   1.563   3.338
 5082W        W70243  10.203  19.567  11.106
 5083W        W70244   1.722  19.978  11.552
 5084W        W70245  22.666  10.191  13.337
 5085W        W70246  23.661  16.405   2.739
 5086W        W70247  19.555  23.577   5.510
 5087W        W70248  41.160  14.620  11.632
 5088W        W70249  24.552  17.288  12.084
 5089W        W70250   4.715  35.235   1.734
 5090W        W70251  31.514  18.142   0.526
 5091W        W70252  31.893  11.432  13.887
 5092W        W70253  19.863   0.933   9.996
 5093W        W70254  24.704  28.978  14.366
 5094W        W70255  24.023  12.772   1.605
 5095W        W70256  26.703  22.341   1.961
 5096W        W70257  16.123  13.127   3.146
 5097W        W70258   2.971  41.397   1.880
 5098W        W70259  23.254  28.750   2.680
 5099W        W70260  16.824  29.234  13.780
 5100W        W70261  15.573  18.758  11.672
 5101W        W70262  28.230   6.791   4.604
 5102W        W70263  20.259   7.430  14.553
 5103W        W70264  16.757  23.370   0.276
 5104W        W70265  26.179  40.911  11.136
 5105W        W70266  20.099  27.683  12.204
 5106W        W70267  25.132  11.778  11.811
 5107W        W70268  37.975  27.604  13.507
 5108W        W70269  17.327   5.383  12.426
 5109W        W70270  14.184  28.164  14.627
 5110W        W70271  37.475  17.495   3.082
 5111W        W70272  32.032  12.250   3.757
 5112W        W70273  18.733  18.620   4.269
 5113W        W70274   0.031  35.440   2.366
 5114W        W70275  43.050  44.078   2.278
 5115W        W70276  35.851   0.500   4.276
 5116W        W70277  40.938  16.112   1.512
 5117W        W70278   4.314  35.151  11.113
 5118W        W70279   9.280  25.728  10.556
 5119W        W70280  29.645  18.375  14.561
 5120W        W70281  18.293  29.991   0.006
 5121W        W70282  31.049  29.139  12.062
 5122W        W70283  26.091  26.205  13.049
 5123W        W70284  17.153   4.955   3.375
 5124W        W70285  11.265  31.239   3.625
 5125W        W70286  29.202  12.062   5.442
 5126W        W70287   7.202  41.958  12.432
 5127W        W70288  26.368  36.130  12.029
 5128W        W70289  16.362  31.378  13.357
 5129W        W70290  29.701  43.903   3.117
 5130W        W70291  38.573   8.710  11.657
 5131W        W70292   4.253  13.147   4.765
 5132W        W70293  13.093  12.564   2.272
 5133W        W70294  33.381  33.426   3.610
 5134W        W70295  24.131  17.605   1.947
 5135W        W70296  14.354  24.048  12.599
 5136W        W70297  18.563  32.576   2.361
 5137W        W70298  19.157  38.983   3.435
 5138W        W70299  25.608   0.854  14.434
 5139W        W70300  29.511   8.125   1.433
 5140W        W70301  14.206  19.623  10.830
 5141W        W70302  34.507  10.383   0.314
 5142W        W70303  13.096  24.929   4.596
 5143W        W70304   5.597   9.053   5.018
 5144W        W70305  25.712   5.474   1.363
 5145W        W70306  36.042  24.125  12.036
 5146W        W70307  33.923  35.637  14.927
 5147W        W70308  36.763  31.693   0.951
 5148W        W70309  31.059  21.274   9.855
 5149W        W70310  31.180   5.290   0.349
 5150W        W70311  23.518   9.931  12.380
 5151W        W70312   9.236  22.257   4.058
 5152W        W70313  12.297  24.419   2.350
 5153W        W70314  15.325   1.242   4.105
 5154W        W70315  38.627   9.729  11.641
 5155W        W70316  39.823  12.859   2.754
 5156W        W70317  30.568  22.958   0.315
 5157W        W70318  44.854  43.034   1.785
 5158W        W70319  40.897   1.427  14.478
 5159W        W70320  15.566  36.509   0.407
 5160W        W70321  26.978  14.135   2.791
 5161W        W70322  40.085  17.937  13.926
 5162W        W70323   5.246  15.191  12.337
 5163W        W70324  31.503  31.050  13.102
 5164W        W70325  30.976  18.197   1.721
 5165W        W70326  30.673  37.062   4.166
 5166W        W70327  44.792  33.090   1.770
 5167W        W70328  25.514  18.697  13.079
 5168W        W70329  10.742  17.338  14.527
 5169W        W70330  23.303  10.901   5.000
 5170W        W70331  12.140   1.775   1.436
 5171W        W70332   8.474  25.785   4.921
 5172W        W70333  40.862  17.870  10.377
 5173W        W70334  10.291  40.583  13.033
 5174W        W70335  13.193  17.311  11.096
 5175W        W70336  15.799  19.653  12.058
 5176W        W70337  28.098  28.965  11.602
 5177W        W70338  22.511  24.667   2.735
 5178W        W70339  24.985   7.620   1.278
 5179W        W70340  10.148   6.745   1.328
 5180W        W70341  11.544  37.660  11.024
 5181W        W70342  12.852  38.724  12.136
 5182W        W70343  27.073  19.186  13.790
 5183W        W70344  24.413  35.760  14.075
 5184W        W70345  28.020  40.756  10.599
 5185W        W70346  26.081  14.357   2.379
 5186W        W70347  14.419  23.671  13.435
 5187W        W70348  14.272  25.952   3.335
 5188W        W70349   1.444  33.638   3.678
 5189W        W70350  37.832  14.649   4.528
 5190W        W70351  20.483  30.273   5.099
 5191W        W70352  26.956  36.595  13.140
 5192W        W70353  16.381  42.119   4.221
 5193W        W70354  22.984   3.670  12.550
 5194W        W70355  42.222   7.979  14.397
 5195W        W70356   0.791  18.032   0.009
 5196W        W70357  37.526  33.654   1.815
 5197W        W70358  37.759  25.611   4.849
 5198W        W70359  33.829  29.491   1.829
 5199W        W70360  26.363   9.965  12.497
 5200W        W70361  35.041  14.152  14.524
 5201W        W70362  19.257  13.875  13.794
 5202W        W70363   5.467   4.942  13.991
 5203W        W70364  29.591  10.087  12.346
 5204W        W70365  29.273  38.776  11.503
 5205W        W70366  20.233  15.833  11.817
 5206W        W70367  20.642  36.065  14.737
 5207W        W70368  26.469  24.546   9.794
 5208W        W70369  31.049  44.817  12.494
 5209W        W70370   5.034  25.256   1.763
 5210W        W70371  25.821   0.917   0.227
 5211W        W70372  33.043  24.108  10.627
 5212W        W70373  44.905  25.683   1.470
 5213W        W70374  21.522   6.803   4.562
 5214W        W70375  42.047  27.532   4.572
 5215W        W70376  16.292  27.169  14.731
 5216W        W70377  41.867  24.454  14.355
 5217W        W70378   2.998  29.938   1.815
 5218W        W70379   0.217   3.538  13.945
 5219W        W70380  18.303  34.216   0.960
 5220W        W70381   6.749  36.571  14.040
 5221W        W70382  19.524  21.007  12.040
 5222W        W70383  44.548   3.784  14.368
 5223W        W70384  17.043  43.897   2.796
 5224W        W70385  39.973  43.744  13.300
 5225W        W70386  42.506  24.325   2.206
 5226W        W70387  24.024   8.204   1.610
 5227W        W70388  30.516   3.512  13.005
 5228W        W70389  19.715  32.893  13.384
 5229W        W70390  29.068  18.443   4.607
 5230W        W70391  16.860  18.555  12.411
 5231W        W70392  34.400   6.740   0.965
 5232W        W70393  31.621  44.567   1.911
 5233W        W70394  27.468  31.367   3.734
 5234W        W70395   0.499  17.050  13.509
 5235W        W70396  32.685  19.544  11.620
 5236W        W70397  32.693   6.254   3.070
 5237W        W70398   6.664  16.353  14.210
 5238W        W70399  12.672  43.760   4.299
 5239W        W70400  21.666  23.732   0.766
 5240W        W70401  28.613  27.290  10.723
 5241W        W70402  15.552  13.290  11.118
 5242W        W70403  29.071  37.969   0.855
 5243W        W70404  12.525  24.709  14.996
 5244W        W70405   4.396  37.497   4.190
 5245W        W70406   6.234  37.902  13.872
 5246W        W70407  24.424   3.173  10.651
 5247W        W70408  29.984  22.480   1.091
 5248W        W70409  32.214  22.438   5.311
 5249W        W70410  38.808  23.346   2.854
 5250W        W70411  17.678  10.425   2.827
 5251W        W70412   8.278  14.685   2.318
 5252W        W70413  14.821   9.313  11.623
 5253W        W70414  40.113  12.906   1.901
 5254W        W70415  36.900  38.412   0.172
 5255W        W70416  14.610  43.952   3.795
 5256W        W70417  10.504   7.364   4.158
 5257W        W70418   3.950  41.188   2.010
 5258W        W70419  41.841   3.886  14.977
 5259W        W70420   2.208  24.202  14.575
 5260W        W70421  30.478  21.056   4.419
 5261W        W70422  17.151  21.895   1.919
 5262W        W70423  32.837   8.770  10.464
 5263W        W70424  20.174  23.962   2.661
 5264W        W70425  16.791  26.206  14.996
 5265W        W70426  24.101  44.892  12.032
 5266W        W70427  30.001  31.784  13.825
 5267W        W70428   3.737   2.797   3.086
 5268W        W70429  20.945  35.728   1.066
 5269W        W70430  44.278  16.142  14.014
 5270W        W70431  42.808   5.731   2.821
 5271W        W70432  34.352  16.581  12.048
 5272W        W70433  43.985  21.193  11.176
 5273W        W70434  16.081   4.062  13.834
 5274W        W70435  37.276  35.728   2.134
 5275W        W70436   1.845   8.801  10.415
 5276W        W70437   0.324  19.673  14.305
 5277W        W70438  33.266  14.289   1.041
 5278W        W70439   7.262  30.693   1.782
 5279W        W70440  29.412  42.806  12.968
 5280W        W70441   5.613  36.924  11.149
 5281W        W70442  42.691  18.930  11.343
 5282W        W70443   2.853  29.249  14.024
 5283W        W70444   5.929  16.777  12.918
 5284W        W70445   0.248  41.771  14.793
 5285W        W70446  32.885  31.575   0.317
 5286W        W70447   7.750   6.445  13.418
 5287W        W70448  41.955  35.768   4.130
 5288W        W70449  28.656  12.997  10.417
 5289W        W70450  11.364  15.381   1.940
 5290W        W70451  24.627  23.607   0.893
 5291W        W70452   6.430   9.310  11.445
 5292W        W70453  36.442  19.123   4.265
 5293W        W70454   9.203   7.452  14.062
 5294W        W70455  20.567  22.121   3.794
 5295W        W70456  31.184   3.201  13.492
 5296W        W70457   6.323  17.096  12.210
 5297W        W70458  30.506  34.827   4.905
 5298W        W70459  25.716   5.273   0.782
 5299W        W70460  44.652   4.777  14.231
 5300W        W70461  35.582  34.080  14.369
 5301W        W70462  29.148  27.523  12.424
 5302W        W70463  31.980   8.680   4.886
 5303W        W70464  20.740  14.899   2.987
 5304W        W70465   4.969   5.323   4.540
 5305W        W70466  15.405  33.509  13.966
 5306W        W70467  32.615  25.703  14.873
 5307W        W70468   8.885  27.823  14.362
 5308W        W70469  18.584  42.683  12.107
 5309W        W70470  16.589  25.039  11.725
 5310W        W70471  14.588  18.175   3.821
 5311W        W70472  24.129  12.732  13.412
 5312W        W70473   4.498  20.623   3.092
 5313W        W70474  19.664   4.928  14.147
 5314W        W70475   0.993   5.494   2.965
 5315W        W70476  33.590  15.915   2.129
 5316W        W70477  39.273   7.412  10.756
 5317W        W70478  27.493  30.635  12.932
 5318W        W70479  31.615  12.158  11.867
 5319W        W70480   6.708   1.683  10.743
 5320W        W70481  10.269  31.123  14.775
 5321W        W70482   0.434  38.695  12.541
 5322W        W70483  28.530  33.280   4.843
 5323W        W70484  13.363  44.454  14.212
 5324W        W70485   9.430   1.493  10.388
 5325W        W70486  27.687  42.096   3.567
 5326W        W70487  15.849   3.799   0.262
 5327W        W70488  42.575  44.531   0.884
 5328W        W70489  22.361   8.792  11.515
 5329W        W70490  24.699  21.431   2.243
 5330W        W70491   2.220  38.458  14.442
 5331W        W70492  14.400  18.292  10.605
 5332W        W70493  14.992  38.039   3.316
 5333W        W70494  10.880   2.255  12.518
 5334W        W70495  21.753   8.246   1.311
 5335W        W70496  33.056   6.903  13.508
 5336W        W70497  25.949  42.998   4.607
 5337W        W70498  29.666  20.449  13.618
 5338W        W70499  41.720  38.274   0.458
 5339W        W70500   0.331  36.992  14.732
 5340W        W70501  21.195   7.698  12.503
 5341W        W70502  28.579   2.381  12.577
 5342W        W70503  21.700  23.008   2.208
 5343W        W70504  43.295  42.251  13.074
 5344W        W70505  12.819  38.317  12.973
 5345W        W70506  41.855  11.335   1.806
 5346W        W70507   3.354  26.212   3.261
 5347W        W70508  20.821  17.638  10.609
 5348W        W70509   6.907  38.582  14.919
 5349W        W70510  30.220   6.746  14.555
 5350W        W70511  39.284  16.484  13.329
 5351W        W70512  30.581  23.503   0.277
 5352W        W70513  28.174   5.708   3.260
 5353W        W70514   8.801  26.191  10.151
 5354W        W70515  37.941  10.817   1.760
 5355W        W70516  19.830  13.444   3.216
 5356W        W70517  41.078  16.149  12.472
 5357W        W70518  25.759  17.658   4.785
 5358W        W70519   6.975  26.874  10.160
 5359W        W70520  28.149  22.063  11.991
 5360W        W70521  26.020  33.461  11.024
 5361W        W70522   7.144  17.475   3.803
 5362W        W70523   1.544   3.027   3.646
 5363W        W70524  40.673  21.778   3.593
 5364W        W70525  43.033  38.372  13.340
 5365W        W70526  38.415  24.880  11.668
 5366W        W70527  12.246  14.738  11.769
 5367W        W70528  36.599  18.677  14.850
 5368W        W70529   3.677  38.522   2.757
 5369W        W70530  33.194  44.310   0.797
 5370W        W70531  12.507  14.813  14.186
 5371W        W70532  27.283  37.475   4.428
 5372W        W70533  25.987  29.186   1.874
 5373W        W70534  41.769   1.413   0.994
 5374W        W70535  17.599   9.241  13.997
 5375W        W70536   2.214  35.282  12.144
 5376W        W70537  27.828   7.217   5.393
 5377W        W70538   9.839  33.244   4.045
 5378W        W70539   0.773  26.117   1.853
 5379W        W70540  25.099   9.345  13.904
 5380W        W70541  23.130  14.083  14.337
 5381W        W70542  16.783  18.257  14.099
 5382W        W70543  25.553  42.279  10.856
 5383W        W70544  35.496  42.844  13.884
 5384W        W70545   5.397  34.350   2.742
 5385W        W70546   4.174  23.183   0.147
 5386W        W70547   5.223  28.471  12.489
 5387W        W70548  17.736  42.692   4.052
 5388W        W70549  30.037   8.152   2.164
 5389W        W70550  39.754  10.174   0.451
 5390W        W70551  28.630   9.825  13.797
 5391W        W70552  19.895  36.869  12.049
 5392W        W70553   4.397  36.445  11.598
 5393W        W70554  22.615   7.392  13.870
 5394W        W70555  37.847  23.257  14.938
 5395W        W70556  24.697  25.805  12.967
 5396W        W70557  27.594  19.143  13.952
 5397W        W70558  19.183  20.755  14.916
 5398W        W70559   8.433   6.439  12.314
 5399W        W70560  44.845   0.344  10.527
 5400W        W70561  27.473  21.140   2.352
 5401W        W70562  25.533  33.458  10.805
 5402W        W70563  36.520  28.537   3.614
 5403W        W70564  29.441  36.067  12.835
 5404W        W70565  28.613  24.594   3.650
 5405W        W70566   9.485  14.901  12.017
 5406W        W70567   1.161  30.824   3.175
 5407W        W70568   8.762  42.758   1.492
 5408W        W70569  10.104  32.067   0.820
 5409W        W70570  35.047  30.594  13.994
 5410W        W70571  18.618  23.564   3.218
 5411W        W70572   2.558   9.654  14.320
 5412W        W70573  26.043  17.537  11.354
 5413W        W70574  42.317  21.087  10.562
 5414W        W70575  34.628  30.233   3.271
 5415W        W70576  22.569  19.556   2.787
 5416W        W70577  14.088  14.422  13.525
 5417W        W70578  24.987  26.491   1.528
 5418W        W70579  32.009   7.679  12.549
 5419W        W70580  19.510  27.070   0.063
 5420W        W70581  18.698   2.640   2.791
 5421W        W70582  43.904  25.150  12.095
 5422W        W70583  27.995  27.758   2.579
 5423W        W70584   2.686  38.954   9.975
 5424W        W70585   4.434  32.068   0.445
 5425W        W70586  16.641  34.198  14.475
 5426W        W70587  13.065  39.427  10.675
 5427W        W70588  37.604  38.399   2.926
 5428W        W70589  31.495  37.947   4.343
 5429W        W70590  12.888  30.429   2.860
 5430W        W70591  22.561   2.858   1.613
 5431W        W70592  42.201  39.610   1.322
 5432W        W70593  25.924  38.782   3.492
 5433W        W70594   6.624  29.852   1.767
 5434W        W70595  19.733   1.338  10.613
 5435W        W70596  30.816  23.247   0.664
 5436W        W70597  33.090  30.072  14.347
 5437W        W70598  12.224  16.244   2.315
 5438W        W70599  36.113  36.567  11.153
 5439W        W70600  23.045  22.710   2.178
 5440W        W70601  42.114  19.695   1.110
 5441W        W70602  31.634  41.801   2.877
 5442W        W70603  11.736  36.777   3.596
 5443W        W70604   2.341   7.434  13.481
 5444W        W70605   2.887   7.918  12.019
 5445W        W70606  20.800  37.181  11.212
 5446W        W70607   8.318  23.794  11.805
 5447W        W70608   3.727  14.835  13.399
 5448W        W70609  28.591   4.480  12.487
 5449W        W70610  20.238  13.691  10.998
 5450W        W70611  27.501  37.903   3.360
 5451W        W70612   4.448  20.685  13.358
 5452W        W70613  35.426  16.726   3.871
 5453W        W70614  11.861  32.550   4.743
 5454W        W70615  10.915  11.887   3.584
 5455W        W70616   6.634  38.719   2.774
 5456W        W70617  15.757  40.103  12.895
 5457W        W70618  24.397  35.091   2.291
 5458W        W70619  11.370  18.341   2.983
 5459W        W70620  11.098  17.717   4.186
 5460W        W70621  25.448  20.693   0.343
 5461W        W70622  14.009  20.249   1.451
 5462W        W70623  27.626   0.262   4.627
 5463W        W70624  15.285  15.274   4.397
 5464W        W70625  29.050  35.359  14.942
 5465W        W70626  35.897  24.590  10.600
 5466W        W70627  11.913  27.269  12.487
 5467W        W70628  36.034  10.833  14.322
 5468W        W70629  13.134  30.518  14.133
 5469W        W70630  27.162  41.777  11.897
 5470W        W70631   5.572  30.102   3.580
 5471W        W70632  35.853  12.575   3.240
 5472W        W70633  44.307  34.471   3.299
 5473W        W70634  16.552   9.716  11.707
 5474W        W70635   5.996  17.125   0.827
 5475W        W70636  29.997  41.067  12.662
 5476W        W70637  16.590  21.509  12.066
 5477W        W70638   9.837  17.596  12.974
 5478W        W70639  44.933  11.629  12.409
 5479W        W70640   4.193  36.677  12.020
 5480W        W70641   0.651  28.512  11.623
 5481W        W70642  28.601  13.690   3.960
 5482W        W70643  33.033  30.422  13.795
 5483W        W70644   3.370  44.030   1.918
 5484W        W70645  26.520  31.103   2.356
 5485W        W70646  43.088  16.346   3.113
 5486W        W70647  17.166  23.545  12.536
 5487W        W70648   4.602  34.011   4.545
 5488W        W70649  27.466   2.357   2.051
 5489W        W70650  43.556  24.684   3.111
 5490W        W70651  32.924  34.567  11.449
 5491W        W70652  42.855   1.425   3.845
 5492W        W70653  18.391  35.643  14.032
 5493W        W70654  28.649   2.506  10.772
 5494W        W70655  35.129  34.615  12.721
 5495W        W70656  11.136  39.965   0.402
 5496W        W70657  39.332   1.399  13.390
 5497W        W70658   0.042  39.161  11.138
 5498W        W70659  18.484   0.397   3.478
 5499W        W70660  34.116  42.513   3.588
 5500W        W70661  22.668  32.853   4.035
 5501W        W70662   4.922  34.137  13.458
 5502W        W70663   5.424  33.400   0.488
 5503W        W70664  38.016  19.043   1.743
 5504W        W70665  14.892  33.874   2.804
 5505W        W70666  31.731  40.187   5.058
 5506W        W70667   9.204  10.624   1.112
 5507W        W70668  36.121  32.547   4.095
 5508W        W70669   1.918  26.969   2.072
 5509W        W70670  11.703  37.471   2.269
 5510W        W70671  27.127  44.272  13.999
 5511W        W70672  15.689  29.956   1.708
 5512W        W70673  26.164  30.911   4.697
 5513W        W70674   7.443  34.405   2.701
 5514W        W70675  13.798  21.620   1.058
 5515W        W70676  39.967  41.530   2.157
 5516W        W70677  30.461  22.202  12.397
 5517W        W70678  16.059  26.082  13.353
 5518W        W70679   4.481  24.087  13.534
 5519W        W70680  44.966   8.894  12.591
 5520W        W70681  28.326  14.200  10.099
 5521W        W70682   8.320  41.307  11.205
 5522W        W70683   0.947  38.475   0.822
 5523W        W70684  20.420  31.817   3.252
 5524W        W70685  38.384   4.372   0.913
 5525W        W70686  33.451   1.198  14.456
 5526W        W70687  21.224  37.830  11.412
 5527W        W70688  38.892  36.866  11.668
 5528W        W70689  19.485  38.644   1.017
 5529W        W70690  35.331  39.634   3.469
 5530W        W70691  18.194  31.845   2.251
 5531W        W70692  16.288  27.163   3.296
 5532W        W70693  25.016  24.241   2.756
 5533W        W70694  21.677  19.933   0.778
 5534W        W70695  42.804  13.819   4.563
 5535W        W70696  25.126  14.275   3.137
 5536W        W70697   7.313  32.178   3.046
 5537W        W70698  23.989  12.485   4.432
 5538W        W70699  15.265  21.032   2.657
 5539W        W70700  19.680  23.487  10.569
 5540W        W70701  23.578  36.574  12.541
 5541W        W70702  40.056   6.291   3.186
 5542W        W70703  11.946  30.227   4.132
 5543W        W70704  13.387  32.184   1.190
 5544W        W70705  12.541  41.041  12.518
 5545W        W70706   2.819   2.086  14.198
 5546W        W70707  42.391  41.821   2.207
 5547W        W70708  20.495   7.559  12.417
 5548W        W70709  18.481  22.199  10.877
 5549W        W70710  18.149   1.014  14.349
 5550W        W70711  26.774   3.901   0.900
 5551W        W70712   6.677  15.616  13.877
 5552W        W70713   9.085   1.739  13.459
 5553W        W70714  17.184  21.069  10.322
 5554W        W70715   1.385   2.515   3.670
 5555W        W70716  24.661  31.359  14.830
 5556W        W70717  33.365  40.751   2.670
 5557W        W70718  40.505  12.717  14.764
 5558W        W70719  26.215  22.571   2.920
 5559W        W70720  13.292  40.850  10.793
 5560W        W70721  11.837  17.014  12.524
 5561W        W70722   4.140  33.898  11.096
 5562W        W70723  42.847  37.497  13.105
 5563W        W70724  10.111  23.122  13.852
 5564W        W70725  37.254  23.835  14.398
 5565W        W70726  10.346  28.168  11.160
 5566W        W70727  21.714  15.555  13.528
 5567W        W70728  21.297   5.900   0.956
 5568W        W70729  20.543  28.376  10.752
 5569W        W70730  25.023   7.677  10.706
 5570W        W70731  41.364  38.887   4.382
 5571W        W70732  38.623   4.849  11.858
 5572W        W70733   4.566   0.564   4.287
 5573W        W70734  10.656  41.205   0.697
 5574W        W70735  18.172  44.192  13.942
 5575W        W70736   9.845   1.221  13.490
 5576W        W70737  41.734   7.262   2.516
 5577W        W70738  16.296  42.885   3.046
 5578W        W70739  36.290  43.900   0.488
 5579W        W70740  29.933  18.580  13.403
 5580W        W70741  29.676  20.635  14.968
 5581W        W70742   2.646  20.099   4.751
 5582W        W70743   8.828  19.051   3.111
 5583W        W70744  36.426  19.159  11.613
 5584W        W70745  22.706  23.058  12.975
 5585W        W70746  40.309  17.105  10.054
 5586W        W70747   3.752  39.429   2.698
 5587W        W70748   0.480  40.592  14.072
 5588W        W70749  15.268  38.713   2.844
 5589W        W70750  21.720  18.031   1.842
 5590W        W70751  24.175  37.373  12.775
 5591W        W70752   8.055   7.879   1.013
 5592W        W70753  41.804  31.499   1.773
 5593W        W70754   8.412  43.022  12.191
 5594W        W70755  23.582   7.351  11.506
 5595W        W70756   2.951  22.132  12.552
 5596W        W70757  37.212  35.818  13.213
 5597W        W70758   8.652   4.178   3.720
 5598W        W70759  24.299  41.050   2.124
 5599W        W70760  20.080  32.186  14.448
 5600W        W70761   2.808  23.670  10.355
 5601W        W70762  36.420  16.396  14.963
 5602W        W70763   2.623   6.700   1.689
 5603W        W70764   3.844  25.564  14.935
 5604W        W70765  33.036  20.120  12.029
 5605W        W70766  21.675  21.222   0.909
 5606W        W70767  42.328   8.072   3.873
 5607W        W70768  19.652  19.924   3.209
 5608W        W70769   7.344  25.072   4.327
 5609W        W70770  28.700   2.771  11.581
 5610W        W70771  38.705  19.053  11.434
 5611W        W70772  17.358  15.207   3.277
 5612W        W70773  44.509  14.764  14.771
 5613W        W70774   7.822  30.717  13.705
 5614W        W70775  42.826   4.453  11.192
 5615W        W70776  18.022   8.806  10.733
 5616W        W70777  24.801   6.314   3.138
 5617W        W70778  38.286   5.916   0.847
 5618W        W70779  14.194  22.752   3.330
 5619W        W70780  31.646   7.459  11.797
 5620W        W70781   9.844   3.514  14.426
 5621W        W70782  21.003   5.466   0.923
 5622W        W70783  23.579  15.262  13.809
 5623W        W70784  38.406  14.329  10.511
 5624W        W70785  39.103  16.087   0.010
 5625W        W70786  33.829  16.809  13.901
 5626W        W70787  25.733  20.118   3.544
 5627W        W70788  40.467   9.477   3.835
 5628W        W70789  36.749   8.038   2.121
 5629W        W70790  37.536  19.536  12.498
 5630W        W70791  11.737  21.767  10.393
 5631W        W70792  11.244  35.928  12.704
 5632W        W70793  26.688  31.163   4.713
 5633W        W70794   1.517  42.797   3.576
 5634W        W70795  28.662  42.800  12.629
 5635W        W70796  41.889  38.467  13.112
 5636W        W70797  28.463   7.660  12.945
 5637W        W70798   3.555  20.050   2.196
 5638W        W70799   7.946   3.427   1.933
 5639W        W70800   7.726   6.344  10.704
 5640W        W70801  27.590   0.755   2.247
 5641W        W70802  23.888  25.616  11.076
 5642W        W70803  20.521   1.701  14.285
 5643W        W70804  33.012  17.542   1.830
 5644W        W70805  44.920  12.126  14.506
 5645W        W70806  32.803  27.631   0.200
 5646W        W70807  23.587  22.582  13.135
 5647W        W70808   8.302  31.431   2.748
 5648W        W70809  42.075   7.594   4.647
 5649W        W70810  21.831  32.663   0.319
 5650W        W70811  42.599   7.594  11.653
 5651W        W70812  38.880   1.938   3.200
 5652W        W70813   7.602  17.807   1.651
 5653W        W70814  17.076  43.312   0.657
 5654W        W70815  27.023  14.749  11.760
 5655W        W70816  30.182   5.754  11.585
 5656W        W70817  14.703  29.230   1.469
 5657W        W70818  43.821  28.900   1.291
 5658W        W70819   8.806  37.518  13.333
 5659W        W70820  44.951  16.307  12.571
 5660W        W70821  25.433  28.228   3.312
 5661W        W70822   4.175   2.969  10.369
 5662W        W70823  21.456  38.173  12.975
 5663W        W70824   7.170  41.558  12.066
 5664W        W70825   7.759  35.838   2.904
 5665W        W70826  19.112  14.803   1.726
 5666W        W70827   0.315  43.873  11.184
 5667W        W70828  26.722  12.360  13.786
 5668W        W70829   3.341  15.798   2.687
 5669W        W70830  16.337  38.289  10.299
 5670W        W70831  14.114  16.560  10.771
 5671W        W70832   2.224  33.161  11.148
 5672W        W70833   0.790  43.664  13.455
 5673W        W70834  43.134  40.752   3.614
 5674W        W70835  16.064  16.125   1.578
 5675W        W70836  40.326  11.720   3.865
 5676W        W70837  18.793   0.375   0.453
 5677W        W70838   6.162  39.071  11.371
 5678W        W70839   6.737  15.387  11.150
 5679W        W70840  41.536  13.921  14.491
 5680W        W70841  33.887   7.362  14.518
 5681W        W70842  32.030  25.468   3.224
 5682W        W70843  19.255   6.984  11.930
 5683W        W70844  36.595  10.181   1.468
 5684W        W70845   4.799  25.768   0.900
 5685W        W70846  44.022   4.365  14.802
 5686W        W70847  39.301   7.032   2.612
 5687W        W70848  27.928  16.738  12.569
 5688W        W70849  37.726  21.740   4.565
 5689W        W70850  41.002   7.422   1.605
 5690W        W70851   6.284  40.334   2.002
 5691W        W70852  36.901  20.644  10.629
 5692W        W70853  33.560   9.336   1.800
 5693W        W70854  38.105  42.421   1.349
 5694W        W70855  41.513  44.842  14.261
 5695W        W70856   6.968   7.685  14.862
 5696W        W70857   5.699  13.216   3.615
 5697W        W70858  16.949   3.543  12.278
 5698W        W70859  10.425  11.641  12.581
 5699W        W70860   9.615  28.167   1.453
 5700W        W70861   7.194  32.336   0.304
 5701W        W70862  26.508   2.822  11.879
 5702W        W70863  37.388   2.279   4.072
 5703W        W70864  33.348  14.185   0.020
 5704W        W70865  11.069   4.768   1.474
 5705W        W70866  31.716  26.514  13.411
 5706W        W70867  30.423  23.605  12.463
 5707W        W70868  40.777  40.956   3.174
 5708W        W70869  26.111  21.048   4.273
 5709W        W70870   9.107  35.007   3.582
 5710W        W70871   3.665  43.361   1.353
 5711W        W70872  41.936  21.678  14.443
 5712W        W70873  10.330  11.868  11.316
 5713W        W70874  36.712  21.213   0.113
 5714W        W70875  29.716  12.775  11.160
 5715W        W70876  13.545   5.423  12.706
 5716W        W70877  20.533  29.657  11.134
 5717W        W70878  23.565  31.615   4.911
 5718W        W70879   1.883  16.313   2.259
 5719W        W70880  39.537   4.106  12.040
 5720W        W70881  19.763  24.475   3.343
 5721W        W70882  35.285   4.275  10.858
 5722W        W70883   2.469  38.963   2.694
 5723W        W70884   6.976   1.805   0.383
 5724W        W70885  19.706  26.729   2.746
 5725W        W70886  29.056  32.192  11.110
 5726W        W70887  40.015  16.234   0.379
 5727W        W70888  12.288  14.785  13.619
 5728W        W70889   7.990  16.005   4.128
 5729W        W70890  35.452   5.276   2.303
 5730W        W70891  13.994  44.957  13.741
 5731W        W70892   7.196  34.326  14.421
 5732W        W70893  24.582  43.844  14.886
 5733W        W70894  13.039  35.615   4.260
 5734W        W70895  42.288  32.521   4.854
 5735W        W70896   2.172  14.169   0.702
 5736W        W70897  24.295  21.284   1.786
 5737W        W70898   8.443  11.378  11.519
 5738W        W70899  33.068  42.982  14.761
 5739W        W70900  34.208  36.592   1.239
 5740W        W70901  37.413  26.152  13.121
 5741W        W70902  29.099   4.275  11.059
 5742W        W70903  14.555   5.698  11.802
 5743W        W70904  20.849   3.941  11.988
 5744W        W70905  31.220  16.399   4.936
 5745W        W70906   7.012  34.026   1.749
 5746W        W70907  21.590  23.121  10.774
 5747W        W70908  30.500  36.176  12.012
 5748W        W70909  21.729   0.821  11.045
 5749W        W70910   9.252  24.554   9.700
 5750W        W70911  38.155  27.598   4.703
 5751W        W70912  34.547  43.404  13.548
 5752W        W70913  22.068  44.053  12.375
 5753W        W70914   0.355  32.337   2.609
 5754W        W70915  41.371   0.149   3.209
 5755W        W70916  16.832  34.646  11.048
 5756W        W70917  23.308  35.977  12.698
 5757W        W70918  10.233  41.032  12.791
 5758W        W70919  44.371  27.838   5.005
 5759W        W70920   3.289  16.154  13.380
 5760W        W70921  16.224  26.145   4.152
 5761W        W70922   3.758   0.013   2.343
 5762W        W70923  31.539  21.407   3.153
 5763W        W70924  11.654  31.678  12.466
 5764W        W70925   3.728  25.057  14.938
 5765W        W70926  23.100   3.151  10.789
 5766W        W70927  40.499  16.774   1.879
 5767W        W70928  20.499  34.406  11.137
 5768W        W70929   3.119  26.626  10.157
 5769W        W70930  14.755   3.812   4.616
 5770W        W70931  18.989  21.449  14.489
 5771W        W70932  24.914   8.574   1.661
 5772W        W70933  10.867  22.514   0.720
 5773W        W70934  14.939  39.244   0.539
 5774W        W70935  44.031   5.951  13.288
 5775W        W70936  35.822  21.234  10.979
 5776W        W70937  23.585  36.309   1.736
 5777W        W70938  22.864   8.853   3.723
 5778W        W70939  27.151  12.638  13.827
 5779W        W70940  19.797  15.250   0.321
 5780W        W70941  25.184   2.919   0.752
 5781W        W70942  33.665  19.615  14.276
 5782W        W70943  38.178  16.287   0.901
 5783W        W70944  44.742  30.681  14.902
 5784W        W70945  20.999  40.268   2.797
 5785W        W70946  34.144  39.857   1.222
 5786W        W70947   8.072  32.223  12.147
 5787W        W70948  13.242   8.616  12.440
 5788W        W70949  37.256   6.665   2.608
 5789W        W70950  39.567  31.136   1.206
 5790W        W70951  33.950  24.105   4.763
 5791W        W70952  43.421  37.925   2.685
 5792W        W70953  20.840  15.172   0.388
 5793W        W70954  43.559  29.712   2.293
 5794W        W70955  32.608   4.393  11.684
 5795W        W70956  24.125  27.360  11.914
 5796W        W70957  34.624   7.203   2.682
 5797W        W70958  13.785  19.326   2.392
 5798W        W70959   0.431  32.064  12.339
 5799W        W70960   2.898  21.006   3.592
 5800W        W70961  42.955   3.955   3.458
 5801W        W70962  42.504   0.047  13.579
 5802W        W70963  19.804  39.820  14.815
 5803W        W70964  23.609  23.225  14.439
 5804W        W70965   7.297  18.807  13.379
 5805W        W70966   7.639   5.369  12.608
 5806W        W70967  24.529  16.161   1.450
 5807W        W70968  24.650  35.545   2.151
 5808W        W70969  29.743  19.407   2.126
 5809W        W70970  35.354   3.780   0.885
 5810W        W70971   1.096   5.253  14.667
 5811W        W70972   5.489  11.639  11.082
 5812W        W70973  23.110  10.409   2.737
 5813W        W70974  39.832  11.318  11.716
 5814W        W70975   0.615  32.593   3.213
 5815W        W70976  18.800  40.299   0.502
 5816W        W70977   2.174  24.361   0.575
 5817W        W70978  31.580  26.145   4.144
 5818W        W70979   3.781  21.945   3.549
 5819W        W70980  27.392  39.825  13.024
 5820W        W70981   8.707  26.599   5.057
 5821W        W70982  22.086  32.868   3.073
 5822W        W70983  11.536  38.564   3.175
 5823W        W70984   0.425  26.300   0.450
 5824W        W70985  32.847   6.053   3.548
 5825W        W70986  36.088  13.273   4.670
 5826W        W70987   2.876  16.728  11.980
 5827W        W70988  20.192  42.711  13.132
 5828W        W70989  15.603  18.664   0.635
 5829W        W70990  17.642  42.780  13.046
 5830W        W70991  13.261  22.169   4.106
 5831W        W70992  25.678  39.372  13.981
 5832W        W70993  31.186   4.255   4.058
 5833W        W70994  24.528   5.291  12.925
 5834W        W70995   4.229   5.463   0.608
 5835W        W70996  10.576  32.197  10.995
 5836W        W70997  32.412  31.680   0.470
 5837W        W70998  28.810   1.531   1.911
 5838W        W70999   1.502  35.632  12.347
 5839W        W71000  22.467  37.905  11.194
 5840W        W71001  18.811  24.979   4.603
 5841W        W71002  29.857   7.801   2.870
 5842W        W71003  12.235  38.779   2.158
 5843W        W71004  27.991   5.383  11.479
 5844W        W71005  36.626   9.797   3.725
 5845W        W71006   7.482  27.060  10.189
 5846W        W71007  35.379  34.908  10.593
 5847W        W71008  20.066  19.224   0.395
 5848W        W71009  13.704  26.555  10.839
 5849W        W71010   8.302  31.550  14.733
 5850W        W71011  37.498  34.570   0.411
 5851W        W71012  21.862   2.282  13.300
 5852W        W71013  14.339   5.197  11.507
 5853W        W71014  14.281  14.099   4.995
 5854W        W71015  12.083   8.178  11.590
 5855W        W71016  18.491  17.117   0.424
 5856W        W71017  36.810  27.526   3.879
 5857W        W71018  12.042  15.732  12.874
 5858W        W71019  32.068  35.147  10.789
 5859W        W71020  34.866  43.842  12.666
 5860W        W71021  16.326  17.933  12.324
 5861W        W71022  35.411  22.739   4.307
 5862W        W71023   7.191  40.101  10.700
 5863W        W71024   9.932   8.151   2.310
 5864W        W71025  19.567   6.608  12.482
 5865W        W71026  22.946   0.768   1.266
 5866W        W71027  38.578   5.727  14.883
 5867W        W71028  40.015  24.180  12.539
 5868W        W71029  19.150  30.379  14.149
 5869W        W71030  43.012   9.392  11.175
 5870W        W71031  35.567   8.632   4.134
 5871W        W71032  15.824   5.336   3.286
 5872W        W71033   8.267  23.670  12.627
 5873W        W71034  41.619  14.507   3.205
 5874W        W71035  17.782  40.998   2.782
 5875W        W71036  34.060  10.019  12.459
 5876W        W71037  24.250  35.891  14.941
 5877W        W71038  25.594   3.792  13.918
 5878W        W71039  33.652  35.281   1.700
 5879W        W71040  39.786  12.622   1.335
 5880W        W71041  30.681  14.792  11.213
 5881W        W71042  35.806  27.337   1.797
 5882W        W71043  41.631  17.280   5.024
 5883W        W71044  10.837  29.098  12.938
 5884W        W71045  30.037   1.388  14.506
 5885W        W71046  44.466   5.127  13.906
 5886W        W71047   7.636   5.901  10.447
 5887W        W71048  20.141  12.410  14.546
 5888W        W71049  41.884  39.808  13.894
 5889W        W71050   5.490  17.826   1.085
 5890W        W71051  21.523   1.116  12.121
 5891W        W71052  34.380  31.501  12.709
 5892W        W71053  28.731  17.273  11.730
 5893W        W71054  22.807   8.332   2.200
 5894W        W71055  17.866  29.949   0.714
 5895W        W71056  16.132   5.767  10.388
 5896W        W71057  28.584  28.737  11.606
 5897W        W71058  25.166  13.185  13.816
 5898W        W71059  25.552   7.631  13.451
 5899W        W71060  11.744  43.490   0.846
 5900W        W71061  42.741  37.326   0.824
 5901W        W71062   4.324  12.418   0.969
 5902W        W71063  31.508   3.563   3.489
 5903W        W71064  36.123   4.640   4.648
 5904W        W71065  30.186  27.861   4.993
 5905W        W71066   2.054  40.669   3.697
 5906W        W71067  12.881  22.015  12.888
 5907W        W71068   3.184  20.330  11.059
 5908W        W71069  24.096  33.393   2.007
 5909W        W71070  39.818  36.378   3.864
 5910W        W71071   6.453  40.936  12.061
 5911W        W71072   7.163  19.537   4.936
 5912W        W71073  22.369  29.519  13.761
 5913W        W71074   5.902  25.925   1.903
 5914W        W71075  21.756  27.477  13.293
 5915W        W71076   5.481   6.744  14.406
 5916W        W71077  28.582   7.147  14.706
 5917W        W71078  31.724   2.976   4.345
 5918W        W71079  14.335  28.914   1.672
 5919W        W71080  18.735  36.571   3.673
 5920W        W71081  19.110  22.681  10.331
 5921W        W71082  40.949  30.714  10.411
 5922W        W71083  13.896  17.119  12.989
 5923W        W71084   3.952  29.582   3.775
 5924W        W71085  22.050   9.597   1.753
 5925W        W71086  35.015  11.581   2.404
 5926W        W71087  31.010   7.661  13.413
 5927W        W71088  27.218  19.247  13.304
 5928W        W71089   8.716  14.261  13.467
 5929W        W71090  35.460  24.167  13.504
 5930W        W71091  31.563  35.895  10.591
 5931W        W71092   6.778  35.478  14.550
 5932W        W71093   4.200  42.138  13.792
 5933W        W71094   0.497  24.084  10.537
 5934W        W71095  29.030  21.621   2.955
 5935W        W71096  21.242  14.617   1.761
 5936W        W71097  16.205   9.627  13.419
 5937W        W71098  28.102   4.698   3.250
 5938W        W71099  43.959   3.135  12.011
 5939W        W71100   0.749  27.468  14.948
 5940W        W71101  28.187  11.949   3.877
 5941W        W71102  21.541  15.285   0.820
 5942W        W71103  21.060  24.881   1.533
 5943W        W71104  20.582  13.785   4.305
 5944W        W71105   4.615  28.762   3.947
 5945W        W71106  33.434   8.462  13.190
 5946W        W71107  35.368  35.965  14.713
 5947W        W71108  30.528  44.399   1.210
 5948W        W71109  20.834  14.616   0.820
 5949W        W71110  21.104   6.385  11.127
 5950W        W71111  44.436  35.686  12.432
 5951W        W71112  44.810  30.961   1.468
 5952W        W71113  33.043  42.827   1.307
 5953W        W71114  33.019  27.326   2.769
 5954W        W71115  34.159  10.860  12.109
 5955W        W71116  14.667  18.312   1.548
 5956W        W71117   1.610  30.526   4.029
 5957W        W71118  28.065  43.377   1.850
 5958W        W71119  31.827  28.848   1.634
 5959W        W71120  25.248  37.690  11.738
 5960W        W71121  26.187  36.880   4.274
 5961W        W71122  20.969  25.150  14.815
 5962W        W71123  17.470  40.042  13.553
 5963W        W71124   6.157  14.763  12.877
 5964W        W71125  42.487  17.051  12.620
 5965W        W71126   8.504  36.128   3.301
 5966W        W71127  29.610  41.240   0.955
 5967W        W71128  27.654   5.559   2.337
 5968W        W71129  32.211  26.895   0.809
 5969W        W71130   8.270  31.650  12.989
 5970W        W71131  40.888  29.024   3.639
 5971W        W71132  37.829  13.205  12.169
 5972W        W71133  36.103  43.908  13.112
 5973W        W71134   3.983  41.840   4.720
 5974W        W71135  20.090  43.349  12.523
 5975W        W71136  25.670  26.754   3.244
 5976W        W71137  40.409  36.264   4.830
 5977W        W71138  19.361  12.199   4.857
 5978W        W71139  15.769  17.774  14.804
 5979W        W71140  44.235  21.761  12.883
 5980W        W71141   4.451   3.015   3.850
 5981W        W71142  20.323  35.881   4.136
 5982W        W71143   3.244   9.757   3.424
 5983W        W71144  16.545  33.441   3.069
 5984W        W71145  14.314   7.122  11.712
 5985W        W71146  16.687   2.782  10.985
 5986W        W71147  34.302  20.969   2.681
 5987W        W71148  30.568  33.148   1.425
 5988W        W71149  26.530   4.347   0.130
 5989W        W71150  41.572  22.435  14.452
 5990W        W71151  14.776  32.542   4.074
 5991W        W71152  35.593  18.861  11.619
 5992W        W71153  14.642  19.609   3.697
 5993W        W71154  11.521  11.911   2.783
 5994W        W71155  15.329   5.675   1.250
 5995W        W71156   4.504  23.413   0.961
 5996W        W71157   4.165  43.017   1.814
 5997W        W71158   6.104   2.705   0.978
 5998W        W71159  37.789  24.130  13.893
 5999W        W71160  29.649  34.854  14.464
 6000W        W71161  33.654  23.569   9.665
 6001W        W71162   0.077   5.089  10.147
 6002W        W71163  15.098   9.387  12.708
 6003W        W71164   7.736  30.019   1.890
 6004W        W71165  26.434  23.702  11.135
 6005W        W71166  15.557  12.089  11.183
 6006W        W71167   7.318  20.438   1.316
 6007W        W71168   8.602  40.737   4.580
 6008W        W71169  13.206   1.691  10.466
 6009W        W71170  22.495  12.855   2.406
 6010W        W71171   8.354  41.783   1.845
 6011W        W71172   9.353  42.448   2.690
 6012W        W71173  18.517  29.017   2.580
 6013W        W71174  41.337  25.670   0.574
 6014W        W71175   2.273  17.181  14.582
 6015W        W71176  28.621  39.418  13.816
 6016W        W71177   5.504   3.239  11.964
 6017W        W71178  12.839   6.207   5.147
 6018W        W71179  25.018   3.721   1.229
 6019W        W71180   5.442   7.402  13.869
 6020W        W71181  20.919  36.075  12.020
 6021W        W71182   6.381  42.897   3.334
 6022W        W71183  40.861  18.812   3.709
 6023W        W71184   4.784  36.984  12.340
 6024W        W71185  20.394   7.159   4.009
 6025W        W71186   6.993   9.267  11.436
 6026W        W71187   3.863  16.140  14.476
 6027W        W71188  14.595  40.054   1.884
 6028W        W71189  42.416  31.403   0.732
 6029W        W71190  41.325  19.005   2.068
 6030W        W71191   6.529  32.864  13.316
 6031W        W71192  10.556   8.655  12.148
 6032W        W71193  12.244  21.119   2.968
 6033W        W71194   8.813  16.456   2.442
 6034W        W71195  18.706   5.469  13.121
 6035W        W71196  36.179  33.133  13.374
 6036W        W71197   1.427  19.309  10.429
 6037W        W71198  12.253   1.816  14.493
 6038W        W71199   1.983  33.837  14.182
 6039W        W71200  11.586   4.230   0.297
 6040W        W71201  40.433  35.884  12.429
 6041W        W71202  31.599  25.447  13.580
 6042W        W71203  28.146  35.826  13.389
 6043W        W71204   0.882  19.311   2.613
 6044W        W71205   5.732   8.184  14.705
 6045W        W71206   1.770  23.745  10.700
 6046W        W71207  44.515  20.674   3.835
 6047W        W71208  39.422   6.866   3.578
 6048W        W71209  38.886  44.941   4.321
 6049W        W71210  39.710   5.926   1.993
 6050W        W71211  31.663  26.499  11.141
 6051W        W71212  40.232  16.565  11.593
 6052W        W71213  12.095  18.678  13.075
 6053W        W71214  22.165   5.986   1.388
 6054W        W71215  29.079   9.688  12.994
 6055W        W71216  27.401  15.063  12.999
 6056W        W71217  37.672   8.082   1.760
 6057W        W71218  32.432  33.158   3.125
 6058W        W71219   8.581  38.435  13.297
 6059W        W71220  37.884  29.612   2.176
 6060W        W71221  42.948   5.965   1.445
 6061W        W71222  33.355   5.849   0.512
 6062W        W71223   3.300  32.976   0.369
 6063W        W71224  14.144  18.971   1.281
 6064W        W71225   0.933  38.312   4.496
 6065W        W71226   4.227  36.141  13.826
 6066W        W71227  32.442  25.275   2.145
 6067W        W71228   0.830  34.829   2.521
 6068W        W71229  41.281   0.304   1.928
 6069W        W71230  12.237  42.557  14.129
 6070W        W71231  22.494  19.188   0.273
 6071W        W71232  38.237  22.078  13.496
 6072W        W71233  27.644  27.860  11.988
 6073W        W71234  25.669  26.408  12.809
 6074W        W71235  19.194  34.410  12.034
 6075W        W71236  30.008   0.416  14.251
 6076W        W71237  20.680  32.231  14.395
 6077W        W71238  12.252  33.368  11.996
 6078W        W71239  18.319   0.854   3.242
 6079W        W71240  23.960   7.691  10.834
 6080W        W71241  14.552  36.319   1.545
 6081W        W71242  32.458  27.278   2.255
 6082W        W71243   1.275  30.660   3.651
 6083W        W71244  35.005  27.899   1.866
 6084W        W71245  19.695  22.146  14.374
 6085W        W71246   0.984  32.901   4.376
 6086W        W71247  27.010   2.654  13.548
 6087W        W71248   1.577  21.928   0.492
 6088W        W71249  41.012  30.649   0.838
 6089W        W71250  21.782  16.403  11.759
 6090W        W71251   1.122  36.058  12.500
 6091W        W71252  32.929  10.492  10.687
 6092W        W71253  19.482  26.497   3.537
 6093W        W71254  10.523  11.151  12.050
 6094W        W71255   6.253  36.804   2.620
 6095W        W71256  33.472  43.956  12.454
 6096W        W71257  29.891  24.951   0.355
 6097W        W71258  23.129  37.428   2.591
 6098W        W71259  16.682  30.971   2.158
 6099W        W71260  30.915  38.488   4.803
 6100W        W71261  38.322   2.420   3.513
 6101W        W71262  18.718   9.712  11.834
 6102W        W71263  18.355  43.396   3.587
 6103W        W71264  23.556  15.068  13.308
 6104W        W71265  10.184  17.383   2.159
 6105W        W71266  44.882  18.533   4.333
 6106W        W71267  18.979  18.408  14.124
 6107W        W71268  10.721  23.065  11.652
 6108W        W71269   8.471  29.213  10.504
 6109W        W71270  11.825  36.748   2.687
 6110W        W71271  17.265   1.066   9.909
 6111W        W71272  27.057   7.681  10.581
 6112W        W71273  34.870  12.307  11.509
 6113W        W71274   6.161  33.060   0.796
 6114W        W71275   6.766  34.636  10.752
 6115W        W71276   9.723   9.701   1.342
 6116W        W71277  24.207  13.298   1.638
 6117W        W71278  37.910  31.215   3.780
 6118W        W71279   9.715  11.814  13.101
 6119W        W71280  10.661   5.428   2.609
 6120W        W71281  21.041   2.001   1.860
 6121W        W71282  36.329   7.475   3.229
 6122W        W71283  31.403  44.887   0.575
 6123W        W71284  18.506  11.017   1.956
 6124W        W71285  34.538  34.065   4.457
 6125W        W71286  25.261  43.278   0.929
 6126W        W71287   7.141   6.829   4.042
 6127W        W71288  27.846   8.411   3.656
 6128W        W71289  41.772  30.035  13.001
 6129W        W71290   7.743  37.424  11.116
 6130W        W71291  33.574  10.836  14.223
 6131W        W71292  44.758  32.614  11.999
 6132W        W71293  16.972  29.256   4.888
 6133W        W71294  41.349   9.665   1.054
 6134W        W71295  39.628  23.271  11.235
 6135W        W71296  37.059  18.876  14.972
 6136W        W71297  19.497   4.675   4.436
 6137W        W71298  31.020  20.845   0.748
 6138W        W71299  19.878  43.526   3.560
 6139W        W71300  38.085   5.262   2.623
 6140W        W71301   1.907  12.263  12.855
 6141W        W71302  39.521   7.205  12.079
 6142W        W71303   5.898  12.427  10.957
 6143W        W71304  32.005  11.203  12.538
 6144W        W71305   4.881  20.029  12.988
 6145W        W71306  16.122  43.848  11.583
 6146W        W71307  38.507  40.424  14.788
 6147W        W71308  36.337  17.563   0.535
 6148W        W71309  31.615   8.333   4.917
 6149W        W71310  12.898  19.601   3.489
 6150W        W71311  11.185  19.780   3.754
 6151W        W71312  20.879   6.363  12.506
 6152W        W71313  34.223  29.461   0.809
 6153W        W71314  21.736  42.831  12.868
 6154W        W71315  43.454  14.838  13.826
 6155W        W71316  11.036  44.638   4.672
 6156W        W71317  37.060  28.654  13.787
 6157W        W71318  12.083   3.250   4.311
 6158W        W71319  43.524  14.722  11.884
 6159W        W71320   5.695  29.454   2.200
 6160W        W71321  15.077   7.843   0.276
 6161W        W71322  38.829  18.616  12.944
 6162W        W71323  29.317   6.634   4.592
 6163W        W71324  39.825  36.624   4.310
 6164W        W71325   1.360  43.263   2.187
 6165W        W71326  16.004   7.388   0.250
 6166W        W71327  35.039  31.594  13.296
 6167W        W71328  21.677  28.561   2.101
 6168W        W71329   1.991   8.011  13.126
 6169W        W71330  24.565  18.561  11.135
 6170W        W71331  36.876  44.236   1.559
 6171W        W71332  41.188   6.378   2.681
 6172W        W71333  30.571  23.092  12.401
 6173W        W71334  14.944  18.650   2.853
 6174W        W71335  27.045  42.964   4.515
 6175W        W71336  14.639  30.680  14.902
 6176W        W71337  39.656  10.146  11.519
 6177W        W71338  14.992  35.607   4.126
 6178W        W71339   6.854  17.152  10.468
 6179W        W71340  43.491  29.691  14.709
 6180W        W71341  39.878  36.423  14.333
 6181W        W71342  38.879  43.950   1.915
 6182W        W71343   6.928   3.716   1.639
 6183W        W71344  21.957  27.634   1.698
 6184W        W71345  25.640  40.829  12.430
 6185W        W71346  28.577  40.697  14.321
 6186W        W71347   4.207  32.023   1.793
 6187W        W71348  23.405  43.954  12.067
 6188W        W71349  34.048  26.965  12.682
 6189W        W71350  10.114  21.014   1.265
 6190W        W71351   6.505   6.214  11.601
 6191W        W71352   3.117   3.783  11.149
 6192W        W71353  32.047  37.844   1.194
 6193W        W71354   7.329  36.827  13.159
 6194W        W71355   5.972  28.518   0.974
 6195W        W71356  16.982  40.493  14.342
 6196W        W71357  12.217  30.045   4.524
 6197W        W71358  13.084  16.155  10.779
 6198W        W71359  38.114   1.501   5.033
 6199W        W71360  10.888  39.910   3.435
 6200W        W71361  13.674  14.676   3.524
 6201W        W71362  28.721  39.640  13.362
 6202W        W71363  21.756  35.545   4.619
 6203W        W71364  26.786  24.290  14.337
 6204W        W71365   9.331   4.756   2.291
 6205W        W71366  12.173  21.662  14.911
 6206W        W71367   7.135  30.973   3.415
 6207W        W71368   4.411  30.403   1.417
 6208W        W71369   7.811  31.985   3.220
 6209W        W71370  44.987  43.039  14.326
 6210W        W71371  32.059  26.768   4.792
 6211W        W71372   3.861  24.567   0.168
 6212W        W71373  18.954  26.007  14.572
 6213W        W71374  15.820   5.183   1.841
 6214W        W71375   0.903  23.430   4.120
 6215W        W71376   4.958  23.414   3.756
 6216W        W71377  34.600  21.467  13.453
 6217W        W71378  30.037   0.324  14.742
 6218W        W71379  10.256  43.337  13.939
 6219W        W71380  14.739  31.589   0.788
 6220W        W71381  13.593  16.189   0.115
 6221W        W71382  43.420  11.284  10.431
 6222W        W71383  23.513  34.867   4.247
 6223W        W71384  12.626  42.880  14.999
 6224W        W71385  31.152  41.799   3.728
 6225W        W71386  27.600  10.444  13.773
 6226W        W71387  30.817  13.784  10.906
 6227W        W71388  11.286  31.314  12.981
 6228W        W71389   9.737  21.236  13.308
 6229W        W71390  22.120  27.751  14.641
 6230W        W71391  31.527  41.926  12.414
 6231W        W71392   3.797  22.090  12.195
 6232W        W71393  43.904  16.855  11.864
 6233W        W71394  35.398  40.905   2.151
 6234W        W71395  24.831   9.717   0.504
 6235W        W71396   7.802  41.011  13.795
 6236W        W71397  40.894  14.638  12.095
 6237W        W71398  34.636   5.559  14.682
 6238W        W71399  25.260  16.110  13.217
 6239W        W71400  25.990  34.624   3.572
 6240W        W71401   3.005  10.225  13.575
 6241W        W71402  19.244  18.333   2.668
 6242W        W71403  30.212  23.219  14.991
 6243W        W71404  30.471  33.880  11.691
 6244W        W71405  28.175  37.261   4.429
 6245W        W71406  23.819   7.590  12.972
 6246W        W71407  28.987  36.158   0.543
 6247W        W71408  27.434  23.466  11.995
 6248W        W71409  40.863  18.134  13.471
 6249W        W71410  14.729  37.557  14.829
 6250W        W71411  41.804  28.327  12.655
 6251W        W71412   0.173   9.089  14.213
 6252W        W71413   3.084  17.042  12.836
 6253W        W71414  23.011   9.936  14.521
 6254W        W71415  31.247  32.161   5.322
 6255W        W71416  15.343   1.183   0.280
 6256W        W71417  13.573  18.265  11.093
 6257W        W71418  43.260  39.800   0.744
 6258W        W71419   3.397  28.628  14.746
 6259W        W71420   3.415  40.115  10.080
 6260W        W71421  42.300  31.638  14.365
 6261W        W71422  30.883  29.615  12.894
 6262W        W71423  27.857   6.929   2.785
 6263W        W71424  38.440  28.095  13.100
 6264W        W71425  13.944  20.117   0.172
 6265W        W71426  28.246  38.471   2.217
 6266W        W71427  10.753  11.529   2.311
 6267W        W71428   9.646  32.518   2.056
 6268W        W71429  35.460  23.676   1.002
 6269W        W71430  19.753   2.309   4.100
 6270W        W71431  19.752  24.826   2.973
 6271W        W71432  28.613  14.431  13.765
 6272W        W71433  28.927  18.751  11.544
 6273W        W71434  17.382  35.567  14.420
 6274W        W71435  30.004  39.294   3.367
 6275W        W71436   8.524  16.328  14.840
 6276W        W71437  16.633  18.972  12.219
 6277W        W71438   6.669   4.687  14.425
 6278W        W71439  29.148   5.830   4.873
 6279W        W71440  38.838   1.618  12.452
 6280W        W71441  25.106  15.422  14.383
 6281W        W71442  35.853  13.626   3.185
 6282W        W71443  30.102  39.859  10.554
 6283W        W71444  27.436   4.822  13.861
 6284W        W71445   2.503  14.114   4.416
 6285W        W71446   7.843  31.075  10.980
 6286W        W71447   7.884   9.156   2.171
 6287W        W71448  36.728   4.171   2.648
 6288W        W71449  27.114  19.938   2.386
 6289W        W71450  23.811  38.992   0.476
 6290W        W71451  37.591  20.743   3.577
 6291W        W71452  42.599  12.589  14.129
 6292W        W71453  25.393  36.927  11.520
 6293W        W71454  29.593  18.696   2.666
 6294W        W71455  16.494  32.493  13.851
 6295W        W71456   0.021  44.878  14.848
 6296W        W71457   2.300   5.608  14.197
 6297W        W71458  39.299   6.946  11.685
 6298W        W71459  39.584  42.095  11.527
 6299W        W71460  27.021  23.406   4.523
 6300W        W71461  39.448  33.335  12.929
 6301W        W71462   7.295  39.928  11.638
 6302W        W71463  21.502  12.207   3.111
 6303W        W71464  15.538  25.626   0.939
 6304W        W71465  37.175   1.991   1.275
 6305W        W71466   2.689  15.579  14.834
 6306W        W71467  20.158   3.213   0.496
 6307W        W71468  30.275  41.003   5.573
 6308W        W71469  18.226  17.787   1.114
 6309W        W71470  24.995  37.286   1.746
 6310W        W71471   7.260   2.256   0.157
 6311W        W71472  41.938  27.679  14.333
 6312W        W71473  41.016   8.881   2.064
 6313W        W71474  15.106   1.692  11.159
 6314W        W71475  22.594  13.946   0.899
 6315W        W71476  27.063   9.219  12.424
 6316W        W71477  24.071  14.065  14.813
 6317W        W71478   2.098  32.221   4.995
 6318W        W71479   6.698   9.858  10.683
 6319W        W71480   1.246  28.255  13.937
 6320W        W71481  35.319  17.116   2.328
 6321W        W71482   8.378  10.331  10.570
 6322W        W71483   3.297  15.273   0.468
 6323W        W71484  41.325  22.998   2.228
 6324W        W71485   7.728  27.075   1.796
 6325W        W71486  29.611  15.742  10.397
 6326W        W71487  32.534  24.967   1.707
 6327W        W71488  14.791  36.111   1.940
 6328W        W71489   7.230   1.858  14.785
 6329W        W71490  42.321  25.785   2.190
 6330W        W71491  15.033   9.201  12.135
 6331W        W71492  40.100  20.595  13.429
 6332W        W71493   7.096   0.673  13.533
 6333W        W71494  10.613  37.818   0.385
 6334W        W71495  27.024   8.814   1.689
 6335W        W71496  23.615  44.400  13.393
 6336W        W71497  21.972  30.214  14.466
 6337W        W71498  35.439  17.269  12.485
 6338W        W71499   1.927  30.929  14.233
 6339W        W71500  43.886  23.408  13.358
 6340W        W71501  32.024  14.523   0.836
 6341W        W71502  22.320   8.251   1.303
 6342W        W71503  29.781  35.975  10.920
 6343W        W71504  37.823  23.325   4.118
 6344W        W71505  19.304  33.023  11.693
 6345W        W71506  41.896   5.321  12.417
 6346W        W71507  21.058  23.257   1.068
 6347W        W71508  43.273  19.824  14.249
 6348W        W71509   2.814  16.220  13.505
 6349W        W71510  41.471  16.276  11.951
 6350W        W71511  20.546  17.919   0.320
 6351W        W71512   7.576   1.989  13.444
 6352W        W71513  19.463  29.599   0.955
 6353W        W71514  44.896  20.286   4.563
 6354W        W71515  44.357  38.318   3.104
 6355W        W71516   3.329  30.676   4.105
 6356W        W71517  25.803  17.864  10.811
 6357W        W71518  28.833  37.947  14.857
 6358W        W71519  41.921  40.352   3.653
 6359W        W71520  14.629  12.062  12.924
 6360W        W71521  28.952   9.845  14.376
 6361W        W71522   0.816  19.284  12.062
 6362W        W71523  23.537  22.115   3.094
 6363W        W71524   9.889  30.934   3.221
 6364W        W71525   8.351  13.224   2.210
 6365W        W71526  28.023  29.222  12.038
 6366W        W71527  18.680  36.042  11.656
 6367W        W71528  13.164  13.664  13.188
 6368W        W71529  30.840  25.473  14.536
 6369W        W71530  35.768   1.257   3.010
 6370W        W71531  15.086   0.997  12.505
 6371W        W71532  10.121  24.956  10.692
 6372W        W71533   3.482  27.331  11.226
 6373W        W71534   5.048   7.808   1.692
 6374W        W71535  29.470  19.264  12.093
 6375W        W71536  29.366  44.161  11.092
 6376W        W71537   2.149  32.657  11.161
 6377W        W71538  35.032   3.455   4.058
 6378W        W71539  42.009  42.120   0.048
 6379W        W71540  12.926  28.051  12.024
 6380W        W71541  30.762  18.482   5.028
 6381W        W71542  29.554  43.320  12.624
 6382W        W71543  19.776  38.816  12.045
 6383W        W71544   3.456  36.154  12.979
 6384W        W71545   9.993  18.782  14.824
 6385W        W71546  29.919  21.532   0.866
 6386W        W71547   9.689  14.765  13.585
 6387W        W71548  43.596  44.007   3.515
 6388W        W71549  10.869  30.963   1.040
 6389W        W71550   2.621  32.769   2.238
 6390W        W71551  38.124  23.092   2.222
 6391W        W71552  24.905  29.978  14.347
 6392W        W71553  38.994  30.933   2.391
 6393W        W71554  30.934   2.858  14.765
 6394W        W71555  22.265  31.407   0.511
 6395W        W71556  28.980   7.340  11.516
 6396W        W71557  42.013  12.626  11.174
 6397W        W71558  22.145  40.180   5.132
 6398W        W71559  14.835  22.724  11.688
 6399W        W71560   4.650  13.364   4.503
 6400W        W71561  30.795  42.273   3.289
 6401W        W71562  25.589  41.698  12.669
 6402W        W71563  28.708  33.582   3.256
 6403W        W71564  33.630  21.843   3.434
 6404W        W71565  17.262  21.104  13.852
 6405W        W71566  26.622  11.403  14.994
 6406W        W71567   1.276  13.700  12.178
 6407W        W71568  17.685   3.834  11.817
 6408W        W71569  22.662  32.181  13.439
 6409W        W71570  44.451  36.315   4.156
 6410W        W71571  11.380  28.226  11.641
 6411W        W71572  38.273  10.840  13.898
 6412W        W71573   1.029  21.532  13.645
 6413W        W71574  43.680  41.984  12.453
 6414W        W71575   5.365  34.535   4.132
 6415W        W71576  38.430   0.761   3.937
 6416W        W71577  30.495  20.582  11.909
 6417W        W71578  40.784  23.455  13.141
 6418W        W71579  33.423  44.937  12.230
 6419W        W71580  18.164  44.113  12.547
 6420W        W71581  19.733  44.120  11.551
 6421W        W71582  18.586   8.195  14.432
 6422W        W71583   9.984  36.060   3.350
 6423W        W71584  31.452   9.320   4.953
 6424W        W71585  35.127  29.708  11.975
 6425W        W71586  40.779  27.450   1.324
 6426W        W71587  28.123  12.839  13.375
 6427W        W71588  15.595  27.555   2.938
 6428W        W71589   5.264  14.246  12.404
 6429W        W71590  34.765  22.353  12.486
 6430W        W71591  23.775  14.437  14.557
 6431W        W71592   0.057  14.384  12.145
 6432W        W71593  22.252  38.678  11.904
 6433W        W71594  39.477  44.360  11.295
 6434W        W71595  28.911  23.165  10.957
 6435W        W71596  15.175  26.732  10.929
 6436W        W71597  26.652  12.715   1.913
 6437W        W71598  23.046  25.770   3.770
 6438W        W71599  16.083  34.918   1.147
 6439W        W71600  20.303   5.865  13.452
 6440W        W71601  22.229  34.049  14.303
 6441W        W71602  12.620   1.165   4.152
 6442W        W71603  36.326   5.011   2.617
 6443W        W71604  10.684  16.836  14.538
 6444W        W71605   4.293  13.507  10.750
 6445W        W71606   7.968   6.305  14.458
 6446W        W71607  26.836  12.112  13.247
 6447W        W71608   9.950  27.107  12.461
 6448W        W71609  29.987  21.942  13.059
 6449W        W71610  12.419  12.159   4.272
 6450W        W71611  24.288  10.457  10.313
 6451W        W71612  24.426  28.721  13.946
 6452W        W71613  22.517  27.156   0.842
 6453W        W71614   4.661   8.000   2.004
 6454W        W71615  41.319   3.913  12.926
 6455W        W71616  17.566  37.895   1.151
 6456W        W71617  33.954   4.456   2.856
 6457W        W71618  41.272   3.352   0.937
 6458W        W71619  18.673  18.044  13.911
 6459W        W71620  36.563  44.769  13.430
 6460W        W71621  24.788  22.190   2.610
 6461W        W71622   3.605   9.121   2.371
 6462W        W71623  10.450  11.679   0.821
 6463W        W71624  20.425   7.760  13.785
 6464W        W71625  28.666   7.919  14.402
 6465W        W71626  24.225  33.588  12.508
 6466W        W71627  38.552   4.913   1.957
 6467W        W71628  30.995   9.331   1.638
 6468W        W71629   7.898  26.956   2.658
 6469W        W71630  13.602   9.853   4.594
 6470W        W71631  29.842  35.527   2.798
 6471W        W71632  26.666  20.063   0.258
 6472W        W71633  19.493  29.885  12.527
 6473W        W71634  16.961  42.018  10.135
 6474W        W71635  40.837   4.146  11.875
 6475W        W71636  20.599   7.279  11.109
 6476W        W71637  24.589  10.908   2.288
 6477W        W71638   3.362   9.141   4.726
 6478W        W71639  20.193  35.001   0.444
 6479W        W71640  10.788  11.318   1.009
 6480W        W71641  17.518   2.292   3.085
 6481W        W71642  36.011  10.737  11.729
 6482W        W71643  11.341  23.199  12.820
 6483W        W71644   8.648   2.968   3.790
 6484W        W71645   3.034  14.468  13.020
 6485W        W71646  13.258   1.902   4.260
 6486W        W71647   3.714   8.904  14.949
 6487W        W71648  14.449  18.773  14.947
 6488W        W71649  17.322   5.757   3.955
 6489W        W71650   1.481  29.615   2.776
 6490W        W71651  24.321  44.966  13.457
 6491W        W71652   4.153  31.420   0.520
 6492W        W71653  42.980  32.104  13.002
 6493W        W71654  23.408  27.297  10.804
 6494W        W71655  38.027  43.576  11.382
 6495W        W71656  43.443  34.892   3.576
 6496W        W71657   3.771  15.221   0.930
 6497W        W71658   1.112  37.712  11.215
 6498W        W71659  34.387  25.633   0.277
 6499W        W71660   2.188  27.237   2.426
 6500W        W71661  26.060  12.761   0.798
 6501W        W71662   9.421  44.190  14.511
 6502W        W71663  34.061  36.745  14.579
 6503W        W71664   3.220  23.605  12.625
 6504W        W71665  14.352  24.191   2.020
 6505W        W71666  12.199  43.824  12.873
 6506W        W71667  14.415   5.162  13.116
 6507W        W71668   1.719  26.741  14.878
 6508W        W71669  27.527  35.429   4.969
 6509W        W71670   0.379  33.996  12.162
 6510W        W71671  41.724  19.515  13.468
 6511W        W71672   2.870  19.310  14.002
 6512W        W71673  10.722  24.643   4.189
 6513W        W71674  37.464  19.725  14.451
 6514W        W71675  10.141  31.521  10.734
 6515W        W71676  38.118  34.508   1.237
 6516W        W71677  21.322  14.557  12.799
 6517W        W71678  36.915   6.520  11.569
 6518W        W71679   8.134  11.876  12.996
 6519W        W71680  31.827  37.455   0.558
 6520W        W71681   0.319   6.386  10.674
 6521W        W71682   5.400  24.399  13.912
 6522W        W71683  40.233  44.534   4.880
 6523W        W71684   9.733   7.098  10.490
 6524W        W71685  11.124  30.134   2.666
 6525W        W71686  16.420  11.270   0.895
 6526W        W71687  41.594  27.106  11.347
 6527W        W71688  41.443  16.751   1.150
 6528W        W71689  14.573  29.974  14.503
 6529W        W71690  17.108  32.494   4.852
 6530W        W71691  13.126  12.289  13.687
 6531W        W71692   4.825  36.560   2.333
 6532W        W71693  33.580   9.861   0.322
 6533W        W71694  32.855  36.034   4.119
 6534W        W71695  10.440  13.177  12.908
 6535W        W71696  34.642  35.010  11.098
 6536W        W71697  35.057  28.551  13.863
 6537W        W71698  21.012  30.351   0.426
 6538W        W71699  17.073  26.573   3.698
 6539W        W71700  30.147  38.924   4.684
 6540W        W71701  29.360  26.663  14.347
 6541W        W71702  40.455   1.163  10.801
 6542W        W71703  36.915  13.976   4.542
 6543W        W71704  23.528  39.269   4.710
 6544W        W71705  14.579  21.080  13.482
 6545W        W71706  15.749   9.813   0.857
 6546W        W71707  23.718   6.841  13.903
 6547W        W71708  43.690   2.441  13.301
 6548W        W71709  34.955  10.572   3.751
 6549W        W71710  39.397  33.823  13.087
 6550W        W71711   4.220  23.441  10.946
 6551W        W71712  28.511   9.343   3.511
 6552W        W71713  22.215  24.672   2.262
 6553W        W71714  44.689  39.084  10.278
 6554W        W71715  34.420   3.702  14.286
 6555W        W71716  11.087  36.000   2.389
 6556W        W71717   7.508  41.686  11.667
 6557W        W71718  13.972   6.688  14.152
 6558W        W71719  14.814  43.471   0.237
 6559W        W71720  37.721   0.427   1.780
 6560W        W71721  12.382   4.273  12.071
 6561W        W71722  24.248  12.250  12.844
 6562W        W71723  13.173  35.905   0.361
 6563W        W71724  18.191  23.729   1.194
 6564W        W71725  39.638  34.517   1.519
 6565W        W71726  37.418  22.482  12.494
 6566W        W71727  42.044   8.260   3.507
 6567W        W71728  12.944   2.141   2.288
 6568W        W71729  19.595  21.946   1.907
 6569W        W71730   2.381  32.394  11.546
 6570W        W71731   8.536  26.802  11.183
 6571W        W71732   0.956  44.566  11.604
 6572W        W71733  13.128  16.898   4.614
 6573W        W71734   8.403  35.566   4.871
 6574W        W71735  38.030  25.176  12.489
 6575W        W71736  13.611  40.678  13.104
 6576W        W71737  33.473  20.171  11.526
 6577W        W71738  21.465  38.583   0.298
 6578W        W71739  13.668  28.140  12.901
 6579W        W71740   8.846   6.825  13.715
 6580W        W71741  12.490  26.642  14.237
 6581W        W71742  44.200  34.467   1.697
 6582W        W71743   4.736  29.092  11.237
 6583W        W71744  39.646  41.718  12.967
 6584W        W71745  26.533  35.355   2.409
 6585W        W71746  26.907   5.927  14.344
 6586W        W71747  21.187  34.511  13.904
 6587W        W71748  24.533   1.178   0.858
 6588W        W71749  27.676  17.108   3.883
 6589W        W71750   0.167  21.084   0.833
 6590W        W71751  27.606  32.174   3.360
 6591W        W71752  38.301  38.010  13.358
 6592W        W71753  31.937  43.078  11.038
 6593W        W71754  32.721  33.064   1.688
 6594W        W71755  42.733  15.753  13.033
 6595W        W71756  39.521  27.359  13.332
 6596W        W71757  31.588  26.230   3.264
 6597W        W71758  21.576  41.984  11.915
 6598W        W71759  42.010  39.843  11.443
 6599W        W71760  26.384  20.608  12.210
 6600W        W71761  18.874  21.811  11.624
 6601W        W71762  39.626  22.721  11.394
 6602W        W71763  13.338  12.056   4.892
 6603W        W71764  11.788  28.150   3.210
 6604W        W71765  38.524   3.906  13.886
 6605W        W71766  27.284   7.421   2.121
 6606W        W71767  25.260  31.171   1.376
 6607W        W71768  18.030  11.626  10.451
 6608W        W71769   7.251  44.855   0.371
 6609W        W71770  36.616  42.533  14.371
 6610W        W71771  25.474  44.560   2.601
 6611W        W71772  11.550  18.759  13.810
 6612W        W71773   0.782  14.286   0.179
 6613W        W71774  28.442  33.848   4.593
 6614W        W71775  37.796  30.447  12.930
 6615W        W71776   3.187  13.967  13.054
 6616W        W71777  30.085  29.147  13.880
 6617W        W71778  34.287  43.403  14.871
 6618W        W71779  15.333  34.851   2.849
 6619W        W71780   8.754  38.293  13.923
 6620W        W71781  34.094   1.636  11.369
 6621W        W71782  38.926   0.790  13.865
 6622W        W71783  43.976  33.571   3.786
 6623W        W71784  34.929  32.018  14.198
 6624W        W71785  25.807  40.342  12.422
 6625W        W71786   1.288   7.909   1.057
 6626W        W71787  12.086  18.137   0.846
 6627W        W71788   7.317  32.248  10.353
 6628W        W71789   5.814  15.083   0.967
 6629W        W71790  22.687  26.612  10.721
 6630W        W71791  13.081  35.942  12.418
 6631W        W71792  34.526   1.496  11.970
 6632W        W71793  43.109   9.391  14.511
 6633W        W71794  24.947  33.678   2.570
 6634W        W71795  13.728  36.483   1.525
 6635W        W71796  13.309   9.060  11.568
 6636W        W71797  19.903  28.151  12.453
 6637W        W71798   5.372  44.510   2.739
 6638W        W71799  13.627  31.368  10.602
 6639W        W71800  19.049  12.790   1.308
 6640W        W71801  10.803  32.621   1.331
 6641W        W71802  30.716   7.289  14.850
 6642W        W71803  32.403  19.743   1.359
 6643W        W71804  38.047  37.113  12.450
 6644W        W71805  38.917  28.518   4.238
 6645W        W71806   8.364  19.637  13.396
 6646W        W71807   0.133  19.265   0.554
 6647W        W71808  36.245  20.497   5.052
 6648W        W71809  25.754   1.432   0.389
 6649W        W71810  10.848   7.870   3.924
 6650W        W71811  19.704  24.443   2.334
 6651W        W71812  35.625  34.454   2.874
 6652W        W71813  36.269  30.020  10.720
 6653W        W71814  32.704  43.528   1.762
 6654W        W71815   1.785  13.109  12.515
 6655W        W71816  16.034  35.857  11.390
 6656W        W71817  32.190   4.518  11.919
 6657W        W71818  35.494  26.218   1.266
 6658W        W71819  36.532  22.269   2.663
 6659W        W71820   7.183  38.950   1.230
 6660W        W71821  26.942  20.704   1.350
 6661W        W71822  12.996   8.186  13.312
 6662W        W71823  34.530  43.756   2.779
 6663W        W71824   4.674  19.028   2.468
 6664W        W71825   2.399   0.891  13.101
 6665W        W71826  38.757  17.266  14.847
 6666W        W71827  17.064   4.729   1.356
 6667W        W71828  40.521  16.875  14.819
 6668W        W71829   0.269   1.346   0.799
 6669W        W71830   5.510  26.319  12.555
 6670W        W71831  32.060  16.627  13.303
 6671W        W71832   0.437  36.914  13.759
 6672W        W71833  12.610  20.433   1.042
 6673W        W71834  41.078   4.279  10.712
 6674W        W71835  36.991  25.281   1.312
 6675W        W71836  42.826   3.130  14.416
 6676W        W71837   6.530   1.348  14.986
 6677W        W71838  16.220   2.501  14.743
 6678W        W71839  20.751  36.354  13.773
 6679W        W71840  23.395  20.031   3.209
 6680W        W71841  40.994  21.094   1.047
 6681W        W71842  28.595  15.744  14.878
 6682W        W71843  30.990  30.678   1.684
 6683W        W71844  44.459  20.815  12.170
 6684W        W71845  28.052   3.001  10.708
 6685W        W71846  31.996  33.997  13.881
 6686W        W71847   3.479  29.420   3.678
 6687W        W71848  14.269  21.273  12.588
 6688W        W71849  40.785  19.550   4.241
 6689W        W71850  14.102  11.836  14.410
 6690W        W71851   1.388  11.592  10.312
 6691W        W71852  13.581  40.776   4.246
 6692W        W71853  26.632   3.227  14.242
 6693W        W71854  36.625  36.038  10.818
 6694W        W71855  39.479  25.492  14.816
 6695W        W71856  43.082  15.090  11.071
 6696W        W71857  38.521  43.764  13.374
 6697W        W71858  28.709  13.157   0.861
 6698W        W71859   0.417  13.828   0.912
 6699W        W71860  11.115   2.955  11.372
 6700W        W71861  41.489   1.953   0.533
 6701W        W71862  36.315   1.772  14.190
 6702W        W71863   8.632  31.218   3.909
 6703W        W71864  27.585   6.505  10.508
 6704W        W71865  18.249  27.777  13.021
 6705W        W71866  11.614  25.334   1.540
 6706W        W71867  44.370  38.618   2.648
 6707W        W71868   6.680  29.665   4.136
 6708W        W71869  34.098  22.089  13.932
 6709W        W71870  10.680  23.604  13.566
 6710W        W71871  43.905  12.189   2.640
 6711W        W71872  16.794  24.618  11.356
 6712W        W71873  14.112   5.337   4.108
 6713W        W71874   1.266  10.776  12.066
 6714W        W71875  14.807  24.016   1.286
 6715W        W71876  15.536   9.979   2.373
 6716W        W71877  31.575  23.995  13.521
 6717W        W71878  26.500  13.403   1.328
 6718W        W71879  28.886  42.230  11.908
 6719W        W71880  16.488  28.904  11.472
 6720W        W71881  38.619  20.263  10.988
 6721W        W71882  16.798   8.881   2.618
 6722W        W71883  31.000  33.611  10.627
 6723W        W71884  30.858  33.125   1.839
 6724W        W71885  37.534  30.009   4.573
 6725W        W71886  31.996  37.421   3.459
 6726W        W71887  42.338  19.669   3.617
 6727W        W71888  39.221  39.392  10.346
 6728W        W71889  31.576  15.320   0.943
 6729W        W71890  31.103  38.548  11.123
 6730W        W71891   4.129  22.075  13.361
 6731W        W71892  43.406  24.931  12.185
 6732W        W71893   1.010   1.971  14.796
 6733W        W71894  36.005  40.123   3.931
 6734W        W71895  21.748  26.391  13.515
 6735W        W71896  32.932  22.267   4.629
 6736W        W71897   9.310   3.607  12.235
 6737W        W71898  17.789  24.044  12.949
 6738W        W71899  23.527  41.295   2.371
 6739W        W71900  23.685   7.303  12.220
 6740W        W71901  35.289   6.498  10.814
 6741W        W71902  39.375  13.577  14.251
 6742W        W71903  27.436  15.175  14.799
 6743W        W71904   1.603  17.674  14.000
 6744W        W71905  19.973  39.606  11.488
 6745W        W71906  35.292  34.546   2.434
 6746W        W71907  11.946  24.400   4.196
 6747W        W71908   6.882  16.580   3.764
 6748W        W71909  33.506  30.976  11.667
 6749W        W71910  16.075  17.126  12.394
 6750W        W71911  42.402  35.409   5.601
 6751W        W71912  29.335   5.809   0.490
 6752W        W71913  30.778   2.773   1.375
 6753W        W71914   6.955   1.270  11.568
 6754W        W71915  13.737  14.650  14.859
 6755W        W71916  42.412  12.463   1.663
 6756W        W71917  30.666  24.650   4.865
 6757W        W71918  21.181  17.103   0.370
 6758W        W71919  37.114  17.653  12.504
 6759W        W71920  28.437  41.529  10.150
 6760W        W71921  26.519  11.135   3.363
 6761W        W71922  25.532  33.613  13.624
 6762W        W71923  15.205  11.338  13.824
 6763W        W71924  11.284  10.063  12.843
 6764W        W71925  34.076  18.168  10.642
 6765W        W71926  11.839  24.879  14.354
 6766W        W71927  30.172  42.972  13.491
 6767W        W71928  38.803  12.718   0.337
 6768W        W71929  14.700  30.746   1.221
 6769W        W71930  37.326  35.861   4.606
 6770W        W71931  24.190  10.859   0.377
 6771W        W71932   1.319  25.523  10.511
 6772W        W71933  24.232  32.511  11.935
 6773W        W71934  15.770  31.130   1.152
 6774W        W71935  39.495   0.488   2.825
 6775W        W71936   0.510   9.793  10.619
 6776W        W71937  24.249  34.096  13.552
 6777W        W71938  29.494  25.137   4.522
 6778W        W71939  23.500   9.585  11.907
 6779W        W71940   7.296  22.705   0.450
 6780W        W71941  29.071  25.591  13.886
 6781W        W71942   7.888  18.673   0.356
 6782W        W71943  41.592  20.403  11.136
 6783W        W71944  22.218   3.212  11.125
 6784W        W71945  23.570  14.296   0.900
 6785W        W71946  12.726  41.318  13.064
 6786W        W71947  19.647  14.306   1.141
 6787W        W71948  40.830   7.743   3.734
 6788W        W71949  22.043  10.197   4.516
 6789W        W71950  30.113  28.431   0.279
 6790W        W71951  20.514  33.744   1.181
 6791W        W71952  17.574  29.185   0.340
 6792W        W71953  18.724   8.098   4.114
 6793W        W71954  15.299  40.624   0.343
 6794W        W71955  12.148  20.646  10.574
 6795W        W71956  21.053  20.972  13.887
 6796W        W71957  20.150  35.369   1.769
 6797W        W71958  40.864   4.628   2.022
 6798W        W71959   0.427  41.026  13.762
 6799W        W71960   6.134  35.822  13.875
 6800W        W71961  30.619  33.422   3.441
 6801W        W71962  32.573   0.421  12.482
 6802W        W71963  40.020  21.132  13.420
 6803W        W71964  24.170  42.937   0.421
 6804W        W71965   8.405  39.639   4.343
 6805W        W71966  18.866  32.804   0.928
 6806W        W71967  18.840   7.453  11.751
 6807W        W71968  10.244  20.877   4.654
 6808W        W71969  20.995  33.564   1.284
 6809W        W71970  43.578  41.233   1.910
 6810W        W71971  32.346  16.087  12.578
 6811W        W71972  40.735  10.366   2.897
 6812W        W71973   7.460   0.276   1.801
 6813W        W71974  27.424  16.834  12.503
 6814W        W71975   1.923  12.554   3.579
 6815W        W71976   6.686  43.573   0.419
 6816W        W71977  37.606  38.113  10.573
 6817W        W71978   8.380  40.924   4.124
 6818W        W71979  39.498  40.303  11.074
 6819W        W71980   7.774   1.082   0.236
 6820W        W71981  11.232  36.437   3.694
 6821W        W71982  39.562  16.141   2.717
 6822W        W71983  27.600  11.827  13.498
 6823W        W71984  23.829  13.277   4.546
 6824W        W71985  41.920  32.958  10.656
 6825W        W71986   7.745  44.128  14.707
 6826W        W71987   0.151  31.399   2.245
 6827W        W71988  26.614  18.540   4.257
 6828W        W71989  23.531  12.199   3.925
 6829W        W71990   2.443  33.546   4.592
 6830W        W71991  21.834  35.522  11.267
 6831W        W71992   2.774   1.276  12.154
 6832W        W71993   5.313  40.410  14.785
 6833W        W71994  31.471   8.477  10.933
 6834W        W71995   7.251  16.246  14.014
 6835W        W71996  13.765  26.877  12.580
 6836W        W71997  30.988  36.567  10.780
 6837W        W71998  10.646  33.458   4.106
 6838W        W71999  28.503  21.002  14.410
 6839W        W72000  29.125  15.847   1.926
 6840W        W72001   3.351  21.007  14.704
 6841W        W72002  37.461  44.515  12.010
 6842W        W72003  36.911  12.768   4.373
 6843W        W72004   3.581  18.459  12.064
 6844W        W72005  28.423  20.802  10.719
 6845W        W72006  41.775  36.668  10.512
 6846W        W72007  23.812  37.495  14.794
 6847W        W72008  36.974  23.037   0.081
 6848W        W72009  23.035  18.150  11.219
 6849W        W72010  19.247  11.853   0.421
 6850W        W72011   3.668  30.557  13.884
 6851W        W72012  33.122   8.834   1.374
 6852W        W72013  17.616  32.568   1.086
 6853W        W72014  31.048  39.861  10.668
 6854W        W72015  31.136   4.608   2.242
 6855W        W72016  22.954  37.926   5.053
 6856W        W72017  44.739  40.021   3.771
 6857W        W72018  10.647  44.639  14.786
 6858W        W72019  42.858   1.877   2.735
 6859W        W72020   3.776  16.191   4.591
 6860W        W72021   3.130   8.343  13.937
 6861W        W72022  38.085  37.021  11.125
 6862W        W72023   5.883   7.596  12.880
 6863W        W72024  36.369  39.761   1.278
 6864W        W72025  21.122  42.892  13.967
 6865W        W72026  13.014  21.212   3.207
 6866W        W72027   9.445  13.687  12.461
 6867W        W72028  26.635  34.880  14.944
 6868W        W72029  35.764  26.494  13.406
 6869W        W72030  19.047   7.554  13.944
 6870W        W72031  39.578  31.851  14.972
 6871W        W72032  16.381  10.742   3.676
 6872W        W72033  42.500  36.865  14.137
 6873W        W72034  14.221   8.654   0.794
 6874W        W72035  23.216   3.539  13.113
 6875W        W72036  32.121  19.004   1.215
 6876W        W72037  13.625  42.358   5.304
 6877W        W72038   7.682  21.151   3.690
 6878W        W72039  25.099  19.303  12.368
 6879W        W72040  33.944  26.951   1.319
 6880W        W72041  42.700  22.581   4.235
 6881W        W72042   1.946  20.217   0.786
 6882W        W72043   5.824  18.820   2.892
 6883W        W72044  31.019  23.277   2.316
 6884W        W72045  34.501  12.431  14.535
 6885W        W72046  18.635  20.765   3.621
 6886W        W72047   9.324   1.271   2.736
 6887W        W72048  34.593  10.645  12.462
 6888W        W72049  34.228  36.982  10.656
 6889W        W72050   0.748  27.456   3.271
 6890W        W72051  38.807  13.101   1.921
 6891W        W72052  44.037  22.099  14.629
 6892W        W72053   8.412  27.039  12.564
 6893W        W72054  26.955   8.934  13.969
 6894W        W72055   1.493  24.651  10.984
 6895W        W72056  40.295   5.571   0.876
 6896W        W72057  30.570  16.631   1.383
 6897W        W72058  17.257   0.085   9.632
 6898W        W72059  35.910   5.955  10.762
 6899W        W72060  12.594  19.329  10.797
 6900W        W72061  30.749  28.280  12.020
 6901W        W72062  19.750  35.065   0.692
 6902W        W72063  26.141   9.721  12.891
 6903W        W72064  44.060   7.236   3.216
 6904W        W72065  27.541   9.204  13.705
 6905W        W72066  18.310  40.213   2.777
 6906W        W72067  18.372  42.844   0.021
 6907W        W72068  11.715  31.006   1.730
 6908W        W72069  35.581   6.916  10.802
 6909W        W72070  14.594  30.489   1.819
 6910W        W72071  13.195  19.640  10.685
 6911W        W72072   5.292  21.205   3.429
 6912W        W72073  36.850   2.150  11.195
 6913W        W72074  40.509  14.053   1.871
 6914W        W72075  17.279   8.932   2.791
 6915W        W72076  33.646  39.268  12.667
 6916W        W72077  34.072   1.929   1.978
 6917W        W72078   1.576  25.299  13.098
 6918W        W72079  38.367  28.504  14.863
 6919W        W72080  13.171   0.169  10.699
 6920W        W72081  23.936  11.555   1.218
 6921W        W72082  20.850   0.562   4.755
 6922W        W72083   5.814  43.405   2.739
 6923W        W72084  23.939  26.662  12.427
 6924W        W72085   7.932   0.080   1.843
 6925W        W72086   8.312  19.273   4.271
 6926W        W72087  40.817   9.510  11.627
 6927W        W72088  36.922  31.104  11.620
 6928W        W72089  26.070  29.967  13.511
 6929W        W72090  28.330  30.828   1.335
 6930W        W72091   6.529   5.452  11.040
 6931W        W72092  14.641   4.772  12.828
 6932W        W72093   0.855  11.932  10.336
 6933W        W72094  27.009   6.279   2.382
 6934W        W72095  33.676   0.439  10.223
 6935W        W72096  41.474  12.870   4.597
 6936W        W72097  35.549  15.602   3.274
 6937W        W72098  43.749  43.844   0.795
 6938W        W72099  33.074   0.739   3.588
 6939W        W72100  27.632  41.063   3.667
 6940W        W72101  35.892   0.011   4.108
 6941W        W72102  19.736   9.269   0.617
 6942W        W72103  23.952  29.652  12.064
 6943W        W72104  44.086  28.587   1.667
 6944W        W72105  13.043  43.308   3.186
 6945W        W72106  12.160  26.171   2.700
 6946W        W72107  21.200   6.660  14.741
 6947W        W72108  26.746  14.776   4.174
 6948W        W72109  27.589  25.432   0.718
 6949W        W72110  40.317  13.742  13.971
 6950W        W72111  23.656  33.313   0.713
 6951W        W72112  32.168  17.630  11.516
 6952W        W72113  35.295  15.470  13.476
 6953W        W72114   8.207   7.298   4.550
 6954W        W72115  19.811  30.848   4.656
 6955W        W72116  21.148  31.106  13.861
 6956W        W72117   1.365  12.386  14.476
 6957W        W72118  31.921   8.766  13.420
 6958W        W72119  41.372  17.324  10.538
 6959W        W72120  21.033  37.859   3.119
 6960W        W72121   0.300   3.364  13.416
 6961W        W72122  13.857  24.628  10.649
 6962W        W72123  24.027   9.288   4.451
 6963W        W72124  24.485   3.417   3.324
 6964W        W72125   5.974  22.106   1.878
 6965W        W72126   9.374  12.658  10.783
 6966W        W72127  20.141  11.871  12.357
 6967W        W72128   7.442   3.478   1.827
 6968W        W72129   7.923  19.814  11.228
 6969W        W72130   0.383   8.508   4.656
 6970W        W72131  35.904  18.051   3.236
 6971W        W72132   9.852  26.000   4.717
 6972W        W72133  10.630  15.979  12.861
 6973W        W72134  26.804  33.368   1.745
 6974W        W72135  11.359   6.880   4.119
 6975W        W72136   4.765   1.067   2.228
 6976W        W72137   6.052  33.515  12.024
 6977W        W72138   1.487   6.195  10.633
 6978W        W72139  25.023   8.701  14.540
 6979W        W72140  28.311  44.869   3.240
 6980W        W72141  14.272   5.945  13.014
 6981W        W72142  23.641   6.633   3.991
 6982W        W72143  35.340  43.938  12.422
 6983W        W72144  22.431  13.839  13.291
 6984W        W72145  15.835   2.827  10.865
 6985W        W72146   2.265  19.778   0.226
 6986W        W72147  40.939  23.834   2.406
 6987W        W72148  23.266  19.927   2.267
 6988W        W72149  43.581  40.673   9.531
 6989W        W72150  30.998  13.411   3.185
 6990W        W72151  25.920  10.252  11.448
 6991W        W72152   5.926   4.655  14.010
 6992W        W72153  36.544  41.231  11.447
 6993W        W72154  31.293  22.163  12.507
 6994W        W72155  16.331  22.241  13.524
 6995W        W72156   1.513  12.564  10.675
 6996W        W72157  25.318  41.561  13.704
 6997W        W72158  28.827   9.869   3.595
 6998W        W72159  16.127  25.244   4.162
 6999W        W72160  18.270   8.336   4.233
 7000W        W72161  15.136  11.366   3.306
 7001W        W72162   8.260  39.595  13.457
 7002W        W72163  12.821  14.871   2.231
 7003W        W72164  43.924  29.916  11.137
 7004W        W72165  38.114   0.649   3.159
 7005W        W72166  41.003  31.049  14.427
 7006W        W72167  22.578  16.247  13.981
 7007W        W72168   1.724  22.148   2.713
 7008W        W72169  38.394   2.858   3.214
 7009W        W72170  40.036   6.327  12.032
 7010W        W72171  22.720  34.038   1.245
 7011W        W72172  27.116  43.917  10.839
 7012W        W72173  39.964   3.820  11.968
 7013W        W72174  36.935  28.482   0.434
 7014W        W72175   9.313  36.954   4.485
 7015W        W72176   8.598  20.285  12.749
 7016W        W72177  34.956  40.741   1.825
 7017W        W72178  39.487  18.396   1.842
 7018W        W72179  41.381  29.159   1.271
 7019W        W72180   9.916   3.673  11.622
 7020W        W72181  29.371   3.281   3.177
 7021W        W72182  24.005  31.048   1.906
 7022W        W72183  40.974   0.357  12.329
 7023W        W72184  18.384  37.016  12.089
 7024W        W72185  43.859  23.814  10.805
 7025W        W72186  11.454  42.445  11.802
 7026W        W72187   4.773  10.188   0.873
 7027W        W72188  44.837  43.921  10.542
 7028W        W72189   5.322  15.882  12.969
 7029W        W72190  36.809  25.176  14.365
 7030W        W72191   6.261   1.337   3.671
 7031W        W72192  32.628  11.887   2.854
 7032W        W72193  40.450  22.819   2.706
 7033W        W72194   9.005  21.441  12.118
 7034W        W72195  11.198  29.456   0.387
 7035W        W72196  10.075  10.356  11.628
 7036W        W72197  37.878   5.056  14.889
 7037W        W72198  36.675  38.531   4.606
 7038W        W72199  20.571  42.921   9.784
 7039W        W72200  38.030  37.944   2.959
 7040W        W72201  20.566  14.015  11.588
 7041W        W72202  16.055  42.297  13.002
 7042W        W72203   3.704  30.965   4.339
 7043W        W72204  34.604  32.704  13.896
 7044W        W72205  20.476   5.349  13.509
 7045W        W72206  23.226  38.622   5.155
 7046W        W72207  42.333   8.226  14.837
 7047W        W72208  13.192  35.981   2.136
 7048W        W72209  15.700  37.320   3.369
 7049W        W72210  27.164  38.897  13.132
 7050W        W72211  32.383  30.245   4.322
 7051W        W72212   7.512   1.153  11.141
 7052W        W72213  21.096  13.603  12.083
 7053W        W72214   9.574   0.353   2.238
 7054W        W72215  18.720  16.100   1.322
 7055W        W72216   4.532  42.359  10.350
 7056W        W72217   3.252   0.005   3.725
 7057W        W72218   9.037  43.480   4.126
 7058W        W72219  34.124  34.110  11.150
 7059W        W72220  37.730  35.575   4.716
 7060W        W72221  13.195  36.723   2.925
 7061W        W72222  27.000  16.804  10.475
 7062W        W72223  18.136  15.835   0.530
 7063W        W72224  21.875  26.467  12.604
 7064W        W72225  18.637   5.222   3.944
 7065W        W72226  40.939   3.721   4.948
 7066W        W72227  35.131  24.373   0.321
 7067W        W72228  17.161   2.421   2.129
 7068W        W72229  24.556  20.325  11.946
 7069W        W72230   5.223   5.302   4.070
 7070W        W72231  14.044  32.661  12.424
 7071W        W72232  22.195  35.108  14.367
 7072W        W72233  24.250   0.357   1.001
 7073W        W72234  33.093  40.015  13.574
 7074W        W72235  37.799  26.770   3.508
 7075W        W72236  41.853  32.829   1.321
 7076W        W72237  29.280   1.426  11.075
 7077W        W72238  36.130  14.192  11.729
 7078W        W72239  14.691  19.064  11.876
 7079W        W72240   8.372  35.359  11.986
 7080W        W72241  17.077   5.828  14.429
 7081W        W72242   1.297  23.004  11.033
 7082W        W72243  26.516  17.729  14.984
 7083W        W72244  31.902  12.258   2.457
 7084W        W72245  23.298   5.705   1.013
 7085W        W72246  11.786  17.306  12.089
 7086W        W72247  20.504  10.543  14.033
 7087W        W72248   5.784  36.512   0.571
 7088W        W72249  23.787   1.380   0.436
 7089W        W72250  15.644  40.555   3.057
 7090W        W72251  12.344  33.044  13.333
 7091W        W72252  26.979  36.071  14.380
 7092W        W72253  12.899   0.006  11.104
 7093W        W72254   3.453  41.754   4.017
 7094W        W72255  42.368  23.681  14.494
 7095W        W72256  23.891  17.816  11.195
 7096W        W72257  43.235  44.626   2.306
 7097W        W72258  11.740   9.697   5.085
 7098W        W72259   3.828  35.369  11.151
 7099W        W72260  41.444   3.682   4.143
 7100W        W72261  30.887  13.914   3.126
 7101W        W72262  26.915   1.485  10.661
 7102W        W72263  44.404  29.609   3.436
 7103W        W72264  24.764  19.465  13.460
 7104W        W72265  16.949  20.929   1.465
 7105W        W72266  23.619  15.250   0.680
 7106W        W72267  36.038   7.165  12.874
 7107W        W72268  28.968  19.482  12.730
 7108W        W72269  25.687   6.957  10.442
 7109W        W72270  41.433  42.444   2.650
 7110W        W72271  36.733  23.770  12.615
 7111W        W72272  40.094  40.072   1.370
 7112W        W72273   4.296  16.027   0.862
 7113W        W72274  41.406  33.387  12.478
 7114W        W72275  41.962  38.925  14.355
 7115W        W72276  21.266  35.911   4.133
 7116W        W72277  44.059  42.598   1.720
 7117W        W72278   9.369  33.646  14.825
 7118W        W72279  22.328   5.499   1.454
 7119W        W72280  19.532  12.814   1.126
 7120W        W72281  38.957  30.633   1.576
 7121W        W72282   6.021  38.278  11.109
 7122W        W72283  15.738  20.749  10.192
 7123W        W72284   3.323  44.980   4.692
 7124W        W72285   6.516  41.765  12.989
 7125W        W72286  40.244  41.966  13.268
 7126W        W72287  41.448  36.264  10.338
 7127W        W72288  27.650   4.449   3.084
 7128W        W72289  18.685  13.713   4.057
 7129W        W72290  30.890   8.159   3.150
 7130W        W72291   2.309   7.719  11.061
 7131W        W72292   1.499  34.730  14.325
 7132W        W72293  35.757   3.771  14.308
 7133W        W72294  31.590  18.492   4.614
 7134W        W72295  21.251  11.351   0.883
 7135W        W72296  12.099  14.379  14.358
 7136W        W72297  34.841  24.235  14.682
 7137W        W72298  41.492  37.472  13.362
 7138W        W72299   5.364  41.799  11.334
 7139W        W72300  32.142   1.037   0.209
 7140W        W72301  27.580  29.953  13.319
 7141W        W72302  41.974  10.836   4.124
 7142W        W72303  43.816  18.171  10.626
 7143W        W72304  35.130  38.859   1.675
 7144W        W72305  32.205  38.311  13.594
 7145W        W72306  42.453   2.344   0.607
 7146W        W72307   3.405  36.938   4.021
 7147W        W72308  11.904   8.756  13.964
 7148W        W72309  40.470  26.860   2.847
 7149W        W72310  44.173  15.285   2.797
 7150W        W72311  18.993   7.273  11.292
 7151W        W72312  28.392  15.187  13.122
 7152W        W72313  10.750  29.014   1.907
 7153W        W72314  22.001   2.733  14.500
 7154W        W72315  38.551  43.379   3.698
 7155W        W72316   4.848  32.960   4.578
 7156W        W72317  21.379  39.511  10.174
 7157W        W72318  40.424   6.636   3.081
 7158W        W72319  14.747  30.252   1.355
 7159W        W72320  29.563  35.140  11.988
 7160W        W72321  34.729   8.497  12.003
 7161W        W72322  26.481  12.178  12.882
 7162W        W72323  36.578  10.160   0.300
 7163W        W72324  24.218  13.829   1.583
 7164W        W72325  26.807  22.456   0.686
 7165W        W72326  23.640  29.053   0.463
 7166W        W72327  43.049  28.556   3.279
 7167W        W72328   9.848  41.934  11.484
 7168W        W72329  30.035  10.819  10.895
 7169W        W72330   6.747   1.279   4.739
 7170W        W72331  30.705  41.465   0.337
 7171W        W72332   7.250  29.141  11.090
 7172W        W72333  37.445  10.992  12.439
 7173W        W72334   0.660   7.141   0.871
 7174W        W72335  33.327  40.662  13.072
 7175W        W72336  28.623  19.751  14.949
 7176W        W72337  35.934  31.094   3.134
 7177W        W72338   7.221  27.213   1.792
 7178W        W72339  12.577  37.777  14.341
 7179W        W72340  26.943  25.625  14.933
 7180W        W72341  32.882  12.327   2.701
 7181W        W72342   7.633   5.628   1.104
 7182W        W72343  34.312  24.425   4.960
 7183W        W72344  44.322  20.017   1.023
 7184W        W72345  44.725  25.253  12.396
 7185W        W72346  33.130  36.246  13.140
 7186W        W72347  20.534  40.842  13.485
 7187W        W72348  40.454  21.255  12.826
 7188W        W72349  19.821  36.136   4.110
 7189W        W72350   3.320  13.283  13.742
 7190W        W72351  35.789  13.736  13.063
 7191W        W72352   2.362  15.858   3.650
 7192W        W72353  39.366  13.708   2.792
 7193W        W72354  22.615   7.805   2.908
 7194W        W72355  38.386  14.257  11.015
 7195W        W72356   1.393  28.435  11.167
 7196W        W72357  39.279  22.136  11.959
 7197W        W72358  17.116  20.432   1.259
 7198W        W72359  23.327  20.270   2.750
 7199W        W72360   3.033  19.825   4.977
 7200W        W72361   3.702  23.687   1.199
 7201W        W72362  24.695   6.818  11.171
 7202W        W72363  33.841  44.170  10.173
 7203W        W72364  10.813  12.807   4.715
 7204W        W72365  28.071  30.801  12.385
 7205W        W72366  36.450  41.337  11.941
 7206W        W72367  12.327  16.600   3.601
 7207W        W72368  39.641  12.752  12.377
 7208W        W72369   5.730  10.148   2.893
 7209W        W72370  20.221  14.164  11.239
 7210W        W72371  23.360   3.916  13.897
 7211W        W72372   7.078  21.051   2.221
 7212W        W72373  25.181  12.708  12.886
 7213W        W72374  37.051  38.057   1.762
 7214W        W72375  27.709  39.455   2.398
 7215W        W72376  29.189  30.380  12.923
 7216W        W72377  13.331  26.016   4.199
 7217W        W72378   3.176  38.001  13.506
 7218W        W72379   1.664  25.538   1.715
 7219W        W72380   3.845  27.863  13.883
 7220W        W72381  32.149   2.360  13.345
 7221W        W72382  42.496  36.602  13.457
 7222W        W72383  20.584  35.995   3.659
 7223W        W72384   6.191  25.313  12.503
 7224W        W72385  44.285   2.768  12.956
 7225W        W72386  37.396   9.405   5.041
 7226W        W72387   6.289  12.195   4.094
 7227W        W72388  35.524  29.029  14.311
 7228W        W72389  29.591   0.241   0.857
 7229W        W72390  32.895  38.024  13.764
 7230W        W72391   3.399   0.383   0.310
 7231W        W72392   7.808  36.076  14.787
 7232W        W72393  12.267  36.791  14.430
 7233W        W72394   7.635  37.893  12.384
 7234W        W72395  16.562   0.309   1.568
 7235W        W72396   5.879  13.265  13.976
 7236W        W72397  37.389  39.490  13.340
 7237W        W72398  19.170  38.863   3.940
 7238W        W72399  11.461  33.498   0.056
 7239W        W72400   6.245  34.441   3.553
 7240W        W72401  30.124   6.790   2.289
 7241W        W72402  14.768  41.897   4.550
 7242W        W72403   6.890  27.048   2.888
 7243W        W72404  25.467  13.836   2.230
 7244W        W72405  25.460  13.723  10.790
 7245W        W72406   2.709  15.235   2.442
 7246W        W72407  15.107  41.508   3.236
 7247W        W72408  42.960   1.694  12.437
 7248W        W72409   3.255  39.768   3.106
 7249W        W72410  19.272  25.257   2.219
 7250W        W72411  21.259   7.188   2.382
 7251W        W72412  12.197  26.564   0.184
 7252W        W72413  10.901  21.216  10.661
 7253W        W72414  44.395   4.662   2.119
 7254W        W72415  41.404   2.400   2.258
 7255W        W72416  25.017  14.659  14.041
 7256W        W72417  28.940  39.756   2.371
 7257W        W72418  11.173  20.316   4.433
 7258W        W72419  29.106  20.323  13.966
 7259W        W72420  28.501  34.816  13.096
 7260W        W72421  38.514  29.280  12.575
 7261W        W72422   0.026  38.005  12.237
 7262W        W72423  40.571   6.898  12.899
 7263W        W72424  41.351  21.560   0.343
 7264W        W72425  39.506  30.139  13.814
 7265W        W72426  44.890  32.169  14.477
 7266W        W72427  29.234  36.832   4.280
 7267W        W72428  43.492   4.166  13.392
 7268W        W72429  42.524  29.720  12.574
 7269W        W72430  42.389  39.676  12.133
 7270W        W72431  44.182   3.430   9.817
 7271W        W72432  21.473  36.291   0.180
 7272W        W72433  36.105  31.635   2.201
 7273W        W72434  35.183  28.183   4.141
 7274W        W72435  43.901  19.171  11.573
 7275W        W72436  28.899   0.966  14.690
 7276W        W72437  19.442  35.672  11.396
 7277W        W72438   3.504  42.607  11.585
 7278W        W72439  18.465   4.829   3.238
 7279W        W72440   4.465  31.494   1.790
 7280W        W72441  29.798  39.912   4.573
 7281W        W72442   3.860  17.822  13.373
 7282W        W72443  32.023   4.234  10.610
 7283W        W72444   4.439  11.081   1.139
 7284W        W72445  11.731  34.157  13.082
 7285W        W72446  44.307  10.649   0.096
 7286W        W72447  21.746  38.452   2.680
 7287W        W72448  12.677  20.775   1.425
 7288W        W72449  35.852  39.286  14.902
 7289W        W72450  12.796  14.787  13.758
 7290W        W72451  12.892  34.324  12.493
 7291W        W72452  27.821  10.710  12.002
 7292W        W72453  21.582   3.017  14.485
 7293W        W72454   9.353  37.935   3.158
 7294W        W72455   4.548  30.768  13.041
 7295W        W72456  25.431   5.685  12.928
 7296W        W72457   3.319  11.606   4.658
 7297W        W72458  30.969  14.681   1.829
 7298W        W72459  37.948  12.359   0.365
 7299W        W72460  18.768  37.419  13.735
 7300W        W72461   6.662   3.271   2.792
 7301W        W72462  18.643   2.987   4.117
 7302W        W72463  42.925  10.546  11.484
 7303W        W72464   3.779  21.583   0.474
 7304W        W72465   7.390  44.558  12.404
 7305W        W72466  20.534   1.474  13.490
 7306W        W72467  42.869  25.440   3.258
 7307W        W72468  19.157  18.405  12.182
 7308W        W72469   5.660  10.350  14.944
 7309W        W72470  37.992  30.604   2.310
 7310W        W72471  43.368  22.193   3.653
 7311W        W72472  41.233  22.848   0.797
 7312W        W72473   5.830  36.677   3.774
 7313W        W72474  25.307  31.501   1.782
 7314W        W72475  24.370  17.517   4.644
 7315W        W72476  39.686   6.337  13.924
 7316W        W72477  23.272  24.492   1.376
 7317W        W72478  25.521  30.611  12.019
 7318W        W72479   8.775  17.276   0.779
 7319W        W72480  35.117  27.636  10.671
 7320W        W72481  31.334  40.076  13.271
 7321W        W72482  20.770  34.421  14.828
 7322W        W72483  25.381  20.250  13.584
 7323W        W72484  22.590  40.068  10.546
 7324W        W72485  19.151  12.733   2.725
 7325W        W72486  11.082  18.805  13.031
 7326W        W72487  24.993   5.287   0.330
 7327W        W72488  43.328  31.611  11.529
 7328W        W72489  21.674  43.459   1.683
 7329W        W72490  42.939  34.931   0.359
 7330W        W72491  10.736   8.421  14.762
 7331W        W72492  24.126  44.408  12.197
 7332W        W72493  43.620  10.088   0.269
 7333W        W72494  21.713  35.902  13.230
 7334W        W72495  30.045  21.095   2.639
 7335W        W72496  25.862   3.661  14.742
 7336W        W72497  13.558  20.060   3.126
 7337W        W72498   5.722  23.479  11.979
 7338W        W72499   8.794  44.358  13.397
 7339W        W72500  19.365  40.131   9.570
 7340W        W72501  41.167  12.080  10.984
 7341W        W72502   7.504   1.411  12.385
 7342W        W72503  17.780  11.590   4.077
 7343W        W72504  25.496  32.014   3.210
 7344W        W72505  43.727  34.854  13.090
 7345W        W72506  28.105   6.843   2.319
 7346W        W72507  38.182  25.001   2.831
 7347W        W72508  33.985  42.006   0.246
 7348W        W72509   6.244   6.022  12.063
 7349W        W72510  38.053  37.544  13.820
 7350W        W72511  23.107  11.894  12.581
 7351W        W72512  40.537  29.002   4.423
 7352W        W72513  17.601   7.084   0.992
 7353W        W72514  10.224  19.170   2.254
 7354W        W72515  30.372  42.911   2.234
 7355W        W72516  32.322  40.383  10.166
 7356W        W72517  36.606  30.715  11.724
 7357W        W72518  43.704  40.089  11.197
 7358W        W72519  34.911   3.294  14.011
 7359W        W72520  14.048  41.482  12.859
 7360W        W72521  43.324  28.951  14.393
 7361W        W72522  20.341   5.879   1.663
 7362W        W72523   2.415  35.099   3.388
 7363W        W72524  11.085  18.206  11.088
 7364W        W72525  33.920  15.813  11.894
 7365W        W72526  16.965   7.656   0.522
 7366W        W72527  25.325  31.255   0.865
 7367W        W72528   2.207   7.431   0.891
 7368W        W72529  16.254  21.002  12.909
 7369W        W72530  11.297   2.761   4.594
 7370W        W72531   6.313   8.363  11.921
 7371W        W72532  23.236  24.242   3.639
 7372W        W72533   4.744   1.020   0.306
 7373W        W72534  12.830  38.554  10.319
 7374W        W72535  29.490  34.369  13.491
 7375W        W72536  14.449  41.015   4.654
 7376W        W72537  12.789  20.953  12.108
 7377W        W72538  12.584  26.313  14.624
 7378W        W72539  30.622  33.848  11.189
 7379W        W72540  24.065  10.198  11.556
 7380W        W72541  17.696   6.432  14.545
 7381W        W72542  32.388   6.014   2.697
 7382W        W72543  14.833  25.662   4.513
 7383W        W72544  22.235  17.428  12.569
 7384W        W72545  23.096  14.292  13.452
 7385W        W72546  20.626  30.078   1.377
 7386W        W72547  40.351  11.284  12.556
 7387W        W72548  28.711  13.328   1.809
 7388W        W72549   0.962  38.060   0.087
 7389W        W72550  29.560  23.700   0.355
 7390W        W72551  17.722  23.491   1.290
 7391W        W72552  10.898  25.053   2.307
 7392W        W72553  32.556  31.970  14.083
 7393W        W72554   9.290  16.188   0.545
 7394W        W72555  17.239   9.698  12.529
 7395W        W72556  20.209   9.370  11.460
 7396W        W72557  25.600  40.447   1.276
 7397W        W72558  27.708  35.090   0.995
 7398W        W72559  12.392  42.085  13.416
 7399W        W72560   5.154  28.243   5.028
 7400W        W72561  16.730   3.344  11.225
 7401W        W72562   9.464   0.312  12.467
 7402W        W72563  44.307   7.480   4.927
 7403W        W72564  41.428  32.451  11.136
 7404W        W72565  44.960  26.390   4.624
 7405W        W72566   7.532  27.738  11.357
 7406W        W72567  25.531  44.943   0.379
 7407W        W72568  39.130  34.531   1.445
 7408W        W72569  22.115   3.893  12.337
 7409W        W72570  30.906  15.739   1.669
 7410W        W72571  41.565  43.561   1.950
 7411W        W72572  33.553  30.540  12.743
 7412W        W72573  25.579  28.015  14.108
 7413W        W72574  37.903  26.042  13.971
 7414W        W72575  36.029  33.615  10.519
 7415W        W72576   0.019   1.666  14.987
 7416W        W72577   4.865  22.739  10.971
 7417W        W72578  32.237  23.491   2.182
 7418W        W72579  25.173   8.868  14.076
 7419W        W72580   1.965  21.672  13.811
 7420W        W72581  28.599  37.105  12.421
 7421W        W72582  23.373  43.928  12.601
 7422W        W72583  22.140   7.228   3.444
 7423W        W72584  32.660  39.891   1.384
 7424W        W72585  31.993  10.858   2.838
 7425W        W72586  32.619   8.864  14.303
 7426W        W72587  38.470  13.063   1.267
 7427W        W72588  21.334   5.183   3.721
 7428W        W72589  10.200  16.029  11.562
 7429W        W72590  13.378  13.706  14.522
 7430W        W72591   6.739  34.303   3.635
 7431W        W72592  37.903  24.923   2.387
 7432W        W72593  18.402  36.182   3.615
 7433W        W72594   2.344   6.158  14.043
 7434W        W72595  16.188   0.385   3.353
 7435W        W72596   6.922  22.966  11.497
 7436W        W72597  30.031  17.142   2.387
 7437W        W72598  21.203  31.560   4.387
 7438W        W72599  16.129  35.748   1.799
 7439W        W72600  27.769  29.954   0.292
 7440W        W72601  20.532  11.053   0.546
 7441W        W72602  37.268  24.044  13.885
 7442W        W72603  38.578  28.079   0.230
 7443W        W72604  42.886  26.176  13.782
 7444W        W72605  11.660  31.066   0.670
 7445W        W72606  10.847  43.989  14.401
 7446W        W72607   3.475  24.828  12.036
 7447W        W72608  14.192  35.056   4.583
 7448W        W72609  35.481  38.503   1.802
 7449W        W72610  38.411  34.906  10.595
 7450W        W72611  36.067  43.309   2.281
 7451W        W72612  18.504  13.727   1.356
 7452W        W72613  27.176   3.339   5.050
 7453W        W72614  20.807  17.785   1.882
 7454W        W72615  18.981   6.256  13.046
 7455W        W72616  29.019   6.741  12.688
 7456W        W72617   4.270  37.846   0.909
 7457W        W72618  36.097  33.931  14.407
 7458W        W72619  42.721   0.200  10.646
 7459W        W72620  23.680   5.808   2.692
 7460W        W72621  40.890   8.807  13.834
 7461W        W72622  27.549   3.576   0.445
 7462W        W72623  12.627  13.119   0.384
 7463W        W72624  21.268  19.542  12.440
 7464W        W72625  38.855  40.003   1.894
 7465W        W72626  27.465  21.769   3.852
 7466W        W72627   4.935   3.227  12.961
 7467W        W72628  39.526   4.818   1.771
 7468W        W72629  20.080  35.578   1.306
 7469W        W72630  16.163  11.948  14.428
 7470W        W72631  35.638  38.113  14.548
 7471W        W72632  29.994  24.120   1.426
 7472W        W72633  44.524  22.710   2.240
 7473W        W72634  29.648  20.649   4.663
 7474W        W72635  38.062  13.509  12.525
 7475W        W72636  33.478   6.663  14.500
 7476W        W72637  40.635  28.951  11.793
 7477W        W72638  10.415   7.434   3.250
 7478W        W72639  11.317  40.162  12.287
 7479W        W72640  10.827  36.049  14.967
 7480W        W72641   5.916   1.254   3.097
 7481W        W72642  34.464  12.244   2.693
 7482W        W72643  20.988   9.458   4.630
 7483W        W72644  12.139  12.877   2.286
 7484W        W72645  41.301  32.560   2.897
 7485W        W72646  31.487  40.862  13.653
 7486W        W72647  37.998  28.137  13.413
 7487W        W72648   1.984   3.070   3.929
 7488W        W72649  39.492  22.279   1.888
 7489W        W72650  25.717   8.666  12.302
 7490W        W72651  31.663  11.665   0.852
 7491W        W72652  20.711  35.128   4.196
 7492W        W72653  18.152  44.045  14.428
 7493W        W72654  33.271  22.631  10.662
 7494W        W72655  31.710  18.539  14.001
 7495W        W72656  29.096  10.668   4.598
 7496W        W72657  25.314  16.512  13.521
 7497W        W72658  27.033  22.740  13.442
 7498W        W72659  22.211  31.898  13.504
 7499W        W72660  11.232  30.922   3.205
 7500W        W72661  17.600  39.542  13.480
 7501W        W72662  30.157   7.164   2.670
 7502W        W72663  26.172  20.986   3.142
 7503W        W72664  28.013   7.853  12.742
 7504W        W72665  14.132  24.663  14.290
 7505W        W72666   2.632   0.235  14.058
 7506W        W72667   2.351  39.789  13.397
 7507W        W72668   7.252  23.098   1.312
 7508W        W72669  34.332  33.790   1.392
 7509W        W72670  34.019  31.390   3.891
 7510W        W72671  23.642  27.271  12.068
 7511W        W72672  18.808  34.402  14.794
 7512W        W72673  11.464  35.755   1.821
 7513W        W72674   0.518  17.056  14.404
 7514W        W72675  25.561   9.565  13.943
 7515W        W72676  31.823   7.877   1.747
 7516W        W72677  24.168   9.351  14.826
 7517W        W72678  40.026   4.916   0.264
 7518W        W72679  42.822  40.100  14.227
 7519W        W72680   6.992   2.008   2.938
 7520W        W72681  14.336  42.971  13.487
 7521W        W72682  12.964  17.119  10.675
 7522W        W72683  20.595  33.466   3.275
 7523W        W72684  41.790  37.968  14.416
 7524W        W72685  41.537   1.697  10.697
 7525W        W72686   7.323  13.346   2.276
 7526W        W72687  22.275   8.069  12.462
 7527W        W72688  26.378   7.929  10.986
 7528W        W72689   9.507  22.037   3.266
 7529W        W72690  36.782  31.587  11.527
 7530W        W72691   4.694  10.132   2.358
 7531W        W72692  38.433  11.040  14.630
 7532W        W72693  24.397  34.466  11.203
 7533W        W72694  23.222  40.600  14.896
 7534W        W72695  34.180   5.839  14.754
 7535W        W72696   4.317   2.033   4.708
 7536W        W72697  12.878  41.212  11.773
 7537W        W72698  20.239  11.891  10.558
 7538W        W72699  28.171  26.615   0.906
 7539W        W72700   8.167  32.118   0.332
 7540W        W72701  37.115  26.129  14.362
 7541W        W72702  33.485  12.308  13.878
 7542W        W72703  42.511  43.187  11.974
 7543W        W72704  16.290   6.799   1.446
 7544W        W72705  19.647  34.474   4.041
 7545W        W72706  28.705  18.527  12.895
 7546W        W72707  11.798   7.858   0.044
 7547W        W72708  18.641   1.946  10.322
 7548W        W72709  27.640  19.114  14.495
 7549W        W72710   2.319  11.587  14.394
 7550W        W72711  39.352  12.095   2.769
 7551W        W72712   2.645  16.809  14.527
 7552W        W72713  24.518  40.434   0.290
 7553W        W72714  18.166  14.002   1.828
 7554W        W72715  34.428  14.636   2.648
 7555W        W72716  15.222  35.363   2.849
 7556W        W72717  24.451  39.557   0.701
 7557W        W72718  33.352   5.427   4.010
 7558W        W72719  23.072   9.675  14.967
 7559W        W72720  43.952  29.092   0.816
 7560W        W72721  15.288  41.747  13.567
 7561W        W72722  26.042   7.402  12.942
 7562W        W72723  36.327   4.496   2.624
 7563W        W72724  41.181  32.640   4.430
 7564W        W72725  14.881  23.180   4.188
 7565W        W72726  39.929  32.529   3.933
 7566W        W72727  21.243  44.394  13.831
 7567W        W72728  26.516  37.526  14.352
 7568W        W72729   6.766  18.153  11.501
 7569W        W72730   9.560  10.595  13.893
 7570W        W72731  23.128  16.247   3.222
 7571W        W72732  13.719  43.757   3.196
 7572W        W72733   0.068   3.288  10.583
 7573W        W72734  33.655  18.548   4.012
 7574W        W72735  25.950  15.036   0.820
 7575W        W72736  28.864   7.354   4.190
 7576W        W72737   5.654  31.133   0.464
 7577W        W72738  16.859  35.978  11.129
 7578W        W72739  44.435  33.766   3.871
 7579W        W72740  10.428   0.848  12.919
 7580W        W72741  41.650  43.807   0.689
 7581W        W72742  31.957  14.778  13.775
 7582W        W72743  18.334  29.107   1.213
 7583W        W72744  20.985  14.789   2.169
 7584W        W72745  18.482  36.976  13.866
 7585W        W72746  35.865  16.114   1.395
 7586W        W72747   4.260  39.817  14.713
 7587W        W72748  15.879  10.312   1.709
 7588W        W72749  29.590  34.673  10.312
 7589W        W72750  34.972   1.863   0.392
 7590W        W72751  10.161  22.064  12.415
 7591W        W72752  11.327  20.443  13.545
 7592W        W72753  20.098  34.494   2.779
 7593W        W72754  26.013  42.945  14.516
 7594W        W72755  43.846  25.660   0.254
 7595W        W72756  12.788   7.469   4.490
 7596W        W72757  31.463  43.041  10.629
 7597W        W72758  14.629  36.941   3.368
 7598W        W72759  18.488  14.770  13.376
 7599W        W72760  26.736   8.203  11.212
 7600W        W72761  28.084   3.256  10.169
 7601W        W72762  38.856   3.228   0.288
 7602W        W72763  31.914  22.058  10.556
 7603W        W72764   9.802  20.553   4.480
 7604W        W72765  39.886  23.470  10.830
 7605W        W72766  17.972  12.044  11.566
 7606W        W72767   1.204   1.224  12.412
 7607W        W72768  30.765  39.220  12.880
 7608W        W72769  17.725  22.992  11.164
 7609W        W72770  41.693  27.679  11.132
 7610W        W72771  40.061  42.835   3.273
 7611W        W72772  42.602  17.667   1.182
 7612W        W72773  12.261  24.045   2.908
 7613W        W72774   1.294  36.635  13.729
 7614W        W72775  13.637  36.977   3.146
 7615W        W72776  19.600  20.591   0.334
 7616W        W72777  22.897  11.600   0.420
 7617W        W72778   7.703   7.492   0.954
 7618W        W72779  23.634  38.117  13.803
 7619W        W72780  41.410   4.962  13.762
 7620W        W72781  25.108   2.032  13.301
 7621W        W72782   6.201  41.367  14.508
 7622W        W72783  15.052  10.819  11.532
 7623W        W72784  14.310  18.031  13.547
 7624W        W72785  28.723  26.702  12.389
 7625W        W72786  27.184   0.228   4.341
 7626W        W72787   2.484  14.594   0.781
 7627W        W72788  27.134  24.951   1.478
 7628W        W72789  32.943  11.129   3.628
 7629W        W72790  32.809  19.746   3.096
 7630W        W72791   4.502  17.006  10.756
 7631W        W72792  11.570  36.183  14.356
 7632W        W72793  17.816   4.957   0.787
 7633W        W72794   1.296  35.013  10.724
 7634W        W72795  34.161  27.187  14.752
 7635W        W72796  32.034  14.284  13.921
 7636W        W72797   3.802  38.434   4.889
 7637W        W72798  31.399  31.031   2.332
 7638W        W72799  25.505  25.347  12.964
 7639W        W72800  19.313   8.362  10.750
 7640W        W72801  11.549  31.737   3.301
 7641W        W72802   2.128  10.540   2.788
 7642W        W72803   3.343  36.359   4.615
 7643W        W72804  23.194  15.189   2.098
 7644W        W72805   0.104  33.199  11.095
 7645W        W72806  11.879   2.982   3.785
 7646W        W72807  40.988   3.442   1.354
 7647W        W72808   8.233   7.885  12.793
 7648W        W72809   0.742  35.579  11.093
 7649W        W72810  12.640  14.816  13.238
 7650W        W72811  15.069  12.893   1.324
 7651W        W72812  22.020  30.104   4.048
 7652W        W72813  31.070   5.404  12.966
 7653W        W72814  16.553   0.412  13.459
 7654W        W72815  32.223   8.689  11.656
 7655W        W72816  23.186   8.341   2.927
 7656W        W72817  20.835   7.698  12.879
 7657W        W72818  27.911  42.973  11.200
 7658W        W72819  36.349  43.808  10.788
 7659W        W72820  33.186  20.647  14.922
 7660W        W72821  36.915   5.000  12.934
 7661W        W72822  28.974   9.638  12.435
 7662W        W72823  25.057  38.049   0.041
 7663W        W72824  33.995  13.868  10.664
 7664W        W72825  28.622  44.386   4.458
 7665W        W72826   3.312   0.934  13.956
 7666W        W72827  31.107  31.673   2.358
 7667W        W72828   8.814  31.703  11.885
 7668W        W72829  10.405  20.219   2.911
 7669W        W72830  38.788  30.087   2.198
 7670W        W72831   8.116  32.886  11.998
 7671W        W72832  22.125  33.380   3.307
 7672W        W72833   2.449  21.843   0.275
 7673W        W72834  40.039   8.466   3.908
 7674W        W72835  31.898  20.721   4.683
 7675W        W72836  26.894  17.280   2.306
 7676W        W72837  22.114  31.629   2.702
 7677W        W72838   3.719  16.147   2.275
 7678W        W72839  30.257  24.988  12.560
 7679W        W72840  41.706   8.258   3.134
 7680W        W72841  37.338  13.625   3.783
 7681W        W72842   5.263   3.179  11.112
 7682W        W72843  44.014   2.905  14.010
 7683W        W72844  28.978  28.818   1.629
 7684W        W72845   8.434  23.969   0.321
 7685W        W72846  21.235  12.706  14.951
 7686W        W72847  10.348  39.459  10.560
 7687W        W72848  38.728  12.618  14.499
 7688W        W72849  16.814  43.723  10.514
 7689W        W72850  16.745  36.563   3.261
 7690W        W72851  33.961   6.638   2.218
 7691W        W72852  33.435  42.433   3.211
 7692W        W72853  16.333  43.353   3.752
 7693W        W72854  26.165  24.598  10.758
 7694W        W72855  26.653  22.224  12.628
 7695W        W72856  23.063  36.866   1.387
 7696W        W72857  35.889  15.656   4.694
 7697W        W72858  30.897  39.256   3.705
 7698W        W72859  22.508  41.356   1.864
 7699W        W72860  35.201   1.967   2.863
 7700W        W72861  12.152  10.548  12.428
 7701W        W72862  15.674  35.484   1.719
 7702W        W72863  10.397  17.693   0.860
 7703W        W72864  12.618  23.041  11.594
 7704W        W72865   6.290  41.020   0.255
 7705W        W72866  24.538  31.336  12.393
 7706W        W72867   7.290  18.266  14.772
 7707W        W72868  37.859  27.584  14.495
 7708W        W72869  39.555   9.084  12.050
 7709W        W72870  20.782  35.664   4.896
 7710W        W72871  38.118  25.122  14.492
 7711W        W72872  15.001  26.485   0.751
 7712W        W72873  24.131  42.728  12.075
 7713W        W72874  42.385  30.891  10.930
 7714W        W72875  41.269  39.277  14.318
 7715W        W72876  38.658  34.492  10.762
 7716W        W72877  27.581  13.108  12.038
 7717W        W72878  11.042   8.828  14.749
 7718W        W72879  24.103  22.714   2.387
 7719W        W72880  43.563  14.258   4.695
 7720W        W72881  19.857   9.712   0.359
 7721W        W72882  35.620  11.175   0.040
 7722W        W72883   7.950   6.907  13.252
 7723W        W72884  37.001  36.528   0.957
 7724W        W72885  15.560  38.407   0.599
 7725W        W72886  17.372   6.257  10.681
 7726W        W72887  18.278  20.481  14.262
 7727W        W72888   4.272  34.945  12.408
 7728W        W72889   0.203  28.154  14.891
 7729W        W72890   1.401   5.860  11.007
 7730W        W72891  25.981  34.086  14.241
 7731W        W72892  16.187  35.916  14.766
 7732W        W72893  23.981  35.590  12.464
 7733W        W72894  17.308  13.000  12.738
 7734W        W72895   7.660  40.011   2.661
 7735W        W72896  35.885  24.118  13.825
 7736W        W72897  39.160  14.754   1.993
 7737W        W72898  40.502  25.171   3.725
 7738W        W72899  41.464  20.653   4.617
 7739W        W72900  22.472  20.098  14.458
 7740W        W72901  39.408  38.535   3.353
 7741W        W72902  42.184  14.769   0.401
 7742W        W72903  32.882  27.541  12.645
 7743W        W72904  10.209  36.276   4.950
 7744W        W72905  38.581  23.074   3.681
 7745W        W72906  37.847  34.746  13.573
 7746W        W72907  24.061  30.922   3.326
 7747W        W72908  31.353  22.624   0.896
 7748W        W72909   4.069  17.789   2.820
 7749W        W72910   3.742   4.445  14.989
 7750W        W72911  29.934  42.273   1.692
 7751W        W72912  16.735   5.351   0.525
 7752W        W72913  27.782  19.046   3.478
 7753W        W72914   2.936  14.730   4.094
 7754W        W72915  42.878  17.974   0.320
 7755W        W72916  11.334  44.595   0.311
 7756W        W72917  23.713  17.208  13.402
 7757W        W72918   3.163  30.469  11.478
 7758W        W72919  10.182  16.743  11.860
 7759W        W72920   2.426  38.614   3.906
 7760W        W72921  26.509  32.754   0.783
 7761W        W72922  26.922  15.103  12.590
 7762W        W72923  29.625  40.298   2.396
 7763W        W72924  11.568  14.286  12.706
 7764W        W72925  35.104  10.289  14.974
 7765W        W72926  16.452  15.602  11.562
 7766W        W72927  44.405   8.789   0.539
 7767W        W72928   0.940   6.560   5.128
 7768W        W72929  32.503  35.438  14.438
 7769W        W72930  33.383   4.102   2.761
 7770W        W72931   1.922  10.188  14.649
 7771W        W72932  18.763  39.173  11.509
 7772W        W72933  14.346  10.877   1.277
 7773W        W72934  26.934  23.708  11.080
 7774W        W72935  16.366  17.313   0.874
 7775W        W72936   0.521   8.826   3.269
 7776W        W72937  18.078  11.319  14.413
 7777W        W72938  29.305  16.681   0.777
 7778W        W72939  36.445  37.183  13.387
 7779W        W72940   5.387  13.478   4.200
 7780W        W72941  29.025  22.044  14.479
 7781W        W72942  21.934  38.532   0.501
 7782W        W72943   3.019  19.981   0.792
 7783W        W72944  28.067   2.229  13.139
 7784W        W72945  43.906  18.322  11.151
 7785W        W72946   4.485  20.107   3.227
 7786W        W72947  35.009  14.681  14.420
 7787W        W72948  29.691  16.485  12.588
 7788W        W72949   0.409  34.545  12.107
 7789W        W72950  34.526   3.539  13.778
 7790W        W72951  10.695   9.425  12.527
 7791W        W72952  18.527  21.082  12.532
 7792W        W72953  39.008  38.946  12.078
 7793W        W72954  35.824  43.921   1.424
 7794W        W72955  30.774  10.195  12.975
 7795W        W72956   7.162  16.808  10.704
 7796W        W72957  44.122  26.191  12.436
 7797W        W72958  23.407   4.244   0.264
 7798W        W72959  33.592  13.232   0.156
 7799W        W72960  13.311  11.926  11.332
 7800W        W72961   0.173  41.742  11.526
 7801W        W72962   9.715  11.257  10.571
 7802W        W72963   0.779  41.304  13.503
 7803W        W72964   6.186  34.513   3.052
 7804W        W72965  28.230  43.620   0.440
 7805W        W72966  29.049  23.001   3.563
 7806W        W72967  21.113  40.529  12.870
 7807W        W72968  18.046   1.157  11.222
 7808W        W72969  33.370  32.600   2.128
 7809W        W72970  34.420  30.693   3.329
 7810W        W72971  12.063   9.180  12.435
 7811W        W72972   7.364   8.125  12.945
 7812W        W72973  22.331  37.094  13.413
 7813W        W72974   0.239   7.442   0.926
 7814W        W72975  26.534  12.905   1.436
 7815W        W72976   0.262  13.761  14.764
 7816W        W72977  13.259  44.017  11.582
 7817W        W72978  25.277  13.087  11.565
 7818W        W72979  40.710  31.945   3.659
 7819W        W72980   0.409  24.010  11.907
 7820W        W72981  20.734  11.072   0.052
 7821W        W72982   3.555  44.753  12.312
 7822W        W72983   7.681   6.121   1.240
 7823W        W72984  30.006  34.503  12.990
 7824W        W72985  17.032  44.611   9.707
 7825W        W72986   0.787   7.605  11.270
 7826W        W72987   2.475  35.241  14.362
 7827W        W72988   9.673   8.385   1.711
 7828W        W72989  22.604  13.320   3.699
 7829W        W72990  21.999  11.236   1.409
 7830W        W72991  13.050  24.112   0.122
 7831W        W72992  24.970  10.282   3.037
 7832W        W72993  42.311  10.778   0.966
 7833W        W72994  32.162  34.387   0.008
 7834W        W72995  32.859  29.539   1.977
 7835W        W72996   6.234   0.806  10.701
 7836W        W72997  38.366  41.990   1.280
 7837W        W72998  43.846   7.994  10.697
 7838W        W72999  38.556  25.009   0.763
 7839W        W73000   1.313  20.579   2.772
 7840W        W73001  30.953  37.414   3.832
 7841W        W73002   6.190  28.622   2.798
 7842W        W73003  12.119  23.773  12.650
 7843W        W73004   4.711   6.212   0.772
 7844W        W73005  15.629  28.718   4.224
 7845W        W73006   4.276   5.980  13.842
 7846W        W73007  14.249   8.381   0.322
 7847W        W73008   6.566  27.075   2.456
 7848W        W73009  34.482  18.680   2.129
 7849W        W73010  33.445   2.698   3.227
 7850W        W73011  44.407  11.375  11.116
 7851W        W73012   7.621  36.461   1.798
 7852W        W73013  33.426  22.685   3.993
 7853W        W73014  21.766  19.627  11.045
 7854W        W73015  34.112  29.426   4.162
 7855W        W73016  17.957  13.405   3.865
 7856W        W73017  25.416  17.660  13.044
 7857W        W73018  14.193  20.652   3.797
 7858W        W73019  39.877   3.872  11.095
 7859W        W73020   2.123   9.701  14.001
 7860W        W73021  41.646  41.710  12.561
 7861W        W73022  38.624  34.376  11.618
 7862W        W73023   8.493  27.987   3.310
 7863W        W73024  14.707  37.923   0.738
 7864W        W73025  42.403   3.765  13.766
 7865W        W73026  40.406  20.956  14.348
 7866W        W73027  43.402  44.282   3.133
 7867W        W73028  23.707   8.560   3.964
 7868W        W73029  43.120   5.142  13.547
 7869W        W73030  24.328  38.829  13.028
 7870W        W73031  30.078  31.906   4.626
 7871W        W73032   6.926  20.033  10.753
 7872W        W73033  17.672  27.957  12.943
 7873W        W73034  14.457  15.247  11.866
 7874W        W73035  30.993  41.597   0.848
 7875W        W73036   9.865  15.100   0.356
 7876W        W73037   6.052  17.748  14.894
 7877W        W73038  34.484   1.592   2.329
 7878W        W73039  38.448   2.484  14.043
 7879W        W73040  21.530  34.275  12.088
 7880W        W73041  21.103  34.537   0.322
 7881W        W73042  37.607  35.369  10.731
 7882W        W73043  20.215  32.064   1.040
 7883W        W73044   1.017  43.352   4.075
 7884W        W73045  16.189  41.933   3.796
 7885W        W73046  17.521  44.517  14.593
 7886W        W73047  41.916   9.678  14.382
 7887W        W73048  22.614  33.531  10.122
 7888W        W73049  26.533  37.623  11.210
 7889W        W73050  33.001  42.553   2.591
 7890W        W73051  16.438  43.291   4.250
 7891W        W73052   3.729  36.180  12.451
 7892W        W73053   1.987  38.867  12.015
 7893W        W73054  35.439  42.291   1.321
 7894W        W73055  31.532   5.908   1.998
 7895W        W73056  15.076  33.381   0.740
 7896W        W73057  39.776   5.694   0.728
 7897W        W73058  42.978   8.589   3.025
 7898W        W73059  23.355   8.442  11.736
 7899W        W73060   8.433  15.047  14.058
 7900W        W73061  27.265  17.384  13.876
 7901W        W73062  30.179  19.084   2.702
 7902W        W73063  43.269   7.078  14.433
 7903W        W73064  26.581   9.202   4.044
 7904W        W73065  11.873  39.532  12.884
 7905W        W73066  30.044  37.874   4.254
 7906W        W73067   4.004  12.311   4.782
 7907W        W73068  22.666  44.220  14.477
 7908W        W73069  21.766  30.937  10.496
 7909W        W73070  24.379  10.335  11.143
 7910W        W73071  44.806  23.677   3.671
 7911W        W73072  20.227   8.958   3.896
 7912W        W73073   8.628   0.210  10.818
 7913W        W73074  42.493  42.477  11.328
 7914W        W73075  36.797   7.718  14.315
 7915W        W73076  14.743  11.925   3.512
 7916W        W73077   0.384  14.794   2.208
 7917W        W73078  36.083  18.064  10.953
 7918W        W73079  38.231   4.769   0.207
 7919W        W73080   5.097  28.682   4.057
 7920W        W73081  42.091  34.672  14.546
 7921W        W73082  28.861  10.352   0.532
 7922W        W73083  19.492  38.539  11.721
 7923W        W73084   0.763  35.645  10.277
 7924W        W73085   7.814  21.059   1.097
 7925W        W73086   8.254  24.297  12.529
 7926W        W73087  44.753  15.122  11.613
 7927W        W73088   3.397   0.019   1.939
 7928W        W73089  37.711  30.315   5.046
 7929W        W73090   0.836  15.681   0.725
 7930W        W73091  14.270  20.884   1.072
 7931W        W73092   9.582  42.375   1.648
 7932W        W73093  31.079   6.715  11.619
 7933W        W73094  25.505  10.044   4.695
 7934W        W73095   9.746  23.664   4.996
 7935W        W73096   1.697  22.747  13.895
 7936W        W73097  25.153   7.742   4.205
 7937W        W73098  20.852   8.882  11.140
 7938W        W73099  28.755  23.741  11.670
 7939W        W73100  32.217  22.012   3.592
 7940W        W73101  27.789   8.164   0.614
 7941W        W73102   5.988  16.702   1.864
 7942W        W73103  39.878  42.048  13.808
 7943W        W73104  38.758   7.366  10.857
 7944W        W73105  42.612  25.096   1.729
 7945W        W73106  33.940  35.410  11.358
 7946W        W73107  37.410   8.824   0.919
 7947W        W73108   5.235  36.072  13.543
 7948W        W73109  19.037  26.495   0.826
 7949W        W73110  32.087   0.676  12.517
 7950W        W73111   9.408   8.373  12.285
 7951W        W73112  32.582  12.236   4.594
 7952W        W73113   7.205   2.294  11.934
 7953W        W73114  20.171  29.885   1.253
 7954W        W73115  44.467   0.369  14.816
 7955W        W73116   0.382  42.320   1.674
 7956W        W73117  31.631  28.031  13.097
 7957W        W73118   2.517   7.989  14.014
 7958W        W73119   8.656  38.773  14.866
 7959W        W73120  23.026   6.362  14.076
 7960W        W73121   0.272  41.435  13.458
 7961W        W73122  40.595  36.019   2.812
 7962W        W73123   7.802  23.105  13.860
 7963W        W73124  39.972  25.945   0.759
 7964W        W73125  21.655   5.488   4.249
 7965W        W73126  31.073   9.573  14.557
 7966W        W73127  44.132  27.088   3.707
 7967W        W73128  23.665   7.865  14.516
 7968W        W73129   6.221  39.879   0.339
 7969W        W73130  43.383  31.803   4.831
 7970W        W73131  31.532  34.588   0.949
 7971W        W73132  21.630  38.994   1.242
 7972W        W73133  23.865  42.892   4.547
 7973W        W73134  31.285  17.651   1.188
 7974W        W73135  10.183  41.104   1.366
 7975W        W73136   8.837  29.594   1.963
 7976W        W73137  43.461   1.778   4.547
 7977W        W73138  26.260   3.185   0.969
 7978W        W73139  22.194  43.689   3.781
 7979W        W73140  43.244   2.272  11.941
 7980W        W73141  19.823  13.341   2.193
 7981W        W73142  41.074   7.300  11.189
 7982W        W73143  29.090  22.894   2.649
 7983W        W73144  44.758   3.916   4.732
 7984W        W73145  27.420  19.253  11.954
 7985W        W73146  23.890  26.722   3.628
 7986W        W73147  27.892   4.455  11.225
 7987W        W73148  39.077  12.030   3.238
 7988W        W73149  41.910  19.118   0.412
 7989W        W73150  25.858  23.183  14.938
 7990W        W73151  20.680   9.285   0.396
 7991W        W73152   1.159   4.288   3.636
 7992W        W73153  24.639  26.693   4.132
 7993W        W73154  26.745  28.623   3.790
 7994W        W73155   0.454   0.202  14.238
 7995W        W73156  28.823  10.278  13.536
 7996W        W73157  36.736  33.564   0.843
 7997W        W73158  12.863  19.750  12.385
 7998W        W73159   4.352  36.700   3.728
 7999W        W73160   3.781  28.597   0.551
 8000W        W73161  13.730  21.768   3.298
 8001W        W73162  13.855  35.887  10.642
 8002W        W73163  32.504  29.241  11.977
 8003W        W73164   6.724  31.869   0.977
 8004W        W73165  43.333   8.726   0.302
 8005W        W73166  32.435  20.678  11.665
 8006W        W73167   5.379  43.067   4.363
 8007W        W73168  13.740  13.630  14.099
 8008W        W73169  19.128  32.492  12.355
 8009W        W73170  14.195   2.972   3.423
 8010W        W73171  29.054   3.319  10.690
 8011W        W73172  16.679  30.886  12.636
 8012W        W73173  19.175  21.590   3.861
 8013W        W73174  34.478   5.967  11.822
 8014W        W73175  29.897   6.170   2.632
 8015W        W73176   3.731  19.754   1.697
 8016W        W73177  12.732   8.473  12.372
 8017W        W73178  18.274   5.273  11.907
 8018W        W73179   8.266  38.099  11.626
 8019W        W73180  12.772  37.390   4.587
 8020W        W73181  14.399  42.482  10.332
 8021W        W73182  28.927  20.128   4.602
 8022W        W73183  14.682  29.664  14.886
 8023W        W73184  33.178  36.937   3.335
 8024W        W73185  43.143  39.889   0.203
 8025W        W73186  10.857  15.274   1.917
 8026W        W73187  20.209  37.463  13.795
 8027W        W73188   6.344  24.312  12.358
 8028W        W73189  16.304  37.631  12.467
 8029W        W73190  15.184  18.208   2.650
 8030W        W73191  16.401  30.161  11.091
 8031W        W73192  11.667   5.779   0.847
 8032W        W73193  11.392  37.042   4.364
 8033W        W73194  21.164   4.393  13.435
 8034W        W73195   0.015  43.749   1.316
 8035W        W73196  21.214  26.341  10.141
 8036W        W73197   1.761   2.188  10.723
 8037W        W73198  43.517  17.725  10.700
 8038W        W73199  38.965  15.289  11.982
 8039W        W73200  23.512   4.398  12.589
 8040W        W73201   3.489  42.048   1.798
 8041W        W73202  21.787  11.237   0.891
 8042W        W73203  12.797  24.253   1.212
 8043W        W73204   6.108   0.512   0.066
 8044W        W73205  34.024  13.749   4.289
 8045W        W73206   1.390  34.475  14.851
 8046W        W73207  14.049  40.373   9.808
 8047W        W73208   5.233  38.443   4.741
 8048W        W73209  34.942  28.156  10.577
 8049W        W73210  24.920  34.635  13.516
 8050W        W73211  33.542  43.091  14.498
 8051W        W73212   8.320  44.466  14.328
 8052W        W73213  32.207  19.695  11.678
 8053W        W73214  20.581  28.725  14.961
 8054W        W73215  35.523   9.336   2.620
 8055W        W73216  18.755  37.002  14.311
 8056W        W73217  28.577  23.662  12.466
 8057W        W73218  17.765  37.465  14.567
 8058W        W73219  11.189  44.866  12.857
 8059W        W73220  43.381  34.868  12.110
 8060W        W73221  16.527  11.942  12.398
 8061W        W73222  15.740  35.563   0.356
 8062W        W73223  17.497  42.821   5.171
 8063W        W73224  27.568   7.290   2.566
 8064W        W73225  33.032  26.421  13.819
 8065W        W73226  39.490  30.998   4.165
 8066W        W73227  22.077  19.315   2.800
 8067W        W73228   5.950  31.544  10.650
 8068W        W73229  14.375  34.928   2.648
 8069W        W73230  35.341  37.815  11.102
 8070W        W73231  32.916  31.481   3.250
 8071W        W73232  26.106  11.621  14.921
 8072W        W73233  10.164   5.507   3.341
 8073W        W73234  31.420   7.725  13.112
 8074W        W73235  32.007  42.781   4.649
 8075W        W73236  19.754  20.039   2.112
 8076W        W73237  12.157  31.565  14.934
 8077W        W73238  26.739  23.187  13.413
 8078W        W73239  12.698   8.732  12.914
 8079W        W73240  44.205  43.128   4.175
 8080W        W73241   1.556  32.192  14.812
 8081W        W73242  32.369  41.436  12.025
 8082W        W73243  38.788  13.295   4.935
 8083W        W73244  16.687   7.447   4.191
 8084W        W73245  40.763  30.140   4.795
 8085W        W73246  35.500  34.843  13.004
 8086W        W73247  13.650   0.478  12.113
 8087W        W73248  41.371  25.571   3.116
 8088W        W73249   6.014  18.945   4.684
 8089W        W73250  27.026   2.668   3.308
 8090W        W73251  10.858  11.840  13.842
 8091W        W73252  35.810  36.671   1.432
 8092W        W73253  31.440  36.818   1.467
 8093W        W73254  26.214   2.726   0.742
 8094W        W73255  26.660  27.935  10.810
 8095W        W73256  31.663  34.477   1.432
 8096W        W73257  27.948  30.568   2.228
 8097W        W73258   1.713  29.587  13.296
 8098W        W73259  28.585  18.523  13.727
 8099W        W73260   0.339  33.620  12.513
 8100W        W73261  13.188  27.645   1.429
 8101W        W73262  13.345  14.165   2.051
 8102W        W73263   8.457   2.484  13.648
 8103W        W73264  10.430  14.059   1.053
 8104W        W73265  37.681  16.789  10.847
 8105W        W73266  28.780   8.340   0.453
 8106W        W73267   0.801   4.190  13.460
 8107W        W73268  30.943  35.860   3.674
 8108W        W73269  40.262  10.922   4.594
 8109W        W73270  34.966  18.085   1.625
 8110W        W73271  17.583  12.125   2.112
 8111W        W73272  13.319  26.168  13.466
 8112W        W73273   0.631   9.289  14.332
 8113W        W73274  22.162   3.734  11.349
 8114W        W73275  40.795  35.960   3.299
 8115W        W73276  20.365   4.625  13.120
 8116W        W73277  41.343  12.421  14.475
 8117W        W73278  34.443  41.811   4.907
 8118W        W73279  19.070  33.019  12.200
 8119W        W73280   7.878   2.493   4.198
 8120W        W73281  36.474   2.983   4.678
 8121W        W73282  42.537   2.818   2.808
 8122W        W73283  15.177  24.406   2.644
 8123W        W73284  11.350   3.371   3.626
 8124W        W73285  16.108  15.688  12.882
 8125W        W73286   2.758  28.696   2.395
 8126W        W73287  30.391  15.541  10.796
 8127W        W73288  35.638   4.337  14.280
 8128W        W73289  34.906  10.092   0.412
 8129W        W73290   8.349  20.647   2.115
 8130W        W73291  24.405  12.614  14.530
 8131W        W73292   4.725   7.370   3.731
 8132W        W73293   5.308  15.927  14.753
 8133W        W73294  40.044   1.396  12.970
 8134W        W73295  19.207  18.944   5.436
 8135W        W73296  41.149  31.591  12.837
 8136W        W73297  18.887  43.346   3.584
 8137W        W73298  20.266  43.033  11.040
 8138W        W73299  43.816   3.877  14.953
 8139W        W73300  26.956  35.767  10.336
 8140W        W73301  42.844  22.428  10.687
 8141W        W73302  22.730   6.862  12.074
 8142W        W73303  21.737  33.900   1.713
 8143W        W73304  31.493   1.901  11.171
 8144W        W73305   6.982  25.395   3.202
 8145W        W73306  34.966   6.266  11.141
 8146W        W73307  22.019  37.833   3.272
 8147W        W73308   8.237  27.647   2.347
 8148W        W73309  31.650   0.718   1.580
 8149W        W73310  13.622   1.432  12.988
 8150W        W73311  19.112  37.923   0.611
 8151W        W73312   6.501  19.011   3.598
 8152W        W73313  41.470   8.853   2.324
 8153W        W73314  15.753  33.566   4.656
 8154W        W73315  36.051  41.537   3.352
 8155W        W73316   8.157  38.719   1.711
 8156W        W73317  17.666   9.025   3.246
 8157W        W73318   6.333  33.424   0.265
 8158W        W73319  12.221   6.442  12.854
 8159W        W73320   1.436  17.561  13.515
 8160W        W73321   0.463  36.879   1.734
 8161W        W73322   8.278  33.649  12.566
 8162W        W73323  34.931  32.030   1.667
 8163W        W73324  14.329  36.922   4.345
 8164W        W73325  44.813  17.785   1.365
 8165W        W73326  31.360  17.160   3.864
 8166W        W73327   8.399   5.771  11.641
 8167W        W73328  10.288   3.753  14.545
 8168W        W73329  11.540  35.675   1.272
 8169W        W73330  44.274  22.205   0.906
 8170W        W73331  17.200  27.722   4.371
 8171W        W73332  28.110   7.363  11.400
 8172W        W73333  25.656   2.751   1.644
 8173W        W73334  38.441  31.178   2.956
 8174W        W73335  37.132  19.230   0.435
 8175W        W73336  22.971   5.451  11.089
 8176W        W73337  36.133   4.871  13.374
 8177W        W73338  13.650  13.332   4.663
 8178W        W73339  15.571  39.811   1.678
 8179W        W73340  13.061  20.208   0.993
 8180W        W73341  41.093  15.290   2.847
 8181W        W73342   2.829   5.172   4.061
 8182W        W73343  39.542  32.123   0.412
 8183W        W73344  25.712  41.146  13.330
 8184W        W73345  33.597  20.406  11.087
 8185W        W73346  29.432   7.870   0.782
 8186W        W73347  32.033  15.614  11.024
 8187W        W73348   2.373  12.261   3.627
 8188W        W73349  25.984  28.643   0.251
 8189W        W73350  22.056   5.175   4.072
 8190W        W73351  30.108  39.267  14.932
 8191W        W73352  18.049  41.083  12.567
 8192W        W73353   5.379  41.851   4.380
 8193W        W73354  17.128  29.926  11.711
 8194W        W73355  18.413  31.061   0.940
 8195W        W73356  12.148  10.653   2.164
 8196W        W73357   6.536  38.345  11.204
 8197W        W73358   0.050  34.931  14.750
 8198W        W73359   3.593  10.236  10.952
 8199W        W73360  30.052  22.213  13.480
 8200W        W73361   7.235  23.609   1.276
 8201W        W73362   5.282  38.300   2.877
 8202W        W73363  25.326  21.159  14.779
 8203W        W73364  27.662  22.083   1.268
 8204W        W73365  13.998   5.888  13.451
 8205W        W73366  24.344  23.461  12.357
 8206W        W73367  20.154  18.819  11.188
 8207W        W73368   4.422  17.605   0.891
 8208W        W73369  38.318   2.892  12.317
 8209W        W73370  26.193  27.142   1.521
 8210W        W73371  31.256  22.030   4.030
 8211W        W73372  14.146   0.442  11.008
 8212W        W73373  43.578  10.162  10.202
 8213W        W73374  40.305  16.065  11.387
 8214W        W73375  28.946   6.872   3.527
 8215W        W73376  32.687   4.924  10.985
 8216W        W73377  32.088  29.517  11.253
 8217W        W73378  22.430   6.864  14.734
 8218W        W73379  35.474  10.327   4.121
 8219W        W73380  33.625   4.756  10.911
 8220W        W73381  27.579   9.190  14.733
 8221W        W73382  13.793  41.519   0.420
 8222W        W73383   2.439  19.231  11.437
 8223W        W73384   0.867  43.556  12.913
 8224W        W73385  20.147  28.974  14.277
 8225W        W73386  35.747  37.543   0.325
 8226W        W73387  37.934  31.904  12.876
 8227W        W73388  42.304  44.299  14.034
 8228W        W73389  14.610   2.313   1.404
 8229W        W73390  33.892  10.653   3.600
 8230W        W73391   7.892   1.421   4.707
 8231W        W73392   7.885  23.164  14.776
 8232W        W73393  39.957  38.500   0.259
 8233W        W73394  13.688  42.362   3.297
 8234W        W73395  18.243  33.436   2.211
 8235W        W73396   6.983  24.048   1.402
 8236W        W73397   8.744  36.319   2.802
 8237W        W73398  14.793  31.214   0.420
 8238W        W73399  35.911  34.425  12.163
 8239W        W73400  37.651   1.325  10.500
 8240W        W73401   5.186   8.668   1.270
 8241W        W73402   2.925  37.782   9.840
 8242W        W73403  20.196  44.567  11.027
 8243W        W73404  36.491   6.957  13.849
 8244W        W73405  39.826  26.123  13.251
 8245W        W73406   9.722  14.629  11.631
 8246W        W73407   3.806  10.366   1.106
 8247W        W73408  39.941  31.953   4.670
 8248W        W73409  31.736   7.479  10.576
 8249W        W73410  20.022  40.981   0.467
 8250W        W73411  25.549  36.109  11.965
 8251W        W73412  13.601  41.284  13.075
 8252W        W73413  33.545  27.080  12.858
 8253W        W73414  17.188   8.755   1.321
 8254W        W73415  41.945  11.399  12.081
 8255W        W73416   0.962  27.001   4.250
 8256W        W73417  22.103  18.246  12.089
 8257W        W73418  34.237  23.173   3.880
 8258W        W73419  19.786  23.428   1.471
 8259W        W73420   4.442  11.658   0.435
 8260W        W73421   3.345  42.061  14.346
 8261W        W73422  21.819  32.808   0.832
 8262W        W73423  29.121  29.318   0.202
 8263W        W73424  16.118  12.032  12.050
 8264W        W73425  11.186  40.363   1.816
 8265W        W73426  17.540  44.769  12.839
 8266W        W73427   4.927  17.210   5.074
 8267W        W73428  32.043  36.331  13.414
 8268W        W73429  39.839  11.936   1.785
 8269W        W73430  11.005   9.706  14.575
 8270W        W73431  27.164  41.617  12.380
 8271W        W73432  44.059  41.839   2.311
 8272W        W73433  15.713  18.524   3.267
 8273W        W73434  27.209  38.281   3.063
 8274W        W73435  34.251  25.958  14.874
 8275W        W73436  25.204  14.900  13.586
 8276W        W73437  17.323  23.792   1.497
 8277W        W73438  14.120   7.149   4.787
 8278W        W73439  37.370  40.375   0.844
 8279W        W73440  28.221  33.349   1.302
 8280W        W73441  26.113  29.485  12.002
 8281W        W73442  35.490  21.670   0.879
 8282W        W73443  20.829  32.170  11.662
 8283W        W73444  22.584  25.397  11.590
 8284W        W73445  23.485  30.621   3.658
 8285W        W73446  12.202  29.659   3.737
 8286W        W73447  26.293   8.114  14.600
 8287W        W73448  38.053   0.530  12.850
 8288W        W73449  28.538  29.982  12.072
 8289W        W73450  32.530   0.950  12.620
 8290W        W73451  22.707  18.859  13.794
 8291W        W73452  24.485   6.462  12.807
 8292W        W73453  10.900  32.215   0.791
 8293W        W73454  18.401   0.294   1.387
 8294W        W73455  20.648  38.234   3.421
 8295W        W73456   3.900  35.545   2.411
 8296W        W73457  21.723   5.196   2.843
 8297W        W73458  34.285  30.890   1.359
 8298W        W73459  14.635  23.559  14.564
 8299W        W73460   1.660  29.116   3.545
 8300W        W73461  11.122  11.387   3.694
 8301W        W73462  14.162   4.325  13.313
 8302W        W73463  39.002   3.308  12.030
 8303W        W73464   5.894  20.073   2.249
 8304W        W73465  42.810  21.764  14.984
 8305W        W73466   6.408  22.762   5.025
 8306W        W73467  19.786  18.823  11.581
 8307W        W73468  33.949  43.720  12.532
 8308W        W73469  43.927  24.121   1.423
 8309W        W73470  18.819   1.002   4.151
 8310W        W73471  13.278   5.577   0.679
 8311W        W73472  13.834   3.429   2.278
 8312W        W73473  38.921  38.495  14.709
 8313W        W73474  34.641  15.185  13.996
 8314W        W73475  44.613   1.429  11.082
 8315W        W73476   2.931   7.678   2.819
 8316W        W73477   0.659  41.646  10.669
 8317W        W73478  42.927  10.834  11.057
 8318W        W73479  19.322  42.557   1.712
 8319W        W73480  27.495   9.786   0.440
 8320W        W73481   3.343  12.750   2.671
 8321W        W73482  42.941  29.492  11.728
 8322W        W73483   8.574  44.191   2.221
 8323W        W73484  13.718   5.833  13.942
 8324W        W73485  30.454  20.959  10.104
 8325W        W73486   2.524   0.066  12.580
 8326W        W73487  33.616   9.587  13.878
 8327W        W73488  37.221  38.847  10.208
 8328W        W73489  17.448   5.725   1.065
 8329W        W73490  13.296  12.793   1.852
 8330W        W73491  12.970  21.600  11.549
 8331W        W73492  21.552  22.287  13.183
 8332W        W73493  24.989  21.763  11.997
 8333W        W73494  26.521   8.206   0.085
 8334W        W73495  18.205  13.429  11.192
 8335W        W73496  33.547  14.197  13.640
 8336W        W73497  33.404  13.343  11.839
 8337W        W73498  15.383  34.385  14.955
 8338W        W73499  35.065  16.304   0.358
 8339W        W73500  21.212  14.339  13.785
 8340W        W73501  27.601  43.656  10.688
 8341W        W73502  42.140  11.809  10.735
 8342W        W73503  42.850  23.904   4.410
 8343W        W73504  12.131   1.895   4.577
 8344W        W73505  15.850  16.563  13.794
 8345W        W73506   9.664  37.793   3.685
 8346W        W73507  22.855  21.869   0.527
 8347W        W73508  36.081  25.346   0.879
 8348W        W73509  34.516  17.792  12.667
 8349W        W73510  40.467  13.618   3.702
 8350W        W73511  38.864  37.301  10.377
 8351W        W73512  44.026  43.591  13.978
 8352W        W73513   8.063  19.165   2.470
 8353W        W73514  17.257   9.593   1.952
 8354W        W73515   4.038  33.734   4.647
 8355W        W73516  30.472  40.524   3.718
 8356W        W73517  24.946  41.520  13.328
 8357W        W73518  26.699  31.473   2.046
 8358W        W73519  24.222  26.435  11.580
 8359W        W73520  44.366   3.761   3.791
 8360W        W73521   6.956   2.519   4.099
 8361W        W73522  44.456  35.491  11.151
 8362W        W73523   8.083  38.988  12.925
 8363W        W73524  29.961  18.387  11.954
 8364W        W73525  25.774   5.339   3.177
 8365W        W73526  26.971  21.602   4.018
 8366W        W73527   2.481  38.072   4.686
 8367W        W73528  22.122   9.267  11.681
 8368W        W73529  16.166  11.159  12.121
 8369W        W73530  22.304  13.698   0.052
 8370W        W73531   6.705   3.674  10.965
 8371W        W73532  33.889   8.257  12.431
 8372W        W73533  40.283   1.272   4.493
 8373W        W73534  18.901  37.956  12.829
 8374W        W73535  36.567  43.918  12.865
 8375W        W73536  15.807   6.523  14.181
 8376W        W73537  37.565   6.402  12.517
 8377W        W73538   4.294  10.725   0.294
 8378W        W73539   8.744   6.795  11.461
 8379W        W73540  22.475  35.827  12.881
 8380W        W73541   0.330  16.166  11.128
 8381W        W73542  30.970  30.680   4.972
 8382W        W73543  28.731  15.570   1.720
 8383W        W73544  30.365  43.943  14.893
 8384W        W73545  20.977  19.698   0.012
 8385W        W73546   8.560  34.309   1.236
 8386W        W73547  36.111  21.208  14.468
 8387W        W73548  29.590  39.093  11.766
 8388W        W73549  30.634   2.002   0.951
 8389W        W73550  11.205  36.022   4.662
 8390W        W73551   4.934  22.963   1.675
 8391W        W73552   5.231   9.213   1.390
 8392W        W73553   0.233  26.477  12.528
 8393W        W73554  42.782   5.630   3.762
 8394W        W73555  19.915  23.736   0.584
 8395W        W73556  35.829  12.642  13.932
 8396W        W73557  16.347  12.439  12.395
 8397W        W73558  16.307  19.711   3.259
 8398W        W73559  29.800  32.683   3.253
 8399W        W73560  26.704   0.866  14.850
 8400W        W73561   7.132   8.241   1.088
 8401W        W73562  32.971   4.621   0.487
 8402W        W73563  31.754  27.229  10.755
 8403W        W73564  12.908   7.280  11.678
 8404W        W73565  21.699  10.190   0.521
 8405W        W73566  14.574  24.224  13.449
 8406W        W73567   2.021  33.152  12.971
 8407W        W73568  10.441  40.766   4.192
 8408W        W73569  29.642  44.057  12.876
 8409W        W73570  34.645  28.542   2.740
 8410W        W73571  30.073  17.073  14.848
 8411W        W73572  32.872  11.065  12.575
 8412W        W73573  17.067  33.381  10.774
 8413W        W73574  36.383  38.455   0.998
 8414W        W73575   3.287  16.269  10.923
 8415W        W73576  30.980  21.779  10.621
 8416W        W73577  14.729   7.075   1.368
 8417W        W73578  27.387   6.228  12.639
 8418W        W73579  33.188  41.421  11.573
 8419W        W73580   6.330  12.283   0.173
 8420W        W73581   0.818  36.053   2.982
 8421W        W73582   9.904  41.945   1.441
 8422W        W73583  29.944  38.038   3.298
 8423W        W73584  44.487   2.806   2.742
 8424W        W73585  34.533  22.251  10.996
 8425W        W73586  19.010  28.960  14.316
 8426W        W73587   1.787  34.033  13.240
 8427W        W73588  25.720  41.779   4.679
 8428W        W73589  20.245  22.768  11.163
 8429W        W73590  42.146   9.466  11.111
 8430W        W73591  44.978  42.089  12.475
 8431W        W73592  17.661   0.496  10.478
 8432W        W73593   6.259  31.470  14.107
 8433W        W73594  31.632  19.297  10.969
 8434W        W73595  38.828  33.315  12.461
 8435W        W73596  11.736  17.388   1.839
 8436W        W73597  30.402  11.904  11.120
 8437W        W73598  40.725  29.433   0.264
 8438W        W73599  12.231  14.525   4.546
 8439W        W73600   1.903  26.136  12.546
 8440W        W73601  33.878  44.361  10.671
 8441W        W73602  25.414  40.842  10.665
 8442W        W73603  23.532   5.741   4.197
 8443W        W73604  40.260  38.384   0.823
 8444W        W73605  26.159  21.801  10.489
 8445W        W73606   4.276  42.244   3.115
 8446W        W73607   0.352  30.250  12.014
 8447W        W73608  43.227  13.427  13.389
 8448W        W73609  24.573  32.639  11.589
 8449W        W73610   6.769  27.530   2.313
 8450W        W73611  38.337  21.701  10.845
 8451W        W73612  38.819  32.639   5.051
 8452W        W73613  13.754   3.778   3.357
 8453W        W73614  22.917   6.491   4.127
 8454W        W73615   8.673  14.706  14.407
 8455W        W73616  40.657   9.195   2.970
 8456W        W73617   9.825   5.936  12.840
 8457W        W73618   9.688  14.156   3.909
 8458W        W73619   4.023  18.910   0.446
 8459W        W73620   2.315  38.291   4.267
 8460W        W73621  25.848  19.250  10.816
 8461W        W73622   8.599  36.485  12.012
 8462W        W73623  25.515  32.396  14.713
 8463W        W73624  33.764  40.918  14.709
 8464W        W73625  15.769  33.014   0.474
 8465W        W73626  38.071  22.530  13.165
 8466W        W73627  26.428  17.283  14.379
 8467W        W73628  16.073  20.008  12.710
 8468W        W73629  35.665   2.752   4.140
 8469W        W73630   3.998   3.361  12.150
 8470W        W73631  25.495  40.058   0.905
 8471W        W73632  13.041  16.990   0.371
 8472W        W73633  13.262  36.437  14.811
 8473W        W73634  21.207  44.949   0.399
 8474W        W73635   9.924  12.146   3.647
 8475W        W73636   0.029  14.462  14.048
 8476W        W73637  15.795  22.288  10.661
 8477W        W73638   1.876   7.446  11.199
 8478W        W73639  42.562  37.616   1.240
 8479W        W73640  18.263  24.700  13.460
 8480W        W73641  13.969  44.257   1.803
 8481W        W73642  28.017  17.085   1.481
 8482W        W73643   2.176  19.205   1.334
 8483W        W73644  34.609  34.711  11.925
 8484W        W73645  27.981  13.145  11.590
 8485W        W73646   8.688  39.236   2.277
 8486W        W73647  16.895  10.672  11.700
 8487W        W73648  28.438  39.609   9.864
 8488W        W73649   0.837   1.251   4.619
 8489W        W73650  28.267   0.018  14.294
 8490W        W73651  36.943  33.584  10.478
 8491W        W73652   8.092  39.011  10.508
 8492W        W73653  29.463  35.524   0.231
 8493W        W73654  39.116  18.263   5.082
 8494W        W73655  11.206  28.868   3.224
 8495W        W73656  38.271  10.228   3.770
 8496W        W73657  39.857  33.832  11.075
 8497W        W73658  41.230  24.994  12.061
 8498W        W73659  24.553  19.859  11.231
 8499W        W73660  27.684  44.291   2.077
 8500W        W73661   3.704  30.745   5.001
 8501W        W73662  38.409  15.268   4.591
 8502W        W73663  16.829   5.111  11.316
 8503W        W73664  27.722  19.201  13.365
 8504W        W73665  15.065  36.648  14.854
 8505W        W73666   7.308   4.809   2.188
 8506W        W73667  32.036  19.267   0.733
 8507W        W73668  17.836  43.292  11.127
 8508W        W73669  26.386  21.229   0.873
 8509W        W73670  38.898   5.126   0.829
 8510W        W73671   1.921  37.316  12.993
 8511W        W73672  15.706  28.751   2.236
 8512W        W73673   4.966   9.257   3.819
 8513W        W73674   1.307  31.146   1.476
 8514W        W73675  25.508  12.114   3.245
 8515W        W73676  23.533  38.194   4.121
 8516W        W73677  35.102  25.966   3.148
 8517W        W73678  10.787   1.694  13.911
 8518W        W73679  11.445  12.629  13.777
 8519W        W73680   1.750   5.674   3.701
 8520W        W73681  40.906  21.014  12.949
 8521W        W73682  44.529  13.626   2.643
 8522W        W73683  14.861  34.966   3.574
 8523W        W73684   5.396  15.115  11.330
 8524W        W73685   3.395   1.839  12.169
 8525W        W73686  33.133  15.553  12.676
 8526W        W73687  37.400  23.661  12.410
 8527W        W73688  19.146   9.000   4.081
 8528W        W73689  37.049  41.590   2.352
 8529W        W73690  33.027  28.149  13.455
 8530W        W73691  25.315  40.623   2.775
 8531W        W73692  38.396   4.200  13.399
 8532W        W73693  13.319  44.016  14.542
 8533W        W73694  23.748  40.930  13.981
 8534W        W73695  39.225  24.362   0.969
 8535W        W73696  33.292  41.986  12.821
 8536W        W73697   3.790  13.016   2.844
 8537W        W73698   2.194  16.624   0.835
 8538W        W73699  12.639  27.167  12.145
 8539W        W73700  32.942  10.279   2.162
 8540W        W73701   5.493   6.398  14.786
 8541W        W73702  36.461  21.996  11.447
 8542W        W73703  22.837  24.050  11.928
 8543W        W73704  35.091  32.994  10.783
 8544W        W73705  38.265  30.291   0.948
 8545W        W73706  26.365  11.656   0.391
 8546W        W73707   9.859  40.445   2.725
 8547W        W73708  12.536  23.897   4.175
 8548W        W73709  14.934  43.354  11.595
 8549W        W73710  34.927  38.411   5.667
 8550W        W73711   3.026   8.018   4.077
 8551W        W73712  37.558  21.429  13.553
 8552W        W73713  38.978   1.175  11.288
 8553W        W73714  34.533  20.094  12.521
 8554W        W73715  14.465  27.013   0.373
 8555W        W73716  15.264  10.638   0.973
 8556W        W73717  14.314  32.702   2.560
 8557W        W73718  43.232   1.898  11.125
 8558W        W73719   2.526  15.285   5.052
 8559W        W73720   2.038  39.370  11.936
 8560W        W73721  20.477  27.636   4.601
 8561W        W73722  19.193   2.470   1.462
 8562W        W73723  24.546  10.165  10.685
 8563W        W73724  38.805  37.497   0.014
 8564W        W73725  33.710  41.305   3.941
 8565W        W73726  37.217  33.675  11.251
 8566W        W73727  42.927  16.574   2.668
 8567W        W73728   6.325   4.338   1.323
 8568W        W73729  31.134  21.718  12.167
 8569W        W73730   5.901  27.746  12.352
 8570W        W73731  42.840  25.620  14.519
 8571W        W73732  11.256  44.352   0.784
 8572W        W73733  39.383  38.493   2.401
 8573W        W73734  18.032  31.512   0.859
 8574W        W73735  25.536  37.235   4.817
 8575W        W73736  23.505  20.770  12.473
 8576W        W73737   3.079  11.627   2.659
 8577W        W73738  11.924   2.780   3.319
 8578W        W73739   4.226   1.224  11.593
 8579W        W73740  24.467  44.442   0.905
 8580W        W73741  20.678  16.973  11.955
 8581W        W73742  11.818  21.236  12.245
 8582W        W73743  26.743  31.858  13.502
 8583W        W73744  15.333   4.663   4.985
 8584W        W73745   5.648  39.385   3.256
 8585W        W73746  24.443  34.971   4.785
 8586W        W73747   4.261  39.049  11.177
 8587W        W73748  26.030  34.844   1.345
 8588W        W73749  15.273  17.695   4.836
 8589W        W73750  17.247  13.509  12.882
 8590W        W73751  30.450  35.856  12.924
 8591W        W73752  20.446  43.966  11.115
 8592W        W73753  11.698   4.816  14.728
 8593W        W73754  11.816  10.801   4.029
 8594W        W73755  21.485  10.069   2.353
 8595W        W73756  29.688  39.359   2.340
 8596W        W73757   9.384  34.654   0.864
 8597W        W73758  16.901  23.620   4.703
 8598W        W73759  35.632   5.657   4.904
 8599W        W73760  22.132  12.769  11.530
 8600W        W73761  18.926  44.862  14.286
 8601W        W73762  33.539  37.100   0.892
 8602W        W73763  41.406  38.958   1.272
 8603W        W73764  13.156  23.692  14.839
 8604W        W73765   7.348  17.005  12.752
 8605W        W73766  20.821  26.132   1.745
 8606W        W73767  23.180  19.445  11.435
 8607W        W73768  31.571  40.526  11.567
 8608W        W73769  11.044   6.301   1.786
 8609W        W73770  34.434   2.396  12.985
 8610W        W73771   4.660  20.701  11.994
 8611W        W73772  14.342   1.276   2.805
 8612W        W73773  22.425  10.319   1.657
 8613W        W73774   1.806  25.124  13.529
 8614W        W73775  18.115  22.309  10.522
 8615W        W73776  35.114  34.827  11.059
 8616W        W73777  18.988  11.094   1.773
 8617W        W73778   3.833   2.031   2.973
 8618W        W73779   3.720  11.186  14.271
 8619W        W73780  12.363  21.244  12.360
 8620W        W73781  27.471  35.144   2.380
 8621W        W73782  43.304  21.132   2.893
 8622W        W73783   9.942  15.123   4.165
 8623W        W73784  10.505  29.170   3.971
 8624W        W73785  11.708   7.283  14.284
 8625W        W73786  19.815   5.237  12.141
 8626W        W73787  33.395  40.539  11.997
 8627W        W73788  31.385  13.777   3.231
 8628W        W73789  40.770  44.434   3.297
 8629W        W73790  16.760  14.510  13.938
 8630W        W73791  24.560   0.653   0.702
 8631W        W73792  40.846  35.818   0.893
 8632W        W73793  13.720  42.521   0.452
 8633W        W73794  16.279  33.154  14.826
 8634W        W73795  41.401  18.077  12.518
 8635W        W73796   7.807  28.292   0.983
 8636W        W73797  13.853   2.822   2.734
 8637W        W73798  10.752  12.157  12.036
 8638W        W73799   6.251  26.032  13.772
 8639W        W73800  15.613   9.314  13.922
 8640W        W73801  35.242   0.520  13.076
 8641W        W73802   8.171   8.343   0.817
 8642W        W73803  26.037  20.713  10.589
 8643W        W73804  37.689   9.543   2.455
 8644W        W73805  25.354  35.997  12.516
 8645W        W73806  33.181   6.633   4.669
 8646W        W73807  35.362  33.606  14.368
 8647W        W73808  20.200  33.331   1.806
 8648W        W73809  23.191  19.724  14.212
 8649W        W73810  35.040  20.729   0.978
 8650W        W73811  40.431   0.388  13.649
 8651W        W73812  19.227  41.559  10.971
 8652W        W73813  17.169   7.285   4.975
 8653W        W73814  12.269  15.626  12.428
 8654W        W73815  23.481  35.164   2.365
 8655W        W73816  22.148  10.157  12.529
 8656W        W73817   8.701  17.941  12.612
 8657W        W73818  25.446   1.867   0.383
 8658W        W73819  19.883  32.483   4.986
 8659W        W73820  16.724  12.385  11.569
 8660W        W73821  15.021  23.729   2.310
 8661W        W73822  15.531   0.793  14.073
 8662W        W73823  33.676  11.729  13.511
 8663W        W73824  41.476  24.148  11.223
 8664W        W73825  14.640  17.199   0.792
 8665W        W73826  31.790  25.679  14.360
 8666W        W73827   5.204  22.716   4.259
 8667W        W73828  19.621   6.296   1.894
 8668W        W73829  23.716  25.747  11.987
 8669W        W73830  12.247   8.738  10.748
 8670W        W73831  29.178  13.430   2.136
 8671W        W73832  36.570  26.704  14.555
 8672W        W73833  44.822  11.801   2.170
 8673W        W73834   0.346  39.589   0.648
 8674W        W73835  35.011  26.440   1.181
 8675W        W73836  41.944   0.758  11.561
 8676W        W73837  34.723  39.635   9.728
 8677W        W73838  14.406   9.277   2.955
 8678W        W73839  13.317   0.338  11.638
 8679W        W73840  29.602   9.373   0.952
 8680W        W73841  23.720   3.272  13.278
 8681W        W73842  13.705  37.943  11.280
 8682W        W73843  42.881  35.588   0.236
 8683W        W73844  25.266  33.028   3.646
 8684W        W73845  31.901   1.284   1.773
 8685W        W73846  31.158  40.001   3.352
 8686W        W73847  17.073  19.131  11.610
 8687W        W73848  21.247  11.081  11.133
 8688W        W73849  22.131  34.583  14.291
 8689W        W73850  33.217  10.935   0.893
 8690W        W73851  30.629   2.481   0.322
 8691W        W73852  25.150   6.199   4.203
 8692W        W73853  16.214   8.261   4.634
 8693W        W73854  26.203  22.476  12.824
 8694W        W73855  37.946  21.056  12.551
 8695W        W73856   3.794  26.993   3.468
 8696W        W73857  25.255   6.187   3.310
 8697W        W73858  37.853  32.797   4.104
 8698W        W73859  42.563  11.636  12.878
 8699W        W73860  17.326  40.715   2.627
 8700W        W73861  34.360  23.748   3.753
 8701W        W73862  37.148  38.563   9.773
 8702W        W73863  11.690  42.871  12.041
 8703W        W73864  24.485  24.595   1.729
 8704W        W73865   5.203  44.093   0.251
 8705W        W73866  27.112  18.722   3.020
 8706W        W73867  30.175   9.195   2.881
 8707W        W73868  27.162  20.114   0.182
 8708W        W73869   3.971  43.984  13.899
 8709W        W73870  44.523  13.713   3.152
 8710W        W73871  35.661  25.029   0.921
 8711W        W73872  43.904  19.970   1.316
 8712W        W73873  31.384   3.996  14.391
 8713W        W73874  40.879  35.343  14.214
 8714W        W73875   9.257  33.157   4.779
 8715W        W73876  13.121  20.591  13.904
 8716W        W73877  25.675  31.837  11.584
 8717W        W73878  34.804  42.459  10.417
 8718W        W73879  35.173  44.447  13.460
 8719W        W73880  21.545   6.397   3.722
 8720W        W73881  43.790  11.666  13.457
 8721W        W73882   0.964  13.789   2.921
 8722W        W73883  33.808   6.958   3.314
 8723W        W73884  19.646  34.186  12.871
 8724W        W73885   3.300   5.920   1.868
 8725W        W73886  14.182  23.208  10.656
 8726W        W73887  42.511  15.826  13.896
 8727W        W73888   0.771  13.305  12.626
 8728W        W73889   6.173  35.360  10.730
 8729W        W73890  36.893  39.370  13.471
 8730W        W73891  40.546  36.421   0.704
 8731W        W73892   6.967  41.239   4.157
 8732W        W73893  36.886  12.288  13.587
 8733W        W73894  22.632  23.021   2.215
 8734W        W73895   2.177  32.621   4.190
 8735W        W73896  43.291   5.149  14.500
 8736W        W73897  10.378  38.921  13.574
 8737W        W73898  44.296  27.710   0.080
 8738W        W73899  25.808  18.797  11.126
 8739W        W73900  31.963  35.893  13.708
 8740W        W73901   8.508  34.954   0.804
 8741W        W73902  32.114  39.945  10.384
 8742W        W73903  22.286  17.776   2.862
 8743W        W73904  24.455   2.654  10.642
 8744W        W73905  37.883  24.518   1.216
 8745W        W73906  13.177   4.414  11.761
 8746W        W73907  38.246  40.279   3.192
 8747W        W73908   4.746   8.566  10.720
 8748W        W73909  20.506  43.774  13.045
 8749W        W73910  31.079  15.760   0.296
 8750W        W73911   2.251  23.705  14.526
 8751W        W73912   8.477  28.541  14.417
 8752W        W73913   7.024  20.820   3.791
 8753W        W73914  40.745  41.516  10.702
 8754W        W73915  41.490   0.649   3.280
 8755W        W73916   6.366  24.224  11.534
 8756W        W73917   9.947   4.836   3.617
 8757W        W73918   2.561  37.015   4.620
 8758W        W73919  34.621  12.848   1.857
 8759W        W73920  25.664   3.683   2.796
 8760W        W73921  39.000   9.862   3.904
 8761W        W73922  17.205  12.741   3.876
 8762W        W73923   4.650  38.438   4.579
 8763W        W73924  32.093  11.053   4.675
 8764W        W73925  16.120  25.158  11.547
 8765W        W73926  37.077  44.012   1.121
 8766W        W73927  28.043   6.194  13.414
 8767W        W73928  37.266  36.232   2.252
 8768W        W73929  44.265  32.662  13.416
 8769W        W73930  28.348   2.363   0.618
 8770W        W73931  25.721  41.900   0.404
 8771W        W73932   7.308   4.401  11.930
 8772W        W73933  38.469   3.421   0.018
 8773W        W73934  34.520  15.034   4.594
 8774W        W73935  23.679   4.888   3.090
 8775W        W73936  12.035  29.119  13.407
 8776W        W73937  23.512  17.176  13.910
 8777W        W73938  25.068  20.522   3.367
 8778W        W73939  32.412  16.146   2.129
 8779W        W73940  34.898  33.128  12.600
 8780W        W73941  23.272  16.125  10.703
 8781W        W73942  37.888   7.755  11.554
 8782W        W73943   5.164  40.202   0.663
 8783W        W73944  44.949  33.715  11.920
 8784W        W73945  32.908  44.757   4.174
 8785W        W73946  26.449   4.832   1.889
 8786W        W73947  39.990  41.510   0.281
 8787W        W73948  24.818  41.985   1.414
 8788W        W73949   6.066   8.843   5.176
 8789W        W73950  32.902   2.884  12.503
 8790W        W73951  10.809  32.387  13.391
 8791W        W73952  32.535   1.864   0.508
 8792W        W73953  35.460  42.847   3.655
 8793W        W73954  37.441  38.523  13.611
 8794W        W73955  36.079  11.190   0.326
 8795W        W73956  15.090   7.416  12.414
 8796W        W73957   0.264  10.781  12.166
 8797W        W73958  29.399  25.917   1.047
 8798W        W73959   7.402   0.601  11.989
 8799W        W73960   6.599  37.591   4.107
 8800W        W73961  43.632  21.715   2.331
 8801W        W73962  41.792  29.117   0.356
 8802W        W73963   4.333   4.840   2.336
 8803W        W73964  38.064  10.016   3.038
 8804W        W73965  44.735  14.363   0.033
 8805W        W73966  35.423  28.345   0.561
 8806W        W73967   8.449   6.232  14.077
 8807W        W73968  25.204  16.165   5.476
 8808W        W73969  42.527  29.476   2.351
 8809W        W73970   6.947  39.267   4.215
 8810W        W73971  14.638  19.887   2.292
 8811W        W73972  18.226  20.647  12.556
 8812W        W73973   3.619   5.076  14.475
 8813W        W73974   2.166  24.613   4.077
 8814W        W73975  40.390  21.659  11.303
 8815W        W73976  41.319  40.410   2.777
 8816W        W73977  15.852  19.478  14.919
 8817W        W73978  12.832  12.933  12.460
 8818W        W73979  26.169  23.049   4.559
 8819W        W73980  16.456  28.257  12.027
 8820W        W73981  29.480  13.648   1.787
 8821W        W73982  36.055  13.095  13.781
 8822W        W73983  19.106   5.430   3.683
 8823W        W73984  25.550  21.283  12.600
 8824W        W73985  12.626   6.174  13.114
 8825W        W73986  22.226  13.230  12.013
 8826W        W73987  42.877  18.310  12.647
 8827W        W73988  24.745   3.663  14.156
 8828W        W73989   5.196  14.519  13.900
 8829W        W73990  19.742  14.313   0.184
 8830W        W73991  44.454  10.123   4.540
 8831W        W73992   8.236  32.578  14.935
 8832W        W73993  23.248  38.462  10.010
 8833W        W73994   5.260  35.341  14.666
 8834W        W73995  30.529  36.867   3.708
 8835W        W73996   3.409  37.824   1.877
 8836W        W73997  36.756  30.570  13.021
 8837W        W73998   7.368  29.058   1.786
 8838W        W73999  11.563  24.119   3.103
 8839W        W74000   3.552  31.631  13.438
 8840W        W74001  44.784  38.860  14.626
 8841W        W74002  29.639  11.212   2.796
 8842W        W74003   1.491  20.280   3.182
 8843W        W74004  33.920  28.945   4.086
 8844W        W74005  30.337   1.699   4.037
 8845W        W74006  43.563  41.724   2.165
 8846W        W74007  39.844  21.698   1.305
 8847W        W74008  26.563   5.014   0.903
 8848W        W74009  41.439  43.764  12.130
 8849W        W74010  42.721   7.645  10.616
 8850W        W74011  35.466  44.738  13.989
 8851W        W74012  40.256  17.654   1.985
 8852W        W74013  26.709  34.918  13.866
 8853W        W74014  15.165   3.919  14.781
 8854W        W74015  26.535  31.411   3.875
 8855W        W74016  13.259  40.344  14.265
 8856W        W74017  34.178  30.286   0.382
 8857W        W74018  10.606  16.151   1.866
 8858W        W74019  24.864  29.458   3.238
 8859W        W74020  36.629  26.482  13.040
 8860W        W74021  12.585  16.284  13.391
 8861W        W74022  19.220  43.443  14.967
 8862W        W74023   2.434  10.556  14.456
 8863W        W74024  36.941  35.277   2.625
 8864W        W74025  29.980  36.993   2.582
 8865W        W74026  16.805   0.005  14.678
 8866W        W74027  30.411  31.176   0.169
 8867W        W74028  16.309   6.201   0.183
 8868W        W74029  44.379  16.484  13.367
 8869W        W74030  18.737  42.442  14.913
 8870W        W74031   3.018  10.139   0.028
 8871W        W74032  30.128   3.371   0.942
 8872W        W74033  15.034  20.700  12.587
 8873W        W74034  13.926  32.445  14.421
 8874W        W74035  32.166  44.953   1.211
 8875W        W74036  39.910  21.012  10.745
 8876W        W74037   2.764  21.508   4.617
 8877W        W74038  13.778   8.916   4.175
 8878W        W74039  40.898   0.292   3.721
 8879W        W74040   2.692  42.011  11.178
 8880W        W74041   1.160   3.751  12.029
 8881W        W74042  19.721   7.920   3.281
 8882W        W74043  21.573  14.062  12.949
 8883W        W74044  18.233  35.991   4.089
 8884W        W74045  20.760  43.372  14.784
 8885W        W74046  32.867  37.962  11.534
 8886W        W74047  37.557   0.183   0.905
 8887W        W74048  21.800   3.699  10.476
 8888W        W74049   5.626  24.104  11.878
 8889W        W74050  28.112  29.388   3.090
 8890W        W74051  31.539  33.398  14.410
 8891W        W74052  36.632  12.483   3.155
 8892W        W74053  20.967  31.360  14.318
 8893W        W74054  36.402  35.502  11.563
 8894W        W74055  21.972  34.938   0.274
 8895W        W74056  41.084  19.771   2.269
 8896W        W74057  21.520  18.207   1.349
 8897W        W74058  21.813  42.648  11.129
 8898W        W74059   6.735  40.972  13.848
 8899W        W74060  28.433  31.593   3.166
 8900W        W74061  13.105  28.538  10.700
 8901W        W74062  14.160  34.555   4.743
 8902W        W74063  10.387  19.212   3.258
 8903W        W74064  18.757  36.590   0.978
 8904W        W74065   1.775  10.783   2.359
 8905W        W74066  15.295  26.066   0.831
 8906W        W74067  11.251  28.654   3.762
 8907W        W74068   4.195  11.175  12.023
 8908W        W74069  35.411   6.969  13.102
 8909W        W74070   8.116  37.472  14.925
 8910W        W74071  24.894  34.659  14.491
 8911W        W74072   9.929  43.392  11.423
 8912W        W74073   0.686  40.542   0.787
 8913W        W74074   3.638  33.648  12.583
 8914W        W74075   7.226   0.420  10.627
 8915W        W74076  41.348  39.440   2.752
 8916W        W74077  31.383  16.686   0.942
 8917W        W74078  30.970  19.731  10.387
 8918W        W74079   2.449   4.169  10.729
 8919W        W74080  32.984   6.160  12.860
 8920W        W74081  16.592  43.284  11.099
 8921W        W74082  40.884  36.492   3.184
 8922W        W74083  13.391  26.963   3.274
 8923W        W74084  11.520  33.340   2.697
 8924W        W74085   7.960   4.590  11.148
 8925W        W74086  38.599  26.601  10.939
 8926W        W74087  16.170  28.640   4.572
 8927W        W74088  17.546  30.055  11.994
 8928W        W74089  37.030  23.701   3.640
 8929W        W74090  34.140  12.886  13.460
 8930W        W74091  13.203  40.682   4.979
 8931W        W74092  31.649  14.432  13.579
 8932W        W74093  15.027  20.531  14.994
 8933W        W74094  22.764  25.122  13.956
 8934W        W74095  32.852  30.499   1.633
 8935W        W74096  22.120  16.565  13.858
 8936W        W74097  28.634  17.561  13.957
 8937W        W74098  32.856  11.388   2.637
 8938W        W74099   6.396  20.349   3.134
 8939W        W74100   9.039  10.172   1.871
 8940W        W74101  17.542  13.079   1.881
 8941W        W74102  37.044  31.687   0.536
 8942W        W74103  13.211  44.789  12.512
 8943W        W74104  41.589  17.911   3.998
 8944W        W74105   6.835  19.015   3.198
 8945W        W74106  23.409  26.713   3.821
 8946W        W74107  30.009   0.877   0.403
 8947W        W74108   4.421  41.874  13.351
 8948W        W74109  44.530   9.637   0.890
 8949W        W74110   7.703   1.484  13.468
 8950W        W74111  24.032  35.395   4.709
 8951W        W74112  41.990  33.066   3.429
 8952W        W74113  28.620   6.146  14.260
 8953W        W74114  30.454   4.884   0.603
 8954W        W74115  14.635   5.407   1.843
 8955W        W74116  43.437  20.727   2.184
 8956W        W74117  34.552  27.633   3.112
 8957W        W74118  10.776  35.319   4.089
 8958W        W74119  22.703  23.466   4.466
 8959W        W74120  12.615   4.427   0.671
 8960W        W74121  22.550  34.421  11.038
 8961W        W74122   9.051  43.515   3.232
 8962W        W74123   5.382   9.834   0.798
 8963W        W74124   2.927  31.173  11.210
 8964W        W74125  33.126  22.243  13.880
 8965W        W74126   1.393  29.016   2.560
 8966W        W74127  18.672  37.517  12.697
 8967W        W74128  31.405  38.065  11.607
 8968W        W74129  25.065  19.751  14.042
 8969W        W74130  36.894  43.419  13.009
 8970W        W74131  29.910  10.257  12.735
 8971W        W74132  29.770   8.340  12.620
 8972W        W74133   6.243  23.204   3.231
 8973W        W74134  16.329   1.912   1.180
 8974W        W74135   5.788  28.901   2.182
 8975W        W74136  37.158   7.183   0.094
 8976W        W74137  40.439   7.662   0.792
 8977W        W74138   6.441  26.626  10.563
 8978W        W74139  13.730  14.152  11.466
 8979W        W74140  42.831  14.358   2.300
 8980W        W74141  26.177   4.216  14.297
 8981W        W74142   0.563   5.573   1.919
 8982W        W74143  32.579   9.338   3.933
 8983W        W74144  13.779   7.260   4.346
 8984W        W74145  12.168  41.754  10.696
 8985W        W74146  17.981  18.784   3.165
 8986W        W74147   1.726  39.062   2.414
 8987W        W74148  33.581  31.049   4.626
 8988W        W74149   3.811  32.178   2.772
 8989W        W74150  32.939  36.568   2.620
 8990W        W74151  20.943  40.453   5.667
 8991W        W74152   1.254   9.052   0.462
 8992W        W74153  23.031  17.001  13.804
 8993W        W74154  16.595   9.946  13.459
 8994W        W74155  18.564  12.320  10.492
 8995W        W74156  12.816  41.013  10.804
 8996W        W74157  14.918   5.267  13.004
 8997W        W74158  40.380   4.133   4.242
 8998W        W74159  14.773  30.285  11.393
 8999W        W74160   6.101  37.749  10.656
 9000W        W74161  30.969   5.920  12.056
 9001W        W74162  34.022   5.367  12.479
 9002W        W74163  10.228   2.469  13.919
 9003W        W74164  20.802  27.856  12.665
 9004W        W74165  24.312  30.565  13.595
 9005W        W74166   9.748   8.400   3.605
 9006W        W74167  43.812   2.289   2.630
 9007W        W74168  25.591   6.152  12.666
 9008W        W74169   1.250   5.366   4.586
 9009W        W74170  31.437  42.373  10.645
 9010W        W74171  40.977   3.361   2.289
 9011W        W74172   7.420  31.882  12.609
 9012W        W74173  42.867  17.107  14.978
 9013W        W74174  37.523  33.642   2.775
 9014W        W74175  40.126  28.862  13.063
 9015W        W74176  24.286  15.786   4.023
 9016W        W74177   6.911  30.176   2.498
 9017W        W74178  21.874  40.801   2.805
 9018W        W74179   5.411  37.013   2.207
 9019W        W74180   5.292  33.946   1.711
 9020W        W74181   7.918   2.490   1.532
 9021W        W74182  32.918   7.309   2.885
 9022W        W74183  13.401  10.758  12.839
 9023W        W74184  44.036  43.420   4.584
 9024W        W74185  13.751   2.423  13.865
 9025W        W74186  11.241  39.598   2.231
 9026W        W74187  39.222  28.270  12.539
 9027W        W74188   1.789  43.089  11.161
 9028W        W74189   7.209  27.914   4.173
 9029W        W74190   8.186  12.008   3.212
 9030W        W74191  36.596  31.625  13.554
 9031W        W74192  32.412  39.094  14.812
 9032W        W74193  29.651  21.494   5.087
 9033W        W74194   3.229  37.252  11.452
 9034W        W74195  29.180  15.573  14.279
 9035W        W74196   6.633  16.387  11.022
 9036W        W74197  42.036  18.200  11.677
 9037W        W74198   6.663  37.912  11.530
 9038W        W74199  44.685  20.607   0.169
 9039W        W74200   4.268   1.541  11.190
 9040W        W74201  27.668  37.964   4.355
 9041W        W74202  40.010   3.377  12.917
 9042W        W74203  13.110  38.105  11.548
 9043W        W74204   3.295   2.881   0.834
 9044W        W74205  28.533  22.280   0.944
 9045W        W74206   6.438  41.969   0.364
 9046W        W74207  39.790  17.272   3.336
 9047W        W74208  29.306  31.352  11.435
 9048W        W74209  30.911   0.863  13.389
 9049W        W74210  29.573  18.611  13.789
 9050W        W74211  16.550  25.231  13.657
 9051W        W74212  40.368  43.283  10.526
 9052W        W74213  19.834  21.850  13.967
 9053W        W74214  44.960   9.671   1.932
 9054W        W74215  15.368   5.681  11.555
 9055W        W74216  39.029  10.178  13.783
 9056W        W74217  41.431  18.803   4.132
 9057W        W74218  19.909  29.132  10.621
 9058W        W74219  33.899  21.551  12.851
 9059W        W74220   9.272  11.595  13.254
 9060W        W74221  30.215  16.562  12.434
 9061W        W74222  22.538  10.726   1.936
 9062W        W74223   0.552  21.005  14.459
 9063W        W74224  33.562  42.341  13.105
 9064W        W74225  21.996  23.250   0.885
 9065W        W74226   3.253  44.490  10.562
 9066W        W74227   6.283  42.270  13.515
 9067W        W74228  44.423   5.699   4.078
 9068W        W74229  23.373  33.867  11.149
 9069W        W74230  39.985  17.636   0.247
 9070W        W74231   4.667   9.428  12.948
 9071W        W74232   5.721  28.479   1.861
 9072W        W74233  20.061  16.232   1.228
 9073W        W74234  15.545  42.564   1.873
 9074W        W74235   1.538   8.148   2.171
 9075W        W74236   0.719  23.778   3.736
 9076W        W74237  28.131   0.780  13.113
 9077W        W74238  39.983   7.764  10.486
 9078W        W74239  18.533  24.117  11.461
 9079W        W74240   6.627  35.014  12.997
 9080W        W74241  36.496  32.868   0.399
 9081W        W74242   4.009   5.517   4.758
 9082W        W74243  10.360   0.909   0.741
 9083W        W74244  32.661  30.421  12.506
 9084W        W74245   0.924  42.095   0.899
 9085W        W74246   1.663  33.437   3.224
 9086W        W74247  39.101  41.970   0.543
 9087W        W74248  11.630  28.320  12.654
 9088W        W74249  32.046  21.111   3.259
 9089W        W74250  32.977  16.586   3.651
 9090W        W74251  44.285  40.417   0.536
 9091W        W74252  20.032  33.167   3.721
 9092W        W74253  36.871  32.633  13.327
 9093W        W74254  12.082   0.933  11.593
 9094W        W74255  25.993   5.732   1.005
 9095W        W74256  22.867   0.087  14.327
 9096W        W74257   8.823  18.829   2.020
 9097W        W74258  29.908  33.366   2.248
 9098W        W74259  19.142  14.160   4.768
 9099W        W74260  42.812  18.667  11.774
 9100W        W74261  43.369  13.161  12.962
 9101W        W74262  12.660  21.805  10.647
 9102W        W74263  31.199  41.920   1.949
 9103W        W74264  44.345  14.724   4.456
 9104W        W74265  20.855  32.515  14.995
 9105W        W74266   8.088  32.579   2.683
 9106W        W74267  42.913  26.502  13.334
 9107W        W74268   4.112  26.468  12.198
 9108W        W74269  10.875  12.455   0.579
 9109W        W74270   5.402   2.920   4.298
 9110W        W74271  34.109  35.575   0.400
 9111W        W74272   3.189   7.841   0.728
 9112W        W74273  43.988  11.839  14.512
 9113W        W74274  10.657  11.254   0.024
 9114W        W74275  29.947   7.801   4.331
 9115W        W74276  37.233  37.961  11.917
 9116W        W74277  30.438  37.129   1.297
 9117W        W74278  22.033   0.688  13.892
 9118W        W74279  28.001  24.274  14.597
 9119W        W74280  15.645  21.192  13.792
 9120W        W74281  24.444  19.102   2.291
 9121W        W74282  42.833   5.499  14.806
 9122W        W74283   6.716  14.254   1.409
 9123W        W74284  24.206   4.463  13.461
 9124W        W74285  41.255  35.430   3.717
 9125W        W74286  11.086  23.079   1.033
 9126W        W74287   7.796  13.291  13.838
 9127W        W74288  20.957  35.545  13.691
 9128W        W74289  20.095  38.608  11.706
 9129W        W74290  25.850  10.272  10.952
 9130W        W74291  15.915   9.905  14.569
 9131W        W74292  20.776   4.835  10.439
 9132W        W74293  27.494   3.909   1.312
 9133W        W74294  24.541  33.000  14.922
 9134W        W74295   5.942   6.734   2.809
 9135W        W74296  29.112   4.330  14.835
 9136W        W74297  22.495  13.594   3.255
 9137W        W74298   7.664  24.254   1.882
 9138W        W74299   9.116  23.246   4.368
 9139W        W74300  24.505  29.573   0.877
 9140W        W74301  35.060  43.452  13.479
 9141W        W74302   7.574  27.030   0.025
 9142W        W74303  39.422  32.652  10.890
 9143W        W74304  35.029  42.600  11.557
 9144W        W74305  12.308  31.877  13.931
 9145W        W74306  43.259  34.844  14.383
 9146W        W74307  37.246  44.338   4.089
 9147W        W74308  17.597  44.739  10.885
 9148W        W74309  19.225   1.871  12.587
 9149W        W74310   7.796  16.274  13.879
 9150W        W74311   1.392  24.476   2.549
 9151W        W74312  32.798  24.778   4.200
 9152W        W74313  43.232  40.718  11.595
 9153W        W74314   1.872  39.115  13.501
 9154W        W74315   4.758   6.066   4.233
 9155W        W74316  29.920  39.057   0.377
 9156W        W74317   2.678  43.105   1.341
 9157W        W74318  40.095  39.476   3.671
 9158W        W74319  18.653  26.208   4.360
 9159W        W74320  35.791   0.074   2.768
 9160W        W74321  40.306  29.409   2.661
 9161W        W74322  31.491  25.155   0.799
 9162W        W74323  14.642  40.121  14.987
 9163W        W74324   8.274   1.992  12.968
 9164W        W74325  21.760  35.929  10.973
 9165W        W74326  11.249  20.106  10.420
 9166W        W74327   6.211   1.010   1.375
 9167W        W74328  23.588  32.557   3.189
 9168W        W74329  44.945  30.624  12.065
 9169W        W74330   0.826  34.971  13.077
 9170W        W74331  44.990   1.048   4.146
 9171W        W74332  19.657  43.157   1.244
 9172W        W74333   5.650  19.984   2.739
 9173W        W74334  37.483   1.186   0.989
 9174W        W74335  14.220  19.184  12.119
 9175W        W74336  43.012  29.042   3.573
 9176W        W74337   5.886  38.636   0.058
 9177W        W74338   6.738  44.340  10.766
 9178W        W74339  16.168   1.420  10.717
 9179W        W74340  35.331   9.759   2.851
 9180W        W74341   9.618  31.414   3.115
 9181W        W74342  31.926   2.425  13.992
 9182W        W74343   2.786  42.300   4.563
 9183W        W74344  26.438  27.225  12.397
 9184W        W74345   0.823  36.440   2.604
 9185W        W74346   6.279  27.115  11.806
 9186W        W74347  43.973  42.895  11.638
 9187W        W74348  24.124  20.975  10.372
 9188W        W74349  26.326   2.147   0.257
 9189W        W74350  21.282  41.323   1.232
 9190W        W74351   2.782  28.583   0.322
 9191W        W74352  32.833  36.904   2.229
 9192W        W74353   1.990  18.436   0.397
 9193W        W74354  11.110  23.206  14.104
 9194W        W74355  18.819  36.518  11.693
 9195W        W74356   0.935  11.796   0.540
 9196W        W74357  15.862  39.492   0.857
 9197W        W74358  41.248  17.584   1.766
 9198W        W74359  25.627  32.998   4.045
 9199W        W74360   3.306  44.921  13.297
 9200W        W74361  33.752  35.892   2.669
 9201W        W74362  27.449  16.012  12.945
 9202W        W74363  25.288  40.603  12.139
 9203W        W74364   6.209   9.920   3.627
 9204W        W74365  10.429  23.233  11.000
 9205W        W74366  11.204  19.829  12.182
 9206W        W74367  31.098   4.763  12.575
 9207W        W74368  27.485   2.927   3.246
 9208W        W74369  28.083  34.883  11.989
 9209W        W74370  31.740   4.695  14.879
 9210W        W74371  19.287  36.644  12.571
 9211W        W74372  25.645  41.222   3.778
 9212W        W74373  24.072   8.222   2.568
 9213W        W74374  13.711  41.809   4.564
 9214W        W74375  16.586  18.350   0.070
 9215W        W74376  40.855   0.020   3.284
 9216W        W74377   4.905  28.291  14.878
 9217W        W74378  24.195   0.474  11.287
 9218W        W74379  28.721  16.321  13.248
 9219W        W74380  33.436  26.032  13.112
 9220W        W74381  26.061  25.160   0.712
 9221W        W74382  30.075  34.749  11.034
 9222W        W74383  13.157  43.499  11.655
 9223W        W74384   9.054  25.046  13.130
 9224W        W74385  39.095  40.962   2.785
 9225W        W74386  16.577  28.600   1.471
 9226W        W74387  15.615  15.627  11.939
 9227W        W74388  33.360  40.139  13.154
 9228W        W74389  10.855  31.368   4.680
 9229W        W74390  36.730  31.485   3.195
 9230W        W74391  34.391  25.232  11.989
 9231W        W74392  13.273  26.591   0.226
 9232W        W74393  32.360  43.926   1.772
 9233W        W74394  10.308   9.714  13.401
 9234W        W74395  24.486  14.354   0.010
 9235W        W74396  14.967  20.682   4.581
 9236W        W74397   4.099  23.665   9.704
 9237W        W74398  26.438  39.452  12.926
 9238W        W74399   6.677  26.729   1.215
 9239W        W74400  14.013   8.940  12.944
 9240W        W74401  13.875  35.513  11.514
 9241W        W74402  43.598  17.235   2.219
 9242W        W74403  44.352  14.248  12.870
 9243W        W74404   8.995  15.713  14.346
 9244W        W74405  16.244  13.103   0.239
 9245W        W74406  15.795  20.833  13.140
 9246W        W74407  32.118  34.572  14.123
 9247W        W74408  40.915  29.341   3.222
 9248W        W74409   4.841  43.039  10.405
 9249W        W74410  12.821  12.121   2.230
 9250W        W74411  20.258  34.947   4.019
 9251W        W74412  22.431   1.717   4.232
 9252W        W74413  25.298  35.370   4.601
 9253W        W74414  39.982  26.934  13.910
 9254W        W74415  26.714  31.874  12.319
 9255W        W74416   2.793  35.123  12.555
 9256W        W74417  29.464   0.493  12.551
 9257W        W74418   4.908  35.315   4.566
 9258W        W74419  14.430   6.900  12.990
 9259W        W74420  16.073  34.399  11.926
 9260W        W74421   2.512  32.058  13.889
 9261W        W74422  18.158   1.237  13.121
 9262W        W74423  20.517  29.234  13.916
 9263W        W74424  13.650   4.496  11.943
 9264W        W74425  44.750  21.954   0.061
 9265W        W74426   5.909  10.998   3.655
 9266W        W74427   7.600  13.153   0.242
 9267W        W74428  29.529  44.761  12.009
 9268W        W74429  41.981  38.496  14.092
 9269W        W74430  29.060  10.232   4.367
 9270W        W74431  13.700  44.187   2.257
 9271W        W74432  44.913   5.895  14.731
 9272W        W74433   9.897  44.194   1.751
 9273W        W74434  38.035  39.016  12.098
 9274W        W74435   0.738   5.440  12.057
 9275W        W74436  41.055  12.399   1.104
 9276W        W74437  18.218  21.954  12.089
 9277W        W74438  44.241  44.052  13.295
 9278W        W74439   2.261  10.612   0.349
 9279W        W74440   0.175  40.501  10.156
 9280W        W74441  28.161  35.997   4.560
 9281W        W74442  30.456  18.198  11.875
 9282W        W74443  15.181  41.552  14.429
 9283W        W74444  44.906  44.713  12.200
 9284W        W74445  38.659  38.585   0.144
 9285W        W74446  41.221  41.678   3.060
 9286W        W74447   6.137  44.826  13.856
 9287W        W74448  35.476   7.726  10.750
 9288W        W74449  29.494   1.998  13.003
 9289W        W74450  19.752  26.022   2.132
 9290W        W74451  31.105  10.596   4.968
 9291W        W74452  11.197  22.745   2.161
 9292W        W74453  34.726  21.074  10.309
 9293W        W74454  43.874  40.455   0.229
 9294W        W74455  16.186  38.527  13.985
 9295W        W74456   1.329   5.543   1.660
 9296W        W74457  14.622   4.003  11.125
 9297W        W74458   3.853  30.556  12.489
 9298W        W74459  36.664   5.301  12.567
 9299W        W74460  38.797  24.677   4.498
 9300W        W74461   4.277  10.275   0.921
 9301W        W74462   2.865   6.269  13.505
 9302W        W74463   3.932  15.963   0.340
 9303W        W74464  37.581  11.736  12.806
 9304W        W74465  25.738  10.774  14.053
 9305W        W74466   2.185   4.740   2.312
 9306W        W74467  32.192  20.614  13.795
 9307W        W74468  28.136  19.264  14.720
 9308W        W74469  36.584  22.625   3.613
 9309W        W74470  28.422  16.210  14.968
 9310W        W74471  39.339  28.919   4.226
 9311W        W74472  15.276  20.534  12.146
 9312W        W74473  21.311  31.449  14.684
 9313W        W74474  41.340  15.061  14.555
 9314W        W74475  21.133   7.781   2.522
 9315W        W74476   2.838   5.919  10.502
 9316W        W74477  28.698  19.468   1.901
 9317W        W74478  16.828  15.823   4.003
 9318W        W74479  25.377  27.236  10.097
 9319W        W74480  17.703   3.769   0.314
 9320W        W74481  21.015   2.920   2.676
 9321W        W74482  29.996  35.626   4.708
 9322W        W74483   2.854  10.096  13.029
 9323W        W74484  12.517  40.839   4.968
 9324W        W74485  40.891  28.696  12.434
 9325W        W74486  23.162  17.758   2.954
 9326W        W74487  20.718  25.598  11.212
 9327W        W74488  13.264  11.675  12.839
 9328W        W74489  34.193  27.242  10.799
 9329W        W74490  12.904  35.286  12.406
 9330W        W74491  19.004  25.129  12.114
 9331W        W74492   8.825  32.127  12.543
 9332W        W74493   4.272  29.697  12.357
 9333W        W74494  22.756   2.275   2.960
 9334W        W74495   4.876  39.273   4.251
 9335W        W74496  38.414   4.219  10.719
 9336W        W74497  31.959  44.409  10.602
 9337W        W74498  34.722  14.295   0.447
 9338W        W74499  21.538  30.190  12.092
 9339W        W74500  21.228  32.353  11.065
 9340W        W74501  23.120  18.851   0.748
 9341W        W74502  36.718  11.715  11.618
 9342W        W74503  20.144  40.414  11.188
 9343W        W74504  12.377  40.735  10.714
 9344W        W74505  33.517  15.610  12.149
 9345W        W74506   4.167   3.199   1.452
 9346W        W74507  12.962  21.973   3.717
 9347W        W74508  44.460   5.955   3.648
 9348W        W74509   7.464  18.652  11.098
 9349W        W74510  31.167   8.354   1.321
 9350W        W74511   5.761   6.882  12.413
 9351W        W74512  29.958  29.200   0.733
 9352W        W74513   0.132  16.925   4.613
 9353W        W74514  42.015   4.892  14.920
 9354W        W74515   8.282  27.520  12.839
 9355W        W74516  30.492   2.746  12.074
 9356W        W74517  13.984  12.403  13.486
 9357W        W74518  26.816  27.465  10.627
 9358W        W74519  40.064  33.388   1.323
 9359W        W74520  10.302  13.359   3.389
 9360W        W74521  10.084  44.414   1.291
 9361W        W74522  12.840  20.601   1.883
 9362W        W74523  32.933  31.386  11.198
 9363W        W74524   0.294  34.303  13.990
 9364W        W74525  17.504  38.816   3.295
 9365W        W74526  43.032  23.601  12.845
 9366W        W74527  31.361  10.840   2.299
 9367W        W74528  20.507   5.938  13.944
 9368W        W74529  33.645  18.217   0.934
 9369W        W74530  23.954  19.435  12.706
 9370W        W74531  38.818   4.005   1.922
 9371W        W74532  22.313  10.408   4.058
 9372W        W74533  16.491  35.777  13.063
 9373W        W74534  34.032  34.950  13.014
 9374W        W74535  27.657  15.595   3.705
 9375W        W74536   4.218  17.804   1.735
 9376W        W74537  16.218   9.118  13.435
 9377W        W74538  18.066  24.026   3.928
 9378W        W74539  40.479  38.443   4.849
 9379W        W74540  21.928  15.637   1.671
 9380W        W74541  44.268  25.818  14.398
 9381W        W74542  41.610  36.457   5.393
 9382W        W74543  15.379   6.358   0.869
 9383W        W74544  30.871  44.845  10.501
 9384W        W74545   7.159  19.336   2.935
 9385W        W74546   1.454   9.199   1.341
 9386W        W74547  42.971  32.375   2.755
 9387W        W74548  16.346  23.717   1.825
 9388W        W74549  30.377  29.183   0.401
 9389W        W74550   4.613  39.287   3.339
 9390W        W74551  16.107  18.257  13.314
 9391W        W74552  39.575  21.712  13.547
 9392W        W74553  30.526  42.612  13.677
 9393W        W74554   2.295  42.993   5.040
 9394W        W74555  17.170  40.081  14.001
 9395W        W74556  33.981  19.383   2.333
 9396W        W74557  17.602  31.285   4.094
 9397W        W74558  35.165  20.671  14.520
 9398W        W74559  42.396   8.937  14.298
 9399W        W74560  12.794  39.951   1.815
 9400W        W74561  23.119  31.353   3.222
 9401W        W74562  22.247  26.043   4.111
 9402W        W74563   9.897  17.476  13.995
 9403W        W74564  29.173  30.889  12.846
 9404W        W74565  38.762  35.400   4.502
 9405W        W74566  20.171  11.394   3.982
 9406W        W74567   7.221   6.818   2.273
 9407W        W74568   1.303  11.413   3.211
 9408W        W74569  29.256  34.746   4.050
 9409W        W74570  23.705  41.901  14.529
 9410W        W74571   8.730  38.002   1.871
 9411W        W74572  14.814  34.285  12.130
 9412W        W74573  16.589   8.666   1.237
 9413W        W74574  30.824  25.819  10.367
 9414W        W74575  25.261  38.372   4.359
 9415W        W74576   3.509   5.448  12.530
 9416W        W74577   4.773  13.659  14.814
 9417W        W74578  33.780  39.490   1.177
 9418W        W74579  21.531   4.196   4.865
 9419W        W74580   9.273  41.756  14.936
 9420W        W74581  28.895  32.839   2.890
 9421W        W74582  21.525  23.532  12.796
 9422W        W74583  42.428  11.149   1.308
 9423W        W74584  15.058  39.382   1.407
 9424W        W74585  44.876  26.658  13.517
 9425W        W74586  38.329  41.034  12.477
 9426W        W74587   4.426   2.722  14.285
 9427W        W74588  26.270  28.966  10.377
 9428W        W74589   9.072  24.891  10.229
 9429W        W74590   6.453  16.816  14.089
 9430W        W74591  16.532  13.547   4.569
 9431W        W74592  36.431  24.434   4.321
 9432W        W74593   6.898  31.198  13.049
 9433W        W74594   3.277   0.026  11.986
 9434W        W74595   1.938  43.514  14.440
 9435W        W74596  12.775  25.497   0.255
 9436W        W74597  30.407   3.248   3.196
 9437W        W74598  33.045  11.453   2.164
 9438W        W74599  31.193  11.295  11.547
 9439W        W74600  36.161  31.884   0.566
 9440W        W74601  34.834  22.605  12.997
 9441W        W74602  42.975  22.798  13.433
 9442W        W74603  17.407  21.990  12.407
 9443W        W74604  43.728  16.325   3.997
 9444W        W74605  12.603   2.327   1.980
 9445W        W74606  38.775  43.835   2.434
 9446W        W74607  22.050  11.653   1.919
 9447W        W74608  27.700  44.067  12.540
 9448W        W74609  31.210  42.935  11.575
 9449W        W74610  21.778   4.009   3.626
 9450W        W74611  11.618  27.115  14.339
 9451W        W74612  28.714  11.054   2.809
 9452W        W74613   5.918   8.237  13.665
 9453W        W74614  14.246  44.700   1.861
 9454W        W74615   7.310  37.799  11.984
 9455W        W74616  38.817  19.850   3.129
 9456W        W74617  17.180  29.193  10.867
 9457W        W74618  11.585  25.609   1.034
 9458W        W74619  37.740  40.676   5.430
 9459W        W74620  12.254  10.237  12.844
 9460W        W74621  10.436  40.362  11.087
 9461W        W74622   2.945  33.499  10.580
 9462W        W74623  41.147  26.013   2.907
 9463W        W74624  43.660  22.576  14.002
 9464W        W74625   4.246  26.564  14.474
 9465W        W74626  33.166  13.694   1.866
 9466W        W74627   2.191   4.336  12.603
 9467W        W74628  23.129  19.103  14.005
 9468W        W74629   0.432  10.485   9.762
 9469W        W74630  22.654  21.537  11.141
 9470W        W74631   4.893  38.564  10.705
 9471W        W74632   6.940  40.510  14.022
 9472W        W74633  21.683   6.730   2.902
 9473W        W74634  38.788  38.167  12.622
 9474W        W74635  24.517   6.676   0.724
 9475W        W74636  38.496   2.662   2.671
 9476W        W74637  44.921  40.356  13.343
 9477W        W74638   7.247  27.709  12.283
 9478W        W74639  21.844  14.813   0.843
 9479W        W74640  10.138  33.799   2.255
 9480W        W74641  15.339  23.284   2.167
 9481W        W74642  31.640   4.482   4.172
 9482W        W74643   9.079  18.212   5.032
 9483W        W74644  30.619   3.852  14.783
 9484W        W74645   8.347  42.764  14.845
 9485W        W74646  23.951   7.934  11.293
 9486W        W74647  44.723  34.066  14.814
 9487W        W74648  29.711  35.432  11.612
 9488W        W74649  37.786  34.848   4.279
 9489W        W74650  20.271   0.505   1.177
 9490W        W74651  38.825  21.567  10.755
 9491W        W74652  16.123  42.913   1.218
 9492W        W74653  40.503   0.249  14.519
 9493W        W74654  13.771  16.335  14.294
 9494W        W74655  11.407  12.935  12.041
 9495W        W74656  40.484  30.887  14.339
 9496W        W74657  31.855  10.739  14.381
 9497W        W74658  21.313   0.550  10.281
 9498W        W74659  44.740  31.868  13.518
 9499W        W74660   9.207  14.689   0.884
 9500W        W74661  25.679  38.443  14.373
 9501W        W74662  24.752  32.053   1.148
 9502W        W74663  33.086   5.391  12.466
 9503W        W74664   4.978   9.883   3.368
 9504W        W74665   8.821  25.654  14.936
 9505W        W74666  13.158  32.081   5.025
 9506W        W74667  24.245   6.090  12.506
 9507W        W74668  10.428  35.336   4.475
 9508W        W74669  42.035  42.408   0.538
 9509W        W74670  15.402  16.297   5.006
 9510W        W74671  44.918  29.575   1.354
 9511W        W74672  17.398  27.890   4.825
 9512W        W74673  18.053  13.523   2.702
 9513W        W74674  24.565   5.688  14.544
 9514W        W74675  19.826  26.237   1.241
 9515W        W74676  13.802  39.359  12.920
 9516W        W74677  38.874  35.854  10.271
 9517W        W74678  18.173  32.458  13.129
 9518W        W74679  24.663   0.788  12.867
 9519W        W74680  36.747  17.340   0.215
 9520W        W74681  24.115  13.934   4.088
 9521W        W74682  34.301  12.747   0.430
 9522W        W74683  12.391  12.148  12.416
 9523W        W74684  19.742  27.884   4.765
 9524W        W74685  28.447  41.352   1.705
 9525W        W74686  25.704   7.466  10.293
 9526W        W74687  18.180   7.933   0.015
 9527W        W74688  14.904   6.433  14.955
 9528W        W74689  20.670  20.653  14.053
 9529W        W74690  28.075  25.246  12.938
 9530W        W74691  43.745   9.472   3.234
 9531W        W74692  33.682  41.686   0.878
 9532W        W74693  32.016  38.775  11.405
 9533W        W74694  37.023   3.450   3.269
 9534W        W74695  35.979  21.762  11.541
 9535W        W74696  26.174  12.310  10.554
 9536W        W74697  19.536  10.155   1.628
 9537W        W74698  13.289  35.816  11.439
 9538W        W74699  34.074  21.509   3.698
 9539W        W74700  40.723  19.129  14.419
 9540W        W74701  28.543  43.520  10.455
 9541W        W74702  10.693  40.544  14.870
 9542W        W74703  12.506  38.341   3.148
 9543W        W74704  40.835  21.827   0.306
 9544W        W74705  35.172  31.946  12.037
 9545W        W74706  23.606  32.841   0.931
 9546W        W74707  33.132   7.712  13.885
 9547W        W74708  11.355  21.383   2.047
 9548W        W74709  44.915  11.801   5.121
 9549W        W74710   9.659  38.426  12.131
 9550W        W74711  40.534  43.215   4.634
 9551W        W74712  35.895  39.062   4.143
 9552W        W74713   3.035  31.647   4.191
 9553W        W74714  25.977  22.230   3.574
 9554W        W74715  21.798  18.217  14.069
 9555W        W74716  41.427  17.549  13.420
 9556W        W74717  32.351   0.471  12.951
 9557W        W74718  34.900  10.304  14.449
 9558W        W74719   1.688  16.007   1.865
 9559W        W74720  40.213  17.321   0.581
 9560W        W74721  30.455  19.974  13.453
 9561W        W74722  33.801  16.192  10.531
 9562W        W74723   8.685  31.110   2.888
 9563W        W74724   6.643  19.185  11.063
 9564W        W74725  30.060  16.754   0.423
 9565W        W74726  29.197  37.000   0.146
 9566W        W74727  28.473  26.796  10.614
 9567W        W74728  25.624  17.609   3.939
 9568W        W74729   4.626  15.859   1.274
 9569W        W74730   2.029  39.059  10.730
 9570W        W74731  33.364  18.514  12.436
 9571W        W74732   6.850  35.491   1.808
 9572W        W74733   0.409  30.461  10.746
 9573W        W74734  13.799  28.931  11.542
 9574W        W74735  31.238   0.966  14.950
 9575W        W74736   2.362  36.290  11.712
 9576W        W74737  12.372  40.549  12.013
 9577W        W74738  11.846   9.931  10.857
 9578W        W74739  18.163   6.177  13.407
 9579W        W74740   3.716  18.992   0.011
 9580W        W74741  19.087  42.705   3.129
 9581W        W74742  19.187  10.833   4.132
 9582W        W74743  37.040  16.827  13.575
 9583W        W74744  26.692  16.750  14.845
 9584W        W74745  40.329  38.027  12.454
 9585W        W74746  37.071   0.956   0.772
 9586W        W74747  14.898  35.581   0.520
 9587W        W74748  27.132  21.986   3.082
 9588W        W74749  17.003  31.397   2.252
 9589W        W74750   9.210  23.443   2.245
 9590W        W74751  41.734  24.286  14.826
 9591W        W74752  27.243  35.296  12.467
 9592W        W74753   1.476   7.322   3.205
 9593W        W74754  10.369  36.856   3.105
 9594W        W74755   8.156  40.492  12.213
 9595W        W74756  39.590   7.082   0.273
 9596W        W74757  30.490  26.080  10.049
 9597W        W74758  12.087   3.237  12.558
 9598W        W74759  29.204   9.902   3.230
 9599W        W74760   5.733  14.540   1.180
 9600W        W74761  38.504  11.823   2.376
 9601W        W74762   2.261  43.643  11.534
 9602W        W74763  18.366  43.488   2.664
 9603W        W74764  36.103  27.217  11.778
 9604W        W74765  36.874  30.006  13.868
 9605W        W74766   9.447  42.481  11.548
 9606W        W74767   2.418  33.114   4.929
 9607W        W74768  28.634  27.202   3.685
 9608W        W74769  11.138  23.684   4.810
 9609W        W74770   5.740   3.936   2.053
 9610W        W74771  39.864  31.022   0.260
 9611W        W74772   1.694  30.007  13.953
 9612W        W74773  30.373  21.748  11.110
 9613W        W74774   9.848  41.880  12.498
 9614W        W74775  10.299  26.797  12.717
 9615W        W74776  40.746  30.044  14.567
 9616W        W74777  38.326  41.035  10.320
 9617W        W74778  17.591  13.794  13.223
 9618W        W74779  12.810   9.312   3.252
 9619W        W74780  33.397  28.724   2.406
 9620W        W74781  36.818   2.580  11.481
 9621W        W74782  24.375  39.090  13.480
 9622W        W74783   5.247  25.934  11.128
 9623W        W74784  33.205  21.651   0.744
 9624W        W74785  32.410   2.766  14.478
 9625W        W74786  28.501  13.212  13.047
 9626W        W74787  34.215  26.203  14.422
 9627W        W74788  16.700  12.825  12.556
 9628W        W74789  17.064  29.582  13.467
 9629W        W74790  24.509  27.615   3.636
 9630W        W74791  38.952  18.996  10.625
 9631W        W74792   6.412  30.527  13.801
 9632W        W74793  15.503  12.389   3.562
 9633W        W74794   7.870  13.620  10.688
 9634W        W74795  32.042  28.672   3.721
 9635W        W74796  42.941  21.259   5.036
 9636W        W74797   6.999  35.552   2.293
 9637W        W74798  29.575  37.882   0.743
 9638W        W74799  38.566   5.474  13.539
 9639W        W74800  32.181   9.656   4.912
 9640W        W74801  18.567  16.154  12.088
 9641W        W74802  37.022   5.375   4.658
 9642W        W74803  34.519  18.479  10.530
 9643W        W74804  10.722  43.764  12.454
 9644W        W74805  28.745  10.271   1.024
 9645W        W74806   8.726   1.076  14.170
 9646W        W74807   8.347   8.392  14.495
 9647W        W74808  25.220  35.587  14.459
 9648W        W74809   3.705  39.895   1.444
 9649W        W74810  34.222   6.074   0.523
 9650W        W74811  34.989  26.859   1.704
 9651W        W74812  14.811  33.847   1.451
 9652W        W74813  29.038  28.653   4.607
 9653W        W74814   6.509  28.130  13.312
 9654W        W74815   0.770  23.955   1.913
 9655W        W74816  40.016  24.729  12.537
 9656W        W74817  25.696  10.236   9.981
 9657W        W74818   9.267   6.008  14.927
 9658W        W74819  43.380  37.801  12.846
 9659W        W74820  13.115  23.582  12.461
 9660W        W74821   1.924   4.681   2.820
 9661W        W74822  33.938  41.042  13.735
 9662W        W74823  23.484  36.525  13.370
 9663W        W74824  35.594   8.293   3.744
 9664W        W74825  21.940  11.109   0.395
 9665W        W74826  18.058  16.458   2.655
 9666W        W74827  31.086  29.895  12.510
 9667W        W74828  39.976  11.080  13.453
 9668W        W74829  39.759  10.595   3.326
 9669W        W74830  40.929  29.859  11.507
 9670W        W74831  34.436   2.900   1.622
 9671W        W74832   8.266   6.479  13.297
 9672W        W74833  24.147   4.827   0.248
 9673W        W74834  22.378  27.596  13.419
 9674W        W74835  31.648  40.162   3.364
 9675W        W74836  42.032  38.484   0.074
 9676W        W74837  32.797  13.363  14.777
 9677W        W74838  43.188  18.813  11.458
 9678W        W74839  10.312  37.735   1.922
 9679W        W74840  20.575  21.365  10.304
 9680W        W74841  40.367  11.931   0.483
 9681W        W74842   1.704  12.117  14.167
 9682W        W74843  25.110   6.731  14.881
 9683W        W74844  13.727   9.352  12.529
 9684W        W74845  20.328  29.231  10.886
 9685W        W74846   9.699  18.661  10.798
 9686W        W74847  40.231   4.277  11.081
 9687W        W74848   5.253  10.753  14.762
 9688W        W74849   8.683  12.741   3.204
 9689W        W74850  11.469  33.436  14.009
 9690W        W74851  17.085  14.837  11.809
 9691W        W74852  20.500   5.756   2.220
 9692W        W74853  18.648  41.154  12.096
 9693W        W74854   5.787   2.168  12.353
 9694W        W74855  13.899  23.783   0.292
 9695W        W74856  21.172   6.537   2.721
 9696W        W74857  24.980  28.656   2.566
 9697W        W74858  23.779  30.535   1.866
 9698W        W74859   5.907  36.619   2.278
 9699W        W74860  39.529   7.608   0.760
 9700W        W74861   9.859  41.366   3.175
 9701W        W74862  30.142   4.669  12.473
 9702W        W74863  16.564  38.890  10.791
 9703W        W74864  17.286  26.596  10.644
 9704W        W74865  18.059  43.411   4.048
 9705W        W74866  27.100  35.658   3.115
 9706W        W74867  26.642  21.764  10.303
 9707W        W74868  18.059  16.262  11.986
 9708W        W74869  25.995  29.780  12.400
 9709W        W74870  22.680  26.743  13.149
 9710W        W74871  41.255  24.636   4.583
 9711W        W74872   3.950  44.049  12.558
 9712W        W74873   0.833  40.763  13.550
 9713W        W74874  41.889  42.887   4.158
 9714W        W74875  31.442  24.152   2.365
 9715W        W74876   0.951  29.559   4.774
 9716W        W74877   6.526  44.816  10.695
 9717W        W74878  29.603   0.954  12.814
 9718W        W74879   8.700   6.952   0.725
 9719W        W74880   1.928  41.154   4.475
 9720W        W74881  43.469  20.507   3.431
 9721W        W74882   1.297   8.351  11.141
 9722W        W74883  23.147  41.893  10.569
 9723W        W74884  20.123  22.952  14.545
 9724W        W74885  25.922  24.411   0.360
 9725W        W74886  10.148  24.352  11.514
 9726W        W74887  17.054   8.941   3.732
 9727W        W74888  38.511  30.042  12.774
 9728W        W74889  34.453  43.993  12.358
 9729W        W74890  39.437  37.938   4.042
 9730W        W74891  19.074   4.373   4.569
 9731W        W74892  10.753  20.662  12.957
 9732W        W74893  20.431  43.264  14.346
 9733W        W74894  31.610  17.255  11.146
 9734W        W74895  30.401  17.094   1.190
 9735W        W74896  40.371  32.534   4.674
 9736W        W74897  19.937  12.840  11.965
 9737W        W74898  28.992  19.584  11.422
 9738W        W74899  14.261  18.560  13.507
 9739W        W74900  38.994  14.783  10.261
 9740W        W74901  15.067  40.285   1.763
 9741W        W74902  11.544  38.993   0.427
 9742W        W74903  34.775  32.636  12.520
 9743W        W74904  36.476  34.675  14.511
 9744W        W74905  24.970   0.994  12.080
 9745W        W74906  28.910  12.058   3.648
 9746W        W74907  27.180  28.944   3.270
 9747W        W74908  10.790  32.346   0.294
 9748W        W74909   5.990  16.457   3.645
 9749W        W74910  40.594  37.573  14.405
 9750W        W74911  39.110  12.764   1.659
 9751W        W74912  21.833   8.333  13.977
 9752W        W74913   8.983  22.826   4.630
 9753W        W74914  42.994  11.159  10.682
 9754W        W74915   3.453  41.657   3.134
 9755W        W74916   1.353  15.090   0.292
 9756W        W74917   2.097  24.443   1.074
 9757W        W74918  12.388  31.375  11.189
 9758W        W74919  17.573  31.678   0.430
 9759W        W74920  15.621   5.610   0.523
 9760W        W74921   2.406  33.108   0.744
 9761W        W74922  30.835  44.731  11.907
 9762W        W74923  17.287  24.530   3.254
 9763W        W74924  14.236  27.014   2.263
 9764W        W74925  35.150  20.677   4.562
 9765W        W74926  44.944   6.683   3.750
 9766W        W74927  30.141   7.209  13.353
 9767W        W74928  26.071  23.134  12.175
 9768W        W74929  39.045  10.236  12.497
 9769W        W74930  27.251  30.015   4.632
 9770W        W74931  29.279  28.707  13.910
 9771W        W74932   9.294   4.465   2.750
 9772W        W74933  38.481   5.872  13.890
 9773W        W74934  12.224  26.132   1.410
 9774W        W74935  24.294  16.714   4.324
 9775W        W74936  30.955  10.094  10.121
 9776W        W74937   7.158   4.481   1.780
 9777W        W74938  32.950  42.950  13.394
 9778W        W74939  26.297  44.420  13.539
 9779W        W74940   2.794  31.384   4.763
 9780W        W74941  13.776   9.465   0.832
 9781W        W74942  18.045  43.052   2.495
 9782W        W74943  31.552  12.695  14.557
 9783W        W74944  10.702   2.706  13.815
 9784W        W74945  31.968  13.992  10.725
 9785W        W74946  20.334  20.004  11.018
 9786W        W74947  36.395   7.783  12.458
 9787W        W74948  44.370  11.254  12.096
 9788W        W74949  30.533  28.199   0.435
 9789W        W74950  35.068  18.622   4.248
 9790W        W74951  17.324  24.618   1.497
 9791W        W74952  42.318  41.289  12.841
 9792W        W74953  22.207   8.811  14.044
 9793W        W74954   0.787  21.514   0.282
 9794W        W74955  26.106  14.254   5.008
 9795W        W74956  43.445  21.305  12.550
 9796W        W74957  18.048   0.906  12.730
 9797W        W74958  13.661  18.591   3.335
 9798W        W74959  41.426  26.074  10.818
 9799W        W74960  28.208  33.364   1.935
 9800W        W74961  19.004   3.056  14.766
 9801W        W74962  21.148  38.189   0.276
 9802W        W74963  30.169  17.240   3.913
 9803W        W74964   1.212   8.387   3.651
 9804W        W74965  43.925  31.779   0.219
 9805W        W74966  25.565  34.920   4.530
 9806W        W74967  36.584  30.650  13.504
 9807W        W74968  27.549   1.260   2.332
 9808W        W74969  29.096  29.752   0.498
 9809W        W74970  33.577  26.150  11.614
 9810W        W74971  41.827  36.023   3.292
 9811W        W74972   1.588   5.268  12.491
 9812W        W74973  34.795  15.325   0.342
 9813W        W74974   0.234  31.837  10.420
 9814W        W74975  34.931  19.313  13.016
 9815W        W74976  30.490  23.186   2.265
 9816W        W74977  33.479  31.645   2.695
 9817W        W74978  33.117   3.010   3.476
 9818W        W74979   0.994  28.664   1.654
 9819W        W74980  33.189  39.941   1.434
 9820W        W74981  29.567  15.775   2.360
 9821W        W74982  39.299  11.215   2.851
 9822W        W74983  30.193   2.849  10.600
 9823W        W74984  37.586  25.925  14.436
 9824W        W74985  22.465  27.666  14.008
 9825W        W74986   3.259  38.661  12.621
 9826W        W74987  41.791  35.138  14.515
 9827W        W74988  27.948  16.145   1.825
 9828W        W74989  12.816  28.187   4.095
 9829W        W74990  40.816  27.870   0.983
 9830W        W74991  35.179  23.493  11.154
 9831W        W74992  21.185  17.434  12.577
 9832W        W74993  37.843  21.980  12.038
 9833W        W74994  33.084   4.989   1.400
 9834W        W74995  43.080  11.062   3.521
 9835W        W74996  24.962  27.028   2.014
 9836W        W74997  20.168   2.360   2.911
 9837W        W74998  38.268  41.774  12.006
 9838W        W74999  12.843  33.453  14.397
 9839W        W75000  26.197  39.439   2.264
 9840W        W75001  32.431  34.015   3.682
 9841W        W75002  33.987  13.196   2.761
 9842W        W75003  31.921   3.334  14.454
 9843W        W75004  29.212  42.468   1.379
 9844W        W75005  16.651  28.908   4.588
 9845W        W75006  43.711  40.321   1.839
 9846W        W75007   6.731  30.841   5.482
 9847W        W75008   5.855  37.392  11.315
 9848W        W75009   8.240  34.165  12.477
 9849W        W75010  29.242   1.031  13.847
 9850W        W75011   4.309  13.435   1.190
 9851W        W75012  17.663  15.156   0.035
 9852W        W75013  18.090  44.242   0.329
 9853W        W75014  25.628  40.026   4.772
 9854W        W75015  35.577  33.390   2.055
 9855W        W75016   7.274  15.441  11.560
 9856W        W75017  15.388  41.333   2.696
 9857W        W75018  17.725  16.937   1.964
 9858W        W75019  41.781   8.797   4.211
 9859W        W75020  39.963  12.437   1.803
 9860W        W75021  32.133  39.274  11.296
 9861W        W75022  39.947  33.824   4.379
 9862W        W75023   8.899   8.881   2.698
 9863W        W75024  21.739  15.395  12.555
 9864W        W75025  22.147   8.984  10.502
 9865W        W75026   8.110  27.595   0.260
 9866W        W75027  42.353  25.895   4.339
 9867W        W75028  27.720  33.019   2.767
 9868W        W75029   5.550  10.377   0.839
 9869W        W75030   1.856  32.094   3.299
 9870W        W75031  22.119  42.189  11.192
 9871W        W75032  11.590  22.032   3.299
 9872W        W75033   5.795  18.236   2.074
 9873W        W75034  17.145  36.097  12.739
 9874W        W75035  39.596  27.508   1.858
 9875W        W75036   6.775  34.375  14.985
 9876W        W75037   3.971  15.783  11.469
 9877W        W75038  17.630  28.896  11.874
 9878W        W75039   1.776  40.610  11.685
 9879W        W75040  29.302   5.351   2.682
 9880W        W75041   7.977  33.183   2.302
 9881W        W75042  44.736   6.981   1.464
 9882W        W75043  31.209  34.944   3.711
 9883W        W75044  44.597  44.821   3.740
 9884W        W75045  11.795  35.080   4.988
 9885W        W75046  18.328  15.058  12.953
 9886W        W75047  34.354  35.879  13.414
 9887W        W75048  19.820  24.554  11.156
 9888W        W75049  43.236  22.128  10.826
 9889W        W75050  42.403  39.514   2.785
 9890W        W75051  24.779   1.194   0.303
 9891W        W75052  13.298  17.762   2.746
 9892W        W75053  32.555  20.622   4.044
 9893W        W75054   1.990  16.988   1.725
 9894W        W75055  31.639  23.911   2.794
 9895W        W75056  12.183   8.149  14.500
 9896W        W75057  34.087  22.101  10.611
 9897W        W75058  39.655  32.927  11.276
 9898W        W75059  33.577  39.523   4.057
 9899W        W75060  12.865  25.977  12.057
 9900W        W75061  16.485  27.056   0.929
 9901W        W75062  34.196  19.291   4.104
 9902W        W75063   0.676  12.759  11.992
 9903W        W75064  17.970   5.743  13.638
 9904W        W75065  23.189  17.640   0.330
 9905W        W75066   3.834   5.334   0.295
 9906W        W75067  24.023   3.315  14.533
 9907W        W75068   3.371  23.129  11.439
 9908W        W75069  38.557  31.349  13.304
 9909W        W75070   4.158  37.773  13.185
 9910W        W75071  20.030  22.086  12.015
 9911W        W75072  22.191   8.637   1.968
 9912W        W75073  33.835  35.356   0.808
 9913W        W75074  44.279  40.001   2.372
 9914W        W75075  27.127   6.440  13.087
 9915W        W75076  11.177   8.818  11.096
 9916W        W75077  43.715  40.890  11.667
 9917W        W75078   8.224  17.788   2.192
 9918W        W75079   8.905   2.300   4.719
 9919W        W75080   6.857   2.883  10.639
 9920W        W75081   0.852  39.878  11.081
 9921W        W75082  30.943  18.769  10.703
 9922W        W75083  30.965  22.456   3.926
 9923W        W75084  17.757   6.400  13.142
 9924W        W75085  36.355  17.286  13.329
 9925W        W75086   3.921  20.650  14.838
 9926W        W75087  20.164  23.727   4.500
 9927W        W75088  21.611  20.528  12.447
 9928W        W75089  30.721   2.875  10.611
 9929W        W75090   4.609  17.459  13.941
 9930W        W75091  31.635  32.203  13.527
 9931W        W75092   6.686  32.874  12.059
 9932W        W75093  10.764  14.633  10.965
 9933W        W75094  15.744  31.611   3.754
 9934W        W75095  41.344  35.935   4.716
 9935W        W75096   9.736  39.892  14.982
 9936W        W75097  41.908  13.339   2.847
 9937W        W75098  41.735  36.882   0.281
 9938W        W75099  15.699  20.182   4.981
 9939W        W75100  26.026  32.817  12.400
 9940W        W75101  22.037  27.505  12.025
 9941W        W75102  10.233  33.044  11.515
 9942W        W75103  34.916   3.584  14.431
 9943W        W75104   6.713  33.042  12.795
 9944W        W75105  35.830  35.346   0.945
 9945W        W75106  41.132  36.370  13.052
 9946W        W75107  42.028  37.507  14.505
 9947W        W75108   6.408  38.337  12.015
 9948W        W75109  41.294   9.406  10.710
 9949W        W75110  23.681  15.420  12.360
 9950W        W75111  35.626  26.395  11.200
 9951W        W75112   5.233  13.370   2.317
 9952W        W75113  33.326  15.321  10.992
 9953W        W75114  34.922  15.028  14.800
 9954W        W75115  29.192  42.819   1.745
 9955W        W75116  13.674  28.457   2.628
 9956W        W75117  18.987   3.258   1.802
 9957W        W75118  38.793  25.722  11.903
 9958W        W75119   2.561  32.478   1.354
 9959W        W75120   8.427  16.347   4.581
 9960W        W75121  20.419  22.216   0.113
 9961W        W75122  40.804  41.899   3.821
 9962W        W75123   8.458  24.110   1.149
 9963W        W75124  25.055   3.312  14.510
 9964W        W75125  41.074  24.594   0.360
 9965W        W75126  29.550  18.535   1.686
 9966W        W75127  21.077  43.213   4.632
 9967W        W75128   4.799  34.907  11.580
 9968W        W75129  16.829  33.476   0.111
 9969W        W75130  33.576  19.088  11.583
 9970W        W75131   7.539  22.182   1.791
 9971W        W75132   2.340  27.659   2.173
 9972W        W75133   9.555   5.423   0.279
 9973W        W75134  25.702  38.323   3.531
 9974W        W75135   4.341  40.836   0.758
 9975W        W75136  23.351  32.590   1.991
 9976W        W75137  10.284  12.269  13.316
 9977W        W75138  32.109  17.149  12.394
 9978W        W75139  41.875  26.229  13.932
 9979W        W75140   4.731  23.947   0.286
 9980W        W75141   0.549  27.940   1.318
 9981W        W75142  18.289  35.413  14.477
 9982W        W75143   0.010  39.446  11.976
 9983W        W75144  13.732   2.009   0.932
 9984W        W75145  18.106  34.549   4.245
 9985W        W75146  29.143  22.419   3.574
 9986W        W75147  40.916   2.478  11.571
 9987W        W75148   5.961   4.688  12.504
 9988W        W75149   0.028   2.227  13.013
 9989W        W75150  42.840   1.222   4.742
 9990W        W75151  22.126  22.550   0.248
 9991W        W75152  35.176  20.262   2.290
 9992W        W75153  15.051  33.841  11.947
 9993W        W75154  19.064  30.121   3.222
 9994W        W75155  21.102   8.455  13.525
 9995W        W75156  13.720  13.405  12.407
 9996W        W75157  33.151  35.115   2.487
 9997W        W75158   9.424  44.526   4.077
 9998W        W75159  11.953  25.729   3.254
 9999W        W75160  21.571  25.862  14.300
10000W        W75161   8.241  18.764  14.867
10001W        W75162  34.520  29.766   4.146
10002W        W75163  32.041  26.990  14.056
10003W        W75164  42.284  29.382  10.675
10004W        W75165  20.006  15.137   0.793
10005W        W75166  23.676  30.517  13.226
10006W        W75167  26.547  19.176  11.558
10007W        W75168  35.811  43.902  12.086
10008W        W75169  35.978  22.181  13.364
10009W        W75170  29.600  31.095   4.746
10010W        W75171  37.128  22.092  14.814
10011W        W75172  12.365   3.267  13.437
10012W        W75173  15.562  44.081  10.248
10013W        W75174   5.786  15.815  11.216
10014W        W75175  40.875  38.446   0.217
10015W        W75176   9.048  16.854   2.683
10016W        W75177  34.646   0.265  11.634
10017W        W75178  34.243  41.801  13.513
10018W        W75179  21.703  15.062   1.281
10019W        W75180  11.057  23.166  10.721
10020W        W75181   6.696   4.712   1.381
10021W        W75182  41.883  24.188   4.165
10022W        W75183  38.926   0.001   1.770
10023W        W75184  14.172   5.523   1.056
10024W        W75185  11.278  29.425  10.407
10025W        W75186  16.829  27.997  14.478
10026W        W75187  11.905  12.619   3.581
10027W        W75188   2.942  42.668   2.293
10028W        W75189  17.172  20.212   0.766
10029W        W75190   0.893  25.509  14.299
10030W        W75191  22.172  11.932  13.793
10031W        W75192  19.128  35.506  10.635
10032W        W75193  33.257   3.093   4.311
10033W        W75194  20.182  33.900   4.168
10034W        W75195  13.393   0.006  12.959
10035W        W75196  43.629  35.365  10.768
10036W        W75197  30.031  33.062  11.375
10037W        W75198  28.482  31.500  11.064
10038W        W75199  42.209   4.387  14.305
10039W        W75200  22.018  41.324   9.991
10040W        W75201  15.328  13.781  11.668
10041W        W75202  27.919   0.575   5.415
10042W        W75203  23.829  19.030  11.953
10043W        W75204  32.591  25.454  12.492
10044W        W75205  44.740  15.118   2.813
10045W        W75206  33.435   5.376   4.544
10046W        W75207  37.827  28.572  11.578
10047W        W75208  32.843  40.484  11.880
10048W        W75209  16.126  29.015  14.479
10049W        W75210  29.329  42.925   2.667
10050W        W75211   8.410   7.336   0.442
10051W        W75212   0.945  40.898  12.032
10052W        W75213   9.287  43.624  11.882
10053W        W75214  31.970   1.703   0.951
10054W        W75215  40.052  36.874   0.825
10055W        W75216  25.795  13.199   0.856
10056W        W75217  39.288  34.450   1.932
10057W        W75218  43.825  17.273   4.652
10058W        W75219  32.504   2.444   4.456
10059W        W75220  14.859   9.698  14.426
10060W        W75221  44.900  32.605   2.760
10061W        W75222   5.270  41.992  14.866
10062W        W75223  42.476   8.128  10.812
10063W        W75224  31.573  37.905   0.718
10064W        W75225  18.795   8.139   1.741
10065W        W75226  40.468  38.942   0.849
10066W        W75227  25.632  25.679  12.056
10067W        W75228   7.696  42.749  13.533
10068W        W75229  43.376  34.497  12.515
10069W        W75230  26.887  18.090  12.879
10070W        W75231  22.055  42.003   4.422
10071W        W75232   2.216  23.816   4.512
10072W        W75233  20.342  10.086   0.952
10073W        W75234  41.857  38.932  12.831
10074W        W75235   8.410   7.827  13.252
10075W        W75236  11.410  40.443   1.327
10076W        W75237  21.465   1.941  14.087
10077W        W75238  24.875  20.316  13.459
10078W        W75239   6.332   7.754   1.008
10079W        W75240  14.855   9.250   4.739
10080W        W75241   3.334  33.483  14.968
10081W        W75242  30.169  18.060   4.691
10082W        W75243  24.233  27.217  10.527
10083W        W75244  39.145  21.213   0.773
10084W        W75245   6.679  29.130   4.168
10085W        W75246  23.536  33.937   2.000
10086W        W75247  10.820  18.158   4.195
10087W        W75248  34.428   0.818  14.735
10088W        W75249  13.169  13.738   3.627
10089W        W75250   0.262  33.781  14.002
10090W        W75251  16.664  30.687   3.014
10091W        W75252  36.411  25.760  12.439
10092W        W75253  29.959  17.903  11.582
10093W        W75254  19.154  43.876   1.451
10094W        W75255  14.323  35.767   0.766
10095W        W75256   2.475  20.774  13.805
10096W        W75257  43.962   5.838   1.306
10097W        W75258  13.258   3.935  10.710
10098W        W75259  36.115   7.524   3.708
10099W        W75260  15.069  42.064   0.303
10100W        W75261  24.032  36.515  11.633
10101W        W75262   9.764  32.921   0.285
10102W        W75263  21.816  13.752  14.894
10103W        W75264  32.358   9.188   1.222
10104W        W75265  36.980  29.685   1.903
10105W        W75266   4.768   6.305   2.533
10106W        W75267  28.077   4.452   1.860
10107W        W75268  31.931  34.021   3.802
10108W        W75269   2.411  16.705  13.775
10109W        W75270  40.318  37.407   1.978
10110W        W75271   5.165   5.837  13.444
10111W        W75272  39.788  42.583  11.502
10112W        W75273  30.976  13.953   4.551
10113W        W75274  30.397  19.462   3.406
10114W        W75275  21.602  12.680  11.446
10115W        W75276  35.798   5.305   4.131
10116W        W75277  32.564   1.722   4.059
10117W        W75278  12.635  39.522   0.877
10118W        W75279  38.305  43.463  10.724
10119W        W75280   0.325  11.909   5.434
10120W        W75281  19.072  38.396   4.166
10121W        W75282   6.139  22.465   3.976
10122W        W75283   9.557  14.301   3.257
10123W        W75284  35.888  29.966   3.752
10124W        W75285  27.966  40.897  11.439
10125W        W75286   1.827  39.349  12.812
10126W        W75287   5.364  29.531  11.566
10127W        W75288   8.379  12.283   2.717
10128W        W75289  41.352  43.347   0.850
10129W        W75290  12.628  31.746  12.954
10130W        W75291  28.640  41.037   0.288
10131W        W75292   8.136   9.759   0.814
10132W        W75293   5.478  37.969   4.724
10133W        W75294  24.642  21.086   0.334
10134W        W75295  39.116  14.338   0.133
10135W        W75296   8.403  34.117  11.533
10136W        W75297  28.764  20.837   1.819
10137W        W75298  38.762  15.691   1.363
10138W        W75299  25.876  24.794   4.155
10139W        W75300  38.514  23.519   4.148
10140W        W75301  31.508  18.320  13.348
10141W        W75302  17.096  42.234   0.001
10142W        W75303   6.417  21.051  14.000
10143W        W75304  25.277  25.879   2.790
10144W        W75305  10.804  11.168   1.960
10145W        W75306  16.901  26.484   1.825
10146W        W75307  11.569  40.014   4.383
10147W        W75308  41.873  40.995   5.240
10148W        W75309  14.023  25.564   0.919
10149W        W75310  27.253  38.733  12.229
10150W        W75311  23.543  41.909  10.904
10151W        W75312  17.012  32.556  13.901
10152W        W75313  39.873   7.754  13.413
10153W        W75314   6.942  20.348   4.541
10154W        W75315  23.459  30.850  10.787
10155W        W75316  38.897  23.634   2.114
10156W        W75317  28.351  22.353  13.942
10157W        W75318  36.123  16.106   2.939
10158W        W75319   7.277  35.863   3.897
10159W        W75320  22.206   9.629  12.615
10160W        W75321  14.674  31.078   3.619
10161W        W75322  24.536  19.311   2.744
10162W        W75323  11.252   8.397  13.899
10163W        W75324   5.848  14.669   4.791
10164W        W75325  24.153  14.350  12.923
10165W        W75326   7.375  11.209   4.272
10166W        W75327  16.975   4.744   4.362
10167W        W75328  24.021  19.989  12.072
10168W        W75329  43.090  39.064   4.387
10169W        W75330  17.687  23.132   3.189
10170W        W75331  10.779   4.488  14.401
10171W        W75332  39.368  37.261   1.808
10172W        W75333  11.385  25.103   2.567
10173W        W75334   6.592  20.674  13.688
10174W        W75335  16.757  43.507  13.405
10175W        W75336  20.647  19.195  13.916
10176W        W75337  13.046   2.418   2.759
10177W        W75338  24.083  41.025   3.537
10178W        W75339  40.393   7.714  12.641
10179W        W75340   8.395  34.392   1.828
10180W        W75341  24.557   6.708   4.433
10181W        W75342  40.186   3.210   4.270
10182W        W75343  16.721   8.384  13.498
10183W        W75344  24.058  29.548   4.650
10184W        W75345  27.558  18.696  10.524
10185W        W75346   0.703  12.777  13.038
10186W        W75347  29.774  15.628   3.673
10187W        W75348  21.011  25.651  14.941
10188W        W75349  28.455   8.772   1.017
10189W        W75350  44.789  17.214  13.000
10190W        W75351  30.879  42.441  14.830
10191W        W75352   7.190  30.556  10.454
10192W        W75353  25.795  31.445  10.732
10193W        W75354  18.705  11.362   1.038
10194W        W75355   5.918  28.686   3.676
10195W        W75356  26.960   8.813   3.631
10196W        W75357  16.857  20.756  11.707
10197W        W75358  23.899   5.828  13.412
10198W        W75359  19.257   3.507  12.707
10199W        W75360   4.178  28.865   0.257
10200W        W75361  16.033  42.890  12.344
10201W        W75362  28.991  30.674   0.798
10202W        W75363  35.422   9.157   4.094
10203W        W75364  34.468  25.427  11.186
10204W        W75365  22.680  43.520   1.922
10205W        W75366  13.156  26.049  12.540
10206W        W75367  30.926   6.449  12.008
10207W        W75368  20.543  27.677  14.898
10208W        W75369  27.075  31.678   0.723
10209W        W75370  41.019  26.919  11.952
10210W        W75371  20.701  34.357  11.587
10211W        W75372  25.134  15.658  12.023
10212W        W75373  37.345  43.303   0.020
10213W        W75374  28.654  10.412  12.351
10214W        W75375  29.032   6.351   2.681
10215W        W75376  43.744  22.980  13.100
10216W        W75377  10.117  40.589  11.444
10217W        W75378  15.286  29.531   4.216
10218W        W75379  33.519  21.698  11.557
10219W        W75380  17.144  20.971   1.940
10220W        W75381  37.830  40.025  13.937
10221W        W75382   4.814  39.259  14.985
10222W        W75383   3.368  38.792  11.628
10223W        W75384  32.904  15.433  13.390
10224W        W75385   2.877  11.858   1.210
10225W        W75386   9.934  23.215   3.683
10226W        W75387  26.195   4.870   2.738
10227W        W75388  19.231  36.413   3.688
10228W        W75389  27.462  26.600   2.540
10229W        W75390  17.280  40.570  13.356
10230W        W75391  22.978  15.497   2.789
10231W        W75392   6.819  36.874   1.901
10232W        W75393   7.207   5.402   1.421
10233W        W75394  27.577  24.311   4.883
10234W        W75395  12.109  21.570  13.971
10235W        W75396  10.074  41.458  11.551
10236W        W75397   5.352  41.429   3.556
10237W        W75398  35.231  14.281   0.365
10238W        W75399  16.545  19.325   4.053
10239W        W75400   6.909  43.692  14.894
10240W        W75401   9.949  42.481  11.574
10241W        W75402   7.992  37.872  11.222
10242W        W75403  40.061   4.064   4.907
10243W        W75404  38.945  42.169   1.481
10244W        W75405   0.757  11.872   4.011
10245W        W75406  42.286  34.623   3.126
10246W        W75407  44.394  23.950   2.780
10247W        W75408  23.172  40.348   0.355
10248W        W75409  44.303  18.859  10.686
10249W        W75410  26.536  33.489  12.630
10250W        W75411   4.607  43.312   5.058
10251W        W75412  25.001  22.725  12.360
10252W        W75413   6.509   6.161   4.350
10253W        W75414  17.585   5.209   1.686
10254W        W75415  26.670  37.627   2.833
10255W        W75416  23.377  23.062   2.759
10256W        W75417   6.892  36.610  12.470
10257W        W75418   6.179  24.722   2.161
10258W        W75419   8.827  17.678   3.931
10259W        W75420  40.464   1.806   1.033
10260W        W75421  35.206  42.700   4.089
10261W        W75422  30.898  41.179  14.208
10262W        W75423  34.514  35.558  10.395
10263W        W75424  28.387  24.668   1.816
10264W        W75425   0.302  29.516   0.336
10265W        W75426  14.680  38.529  13.054
10266W        W75427  29.475   3.321  14.273
10267W        W75428   3.831   6.855   4.902
10268W        W75429  14.134  32.165   0.818
10269W        W75430   7.460   1.708   3.725
10270W        W75431  23.239  44.128   3.885
10271W        W75432  15.483   8.853   4.510
10272W        W75433  16.361  42.813   2.193
10273W        W75434  39.584  23.665   4.181
10274W        W75435  41.961  11.870  14.872
10275W        W75436  18.431  38.337  14.753
10276W        W75437  38.246  33.908  11.755
10277W        W75438  40.111  14.567  14.279
10278W        W75439  42.663   8.952  12.871
10279W        W75440   6.670  11.757  12.514
10280W        W75441  27.660   3.702   2.672
10281W        W75442   7.831   1.982   3.431
10282W        W75443  43.827  33.874  13.581
10283W        W75444  17.751  40.379  13.283
10284W        W75445  37.650   7.363   4.302
10285W        W75446  15.102  30.805  13.386
10286W        W75447   9.705  10.724   1.473
10287W        W75448  32.859   4.118  12.901
10288W        W75449  41.855  39.130   0.946
10289W        W75450  38.320  18.498  13.863
10290W        W75451  17.703  34.596   1.106
10291W        W75452  44.277  22.132  13.415
10292W        W75453  28.547   1.329  14.642
10293W        W75454   5.685  44.567   4.444
10294W        W75455  27.459  39.480  12.490
10295W        W75456  25.142  26.187   3.697
10296W        W75457  22.166  33.567   4.720
10297W        W75458  40.913  36.809  12.286
10298W        W75459  22.387   3.623   4.976
10299W        W75460  37.322   4.681  12.449
10300W        W75461  10.611  24.133  11.595
10301W        W75462  15.599   5.743  12.021
10302W        W75463   1.260   5.752  11.525
10303W        W75464  42.267  30.342  11.604
10304W        W75465  21.735  39.867   5.121
10305W        W75466  21.728   3.779   2.584
10306W        W75467  23.959  26.246  12.748
10307W        W75468  18.563  13.899  14.361
10308W        W75469   1.509  27.226  12.107
10309W        W75470  25.544   1.727  12.404
10310W        W75471  17.158  15.485  13.429
10311W        W75472   8.365   3.474   4.942
10312W        W75473  31.485   6.994  14.293
10313W        W75474   9.929  39.632   2.856
10314W        W75475  22.690   5.579  14.289
10315W        W75476   2.254  10.085   0.484
10316W        W75477  11.243  10.329   4.535
10317W        W75478  33.065  44.939  14.411
10318W        W75479  14.355  12.127  12.464
10319W        W75480  40.792  13.433   4.289
10320W        W75481  38.916  14.878   4.855
10321W        W75482  19.831   7.769  12.863
10322W        W75483  35.071  18.258   0.343
10323W        W75484   0.217  38.229  12.697
10324W        W75485  44.353  42.025  12.861
10325W        W75486  22.931   5.163   0.077
10326W        W75487  32.735  27.372  13.885
10327W        W75488  23.998  15.288   3.697
10328W        W75489  30.548  18.114  13.806
10329W        W75490  44.573   4.237   3.813
10330W        W75491  15.778  42.902   3.019
10331W        W75492  33.191  22.462   2.100
10332W        W75493  11.395  22.359   4.940
10333W        W75494  42.960   1.069   3.227
10334W        W75495  36.688  21.527  13.296
10335W        W75496   5.904   1.199   1.751
10336W        W75497  29.648  27.549   3.268
10337W        W75498  21.526  26.828   2.207
10338W        W75499   2.321  28.058   3.568
10339W        W75500  21.001   9.376  13.563
10340W        W75501   2.787   5.702   1.805
10341W        W75502  38.878   3.747  14.784
10342W        W75503   8.360  39.481   1.358
10343W        W75504  30.068   9.213   3.397
10344W        W75505  39.797  44.515  14.284
10345W        W75506   8.585  38.994  14.401
10346W        W75507  35.937  26.398   3.770
10347W        W75508   7.892   5.799  11.462
10348W        W75509  32.056  14.322  14.435
10349W        W75510  18.803  20.671  10.783
10350W        W75511  36.959   8.237   3.601
10351W        W75512  42.917  24.926  12.455
10352W        W75513  33.989  21.619  11.336
10353W        W75514  29.569  43.910  11.510
10354W        W75515  28.512   4.569  11.988
10355W        W75516  17.532  31.708   1.053
10356W        W75517  38.000  14.755  13.360
10357W        W75518  37.517  39.903   9.949
10358W        W75519  40.098  26.303   3.372
10359W        W75520  12.665  44.147  10.247
10360W        W75521  15.696   4.854  11.510
10361W        W75522  13.369  28.458   1.349
10362W        W75523  44.845  38.961  12.620
10363W        W75524  18.291  28.037  11.542
10364W        W75525  39.781  18.414  13.018
10365W        W75526  20.209  39.455   4.254
10366W        W75527  30.494  35.037  10.763
10367W        W75528  21.519   1.389   2.530
10368W        W75529  25.250  11.183  12.503
10369W        W75530  26.096   1.020   2.465
10370W        W75531  17.339  15.906   0.323
10371W        W75532  41.245   7.370   3.753
10372W        W75533  25.197   9.757  13.263
10373W        W75534  14.129  40.652   4.960
10374W        W75535  39.378  27.278   3.502
10375W        W75536  43.841   9.661   4.103
10376W        W75537  15.785  37.346  10.391
10377W        W75538  38.983  18.317   3.289
10378W        W75539  38.987   0.101  14.473
10379W        W75540  11.348  31.976  13.767
10380W        W75541  23.652  32.439   1.249
10381W        W75542  30.667  32.272   1.098
10382W        W75543  29.328   5.432  13.832
10383W        W75544  30.931   3.804   4.012
10384W        W75545  17.671  33.637  13.444
10385W        W75546  31.219  27.401  12.905
10386W        W75547  11.357  34.395  13.874
10387W        W75548   9.167  14.133  10.391
10388W        W75549  20.880   5.937   3.185
10389W        W75550  20.346  44.438   0.644
10390W        W75551  36.118  27.929  13.419
10391W        W75552  36.830   4.942   0.162
10392W        W75553  15.771   5.898   1.389
10393W        W75554  24.423  34.603  13.467
10394W        W75555  30.215  31.935   2.319
10395W        W75556   0.409  42.673   1.293
10396W        W75557  30.593  11.692  12.421
10397W        W75558  33.815  26.007  11.161
10398W        W75559   0.100  26.763  12.971
10399W        W75560  10.363  37.398  12.504
10400W        W75561  25.667   8.904   3.360
10401W        W75562  12.487  17.151   3.558
10402W        W75563   8.677  28.179  13.555
10403W        W75564   3.755  15.718   4.137
10404W        W75565  44.757   8.598   3.736
10405W        W75566  15.211  32.603  13.050
10406W        W75567   5.256  37.427   1.323
10407W        W75568  18.323  43.821   4.173
10408W        W75569   4.169  32.932   3.877
10409W        W75570   0.574  39.915   0.977
10410W        W75571  14.670  11.080  13.157
10411W        W75572   1.732   7.751  12.727
10412W        W75573   5.359  44.817  12.858
10413W        W75574   3.811  33.493   1.686
10414W        W75575  12.268  36.472   4.604
10415W        W75576   9.099  39.911  12.894
10416W        W75577  30.244  42.491   1.309
10417W        W75578  24.107  35.926  10.680
10418W        W75579  35.308  21.675  13.025
10419W        W75580  15.237  18.755   3.375
10420W        W75581  42.479  18.547   0.592
10421W        W75582   1.179  44.472  12.414
10422W        W75583  22.122   2.001  11.899
10423W        W75584  29.986  38.205   1.949
10424W        W75585  34.826  29.144  12.672
10425W        W75586  15.169  15.603   1.434
10426W        W75587   8.426  19.800   3.645
10427W        W75588   6.963  22.937   0.805
10428W        W75589   3.731  38.824  12.866
10429W        W75590   4.914  41.404  13.916
10430W        W75591  13.344  20.709  14.856
10431W        W75592  25.561  39.229  14.888
10432W        W75593   6.718  15.703  14.864
10433W        W75594  31.389  10.873  10.957
10434W        W75595   9.088   8.428  14.896
10435W        W75596   8.966  43.283   2.787
10436W        W75597  12.872  11.117  10.984
10437W        W75598  33.531  17.769   2.121
10438W        W75599  27.569  22.569   1.494
10439W        W75600  26.006  39.947  13.372
10440W        W75601  41.869  39.808   0.352
10441W        W75602  32.894  37.588   3.894
10442W        W75603  15.383   9.655   1.897
10443W        W75604   5.455   9.153   2.690
10444W        W75605  14.602  16.659  10.883
10445W        W75606  16.546  39.060  11.622
10446W        W75607  44.845  22.576  11.813
10447W        W75608  32.607  24.305   0.241
10448W        W75609  18.311  19.509   1.769
10449W        W75610  12.761   0.441  10.901
10450W        W75611  16.320  17.081   4.096
10451W        W75612  18.528  27.959   1.654
10452W        W75613   6.289  43.941  13.124
10453W        W75614  24.506  16.457  13.818
10454W        W75615  16.016  15.630   4.205
10455W        W75616  39.335  17.120   3.571
10456W        W75617  15.538  37.462  12.984
10457W        W75618  37.851  11.340   1.783
10458W        W75619  25.355  36.841   0.925
10459W        W75620  17.594  41.052   0.492
10460W        W75621   6.964   5.452  14.753
10461W        W75622  42.667  23.292  12.553
10462W        W75623   6.651  40.091  14.169
10463W        W75624  30.206   2.857   0.835
10464W        W75625  16.544  41.543   0.760
10465W        W75626  39.126  26.590  12.933
10466W        W75627  28.450  34.472  12.180
10467W        W75628  14.127  28.734   2.726
10468W        W75629  14.267  18.783  13.047
10469W        W75630  19.025  40.466   2.119
10470W        W75631  44.792   1.705  12.368
10471W        W75632  22.994   0.236   4.970
10472W        W75633   1.284  33.310  13.439
10473W        W75634   9.287  24.642  14.166
10474W        W75635  25.341  15.037   4.046
10475W        W75636  10.309  21.267   3.317
10476W        W75637  10.377  39.230  14.962
10477W        W75638  11.801  25.783  11.541
10478W        W75639   7.414  42.171  11.460
10479W        W75640  31.521  26.414   0.310
10480W        W75641  33.101   3.755  13.955
10481W        W75642  42.722  17.854   3.792
10482W        W75643  15.601  18.605   5.035
10483W        W75644  12.100   9.536   2.391
10484W        W75645  37.550  38.290   0.340
10485W        W75646  11.415  40.711  11.457
10486W        W75647  38.368  37.295  14.795
10487W        W75648   8.761  24.578   2.489
10488W        W75649  28.544  13.966  12.501
10489W        W75650   9.900   7.324   4.843
10490W        W75651  28.026   3.336   0.402
10491W        W75652  23.261  21.760  13.107
10492W        W75653  11.345   0.585   0.193
10493W        W75654   3.587  17.878  11.538
10494W        W75655  28.830   6.853   0.053
10495W        W75656  24.507  18.671  10.625
10496W        W75657  17.835  39.205   3.322
10497W        W75658  25.162  14.425  14.491
10498W        W75659  32.969  13.734  11.661
10499W        W75660  21.275  17.890  14.821
10500W        W75661  34.309   9.499   3.211
10501W        W75662  40.452   2.840   4.538
10502W        W75663  38.494  30.744   0.349
10503W        W75664  13.711  13.147  11.486
10504W        W75665  33.035   5.937   2.234
10505W        W75666  32.070  34.055   2.536
10506W        W75667  35.454  16.768   1.957
10507W        W75668  32.905  30.368  10.596
10508W        W75669  27.907   0.878  12.161
10509W        W75670   1.388  23.208  12.388
10510W        W75671  18.111  25.577  11.188
10511W        W75672   9.011  36.150   0.271
10512W        W75673   2.115  19.632  11.583
10513W        W75674  22.745  16.261  10.724
10514W        W75675  28.397  17.294   1.193
10515W        W75676  27.413  29.517  13.508
10516W        W75677   2.965  27.319   2.673
10517W        W75678  42.938  39.470  13.011
10518W        W75679   3.888   7.316  12.587
10519W        W75680   1.727   3.773   2.427
10520W        W75681  25.726  41.278  13.846
10521W        W75682   0.701  38.581   4.086
10522W        W75683  14.815  44.818  10.707
10523W        W75684   0.297  28.405   1.882
10524W        W75685   2.858  24.290   2.268
10525W        W75686  23.643  33.456   1.746
10526W        W75687  32.597  36.244  12.463
10527W        W75688  40.760  17.846  12.311
10528W        W75689  34.970  24.936   3.312
10529W        W75690   3.350   8.118   4.465
10530W        W75691  38.795  26.295  14.491
10531W        W75692  44.166  39.991  13.047
10532W        W75693  39.362  18.944   1.894
10533W        W75694   5.722  14.505  12.102
10534W        W75695  11.698  34.880   0.270
10535W        W75696   3.757  12.352  11.564
10536W        W75697  15.500  34.422   3.087
10537W        W75698  27.621  35.588  13.415
10538W        W75699  33.784  14.049   0.282
10539W        W75700  43.998   0.658   0.880
10540W        W75701  32.257  31.449  12.585
10541W        W75702   1.143  37.567  14.846
10542W        W75703  29.348  26.704   2.217
10543W        W75704   6.910   8.465   1.578
10544W        W75705  10.306   9.416  11.885
10545W        W75706   5.776  30.586   2.201
10546W        W75707  32.860  42.767   4.161
10547W        W75708  44.337   0.184  12.629
10548W        W75709   0.440  15.115  11.243
10549W        W75710  35.312  29.202   2.855
10550W        W75711  10.257   5.625  14.057
10551W        W75712  31.195   0.443  14.233
10552W        W75713   1.733  34.638  13.839
10553W        W75714  22.094  28.388   3.122
10554W        W75715   7.657   7.017   3.158
10555W        W75716  15.362  42.679  13.442
10556W        W75717   0.905  22.946   1.737
10557W        W75718  19.913  32.490  10.699
10558W        W75719  35.934  40.709  11.662
10559W        W75720   9.845  29.866  13.932
10560W        W75721  26.698   1.077  13.930
10561W        W75722  20.123  15.100   3.652
10562W        W75723  12.533  35.038   3.221
10563W        W75724  34.881  28.614   1.206
10564W        W75725  26.125  12.133   0.485
10565W        W75726  37.354  14.501   4.359
10566W        W75727  32.596  28.006  13.213
10567W        W75728   1.936  22.730   3.184
10568W        W75729  18.323  19.741  10.531
10569W        W75730  14.618  33.213  14.617
10570W        W75731  23.936  31.936  11.257
10571W        W75732   5.735  19.482  14.474
10572W        W75733  27.996   0.998  11.220
10573W        W75734   3.437  41.862   2.653
10574W        W75735  11.128  44.739  11.562
10575W        W75736  38.610  40.811  13.463
10576W        W75737  30.005   8.152  14.658
10577W        W75738  41.845  40.319  12.577
10578W        W75739  25.956  13.651  12.050
10579W        W75740  22.631  19.272  10.713
10580W        W75741   8.827   8.355   4.175
10581W        W75742  32.341  43.403  10.797
10582W        W75743  14.673  31.699  12.558
10583W        W75744  25.958   7.925   2.338
10584W        W75745   1.958  26.587  12.274
10585W        W75746  22.944   8.637  14.786
10586W        W75747   8.932  12.106   3.690
10587W        W75748   3.428  16.676  12.691
10588W        W75749  39.498  29.132   3.407
10589W        W75750   6.082   8.168   2.227
10590W        W75751  35.877  37.867  13.640
10591W        W75752  40.313  20.783  12.948
10592W        W75753  32.977  29.425  12.956
10593W        W75754   6.231  33.859  10.721
10594W        W75755  13.373   7.156  13.858
10595W        W75756  27.705  26.233   3.721
10596W        W75757  28.049  16.580   0.315
10597W        W75758  36.075  16.643  14.457
10598W        W75759  41.461  40.219  14.215
10599W        W75760  30.005  41.308  14.084
10600W        W75761  21.098   2.938   3.740
10601W        W75762  23.136   7.489   4.039
10602W        W75763  42.602  25.958   4.985
10603W        W75764   8.412  20.702   3.569
10604W        W75765  12.127   0.454  14.435
10605W        W75766  11.016   1.036  10.742
10606W        W75767  20.830  21.770   4.124
10607W        W75768  17.911  11.791  14.584
10608W        W75769   6.825  41.238   0.229
10609W        W75770  37.293  38.430   1.427
10610W        W75771  36.465  19.261   3.752
10611W        W75772   1.758  11.652  10.668
10612W        W75773  33.904  34.359   3.209
10613W        W75774  42.335   7.600   3.670
10614W        W75775   3.467   5.732  12.970
10615W        W75776  36.932  29.929   2.881
10616W        W75777   9.295  14.528  11.361
10617W        W75778   0.882  39.966   1.450
10618W        W75779  33.164   9.836  12.888
10619W        W75780  18.205   1.464   4.944
10620W        W75781   9.325  39.376   3.679
10621W        W75782  44.169  16.667  12.926
10622W        W75783   2.224  39.610   0.534
10623W        W75784   3.417   9.550  13.399
10624W        W75785  23.479  20.579  12.990
10625W        W75786  12.648  19.810   3.079
10626W        W75787  34.288  29.032  14.997
10627W        W75788  33.011   4.490  10.987
10628W        W75789  12.554  14.544  14.648
10629W        W75790  37.840  26.232   3.586
10630W        W75791   4.868  36.512  13.959
10631W        W75792  10.294  19.702   3.126
10632W        W75793   1.620  10.227   2.163
10633W        W75794  21.222   9.156   3.172
10634W        W75795   6.154  40.013  12.401
10635W        W75796  22.101  24.291   0.270
10636W        W75797  15.156  42.673  12.603
10637W        W75798  38.989   7.097  12.071
10638W        W75799   0.843  27.720  14.475
10639W        W75800   8.012  19.569   3.389
10640W        W75801  24.143  37.008  13.132
10641W        W75802  12.634  28.015   4.543
10642W        W75803  11.606  20.004  13.475
10643W        W75804  26.058  26.661  10.369
10644W        W75805   2.590  13.311  12.860
10645W        W75806  18.753  26.850   5.120
10646W        W75807   6.689  42.770  10.849
10647W        W75808  13.664  25.263   1.373
10648W        W75809  19.677  21.983   4.097
10649W        W75810  27.071   2.256  13.871
10650W        W75811   1.134  26.981   3.307
10651W        W75812  35.857   8.734  14.055
10652W        W75813  44.431  25.017  13.094
10653W        W75814  34.858  33.782   4.158
10654W        W75815  31.069  32.389   3.570
10655W        W75816  30.119  40.915  13.603
10656W        W75817  22.208  34.390  13.806
10657W        W75818   4.453  17.968  13.930
10658W        W75819   6.451  33.472   0.868
10659W        W75820   7.325  19.111   3.362
10660W        W75821  32.048  37.939   4.222
10661W        W75822  35.450  29.071   1.696
10662W        W75823  14.910  22.763  13.367
10663W        W75824  24.167   6.455   2.342
10664W        W75825  24.073  20.029   2.548
10665W        W75826  34.276  20.060  13.676
10666W        W75827  37.895  23.938   1.202
10667W        W75828  14.496  28.398   0.015
10668W        W75829  20.297  10.554   0.663
10669W        W75830   6.552  11.261  13.403
10670W        W75831  20.869  39.361   1.320
10671W        W75832  33.523  31.128  13.484
10672W        W75833  13.024  11.296   0.267
10673W        W75834  26.492  34.566   3.674
10674W        W75835  13.461  14.597  13.051
10675W        W75836  12.049  44.979  10.809
10676W        W75837  42.620  11.578  11.518
10677W        W75838  15.658  17.042   4.282
10678W        W75839  33.072  40.461  10.793
10679W        W75840  36.913  35.450  13.396
10680W        W75841   6.447  41.473  13.818
10681W        W75842  41.617  43.525  11.275
10682W        W75843  24.990  18.067  13.007
10683W        W75844  30.210  17.677  13.104
10684W        W75845  23.644  38.086   2.602
10685W        W75846   4.669  13.730  10.471
10686W        W75847  32.507  33.957  13.880
10687W        W75848  23.500   6.266   2.828
10688W        W75849  32.374  20.080  12.461
10689W        W75850  35.584  14.372  11.183
10690W        W75851  25.040  26.822   1.141
10691W        W75852  17.130  19.708  10.667
10692W        W75853  18.128  30.726   3.677
10693W        W75854  19.269  41.453  14.931
10694W        W75855  27.088  22.193  11.982
10695W        W75856  21.008  34.107   4.623
10696W        W75857  39.010   5.648  11.500
10697W        W75858  42.791   2.477   1.993
10698W        W75859  32.571  26.765   4.854
10699W        W75860  32.028  39.261   4.139
10700W        W75861  18.708  11.842   1.260
10701W        W75862  17.267  32.980   3.152
10702W        W75863  26.798  12.405   0.122
10703W        W75864  39.993  19.162   0.752
10704W        W75865  12.555  25.132  13.041
10705W        W75866   4.481   3.506  12.051
10706W        W75867  26.588  15.921   0.469
10707W        W75868  15.439   3.183   4.152
10708W        W75869  18.083  36.909   0.389
10709W        W75870  35.646   8.938   3.353
10710W        W75871  19.225  13.850   1.879
10711W        W75872   8.116  15.654   0.375
10712W        W75873   5.331  20.713   0.804
10713W        W75874  21.685  44.471  13.529
10714W        W75875  21.112   8.702  12.981
10715W        W75876  15.421  39.243   0.240
10716W        W75877  20.810  14.626  13.045
10717W        W75878  21.216  16.678   1.785
10718W        W75879  22.493  12.643  10.268
10719W        W75880  19.752   3.183   0.816
10720W        W75881  19.662  37.321  11.947
10721W        W75882  35.849   7.637   3.273
10722W        W75883  23.671  30.441   0.387
10723W        W75884  32.600   1.532   1.392
10724W        W75885   8.251  38.304  11.099
10725W        W75886   1.447  12.139   0.470
10726W        W75887  15.526  36.570   1.283
10727W        W75888  33.854  38.530  12.958
10728W        W75889   0.652   7.645   4.548
10729W        W75890  24.081  26.699   0.426
10730W        W75891   6.751  40.373  10.659
10731W        W75892  13.673  30.539   0.043
10732W        W75893  18.264  32.039  14.393
10733W        W75894  23.579  38.480  14.208
10734W        W75895  21.257   6.258   4.594
10735W        W75896  17.562  18.327   4.151
10736W        W75897  21.083  14.815   1.297
10737W        W75898  39.410  11.138  14.931
10738W        W75899  34.277  12.894  11.240
10739W        W75900   0.304  40.984   0.902
10740W        W75901  36.007   6.326  14.359
10741W        W75902   6.251  37.285   0.403
10742W        W75903  18.785  13.102   0.584
10743W        W75904  34.621   1.602   3.866
10744W        W75905  42.093  28.710  14.455
10745W        W75906   8.168  13.222   3.886
10746W        W75907  44.823  37.596   2.175
10747W        W75908   7.876  18.067   4.122
10748W        W75909   8.905   4.167  11.165
10749W        W75910  14.666  22.652   0.606
10750W        W75911  16.831  24.042  14.308
10751W        W75912   0.244  34.641   0.446
10752W        W75913  18.321  33.123  13.930
10753W        W75914  24.089  25.733   2.823
10754W        W75915   4.810  22.567  12.275
10755W        W75916   4.783   5.990   5.098
10756W        W75917   0.485  41.362  12.493
10757W        W75918  28.914  22.782   9.737
10758W        W75919  35.672   5.384  11.633
10759W        W75920  44.107  32.032  12.556
10760W        W75921  28.003   7.904   3.682
10761W        W75922  15.894  31.956   1.193
10762W        W75923  26.187   3.703  12.793
10763W        W75924  26.144  36.619  12.059
10764W        W75925  36.519  44.565   3.247
10765W        W75926   0.219  30.198  12.915
10766W        W75927  15.236  33.135   3.223
10767W        W75928  11.229  19.584  14.937
10768W        W75929  27.474  17.754   0.955
10769W        W75930  24.838  33.560   1.252
10770W        W75931  22.699  17.834  13.908
10771W        W75932  23.166  11.914   4.187
10772W        W75933   6.894  43.205  12.208
10773W        W75934  24.244  43.311  10.684
10774W        W75935  40.008  12.921  14.969
10775W        W75936  37.332  26.812   3.740
10776W        W75937   2.779   9.826  11.992
10777W        W75938  27.585  13.946   3.248
10778W        W75939  13.743  37.535   4.896
10779W        W75940   1.080  28.679  12.090
10780W        W75941  30.968  30.153  10.625
10781W        W75942  31.954  11.200   3.256
10782W        W75943   6.601   9.664   2.286
10783W        W75944   3.822   2.881  14.486
10784W        W75945   9.505  26.885   9.688
10785W        W75946  43.384  26.378   0.465
10786W        W75947  20.270  37.386  12.740
10787W        W75948  25.709   2.689  14.890
10788W        W75949  28.284   7.037  13.418
10789W        W75950  38.750  19.305  13.444
10790W        W75951  31.949  14.268  12.257
10791W        W75952  33.483  12.676  11.249
10792W        W75953  40.963  44.184   0.482
10793W        W75954  38.914   1.889  10.619
10794W        W75955  27.013   6.064   1.019
10795W        W75956  13.457  12.742   0.568
10796W        W75957   2.319  29.988   1.393
10797W        W75958  27.350  26.498   1.530
10798W        W75959  31.646  12.637  11.124
10799W        W75960  13.801  14.893   3.073
10800W        W75961  23.592  23.972   2.183
10801W        W75962  34.513  43.736  11.907
10802W        W75963  13.657   9.874  10.597
10803W        W75964   5.381  15.005   4.104
10804W        W75965  29.903  28.026  11.267
10805W        W75966  33.760  22.050  10.208
10806W        W75967  40.962  44.800  14.350
10807W        W75968  32.975  22.242   1.306
10808W        W75969  41.841  15.217   0.377
10809W        W75970  11.398  44.275  11.661
10810W        W75971  41.956  10.970  11.231
10811W        W75972   0.844  21.942  13.898
10812W        W75973  44.426  22.277  10.640
10813W        W75974  13.097  22.006   1.285
10814W        W75975  10.623  17.935  11.050
10815W        W75976   6.368  29.355   0.813
10816W        W75977   3.691  43.286  13.200
10817W        W75978  17.802  29.066  10.639
10818W        W75979  44.857   2.140  10.647
10819W        W75980  14.822  34.156  13.975
10820W        W75981   6.362  21.284  12.069
10821W        W75982  35.018  12.263  13.819
10822W        W75983  10.461   5.545  12.520
10823W        W75984  40.188  37.823   3.208
10824W        W75985  10.369  38.854  14.540
10825W        W75986  22.674  30.478   0.323
10826W        W75987  44.320   9.954   1.327
10827W        W75988  11.823  13.240   1.400
10828W        W75989   8.207   2.664   0.328
10829W        W75990  33.932  23.932  12.083
10830W        W75991  23.054  10.194   2.273
10831W        W75992  33.921  33.518   0.280
10832W        W75993  38.111  27.488  14.928
10833W        W75994   0.198  26.665   3.311
10834W        W75995  28.494  39.856   2.658
10835W        W75996  41.508  29.020  14.845
10836W        W75997  25.435  32.158  13.008
10837W        W75998   4.888  42.508   0.971
10838W        W75999  10.920   6.814   1.855
10839W        W76000   6.588  17.509  12.080
10840W        W76001  29.883  30.987   3.258
10841W        W76002   4.134   3.190  12.617
10842W        W76003  18.007  36.946   4.169
10843W        W76004   4.897  30.556   4.052
10844W        W76005  16.143  19.067  10.148
10845W        W76006  24.649  14.612  14.545
10846W        W76007   0.559   3.245  11.658
10847W        W76008  37.074  30.699   3.504
10848W        W76009  30.962  20.465   3.747
10849W        W76010   4.356  10.385  14.828
10850W        W76011  43.890  37.597   3.382
10851W        W76012  15.889  12.714   0.379
10852W        W76013  12.096  18.022   2.216
10853W        W76014  43.009  23.444  10.667
10854W        W76015   4.250   7.166   3.714
10855W        W76016   0.083  27.528  11.811
10856W        W76017  37.332  30.234  13.691
10857W        W76018  38.619  13.924  14.403
10858W        W76019  18.935  16.884   2.405
10859W        W76020  20.530  26.185   0.744
10860W        W76021  20.296  34.322  14.981
10861W        W76022  22.606  25.901   5.027
10862W        W76023  40.367  32.472   0.953
10863W        W76024   5.308  32.682   1.786
10864W        W76025  38.755  33.658   2.203
10865W        W76026  39.279   5.773   3.379
10866W        W76027  37.102  43.830   3.735
10867W        W76028   1.138  14.638  13.018
10868W        W76029  22.474  32.463  13.043
10869W        W76030  41.609  19.522   0.180
10870W        W76031   8.165  12.765  13.894
10871W        W76032  42.091  34.027   3.729
10872W        W76033  10.374  26.601   3.366
10873W        W76034  30.322  21.723   3.173
10874W        W76035  32.660  22.316  13.646
10875W        W76036  40.306   6.564   1.682
10876W        W76037  20.103  36.330   0.861
10877W        W76038  27.191  16.537  12.107
10878W        W76039  20.748  24.011  12.880
10879W        W76040  36.897  27.286  11.231
10880W        W76041  37.881  27.370  12.002
10881W        W76042   8.697  34.698  14.327
10882W        W76043  37.089  21.317  11.110
10883W        W76044  16.759   9.391   1.754
10884W        W76045  36.646  40.962  12.883
10885W        W76046  16.664  42.019  13.363
10886W        W76047  34.487  20.376  13.337
10887W        W76048  13.247  42.936   0.851
10888W        W76049   2.265  34.044   2.805
10889W        W76050  19.119  13.167  11.254
10890W        W76051  41.943   2.021   5.149
10891W        W76052  31.997  11.412  12.997
10892W        W76053  18.737  37.032  12.492
10893W        W76054  31.582  18.235  11.797
10894W        W76055  16.744  41.067  11.605
10895W        W76056  32.555  28.732   1.712
10896W        W76057  40.486  40.001  10.820
10897W        W76058   2.394  27.561   3.734
10898W        W76059  30.659   0.937  11.859
10899W        W76060  16.880  35.581  14.500
10900W        W76061  31.232  36.621  12.472
10901W        W76062   6.973  29.635   3.731
10902W        W76063   5.563  38.719  13.531
10903W        W76064  21.062  39.087  11.064
10904W        W76065   9.634  31.587  10.775
10905W        W76066  44.518  43.934   3.823
10906W        W76067   4.927  10.186  12.479
10907W        W76068  26.167   6.694  14.491
10908W        W76069  38.835  29.680  10.776
10909W        W76070  25.994  27.947  13.818
10910W        W76071  19.566  26.549   0.865
10911W        W76072  15.741  12.951   1.924
10912W        W76073   6.161   1.849  13.403
10913W        W76074  28.269  25.274  12.435
10914W        W76075  32.850  27.558  11.213
10915W        W76076  37.835  30.221   3.581
10916W        W76077   4.826   7.033   4.121
10917W        W76078  41.473  11.471  13.497
10918W        W76079  31.005  40.421   1.843
10919W        W76080  13.654  26.621  13.013
10920W        W76081  39.388  27.070   0.991
10921W        W76082  18.952  18.348   1.761
10922W        W76083  43.418  11.310  13.483
10923W        W76084  43.893  16.417   2.887
10924W        W76085  16.533  20.775  11.100
10925W        W76086  20.581  43.309   1.510
10926W        W76087   5.231  30.084   4.007
10927W        W76088  25.974   8.836  11.641
10928W        W76089  34.894  14.116  11.258
10929W        W76090   2.456   4.726   2.764
10930W        W76091  24.567  20.186  12.439
10931W        W76092  11.305  11.064   3.304
10932W        W76093  21.169  32.158  14.139
10933W        W76094  42.966  11.643   0.946
10934W        W76095  25.671  16.145   3.535
10935W        W76096  34.166  42.274   1.470
10936W        W76097  12.673  30.262  11.682
10937W        W76098  36.641   3.413   2.819
10938W        W76099   4.949  40.318  13.951
10939W        W76100  24.633  14.789   3.336
10940W        W76101  19.545  32.963   4.581
10941W        W76102  27.904  13.522   3.177
10942W        W76103  23.034  28.473  11.162
10943W        W76104  25.175   8.311   4.954
10944W        W76105  13.108  41.743   3.812
10945W        W76106  33.836  26.955  14.373
10946W        W76107  13.664  25.876   2.160
10947W        W76108  27.564  34.270  12.951
10948W        W76109  21.764   7.862  11.234
10949W        W76110  11.374  21.641   1.033
10950W        W76111   0.446   0.957   1.612
10951W        W76112  34.297   6.596  10.707
10952W        W76113   1.879  15.955   1.388
10953W        W76114  19.903  30.742  11.580
10954W        W76115  20.230  21.706   9.795
10955W        W76116  44.757  37.964   3.020
10956W        W76117   0.694  29.340   3.345
10957W        W76118  17.887   0.008  10.557
10958W        W76119  34.718  44.808   4.807
10959W        W76120   0.326   2.531   3.413
10960W        W76121  23.936  12.491   3.234
10961W        W76122  37.393  21.929  11.612
10962W        W76123  14.130  43.713   0.885
10963W        W76124  11.964  44.767  11.259
10964W        W76125  35.631   1.793   4.141
10965W        W76126  37.851  15.790   1.317
10966W        W76127  23.939   2.422  13.527
10967W        W76128  25.049   5.159  13.018
10968W        W76129  35.059  42.601  14.065
10969W        W76130   1.498  29.611  10.707
10970W        W76131  25.741  18.277  11.113
10971W        W76132  25.662  19.158   1.291
10972W        W76133  17.678   0.926  14.127
10973W        W76134  39.079  33.634   4.074
10974W        W76135  24.818   9.366   0.874
10975W        W76136  37.829  13.817   3.820
10976W        W76137   9.636  40.420  11.473
10977W        W76138   8.364  16.521   2.142
10978W        W76139  21.618  44.165   0.226
10979W        W76140   2.554  38.299  10.559
10980W        W76141   4.800   9.284  12.093
10981W        W76142   9.921  36.004   1.738
10982W        W76143  42.092  44.606   0.689
10983W        W76144  14.312  29.046   4.778
10984W        W76145  41.288   8.175   0.860
10985W        W76146  20.784  31.502   1.810
10986W        W76147  32.088  14.505  11.000
10987W        W76148  19.147   1.236  11.239
10988W        W76149  35.160  25.165   2.855
10989W        W76150  43.836  41.828   4.589
10990W        W76151  43.841  26.433  14.345
10991W        W76152  38.375  41.984  13.888
10992W        W76153   7.158  10.018  12.433
10993W        W76154  12.570  14.125  14.354
10994W        W76155  23.065  12.395   5.102
10995W        W76156  21.269  27.209   0.233
10996W        W76157   7.322  35.467  13.946
10997W        W76158   4.765  18.274   1.139
10998W        W76159   1.850  43.517   1.968
10999W        W76160  19.186   4.171  10.647
11000W        W76161  22.645  16.239   0.042
11001W        W76162  22.784   9.257   4.158
11002W        W76163  33.025  43.392   0.862
11003W        W76164  24.218  39.958   0.388
11004W        W76165   8.384  33.234  10.732
11005W        W76166  15.558  13.123   4.515
11006W        W76167  36.568  33.089   3.616
11007W        W76168  23.235  14.099  12.883
11008W        W76169   5.969  37.030  12.234
11009W        W76170  40.977   0.016   1.250
11010W        W76171   1.745  15.261  12.632
11011W        W76172  30.639  32.911   3.276
11012W        W76173  17.560  33.913   3.699
11013W        W76174  24.875  29.222  10.939
11014W        W76175  27.906  16.114  11.978
11015W        W76176  13.469  22.089   2.569
11016W        W76177  22.403  18.239   0.401
11017W        W76178  32.960  43.223  12.478
11018W        W76179  10.324  27.473   3.269
11019W        W76180  29.429  20.230  13.035
11020W        W76181   2.853  25.925  14.858
11021W        W76182  27.878  24.476   4.062
11022W        W76183  26.937   0.569   0.841
11023W        W76184  16.085  25.604  11.167
11024W        W76185  43.472  39.928   3.606
11025W        W76186  10.335  13.641  13.290
11026W        W76187   2.346  12.609  12.588
11027W        W76188   3.654  23.836  14.315
11028W        W76189  44.866  23.295  12.408
11029W        W76190  38.128  26.602  12.586
11030W        W76191  34.598  44.061   3.253
11031W        W76192  26.626  41.839   2.319
11032W        W76193  44.238  18.699  11.167
11033W        W76194   4.935  44.853   4.150
11034W        W76195  19.125   9.893  14.689
11035W        W76196  43.590  26.085   2.857
11036W        W76197  31.109  42.953  10.193
11037W        W76198  22.590  24.578  13.899
11038W        W76199  35.780   5.713  11.229
11039W        W76200  36.016  39.074   2.384
11040W        W76201  13.697   9.846  12.692
11041W        W76202   7.168  33.100  12.429
11042W        W76203   4.910  32.237   1.366
11043W        W76204  30.008  14.116  13.881
11044W        W76205  28.185  38.264   1.344
11045W        W76206  32.144   2.708  11.165
11046W        W76207  13.632  14.573   1.834
11047W        W76208  16.622  42.602   4.101
11048W        W76209   5.836  38.665  11.380
11049W        W76210   2.694  40.569  11.338
11050W        W76211  36.840  28.960  12.031
11051W        W76212  10.878  39.839   0.848
11052W        W76213  17.532  20.129   1.153
11053W        W76214  41.036  31.978  12.083
11054W        W76215  26.572  24.046  14.914
11055W        W76216   0.776  16.864  11.101
11056W        W76217   1.975  42.276   2.429
11057W        W76218  17.140  38.192  12.434
11058W        W76219  40.028  14.665   1.486
11059W        W76220   3.323  15.701  12.619
11060W        W76221   4.375  24.153   3.352
11061W        W76222  16.846  18.016   1.343
11062W        W76223  37.113   1.313  14.020
11063W        W76224   7.420   0.296   0.075
11064W        W76225  30.616  29.499   4.484
11065W        W76226   6.802  14.599   3.191
11066W        W76227  33.487  24.297   0.616
11067W        W76228  44.804  34.300   2.155
11068W        W76229   2.360  39.031   1.185
11069W        W76230  18.056  37.543   1.895
11070W        W76231  44.754  33.613  13.995
11071W        W76232  37.686  43.296  12.558
11072W        W76233  33.202  29.680   2.959
11073W        W76234  39.851  43.966  14.094
11074W        W76235  13.612  22.040  12.141
11075W        W76236  24.242  37.727   0.159
11076W        W76237  15.673  28.416   2.678
11077W        W76238  38.872  14.256  10.257
11078W        W76239  43.298  11.846  13.471
11079W        W76240  40.230  29.181  11.541
11080W        W76241  42.847  13.356  11.219
11081W        W76242  30.790  16.212   0.335
11082W        W76243  38.928  17.816   2.352
11083W        W76244  35.452  32.785   1.322
11084W        W76245  10.819   5.606  12.870
11085W        W76246  36.969  10.805   1.807
11086W        W76247  38.751  43.380   0.807
11087W        W76248  41.231  19.498  12.886
11088W        W76249   1.453  11.639  12.524
11089W        W76250  44.918  30.028   4.493
11090W        W76251   5.513  44.312  13.409
11091W        W76252  31.940  22.708  14.774
11092W        W76253   5.638   3.010   3.364
11093W        W76254  17.135  31.495   4.746
11094W        W76255  36.767  30.166  10.726
11095W        W76256  11.440  20.161  11.420
11096W        W76257  42.151  34.844   3.711
11097W        W76258  21.161   4.730   3.567
11098W        W76259  15.331  32.875   3.662
11099W        W76260  32.934  29.910  13.867
11100W        W76261   0.847   9.446   0.346
11101W        W76262  11.284  30.266  14.925
11102W        W76263  33.063  15.065  10.637
11103W        W76264  41.242  30.969  12.983
11104W        W76265  10.159  33.448   2.839
11105W        W76266  22.294  31.915   3.436
11106W        W76267  13.770   3.730   1.856
11107W        W76268  42.046  13.336  11.609
11108W        W76269  15.826  18.305  11.629
11109W        W76270   6.156  13.256   3.343
11110W        W76271   3.228  16.789   0.996
11111W        W76272   6.291   5.402   1.228
11112W        W76273  16.226  26.027   1.778
11113W        W76274   6.832  30.629  14.638
11114W        W76275   1.342  13.579   1.214
11115W        W76276  40.804  43.112  13.276
11116W        W76277   2.999   0.487   1.727
11117W        W76278   0.904  39.446   1.455
11118W        W76279  22.277  26.809  14.956
11119W        W76280   5.838  32.920  13.932
11120W        W76281   5.009  23.985   1.624
11121W        W76282   8.229  34.351  11.994
11122W        W76283  38.852  37.932   3.330
11123W        W76284  19.110  27.517  12.549
11124W        W76285   4.240  26.935   1.200
11125W        W76286  20.133  33.514  13.895
11126W        W76287  17.030   0.492   3.231
11127W        W76288  29.102  19.044   1.504
11128W        W76289   5.446  38.881   0.285
11129W        W76290   3.503  28.632  12.057
11130W        W76291  27.205  39.704   3.718
11131W        W76292  14.587  23.514   0.983
11132W        W76293  34.073  33.518  10.632
11133W        W76294  13.208  21.641   3.411
11134W        W76295  38.398  34.081  13.943
11135W        W76296  32.436  17.129  10.737
11136W        W76297  44.449  20.839   4.332
11137W        W76298  29.354  36.110  11.161
11138W        W76299   3.190  15.697   4.152
11139W        W76300   7.977  27.560   4.721
11140W        W76301  12.121  26.297  14.374
11141W        W76302  19.704  42.339  11.243
11142W        W76303  28.985  16.670   2.695
11143W        W76304   1.512  22.119   1.447
11144W        W76305  31.008  22.183  11.181
11145W        W76306  19.330  28.801  11.134
11146W        W76307  26.439  32.566   1.326
11147W        W76308   2.962  31.691  11.252
11148W        W76309  44.245  18.688   1.176
11149W        W76310  11.177  39.045  10.547
11150W        W76311  27.222  40.470   0.302
11151W        W76312  20.069  10.553  10.166
11152W        W76313  22.650   3.731  10.633
11153W        W76314  26.181  31.326  13.495
11154W        W76315  42.943  22.765   3.215
11155W        W76316  20.985   1.949  14.239
11156W        W76317  26.976  41.370   1.629
11157W        W76318  28.650  36.392  14.019
11158W        W76319   0.060  44.779   3.543
11159W        W76320  14.988  42.519  13.135
11160W        W76321  23.363  41.836  11.387
11161W        W76322   3.046   1.419  11.747
11162W        W76323   4.948  18.595  11.134
11163W        W76324  27.942  21.294   0.286
11164W        W76325  41.724  38.071   3.099
11165W        W76326  24.776  34.019  11.825
11166W        W76327  34.048  33.399   1.777
11167W        W76328  29.831  25.063   1.370
11168W        W76329  35.973  12.857   2.821
11169W        W76330  11.723  36.268   3.606
11170W        W76331   2.635  31.176  12.600
11171W        W76332   4.408   0.948  13.869
11172W        W76333  28.961  14.953  14.908
11173W        W76334  42.069  29.126  12.954
11174W        W76335  29.441  16.843  12.323
11175W        W76336  20.988   9.289  10.621
11176W        W76337  25.384  20.514   1.398
11177W        W76338  20.250  14.240  13.455
11178W        W76339  19.607  19.714   0.009
11179W        W76340   6.206   3.839   3.227
11180W        W76341  27.740   4.921  12.467
11181W        W76342  38.806   8.617  11.203
11182W        W76343  26.519  22.669   1.610
11183W        W76344  43.188  19.743   0.340
11184W        W76345   0.958  44.684   0.376
11185W        W76346  22.722  32.011   3.733
11186W        W76347  26.840  30.238   2.022
11187W        W76348   2.994  21.160   1.404
11188W        W76349  21.709  22.633  14.461
11189W        W76350  39.645   5.886   0.260
11190W        W76351   6.096  17.477   9.863
11191W        W76352  28.962  25.186   0.794
11192W        W76353  13.911   0.093   1.895
11193W        W76354  15.177  10.108   3.888
11194W        W76355   9.696   0.853  12.595
11195W        W76356  33.390  20.039   0.939
11196W        W76357  39.862  30.925  10.936
11197W        W76358  43.715  16.607  11.446
11198W        W76359  15.712  33.083  11.171
11199W        W76360   9.325  33.636   3.441
11200W        W76361  32.341  12.236  13.998
11201W        W76362  10.395  43.706   3.929
11202W        W76363   6.480  29.048   2.837
11203W        W76364  35.961  25.129   2.355
11204W        W76365  24.120  33.995   4.718
11205W        W76366  41.013  40.018   0.658
11206W        W76367  39.431  39.267  12.048
11207W        W76368  34.575  27.746   4.113
11208W        W76369  29.358  35.437   2.032
11209W        W76370  21.530  14.734  14.034
11210W        W76371  40.740  15.327   4.363
11211W        W76372  24.900  28.480  14.401
11212W        W76373  19.009  30.087  11.826
11213W        W76374  29.546  40.614  14.735
11214W        W76375  38.150  21.556   2.681
11215W        W76376  32.320  40.781   0.032
11216W        W76377  32.854  24.086  11.987
11217W        W76378  15.173  24.169  11.697
11218W        W76379  37.623  15.425  12.621
11219W        W76380  17.590  11.261  10.683
11220W        W76381  15.770  15.846  11.113
11221W        W76382  23.431   3.740   0.899
11222W        W76383  24.846   5.273   3.240
11223W        W76384   5.591   8.208   3.550
11224W        W76385  32.352  41.322   4.284
11225W        W76386  15.486  32.212   3.720
11226W        W76387  38.013  10.659   3.611
11227W        W76388  39.818  30.057   0.583
11228W        W76389  15.063  31.496  11.622
11229W        W76390  42.023   0.259  14.819
11230W        W76391  39.450   7.916   2.282
11231W        W76392  32.449  43.883   2.836
11232W        W76393  12.686  39.390  11.550
11233W        W76394   9.603   4.879  12.923
11234W        W76395   4.271  42.960   0.378
11235W        W76396  31.945  31.074   1.292
11236W        W76397  34.724  21.606   3.343
11237W        W76398  17.223  43.929  12.252
11238W        W76399   4.980  42.843  14.360
11239W        W76400   1.832  40.336   2.771
11240W        W76401  26.680  37.525  13.378
11241W        W76402   1.230  40.862   0.902
11242W        W76403  18.195  16.365   0.353
11243W        W76404  21.824  23.229  13.178
11244W        W76405   0.923  30.008  10.388
11245W        W76406  32.883  18.151   0.401
11246W        W76407   8.793  23.603   2.874
11247W        W76408  38.041  18.529   1.713
11248W        W76409   7.223   1.295   3.977
11249W        W76410   2.483   6.042  12.721
11250W        W76411   1.790  12.117  11.563
11251W        W76412  11.903  14.380   2.806
11252W        W76413  39.676  30.699   3.785
11253W        W76414   4.809   2.453  14.029
11254W        W76415  12.211  42.006   3.985
11255W        W76416  18.777   0.958  14.780
11256W        W76417  17.536  19.051  12.846
11257W        W76418  35.065  18.789  11.391
11258W        W76419   1.996  35.039   4.599
11259W        W76420  24.789  27.692  14.012
11260W        W76421  39.936  29.077   3.070
11261W        W76422   0.726  33.820   4.238
11262W        W76423  17.049  29.147   3.785
11263W        W76424   8.986  19.130  13.552
11264W        W76425  39.091   8.156  12.086
11265W        W76426  37.377  33.443   3.233
11266W        W76427  19.350   3.917  12.407
11267W        W76428  21.662   0.029   3.786
11268W        W76429  32.674  21.091   1.273
11269W        W76430  40.296  32.501  11.553
11270W        W76431  40.436  38.431  13.445
11271W        W76432   7.300  30.559  12.049
11272W        W76433  42.042  26.225  12.104
11273W        W76434  31.472  38.478  10.716
11274W        W76435  41.684  18.467   0.473
11275W        W76436   4.540  42.694   4.411
11276W        W76437  18.037  37.169   1.103
11277W        W76438  44.245   7.106  12.921
11278W        W76439  27.982  26.713   2.667
11279W        W76440   6.809  25.517   5.106
11280W        W76441  27.024  13.862  10.695
11281W        W76442  12.579  25.965  12.490
11282W        W76443  38.382  26.143  10.670
11283W        W76444  23.069  37.886   3.264
11284W        W76445  44.913  21.631  10.815
11285W        W76446  23.780   6.555  11.115
11286W        W76447  28.899  28.814   4.030
11287W        W76448  36.352  32.669   2.287
11288W        W76449  15.110   2.972  12.705
11289W        W76450  34.889  28.571  13.359
11290W        W76451  30.016  10.343  11.722
11291W        W76452  38.508   1.611  14.200
11292W        W76453  42.992   5.191  10.654
11293W        W76454   9.171  11.101   2.798
11294W        W76455  39.861  23.823   2.396
11295W        W76456   9.887   0.143  13.223
11296W        W76457  31.466   0.779  14.519
11297W        W76458  20.054  33.097   2.274
11298W        W76459   5.229  40.613   4.214
11299W        W76460  32.037  21.110   2.275
11300W        W76461  29.225   3.239  11.178
11301W        W76462  13.403  10.208   3.244
11302W        W76463   3.987  25.855   2.511
11303W        W76464  35.372  30.513   4.261
11304W        W76465  31.685  19.784  13.653
11305W        W76466  32.902  18.807  10.747
11306W        W76467  28.606   0.257   2.315
11307W        W76468  34.945  12.347   5.153
11308W        W76469  42.873  42.487  12.533
11309W        W76470  15.976  22.775   3.660
11310W        W76471   5.478  28.509   1.277
11311W        W76472  21.440  41.510  12.089
11312W        W76473  17.097   2.745   0.894
11313W        W76474  38.928  34.526   0.101
11314W        W76475  44.737  24.341   0.032
11315W        W76476   3.892  21.820   0.940
11316W        W76477  10.909  29.442   4.907
11317W        W76478  17.311  24.255   2.307
11318W        W76479   1.981  21.098  12.339
11319W        W76480  21.198  14.329   2.259
11320W        W76481  39.432   0.486  13.997
11321W        W76482  28.201  27.426  14.874
11322W        W76483  35.355  11.625   0.017
11323W        W76484   6.935  40.343   3.195
11324W        W76485  18.892  43.096  12.115
11325W        W76486   3.723  36.596   3.295
11326W        W76487  35.504  25.451  12.729
11327W        W76488  12.064  21.265  13.524
11328W        W76489  37.151  16.745  14.417
11329W        W76490  12.493  23.552  11.636
11330W        W76491  27.751  26.200  13.076
11331W        W76492   1.358  14.857  10.230
11332W        W76493  37.535  22.948   0.249
11333W        W76494  10.380  16.519   0.450
11334W        W76495  14.072  19.737   4.843
11335W        W76496  19.269  39.597  12.636
11336W        W76497   3.302  14.143  10.656
11337W        W76498  22.523  28.121   9.976
11338W        W76499  22.667  17.065   3.399
11339W        W76500  26.255   5.664   4.119
11340W        W76501  27.617  39.546   1.423
11341W        W76502  22.322  13.240  11.500
11342W        W76503   4.250  14.416   1.259
11343W        W76504  32.214  22.039  12.419
11344W        W76505  28.393  41.743   5.236
11345W        W76506  26.704  10.106  13.837
11346W        W76507  39.469  16.198  14.499
11347W        W76508   4.723   8.400   4.077
11348W        W76509  24.785  29.354  11.725
11349W        W76510  36.410   1.814  13.160
11350W        W76511  19.302  42.444   0.052
11351W        W76512  12.575  40.015  12.435
11352W        W76513  26.621  14.694   2.840
11353W        W76514  43.830  19.575  13.065
11354W        W76515  39.718   8.275  13.550
11355W        W76516  29.719   4.901  10.697
11356W        W76517  14.057  10.284   0.428
11357W        W76518  39.727  31.622   1.882
11358W        W76519  37.328  19.031  12.485
11359W        W76520  15.837  34.358  13.780
11360W        W76521   7.666  24.069   2.746
11361W        W76522  44.432  26.658  10.320
11362W        W76523  21.943  14.721   3.566
11363W        W76524  38.129  15.478   4.209
11364W        W76525  18.298  12.824  11.183
11365W        W76526  34.947  36.487   0.694
11366W        W76527  37.902  13.907   1.265
11367W        W76528  26.505  37.145   2.614
11368W        W76529  18.243  24.717   3.622
11369W        W76530   2.183   0.517  11.147
11370W        W76531  30.032   8.304   2.649
11371W        W76532  30.112  19.254  14.826
11372W        W76533  37.096   2.176  10.735
11373W        W76534  33.391  14.285   0.528
11374W        W76535  21.173  18.737   0.859
11375W        W76536  19.584  44.905   2.896
11376W        W76537  44.652   9.229   1.789
11377W        W76538   9.808  38.039  14.914
11378W        W76539   4.417  24.632   4.148
11379W        W76540  34.494   4.021  11.150
11380W        W76541   5.781   0.285   0.388
11381W        W76542  43.853  16.338  11.963
11382W        W76543  31.922  12.346  11.517
11383W        W76544  42.629  19.465   4.545
11384W        W76545  12.667  40.509   1.902
11385W        W76546  31.880  38.130  10.608
11386W        W76547  30.162  23.239   1.869
11387W        W76548   6.759  27.021  11.960
11388W        W76549   9.779  11.998   2.205
11389W        W76550  24.164   9.817  14.055
11390W        W76551  43.420  39.350  13.807
11391W        W76552  39.836  43.596   2.820
11392W        W76553  19.916  11.336  13.074
11393W        W76554  25.657   2.686  12.853
11394W        W76555  40.503  18.778   4.995
11395W        W76556  19.697  44.097  10.628
11396W        W76557  28.648  18.544  14.243
11397W        W76558  28.865  44.569  11.629
11398W        W76559   7.347  18.212   4.155
11399W        W76560  14.810  16.410   1.461
11400W        W76561  10.219  16.650  14.919
11401W        W76562  20.435  32.136   2.820
11402W        W76563  37.879  22.440  11.074
11403W        W76564  33.941   7.775   3.635
11404W        W76565   3.765  14.284  12.522
11405W        W76566  21.227  19.118   2.200
11406W        W76567  10.774  29.483  11.620
11407W        W76568  44.850  29.335   2.213
11408W        W76569  29.602  42.020   3.964
11409W        W76570   1.917  16.068   3.553
11410W        W76571  16.149  15.415   4.673
11411W        W76572  38.048  17.092  11.095
11412W        W76573  37.944  28.838   4.201
11413W        W76574  22.249  20.558   0.345
11414W        W76575  42.031   4.712  10.781
11415W        W76576   1.155  36.272  12.973
11416W        W76577  23.942  11.987   3.173
11417W        W76578   1.643  30.038  12.986
11418W        W76579  10.055  18.016  13.350
11419W        W76580   1.014  10.128  10.154
11420W        W76581   3.948  28.388  11.978
11421W        W76582  37.383  23.584   3.276
11422W        W76583  12.720  39.849  14.380
11423W        W76584  19.673  13.283  10.234
11424W        W76585  40.897  44.464   4.228
11425W        W76586  39.918  20.715  12.000
11426W        W76587  18.776  33.954   4.223
11427W        W76588  24.132  26.774   4.067
11428W        W76589  27.358  44.413   0.343
11429W        W76590   8.016  26.135  12.184
11430W        W76591  36.116  19.410  13.354
11431W        W76592  14.863  16.757  14.358
11432W        W76593   3.779  28.852  11.043
11433W        W76594  43.299  14.660   4.451
11434W        W76595   1.626  27.204   1.703
11435W        W76596  40.665  25.960  11.475
11436W        W76597   6.824  36.827  13.385
11437W        W76598  24.535  37.192   4.120
11438W        W76599   1.440  42.232   0.279
11439W        W76600   2.955  23.323   3.234
11440W        W76601  27.650   4.130   3.526
11441W        W76602  41.041  29.546  12.907
11442W        W76603  20.025   1.742  13.027
11443W        W76604   8.235  36.575  11.244
11444W        W76605  33.401  11.398  11.303
11445W        W76606  33.376   1.716   2.628
11446W        W76607  28.481  43.992   4.809
11447W        W76608   8.148   4.344  13.476
11448W        W76609  10.483  42.977  10.251
11449W        W76610  34.601  37.342   1.897
11450W        W76611  32.930   5.983   1.189
11451W        W76612   6.153  21.279   2.361
11452W        W76613  28.649  18.645   1.188
11453W        W76614  38.180  28.924  14.352
11454W        W76615  31.626  35.781   3.301
11455W        W76616  33.562  25.577  12.838
11456W        W76617  30.883  14.657  13.891
11457W        W76618  33.479  25.940   1.792
11458W        W76619  23.574   2.810   4.340
11459W        W76620  25.661  23.198   2.219
11460W        W76621  17.932  17.094   5.753
11461W        W76622  25.252  21.263   3.970
11462W        W76623  25.546  40.235   3.710
11463W        W76624  24.192  19.733   0.921
11464W        W76625   4.839  43.476   2.379
11465W        W76626  40.499  32.685   0.470
11466W        W76627  21.056  39.864   4.132
11467W        W76628  26.906  42.309  14.847
11468W        W76629   7.364  38.456  14.024
11469W        W76630   7.113  14.761   0.201
11470W        W76631  24.975  31.926   3.278
11471W        W76632  24.013   7.063  11.708
11472W        W76633  40.987  41.025   4.164
11473W        W76634  34.487   5.393   2.332
11474W        W76635  15.354   5.404   4.532
11475W        W76636  37.095  43.916  11.487
11476W        W76637  11.919  19.170   3.302
11477W        W76638  28.190  38.459  11.987
11478W        W76639  28.012  19.984  11.565
11479W        W76640  14.237  14.102   2.965
11480W        W76641  33.526  15.756   4.128
11481W        W76642  13.580   7.049  11.149
11482W        W76643   3.925  18.025   0.128
11483W        W76644   7.840  28.004   3.640
11484W        W76645  36.442  40.496   0.060
11485W        W76646  16.524  30.047   2.261
11486W        W76647  22.092  20.202  11.830
11487W        W76648  21.245  10.283  14.608
11488W        W76649  27.966  30.636   1.034
11489W        W76650  29.683  16.843  14.434
11490W        W76651  44.375  17.474   0.327
11491W        W76652  13.082   5.451   1.603
11492W        W76653   5.818  43.752   4.034
11493W        W76654   8.316   2.694   3.341
11494W        W76655  30.989  34.927  14.810
11495W        W76656  19.165  32.649   0.513
11496W        W76657  28.904  44.270   2.997
11497W        W76658  34.543  37.992  10.717
11498W        W76659  44.650   6.645   4.679
11499W        W76660  39.515  15.673   0.750
11500W        W76661   9.770   8.329   4.668
11501W        W76662  42.007  22.278   0.846
11502W        W76663  38.979  15.245   2.726
11503W        W76664  17.673  34.637   0.233
11504W        W76665  20.473  43.854   2.362
11505W        W76666  27.828  12.661  11.580
11506W        W76667  15.847  32.502  12.467
11507W        W76668  31.408  17.747  12.545
11508W        W76669  35.498   7.685  12.439
11509W        W76670  37.816  32.224   3.625
11510W        W76671  28.670  40.505   0.273
11511W        W76672  36.779   8.763   3.649
11512W        W76673  28.534  26.167  10.278
11513W        W76674  14.183   7.689  11.664
11514W        W76675  21.501  29.000   2.755
11515W        W76676  44.877  28.895  13.728
11516W        W76677  28.516   4.997   0.841
11517W        W76678   1.077  42.043  13.846
11518W        W76679   9.568   2.795   2.696
11519W        W76680  33.544  24.264   1.405
11520W        W76681  11.804  31.670  13.850
11521W        W76682  38.084  28.995  11.532
11522W        W76683  25.561  28.109   0.682
11523W        W76684  11.719   9.812  11.433
11524W        W76685  29.961  29.400  14.312
11525W        W76686  20.740  24.958   3.288
11526W        W76687   9.443  17.171  13.921
11527W        W76688  31.405  33.824  13.192
11528W        W76689  23.203  12.924   1.757
11529W        W76690   0.817  22.665  14.860
11530W        W76691  39.321  16.122  14.033
11531W        W76692  26.868  21.520   9.896
11532W        W76693  23.240   2.910   0.028
11533W        W76694  18.124  43.874   1.865
11534W        W76695  44.385  12.088  11.659
11535W        W76696  11.764  42.544   2.261
11536W        W76697  10.808  23.278   4.794
11537W        W76698  22.568  41.038  13.083
11538W        W76699  18.375  36.340   0.495
11539W        W76700  40.536  43.241   3.747
11540W        W76701   1.930  20.189   2.151
11541W        W76702  39.914  25.882   1.618
11542W        W76703   7.209  15.635   4.631
11543W        W76704  23.114  19.768  11.033
11544W        W76705  27.024  19.648  14.032
11545W        W76706  39.274   5.411  13.066
11546W        W76707   3.346  19.500  10.722
11547W        W76708  12.075  10.972  12.756
11548W        W76709  33.602   3.325  13.407
11549W        W76710  21.988  26.658  13.908
11550W        W76711  13.077   8.760   3.099
11551W        W76712  10.420  21.153   1.961
11552W        W76713  34.133   4.860  10.700
11553W        W76714  12.275   9.378  14.467
11554W        W76715  17.220  37.261  14.065
11555W        W76716  17.876   8.896  13.014
11556W        W76717  27.117   6.387   1.495
11557W        W76718  19.347   2.678  12.965
11558W        W76719  22.946  43.411   1.322
11559W        W76720  17.045  31.649   0.859
11560W        W76721  30.206   4.755   1.044
11561W        W76722  19.868   4.245   1.782
11562W        W76723  21.623  12.115  13.068
11563W        W76724   9.129  42.235   3.885
11564W        W76725  30.732  23.384  10.727
11565W        W76726  12.993  11.617  11.080
11566W        W76727  22.391  29.371  12.721
11567W        W76728  16.153  44.858   4.040
11568W        W76729   9.268  28.121   0.687
11569W        W76730  11.783  38.171   3.572
11570W        W76731  12.470  14.790  12.737
11571W        W76732   6.865  15.369   2.666
11572W        W76733  23.056  38.386  14.260
11573W        W76734  24.158  25.502  12.079
11574W        W76735  18.420  32.596  13.925
11575W        W76736   2.143  22.992   3.914
11576W        W76737  17.625   8.471   0.910
11577W        W76738  29.804  22.259   2.736
11578W        W76739   8.240  24.565   3.829
11579W        W76740  40.744   4.930  11.940
11580W        W76741  12.046  25.304  11.457
11581W        W76742  14.170  28.431   1.855
11582W        W76743  42.762  41.947   0.679
11583W        W76744  39.030  13.338   1.491
11584W        W76745  28.104  42.282  10.765
11585W        W76746   0.554  34.917   2.938
11586W        W76747  10.356   1.879  11.094
11587W        W76748  40.924  39.493   0.714
11588W        W76749  24.028   6.318   0.590
11589W        W76750  14.564  25.112  12.065
11590W        W76751  32.721  16.650   1.377
11591W        W76752  41.521  17.721  11.954
11592W        W76753   6.719   1.477  13.874
11593W        W76754  42.770  32.684   4.833
11594W        W76755  18.146  14.570  13.025
11595W        W76756   1.507  19.309  14.950
11596W        W76757  17.035  13.230   4.538
11597W        W76758  32.009  19.634   2.730
11598W        W76759  14.255   7.226   3.634
11599W        W76760  13.826  12.213   1.742
11600W        W76761   1.998  37.462   2.772
11601W        W76762  26.485  28.102   4.707
11602W        W76763  28.730  18.240   3.670
11603W        W76764  38.338  27.153   2.093
11604W        W76765  29.210   1.975   3.279
11605W        W76766  32.905  31.808  11.513
11606W        W76767   0.741  18.025  10.634
11607W        W76768   3.662  24.288  14.534
11608W        W76769  11.762  17.127   3.145
11609W        W76770   3.640  25.336  10.735
11610W        W76771  36.107  27.959  12.896
11611W        W76772  28.334  19.536   0.828
11612W        W76773  38.570   5.063   0.448
11613W        W76774   6.813  15.723   1.267
11614W        W76775  44.500  34.000   3.431
11615W        W76776  32.303  30.416  13.417
11616W        W76777  28.569  34.174   1.813
11617W        W76778   8.884  34.435   1.655
11618W        W76779   8.672  32.453  10.731
11619W        W76780   6.461  34.057   3.229
11620W        W76781  32.124  32.464  11.581
11621W        W76782   7.852  23.619   3.679
11622W        W76783  41.871  18.091  13.455
11623W        W76784  27.276  25.441  10.717
11624W        W76785  37.740  15.153  14.323
11625W        W76786  20.057  27.941  11.531
11626W        W76787  21.222   6.639   4.959
11627W        W76788  36.204  44.738   1.495
11628W        W76789  36.595   7.343   3.661
11629W        W76790   7.241  39.596  10.601
11630W        W76791  23.664  19.566  14.095
11631W        W76792  18.954   9.300   1.477
11632W        W76793  12.191  20.654   1.269
11633W        W76794   7.691  42.532  13.058
11634W        W76795  41.786  20.012   0.898
11635W        W76796   0.395  39.559  10.441
11636W        W76797  34.071   4.846   4.597
11637W        W76798  12.472  13.502   0.765
11638W        W76799  44.076  16.364   4.729
11639W        W76800  28.666  26.600  11.039
11640W        W76801  14.139   2.949   4.876
11641W        W76802  43.765  13.822  11.030
11642W        W76803  33.657  35.915   0.907
11643W        W76804  25.580  21.907   3.611
11644W        W76805  28.599  42.292  14.497
11645W        W76806  32.618  39.240  14.347
11646W        W76807  27.522  36.508   2.699
11647W        W76808  37.274   2.284  13.543
11648W        W76809  34.526  33.731   3.220
11649W        W76810   3.856  11.817  11.498
11650W        W76811  39.902  12.224  13.495
11651W        W76812  32.759  31.856   3.752
11652W        W76813  23.766  25.414  14.422
11653W        W76814  41.581  28.042   2.603
11654W        W76815   4.674  27.164  13.933
11655W        W76816  33.661  40.457   4.001
11656W        W76817  25.516  44.651   3.546
11657W        W76818  16.257  14.837   4.563
11658W        W76819  37.575   9.562  11.569
11659W        W76820  23.685   8.694   4.974
11660W        W76821  41.624  16.726  13.140
11661W        W76822  10.473  16.829   4.487
11662W        W76823  13.565  25.252  11.806
11663W        W76824   8.357  25.438  14.802
11664W        W76825  44.587  22.323   0.479
11665W        W76826  11.760  18.522   4.256
11666W        W76827  24.954  31.521  12.124
11667W        W76828  36.802  42.312   3.702
11668W        W76829  42.958  42.433  13.446
11669W        W76830  23.718  43.343  13.693
11670W        W76831   3.654  38.908  14.588
11671W        W76832  20.318  13.174  12.086
11672W        W76833  34.921  15.461   9.983
11673W        W76834  33.095  10.872   4.327
11674W        W76835   0.551  33.462  10.970
11675W        W76836  16.230  38.291   4.321
11676W        W76837  17.300  26.171   2.326
11677W        W76838  25.967   7.913   4.824
11678W        W76839   4.794  13.277   3.031
11679W        W76840   0.733  27.633   2.341
11680W        W76841  31.668  19.551  14.455
11681W        W76842  42.577  38.880   0.796
11682W        W76843  19.124  41.556  12.618
11683W        W76844   1.069  15.416   2.461
11684W        W76845  19.874  25.650  13.400
11685W        W76846  23.758  27.563   4.326
11686W        W76847  38.104  27.914   0.346
11687W        W76848   8.724  10.110  12.802
11688W        W76849   5.859  14.133   0.685
11689W        W76850  30.394  25.926  12.497
11690W        W76851  23.252  23.953   4.955
11691W        W76852   8.384  37.535   4.582
11692W        W76853  36.809  34.066  13.650
11693W        W76854   1.486  33.200   4.544
11694W        W76855  42.850  38.775  14.202
11695W        W76856  31.213  24.271  10.664
11696W        W76857  17.808  21.683   4.329
11697W        W76858  15.766  17.516   3.039
11698W        W76859  21.799   4.205   0.181
11699W        W76860  23.570  42.858  13.388
11700W        W76861  15.009  40.196   0.361
11701W        W76862   8.426  13.709   3.727
11702W        W76863  12.625  37.525   4.092
11703W        W76864  28.412   0.768  13.541
11704W        W76865  36.085   3.343  12.634
11705W        W76866  27.741   6.894   4.733
11706W        W76867   9.300  11.176  13.565
11707W        W76868  38.615  24.656  13.908
11708W        W76869  40.034  15.063   1.796
11709W        W76870  34.860  30.051   4.634
11710W        W76871  39.474  21.943   0.265
11711W        W76872   1.533  11.267  13.173
11712W        W76873  21.363  14.056  12.038
11713W        W76874   4.623  27.191   2.948
11714W        W76875   7.413   5.058   4.903
11715W        W76876  40.443  14.663  10.673
11716W        W76877  18.184   2.705   2.251
11717W        W76878  17.620  27.011  12.263
11718W        W76879  28.273  38.379   9.883
11719W        W76880  28.363  13.652  10.781
11720W        W76881  15.052  12.323   3.306
11721W        W76882  15.474  39.382  12.159
11722W        W76883  41.025  38.046   0.488
11723W        W76884  13.129  19.111   2.715
11724W        W76885  43.928  43.613   3.447
11725W        W76886  10.761  14.807   1.710
11726W        W76887  31.485  39.294  13.958
11727W        W76888  38.633   6.180   0.156
11728W        W76889  33.039  32.774   2.517
11729W        W76890  13.184  13.249   2.811
11730W        W76891  21.185  40.002   5.118
11731W        W76892  39.057  25.603  10.899
11732W        W76893  38.972  29.916   4.739
11733W        W76894  26.462   9.193  12.846
11734W        W76895  17.621   5.670   2.615
11735W        W76896  15.111  34.778   2.012
11736W        W76897  17.570  12.400   0.172
11737W        W76898   4.795  24.047   3.611
11738W        W76899  31.941   4.518  11.043
11739W        W76900  35.875  33.489  14.521
11740W        W76901  29.635  31.153  11.056
11741W        W76902   4.431  19.247   0.208
11742W        W76903  14.244  36.000   3.138
11743W        W76904  39.094  15.009  12.622
11744W        W76905   2.440   6.467   0.862
11745W        W76906  20.519  18.631   4.333
11746W        W76907  35.110  26.633   0.708
11747W        W76908  14.870   9.671   0.285
11748W        W76909  25.036  28.985  12.609
11749W        W76910  25.197  40.153   4.534
11750W        W76911  43.775  27.433  11.708
11751W        W76912  15.574  19.251  13.954
11752W        W76913  11.995  11.944  11.225
11753W        W76914  42.592   4.430   4.114
11754W        W76915  33.118  35.070  12.539
11755W        W76916  20.831   5.216  14.993
11756W        W76917  15.654  44.979   4.116
11757W        W76918   6.644  12.676  10.728
11758W        W76919  39.162  30.860   3.742
11759W        W76920  26.232  21.203   0.368
11760W        W76921  20.717   7.678   2.207
11761W        W76922  34.842   6.779   2.335
11762W        W76923   1.780   6.886   4.173
11763W        W76924  44.050  44.760  14.424
11764W        W76925  33.399  21.014   1.755
11765W        W76926  31.583  10.333   2.301
11766W        W76927  44.723  37.213   1.824
11767W        W76928  25.502  18.863  12.066
11768W        W76929  11.282  39.743  14.478
11769W        W76930  26.116  17.020  13.032
11770W        W76931  13.442  29.662  13.948
11771W        W76932  11.769  42.471   3.171
11772W        W76933  40.881   6.958  13.766
11773W        W76934  10.848  27.921  10.313
11774W        W76935  38.685  33.434   4.807
11775W        W76936  44.717  27.469  10.592
11776W        W76937   8.703  42.232   1.519
11777W        W76938  34.203  10.369   4.411
11778W        W76939   2.341  30.703  10.699
11779W        W76940  38.899  39.915  11.582
11780W        W76941  18.243   0.971   4.724
11781W        W76942   5.241  18.216   0.866
11782W        W76943  31.672  35.300   1.473
11783W        W76944   9.093  27.881   5.605
11784W        W76945  16.826  43.111   2.246
11785W        W76946  35.028  33.173   2.216
11786W        W76947   0.274  44.121  10.734
11787W        W76948  44.431  35.836  10.708
11788W        W76949  36.336  36.723   5.020
11789W        W76950  14.636  39.573   3.287
11790W        W76951   0.628  16.299  10.273
11791W        W76952  28.027  37.328  13.446
11792W        W76953  28.681  24.584   4.476
11793W        W76954  31.665   0.914  12.777
11794W        W76955   1.918  42.904  14.688
11795W        W76956  34.858  13.315  10.704
11796W        W76957  28.835   6.861  13.210
11797W        W76958  25.638  18.946  14.867
11798W        W76959   7.878   1.531   2.796
11799W        W76960  38.279   9.225  14.941
11800W        W76961  25.576   6.851  10.935
11801W        W76962  12.075  36.476  11.327
11802W        W76963  12.327  15.060   1.805
11803W        W76964   1.318  20.356  14.895
11804W        W76965  37.385  21.674  12.903
11805W        W76966  26.115   9.377  14.849
11806W        W76967   3.782   4.184   2.380
11807W        W76968  37.839  14.179   4.284
11808W        W76969   2.251  39.470   4.480
11809W        W76970  18.430   3.970  14.902
11810W        W76971   0.230  12.638  13.210
11811W        W76972  13.904  21.952   3.745
11812W        W76973  39.956   6.176   1.565
11813W        W76974  21.678  26.935  14.222
11814W        W76975  19.494   5.847  11.651
11815W        W76976  12.979  10.725   0.896
11816W        W76977  27.730   5.228  11.896
11817W        W76978   4.932  14.139  14.916
11818W        W76979  19.786  18.655   0.224
11819W        W76980  36.367  43.769   1.465
11820W        W76981  35.388   6.792  11.702
11821W        W76982  44.348  40.772   0.933
11822W        W76983  18.208  23.771  11.659
11823W        W76984  32.964  22.619  10.244
11824W        W76985   2.276   1.272   4.726
11825W        W76986   6.847  21.474  11.970
11826W        W76987  23.664  16.108   3.205
11827W        W76988  12.912  30.974   1.813
11828W        W76989  44.408  29.593  13.709
11829W        W76990  13.803  27.713   4.519
11830W        W76991  35.417  32.911  14.442
11831W        W76992  31.536  27.648  14.599
11832W        W76993  43.868  41.347   4.073
11833W        W76994   1.235  29.642   4.293
11834W        W76995  39.831  21.548  10.617
11835W        W76996  40.152  13.291  14.153
11836W        W76997  27.247  18.761  14.589
11837W        W76998  17.033   1.201   1.820
11838W        W76999  43.429  10.140  12.779
11839W        W77000  16.890  34.293  10.684
11840W        W77001   9.109  11.610  13.764
11841W        W77002  20.771  44.024  12.535
11842W        W77003  34.589  16.639   4.286
11843W        W77004  22.733  33.464   1.302
11844W        W77005   7.099  33.557  11.564
11845W        W77006  39.489  38.050  10.881
11846W        W77007  31.342   1.960  12.530
11847W        W77008  22.228  12.748   0.540
11848W        W77009  38.025  29.999   0.212
11849W        W77010  37.837  26.702   2.700
11850W        W77011   7.128  23.691  13.945
11851W        W77012   5.063  36.540  13.351
11852W        W77013   0.846  17.174   1.704
11853W        W77014  31.377  15.252  12.994
11854W        W77015   6.317  15.874   1.379
11855W        W77016  44.473  39.350   3.158
11856W        W77017   2.832  35.608  10.212
11857W        W77018   9.735  31.954  12.587
11858W        W77019   7.410  27.883  14.427
11859W        W77020  35.988   9.573  14.296
11860W        W77021  12.892  29.884  12.637
11861W        W77022   7.258  38.366   0.287
11862W        W77023  36.921  14.227  11.089
11863W        W77024  39.255  32.973   0.242
11864W        W77025  36.184  19.611   4.480
11865W        W77026  14.108  18.691  10.430
11866W        W77027  35.208  23.026  11.708
11867W        W77028  42.422  15.769   0.784
11868W        W77029   5.295  23.181   1.978
11869W        W77030  11.886  37.380  10.561
11870W        W77031  35.963  23.197   3.076
11871W        W77032   0.257  29.199   1.313
11872W        W77033  11.998  35.834   1.831
11873W        W77034   5.414  22.157  13.961
11874W        W77035   8.556  33.561   4.406
11875W        W77036  30.077  17.756  10.521
11876W        W77037  10.947  44.796   4.138
11877W        W77038  32.648  30.491  11.598
11878W        W77039   3.823  15.003   1.953
11879W        W77040  28.243  35.701   0.768
11880W        W77041  38.835  37.954   2.267
11881W        W77042  36.006  16.504   3.261
11882W        W77043  26.800   3.462  13.775
11883W        W77044  42.335  41.194   0.361
11884W        W77045  11.130  11.148   0.267
11885W        W77046  32.318   5.828   0.740
11886W        W77047  31.980   3.495   5.013
11887W        W77048  35.550  12.036  13.981
11888W        W77049   2.789  40.038   3.211
11889W        W77050   5.723  40.979  10.738
11890W        W77051  22.672   6.006   0.393
11891W        W77052  11.475  12.560   3.308
11892W        W77053  41.571  28.562   2.945
11893W        W77054  40.993  37.518   3.251
11894W        W77055  15.466  21.977  12.478
11895W        W77056  38.945  22.028  11.563
11896W        W77057   4.942  13.749   4.316
11897W        W77058   4.167  38.152  12.391
11898W        W77059  32.689  27.190  11.694
11899W        W77060  30.321   9.224  13.974
11900W        W77061  42.869  31.661  14.417
11901W        W77062  29.276  44.373   3.862
11902W        W77063  20.212  42.858  12.649
11903W        W77064  21.126   9.098   0.197
11904W        W77065   0.981   4.674  13.324
11905W        W77066  10.842  30.430  13.500
11906W        W77067  13.085   5.256   3.831
11907W        W77068  15.260  19.982  12.961
11908W        W77069  16.863   6.925  11.138
11909W        W77070   4.193  13.598  13.776
11910W        W77071  21.998  12.131   3.734
11911W        W77072  16.192   1.935  12.916
11912W        W77073  21.040  13.865  13.612
11913W        W77074  28.648   8.749  14.133
11914W        W77075  29.949  20.983  12.841
11915W        W77076   5.154  11.219   3.878
11916W        W77077  36.338   6.855   4.519
11917W        W77078  30.658  31.706   0.114
11918W        W77079  14.702  41.325   1.935
11919W        W77080  22.140  18.692   0.488
11920W        W77081  35.436   8.785  14.916
11921W        W77082  22.975  28.544   4.677
11922W        W77083  12.168   4.900   1.168
11923W        W77084  21.299  10.207   3.207
11924W        W77085  33.495  18.590   1.497
11925W        W77086  30.435  10.606  11.547
11926W        W77087  38.362  15.627  10.632
11927W        W77088  18.477  17.720   0.658
11928W        W77089   3.858  36.886   0.020
11929W        W77090   4.825  38.389  13.044
11930W        W77091  43.530  41.440  11.193
11931W        W77092   0.252  44.905   3.998
11932W        W77093  27.583  35.838  12.961
11933W        W77094  31.033  31.873   3.607
11934W        W77095  22.650  16.824   0.508
11935W        W77096  36.225  34.642   2.220
11936W        W77097   9.295  23.399  10.443
11937W        W77098  14.361  44.605  11.092
11938W        W77099  17.166  36.368   1.461
11939W        W77100  13.877  33.123  12.588
11940W        W77101  27.475   5.407   1.207
11941W        W77102  29.057  35.303   1.239
11942W        W77103   9.975  26.743   2.613
11943W        W77104  10.885  43.476  12.884
11944W        W77105  38.436  39.584  12.470
11945W        W77106  12.831  33.022  12.497
11946W        W77107  44.989   2.209   1.155
11947W        W77108  18.670   9.746  12.335
11948W        W77109  43.510  40.321   2.871
11949W        W77110  28.246  16.371   3.701
11950W        W77111  10.759  42.987   4.518
11951W        W77112  28.652  40.706   2.216
11952W        W77113  17.185  35.578  11.134
11953W        W77114  21.715  19.740  12.329
11954W        W77115  41.991  34.363  10.679
11955W        W77116   8.116  20.079   1.291
11956W        W77117  33.634  10.795  12.946
11957W        W77118  25.029   5.446   0.819
11958W        W77119  36.966   4.001   2.198
11959W        W77120  37.886  12.871   2.658
11960W        W77121  43.223  39.537  12.535
11961W        W77122   7.689  29.685  10.586
11962W        W77123   1.093  20.553  13.872
11963W        W77124   9.129  18.843   2.636
11964W        W77125   1.783  14.521  13.588
11965W        W77126  20.142  31.918   1.520
11966W        W77127  23.707  43.444  14.992
11967W        W77128  26.073  43.103   5.113
11968W        W77129  15.451  13.623  12.878
11969W        W77130  17.597  29.698   0.298
11970W        W77131  20.339  15.597  14.056
11971W        W77132  33.113  16.508  10.783
11972W        W77133  31.468  31.896   3.306
11973W        W77134  17.203  41.934  13.083
11974W        W77135  17.221  23.326   0.003
11975W        W77136   3.003   0.885  13.495
11976W        W77137  17.015  17.836   3.201
11977W        W77138  20.527  29.559  14.402
11978W        W77139   0.999  37.861  12.311
11979W        W77140  42.811  31.060   3.289
11980W        W77141  25.700   5.925   2.333
11981W        W77142   0.376  31.312  12.896
11982W        W77143  16.093  32.366  11.632
11983W        W77144  25.207  22.237   1.051
11984W        W77145  27.048  32.631   4.385
11985W        W77146  18.185  25.182   3.842
11986W        W77147  42.263  32.428  13.949
11987W        W77148  18.198  29.929  10.873
11988W        W77149  21.475  20.671  13.949
11989W        W77150  13.715   7.024   0.408
11990W        W77151   5.388  39.496   1.219
11991W        W77152  19.322  30.627   3.321
11992W        W77153  27.170  39.041   0.836
11993W        W77154  29.167  22.109  13.662
11994W        W77155  29.621   6.570   2.337
11995W        W77156  31.611  30.445  11.005
11996W        W77157  33.379  40.401   1.300
11997W        W77158  12.150  24.831  10.515
11998W        W77159  35.415   2.639   2.343
11999W        W77160  41.100  36.095  10.695
12000W        W77161  34.659  35.611   1.668
12001W        W77162  19.657  30.598  12.877
12002W        W77163  28.429  14.137  10.598
12003W        W77164   6.242  19.691   0.304
12004W        W77165  18.626  35.975  14.915
12005W        W77166  27.523  38.879  14.979
12006W        W77167  29.374   4.396   1.100
12007W        W77168  18.900  31.479   0.263
12008W        W77169  21.763  41.167  13.022
12009W        W77170  25.077  27.537  14.688
12010W        W77171  31.837   6.182  14.919
12011W        W77172  22.531  20.992   0.456
12012W        W77173  38.325  36.097  11.429
12013W        W77174  22.978  32.969   0.249
12014W        W77175   9.924  12.633  14.445
12015W        W77176  40.560  40.224  13.664
12016W        W77177  26.008  28.516  13.737
12017W        W77178  14.820  13.269   1.613
12018W        W77179  39.718  44.089  14.592
12019W        W77180  21.057  13.278   3.092
12020W        W77181  18.608  19.546  12.545
12021W        W77182  32.532   3.920  11.562
12022W        W77183  26.054   4.866   0.663
12023W        W77184   3.502  39.062  14.110
12024W        W77185   6.318   9.781   0.804
12025W        W77186   3.351  37.514  13.364
12026W        W77187  26.828  19.580   2.066
12027W        W77188   1.953   3.487  11.106
12028W        W77189  42.037  24.045   4.635
12029W        W77190  10.650   5.590   3.500
12030W        W77191  29.257  29.117   2.346
12031W        W77192  21.339  30.630   0.867
12032W        W77193  23.048  14.261   1.015
12033W        W77194  34.559  41.045   4.172
12034W        W77195  41.010   2.552   3.690
12035W        W77196   0.851   5.185   3.819
12036W        W77197  12.151  29.974  14.310
12037W        W77198  23.035  25.562   2.007
12038W        W77199   8.985  40.417   4.758
12039W        W77200  16.408  13.406  13.211
12040W        W77201  19.506  36.647  13.071
12041W        W77202  37.460  28.444  12.407
12042W        W77203   7.930  26.280  13.343
12043W        W77204   9.370  23.515   0.292
12044W        W77205  11.717  18.798  10.746
12045W        W77206   8.325  32.534   3.663
12046W        W77207  20.665   0.438  11.440
12047W        W77208  24.232  43.350   3.787
12048W        W77209  16.803   7.175  14.328
12049W        W77210  10.475  44.429  12.945
12050W        W77211  25.621  43.019   1.315
12051W        W77212  27.071   4.886  11.679
12052W        W77213  44.572  44.376   1.950
12053W        W77214  22.043   1.842  13.079
12054W        W77215  42.549  19.533   2.239
12055W        W77216  42.625  12.411   0.293
12056W        W77217  12.548  21.085  12.966
12057W        W77218  39.384  42.122  12.518
12058W        W77219   7.195  22.559   1.922
12059W        W77220  11.385   3.138   4.938
12060W        W77221  31.501  32.421   4.270
12061W        W77222  12.804  44.354   1.114
12062W        W77223   3.066  44.944  12.448
12063W        W77224  44.218  26.716  12.375
12064W        W77225  23.489  37.325  10.709
12065W        W77226  24.550  37.241  10.220
12066W        W77227  21.235  16.852  13.811
12067W        W77228  12.491  23.131  14.231
12068W        W77229  43.468  38.254  10.676
12069W        W77230  25.961  37.847   3.331
12070W        W77231  12.756   2.433   1.482
12071W        W77232  21.982   1.142   2.592
12072W        W77233  27.558   6.194  12.151
12073W        W77234  14.681  25.128   4.518
12074W        W77235   3.000  41.935   1.828
12075W        W77236  25.219   8.859   3.110
12076W        W77237  37.571  43.731  12.308
12077W        W77238  23.853  39.761   1.574
12078W        W77239  25.087   6.129  12.037
12079W        W77240  10.619   4.222   3.674
12080W        W77241  38.969  17.229  12.925
12081W        W77242  32.076  31.885  12.081
12082W        W77243  27.142  24.271   0.854
12083W        W77244  35.131  32.655  13.369
12084W        W77245  26.960  28.662  13.453
12085W        W77246   5.792  14.468  11.188
12086W        W77247  15.847  42.050   4.283
12087W        W77248  33.375   0.408  12.890
12088W        W77249  13.036  20.230  10.641
12089W        W77250  26.445   9.082  14.248
12090W        W77251  20.686  10.362   1.908
12091W        W77252   3.179  11.454   0.932
12092W        W77253   0.867  24.162  14.281
12093W        W77254  16.971  20.039  11.561
12094W        W77255   6.748  23.099   1.396
12095W        W77256  30.093   0.926   4.523
12096W        W77257  38.381  41.915   4.206
12097W        W77258   4.350   4.768   1.813
12098W        W77259  25.270  39.914   0.402
12099W        W77260  43.405  22.866  10.114
12100W        W77261  19.016   7.242   3.218
12101W        W77262  37.475  21.913  13.373
12102W        W77263  30.587  14.587  12.885
12103W        W77264  40.394  20.838  10.689
12104W        W77265  20.578  25.744   1.984
12105W        W77266  17.238  29.223  13.069
12106W        W77267  16.268   5.629  12.846
12107W        W77268  31.147  18.741  11.557
12108W        W77269  14.084  25.109  14.030
12109W        W77270  22.606  12.405   0.346
12110W        W77271  11.316  39.896  11.331
12111W        W77272  42.723   9.633  13.049
12112W        W77273  42.797  33.969   1.065
12113W        W77274  10.628  22.713  13.058
12114W        W77275   0.006  23.300  12.927
12115W        W77276  16.277   2.199   5.126
12116W        W77277  32.986   3.162   4.781
12117W        W77278  33.496  15.826   0.518
12118W        W77279   4.123   4.703  12.559
12119W        W77280  15.623  25.484   4.047
12120W        W77281  11.725  34.737  10.171
12121W        W77282  18.807  19.832  13.948
12122W        W77283  30.887  20.270  14.409
12123W        W77284  15.014  23.225   0.918
12124W        W77285   6.086  17.563  12.116
12125W        W77286  16.727  37.331   5.316
12126W        W77287   1.464  11.161   1.601
12127W        W77288  29.005  37.894   1.359
12128W        W77289  10.902  44.260  11.501
12129W        W77290   7.150  22.010   0.015
12130W        W77291  20.105  16.496   2.731
12131W        W77292  41.726  41.398  11.451
12132W        W77293  33.152  15.230   3.491
12133W        W77294   4.998   2.870   2.664
12134W        W77295   1.951   0.129  12.623
12135W        W77296  31.502  34.324   3.689
12136W        W77297  27.499   2.973  10.730
12137W        W77298  14.788  13.307  10.468
12138W        W77299  36.523   9.175   4.138
12139W        W77300  36.979  22.029   2.654
12140W        W77301  14.601  24.774  14.775
12141W        W77302  42.298  38.548   1.411
12142W        W77303   8.104  21.337   0.782
12143W        W77304  16.543   3.857  13.930
12144W        W77305  42.406   0.285   3.572
12145W        W77306  34.568  21.491  10.564
12146W        W77307   3.111  16.196  13.955
12147W        W77308  10.159   3.137   1.286
12148W        W77309   3.268  14.240   0.421
12149W        W77310  15.277  18.475   1.728
12150W        W77311  43.285  43.011   3.374
12151W        W77312  42.964  28.005   2.295
12152W        W77313  18.401   1.654  14.433
12153W        W77314  30.560  11.331  13.042
12154W        W77315   1.898  27.714   1.372
12155W        W77316  10.354  13.755   9.791
12156W        W77317  29.061   8.295  14.852
12157W        W77318   8.630   3.523  11.501
12158W        W77319  11.902  25.030   1.854
12159W        W77320  34.745   4.387   1.466
12160W        W77321  28.217  28.707  13.908
12161W        W77322  23.957   6.334  13.888
12162W        W77323  39.754  10.220   5.091
12163W        W77324  10.083  31.158   4.104
12164W        W77325  31.074  25.523   3.140
12165W        W77326  29.155   9.755   2.709
12166W        W77327  20.996  43.828   2.416
12167W        W77328  40.974  18.645   3.231
12168W        W77329  36.102   8.233  10.697
12169W        W77330  43.440  31.112  12.240
12170W        W77331  42.043  34.157   4.611
12171W        W77332  36.531  17.637   4.574
12172W        W77333  13.862  32.512   0.340
12173W        W77334   3.704  42.416  12.582
12174W        W77335  24.476  35.456   0.834
12175W        W77336  11.814  37.055   4.060
12176W        W77337  37.382  10.015   1.827
12177W        W77338  10.766   8.511  10.354
12178W        W77339  31.561   8.386   3.935
12179W        W77340  31.146  27.374   3.608
12180W        W77341   9.914  35.324  11.923
12181W        W77342  19.980  42.274  13.340
12182W        W77343   7.849  21.498  10.587
12183W        W77344  44.236  37.801  10.406
12184W        W77345   3.762  37.089  10.832
12185W        W77346  35.907  25.062  13.853
12186W        W77347  40.287  43.399   4.201
12187W        W77348  27.732  43.513  11.529
12188W        W77349  40.282  16.942  13.400
12189W        W77350   4.427  19.334   2.840
12190W        W77351  40.484  16.370   1.541
12191W        W77352  44.159  41.254   1.866
12192W        W77353  44.593  41.753   4.109
12193W        W77354  34.457  14.668  11.499
12194W        W77355  15.542  36.902  10.602
12195W        W77356  36.022  20.261   1.899
12196W        W77357  37.121  15.373  12.479
12197W        W77358  23.576   5.680   0.305
12198W        W77359  37.018  39.872  13.393
12199W        W77360   7.304  31.655   4.243
12200W        W77361  25.458  32.952   2.270
12201W        W77362  38.533  38.559   3.291
12202W        W77363  13.725   1.533  13.484
12203W        W77364  22.090  29.182   0.492
12204W        W77365  25.528   7.528  12.964
12205W        W77366  40.527  28.043   2.289
12206W        W77367  37.950  32.409  13.087
12207W        W77368  44.402  19.761   4.129
12208W        W77369  36.367   2.770   3.253
12209W        W77370  12.670  10.177  14.451
12210W        W77371  29.342  33.092  14.378
12211W        W77372  25.611  15.803  11.139
12212W        W77373   7.356  32.941   4.863
12213W        W77374  30.522  25.916   1.670
12214W        W77375   3.385   0.796   3.253
12215W        W77376  26.235  15.240   2.299
12216W        W77377  36.914   0.857  11.938
12217W        W77378  14.903  29.438   1.904
12218W        W77379  16.090  35.364   1.430
12219W        W77380  40.864   5.256  12.897
12220W        W77381  13.850  40.008  13.676
12221W        W77382  13.128   0.359  12.113
12222W        W77383  26.516   3.313  10.394
12223W        W77384  39.641  27.159  11.650
12224W        W77385   3.920  16.531   1.874
12225W        W77386  20.138  33.328  14.775
12226W        W77387  18.104  35.023  13.436
12227W        W77388  20.167  25.976   3.771
12228W        W77389  39.906  44.112  11.526
12229W        W77390  11.716  19.860   1.109
12230W        W77391  36.240  13.854   3.522
12231W        W77392  37.458  34.474  12.451
12232W        W77393  34.907  17.243   3.680
12233W        W77394  25.414   1.220  12.314
12234W        W77395  16.307   5.468  14.541
12235W        W77396  23.973  41.017  11.701
12236W        W77397  37.957   2.473  12.908
12237W        W77398  27.028  11.162   0.218
12238W        W77399  42.061  22.029  12.494
12239W        W77400   9.483  21.073  11.960
12240W        W77401  16.707  10.197  13.995
12241W        W77402  37.483  33.523  13.353
12242W        W77403   7.200   5.906   1.249
12243W        W77404  39.751  31.716  11.202
12244W        W77405   2.665  12.230   3.185
12245W        W77406  20.258   1.254   0.221
12246W        W77407  12.405  44.188  11.076
12247W        W77408  34.904   8.810  13.770
12248W        W77409  25.997  31.508  11.199
12249W        W77410  43.940   3.235   0.932
12250W        W77411  12.363  40.852  13.428
12251W        W77412   0.871  16.335   3.189
12252W        W77413  42.723  38.124  10.638
12253W        W77414  42.963  22.308  13.550
12254W        W77415  35.330   9.012  14.468
12255W        W77416  38.562  14.225   1.755
12256W        W77417  43.398  40.567   0.410
12257W        W77418  27.197  13.303   1.750
12258W        W77419  30.103  44.360  13.306
12259W        W77420  18.870   5.571   2.212
12260W        W77421  30.048   7.705   2.409
12261W        W77422  25.584  40.050   5.280
12262W        W77423   6.871  11.478   0.548
12263W        W77424  16.406  20.232   2.671
12264W        W77425   0.393  12.709  14.917
12265W        W77426   8.594   0.537  11.194
12266W        W77427  44.196  11.185   3.646
12267W        W77428  11.112  26.731   4.762
12268W        W77429  30.904  22.512  12.590
12269W        W77430  33.379   2.288  13.974
12270W        W77431  38.564  12.743   1.668
12271W        W77432   9.357  27.132   2.510
12272W        W77433  23.954   2.003  11.511
12273W        W77434  10.853  26.984   1.044
12274W        W77435  44.498  30.450  14.246
12275W        W77436  42.768  28.017  12.562
12276W        W77437  15.719  11.599   3.165
12277W        W77438   8.722  39.115   3.156
12278W        W77439  37.301  40.828  13.501
12279W        W77440  10.148  13.088  14.319
12280W        W77441  23.099  41.009   2.437
12281W        W77442  30.790  32.535  11.434
12282W        W77443  23.051   8.394   1.742
12283W        W77444  30.728  27.296   4.464
12284W        W77445  23.719  32.339   3.718
12285W        W77446  27.992  23.028  10.228
12286W        W77447   5.979  42.993   1.273
12287W        W77448  39.536  30.142   1.005
12288W        W77449  37.639  12.292  14.940
12289W        W77450  24.135  27.190   4.352
12290W        W77451  16.045  23.518  13.930
12291W        W77452  21.752  36.858   1.725
12292W        W77453  39.140  22.505  11.439
12293W        W77454   9.251  41.522  12.665
12294W        W77455   7.222  41.775  14.953
12295W        W77456  43.312  35.300   0.272
12296W        W77457  36.917  20.344  11.048
12297W        W77458  31.851  28.069   4.580
12298W        W77459  38.315  39.450   1.389
12299W        W77460  41.838  24.571   9.798
12300W        W77461  36.204  13.861   2.840
12301W        W77462  38.871   3.296   2.125
12302W        W77463   0.286  15.475   1.296
12303W        W77464  15.909  43.341   4.232
12304W        W77465  34.932  16.187   3.221
12305W        W77466  40.194  23.528  11.650
12306W        W77467  10.092   9.597   2.348
12307W        W77468   9.272  22.524  12.877
12308W        W77469  31.529   3.259  10.740
12309W        W77470  10.381  14.288   1.504
12310W        W77471  19.202  23.674  11.703
12311W        W77472  10.583   5.577  11.537
12312W        W77473  15.119  42.321   3.019
12313W        W77474  31.262  16.531   3.268
12314W        W77475  15.607   2.191   1.855
12315W        W77476  26.023   8.066   3.845
12316W        W77477  26.269  21.530  13.027
12317W        W77478  29.728  23.483  13.425
12318W        W77479   6.453  27.631   5.056
12319W        W77480   5.645  33.370  13.775
12320W        W77481  25.932  22.000   4.026
12321W        W77482  13.272  19.935  14.468
12322W        W77483   1.861  36.435  11.632
12323W        W77484   7.069  14.661  13.883
12324W        W77485   0.061  34.472   3.868
12325W        W77486   5.770  25.856  13.586
12326W        W77487  43.618   5.088  13.562
12327W        W77488  32.359   9.128   0.712
12328W        W77489  29.486  26.041   0.077
12329W        W77490  11.683  29.635  10.686
12330W        W77491   4.535  28.542  13.035
12331W        W77492   1.088  10.416   1.819
12332W        W77493   3.301   6.842   4.858
12333W        W77494   9.899  43.434   2.640
12334W        W77495   0.354   4.829  12.623
12335W        W77496   1.588   9.554  14.051
12336W        W77497   0.983  30.056   0.561
12337W        W77498   9.673  21.927  14.442
12338W        W77499   0.789  27.171  12.518
12339W        W77500  13.087  25.871  10.556
12340W        W77501  17.054  12.615   2.377
12341W        W77502   4.375  11.984  11.559
12342W        W77503  29.182  17.533  13.089
12343W        W77504  43.214  15.833  14.448
12344W        W77505  30.875  15.179   4.056
12345W        W77506  38.045  18.252   3.100
12346W        W77507   0.177   1.038  11.446
12347W        W77508  26.059   2.753   3.315
12348W        W77509   5.221  12.792  12.307
12349W        W77510  33.838   5.938   1.713
12350W        W77511  36.017   9.288   2.785
12351W        W77512   8.210  38.500   1.222
12352W        W77513  26.974  36.501   4.443
12353W        W77514   2.771   7.408  10.769
12354W        W77515  23.798  31.610   0.791
12355W        W77516  18.491  26.013   1.743
12356W        W77517  39.648  32.568   2.644
12357W        W77518  16.096  15.276  12.592
12358W        W77519  16.163  18.803   3.301
12359W        W77520  22.569   3.410   4.529
12360W        W77521  24.969  30.037   0.355
12361W        W77522   8.728  39.890   2.704
12362W        W77523  43.919  18.325  12.982
12363W        W77524   7.796  29.618   0.766
12364W        W77525  23.402  33.028   2.346
12365W        W77526  29.947  30.697   4.077
12366W        W77527   6.768  18.710   2.609
12367W        W77528   4.918   2.787  10.872
12368W        W77529  22.468  31.945  10.331
12369W        W77530  28.570  12.735   2.621
12370W        W77531  19.140  33.266   2.294
12371W        W77532  43.461  43.512   2.683
12372W        W77533  10.807  12.702  13.253
12373W        W77534  23.264  17.324  12.466
12374W        W77535   6.348   3.237   2.383
12375W        W77536  33.968   2.576   4.608
12376W        W77537  13.785  25.701   0.408
12377W        W77538   7.220  20.699   1.773
12378W        W77539  29.697  12.197  11.574
12379W        W77540  29.757  28.682  11.768
12380W        W77541   0.872  41.878  12.020
12381W        W77542  36.286  38.990  12.282
12382W        W77543  27.725  10.885  10.307
12383W        W77544  27.530  42.587   3.526
12384W        W77545  28.474  35.481   3.010
12385W        W77546  37.857  13.767   0.499
12386W        W77547   0.920  26.407  10.659
12387W        W77548  17.657  37.133   3.215
12388W        W77549  17.998  32.543   0.712
12389W        W77550  25.976  31.533  12.074
12390W        W77551  39.029  41.339   3.685
12391W        W77552   9.184  23.676   4.134
12392W        W77553   8.394  16.525  11.416
12393W        W77554  22.121   2.351  12.859
12394W        W77555  34.754  28.971  13.646
12395W        W77556  38.263  35.462   1.278
12396W        W77557  30.147  37.889   1.574
12397W        W77558  44.692  32.453  11.118
12398W        W77559  21.760  26.630   4.802
12399W        W77560   7.517  39.537   0.043
12400W        W77561  19.254  24.694   2.131
12401W        W77562  21.454  34.884   0.191
12402W        W77563  14.029  27.912   1.136
12403W        W77564  29.042  11.890   4.133
12404W        W77565  12.261   5.656   2.855
12405W        W77566   3.338  21.380   2.661
12406W        W77567  19.656   0.417  11.187
12407W        W77568  24.115  31.948   3.656
12408W        W77569   1.896  32.525  11.588
12409W        W77570   5.326  38.020   4.190
12410W        W77571  20.255  28.028  13.766
12411W        W77572  42.975   3.782  12.566
12412W        W77573  10.391  32.894  14.312
12413W        W77574   1.016   4.473   0.095
12414W        W77575  13.217  25.273   1.128
12415W        W77576  39.886  44.804   2.314
12416W        W77577  29.527  19.353  10.778
12417W        W77578  24.538   8.237   1.677
12418W        W77579  33.972  42.485   0.541
12419W        W77580   0.643  39.180  12.531
12420W        W77581   1.798  42.708  13.812
12421W        W77582  20.561  31.013  14.988
12422W        W77583  43.772  17.045   1.643
12423W        W77584  15.925  18.808   2.829
12424W        W77585   6.255  39.907   1.233
12425W        W77586   0.871  42.904   4.288
12426W        W77587   6.779  10.693  13.959
12427W        W77588  33.278  22.208   4.249
12428W        W77589  27.359  14.116   3.658
12429W        W77590  29.036  12.417   4.183
12430W        W77591   3.153  27.472   1.683
12431W        W77592  11.062  17.051   0.748
12432W        W77593  18.075  37.073   2.088
12433W        W77594  33.315  30.539  11.858
12434W        W77595  10.599  22.174  11.483
12435W        W77596   0.470  36.411   1.196
12436W        W77597   4.362  14.186  13.769
12437W        W77598   3.926   7.298   4.114
12438W        W77599   5.494  33.580   4.518
12439W        W77600   3.469  20.593   4.676
12440W        W77601   5.507   1.836  14.212
12441W        W77602  11.987  14.829   0.991
12442W        W77603  27.906  28.219   5.043
12443W        W77604   6.333  20.286   1.436
12444W        W77605  18.540  15.512   0.512
12445W        W77606  20.836  13.855   1.286
12446W        W77607  22.308  15.087  10.624
12447W        W77608   4.764  34.881  12.531
12448W        W77609  16.575  19.285  12.627
12449W        W77610   3.928  11.320  12.422
12450W        W77611  25.669  13.613   2.684
12451W        W77612  10.962  21.522  11.506
12452W        W77613  22.065  10.841  14.909
12453W        W77614  19.516  16.159  14.731
12454W        W77615  22.554  36.183   0.427
12455W        W77616   0.778  31.159   1.292
12456W        W77617  15.752  19.749  13.938
12457W        W77618  15.706  29.801  10.766
12458W        W77619  20.329   9.289   3.272
12459W        W77620  36.632  40.050   9.700
12460W        W77621  31.064  19.644   2.241
12461W        W77622  41.495  31.411   0.804
12462W        W77623  37.848   2.061   2.909
12463W        W77624   9.302  23.036   0.513
12464W        W77625  39.381  43.712   1.815
12465W        W77626  43.618  13.624   4.155
12466W        W77627  37.546  29.276  13.436
12467W        W77628  39.925  44.278  10.502
12468W        W77629  15.757  23.532   0.325
12469W        W77630  12.650  29.565  12.961
12470W        W77631  38.222  21.206  10.685
12471W        W77632  29.412  26.033  11.485
12472W        W77633  26.203  16.865   0.409
12473W        W77634  27.229  42.135   3.351
12474W        W77635  39.320  28.585   4.623
12475W        W77636   0.768  30.092   1.060
12476W        W77637  39.484  14.143  14.837
12477W        W77638  32.269  24.029  14.912
12478W        W77639  42.929  44.415   3.328
12479W        W77640  16.331  27.550   2.152
12480W        W77641  39.888  37.610   2.326
12481W        W77642  27.444  13.112  11.550
12482W        W77643  33.416  30.052  12.009
12483W        W77644  33.642  24.514  12.030
12484W        W77645  26.579  14.303   0.887
12485W        W77646   8.839  23.713  13.174
12486W        W77647  28.865   4.891  14.542
12487W        W77648  11.604  42.428  12.327
12488W        W77649  22.318  34.018   4.493
12489W        W77650  16.090  23.871  14.928
12490W        W77651  27.082  20.466   0.897
12491W        W77652  29.192  24.743   0.923
12492W        W77653  23.172   5.863   4.569
12493W        W77654  32.056  12.782   0.218
12494W        W77655  39.953  40.340  11.315
12495W        W77656   5.437  16.647   1.884
12496W        W77657   3.857   2.807   4.545
12497W        W77658   3.816  21.808   4.092
12498W        W77659   3.284  34.787   4.135
12499W        W77660  19.919  37.999   2.354
12500W        W77661  27.657  28.182  10.672
12501W        W77662  35.218   8.334  11.995
12502W        W77663  40.665   1.216   0.437
12503W        W77664  40.385  20.550   4.590
12504W        W77665  29.127  21.712   1.740
12505W        W77666  10.796   7.092   2.309
12506W        W77667   1.861   9.213   2.429
12507W        W77668  22.733  22.978   0.757
12508W        W77669  36.535   9.376  12.901
12509W        W77670  26.349  28.946  13.910
12510W        W77671  21.970  25.891   4.614
12511W        W77672  12.629  23.053  10.743
12512W        W77673  28.447  37.821   1.219
12513W        W77674  20.821  33.511   0.797
12514W        W77675   4.978  31.641   0.743
12515W        W77676  31.667  10.027  13.497
12516W        W77677   7.357   7.329  14.218
12517W        W77678  21.668  25.988  10.955
12518W        W77679  36.266  30.079  14.397
12519W        W77680   7.184  11.758  14.784
12520W        W77681  33.181  24.596  13.910
12521W        W77682  41.858   6.754   2.659
12522W        W77683  35.561   6.892  12.182
12523W        W77684  37.905  19.952  14.276
12524W        W77685  38.561   4.682   3.267
12525W        W77686  35.123  31.926  12.908
12526W        W77687  40.747  17.778   1.830
12527W        W77688  11.152  15.119  11.140
12528W        W77689  33.057   6.190  10.624
12529W        W77690  43.961  27.288   2.512
12530W        W77691  44.703   9.228   3.193
12531W        W77692  23.751  19.507  12.228
12532W        W77693   3.590  44.344   1.184
12533W        W77694  14.444  35.045  12.500
12534W        W77695   1.945  41.552   4.150
12535W        W77696  13.587  20.255  14.735
12536W        W77697  24.990  12.089   3.295
12537W        W77698   4.499  41.766   3.780
12538W        W77699  14.300  19.372   1.571
12539W        W77700  13.284  10.684   4.133
12540W        W77701   0.583  43.087   3.351
12541W        W77702  32.374  30.621   1.429
12542W        W77703   4.748   4.915   0.099
12543W        W77704  38.257  26.546   3.568
12544W        W77705  25.532  27.278  12.026
12545W        W77706  18.668   5.262  10.395
12546W        W77707   7.904   8.121   2.279
12547W        W77708   1.816  22.262  12.997
12548W        W77709   4.997  18.604   2.318
12549W        W77710   8.687  25.847  14.469
12550W        W77711  26.111  44.989   0.814
12551W        W77712  16.205  34.973   0.268
12552W        W77713  16.715   7.859  13.168
12553W        W77714  17.806  35.069   0.910
12554W        W77715  21.891  19.545   4.951
12555W        W77716  44.731   7.873  13.959
12556W        W77717  37.665  23.146  11.134
12557W        W77718  43.980   5.813   4.343
12558W        W77719  43.899  23.179   4.689
12559W        W77720  37.870   7.612   1.808
12560W        W77721  15.052   8.800   3.538
12561W        W77722  38.481  17.519   4.065
12562W        W77723   9.256  18.050   1.273
12563W        W77724   9.895  27.668   5.039
12564W        W77725  13.697  13.045  10.766
12565W        W77726  20.730  31.444   2.342
12566W        W77727  32.931  38.540   2.751
12567W        W77728  22.653  17.124   3.890
12568W        W77729   9.549  39.221   4.121
12569W        W77730  35.064   4.261  12.549
12570W        W77731  24.822  30.666   4.896
12571W        W77732  31.560   2.513   0.869
12572W        W77733  26.692  26.916  13.352
12573W        W77734   2.362  37.844  12.381
12574W        W77735  13.982  24.081   2.359
12575W        W77736  10.233   8.728  14.077
12576W        W77737  20.735  15.218   2.162
12577W        W77738  31.184  26.009   2.923
12578W        W77739  26.591  42.249   2.019
12579W        W77740  18.003   1.854   3.678
12580W        W77741  32.413  26.317   3.358
12581W        W77742  18.651  30.216  14.184
12582W        W77743  30.092  11.667  12.366
12583W        W77744   6.611  31.705  13.842
12584W        W77745  15.344   3.633  13.536
12585W        W77746  20.487  42.725   4.220
12586W        W77747   7.936   2.990   3.150
12587W        W77748  35.621  44.597   2.703
12588W        W77749  10.303  14.614   1.891
12589W        W77750  38.890  21.816  14.487
12590W        W77751  18.147  21.251   3.239
12591W        W77752  14.304  15.165   0.531
12592W        W77753   8.190  26.698  10.710
12593W        W77754  29.958  37.629   1.958
12594W        W77755  41.358  12.466  10.693
12595W        W77756  14.258  42.092   1.466
12596W        W77757  30.400   1.227  12.212
12597W        W77758  42.052  12.838  12.022
12598W        W77759  44.350  25.482   4.597
12599W        W77760   9.359  20.081   2.117
12600W        W77761  15.281  23.487  13.367
12601W        W77762  10.668  26.675   2.083
12602W        W77763  24.697  22.546  14.504
12603W        W77764  24.924  28.031   4.697
12604W        W77765  13.255  42.007   1.912
12605W        W77766  13.198  25.655   1.539
12606W        W77767  39.953  30.836   1.435
12607W        W77768  37.427  34.587   1.383
12608W        W77769  11.214  31.128  11.987
12609W        W77770   4.245  27.436  13.976
12610W        W77771  22.114   9.412   2.622
12611W        W77772  43.586  15.815   3.276
12612W        W77773  39.544  20.027   2.134
12613W        W77774  28.503   0.848   2.246
12614W        W77775  28.503  32.392   2.012
12615W        W77776  11.972   6.133   5.064
12616W        W77777   9.867   4.501  13.140
12617W        W77778  44.334  31.140   2.593
12618W        W77779  34.208  44.446  13.063
12619W        W77780  23.976   1.852   0.675
12620W        W77781  19.013   7.037   4.429
12621W        W77782  31.366  34.192  11.313
12622W        W77783  11.383  14.316   0.476
12623W        W77784   9.710  30.695  11.178
12624W        W77785   4.022   0.485  14.526
12625W        W77786  30.074   3.600   1.883
12626W        W77787  24.601  26.108   0.786
12627W        W77788  17.651  37.695  11.933
12628W        W77789  15.605  38.381  12.133
12629W        W77790   2.857  15.016  12.162
12630W        W77791  39.363  34.272  11.195
12631W        W77792   1.952  21.260  11.032
12632W        W77793  25.012  42.048   3.638
12633W        W77794  15.391  26.541  12.282
12634W        W77795  22.168  28.433   2.217
12635W        W77796  22.647  17.636   5.465
12636W        W77797  38.788  39.492   3.722
12637W        W77798  30.987  31.004  13.115
12638W        W77799  18.177  26.742  11.130
12639W        W77800  36.591  17.504   3.672
12640W        W77801  28.459   1.810  14.309
12641W        W77802  33.620   6.365   4.519
12642W        W77803  16.557   7.935   1.792
12643W        W77804  31.034  32.770   0.761
12644W        W77805  12.615   5.435  14.025
12645W        W77806  33.589  32.002   3.182
12646W        W77807   4.698  13.913  14.393
12647W        W77808  25.170  10.209   1.296
12648W        W77809   6.763  42.850   0.876
12649W        W77810  44.282   3.487  12.516
12650W        W77811  32.386  35.849   2.701
12651W        W77812  29.924  28.897   0.265
12652W        W77813   7.325  44.044  12.411
12653W        W77814  35.444  12.495   0.589
12654W        W77815  26.420  37.356   0.888
12655W        W77816  34.825  26.707  14.797
12656W        W77817  32.352  28.017   4.592
12657W        W77818  39.500   7.597  12.453
12658W        W77819  16.860  21.033   3.701
12659W        W77820  19.042  44.951  12.995
12660W        W77821  11.842  25.047   3.944
12661W        W77822  12.456  12.151  11.162
12662W        W77823  30.033   5.422  11.975
12663W        W77824  43.226  36.890  11.661
12664W        W77825  27.563  32.386   1.770
12665W        W77826  22.586   2.538   0.038
12666W        W77827  19.030  10.927  13.453
12667W        W77828  33.694  12.172   3.104
12668W        W77829   5.423  44.162   3.136
12669W        W77830  28.505   3.724  11.209
12670W        W77831  29.664  44.732   0.872
12671W        W77832  38.010  20.665   4.336
12672W        W77833  28.275  27.462   2.869
12673W        W77834  20.653   3.532  11.063
12674W        W77835   5.300  10.615  13.752
12675W        W77836  39.504  34.556   4.536
12676W        W77837  31.876  39.518  13.551
12677W        W77838  39.046   4.961  12.729
12678W        W77839   9.874  11.795  11.491
12679W        W77840  18.469   8.847   0.497
12680W        W77841  24.670  34.983   2.758
12681W        W77842  20.081  22.605   4.973
12682W        W77843  24.975  29.265  14.031
12683W        W77844  29.142   7.831  11.618
12684W        W77845  27.718  41.549   0.438
12685W        W77846  44.024  23.454   2.378
12686W        W77847  33.503  27.498   0.959
12687W        W77848  34.270  26.079   4.478
12688W        W77849  28.085  28.531   1.515
12689W        W77850  21.200   2.465   2.095
12690W        W77851  40.562   9.935  10.737
12691W        W77852  15.294  14.659  12.648
12692W        W77853  37.890  16.505   1.919
12693W        W77854  23.201   5.784  10.725
12694W        W77855  22.929  37.871   1.750
12695W        W77856   4.747  43.184  12.571
12696W        W77857  25.779  27.556  14.337
12697W        W77858  32.433   7.468   3.638
12698W        W77859   2.751   8.188   2.678
12699W        W77860  40.337  24.067   0.332
12700W        W77861   8.784  41.011  12.533
12701W        W77862  22.832  20.604   1.713
12702W        W77863  40.789  30.548   3.081
12703W        W77864  35.897  11.712  11.217
12704W        W77865  30.708  36.845  11.115
12705W        W77866  17.544   0.781   3.640
12706W        W77867  17.331  12.821   0.022
12707W        W77868  18.034  28.199   3.776
12708W        W77869  28.482  37.546   9.817
12709W        W77870  13.790  25.389  14.408
12710W        W77871  31.966  25.709   3.677
12711W        W77872  44.059  16.715  13.711
12712W        W77873  10.315  23.990   1.188
12713W        W77874  26.961  43.822  13.363
12714W        W77875  11.293  13.835  13.569
12715W        W77876  26.119  37.790  13.082
12716W        W77877  13.872   6.447   1.324
12717W        W77878  15.879  24.533  13.957
12718W        W77879   7.482  44.243   4.520
12719W        W77880   2.059  16.315  13.838
12720W        W77881  25.095  18.871  11.423
12721W        W77882   0.494  25.724   3.254
12722W        W77883  12.597  10.246  13.412
12723W        W77884  32.977   5.818   4.087
12724W        W77885   9.965  29.184   3.920
12725W        W77886  14.768  20.616  12.144
12726W        W77887  14.312  13.236  10.671
12727W        W77888  30.059  27.972   4.499
12728W        W77889  33.252  30.983  11.216
12729W        W77890   4.552   0.821  11.461
12730W        W77891  15.166  24.729  13.402
12731W        W77892  16.855  19.265   3.646
12732W        W77893  42.491   3.209  13.113
12733W        W77894  44.052  38.065  11.232
12734W        W77895   2.667  30.740  13.801
12735W        W77896  12.413  30.992   1.144
12736W        W77897   3.757  12.560  13.974
12737W        W77898   4.836  37.135   0.428
12738W        W77899  15.520  37.502  12.100
12739W        W77900   6.455  11.790  11.995
12740W        W77901   0.014  28.086   2.205
12741W        W77902  16.892   6.794   3.071
12742W        W77903  36.368  32.381  12.466
12743W        W77904  28.991  16.468   3.172
12744W        W77905  15.344  32.322   1.968
12745W        W77906   6.759  11.750   2.463
12746W        W77907   3.854  44.566  12.688
12747W        W77908  11.705  32.840   4.324
12748W        W77909   7.418   7.697  13.826
12749W        W77910  30.997   6.836   2.677
12750W        W77911  12.495  26.270   1.843
12751W        W77912   4.682  39.090   1.324
12752W        W77913   5.323  19.573   1.154
12753W        W77914  33.296  11.457   0.913
12754W        W77915  24.038   8.619  12.493
12755W        W77916   7.634  20.073   1.097
12756W        W77917  10.305  16.640  12.365
12757W        W77918  44.523  32.097   2.639
12758W        W77919  44.256  43.318  14.377
12759W        W77920   4.382  29.842   1.670
12760W        W77921   9.748  15.377   0.854
12761W        W77922  44.623  10.269  14.449
12762W        W77923  21.437  13.832   0.211
12763W        W77924  20.960  41.317   3.427
12764W        W77925  28.725  16.254   2.298
12765W        W77926  13.904  36.591   3.384
12766W        W77927   1.648   0.814  11.586
12767W        W77928  27.353   8.452   3.181
12768W        W77929  37.886  31.364   0.503
12769W        W77930  21.158  39.616   1.862
12770W        W77931  29.392  39.098   0.472
12771W        W77932  42.477  37.398   1.718
12772W        W77933   9.965   1.821  12.399
12773W        W77934  39.654  41.825   2.775
12774W        W77935  27.200  35.998  11.602
12775W        W77936  39.559   3.339  14.211
12776W        W77937  10.559  13.106  13.921
12777W        W77938  30.895   6.768  13.045
12778W        W77939  32.077  23.569  13.301
12779W        W77940  20.699   6.347   2.873
12780W        W77941  23.955   4.263   1.175
12781W        W77942  10.149   6.540   3.295
12782W        W77943  29.020   4.689   3.246
12783W        W77944  10.286   2.734   2.314
12784W        W77945  17.586  30.336  14.775
12785W        W77946  21.933  14.170   5.021
12786W        W77947  27.793  39.575   1.908
12787W        W77948   2.400  36.896  11.999
12788W        W77949   6.116   5.044   5.039
12789W        W77950  13.045  15.584   2.190
12790W        W77951  35.516  14.788   2.283
12791W        W77952   4.406  35.981   0.780
12792W        W77953  19.173  14.661  11.928
12793W        W77954  37.308  42.386   3.628
12794W        W77955  10.326  26.209   4.625
12795W        W77956  42.337  21.323  14.407
12796W        W77957  34.128  17.997   2.761
12797W        W77958  17.277  12.603   1.002
12798W        W77959  12.172  35.951   4.715
12799W        W77960   0.004  11.695   3.548
12800W        W77961  11.899  18.287   2.926
12801W        W77962  25.479   0.350  14.042
12802W        W77963  39.814  11.597   4.380
12803W        W77964  28.076  18.365   2.336
12804W        W77965  19.252  36.000  10.619
12805W        W77966  15.229   8.937  11.640
12806W        W77967  39.839  39.569  13.791
12807W        W77968  13.223  34.550   4.524
12808W        W77969  39.848   0.652  11.463
12809W        W77970  39.792  17.974  13.503
12810W        W77971  38.828   4.188  11.064
12811W        W77972  34.121   4.719   3.694
12812W        W77973  44.464  11.298  14.979
12813W        W77974  42.405  26.291  11.725
12814W        W77975  38.464  32.884   0.782
12815W        W77976   7.971  34.768  11.420
12816W        W77977  23.790  22.883  10.317
12817W        W77978  32.449  32.039  14.593
12818W        W77979  37.611   1.931   3.766
12819W        W77980  12.552   0.858  14.422
12820W        W77981   5.310   9.777   1.297
12821W        W77982  29.034  26.301  14.969
12822W        W77983  10.982  44.385  13.104
12823W        W77984  36.344  34.926   4.739
12824W        W77985  18.509  10.760  14.929
12825W        W77986  42.941   4.482  13.909
12826W        W77987  15.985  42.447   1.032
12827W        W77988  30.502  43.811   1.675
12828W        W77989  23.978  36.041   4.598
12829W        W77990  20.304  20.711  11.615
12830W        W77991  32.892  16.296   2.168
12831W        W77992   1.980   6.270   1.916
12832W        W77993   3.770  30.598   0.270
12833W        W77994  37.416  32.682  13.272
12834W        W77995  22.301  18.513  12.482
12835W        W77996   8.497  29.040   0.730
12836W        W77997  37.992   2.249  14.359
12837W        W77998  42.702  27.577   2.177
12838W        W77999   5.541  26.749   1.408
12839W        W78000  12.273  20.656   0.220
12840W        W78001  37.843  21.304  13.963
12841W        W78002  40.897  42.693   0.565
12842W        W78003  43.445  39.445   4.538
12843W        W78004  23.545  36.450  14.731
12844W        W78005  11.342  22.048  13.477
12845W        W78006  40.199  39.410   2.697
12846W        W78007   5.646  13.740   2.228
12847W        W78008  21.920   0.969  11.506
12848W        W78009  18.521  25.612   0.345
12849W        W78010  11.708  43.825  12.713
12850W        W78011  21.997  34.344  11.675
12851W        W78012  31.228  19.481  13.093
12852W        W78013  40.107  15.814  13.014
12853W        W78014  33.534  33.941   2.316
12854W        W78015  18.142  12.578  13.965
12855W        W78016   8.280  13.802  12.347
12856W        W78017  28.403  43.457   3.005
12857W        W78018   3.293  36.424  12.573
12858W        W78019  33.584   4.326   0.295
12859W        W78020  17.752  27.645  13.900
12860W        W78021  24.758   0.185   0.827
12861W        W78022  24.559   5.728   4.406
12862W        W78023  28.074   3.770  13.904
12863W        W78024   7.147  43.422  11.726
12864W        W78025   0.656   2.117   3.362
12865W        W78026  25.979  31.133   2.200
12866W        W78027   3.134   5.973   4.168
12867W        W78028   9.527   7.798   2.423
12868W        W78029   0.345  18.700   2.817
12869W        W78030  39.769  36.913  14.536
12870W        W78031  30.196  26.035  11.063
12871W        W78032  17.603  29.402  14.863
12872W        W78033  41.726  35.217   3.670
12873W        W78034  38.775  10.321   4.807
12874W        W78035  39.513  18.339  12.602
12875W        W78036  41.540  15.049   2.330
12876W        W78037   2.297  29.881   3.811
12877W        W78038  20.155  32.578  12.634
12878W        W78039  35.584  11.634   2.314
12879W        W78040  18.709  27.150  13.854
12880W        W78041   8.525  23.946  12.244
12881W        W78042   0.942   4.345  14.587
12882W        W78043  10.129  19.162   4.037
12883W        W78044  14.978   8.769   4.553
12884W        W78045   0.418  20.630  11.203
12885W        W78046   3.830  14.780  12.395
12886W        W78047  11.264   5.185  11.774
12887W        W78048   9.413  15.248   3.366
12888W        W78049  26.406   1.568   1.666
12889W        W78050  40.354  40.031   4.500
12890W        W78051  42.879   8.676   2.448
12891W        W78052  32.402  19.802   4.661
12892W        W78053  20.129   2.309  11.010
12893W        W78054  40.527  38.093  14.241
12894W        W78055  19.038   5.992  10.767
12895W        W78056  32.227  20.886  10.619
12896W        W78057  18.699   2.201   4.753
12897W        W78058   3.415  18.486  12.594
12898W        W78059  34.414  11.820  14.032
12899W        W78060   1.128   7.335  12.990
12900W        W78061  41.485   7.616   1.744
12901W        W78062  18.765  15.332  11.572
12902W        W78063  16.074  41.281   0.762
12903W        W78064   6.282  43.337  11.438
12904W        W78065  10.108  39.528  13.954
12905W        W78066   7.856   5.463  14.570
12906W        W78067  15.618   6.846  12.609
12907W        W78068  21.099   0.863   0.337
12908W        W78069  17.802  42.306   3.252
12909W        W78070  28.193   2.715  11.596
12910W        W78071  30.436  28.539   1.844
12911W        W78072  43.412  39.186  11.599
12912W        W78073  23.092   1.292  12.918
12913W        W78074  14.253  22.726  14.808
12914W        W78075  36.610  34.229  14.272
12915W        W78076   5.620  37.630   4.105
12916W        W78077  21.579  35.596  14.954
12917W        W78078   1.248  15.890   2.103
12918W        W78079  22.154  14.499   1.831
12919W        W78080  22.593   2.333  12.380
12920W        W78081  39.827  29.326   1.329
12921W        W78082  14.659   9.877   3.750
12922W        W78083  42.647  19.229   0.937
12923W        W78084  30.092  21.930  12.100
12924W        W78085  23.248  25.193  10.442
12925W        W78086  27.672   1.821  11.532
12926W        W78087  35.484  27.691   3.606
12927W        W78088  29.662  17.008   3.705
12928W        W78089  14.660  23.595  11.204
12929W        W78090  41.300  34.921   3.793
12930W        W78091  38.407  43.371   4.198
12931W        W78092  25.928  20.558  14.245
12932W        W78093   9.565  33.527   4.978
12933W        W78094  31.436  10.354   3.214
12934W        W78095  19.984  19.507   3.274
12935W        W78096  12.975   5.872  13.398
12936W        W78097  28.996  28.240  13.852
12937W        W78098  36.787  21.112   3.448
12938W        W78099  24.248   2.755   2.191
12939W        W78100   2.740  37.780   0.399
12940W        W78101  33.030  25.654  10.632
12941W        W78102  27.030  23.060  14.844
12942W        W78103  20.573  17.403  12.246
12943W        W78104  30.596  25.705   3.318
12944W        W78105  41.075  33.208   0.299
12945W        W78106  43.865  28.058   4.167
12946W        W78107  41.804   6.778  13.661
12947W        W78108  19.644  41.173   4.089
12948W        W78109  35.391  43.710   3.264
12949W        W78110  25.657  17.201   4.576
12950W        W78111  19.458  35.443   0.479
12951W        W78112  24.420  38.480   0.918
12952W        W78113  17.839   6.363   3.911
12953W        W78114  27.424   0.175  11.619
12954W        W78115   6.391   1.221  11.575
12955W        W78116  19.728  38.947  11.536
12956W        W78117  22.607  12.074  12.622
12957W        W78118  31.986  29.912   1.686
12958W        W78119  21.764   9.155  13.378
12959W        W78120   3.627  41.066  11.950
12960W        W78121  10.356  36.329   1.334
12961W        W78122  18.477   0.816  12.985
12962W        W78123  41.551  44.299  10.967
12963W        W78124  35.911  10.696   0.142
12964W        W78125  14.534  22.613  12.577
12965W        W78126  18.051  21.260   3.828
12966W        W78127  17.501  43.801   4.653
12967W        W78128  33.991   9.619  11.534
12968W        W78129  26.053  40.006   4.495
12969W        W78130  35.106  39.795   1.923
12970W        W78131  16.769   0.048   9.818
12971W        W78132   5.089  35.651  13.310
12972W        W78133   2.177  36.840   0.900
12973W        W78134  37.797   5.603   2.316
12974W        W78135  25.679  12.552  13.901
12975W        W78136  39.326  15.938   2.285
12976W        W78137  21.990  10.213   3.702
12977W        W78138  34.030   2.198   0.725
12978W        W78139  30.676  23.566   1.317
12979W        W78140  41.362  31.059  11.933
12980W        W78141  21.272  26.056   3.836
12981W        W78142  24.593   2.732   0.827
12982W        W78143  34.713  30.891  14.564
12983W        W78144  35.191  36.027   4.120
12984W        W78145  14.086  18.602  11.392
12985W        W78146   5.727  16.783   1.359
12986W        W78147  44.530  43.298  13.527
12987W        W78148  20.521  35.422  13.456
12988W        W78149  32.898   2.409   1.365
12989W        W78150  20.086  43.521   2.295
12990W        W78151   5.729  15.988   0.098
12991W        W78152  15.387  26.183  13.909
12992W        W78153  22.240   0.754  11.140
12993W        W78154  38.746  44.455  12.986
12994W        W78155  32.147  31.047   3.593
12995W        W78156  11.862  15.940  14.884
12996W        W78157  38.033  41.020  13.843
12997W        W78158   3.434  34.543   2.732
12998W        W78159  11.230  30.840   2.352
12999W        W78160  10.617  22.036   0.694
13000W        W78161  41.017  31.219   4.811
13001W        W78162  11.025  14.735  13.060
13002W        W78163  42.043   1.032   0.447
13003W        W78164   8.166  20.571   0.408
13004W        W78165  22.971  43.482   3.218
13005W        W78166  37.340  31.424  12.490
13006W        W78167  39.370  29.582   3.128
13007W        W78168  40.440   9.572  11.136
13008W        W78169  25.917  12.363   2.359
13009W        W78170  18.788  19.052   3.364
13010W        W78171  38.618  24.997  14.349
13011W        W78172  15.099  18.212   1.221
13012W        W78173  16.052   1.824  11.637
13013W        W78174  28.797   1.008   1.843
13014W        W78175   0.983   9.731   2.737
13015W        W78176   6.343   5.916   3.942
13016W        W78177  21.970  11.880   0.680
13017W        W78178  28.871  38.732  13.843
13018W        W78179  39.798  27.023   0.652
13019W        W78180  13.779   3.903   3.869
13020W        W78181  11.486  43.251  11.538
13021W        W78182  32.439  10.217   4.402
13022W        W78183  23.769  42.063   1.483
13023W        W78184  22.132  38.266   2.391
13024W        W78185  40.555  12.121   3.638
13025W        W78186  14.962  16.317  10.714
13026W        W78187  16.466  44.196   5.303
13027W        W78188  34.581   9.407   4.078
13028W        W78189   6.315   2.897   0.090
13029W        W78190  11.337  36.433   2.241
13030W        W78191   7.512  30.400  11.332
13031W        W78192  22.059  31.039  14.690
13032W        W78193  22.038   2.763   4.388
13033W        W78194  40.039  36.826   3.837
13034W        W78195  21.961  11.767  11.403
13035W        W78196   7.783  15.285   2.767
13036W        W78197  14.500  32.580   0.755
13037W        W78198   3.329   4.598   0.271
13038W        W78199  42.551  32.911  11.878
13039W        W78200   2.582  23.727   4.904
13040W        W78201  41.475  23.581  10.951
13041W        W78202  18.090  27.790   2.439
13042W        W78203  44.519   0.846  13.824
13043W        W78204  27.235  39.481   2.222
13044W        W78205  42.334   1.816   2.699
13045W        W78206  42.245  38.008  10.421
13046W        W78207  33.892  23.642   4.490
13047W        W78208  34.587  12.144  11.107
13048W        W78209  13.733  24.149   2.817
13049W        W78210  21.497  13.207   0.749
13050W        W78211  14.365  29.017  13.098
13051W        W78212  36.347   7.370  10.725
13052W        W78213   4.926  19.748  12.580
13053W        W78214  42.589  16.775   4.396
13054W        W78215  35.884  23.769  12.427
13055W        W78216  27.144  31.930   3.237
13056W        W78217  40.405  39.014  14.221
13057W        W78218  16.628   2.380  14.005
13058W        W78219   3.891  14.674  14.905
13059W        W78220  26.267  11.912  14.510
13060W        W78221  38.840   0.170  10.732
13061W        W78222   6.336   4.760   0.037
13062W        W78223  30.728  31.384  11.176
13063W        W78224   2.895  34.638   4.428
13064W        W78225  24.275  10.689  13.938
13065W        W78226  28.262   0.938   4.196
13066W        W78227   7.427  25.111  12.988
13067W        W78228  43.063  44.759   3.682
13068W        W78229  14.275  40.692  10.150
13069W        W78230  16.674   8.012  14.527
13070W        W78231  13.250  28.450   4.154
13071W        W78232   7.786  43.788  12.137
13072W        W78233  18.193  17.638  13.852
13073W        W78234  44.333  16.782  10.703
13074W        W78235   8.161  22.044   2.774
13075W        W78236  13.245  15.467   0.417
13076W        W78237  25.464   2.667  14.432
13077W        W78238  41.969  18.214   4.710
13078W        W78239  35.208  35.040   2.235
13079W        W78240  25.230  19.605   2.238
13080W        W78241  11.144   2.310  14.559
13081W        W78242   9.304  30.199   1.241
13082W        W78243  23.935  17.188   2.204
13083W        W78244   8.878  29.546   1.460
13084W        W78245  15.876  13.152   4.092
13085W        W78246  18.311  18.279   0.230
13086W        W78247  20.345   4.892   4.575
13087W        W78248   4.211  14.121   2.803
13088W        W78249  16.823  44.437   1.410
13089W        W78250  39.706   1.647   0.433
13090W        W78251  41.425   8.473   2.748
13091W        W78252  13.556  36.874  14.820
13092W        W78253  34.666  42.956   3.202
13093W        W78254  31.398  32.937  12.078
13094W        W78255  12.742  34.026   3.319
13095W        W78256  42.197   4.895   2.825
13096W        W78257  37.762  44.954  12.068
13097W        W78258   7.280  40.942  13.911
13098W        W78259  13.797  21.720   4.184
13099W        W78260  33.052   9.871   2.824
13100W        W78261   7.829  15.241  12.631
13101W        W78262  36.106   5.777  12.190
13102W        W78263  15.527  14.265  10.055
13103W        W78264  41.958  24.100   1.641
13104W        W78265  10.295  11.363  11.124
13105W        W78266   0.799   6.927  14.278
13106W        W78267  36.881  38.580   1.715
13107W        W78268  27.138  25.542   0.436
13108W        W78269  42.484  36.912  14.943
13109W        W78270  19.974  44.042  10.183
13110W        W78271  11.595  25.307   5.285
13111W        W78272  35.200   5.914   1.303
13112W        W78273  43.252   9.856   2.405
13113W        W78274  19.262  13.247   2.803
13114W        W78275  36.478  25.413   2.343
13115W        W78276  11.143   1.169   1.739
13116W        W78277  21.223   0.278  14.967
13117W        W78278  40.322  12.449   0.569
13118W        W78279  33.084  37.292  13.160
13119W        W78280  43.637   1.160  11.960
13120W        W78281  15.133   8.143   2.604
13121W        W78282  23.716  11.055   1.591
13122W        W78283  11.696  29.528   0.497
13123W        W78284  39.525  44.725   0.218
13124W        W78285   7.940  37.660  13.014
13125W        W78286  23.310  33.124  13.822
13126W        W78287  14.170  39.316   3.144
13127W        W78288  18.438  21.144   4.649
13128W        W78289   7.322  40.531  13.083
13129W        W78290  41.322  43.922   2.811
13130W        W78291   3.969  36.113   0.508
13131W        W78292  30.000  37.250  10.704
13132W        W78293  32.509  21.165  11.419
13133W        W78294  28.098  17.459  13.752
13134W        W78295  10.305   3.616   2.352
13135W        W78296  33.613  15.622   5.032
13136W        W78297  22.080  28.117   3.549
13137W        W78298  43.023  16.564  13.608
13138W        W78299  40.873  25.551  11.742
13139W        W78300  16.262  44.264   4.231
13140W        W78301  40.988  22.656  13.219
13141W        W78302  42.988  27.138   2.184
13142W        W78303   8.672  36.780   0.976
13143W        W78304  22.613  31.223   3.327
13144W        W78305  44.563  33.590  14.525
13145W        W78306  44.705  14.079   2.373
13146W        W78307  11.457   2.881   2.517
13147W        W78308  40.839  42.607  13.452
13148W        W78309  27.647  30.596  12.117
13149W        W78310  20.752  31.981   3.767
13150W        W78311  28.553  21.598  13.410
13151W        W78312  43.794  24.476   0.473
13152W        W78313  26.726  43.353  14.878
13153W        W78314  37.849  34.887  11.563
13154W        W78315  13.039  29.995   0.899
13155W        W78316  34.914  39.954  13.927
13156W        W78317  30.377   6.844   4.620
13157W        W78318   8.000  26.114   2.772
13158W        W78319  12.275  11.289   4.439
13159W        W78320  14.713  39.067  13.017
13160W        W78321  32.824   6.683  12.872
13161W        W78322  22.033  12.146  10.960
13162W        W78323   1.700  38.423   3.879
13163W        W78324  22.519   7.711   0.638
13164W        W78325  33.197  40.184   0.657
13165W        W78326  23.765  35.051   3.819
13166W        W78327  12.682  22.688   3.244
13167W        W78328  33.524  24.405   4.653
13168W        W78329   3.212  38.163  12.424
13169W        W78330  33.873  17.049   3.628
13170W        W78331  44.267  41.503   1.425
13171W        W78332  17.300  11.590  12.510
13172W        W78333  16.886  21.722   2.874
13173W        W78334  24.621  25.725   3.361
13174W        W78335   5.298  11.898   0.819
13175W        W78336  24.907  34.953   3.991
13176W        W78337   4.088   2.306   1.570
13177W        W78338  37.394  24.988   1.189
13178W        W78339  30.041  25.679  12.062
13179W        W78340  12.861  32.004  13.912
13180W        W78341  25.262  41.544   1.780
13181W        W78342  36.155  40.329  12.638
13182W        W78343  41.279  13.824   4.517
13183W        W78344  24.081   4.051   4.972
13184W        W78345  31.120  21.917   0.486
13185W        W78346  15.089  19.766  13.399
13186W        W78347   9.557  12.677   4.255
13187W        W78348  24.514  44.819  10.657
13188W        W78349   4.315  19.903  13.871
13189W        W78350  42.828  24.099  12.913
13190W        W78351  18.079   4.976   1.330
13191W        W78352  34.874  30.081  12.955
13192W        W78353   0.293  24.087  11.417
13193W        W78354  14.715  10.563   3.284
13194W        W78355  41.970  19.305  13.967
13195W        W78356  44.341   0.885   0.520
13196W        W78357  43.469  16.295  14.505
13197W        W78358  31.569  40.501   1.963
13198W        W78359  17.142  36.070   4.595
13199W        W78360   5.197   2.788   3.224
13200W        W78361  28.942   4.918  13.116
13201W        W78362   8.958   9.783  12.056
13202W        W78363  37.850  31.973   3.172
13203W        W78364  19.006  14.436   3.266
13204W        W78365  17.899  15.724  12.542
13205W        W78366  29.603  23.274  13.869
13206W        W78367  42.379  43.254  13.787
13207W        W78368  16.039  19.768   3.706
13208W        W78369   8.362  41.381   3.030
13209W        W78370   7.319  16.597   1.438
13210W        W78371   6.675   3.722   2.512
13211W        W78372  18.709  29.077   3.091
13212W        W78373  15.091  12.497  14.118
13213W        W78374  28.776  21.054   2.296
13214W        W78375  35.541  12.586   2.812
13215W        W78376  44.960  21.138   0.337
13216W        W78377  40.063  41.919   1.778
13217W        W78378  21.836  13.665   1.345
13218W        W78379  32.366  44.466   4.504
13219W        W78380  18.107  23.809  10.742
13220W        W78381   0.882  39.872  14.068
13221W        W78382  13.282  12.233  10.625
13222W        W78383  36.548  24.631   4.799
13223W        W78384  35.426  36.397  12.386
13224W        W78385  24.331  10.719  12.560
13225W        W78386  38.783  38.675   4.027
13226W        W78387  44.466  25.002   2.786
13227W        W78388  25.823  26.540   2.786
13228W        W78389  39.765  20.488   1.940
13229W        W78390  17.576  19.524  13.208
13230W        W78391  17.709  13.737   0.190
13231W        W78392  13.258  38.895   3.567
13232W        W78393   2.404  38.335  11.567
13233W        W78394   7.445  25.898  14.808
13234W        W78395  16.884  22.151   3.205
13235W        W78396  37.594  42.443   2.106
13236W        W78397  15.871  30.885  11.769
13237W        W78398  32.013  36.019  11.538
13238W        W78399  41.344  36.360   4.415
13239W        W78400  14.836   1.391   2.646
13240W        W78401  15.112   2.988   1.990
13241W        W78402  35.690  20.237   2.315
13242W        W78403  33.490  37.360  10.985
13243W        W78404   8.447  43.309  13.113
13244W        W78405  33.829  26.675  13.642
13245W        W78406  29.609   3.530   5.094
13246W        W78407  29.084  40.483   9.857
13247W        W78408   8.411  41.739  14.053
13248W        W78409  20.546   5.428   1.827
13249W        W78410  14.149   8.726   2.604
13250W        W78411  19.592  12.536   2.051
13251W        W78412   4.078   3.530   1.869
13252W        W78413   1.473  29.562   1.227
13253W        W78414  40.923   3.656  12.011
13254W        W78415   7.263  39.860  11.141
13255W        W78416  28.831  33.103   2.029
13256W        W78417  30.571   8.490  13.406
13257W        W78418   5.328  12.984   4.308
13258W        W78419   4.168  19.540  10.803
13259W        W78420  39.598  22.171  11.536
13260W        W78421  16.275   1.168  13.802
13261W        W78422  26.493   9.668  10.356
13262W        W78423  35.796  41.156  11.152
13263W        W78424   1.726   0.794  10.742
13264W        W78425  43.647   1.426   4.157
13265W        W78426  26.604  39.513  14.059
13266W        W78427  26.685  28.514   2.188
13267W        W78428   6.214   2.269  13.787
13268W        W78429  40.534   1.988  13.867
13269W        W78430   6.738  42.478  13.468
13270W        W78431   4.489  43.479   0.938
13271W        W78432  23.747  20.435  14.371
13272W        W78433  22.432   8.838   0.446
13273W        W78434  27.391  13.743   0.536
13274W        W78435  32.840  11.740  12.970
13275W        W78436   9.791  28.558   4.926
13276W        W78437   7.337  43.462   1.341
13277W        W78438  35.583  11.782  14.529
13278W        W78439   8.626   5.449   0.379
13279W        W78440   5.383  23.651   1.779
13280W        W78441   9.296  44.947  11.225
13281W        W78442  36.104   8.698   1.312
13282W        W78443  11.773  24.674   3.270
13283W        W78444  14.767   4.141   1.273
13284W        W78445   2.976  12.389   2.804
13285W        W78446  43.450   2.294   1.352
13286W        W78447   1.779  20.202  14.777
13287W        W78448  40.090  32.511   1.688
13288W        W78449   1.772   6.243   2.416
13289W        W78450  40.393   4.437  14.941
13290W        W78451   2.175  15.137  14.319
13291W        W78452  31.146  33.525   0.190
13292W        W78453  43.249   9.788  14.985
13293W        W78454  28.057  30.806   3.178
13294W        W78455  20.074   0.386  10.631
13295W        W78456  44.416  18.453  12.866
13296W        W78457  32.429   3.917  14.009
13297W        W78458  38.909   3.991  12.620
13298W        W78459  15.108  26.899   3.923
13299W        W78460  37.428   7.192   4.808
13300W        W78461   2.891  27.833   2.874
13301W        W78462  18.786  24.577  12.426
13302W        W78463  17.314  35.587  13.090
13303W        W78464  20.489  39.508   2.767
13304W        W78465  22.740  14.565   4.163
13305W        W78466  12.836  24.033   3.778
13306W        W78467  42.323  30.585  12.421
13307W        W78468   2.433   2.023  13.864
13308W        W78469  39.746  11.683  14.599
13309W        W78470  24.542  28.961  12.841
13310W        W78471  44.368  12.696  14.770
13311W        W78472   2.178  17.831  11.194
13312W        W78473  16.395  34.700  14.889
13313W        W78474  42.075   4.211  10.894
13314W        W78475  27.940  21.723  10.862
13315W        W78476  26.437  25.583  14.797
13316W        W78477  15.906  10.129   5.047
13317W        W78478  18.240  26.091   2.230
13318W        W78479  12.857  36.239   1.366
13319W        W78480  33.526  43.033   1.354
13320W        W78481  25.955  37.012  12.333
13321W        W78482   5.667  33.013   3.697
13322W        W78483   0.463   8.740  12.528
13323W        W78484  42.291  43.678  11.133
13324W        W78485  37.054  39.527  12.067
13325W        W78486  43.012  42.523   4.623
13326W        W78487  38.977   0.113   3.693
13327W        W78488  24.387  41.968  11.459
13328W        W78489   2.931  30.100  13.543
13329W        W78490   8.949   5.844  12.254
13330W        W78491  17.090  19.656   4.548
13331W        W78492  29.982  11.182  12.195
13332W        W78493  23.355  34.048  13.634
13333W        W78494  14.728  17.041  12.071
13334W        W78495  28.429  14.271   0.466
13335W        W78496  19.838  36.404  10.101
13336W        W78497  16.909  31.843  14.481
13337W        W78498  40.345  19.080  10.676
13338W        W78499  30.913   9.186  11.073
13339W        W78500  17.633  44.518   0.095
13340W        W78501  29.462   3.025  12.983
13341W        W78502  43.872   3.896  11.479
13342W        W78503  32.073  31.639  11.218
13343W        W78504   3.349  25.773   9.616
13344W        W78505  37.141   5.762  13.289
13345W        W78506  35.222   2.552  14.513
13346W        W78507  41.370  31.840  13.443
13347W        W78508   2.679  40.975   4.021
13348W        W78509  20.938  35.561  13.179
13349W        W78510  10.736  37.364  14.577
13350W        W78511  38.706  17.633   3.570
13351W        W78512   5.471  36.069  10.602
13352W        W78513  37.501  35.556   0.229
13353W        W78514   0.573  17.153   3.328
13354W        W78515  13.151  15.429  13.405
13355W        W78516   8.654  34.933  11.997
13356W        W78517   5.671  22.787  10.617
13357W        W78518  29.490  42.411   2.360
13358W        W78519  38.392  29.465   2.163
13359W        W78520   9.807  34.672  12.658
13360W        W78521  15.682  12.231   4.015
13361W        W78522  11.244  31.048  13.785
13362W        W78523  34.855  24.257  10.680
13363W        W78524  13.608   3.729  13.147
13364W        W78525   0.383   6.936   2.723
13365W        W78526  28.887   0.297  11.618
13366W        W78527  21.112   8.696   2.943
13367W        W78528  24.967   2.770  14.382
13368W        W78529   5.949   7.235  13.901
13369W        W78530   4.949  17.262  10.751
13370W        W78531   4.738  14.370  12.430
13371W        W78532  22.923  39.645   5.374
13372W        W78533  13.098  35.959  12.964
13373W        W78534  30.743  42.384  11.932
13374W        W78535  36.432   4.722  12.087
13375W        W78536   6.595  38.314  14.573
13376W        W78537  43.665  15.238   2.716
13377W        W78538  29.769  36.214   1.202
13378W        W78539  38.646  15.306  12.582
13379W        W78540  10.304  34.943  11.870
13380W        W78541  11.889  31.410  11.272
13381W        W78542   4.404   3.909   1.952
13382W        W78543   2.417  34.114  14.016
13383W        W78544  31.084  12.525   4.746
13384W        W78545  24.199  11.142   1.401
13385W        W78546  28.684   7.293   3.702
13386W        W78547   2.756   8.251  13.580
13387W        W78548  38.857  42.475  11.626
13388W        W78549  43.569  27.009  11.864
13389W        W78550  44.103  12.846  13.846
13390W        W78551  24.544  14.299  11.562
13391W        W78552   8.007  37.519   2.737
13392W        W78553  28.174  36.316   2.099
13393W        W78554   5.307  32.600   4.160
13394W        W78555  31.032  14.763   4.366
13395W        W78556  40.203  38.419   1.967
13396W        W78557  16.356  32.329  12.444
13397W        W78558  19.817  24.900   1.390
13398W        W78559  12.816  35.050   2.805
13399W        W78560  40.850  31.361   2.322
13400W        W78561  14.256   7.267  12.560
13401W        W78562  12.319  24.704   1.898
13402W        W78563  23.500  41.562   1.944
13403W        W78564  40.320  15.272  14.804
13404W        W78565   8.204  26.665   5.028
13405W        W78566  16.607  18.543   3.239
13406W        W78567  34.505  42.016  11.138
13407W        W78568  11.275  36.645  12.858
13408W        W78569   3.429   1.870  10.117
13409W        W78570  44.854   2.920  13.868
13410W        W78571  18.234  31.339   2.252
13411W        W78572  13.636  27.138  13.010
13412W        W78573  15.581  37.863   2.765
13413W        W78574  12.843  17.473   1.891
13414W        W78575  19.328  35.610  12.359
13415W        W78576  40.882  24.684  11.263
13416W        W78577  20.677  39.918   9.709
13417W        W78578  35.945   3.604  14.751
13418W        W78579  44.743  44.283  11.980
13419W        W78580  25.533  29.913  13.513
13420W        W78581  35.026  29.587   4.872
13421W        W78582  27.985  42.191   2.702
13422W        W78583  11.145   9.654  12.192
13423W        W78584   6.674  35.976   2.186
13424W        W78585  21.259  15.888  13.885
13425W        W78586  33.618  27.572   0.056
13426W        W78587  37.146   2.528  14.768
13427W        W78588   8.403  17.378  13.020
13428W        W78589  27.494  11.472   3.265
13429W        W78590  24.953  25.388  13.808
13430W        W78591  25.852  30.080  11.121
13431W        W78592  24.966   3.975  11.086
13432W        W78593  14.187  22.038   0.389
13433W        W78594  35.801   0.618   2.671
13434W        W78595   2.907  21.998   1.344
13435W        W78596  37.944  38.843   2.258
13436W        W78597  12.096   8.687   3.607
13437W        W78598  42.065   3.495  13.068
13438W        W78599  41.430  27.042  13.953
13439W        W78600   9.858  10.889  13.549
13440W        W78601   5.930  33.545   0.775
13441W        W78602  24.615  27.036  11.094
13442W        W78603  24.398  23.600  11.635
13443W        W78604  22.649  39.555  12.244
13444W        W78605  29.387  16.051  14.046
13445W        W78606  11.404  34.035  14.383
13446W        W78607  28.842  34.610  11.874
13447W        W78608   1.298   0.728  12.411
13448W        W78609  42.600  34.405  11.859
13449W        W78610   8.747   5.921  11.281
13450W        W78611  21.203  29.059  12.896
13451W        W78612  10.072  30.869   4.602
13452W        W78613  42.762  12.876   3.688
13453W        W78614  16.679  15.718  11.104
13454W        W78615   9.374  43.730  12.382
13455W        W78616  24.822  14.549  13.549
13456W        W78617  37.573  26.484  10.282
13457W        W78618  25.911   0.812  12.117
13458W        W78619  11.802  18.376   5.256
13459W        W78620  33.158  13.344   2.295
13460W        W78621  11.697   7.269  12.883
13461W        W78622  44.507   4.366  12.967
13462W        W78623  40.773   5.543  13.299
13463W        W78624  21.123  27.134   2.962
13464W        W78625  26.088  38.946   2.487
13465W        W78626  32.741  32.610  12.916
13466W        W78627  17.577  39.581   1.441
13467W        W78628   8.082  21.540  11.062
13468W        W78629  31.726  13.860  12.008
13469W        W78630   2.083  38.505   3.550
13470W        W78631  21.031  37.467  12.201
13471W        W78632  31.684  22.177   2.691
13472W        W78633  17.848  30.981   2.269
13473W        W78634  29.189  16.916  14.116
13474W        W78635  16.329  28.128   0.731
13475W        W78636   0.245   5.251   3.195
13476W        W78637   9.126  36.535  14.027
13477W        W78638  33.523  42.058  13.562
13478W        W78639  20.499  36.955   3.661
13479W        W78640  31.449  16.070  12.659
13480W        W78641  34.933  34.024  10.656
13481W        W78642  11.274  33.561  13.550
13482W        W78643  36.148  26.236  12.532
13483W        W78644  20.585  12.887   3.218
13484W        W78645  22.892  29.452  12.834
13485W        W78646  30.519  29.860   1.005
13486W        W78647  43.382   1.023   0.344
13487W        W78648  32.924   5.245  14.925
13488W        W78649  15.514  19.805   3.665
13489W        W78650  42.507  10.211  11.319
13490W        W78651  22.191   8.703   3.756
13491W        W78652  14.691  24.147  10.558
13492W        W78653  14.810   4.758  14.398
13493W        W78654  14.358  12.056  10.608
13494W        W78655  40.818   7.971  13.621
13495W        W78656  24.958   2.013  12.796
13496W        W78657   1.014  18.136   2.314
13497W        W78658   8.893   5.595  13.096
13498W        W78659  15.863  16.988  14.621
13499W        W78660  29.829  19.831   4.545
13500W        W78661  20.798  37.446   5.079
13501W        W78662  41.316  32.067   2.598
13502W        W78663  33.580  13.907   4.514
13503W        W78664   7.854  10.615   4.136
13504W        W78665  39.332  14.880   3.673
13505W        W78666   2.969   7.088   1.757
13506W        W78667  42.355   2.006  10.485
13507W        W78668  42.283  23.274  10.747
13508W        W78669  44.919   3.241  13.060
13509W        W78670  20.171   4.143   3.838
13510W        W78671  32.727  32.894  10.734
13511W        W78672  19.716  13.392   0.289
13512W        W78673  36.280  14.705  12.913
13513W        W78674  27.767   1.965   1.855
13514W        W78675  11.916  27.485   0.093
13515W        W78676  24.075  10.750  14.417
13516W        W78677  29.591  30.118   0.241
13517W        W78678  24.227  42.393   2.691
13518W        W78679  22.487  23.434   0.849
13519W        W78680   8.605  22.567  11.171
13520W        W78681  41.212  43.210   5.024
13521W        W78682  23.707  33.903  10.779
13522W        W78683  10.896  15.814  12.106
13523W        W78684  41.818  42.355   1.512
13524W        W78685  20.623  44.100  10.656
13525W        W78686  38.025  24.092  11.228
13526W        W78687  33.368   3.945   5.044
13527W        W78688  34.148  19.307  13.699
13528W        W78689  39.263  15.697   2.767
13529W        W78690  32.444  18.111  13.433
13530W        W78691  39.927  36.931  11.788
13531W        W78692  41.424  20.154  10.689
13532W        W78693  44.137  33.927   1.519
13533W        W78694  32.547  22.495  11.175
13534W        W78695  22.761  35.332  14.154
13535W        W78696   2.587  32.974   1.225
13536W        W78697  38.986  26.132   1.891
13537W        W78698  18.123  23.016  12.013
13538W        W78699  10.734  36.013  13.386
13539W        W78700  39.036   5.257   2.413
13540W        W78701  29.364   8.520   1.756
13541W        W78702  24.482  42.358   3.144
13542W        W78703  18.922  15.569   5.475
13543W        W78704  25.303  16.263   2.364
13544W        W78705   8.750  19.753   2.323
13545W        W78706  25.192  23.066  10.683
13546W        W78707  22.058  30.379  13.832
13547W        W78708  38.730  43.305  14.128
13548W        W78709   5.516  35.895   3.676
13549W        W78710  11.916  37.720   3.763
13550W        W78711  36.565  40.944   1.406
13551W        W78712   6.232  20.431  11.089
13552W        W78713   2.391  13.411  10.719
13553W        W78714  39.418  44.785   4.482
13554W        W78715  35.859  12.122  10.588
13555W        W78716   9.598  24.983   3.250
13556W        W78717   4.163  34.710   0.862
13557W        W78718  15.146  18.977  13.833
13558W        W78719  13.589  32.666  12.663
13559W        W78720   0.433  13.839  14.282
13560W        W78721  43.030  32.917  13.880
13561W        W78722  40.368  39.022  10.745
13562W        W78723  22.609  40.101  12.120
13563W        W78724  19.095  21.282   0.202
13564W        W78725  14.552  10.827  14.899
13565W        W78726  23.550  33.830  12.742
13566W        W78727   7.795  28.491  10.626
13567W        W78728  39.317  18.610   2.274
13568W        W78729  11.745  16.028   2.282
13569W        W78730   1.387  15.202   1.249
13570W        W78731  31.083  34.523  11.651
13571W        W78732  36.989  38.522  12.265
13572W        W78733   1.541   8.662  12.743
13573W        W78734   0.789  11.980   1.386
13574W        W78735   3.964  17.189  12.542
13575W        W78736  22.901  30.576  12.007
13576W        W78737  22.131  10.263  10.725
13577W        W78738   7.873   6.735  11.008
13578W        W78739  36.614  17.669  12.498
13579W        W78740   8.648  25.649  12.459
13580W        W78741  11.418  42.381   4.899
13581W        W78742  15.172  28.572   3.883
13582W        W78743  25.086  37.507   2.212
13583W        W78744  36.455  14.625   2.025
13584W        W78745   8.567   7.233  10.785
13585W        W78746  14.642   2.814   2.199
13586W        W78747   7.165  34.432   0.405
13587W        W78748  10.432  22.712   3.084
13588W        W78749  31.147   1.620  12.859
13589W        W78750  44.361  24.053   1.824
13590W        W78751  24.532  16.591   3.670
13591W        W78752   2.967   6.469   4.155
13592W        W78753   3.340   4.759  13.687
13593W        W78754   3.806  40.342   3.557
13594W        W78755  14.435   4.915   1.857
13595W        W78756   3.711  27.454  13.600
13596W        W78757  21.021  34.850   1.418
13597W        W78758   3.484   1.245   0.386
13598W        W78759  12.643  18.815  13.872
13599W        W78760  35.675  31.847  12.908
13600W        W78761  17.216   5.276   1.332
13601W        W78762  12.279  35.375   1.763
13602W        W78763  18.719  32.177   4.154
13603W        W78764   7.251  26.526   2.362
13604W        W78765  27.203  12.155  13.614
13605W        W78766   3.874  39.047   0.894
13606W        W78767  37.860  38.326   2.065
13607W        W78768   2.404  19.063  13.896
13608W        W78769  24.491  19.347   4.450
13609W        W78770  29.484  39.299   0.962
13610W        W78771  42.011   6.461  10.077
13611W        W78772  10.586  40.745  10.662
13612W        W78773  22.214  37.368   3.379
13613W        W78774  42.485  23.071   4.683
13614W        W78775  37.591   8.905  13.374
13615W        W78776  40.447  32.171   0.468
13616W        W78777  40.395  28.426  12.980
13617W        W78778  13.442  21.100   2.281
13618W        W78779  11.290  12.862  13.355
13619W        W78780  39.095  24.224  11.088
13620W        W78781   6.625  18.173   1.851
13621W        W78782  29.981  24.059  13.999
13622W        W78783  10.189  22.007  14.472
13623W        W78784   9.020  23.815  12.182
13624W        W78785  42.254  12.612   0.612
13625W        W78786  23.608  39.917  14.328
13626W        W78787  28.463  33.570  11.894
13627W        W78788  23.097   0.995   4.201
13628W        W78789   9.633  42.916  14.540
13629W        W78790  13.299  39.478  12.156
13630W        W78791   8.681  44.149  12.958
13631W        W78792   3.927  42.979  14.256
13632W        W78793  17.824  43.477   2.680
13633W        W78794  22.942  17.653   9.609
13634W        W78795  27.324  44.278  11.154
13635W        W78796  18.264  42.538   4.176
13636W        W78797  30.926  26.652  13.505
13637W        W78798   0.910  31.622  13.578
13638W        W78799  23.440   2.359   3.650
13639W        W78800  18.972   5.951   1.416
13640W        W78801  17.158  29.389  12.612
13641W        W78802  40.441  42.342   3.299
13642W        W78803  43.296   1.303  12.910
13643W        W78804   7.723  19.641  12.638
13644W        W78805  27.948  27.516   1.201
13645W        W78806  35.871  34.892   3.146
13646W        W78807  40.525  17.992   2.769
13647W        W78808   7.860  29.096   3.997
13648W        W78809  38.977  34.104   0.939
13649W        W78810  43.563  44.313  10.658
13650W        W78811  18.773  26.374  14.263
13651W        W78812  24.043   4.510  14.826
13652W        W78813   1.634  41.845   1.505
13653W        W78814  27.931   9.466   1.657
13654W        W78815  12.990  28.937  12.240
13655W        W78816   9.825  27.028   0.769
13656W        W78817   6.877   0.078  11.516
13657W        W78818  30.397   0.947  13.303
13658W        W78819  16.847  30.346   3.748
13659W        W78820  12.769   4.608  12.022
13660W        W78821  41.497   2.885   4.574
13661W        W78822  31.859  11.306  10.628
13662W        W78823  21.239  21.743  12.101
13663W        W78824   5.233  25.784   1.212
13664W        W78825  21.163  36.798  12.508
13665W        W78826  15.763  39.360   1.815
13666W        W78827  10.178   7.276  13.927
13667W        W78828  28.105  42.787  10.741
13668W        W78829  10.961  35.975   0.462
13669W        W78830   1.549   1.723  11.494
13670W        W78831  31.879  10.751   2.308
13671W        W78832   5.910  39.419  14.409
13672W        W78833  35.324  38.847   2.867
13673W        W78834  27.445   7.170  12.989
13674W        W78835  44.723  24.424   4.363
13675W        W78836  42.261  38.119  14.293
13676W        W78837   4.262   1.517   3.827
13677W        W78838  24.491  24.873   1.296
13678W        W78839   3.439  13.526  12.856
13679W        W78840  25.509  37.052   1.446
13680W        W78841   7.374  28.717  14.867
13681W        W78842   7.304  11.009  10.268
13682W        W78843  11.126  29.158  12.508
13683W        W78844  22.970  40.954  13.408
13684W        W78845  17.474  16.241   1.624
13685W        W78846  23.059   3.297   0.579
13686W        W78847  16.513  19.804  13.458
13687W        W78848  36.264   8.757  13.749
13688W        W78849  34.516  34.901  13.256
13689W        W78850   5.829  38.597   3.703
13690W        W78851  39.111  38.822   0.276
13691W        W78852  31.446  17.395  14.792
13692W        W78853  14.719  13.962  11.159
13693W        W78854  22.087  18.781   2.847
13694W        W78855  27.286   9.146   3.860
13695W        W78856  26.290  29.048  12.214
13696W        W78857  20.573  10.217   2.799
13697W        W78858  18.862   1.692   3.337
13698W        W78859  38.318  42.902   2.357
13699W        W78860   7.791  35.163  11.698
13700W        W78861  11.192   6.530  11.880
13701W        W78862  16.691  12.101  11.146
13702W        W78863  43.290  35.916  13.591
13703W        W78864  31.502  23.099   2.884
13704W        W78865  15.875  27.991  10.598
13705W        W78866  39.528   3.525  13.238
13706W        W78867  43.739   0.492  11.212
13707W        W78868  27.123   5.806  12.224
13708W        W78869  40.316  24.928  10.277
13709W        W78870  21.492  33.965  14.699
13710W        W78871  33.013   4.655   1.019
13711W        W78872   7.583  19.277  12.330
13712W        W78873   5.217   9.284  13.988
13713W        W78874   2.753  37.983   4.238
13714W        W78875  40.000  23.052   4.701
13715W        W78876  17.230   7.650  13.361
13716W        W78877   6.457  20.213  10.693
13717W        W78878   5.224   4.861   4.335
13718W        W78879  33.612  27.465   2.755
13719W        W78880  38.076   9.707   4.015
13720W        W78881  33.582  40.019  11.695
13721W        W78882  30.002  33.015  14.516
13722W        W78883  29.603  44.229   0.922
13723W        W78884  11.545   2.298   5.323
13724W        W78885  27.436  36.890   4.863
13725W        W78886   7.495  24.925  10.681
13726W        W78887  26.041  35.368   1.500
13727W        W78888  44.882  23.900  12.234
13728W        W78889  22.422  18.688  12.933
13729W        W78890  31.501  26.398   1.469
13730W        W78891  37.653  24.456  11.242
13731W        W78892  25.293  43.261  10.710
13732W        W78893  28.983  33.178  11.173
13733W        W78894   6.663   3.715   3.544
13734W        W78895  22.484  32.500  13.931
13735W        W78896  42.397  25.194  12.484
13736W        W78897  43.724  41.969  13.533
13737W        W78898  24.234  33.967  14.072
13738W        W78899  18.328  42.249   0.657
13739W        W78900  37.707  20.041   0.733
13740W        W78901   4.166  33.233   3.452
13741W        W78902   5.217  22.722   0.744
13742W        W78903   1.627  25.018   0.269
13743W        W78904  15.502  20.973   5.041
13744W        W78905  18.757   5.952  13.872
13745W        W78906  17.160  43.826  12.750
13746W        W78907  13.549  13.102   4.191
13747W        W78908  13.981  41.607  14.354
13748W        W78909   7.245  17.046  11.144
13749W        W78910  32.791  43.354  13.013
13750W        W78911  38.918  27.253   2.826
13751W        W78912   7.445   4.682  14.770
13752W        W78913  13.922  20.901   3.200
13753W        W78914  14.616  11.851   2.587
13754W        W78915  11.682  32.692   0.670
13755W        W78916  10.102  32.903  13.878
13756W        W78917  31.137  29.904  14.421
13757W        W78918  39.607  12.656  11.795
13758W        W78919  21.695  15.560   1.241
13759W        W78920  16.035  20.993   0.433
13760W        W78921  39.143  38.066  14.392
13761W        W78922  30.069  33.540  14.316
13762W        W78923   2.759  16.037   0.992
13763W        W78924  25.173   4.373  14.467
13764W        W78925  17.360  19.991   1.629
13765W        W78926  16.787  42.983  14.962
13766W        W78927  29.857  40.364  10.629
13767W        W78928  30.088   6.324  10.787
13768W        W78929  42.346  33.601  12.910
13769W        W78930   2.356  26.097  14.940
13770W        W78931  36.603  24.118   0.458
13771W        W78932   8.859   3.662  12.477
13772W        W78933  10.832  22.357   2.994
13773W        W78934  42.900  39.366  13.511
13774W        W78935  22.271  18.298   2.853
13775W        W78936   3.452  27.937   2.409
13776W        W78937  16.113   7.317  13.241
13777W        W78938   3.450  23.444   3.307
13778W        W78939  34.371  34.580  12.355
13779W        W78940  42.021   0.137  13.799
13780W        W78941  33.342  35.542   0.700
13781W        W78942  27.260  17.677   2.228
13782W        W78943   5.828  36.917   1.865
13783W        W78944   7.777  41.796  12.097
13784W        W78945  23.766   0.445   3.252
13785W        W78946   0.603  42.174  10.576
13786W        W78947  32.161  29.185   0.347
13787W        W78948  18.478   7.424  11.383
13788W        W78949  20.871  32.021   1.874
13789W        W78950  33.903   8.331   4.351
13790W        W78951   0.679  34.009  13.038
13791W        W78952  41.938  35.379  13.283
13792W        W78953   7.816  40.305  11.849
13793W        W78954  19.334  22.542  10.772
13794W        W78955  18.298  18.661  11.396
13795W        W78956  15.586   9.427   2.329
13796W        W78957   4.237  30.762   2.393
13797W        W78958  36.980   1.777  11.894
13798W        W78959  43.908  28.086  13.470
13799W        W78960   9.182  36.544   2.957
13800W        W78961  23.036  33.611  13.458
13801W        W78962  30.616  21.159   4.911
13802W        W78963   5.423  27.572   1.496
13803W        W78964  14.829   5.953  10.939
13804W        W78965  43.855  13.167  14.198
13805W        W78966   2.311  16.521   2.059
13806W        W78967  41.596  27.400  12.734
13807W        W78968  31.041  18.698  12.478
13808W        W78969  18.664   8.290   4.586
13809W        W78970   8.845  33.962   1.890
13810W        W78971  26.576  29.686  14.847
13811W        W78972  40.254  32.878   4.226
13812W        W78973  32.621  22.622   1.383
13813W        W78974  30.865  21.092   1.529
13814W        W78975  30.124   4.345  11.846
13815W        W78976  43.050  35.454  12.049
13816W        W78977  27.091  44.507   1.886
13817W        W78978  25.561  24.784  13.806
13818W        W78979  27.676  42.099   0.419
13819W        W78980  38.894  37.359   3.442
13820W        W78981   9.910  41.564   2.220
13821W        W78982  29.966  13.111  13.410
13822W        W78983  25.293  19.053   1.997
13823W        W78984  33.928  25.957  12.878
13824W        W78985  15.192  12.177  14.516
13825W        W78986   5.124   9.771  13.803
13826W        W78987  24.697  43.384  13.431
13827W        W78988  25.492  38.856  11.720
13828W        W78989  41.982   8.248  13.861
13829W        W78990  19.413  40.089  13.434
13830W        W78991  41.999  42.964  13.037
13831W        W78992  12.132  37.467   4.149
13832W        W78993  12.050  18.671   3.485
13833W        W78994  16.177   6.243  11.170
13834W        W78995  28.883  10.158   2.870
13835W        W78996  22.313  20.689  11.692
13836W        W78997   0.538  13.459   1.257
13837W        W78998  28.960  34.340  10.579
13838W        W78999  41.386  17.222  11.946
13839W        W79000  29.026  10.646  12.795
13840W        W79001  12.885  41.898  12.636
13841W        W79002  30.622   3.591  13.918
13842W        W79003  36.591   8.168  14.936
13843W        W79004   6.434  18.024  13.079
13844W        W79005  11.070  31.875   3.456
13845W        W79006   3.931  12.732  12.553
13846W        W79007  29.795  16.281   0.371
13847W        W79008  22.141  23.589   1.798
13848W        W79009  13.315   3.018  11.875
13849W        W79010  11.346   0.001   1.296
13850W        W79011  30.405  37.565  10.730
13851W        W79012  36.298  39.675   9.830
13852W        W79013  28.652  44.801   4.112
13853W        W79014  26.433  21.688  11.728
13854W        W79015  43.371  31.994  11.947
13855W        W79016  27.062   4.191  13.358
13856W        W79017  37.172  20.772   0.293
13857W        W79018  39.263  36.972  14.564
13858W        W79019  38.958  13.384   2.912
13859W        W79020  31.972  20.621  10.958
13860W        W79021  24.183  16.467   3.297
13861W        W79022  21.013  38.091   0.769
13862W        W79023  40.228   4.217  12.806
13863W        W79024  23.386   3.395   1.322
13864W        W79025  29.569  37.630  13.542
13865W        W79026  37.953  16.662  12.317
13866W        W79027  22.523   3.729   0.989
13867W        W79028   9.801   2.794  13.878
13868W        W79029  14.157  43.023   1.382
13869W        W79030  17.905  20.213  14.783
13870W        W79031   7.338  32.519  10.772
13871W        W79032   1.487  30.067   0.454
13872W        W79033   1.299  14.377   0.753
13873W        W79034  11.243  17.741   2.747
13874W        W79035  19.573   8.328  14.100
13875W        W79036  27.770   5.741   1.458
13876W        W79037  35.150  34.967   0.361
13877W        W79038  20.036  16.624   0.909
13878W        W79039   1.346  12.135   9.633
13879W        W79040  16.804  22.741  11.593
13880W        W79041  21.574  10.775  12.585
13881W        W79042  25.747   9.363   1.371
13882W        W79043   7.782   3.816   1.077
13883W        W79044  13.832  10.995  13.404
13884W        W79045  29.081  27.771   1.991
13885W        W79046  39.020   9.611  11.950
13886W        W79047  38.121  40.846  11.639
13887W        W79048  24.764  28.197   2.703
13888W        W79049  26.095   4.076  10.634
13889W        W79050  37.023  18.536  14.575
13890W        W79051  22.498   0.487  10.772
13891W        W79052  31.722  25.680  12.006
13892W        W79053   3.494  17.953  12.044
13893W        W79054   0.057  33.421  14.383
13894W        W79055  21.574   9.113   0.499
13895W        W79056  15.816  35.370  13.326
13896W        W79057  17.269  19.934  12.442
13897W        W79058  29.411  29.147   4.701
13898W        W79059  36.324  11.466   0.766
13899W        W79060  31.865   2.554   1.272
13900W        W79061  15.764  31.061   0.152
13901W        W79062  14.611  34.181  12.597
13902W        W79063   2.215  26.282  13.639
13903W        W79064  34.650  37.967   0.804
13904W        W79065  32.161  22.186   1.793
13905W        W79066  36.043  41.810  11.629
13906W        W79067  22.208   4.985  10.735
13907W        W79068   6.595  37.976  12.447
13908W        W79069  29.686  14.859  13.345
13909W        W79070  28.653  19.188   4.794
13910W        W79071  13.258   3.255   5.089
13911W        W79072  12.841   7.751  14.853
13912W        W79073  33.423  37.653   4.554
13913W        W79074   3.374  23.359   2.801
13914W        W79075   2.137  35.807  11.756
13915W        W79076  14.281  43.935   4.710
13916W        W79077  18.270  30.455  12.582
13917W        W79078  29.992  41.680  11.057
13918W        W79079  34.972   4.724  11.703
13919W        W79080  26.828  23.238   0.296
13920W        W79081  38.513   5.939  12.427
13921W        W79082   1.000   7.409  14.266
13922W        W79083   5.591  11.588   9.690
13923W        W79084   3.638   5.574  14.410
13924W        W79085  14.385  23.665   3.625
13925W        W79086  36.633  14.011   9.921
13926W        W79087   7.108   7.211  12.064
13927W        W79088   5.195  30.019  13.412
13928W        W79089  37.169  41.084   2.322
13929W        W79090  19.137  39.288   4.524
13930W        W79091  17.284  16.626   0.320
13931W        W79092  16.873   8.954  12.123
13932W        W79093  30.905  20.191  10.611
13933W        W79094  16.266  41.303  10.724
13934W        W79095  44.041  33.354   3.307
13935W        W79096  11.293   7.727   1.259
13936W        W79097  27.277   5.177   3.282
13937W        W79098  40.371  40.480   1.698
13938W        W79099   0.749   8.378   0.416
13939W        W79100   2.839  21.670  12.782
13940W        W79101   9.717  41.388  12.390
13941W        W79102  25.864  10.540   4.080
13942W        W79103  26.801  16.355   2.928
13943W        W79104  22.061  31.746   1.277
13944W        W79105  36.948   2.190   1.691
13945W        W79106   4.412   8.626  11.140
13946W        W79107   7.634   4.952  14.339
13947W        W79108  31.044  24.649   4.512
13948W        W79109  43.463   8.206   0.316
13949W        W79110  11.498  41.839  13.093
13950W        W79111  32.065  41.483   2.843
13951W        W79112   5.415  19.709   3.833
13952W        W79113  11.843  28.702   1.439
13953W        W79114   1.090   3.494   0.975
13954W        W79115  44.955  27.809  14.549
13955W        W79116  14.592  42.448  11.195
13956W        W79117   0.634  21.049   3.730
13957W        W79118  30.514  31.952  12.060
13958W        W79119  31.392  17.333  13.500
13959W        W79120  38.482  13.022   4.019
13960W        W79121   5.258  33.092   4.300
13961W        W79122  38.295  14.908   2.221
13962W        W79123  36.155  28.756  12.399
13963W        W79124   9.852   1.891  10.892
13964W        W79125  26.972  35.882   1.718
13965W        W79126  28.548  19.579  12.379
13966W        W79127   5.933  19.037  13.566
13967W        W79128  12.279  25.177  13.609
13968W        W79129   5.325  34.547  12.114
13969W        W79130  33.945  33.590  11.930
13970W        W79131  12.369  13.726  12.554
13971W        W79132   4.107   6.327   0.174
13972W        W79133  33.578  18.011  11.538
13973W        W79134   5.487  17.580   4.589
13974W        W79135   6.719  43.144  11.689
13975W        W79136   3.020  22.097  11.105
13976W        W79137  36.448  23.936   2.956
13977W        W79138  13.134  31.666  12.811
13978W        W79139   8.940   1.866  14.019
13979W        W79140  20.580  25.699   0.961
13980W        W79141  37.937  35.478  14.942
13981W        W79142  23.969  37.860   2.921
13982W        W79143  12.292  10.122   0.003
13983W        W79144  18.512  32.028   4.865
13984W        W79145  21.232   9.057  12.094
13985W        W79146  32.622  39.525  12.448
13986W        W79147  35.502  35.174  11.027
13987W        W79148   6.317   5.629   1.716
13988W        W79149  31.400  19.565  10.616
13989W        W79150   3.984  39.835   2.926
13990W        W79151  22.295  41.572   0.296
13991W        W79152  31.958  35.813   0.702
13992W        W79153   5.016  22.675   4.831
13993W        W79154  32.486  36.348   2.802
13994W        W79155  24.631  37.211   0.936
13995W        W79156  22.712  37.734   2.799
13996W        W79157  36.582  38.221   1.444
13997W        W79158   3.734   8.383  14.988
13998W        W79159  18.108  12.260   1.471
13999W        W79160   8.462  12.326  13.855
14000W        W79161  35.938  13.345  12.253
14001W        W79162  39.929   5.048  11.212
14002W        W79163   3.549  14.262  11.616
14003W        W79164  29.133   8.721   0.375
14004W        W79165  28.208  18.279  13.379
14005W        W79166   0.201   0.056   2.511
14006W        W79167  43.812  20.792  14.901
14007W        W79168   4.279  43.707  12.328
14008W        W79169   2.575   0.798   2.731
14009W        W79170   8.353  17.356   1.069
14010W        W79171  23.548  33.535  13.410
14011W        W79172  44.301  10.575   4.251
14012W        W79173  29.089  43.499  12.347
14013W        W79174   0.568   7.275  13.986
14014W        W79175  36.011  29.888  11.159
14015W        W79176  29.138   0.518  11.243
14016W        W79177  39.019  13.169   0.502
14017W        W79178  13.133   4.908  14.920
14018W        W79179  11.278   6.606  13.356
14019W        W79180  28.502  34.500   0.897
14020W        W79181  29.001  29.476  13.402
14021W        W79182  11.922  36.050   2.767
14022W        W79183  15.326  10.197  13.952
14023W        W79184  38.885   2.764  13.956
14024W        W79185  44.433  33.190   0.310
14025W        W79186   3.399  32.546   3.645
14026W        W79187  20.726  16.019  13.357
14027W        W79188  21.688  21.795  14.984
14028W        W79189  12.248   2.771  13.445
14029W        W79190   6.310  41.199  11.627
14030W        W79191  11.136  14.003  14.510
14031W        W79192   7.945  33.136   3.197
14032W        W79193  20.256  41.804  11.650
14033W        W79194  25.160   1.771   3.389
14034W        W79195  32.408  32.201   3.053
14035W        W79196  39.652  24.598  11.416
14036W        W79197   9.803  29.834  14.767
14037W        W79198   8.416  26.435  12.935
14038W        W79199  38.842  30.161  13.164
14039W        W79200  20.490  28.263   2.138
14040W        W79201  30.686  34.837   3.672
14041W        W79202  31.353  11.379  12.572
14042W        W79203  13.323   4.840   4.629
14043W        W79204  22.710  12.682   1.093
14044W        W79205   6.675   9.162   1.149
14045W        W79206   1.840  36.514   4.770
14046W        W79207  31.303  13.065  10.946
14047W        W79208  43.992   6.997   4.228
14048W        W79209   5.689  19.211   1.305
14049W        W79210   6.900   6.504  11.832
14050W        W79211  42.297  30.413  10.724
14051W        W79212  30.968  10.250   2.972
14052W        W79213   3.709  23.580  10.948
14053W        W79214  35.590   0.835  12.091
14054W        W79215   5.485   5.862   2.910
14055W        W79216  24.220  32.211  10.935
14056W        W79217  41.452  36.420  14.483
14057W        W79218  35.599  34.518   3.748
14058W        W79219   5.462  12.434  10.691
14059W        W79220  31.213  19.136  12.272
14060W        W79221  12.093  35.122  12.477
14061W        W79222   8.118  28.389   0.358
14062W        W79223  42.726   0.947   3.704
14063W        W79224  11.771  18.268  10.763
14064W        W79225   5.238  14.234   0.332
14065W        W79226   5.217  21.723  14.241
14066W        W79227  13.128  40.565   1.659
14067W        W79228  30.708  38.051  12.916
14068W        W79229  41.480   8.774   3.251
14069W        W79230  15.363  11.298  10.718
14070W        W79231  26.639  28.984   2.377
14071W        W79232  18.266  38.489  13.049
14072W        W79233  35.213   3.929   2.717
14073W        W79234  40.928  26.166  14.008
14074W        W79235  22.495  29.213   2.819
14075W        W79236   7.427  35.463   2.002
14076W        W79237  12.740   2.227  13.988
14077W        W79238  35.912  29.124  12.674
14078W        W79239   8.706   2.392  12.010
14079W        W79240  30.444  10.094  10.713
14080W        W79241  17.221   6.714   3.592
14081W        W79242  21.843   4.671   2.945
14082W        W79243  19.752  18.985  14.269
14083W        W79244  34.417  25.903  13.991
14084W        W79245  40.251  13.817  11.638
14085W        W79246   4.464  34.477  13.523
14086W        W79247   9.118  17.682  11.533
14087W        W79248  20.639  38.143  13.581
14088W        W79249   2.841  19.021  11.119
14089W        W79250   0.752  10.595  10.174
14090W        W79251  27.490  40.178   4.869
14091W        W79252   1.843   4.895  13.864
14092W        W79253  40.885  32.612   2.601
14093W        W79254  41.317  36.581  11.421
14094W        W79255  21.271  41.087  13.959
14095W        W79256   4.651  10.343   0.382
14096W        W79257  27.102  23.774   0.721
14097W        W79258  11.393  27.454  13.420
14098W        W79259  28.100  22.519   0.783
14099W        W79260   4.218   1.713   2.829
14100W        W79261  17.187  11.085  10.409
14101W        W79262  30.638  43.903  12.398
14102W        W79263  10.134  44.700   3.643
14103W        W79264   5.821  28.553  14.765
14104W        W79265   6.066  26.988   2.547
14105W        W79266  30.551  43.648   3.331
14106W        W79267   8.857  23.785   2.383
14107W        W79268   0.715  37.311   1.947
14108W        W79269  43.732  18.622   0.303
14109W        W79270  30.701  42.112  10.222
14110W        W79271  25.226  31.079  12.081
14111W        W79272  26.099  16.249  11.653
14112W        W79273  37.305  35.932  14.082
14113W        W79274  44.943  39.822  10.551
14114W        W79275  39.759  32.685   2.148
14115W        W79276  39.029  10.722  13.919
14116W        W79277   2.689   7.972  11.566
14117W        W79278  40.923   7.226  14.206
14118W        W79279  18.553   3.868   4.088
14119W        W79280   4.745   5.372  12.360
14120W        W79281   6.710   8.646   4.322
14121W        W79282  23.096  17.520  13.848
14122W        W79283  21.078  27.426  11.715
14123W        W79284  13.830  12.857   4.619
14124W        W79285  20.198  28.755  13.047
14125W        W79286   0.485  20.144   0.918
14126W        W79287  15.582  31.558   1.365
14127W        W79288  41.569  27.957  10.718
14128W        W79289  11.275  40.778  12.891
14129W        W79290  30.619   6.655   1.338
14130W        W79291  11.116   3.530   4.055
14131W        W79292  36.948   4.275   3.705
14132W        W79293  37.050   2.371  13.062
14133W        W79294  22.023  31.015   0.241
14134W        W79295   1.820   9.162   4.562
14135W        W79296  30.456   9.010   2.292
14136W        W79297  37.872   7.283   2.246
14137W        W79298   4.306   0.229  12.631
14138W        W79299   8.851  42.900   0.908
14139W        W79300  23.518  15.413   2.729
14140W        W79301  20.965  37.523  14.337
14141W        W79302  31.023   8.258  11.060
14142W        W79303  32.930  12.418  12.534
14143W        W79304  11.658  19.018   3.724
14144W        W79305  26.307  43.024  12.411
14145W        W79306  24.994  43.370  14.123
14146W        W79307  24.439  36.076  14.486
14147W        W79308  19.257  11.849  14.485
14148W        W79309  40.019  39.089   3.327
14149W        W79310  25.154  22.166   0.550
14150W        W79311  18.601  14.274  12.588
14151W        W79312  29.124   5.319  14.293
14152W        W79313  34.618  24.596  11.998
14153W        W79314  17.840  27.032   1.221
14154W        W79315   3.522   4.251  11.619
14155W        W79316  34.096  15.593   3.318
14156W        W79317   2.408  10.279   9.843
14157W        W79318  16.582  16.260  12.505
14158W        W79319  35.606  36.722  14.359
14159W        W79320  36.726   8.415   1.759
14160W        W79321  30.200  35.959   3.162
14161W        W79322  32.514  23.672   3.575
14162W        W79323   0.981  19.227   3.124
14163W        W79324  26.177  17.984  11.160
14164W        W79325  14.945   8.738   2.167
14165W        W79326  10.416  28.994  13.864
14166W        W79327  44.712  35.866   4.134
14167W        W79328  10.409  24.143  11.107
14168W        W79329  35.621  14.174  11.666
14169W        W79330  33.622  39.885  13.517
14170W        W79331  37.348  20.533  14.851
14171W        W79332  41.767   5.803   2.792
14172W        W79333   0.449  11.545   2.736
14173W        W79334   4.837  36.105  13.145
14174W        W79335  42.750  20.003   3.635
14175W        W79336  11.221   1.170  12.021
14176W        W79337  23.616   7.617   2.910
14177W        W79338  26.553  24.294   0.428
14178W        W79339  36.550  39.574   1.789
14179W        W79340  28.522   1.756  13.785
14180W        W79341   2.148   6.684  13.937
14181W        W79342  25.322   7.406   3.005
14182W        W79343  38.786  27.927   3.559
14183W        W79344  13.370  22.937   2.198
14184W        W79345  29.974  27.928   0.343
14185W        W79346   7.865  14.883   0.702
14186W        W79347  42.702   2.150  10.831
14187W        W79348  19.526  41.323   0.525
14188W        W79349  14.052  36.557   2.250
14189W        W79350  32.830  44.875  14.905
14190W        W79351  43.804  16.224   1.862
14191W        W79352  31.717  32.751  11.712
14192W        W79353  11.746  18.427  14.152
14193W        W79354  14.615  31.604  13.451
14194W        W79355  10.351  25.023   4.153
14195W        W79356   8.175  37.401   3.213
14196W        W79357  18.280  32.635   1.809
14197W        W79358  37.561  31.087  12.151
14198W        W79359  43.927  12.889  10.142
14199W        W79360  21.115  10.693  13.861
14200W        W79361  32.041  11.858   1.665
14201W        W79362  33.573   2.830  14.090
14202W        W79363  10.927   7.593   0.394
14203W        W79364  21.290  17.246  11.566
14204W        W79365  16.875   7.935   4.128
14205W        W79366  21.793  39.479  13.537
14206W        W79367  19.197  15.058  11.477
14207W        W79368  16.384   0.211  12.498
14208W        W79369  25.588   1.416   3.107
14209W        W79370  15.122  26.226  10.944
14210W        W79371  36.617  15.126   1.370
14211W        W79372  13.592  10.263   2.351
14212W        W79373  29.504  33.850  11.819
14213W        W79374  17.873  22.251  12.405
14214W        W79375  40.946   7.161   2.588
14215W        W79376   3.771  15.544  13.962
14216W        W79377   4.733  14.119   2.682
14217W        W79378   7.594  14.200   4.632
14218W        W79379  18.044  11.689  14.038
14219W        W79380  30.419  20.739  12.416
14220W        W79381  13.218  33.059   1.123
14221W        W79382  38.878  31.097  13.617
14222W        W79383   6.434   9.071   2.880
14223W        W79384  28.084  10.323   2.233
14224W        W79385  20.595   7.682  11.636
14225W        W79386  27.567  37.875   3.864
14226W        W79387  10.726  39.791   4.176
14227W        W79388   8.384  22.712  10.691
14228W        W79389   8.588  19.772  12.922
14229W        W79390  14.718  37.765  12.155
14230W        W79391  30.233   5.796   1.300
14231W        W79392  38.989   7.881   2.737
14232W        W79393  25.045  41.368  12.826
14233W        W79394   5.035   8.021   4.202
14234W        W79395  36.472  13.870  11.915
14235W        W79396   9.213   3.072   4.354
14236W        W79397   2.655  31.566  13.717
14237W        W79398  14.328  40.855  14.493
14238W        W79399  18.532  42.320   2.812
14239W        W79400  12.364  36.412  13.320
14240W        W79401  35.327  11.688   0.864
14241W        W79402  37.167   2.432   0.636
14242W        W79403   0.031  42.864   5.416
14243W        W79404  13.554  23.640  13.905
14244W        W79405  21.308  21.230  12.015
14245W        W79406  14.627  43.296   1.261
14246W        W79407  34.940  13.165  12.337
14247W        W79408  41.558   4.327   0.932
14248W        W79409  23.172  12.628   1.326
14249W        W79410   8.239  17.594  13.492
14250W        W79411  20.540   6.847   0.293
14251W        W79412  20.123  39.134  12.233
14252W        W79413  21.619  33.801  13.445
14253W        W79414  38.465  42.505  13.890
14254W        W79415  36.869  38.582   1.184
14255W        W79416  20.623  44.791   2.797
14256W        W79417  16.230  24.319   2.715
14257W        W79418  35.820  14.584  12.730
14258W        W79419  38.269   3.856   0.223
14259W        W79420  35.314  27.116  12.222
14260W        W79421  23.200  10.417  14.410
14261W        W79422  18.810  15.350   4.140
14262W        W79423  26.575  18.578  11.595
14263W        W79424  24.576  34.931  12.408
14264W        W79425   3.855   8.907   4.235
14265W        W79426  16.370   7.809  13.572
14266W        W79427  11.257  21.390  13.760
14267W        W79428  37.992   6.778   2.338
14268W        W79429  31.125  30.264   2.630
14269W        W79430  29.162  41.393   4.670
14270W        W79431   6.330  12.804   1.855
14271W        W79432  44.016  29.172  11.565
14272W        W79433  18.692  11.879   2.821
14273W        W79434  44.024  17.155  14.962
14274W        W79435  30.590   4.553  13.156
14275W        W79436  20.082  38.816   3.823
14276W        W79437  12.750  17.603   2.829
14277W        W79438  22.944  28.880  14.800
14278W        W79439   5.857  34.198   0.430
14279W        W79440  28.066   9.624   0.846
14280W        W79441  15.914  28.021   2.900
14281W        W79442  32.654   0.986   3.429
14282W        W79443  31.072  24.393  12.926
14283W        W79444  23.967  17.135   4.024
14284W        W79445   4.730  39.873  13.794
14285W        W79446  17.556  30.510   2.820
14286W        W79447  14.166   4.629   2.273
14287W        W79448  17.548  24.984   3.193
14288W        W79449  27.001  21.024  12.858
14289W        W79450  16.843  16.635   0.665
14290W        W79451  24.097  14.366   0.822
14291W        W79452   5.926  38.909  11.888
14292W        W79453  11.574  34.849  13.837
14293W        W79454  24.302  21.201  14.929
14294W        W79455  41.964  11.337   3.359
14295W        W79456  10.762  43.519  10.925
14296W        W79457   7.423  41.507   2.635
14297W        W79458   0.189  36.959  12.163
14298W        W79459  10.689  30.007   3.700
14299W        W79460  22.431  21.741   2.880
14300W        W79461  36.306  13.553  13.710
14301W        W79462  12.374  33.410   1.392
14302W        W79463  15.353   4.945   1.736
14303W        W79464   0.404  44.823  12.114
14304W        W79465  27.840   5.693  10.261
14305W        W79466  36.341  23.232  10.792
14306W        W79467  32.873  16.497   4.146
14307W        W79468   4.834  13.090   2.569
14308W        W79469   2.208  27.786  11.672
14309W        W79470   7.292  16.770   4.155
14310W        W79471  18.291   2.551   4.891
14311W        W79472   4.333   6.875   4.141
14312W        W79473  14.800  40.570   3.101
14313W        W79474   2.857  34.404  13.904
14314W        W79475   2.330   0.023  11.023
14315W        W79476  14.817   3.639   1.222
14316W        W79477  24.079  28.941   2.853
14317W        W79478  40.016  36.364  14.852
14318W        W79479  19.201  41.120  10.702
14319W        W79480  36.974  32.895   1.301
14320W        W79481  20.535  24.060   4.314
14321W        W79482  43.319  21.985   0.944
14322W        W79483  44.327  34.885  11.930
14323W        W79484   2.546  31.617   4.261
14324W        W79485  17.062  30.986  11.907
14325W        W79486  40.514  32.059  11.437
14326W        W79487  22.193  28.643  14.273
14327W        W79488  33.895  35.479  12.730
14328W        W79489  44.780   0.719   3.656
14329W        W79490   0.982  13.361   0.307
14330W        W79491   5.217  25.543  13.662
14331W        W79492  39.372  25.534  14.300
14332W        W79493  28.019   2.357  14.875
14333W        W79494  33.396  10.673   1.649
14334W        W79495  34.603  39.991  13.414
14335W        W79496  11.878  34.563   2.275
14336W        W79497  21.851  14.006  10.744
14337W        W79498  25.543  24.531   2.083
14338W        W79499  37.151  36.857   1.378
14339W        W79500   2.946  33.447   3.708
14340W        W79501  14.807  14.680   0.688
14341W        W79502   6.356  20.738   1.165
14342W        W79503  17.133   3.367  10.904
14343W        W79504   6.173   4.244  14.350
14344W        W79505  30.124  11.744  13.348
14345W        W79506  17.263  18.121   4.557
14346W        W79507  21.740  36.532   4.820
14347W        W79508   0.389  12.009  14.311
14348W        W79509  32.867  32.639  11.876
14349W        W79510  39.347  41.128  14.715
14350W        W79511  20.996  44.713   1.386
14351W        W79512  24.107  18.515   1.188
14352W        W79513  24.650  38.631   2.712
14353W        W79514   0.622   4.705  10.746
14354W        W79515   7.857  37.590   1.600
14355W        W79516  35.392  30.842   0.667
14356W        W79517  14.816  10.325  11.670
14357W        W79518  32.240  35.161   3.382
14358W        W79519   4.898  42.984  10.909
14359W        W79520  43.492  37.233   1.345
14360W        W79521  28.170  26.066   1.316
14361W        W79522  36.884  33.307   3.285
14362W        W79523   8.872  34.555   0.752
14363W        W79524  39.855  24.605   4.051
14364W        W79525  24.237  40.829  13.105
14365W        W79526  41.808  20.730   0.676
14366W        W79527  17.827  21.209   2.758
14367W        W79528  25.009   5.485   3.681
14368W        W79529  26.430  22.957   5.418
14369W        W79530  16.169   4.846  12.818
14370W        W79531  26.613  16.509  10.628
14371W        W79532  26.495   7.267  11.161
14372W        W79533  40.769  26.597  13.359
14373W        W79534  26.186  41.867   2.108
14374W        W79535  29.399  13.231  10.264
14375W        W79536  43.700  12.747  11.220
14376W        W79537  21.949  38.862   3.786
14377W        W79538  30.042  17.902  12.092
14378W        W79539  31.705  37.383   1.557
14379W        W79540  13.194  39.651   2.325
14380W        W79541   7.928  11.801  14.260
14381W        W79542  23.509  36.586  11.628
14382W        W79543  20.224  30.095  13.940
14383W        W79544  40.079  31.859   1.129
14384W        W79545  24.575  25.978  10.494
14385W        W79546   4.439   7.883  14.471
14386W        W79547  16.783   5.214  13.442
14387W        W79548  25.927  36.423   0.020
14388W        W79549  42.795  28.476  13.866
14389W        W79550   3.334  38.929  13.158
14390W        W79551  44.040  18.174  12.500
14391W        W79552  28.640  26.068   2.248
14392W        W79553  28.624   8.239   2.810
14393W        W79554   9.645  18.630  12.999
14394W        W79555  29.629   6.115  14.338
14395W        W79556  44.676   3.385   3.564
14396W        W79557  35.425  26.295   3.831
14397W        W79558  28.237  16.096   2.257
14398W        W79559   5.439  40.826  12.034
14399W        W79560  38.146  12.216  14.872
14400W        W79561  21.976   2.717  11.161
14401W        W79562  40.260  18.091  12.290
14402W        W79563  22.047  31.639   4.162
14403W        W79564  14.108   4.241  10.589
14404W        W79565  43.777  42.357  14.411
14405W        W79566  13.717  20.683   2.453
14406W        W79567   6.279   4.586   2.726
14407W        W79568  22.692   0.790   4.513
14408W        W79569  42.618  33.402  12.512
14409W        W79570   4.347   5.823   4.051
14410W        W79571   7.325  11.751  11.499
14411W        W79572   4.882  34.420  12.984
14412W        W79573  43.754  15.536  11.484
14413W        W79574  41.274  34.973   4.833
14414W        W79575  41.329  27.673   0.274
14415W        W79576  21.252  18.165  12.630
14416W        W79577  16.551   6.949   4.190
14417W        W79578  15.532  40.577  12.001
14418W        W79579  40.732  42.318  11.629
14419W        W79580  18.620  37.065   1.731
14420W        W79581  44.691  26.948  14.398
14421W        W79582  39.569   0.331   4.531
14422W        W79583  36.293  23.636   0.355
14423W        W79584   9.191  31.443   4.109
14424W        W79585   1.493  31.657  14.595
14425W        W79586   8.687  16.038   3.389
14426W        W79587  20.146  22.728  13.683
14427W        W79588  32.427  39.715  14.285
14428W        W79589   6.472  32.098   4.184
14429W        W79590  10.390  27.543   1.301
14430W        W79591  20.125  40.958   3.174
14431W        W79592  12.645  28.389  13.541
14432W        W79593  43.478   6.501  12.919
14433W        W79594  17.301   2.844  13.546
14434W        W79595  38.477  24.021   3.412
14435W        W79596  32.336  14.555   9.862
14436W        W79597  18.745  14.295  11.650
14437W        W79598  30.703  12.885  11.043
14438W        W79599  20.069   7.820  10.664
14439W        W79600   2.279  31.068   1.787
14440W        W79601  18.871  43.625   2.711
14441W        W79602  44.880  16.064   4.123
14442W        W79603  30.896  28.161   4.252
14443W        W79604   5.770  24.165  14.752
14444W        W79605  20.857  40.438  13.407
14445W        W79606  42.820   6.822  14.322
14446W        W79607  16.536  30.912  13.536
14447W        W79608   4.901  30.130  11.127
14448W        W79609   9.295  41.338   4.436
14449W        W79610  10.184   9.905   4.135
14450W        W79611  32.887  12.129   1.302
14451W        W79612  41.994  38.314  12.083
14452W        W79613  29.063  26.395   3.604
14453W        W79614  36.527  26.035   3.176
14454W        W79615   7.783  25.082  14.199
14455W        W79616  10.661  22.483  12.050
14456W        W79617  31.047  42.003  12.559
14457W        W79618  13.164  29.513  13.005
14458W        W79619  35.133  30.858   1.733
14459W        W79620  35.296  17.670   1.700
14460W        W79621  26.076  11.441  11.547
14461W        W79622  42.215  18.078  12.132
14462W        W79623   8.093   8.068   3.463
14463W        W79624   9.804  34.971   3.035
14464W        W79625   0.286  44.569   2.300
14465W        W79626  25.038  33.629  11.485
14466W        W79627  17.838  32.021   0.758
14467W        W79628  44.450   7.982   3.598
14468W        W79629  30.325  20.161  14.293
14469W        W79630  28.965   1.526   3.245
14470W        W79631  21.621  21.929  12.511
14471W        W79632  38.343  25.016   4.853
14472W        W79633   8.755  42.807  11.872
14473W        W79634  43.536  40.437   3.770
14474W        W79635   9.634  40.734  11.940
14475W        W79636  15.581  41.612   4.155
14476W        W79637  11.157  10.552  13.023
14477W        W79638  27.891  35.500   4.605
14478W        W79639  20.223  12.403   4.228
14479W        W79640   4.125  30.435   3.708
14480W        W79641   6.177   3.789  14.610
14481W        W79642  37.375   9.459   4.157
14482W        W79643  43.352   2.309   4.562
14483W        W79644  11.331  30.762   0.890
14484W        W79645  32.315  14.222  11.905
14485W        W79646  14.651   8.542   2.546
14486W        W79647  20.307   7.459   2.464
14487W        W79648  17.797  26.321   2.044
14488W        W79649  10.376  22.304   5.096
14489W        W79650   0.463  18.051   2.292
14490W        W79651  30.449  20.468   3.597
14491W        W79652  38.876   8.686  13.859
14492W        W79653  24.349  27.521   2.690
14493W        W79654  35.360  19.578   0.733
14494W        W79655  13.496  13.433   2.240
14495W        W79656  23.457   6.198  13.822
14496W        W79657  43.472  13.527   5.331
14497W        W79658  13.023  22.081   3.212
14498W        W79659   5.649  38.128  12.492
14499W        W79660  37.757  10.272   3.360
14500W        W79661  23.991  15.007  10.057
14501W        W79662  17.690  44.216  10.157
14502W        W79663   7.282  43.202   4.555
14503W        W79664   4.921  40.892  11.927
14504W        W79665  35.488  17.527   4.325
14505W        W79666  37.880  21.596  12.853
14506W        W79667  18.689   8.694  14.236
14507W        W79668   0.301  24.511   0.362
14508W        W79669  12.778   0.152   3.303
14509W        W79670  25.162   4.736   0.275
14510W        W79671  18.524  44.542   0.198
14511W        W79672   7.898  24.074  11.742
14512W        W79673  33.905  19.621  12.050
14513W        W79674  14.178   6.307  14.424
14514W        W79675  32.921  20.619  13.074
14515W        W79676   3.247   3.344  13.803
14516W        W79677  30.535  27.482  12.427
14517W        W79678   7.704   8.458   3.565
14518W        W79679  38.245   8.445   2.913
14519W        W79680   5.656  37.094   1.362
14520W        W79681  19.953  25.040  11.019
14521W        W79682   4.639  33.332  11.479
14522W        W79683  31.187  44.504  11.114
14523W        W79684  32.958  40.421   1.603
14524W        W79685  31.663  24.244  14.124
14525W        W79686  41.432  30.358   0.885
14526W        W79687  26.426   0.277   1.705
14527W        W79688  15.946  14.394   1.816
14528W        W79689  12.085  28.008   2.147
14529W        W79690  24.613   2.198   0.937
14530W        W79691  43.972  28.936  13.898
14531W        W79692  12.137  31.843   0.801
14532W        W79693  19.051  21.260   0.708
14533W        W79694  21.037  14.006  10.759
14534W        W79695  42.259  32.866   1.015
14535W        W79696  44.583  19.242   0.484
14536W        W79697  36.619  25.436  14.933
14537W        W79698  16.210  43.081  10.751
14538W        W79699  40.353  22.238   1.829
14539W        W79700  44.955   9.617   3.457
14540W        W79701  26.284  30.420  13.653
14541W        W79702  23.807   8.897  11.169
14542W        W79703   5.045   6.929   1.287
14543W        W79704  33.674  22.126   1.517
14544W        W79705  31.500  37.727  11.228
14545W        W79706  11.138  31.645  12.565
14546W        W79707  31.940   9.166  10.985
14547W        W79708  37.436  28.473  14.113
14548W        W79709  34.102  25.710   3.168
14549W        W79710  27.723   1.881  13.342
14550W        W79711  38.451  11.433  12.767
14551W        W79712  30.979  15.618   2.169
14552W        W79713  20.260  12.907  11.576
14553W        W79714   6.449   6.800   2.742
14554W        W79715  27.142  26.414  11.671
14555W        W79716  24.678  32.042  10.728
14556W        W79717  11.377   7.632  14.707
14557W        W79718  15.519  27.949  12.088
14558W        W79719  11.637  23.349  11.610
14559W        W79720  35.193  29.002   0.250
14560W        W79721  28.413  29.935  10.378
14561W        W79722  35.560  18.238   0.966
14562W        W79723  30.462   8.143   2.876
14563W        W79724   5.031  44.362   0.740
14564W        W79725   7.406  12.321   3.663
14565W        W79726  41.403  25.987  13.930
14566W        W79727   5.811   0.236   3.258
14567W        W79728  32.466   6.422   3.575
14568W        W79729  36.865   9.109   1.435
14569W        W79730  42.397  10.918  12.569
14570W        W79731  10.644  21.979   2.154
14571W        W79732  21.967  42.328   0.989
14572W        W79733   0.501  28.017  11.579
14573W        W79734   3.430  40.965   0.864
14574W        W79735  28.465   7.803   4.403
14575W        W79736  35.928  44.931  13.878
14576W        W79737  23.110   0.976   2.265
14577W        W79738   7.407  36.534  12.602
14578W        W79739  17.956  39.907  13.322
14579W        W79740  19.248   6.148  14.545
14580W        W79741  37.861  35.295   3.130
14581W        W79742  21.681   0.740  14.471
14582W        W79743  44.033  19.847  12.079
14583W        W79744  44.540   7.345  10.089
14584W        W79745  30.675  41.390   1.665
14585W        W79746  24.131  31.667   2.252
14586W        W79747   4.787  37.095   1.348
14587W        W79748  27.545  38.529   0.523
14588W        W79749  26.409  18.303  10.316
14589W        W79750  17.305   3.158   2.650
14590W        W79751   6.872  38.461   2.394
14591W        W79752  25.663  40.811  10.229
14592W        W79753  31.865  33.350   4.518
14593W        W79754  29.476  35.147   3.271
14594W        W79755   9.996   7.193  11.801
14595W        W79756  36.871  43.664   1.441
14596W        W79757  22.659  30.059   2.311
14597W        W79758  34.668  11.569   2.937
14598W        W79759  32.599   2.231  10.581
14599W        W79760  36.563  33.163   2.223
14600W        W79761  42.819  32.064  11.151
14601W        W79762  24.731  12.656   2.708
14602W        W79763  18.125   4.465   1.356
14603W        W79764  43.997  13.620  12.468
14604W        W79765  34.644  12.196  13.086
14605W        W79766  24.687   8.673  11.948
14606W        W79767  32.921   4.415  13.361
14607W        W79768  23.476  28.621   4.797
14608W        W79769  34.458  31.025   0.882
14609W        W79770  12.068  14.699   4.086
14610W        W79771  33.149  23.683   9.712
14611W        W79772  31.696  22.073  13.505
14612W        W79773  15.665  38.797  11.459
14613W        W79774   2.028  24.457   1.758
14614W        W79775  28.200   3.254   4.071
14615W        W79776  37.369   6.096   0.931
14616W        W79777  29.525   9.356   3.302
14617W        W79778   2.419  37.015  13.929
14618W        W79779  30.615  21.672  12.037
14619W        W79780  24.114  37.995   1.906
14620W        W79781  14.201  44.006   1.351
14621W        W79782  16.729   4.315   3.216
14622W        W79783  21.928  22.048   0.399
14623W        W79784  15.998  31.513   3.241
14624W        W79785  30.158  12.605   2.490
14625W        W79786   0.209   4.039  11.972
14626W        W79787  20.814  30.203   2.878
14627W        W79788  19.287  26.609   0.362
14628W        W79789  15.751  40.475  13.787
14629W        W79790  15.377  25.552   4.528
14630W        W79791   6.481  15.807  13.418
14631W        W79792  13.284   1.709  14.492
14632W        W79793  30.644  44.535  11.119
14633W        W79794  34.057   7.332  10.753
14634W        W79795  15.023  37.840   1.698
14635W        W79796  23.600  20.971  13.344
14636W        W79797   0.009  18.165  12.712
14637W        W79798   2.833   4.324  14.517
14638W        W79799  33.280  11.157   1.361
14639W        W79800   8.790  18.285  13.111
14640W        W79801  39.997  20.699  14.545
14641W        W79802  15.555   0.701   1.477
14642W        W79803   5.266  31.115   5.543
14643W        W79804  43.744  23.406  11.175
14644W        W79805  16.561   6.700   0.122
14645W        W79806  12.230  41.227   5.144
14646W        W79807  36.444  32.180  14.464
14647W        W79808   8.590  37.962  13.498
14648W        W79809  29.016  13.794  13.118
14649W        W79810  35.747  33.020   3.215
14650W        W79811  16.663  41.901   2.801
14651W        W79812  40.080  42.819  12.649
14652W        W79813  40.718  29.608   0.767
14653W        W79814   6.750   6.598  12.395
14654W        W79815  17.234  38.962   2.325
14655W        W79816  27.397  32.735   0.947
14656W        W79817  37.886  38.714   4.727
14657W        W79818  39.381  10.799   3.639
14658W        W79819  14.079  28.447  10.735
14659W        W79820  19.409  12.667  10.388
14660W        W79821  31.673  23.091   1.697
14661W        W79822  18.647  27.355  14.337
14662W        W79823   7.813   2.900   1.202
14663W        W79824  40.429  18.804  11.195
14664W        W79825   7.196   5.434  13.520
14665W        W79826  21.691  12.675  10.558
14666W        W79827   1.371  11.614   0.329
14667W        W79828  44.384   3.015   4.273
14668W        W79829  11.870  12.819  11.390
14669W        W79830  28.146  19.958  14.903
14670W        W79831  27.658  24.162   2.349
14671W        W79832  43.347   4.707  12.610
14672W        W79833   7.404  42.582  11.774
14673W        W79834  17.318  37.053  12.394
14674W        W79835  42.082  18.385  13.859
14675W        W79836   7.141  33.516  14.017
14676W        W79837   5.316  23.737  10.597
14677W        W79838   0.723  24.107   2.426
14678W        W79839  23.832   9.112  13.324
14679W        W79840  26.020  12.201  12.649
14680W        W79841  15.472  14.722  14.379
14681W        W79842  41.024  39.087  12.971
14682W        W79843  17.688  33.635   0.401
14683W        W79844  10.238  23.007  14.381
14684W        W79845  32.331  24.051  11.950
14685W        W79846  11.842  10.057   1.684
14686W        W79847  40.972  10.496   2.461
14687W        W79848  33.701  22.445   4.362
14688W        W79849  25.053  12.429   2.337
14689W        W79850  20.030  28.093   3.290
14690W        W79851   2.541   1.752  11.660
14691W        W79852   6.220  41.401   3.664
14692W        W79853  20.579  20.124   3.549
14693W        W79854  27.573   6.674  12.396
14694W        W79855   1.026  28.004  11.585
14695W        W79856  36.814   6.423  10.709
14696W        W79857   4.031  40.886   2.833
14697W        W79858  41.563  21.179   2.407
14698W        W79859  18.735  15.164  10.617
14699W        W79860   7.147   2.757   3.297
14700W        W79861  16.376  18.022   1.609
14701W        W79862  31.046  27.716   4.488
14702W        W79863  36.429  40.024   4.294
14703W        W79864   0.884  30.083   4.859
14704W        W79865  31.299  39.809   2.624
14705W        W79866  22.175  20.754  13.100
14706W        W79867   2.192   5.715   1.762
14707W        W79868  18.215  37.681  14.441
14708W        W79869  10.497  37.538   3.692
14709W        W79870  14.090  34.947  14.712
14710W        W79871  28.084   4.453   4.590
14711W        W79872  35.110  30.067   4.181
14712W        W79873   3.464  27.177   2.533
14713W        W79874   0.883  12.519  14.921
14714W        W79875  35.541  18.593   0.560
14715W        W79876  13.263  28.436  12.023
14716W        W79877  24.804  41.596   3.790
14717W        W79878  15.543  21.730  14.089
14718W        W79879  17.004  14.795   3.210
14719W        W79880  30.986  17.196  10.566
14720W        W79881   4.225  39.994   1.333
14721W        W79882  23.979  28.520   1.815
14722W        W79883  22.227   3.810  13.985
14723W        W79884  27.956  33.528  11.974
14724W        W79885  30.584  44.027   2.127
14725W        W79886  26.720  28.068  14.291
14726W        W79887  21.523  26.599   0.063
14727W        W79888   1.917  25.445   0.383
14728W        W79889  10.608   2.155   3.187
14729W        W79890  13.195   1.999  13.044
14730W        W79891  13.944  38.006  12.539
14731W        W79892  19.230  37.400   4.352
14732W        W79893  34.337   4.420   4.759
14733W        W79894  26.695  37.216  11.459
14734W        W79895  35.616  34.056   0.810
14735W        W79896  28.992  32.395   4.535
14736W        W79897  35.348  21.096   2.679
14737W        W79898  43.401  41.803  13.969
14738W        W79899   9.600   4.435   3.662
14739W        W79900  15.716  34.851   2.163
14740W        W79901  37.526  29.426   1.303
14741W        W79902  30.055  27.356   1.284
14742W        W79903  26.499  26.816   1.731
14743W        W79904  26.100  42.928   0.776
14744W        W79905  22.958   5.919   4.107
14745W        W79906  31.637  23.746   0.416
14746W        W79907  24.549   7.178  13.962
14747W        W79908  16.857  39.295  13.091
14748W        W79909  15.795  21.068   2.673
14749W        W79910  12.349  21.159   0.008
14750W        W79911   2.759  32.955  11.057
14751W        W79912  42.383  42.862   3.929
14752W        W79913  39.827  30.436  12.963
14753W        W79914  21.015  30.367   1.186
14754W        W79915   2.841  17.796  10.410
14755W        W79916  44.603   0.344  13.748
14756W        W79917  10.756  28.517   4.082
14757W        W79918   4.931  25.226  12.742
14758W        W79919  27.062  27.173  14.645
14759W        W79920  37.844   8.497  13.551
14760W        W79921  34.654  36.054  10.624
14761W        W79922  27.721  31.035  12.688
14762W        W79923  19.732  42.278   0.806
14763W        W79924  33.842  24.107   2.929
14764W        W79925   1.499   0.891  14.744
14765W        W79926   8.360  12.790   1.856
14766W        W79927   5.313  30.972   1.452
14767W        W79928   9.206   9.504  14.919
14768W        W79929  33.176  37.069  14.158
14769W        W79930  20.696   6.464  14.966
14770W        W79931  16.814  32.375   1.436
14771W        W79932  28.724  20.057  13.609
14772W        W79933  40.006  31.119  12.410
14773W        W79934  34.486  23.490   2.421
14774W        W79935  36.554  40.402  11.438
14775W        W79936   2.326  35.436   2.118
14776W        W79937  13.288   3.997  11.240
14777W        W79938   2.844   3.185   2.895
14778W        W79939  36.313  36.440  12.988
14779W        W79940  34.961  37.026   4.154
14780W        W79941   1.712  14.735   3.167
14781W        W79942  30.551   2.268   3.232
14782W        W79943  32.164  22.633  13.111
14783W        W79944   5.513  28.064  12.447
14784W        W79945  20.155  40.575   3.542
14785W        W79946  22.361  28.709  10.621
14786W        W79947  26.116  31.538   0.916
14787W        W79948   2.999   2.235   0.455
14788W        W79949   0.953  41.353   3.135
14789W        W79950  19.121  37.318  11.251
14790W        W79951  15.200  40.908  14.881
14791W        W79952   5.249  43.332  10.688
14792W        W79953  34.593  10.847   2.131
14793W        W79954  41.502   9.177  12.087
14794W        W79955  33.986  17.825  14.832
14795W        W79956  15.693  42.894   0.918
14796W        W79957  16.365  40.860   2.199
14797W        W79958  18.360  28.470  13.532
14798W        W79959   7.839   8.654  11.049
14799W        W79960  16.529  16.100  13.706
14800W        W79961  23.576  29.123   0.998
14801W        W79962  27.919  29.085  14.754
14802W        W79963  27.888  12.287   2.164
14803W        W79964   2.890  39.105  10.490
14804W        W79965   0.857  29.136  13.321
14805W        W79966  43.923  38.497   0.923
14806W        W79967   0.408  10.247   3.216
14807W        W79968  18.031   6.675  13.513
14808W        W79969  41.959  36.332   5.030
14809W        W79970  44.418  24.005   3.642
14810W        W79971   0.440  40.985  13.243
14811W        W79972   5.638  25.468   1.174
14812W        W79973   2.433  30.657   2.753
14813W        W79974  33.415  44.825  14.048
14814W        W79975   5.318   7.390  11.591
14815W        W79976  41.452  36.013  13.709
14816W        W79977  10.724  23.272   0.336
14817W        W79978  39.369  24.447   2.927
14818W        W79979  37.283  24.739   0.412
14819W        W79980  38.578  29.679  11.219
14820W        W79981  23.648  44.688  11.078
14821W        W79982  33.352  33.782  11.453
14822W        W79983  21.371  20.042  13.593
14823W        W79984  37.587  33.103  10.460
14824W        W79985  31.539   7.832  12.192
14825W        W79986   8.121  43.648   2.535
14826W        W79987  12.693   0.372  14.518
14827W        W79988   1.264  32.031  13.834
14828W        W79989   5.849  38.867  13.111
14829W        W79990  21.687  20.557  12.936
14830W        W79991  15.266  22.044   4.510
14831W        W79992  32.591  11.761   4.138
14832W        W79993   7.955  37.967  14.872
14833W        W79994  21.182  15.548   0.536
14834W        W79995  37.990  15.367  14.798
14835W        W79996  29.959   0.551   1.816
14836W        W79997   3.506  10.060  13.526
14837W        W79998  14.710   6.912  14.970
14838W        W79999  13.847   7.473   3.837
14839W        W80000   9.221  35.847   2.203
14840W        W80001  41.473   9.197   0.778
14841W        W80002  11.186   4.875   0.564
14842W        W80003  18.040  10.278   3.613
14843W        W80004  38.369  25.699   0.303
14844W        W80005  32.707   2.903   2.728
14845W        W80006  43.606  16.813   4.779
14846W        W80007  22.099  18.193   0.817
14847W        W80008   7.920   6.590  12.026
14848W        W80009  44.432  43.844  11.856
14849W        W80010  29.642  32.032  12.660
14850W        W80011  21.748   1.713  11.134
14851W        W80012  36.251  16.541  11.153
14852W        W80013   2.245  24.325  11.405
14853W        W80014  25.997  32.094   2.158
14854W        W80015  30.574  11.191  14.423
14855W        W80016  24.815  32.379   1.816
14856W        W80017  18.245  21.708   1.307
14857W        W80018  19.561  40.988   1.387
14858W        W80019  16.967  11.847   3.835
14859W        W80020  43.940  36.663  13.952
14860W        W80021   9.424  38.857   3.666
14861W        W80022  23.983  41.004   2.548
14862W        W80023  30.881  27.257   2.794
14863W        W80024   7.903  42.871  10.734
14864W        W80025  32.219   9.395   2.986
14865W        W80026  30.877  42.814  12.833
14866W        W80027   6.980  21.125   2.722
14867W        W80028  27.605  25.773  13.495
14868W        W80029  10.314  29.937  11.999
14869W        W80030  35.969  43.488  14.779
14870W        W80031  24.638  23.217  14.412
14871W        W80032  22.624  21.316  12.381
14872W        W80033  43.273  38.844  13.899
14873W        W80034  29.000  20.688  12.435
14874W        W80035  24.708  16.118  14.723
14875W        W80036  41.230  16.185   1.932
14876W        W80037  25.263  43.290   3.908
14877W        W80038  11.399  30.418  13.503
14878W        W80039   7.578  27.008  12.956
14879W        W80040  26.161  20.213   4.772
14880W        W80041   8.759  17.491  11.179
14881W        W80042  19.257   1.256  10.752
14882W        W80043  36.372   7.769  11.772
14883W        W80044  24.513  14.827   4.255
14884W        W80045  23.981  41.046  13.506
14885W        W80046  33.022  18.763   1.276
14886W        W80047  10.525  44.566   4.853
14887W        W80048  39.910  18.023  12.638
14888W        W80049  26.956  19.000   0.233
14889W        W80050  36.909  34.326   3.015
14890W        W80051  19.288  12.867   3.647
14891W        W80052  13.153  23.181  14.829
14892W        W80053   1.931  12.264   0.665
14893W        W80054  21.100  10.674   1.814
14894W        W80055  12.645  35.948  10.893
14895W        W80056  10.699   6.520   1.465
14896W        W80057  31.117  36.944   2.792
14897W        W80058  20.526  29.369  12.506
14898W        W80059   9.617   3.795  13.040
14899W        W80060   3.303  42.458   3.540
14900W        W80061  32.152   0.868   1.587
14901W        W80062  24.165   3.454  13.511
14902W        W80063  23.564  15.814  13.809
14903W        W80064  43.250   7.387  13.014
14904W        W80065  42.709  12.213  14.458
14905W        W80066  16.556  29.528  13.440
14906W        W80067  33.526   5.941   0.025
14907W        W80068  41.988  30.878   3.717
14908W        W80069  31.188   0.659   1.813
14909W        W80070  43.062  11.359   0.525
14910W        W80071  23.320   4.499  11.116
14911W        W80072  42.271  24.902  13.620
14912W        W80073  40.896  30.216  12.790
14913W        W80074  27.442   0.545   1.794
14914W        W80075   7.247  38.805  12.549
14915W        W80076  23.949  35.107   2.000
14916W        W80077   1.405  11.117   2.629
14917W        W80078  10.309   0.181  14.423
14918W        W80079   7.812   4.230  11.980
14919W        W80080  24.107   9.179   2.621
14920W        W80081  14.783  11.327   1.877
14921W        W80082  22.916  16.785  13.313
14922W        W80083  22.589  20.008  12.554
14923W        W80084  14.788  35.086   1.773
14924W        W80085  15.849  38.395  10.240
14925W        W80086  40.925  37.603  14.818
14926W        W80087  42.257  42.506  13.143
14927W        W80088  37.674  14.431  12.468
14928W        W80089  28.159  32.610   4.947
14929W        W80090  42.297  20.288  14.245
14930W        W80091  33.553  37.729   5.443
14931W        W80092  34.399  19.377  10.939
14932W        W80093  41.505   8.863   1.234
14933W        W80094  13.124   3.936  13.092
14934W        W80095  34.356  25.007  14.078
14935W        W80096  42.381  44.451  11.619
14936W        W80097  22.674   4.227  10.523
14937W        W80098  30.916  11.121   3.257
14938W        W80099  28.737   2.291   0.952
14939W        W80100   4.839  14.878  12.474
14940W        W80101   4.379  27.229   0.800
14941W        W80102  41.840  17.337  13.901
14942W        W80103  41.591   7.120   1.738
14943W        W80104  32.327  11.816  13.008
14944W        W80105  29.910  21.214  13.292
14945W        W80106  27.537  33.464  10.299
14946W        W80107  20.091  29.094  12.328
14947W        W80108  21.267   8.279   1.189
14948W        W80109  19.833   0.008  13.452
14949W        W80110  12.376  12.864  11.501
14950W        W80111  31.154  36.384   0.161
14951W        W80112  29.551  14.689   0.259
14952W        W80113  28.171   2.291   1.854
14953W        W80114  23.475  14.354   2.658
14954W        W80115  18.663  17.971   1.484
14955W        W80116  25.032  36.337   4.562
14956W        W80117  11.113  15.710   0.300
14957W        W80118  36.375  44.384   4.438
14958W        W80119  28.531  30.401  14.392
14959W        W80120  29.107   6.724  12.173
14960W        W80121   8.291  25.628   3.082
14961W        W80122  32.950  17.499  11.034
14962W        W80123  42.640   5.309   1.997
14963W        W80124  25.744  32.298   4.554
14964W        W80125  42.007  16.131   0.456
14965W        W80126  40.339   9.486   4.545
14966W        W80127  31.471   8.865  11.551
14967W        W80128  35.346  26.667  11.603
14968W        W80129  15.084  17.176  13.441
14969W        W80130  12.175  14.213  13.495
14970W        W80131   5.439   9.252   1.855
14971W        W80132  21.005  35.459  11.587
14972W        W80133  20.914  34.072   1.119
14973W        W80134   5.858   4.560   1.128
14974W        W80135  10.132  22.522  12.133
14975W        W80136  20.764  32.728  14.526
14976W        W80137  17.146  28.087   2.124
14977W        W80138   7.687  30.024  13.059
14978W        W80139  24.777  26.172  12.026
14979W        W80140  43.113  12.701   4.059
14980W        W80141  14.755  28.407  12.319
14981W        W80142   8.930  26.449  13.019
14982W        W80143   6.700  34.527   3.181
14983W        W80144   1.657  43.517  13.335
14984W        W80145  25.451   3.999  14.845
14985W        W80146  25.438  26.283  12.033
14986W        W80147  44.500   2.910   1.666
14987W        W80148   0.905  44.298   3.067
14988W        W80149  24.185  28.947  10.188
14989W        W80150  43.779  12.035   1.750
14990W        W80151  16.546   4.531   3.645
14991W        W80152  33.124  43.797  14.034
14992W        W80153  38.440  25.977  14.858
14993W        W80154  26.478  19.354  12.042
14994W        W80155  22.301   0.191  11.175
14995W        W80156  23.780   2.752   0.324
14996W        W80157  14.838   5.654   1.426
14997W        W80158  31.088  39.502   3.292
14998W        W80159  16.548  19.090  11.713
14999W        W80160  12.112  26.591   1.721
15000W        W80161  43.798   5.132  14.379
15001W        W80162  36.049  17.232  12.859
15002W        W80163  16.303  29.091   3.225
15003W        W80164   7.997  22.176   2.113
15004W        W80165  21.179  15.364   4.648
15005W        W80166   9.708   2.970   3.716
15006W        W80167  24.185  15.228  14.923
15007W        W80168  23.485  20.278  12.564
15008W        W80169  39.649  15.114   3.341
15009W        W80170  14.119  43.920  13.293
15010W        W80171  14.221  43.071   4.269
15011W        W80172   8.361  11.118  14.834
15012W        W80173  39.324  41.118  11.549
15013W        W80174  18.088  30.880  11.204
15014W        W80175  34.630  16.357   3.636
15015W        W80176  29.465  27.167   4.779
15016W        W80177   4.209  32.569   2.095
15017W        W80178  27.890  43.110  12.990
15018W        W80179  23.640  38.095   1.317
15019W        W80180   7.516  32.550   2.680
15020W        W80181  12.091  19.770   4.283
15021W        W80182  41.419  12.718   3.418
15022W        W80183  35.136  38.165  10.750
15023W        W80184  32.495  19.848  12.906
15024W        W80185  10.584  33.045  14.773
15025W        W80186  38.000  16.829  13.476
15026W        W80187  18.092   7.377  13.905
15027W        W80188  21.164  31.833  10.377
15028W        W80189  20.596  44.869  12.147
15029W        W80190   0.718  17.553  11.642
15030W        W80191  14.048  41.477  13.389
15031W        W80192   5.683  31.622   2.285
15032W        W80193  37.068   9.662  11.637
15033W        W80194   2.841  44.504   2.649
15034W        W80195  15.142  12.845   3.302
15035W        W80196  41.265  16.698  11.717
15036W        W80197  43.066  23.666  10.203
15037W        W80198  40.106  15.785   9.980
15038W        W80199  28.964   5.250   0.813
15039W        W80200  12.695   4.888   4.105
15040W        W80201  33.123   5.019   3.772
15041W        W80202   8.407  15.588  14.439
15042W        W80203   8.774  23.952   4.200
15043W        W80204  40.209  38.691  11.603
15044W        W80205  29.199  14.412   4.185
15045W        W80206  41.320  26.517   4.419
15046W        W80207   9.845   0.485   1.814
15047W        W80208  25.275  37.681  12.739
15048W        W80209  15.304  28.557   0.484
15049W        W80210  23.717  18.703   3.640
15050W        W80211  15.454  30.671   0.301
15051W        W80212   5.579  25.280  14.826
15052W        W80213  15.685  18.010   3.151
15053W        W80214  23.544  38.861  14.970
15054W        W80215  44.182  35.514   0.787
15055W        W80216  31.152  24.132   2.813
15056W        W80217  36.076  30.986   4.228
15057W        W80218   5.391  11.287   1.942
15058W        W80219  16.670  40.657   4.143
15059W        W80220   8.103   4.244   1.500
15060W        W80221  32.319  44.843   1.768
15061W        W80222  44.962  42.071  11.106
15062W        W80223   5.797  42.597  11.699
15063W        W80224  30.573  13.317   0.384
15064W        W80225   2.784   1.240   4.621
15065W        W80226  37.945   4.079  14.803
15066W        W80227  20.596  21.590   1.432
15067W        W80228   7.792  10.912  11.026
15068W        W80229   4.792  13.278   1.067
15069W        W80230  22.986  38.382   3.348
15070W        W80231  26.960  35.835  11.156
15071W        W80232  37.595   7.761  11.985
15072W        W80233  11.620  10.361  13.153
15073W        W80234   2.889  14.164  13.452
15074W        W80235  35.982  32.006  12.467
15075W        W80236  12.217  34.676  13.422
15076W        W80237  37.774  20.801   0.850
15077W        W80238  20.547  21.385  11.125
15078W        W80239  30.887  13.180   3.885
15079W        W80240  33.906  35.539  14.031
15080W        W80241  14.656   7.767  10.454
15081W        W80242  28.631   9.670  11.458
15082W        W80243  14.467  17.571  13.748
15083W        W80244  44.528   4.530  11.557
15084W        W80245  43.755  17.062  13.956
15085W        W80246   3.429  43.991  10.538
15086W        W80247  35.029  23.290   2.285
15087W        W80248   7.849  14.126   1.280
15088W        W80249  20.751  15.385   3.687
15089W        W80250   9.650  28.235  13.224
15090W        W80251  32.431  33.112   3.645
15091W        W80252  23.100  19.554  10.570
15092W        W80253  29.492  30.033   3.760
15093W        W80254  28.962  31.678  11.098
15094W        W80255   7.777  29.145   0.519
15095W        W80256  35.050  41.548   4.592
15096W        W80257  19.628  28.259  11.607
15097W        W80258  24.556   3.753   0.976
15098W        W80259  12.680  39.516  13.365
15099W        W80260  22.275   4.910   3.674
15100W        W80261  35.842  30.060  11.594
15101W        W80262  18.948  13.793   0.202
15102W        W80263  28.702  40.860   1.718
15103W        W80264   5.661  26.685  14.815
15104W        W80265  33.886   7.329  12.503
15105W        W80266  40.155  27.104  11.577
15106W        W80267  42.794  11.341   2.900
15107W        W80268  24.455   9.850   0.978
15108W        W80269  43.899  34.018  12.115
15109W        W80270  16.718  10.756   4.695
15110W        W80271  17.545  25.199   2.719
15111W        W80272   0.718  36.399   1.650
15112W        W80273  24.992  26.934   4.902
15113W        W80274  32.871  15.211   4.716
15114W        W80275  22.300  30.684   0.638
15115W        W80276  44.802  28.517  12.239
15116W        W80277  13.843   8.974   3.590
15117W        W80278  17.081   3.013  14.977
15118W        W80279  26.893  30.747  14.811
15119W        W80280  12.368   4.703  11.508
15120W        W80281  35.391  18.271  10.555
15121W        W80282  42.459  42.401  13.614
15122W        W80283  32.423   5.107   4.413
15123W        W80284  32.999   4.217  11.416
15124W        W80285  14.558  25.028   1.387
15125W        W80286  22.188  22.327   0.759
15126W        W80287  30.500   6.177  11.966
15127W        W80288  44.217  21.216  10.719
15128W        W80289  39.936   4.395  14.530
15129W        W80290  17.570  21.480  13.598
15130W        W80291  11.619  25.291   9.914
15131W        W80292  24.438  26.480  10.355
15132W        W80293  44.810  18.764  10.765
15133W        W80294  14.386   1.078   2.276
15134W        W80295  41.572   7.484   3.350
15135W        W80296   9.747  19.370   2.329
15136W        W80297  34.488  30.783   0.416
15137W        W80298  40.410  39.964   0.511
15138W        W80299   9.628  33.562   4.416
15139W        W80300   5.907   4.465  13.532
15140W        W80301  32.582  11.150   0.203
15141W        W80302  24.903  21.905   1.410
15142W        W80303  20.139  38.160  10.438
15143W        W80304   2.392  13.724   3.071
15144W        W80305   9.066  25.620  12.136
15145W        W80306  38.143  38.157   1.665
15146W        W80307   0.579   8.817  10.697
15147W        W80308  32.436   6.947   3.620
15148W        W80309   7.314  25.270  14.013
15149W        W80310  14.302  29.933   1.428
15150W        W80311  17.981  16.252   1.429
15151W        W80312  43.001  39.498  11.633
15152W        W80313  11.795  43.949   1.887
15153W        W80314  35.139   9.344   1.752
15154W        W80315  38.845  19.869  13.495
15155W        W80316   1.722  29.079   4.498
15156W        W80317  20.960   0.240  12.040
15157W        W80318  37.132  24.562  12.498
15158W        W80319  11.228  19.843   0.377
15159W        W80320  27.537  39.798   4.112
15160W        W80321  44.790  28.948   3.596
15161W        W80322   4.949  38.089   3.728
15162W        W80323   8.760   1.731   3.342
15163W        W80324  12.825  22.532  14.425
15164W        W80325  34.022  30.884  11.601
15165W        W80326   1.174  26.055   2.784
15166W        W80327  44.844  29.454   3.683
15167W        W80328  37.038   8.712  12.556
15168W        W80329  12.744  19.617   2.210
15169W        W80330  34.175  39.855   2.395
15170W        W80331  21.750  43.358  14.822
15171W        W80332  37.197  39.271   3.586
15172W        W80333  29.443  12.097  14.232
15173W        W80334  37.555  19.948  10.450
15174W        W80335  40.535   0.522   2.396
15175W        W80336  30.394  33.964   1.399
15176W        W80337  11.370  20.219   3.950
15177W        W80338  31.344  13.329  14.812
15178W        W80339  15.468  17.881  11.007
15179W        W80340   5.910   1.912   4.219
15180W        W80341  44.515  25.534   2.857
15181W        W80342   9.143  36.935  11.150
15182W        W80343  43.429   9.173   3.690
15183W        W80344  44.775  28.779  14.320
15184W        W80345  41.891  35.966  14.971
15185W        W80346  14.521  23.738  12.192
15186W        W80347  39.868  40.395  12.551
15187W        W80348   6.940   8.937   0.757
15188W        W80349  38.900   4.480   4.197
15189W        W80350  43.846  32.792  11.321
15190W        W80351  38.141  30.387  11.617
15191W        W80352   6.785  32.083   2.769
15192W        W80353  22.532   4.243   4.916
15193W        W80354  13.166  19.210   1.637
15194W        W80355  22.930  22.691  14.015
15195W        W80356  18.210   9.780  12.527
15196W        W80357  43.272  26.697  12.834
15197W        W80358   1.210  30.939  13.882
15198W        W80359  39.561  29.959  11.546
15199W        W80360   8.295  17.266   2.266
15200W        W80361  18.323  43.415   1.727
15201W        W80362  37.398  40.268  12.920
15202W        W80363  23.759   2.378   4.067
15203W        W80364  10.133  18.431   0.161
15204W        W80365  20.675   6.367   3.384
15205W        W80366  13.178  28.023   4.516
15206W        W80367  28.723  26.843   5.214
15207W        W80368   2.499  41.958   4.845
15208W        W80369  26.044  27.101   4.561
15209W        W80370   8.393  36.846  11.672
15210W        W80371  16.236   2.348   0.239
15211W        W80372   7.906   9.795  13.798
15212W        W80373  30.672   3.972   3.598
15213W        W80374  13.636  21.755  13.519
15214W        W80375  14.180  30.088  12.004
15215W        W80376  33.115  14.303  13.312
15216W        W80377   3.683  31.946   1.829
15217W        W80378  41.177   8.846   4.862
15218W        W80379   1.174  31.991   1.697
15219W        W80380  28.588   1.069  13.122
15220W        W80381  22.787  36.886  12.120
15221W        W80382  10.607  36.992  14.895
15222W        W80383  43.387   6.373  10.697
15223W        W80384  26.740  27.959   2.712
15224W        W80385  10.556  41.522  13.462
15225W        W80386   4.382  11.114   2.685
15226W        W80387   6.639  35.571  13.525
15227W        W80388  41.727  18.436   3.891
15228W        W80389  18.348  19.547  14.373
15229W        W80390   4.821  42.618  11.586
15230W        W80391  15.749  30.332  10.742
15231W        W80392  27.534  35.658   2.399
15232W        W80393  44.438  20.430  12.539
15233W        W80394  17.320  32.833   2.669
15234W        W80395  36.883  18.651  12.614
15235W        W80396  28.581  23.249  14.998
15236W        W80397  19.233  17.952   0.331
15237W        W80398  33.629  26.152   1.327
15238W        W80399  10.327  38.756  12.711
15239W        W80400  23.773  31.877  10.767
15240W        W80401   7.632  28.369   3.328
15241W        W80402   3.301  39.882  10.560
15242W        W80403  31.561  25.710   3.201
15243W        W80404  25.040  27.921  11.115
15244W        W80405  43.438  23.917   1.338
15245W        W80406  10.348  26.677   4.370
15246W        W80407  28.647  33.575   2.127
15247W        W80408  30.118  26.443   2.346
15248W        W80409  16.989   5.923  13.925
15249W        W80410   0.760  21.991   0.817
15250W        W80411   8.871  15.249   3.290
15251W        W80412  36.217  35.566  12.050
15252W        W80413  41.351  31.594  11.547
15253W        W80414  25.670  38.043  13.428
15254W        W80415  31.425  36.842  12.909
15255W        W80416  27.087  33.452   0.541
15256W        W80417  40.060   6.242   3.679
15257W        W80418  13.858  14.299  12.908
15258W        W80419   8.837  42.993   4.421
15259W        W80420   8.377  27.674   1.675
15260W        W80421  29.122  44.405  13.416
15261W        W80422  26.754  26.706   0.286
15262W        W80423  22.654  13.445  11.132
15263W        W80424  40.485  43.911   2.327
15264W        W80425   3.239  38.487   0.269
15265W        W80426  14.031   9.340  11.148
15266W        W80427   7.679  29.234   1.421
15267W        W80428  20.079  41.075   1.542
15268W        W80429  37.892  14.175  14.232
15269W        W80430  31.497  21.309  14.798
15270W        W80431  31.552   3.921  11.962
15271W        W80432  30.352  15.185   0.361
15272W        W80433   9.759   3.218  14.856
15273W        W80434  33.039  43.867   0.524
15274W        W80435   5.491  22.482   4.693
15275W        W80436  38.742  22.265  11.134
15276W        W80437  44.919   1.258   2.399
15277W        W80438  20.647   9.791  14.813
15278W        W80439  38.115  38.860  14.310
15279W        W80440  28.763  40.735  11.101
15280W        W80441  15.287   7.923  14.390
15281W        W80442   1.517   8.618  11.510
15282W        W80443  34.399  11.225   3.685
15283W        W80444   4.233  24.117  11.241
15284W        W80445  41.561  44.918  13.758
15285W        W80446   1.366  23.284   3.368
15286W        W80447   1.425  37.010   3.125
15287W        W80448  32.183  13.130  13.208
15288W        W80449  21.639  18.300   2.266
15289W        W80450  29.856   4.689  14.401
15290W        W80451  28.600  38.831  10.312
15291W        W80452   5.374  16.928  14.792
15292W        W80453  14.531  31.607   3.110
15293W        W80454  34.491  31.895   1.477
15294W        W80455   6.991   8.920   4.654
15295W        W80456  31.337  42.723   2.687
15296W        W80457  40.009  27.167   2.150
15297W        W80458   4.317  10.589   4.633
15298W        W80459  39.882  11.849  11.657
15299W        W80460  10.381   6.279   3.679
15300W        W80461  37.555  29.934   1.696
15301W        W80462  43.665  32.091  10.715
15302W        W80463   1.947  36.115   0.436
15303W        W80464  10.177  30.518  10.366
15304W        W80465  30.151   8.296   0.164
15305W        W80466  15.520  33.806  10.690
15306W        W80467  10.340   6.665   4.790
15307W        W80468  25.008   4.358   4.666
15308W        W80469  26.596  15.247   1.227
15309W        W80470  33.176   1.799  13.923
15310W        W80471  34.602  38.948  14.500
15311W        W80472   0.921  33.975  12.060
15312W        W80473  19.294  25.084   0.378
15313W        W80474  29.532  21.135  12.558
15314W        W80475  27.999  32.129   4.691
15315W        W80476  28.175  32.977  14.710
15316W        W80477   3.385  22.430  14.404
15317W        W80478  29.946  14.932   1.732
15318W        W80479  35.480  30.151   2.383
15319W        W80480   2.453  21.926  11.511
15320W        W80481  17.364  16.682  12.617
15321W        W80482  25.668  15.662   3.331
15322W        W80483  23.070  21.863   3.697
15323W        W80484  36.920  22.341   4.887
15324W        W80485  44.290   1.171  11.403
15325W        W80486  13.199  33.198  10.559
15326W        W80487  16.716  35.501  11.816
15327W        W80488  13.714   2.415   0.613
15328W        W80489  39.332  41.924  14.000
15329W        W80490   5.317  36.496  11.909
15330W        W80491  30.626  44.169   3.360
15331W        W80492  23.607  43.952  13.071
15332W        W80493  36.304  37.396   0.408
15333W        W80494  25.645  10.606   0.476
15334W        W80495  11.558  16.406  14.508
15335W        W80496   4.328  44.510   1.774
15336W        W80497  35.372   5.827  12.817
15337W        W80498  25.478  23.449  13.705
15338W        W80499  11.752  26.086   0.828
15339W        W80500  28.887  41.043   1.270
15340W        W80501   1.240  18.098  10.716
15341W        W80502   3.284   0.804   4.142
15342W        W80503  15.765  37.546   2.365
15343W        W80504  29.395  39.332  12.589
15344W        W80505  27.055   0.851   1.457
15345W        W80506  24.880  33.878   1.994
15346W        W80507  27.084  40.262  12.070
15347W        W80508  25.569  33.730  14.118
15348W        W80509  10.310  19.245  13.114
15349W        W80510  13.615  28.258   0.820
15350W        W80511  29.538  25.562  12.863
15351W        W80512  11.111  34.465  11.679
15352W        W80513  27.464  30.876  13.602
15353W        W80514  24.985   7.931  14.118
15354W        W80515  20.695  16.845   2.908
15355W        W80516  34.801  19.774  12.847
15356W        W80517  44.737  12.204  11.065
15357W        W80518   7.029  44.038   0.280
15358W        W80519  31.799  43.378   2.381
15359W        W80520   5.734  44.552   9.887
15360W        W80521  23.735  22.702  13.615
15361W        W80522   3.220   8.899  14.777
15362W        W80523   9.312  40.337   2.832
15363W        W80524  29.604  44.422   2.344
15364W        W80525   2.417  39.021  11.124
15365W        W80526  17.996   5.039   3.336
15366W        W80527  38.429  29.152   3.359
15367W        W80528   3.680   2.333  10.970
15368W        W80529  23.989  18.151  12.137
15369W        W80530  12.614   5.919  11.192
15370W        W80531  10.733  42.017   0.032
15371W        W80532  18.617  35.401  12.270
15372W        W80533  15.164  15.110   0.835
15373W        W80534  27.262  30.982   1.768
15374W        W80535  10.571   9.889  14.361
15375W        W80536  15.244  23.441   0.501
15376W        W80537  13.646  36.415   3.815
15377W        W80538  23.596  21.269   3.555
15378W        W80539  33.369   6.739   4.150
15379W        W80540  25.999  33.602  13.869
15380W        W80541  25.140  39.626  13.810
15381W        W80542   7.921  16.593  10.721
15382W        W80543  17.336  24.561  14.488
15383W        W80544   7.832  22.136   4.663
15384W        W80545  41.850  11.656  12.539
15385W        W80546  25.317  41.852   3.986
15386W        W80547  28.644  38.758   4.591
15387W        W80548  25.461  44.733  14.459
15388W        W80549  34.018  21.032  12.907
15389W        W80550  10.227   4.907   1.887
15390W        W80551  44.976  34.413   4.719
15391W        W80552  44.778  42.443  12.042
15392W        W80553  11.395   0.832   0.958
15393W        W80554  36.558  16.892  14.955
15394W        W80555   7.670  10.117  12.512
15395W        W80556  15.726  23.295   2.537
15396W        W80557   8.476  15.562   3.398
15397W        W80558   0.821  35.761   3.437
15398W        W80559  44.500  39.902  11.282
15399W        W80560  32.458  10.128   2.165
15400W        W80561  42.918   4.038   2.251
15401W        W80562  21.865  33.788  12.980
15402W        W80563  43.426  28.436  10.796
15403W        W80564  31.103  19.989  13.978
15404W        W80565  26.217  12.052   1.495
15405W        W80566   5.688  39.063  13.916
15406W        W80567  34.872  38.440  13.166
15407W        W80568  27.109  35.336   0.169
15408W        W80569   4.358  29.343   0.367
15409W        W80570  22.007  11.194  14.256
15410W        W80571  23.931  35.111   1.432
15411W        W80572  13.809  39.206   5.070
15412W        W80573  34.529  26.753   3.296
15413W        W80574  31.894   9.182   1.011
15414W        W80575  24.787  21.483  10.527
15415W        W80576  34.075  42.839  13.872
15416W        W80577  28.686   8.158  12.972
15417W        W80578  32.625  11.626  11.532
15418W        W80579  25.420  13.455  11.250
15419W        W80580  23.964  40.829   3.061
15420W        W80581  36.968  27.189   2.270
15421W        W80582  13.608  41.440   3.445
15422W        W80583   3.612  41.238   2.832
15423W        W80584  14.721  41.985   0.653
15424W        W80585  31.445  19.643  14.922
15425W        W80586  29.720  34.994   5.265
15426W        W80587   9.816  30.406   4.548
15427W        W80588  34.068  21.584   0.188
15428W        W80589  43.249  22.749   2.301
15429W        W80590   4.353   6.748  10.669
15430W        W80591  32.499  13.540   3.752
15431W        W80592  39.435  24.161   0.441
15432W        W80593  37.499   1.902   2.259
15433W        W80594  24.004  44.740  13.095
15434W        W80595  24.815  41.100   2.220
15435W        W80596  20.339  38.078   1.312
15436W        W80597  44.780  32.893  11.397
15437W        W80598  16.791   0.040   4.157
15438W        W80599  28.924  16.380   4.561
15439W        W80600  30.700  24.141  10.697
15440W        W80601  31.469  41.379  11.018
15441W        W80602  24.046  30.008  10.682
15442W        W80603  14.203  30.530  10.738
15443W        W80604  27.201  17.767   3.090
15444W        W80605  13.066  26.177   0.442
15445W        W80606  12.907  19.743  14.888
15446W        W80607  35.803  10.269  10.455
15447W        W80608  28.701  25.890  11.973
15448W        W80609  10.142  16.811   1.380
15449W        W80610  39.941  30.508   4.185
15450W        W80611  31.041  27.850  14.539
15451W        W80612  43.601  35.689  13.927
15452W        W80613  14.219   6.194   2.293
15453W        W80614  27.741   3.327  12.176
15454W        W80615  13.732   9.122  14.442
15455W        W80616  18.263  39.938   3.207
15456W        W80617   3.342   7.311  13.966
15457W        W80618   2.900  21.048   0.478
15458W        W80619  24.035  20.013  12.610
15459W        W80620   1.421  21.449   4.606
15460W        W80621  36.877  22.466   2.288
15461W        W80622  29.504  36.815   2.291
15462W        W80623  12.236  15.473   3.250
15463W        W80624  40.449  24.963  14.539
15464W        W80625  16.115  12.120  13.480
15465W        W80626   6.230   1.952   1.407
15466W        W80627  17.248  37.996  11.974
15467W        W80628  22.136   5.276  13.393
15468W        W80629  33.391   8.110   2.963
15469W        W80630  22.236   8.749  12.998
15470W        W80631  43.021   9.771  12.630
15471W        W80632   0.388   6.875  10.899
15472W        W80633   1.462  11.212   5.017
15473W        W80634  17.131  19.354   4.092
15474W        W80635  20.011  31.114   2.273
15475W        W80636  43.269  16.266   1.821
15476W        W80637  18.566   2.753   3.648
15477W        W80638  27.213  28.456   4.549
15478W        W80639  19.250  22.971  14.467
15479W        W80640  17.684   2.315   3.650
15480W        W80641  23.094  15.759   2.346
15481W        W80642  34.053  35.956  11.613
15482W        W80643  41.793  28.485  13.540
15483W        W80644  21.527  38.438  12.521
15484W        W80645  38.570  29.435  12.093
15485W        W80646  12.450  21.556  12.784
15486W        W80647  43.503   5.314  12.238
15487W        W80648  28.987  39.005   4.307
15488W        W80649  42.401  12.815   4.625
15489W        W80650  33.200   7.341  14.911
15490W        W80651  39.526  28.515   1.186
15491W        W80652   9.888  22.747  13.555
15492W        W80653   9.213  25.062   9.750
15493W        W80654   9.185   2.299   3.057
15494W        W80655  44.760   6.708   3.265
15495W        W80656   5.911  37.576   3.690
15496W        W80657   0.569   5.019  10.339
15497W        W80658  14.532   1.975   3.423
15498W        W80659   7.513  10.566   2.766
15499W        W80660  44.686  13.223   0.972
15500W        W80661  44.910  20.261   2.325
15501W        W80662  11.154   0.435   3.209
15502W        W80663  29.623  35.980  14.383
15503W        W80664  17.835   4.200   2.799
15504W        W80665  30.934  14.621  14.795
15505W        W80666   1.339  20.090  10.924
15506W        W80667  41.873  41.841  11.250
15507W        W80668   3.749  17.127   1.212
15508W        W80669   2.601  29.117  12.104
15509W        W80670  22.707  14.857  11.354
15510W        W80671  33.892  24.747   0.530
15511W        W80672  32.902  16.074  11.023
15512W        W80673  16.637   3.346  13.978
15513W        W80674  41.408   6.921   0.373
15514W        W80675  33.000  35.529  10.945
15515W        W80676  26.906   6.011   9.867
15516W        W80677  35.515  21.716  12.114
15517W        W80678  44.608  31.051   3.470
15518W        W80679  36.531  31.987  12.120
15519W        W80680  14.480  39.769  11.418
15520W        W80681   2.552  22.417  11.549
15521W        W80682  26.788   0.450   4.094
15522W        W80683  24.567  36.491  10.274
15523W        W80684  42.066  31.567   2.776
15524W        W80685  14.847  27.904   0.872
15525W        W80686  11.427  40.381   0.352
15526W        W80687  42.576   8.241   1.823
15527W        W80688  12.597  38.793   3.934
15528W        W80689  44.256  11.718   0.913
15529W        W80690  35.150   6.278   0.937
15530W        W80691  23.715  36.108  11.512
15531W        W80692  13.236  42.877   1.876
15532W        W80693  36.062  15.640   2.144
15533W        W80694  34.812   8.025   1.778
15534W        W80695  12.809  10.672  14.548
15535W        W80696  29.820  35.052  12.781
15536W        W80697  25.781  31.349  11.629
15537W        W80698  11.873  29.677  11.651
15538W        W80699  10.829  10.327  11.210
15539W        W80700  24.063  21.714   2.012
15540W        W80701   9.833  19.612   1.278
15541W        W80702  18.708  11.610   0.190
15542W        W80703  11.671  44.566   1.216
15543W        W80704  19.717  43.610  10.778
15544W        W80705  19.165  14.630   4.081
15545W        W80706  22.839   1.441  13.928
15546W        W80707   5.857  35.297   4.182
15547W        W80708  11.568  26.253  11.590
15548W        W80709  26.301  10.139  10.644
15549W        W80710   1.770  31.117   2.680
15550W        W80711  25.648  39.457  12.396
15551W        W80712  36.978   6.217   2.537
15552W        W80713  22.442  23.300  12.499
15553W        W80714  41.555  11.544  14.973
15554W        W80715  27.162  34.345   0.344
15555W        W80716  33.448  26.448   1.894
15556W        W80717  37.404  28.363  14.623
15557W        W80718  20.126  42.002  11.054
15558W        W80719  18.130  16.770  14.744
15559W        W80720   0.332  17.723   4.170
15560W        W80721  40.303  18.818   2.977
15561W        W80722   6.931  31.876   3.293
15562W        W80723   3.208  23.555   1.357
15563W        W80724   6.952  16.701  13.973
15564W        W80725  16.792  31.596   3.643
15565W        W80726  29.412  22.540  12.426
15566W        W80727   2.052  22.140   0.492
15567W        W80728  34.911   2.823  14.850
15568W        W80729  42.586  12.781  13.660
15569W        W80730   2.638  14.909   0.369
15570W        W80731  43.180  13.226  14.707
15571W        W80732  13.560  24.736  11.594
15572W        W80733   5.598  25.874  14.470
15573W        W80734  12.397  35.972  13.991
15574W        W80735  15.729  31.051   2.652
15575W        W80736  26.372  32.027  12.676
15576W        W80737  19.998  24.459   4.111
15577W        W80738  29.659  23.191   0.410
15578W        W80739  40.248  29.144   2.196
15579W        W80740  14.206  15.523  11.533
15580W        W80741  27.766  38.493   2.112
15581W        W80742  20.543  25.810   4.576
15582W        W80743  29.623  25.933  11.941
15583W        W80744  16.009  16.376   9.823
15584W        W80745   5.731  20.811   4.229
15585W        W80746   3.692  39.227   1.357
15586W        W80747   5.943  40.845  12.140
15587W        W80748  12.328  20.265  14.268
15588W        W80749  44.330   8.258  13.745
15589W        W80750  44.047  19.602   0.660
15590W        W80751  43.738  16.072  11.500
15591W        W80752  13.339   2.196   4.690
15592W        W80753  30.557  15.727   0.418
15593W        W80754  32.166   9.625   0.688
15594W        W80755  38.373  31.915   0.817
15595W        W80756   3.115  11.398  12.807
15596W        W80757  38.148   0.814  14.382
15597W        W80758   7.246  11.267   3.696
15598W        W80759  32.763  36.549  11.647
15599W        W80760  34.330  15.917   3.670
15600W        W80761  25.478   8.161  14.944
15601W        W80762  40.587  12.609   3.776
15602W        W80763  15.730  11.616  14.415
15603W        W80764  24.388  14.201   1.247
15604W        W80765   9.694  20.539   3.047
15605W        W80766   3.405  18.145   0.311
15606W        W80767  30.032  15.879  11.669
15607W        W80768  43.007  13.195   1.809
15608W        W80769  18.632  33.088   2.316
15609W        W80770  28.978   4.496   3.771
15610W        W80771  26.190  25.171   3.663
15611W        W80772   0.265   6.515   2.322
15612W        W80773  24.584   3.679   4.165
15613W        W80774  34.761  39.876   3.240
15614W        W80775  18.052  30.679   2.754
15615W        W80776  38.631  20.783  13.561
15616W        W80777  32.509   6.620   0.691
15617W        W80778  44.230  38.544   1.358
15618W        W80779   3.552  18.948  12.222
15619W        W80780   4.425  40.021   2.692
15620W        W80781  24.405  38.050   3.142
15621W        W80782  15.147  17.027  14.005
15622W        W80783   0.227  13.794  10.677
15623W        W80784  18.838  29.242  11.514
15624W        W80785   3.146  43.489  11.653
15625W        W80786  42.538  23.692  10.584
15626W        W80787  14.794  12.920   4.575
15627W        W80788  26.726  17.763   0.480
15628W        W80789  29.180  10.263  11.932
15629W        W80790  42.167  13.882  14.089
15630W        W80791  26.902   5.405  10.628
15631W        W80792  22.690   0.998  11.245
15632W        W80793   4.789   4.849  11.355
15633W        W80794  43.965  43.195  12.051
15634W        W80795   8.694   9.338   5.105
15635W        W80796  19.071  17.288   3.631
15636W        W80797  26.548  26.095  11.369
15637W        W80798  41.456  16.221   0.437
15638W        W80799  16.197   8.876   3.251
15639W        W80800  25.521  41.060  11.941
15640W        W80801   9.252  26.093   4.038
15641W        W80802  31.214  23.972  10.251
15642W        W80803  26.195  20.285   3.815
15643W        W80804  40.976  22.959  12.483
15644W        W80805  23.564  28.877  12.651
15645W        W80806  27.979  10.103  13.992
15646W        W80807   7.791  11.690   3.140
15647W        W80808  43.368  15.373   3.104
15648W        W80809   4.345  43.289  10.585
15649W        W80810  16.635  14.667  11.508
15650W        W80811  44.354  31.922   1.135
15651W        W80812   3.312  43.083   4.972
15652W        W80813   6.240   6.883   4.083
15653W        W80814  35.573  17.841  11.474
15654W        W80815  39.027  20.129  14.852
15655W        W80816  22.323  23.871  14.488
15656W        W80817  25.529  42.884  10.948
15657W        W80818  21.552  11.036  10.721
15658W        W80819   7.225  36.535   3.202
15659W        W80820  40.792  18.311   3.608
15660W        W80821  20.063  44.973  12.988
15661W        W80822  10.276  23.505  14.133
15662W        W80823  29.727  20.216   2.802
15663W        W80824  17.020   0.488   2.314
15664W        W80825  24.574  13.360   2.462
15665W        W80826  32.094   9.629   0.147
15666W        W80827  28.501  44.921  13.846
15667W        W80828  33.423  10.157  10.471
15668W        W80829   5.343  18.739  11.991
15669W        W80830  17.759  31.489   3.504
15670W        W80831   7.298   8.428   2.262
15671W        W80832   2.164  24.514  10.280
15672W        W80833  37.606  14.593  14.361
15673W        W80834   7.701  35.160   4.151
15674W        W80835  29.589  15.815  14.477
15675W        W80836  17.746  28.647   1.934
15676W        W80837  44.169   5.966   2.877
15677W        W80838   9.163  26.002  14.418
15678W        W80839  25.241  27.787  12.900
15679W        W80840   1.674  23.606   1.020
15680W        W80841  36.523  28.320  11.506
15681W        W80842  16.370   6.295   0.672
15682W        W80843   9.935  29.116  10.677
15683W        W80844  29.134  13.697   2.577
15684W        W80845  39.977   9.739   3.846
15685W        W80846  23.974  28.376  13.918
15686W        W80847  35.380  24.463   2.801
15687W        W80848   4.470  24.930  10.738
15688W        W80849  19.793  17.549   2.820
15689W        W80850  42.525  20.567   4.453
15690W        W80851  14.091  33.168  14.777
15691W        W80852  25.523  44.875  10.774
15692W        W80853  27.644  16.236  13.389
15693W        W80854   3.481  18.627  13.185
15694W        W80855  17.079  36.458  12.119
15695W        W80856  15.041   6.360   1.691
15696W        W80857  39.478  25.668  11.250
15697W        W80858  35.002   5.521   2.305
15698W        W80859   9.267   7.111  13.540
15699W        W80860  40.369  13.943   2.745
15700W        W80861  37.111  12.208  14.041
15701W        W80862  16.973  44.736  12.003
15702W        W80863   4.596   4.676  13.838
15703W        W80864  11.205  27.614   1.263
15704W        W80865  37.671  34.394  12.911
15705W        W80866  34.869  18.460  13.426
15706W        W80867  13.151  30.645   0.087
15707W        W80868   2.374  29.964   3.320
15708W        W80869  32.565  28.909  12.462
15709W        W80870  24.721  44.476   3.616
15710W        W80871  16.504   7.802  10.748
15711W        W80872   1.801  40.422  11.190
15712W        W80873  40.446  15.776   2.189
15713W        W80874  39.792  27.329  14.205
15714W        W80875  29.087   8.603  13.849
15715W        W80876   4.000  11.892   0.477
15716W        W80877  28.396  30.350  13.641
15717W        W80878  13.682  17.089  14.900
15718W        W80879   5.779  40.365   2.279
15719W        W80880  23.203   0.960  14.447
15720W        W80881  26.060  19.665  10.581
15721W        W80882  44.059   2.717   0.766
15722W        W80883   7.004  17.269  11.936
15723W        W80884  44.496  16.570  12.527
15724W        W80885  32.938  12.608   4.519
15725W        W80886  10.598  29.968  13.475
15726W        W80887  16.612  39.761   0.976
15727W        W80888   5.901  14.010  12.098
15728W        W80889  44.111  19.915   1.806
15729W        W80890  16.641  22.630   3.252
15730W        W80891  24.442  11.429  13.169
15731W        W80892   9.818  31.368   0.292
15732W        W80893   7.251   3.073  14.314
15733W        W80894  41.018  10.712   0.339
15734W        W80895  26.973  40.470   0.771
15735W        W80896  21.821  26.589   0.856
15736W        W80897  41.409   7.364  14.263
15737W        W80898  28.688  11.744  12.770
15738W        W80899  22.653  14.641   1.796
15739W        W80900  11.611   0.862   1.946
15740W        W80901  22.441  43.464   3.212
15741W        W80902  25.588  14.332  11.186
15742W        W80903  29.952   1.531   2.378
15743W        W80904  24.080   9.384   0.344
15744W        W80905  39.052  22.546   1.845
15745W        W80906  17.244  31.617   1.771
15746W        W80907  15.408  28.507  14.051
15747W        W80908   7.614  29.059   3.546
15748W        W80909  22.524  28.977  14.497
15749W        W80910   2.051  17.843   3.640
15750W        W80911   7.435  42.789   3.433
15751W        W80912  24.709   0.858  14.250
15752W        W80913  30.615  26.390   1.832
15753W        W80914  15.150  13.823   2.702
15754W        W80915  19.111   5.224   4.147
15755W        W80916  18.677  32.034  14.721
15756W        W80917  20.632  40.011   5.005
15757W        W80918  12.169  38.102   0.496
15758W        W80919  15.270  21.099   4.548
15759W        W80920   9.612  43.311   1.623
15760W        W80921  42.369  18.320  10.796
15761W        W80922  26.732  10.767   1.921
15762W        W80923   4.491   9.880   1.766
15763W        W80924  32.334   1.779  12.243
15764W        W80925   2.299   0.851   3.191
15765W        W80926  23.401  43.497   4.084
15766W        W80927  43.344  14.918   1.806
15767W        W80928   2.434   5.306   1.960
15768W        W80929   0.398  15.734  14.023
15769W        W80930  37.607   7.370   0.978
15770W        W80931  24.204   2.270  13.077
15771W        W80932  42.205  11.242   0.809
15772W        W80933  37.572  19.712   4.236
15773W        W80934  43.972  24.159  13.974
15774W        W80935   0.837  19.559   4.012
15775W        W80936  27.890  32.242   5.206
15776W        W80937  14.292  17.637  13.201
15777W        W80938  29.573   3.727   3.355
15778W        W80939  34.061  25.058   4.356
15779W        W80940   2.799  10.355  14.122
15780W        W80941  33.566   2.275  12.130
15781W        W80942  11.063  13.570   4.878
15782W        W80943  20.041  33.563  12.537
15783W        W80944  29.990  20.610   0.976
15784W        W80945  35.442  30.692  14.344
15785W        W80946   3.515  30.195   0.006
15786W        W80947  23.874  44.064  14.367
15787W        W80948  34.918  19.101   2.785
15788W        W80949  21.101   5.391   1.863
15789W        W80950  12.148  41.022  13.921
15790W        W80951  36.186  38.670   4.584
15791W        W80952  30.055  30.196  11.838
15792W        W80953  29.972   2.000   3.829
15793W        W80954  28.212  41.360   0.304
15794W        W80955   4.268  12.594  10.724
15795W        W80956  19.170  44.412   2.769
15796W        W80957  36.745  30.289  14.367
15797W        W80958  12.575  32.077  14.342
15798W        W80959   0.330   5.961   0.011
15799W        W80960   8.707  20.119  11.430
15800W        W80961  29.576  36.054   2.755
15801W        W80962   1.704  35.677   3.263
15802W        W80963  14.570   4.288   2.290
15803W        W80964  16.751  29.335  11.272
15804W        W80965  38.391  12.479  13.622
15805W        W80966   6.466  38.799   4.389
15806W        W80967  24.637  18.741  14.518
15807W        W80968  19.048   2.752   1.906
15808W        W80969  40.343   7.191  12.507
15809W        W80970  30.151  43.054   3.099
15810W        W80971  28.541  34.353  14.036
15811W        W80972  25.110  34.499   0.496
15812W        W80973  10.022  15.495   5.008
15813W        W80974  23.281  21.130   5.432
15814W        W80975  24.461   1.919   2.831
15815W        W80976  21.120   7.131   4.837
15816W        W80977  15.225  40.235   3.052
15817W        W80978   9.774   6.894  12.164
15818W        W80979  10.139   9.987   3.255
15819W        W80980  21.945  24.784   0.836
15820W        W80981   4.726  19.272  12.516
15821W        W80982   4.253  14.946   4.591
15822W        W80983   9.542  29.129  12.399
15823W        W80984  37.439  31.711  12.896
15824W        W80985  30.955  12.276  14.921
15825W        W80986  24.972  21.137  14.400
15826W        W80987  37.395  19.600   0.998
15827W        W80988  13.840  35.008  11.584
15828W        W80989  34.089  26.432   1.277
15829W        W80990  39.392  11.296   4.960
15830W        W80991  21.781  13.042  11.824
15831W        W80992  20.758  16.621  13.531
15832W        W80993  19.092  26.575   2.189
15833W        W80994   2.707  42.473  14.246
15834W        W80995  41.466   3.168   1.398
15835W        W80996  15.649  39.861  12.147
15836W        W80997  19.935  43.172  13.023
15837W        W80998  27.256   5.845   1.427
15838W        W80999  21.698  17.199   4.479
15839W        W81000   0.317  21.852   4.316
15840W        W81001  33.829  33.953   1.480
15841W        W81002  30.909   7.218  11.616
15842W        W81003  30.025   0.414  11.792
15843W        W81004   1.712  25.278   1.272
15844W        W81005   9.176   2.670   1.858
15845W        W81006  15.189  10.909   4.308
15846W        W81007  18.777   9.404   3.158
15847W        W81008  32.434  44.476   3.508
15848W        W81009  44.843  12.776   2.183
15849W        W81010  23.954  20.758   2.368
15850W        W81011  13.647  10.241   1.390
15851W        W81012  11.332  13.146   1.170
15852W        W81013  24.223  15.909  14.379
15853W        W81014   3.756   8.758   1.364
15854W        W81015  11.547  39.083  10.003
15855W        W81016  10.152  14.585  12.405
15856W        W81017  41.160  17.620   4.108
15857W        W81018  30.103  42.509  14.430
15858W        W81019  33.816   3.620   4.968
15859W        W81020  20.676  35.290   1.809
15860W        W81021  11.719  43.901  13.653
15861W        W81022  39.058   3.455   3.062
15862W        W81023   5.943  36.173   3.752
15863W        W81024  37.705  39.272   2.596
15864W        W81025  13.343  33.631   2.332
15865W        W81026  22.007  15.892   2.645
15866W        W81027   5.578  39.842  10.784
15867W        W81028   2.323  16.257   1.213
15868W        W81029  27.900  42.592   4.888
15869W        W81030  30.532  35.941  10.603
15870W        W81031  39.394  20.014  14.472
15871W        W81032  29.393  13.213   4.604
15872W        W81033  34.164  34.426   2.771
15873W        W81034   0.653   4.053   3.230
15874W        W81035  43.355  40.992  14.420
15875W        W81036  29.658   3.326   4.143
15876W        W81037  23.083  25.171  11.480
15877W        W81038  41.418  27.775   1.671
15878W        W81039   3.045   2.938   4.147
15879W        W81040   2.027   1.340   3.236
15880W        W81041   6.175  19.561   4.434
15881W        W81042  11.925  11.005  10.080
15882W        W81043   8.265   5.834  11.113
15883W        W81044  25.293  44.689   1.254
15884W        W81045  29.536  11.133  10.395
15885W        W81046  12.584  11.624   4.184
15886W        W81047  31.979  14.360   0.307
15887W        W81048  44.004  30.351  11.979
15888W        W81049   5.932   5.324  10.914
15889W        W81050   3.028  18.612  10.825
15890W        W81051  39.539  22.070   3.196
15891W        W81052  26.101  14.177   3.782
15892W        W81053  43.945  24.488  11.108
15893W        W81054  41.734  44.748   3.144
15894W        W81055  21.240  14.050   2.710
15895W        W81056  31.621  27.898   1.735
15896W        W81057   9.260   0.749  11.677
15897W        W81058  44.802   6.360  12.842
15898W        W81059  25.264   9.820   0.233
15899W        W81060  33.834  10.046  13.814
15900W        W81061  40.309  41.809  14.936
15901W        W81062  36.522  10.169   2.738
15902W        W81063  18.759  42.386   4.290
15903W        W81064  11.717  20.124   1.553
15904W        W81065   2.334  15.435  12.949
15905W        W81066  29.559  39.743   4.141
15906W        W81067  12.955  27.720   2.330
15907W        W81068  22.113  16.718  12.059
15908W        W81069   3.031   4.311   4.091
15909W        W81070  20.309  26.230   3.321
15910W        W81071   9.125   0.412  14.884
15911W        W81072  26.426   4.869   4.512
15912W        W81073  30.649  38.892  13.258
15913W        W81074   1.309  21.488   0.404
15914W        W81075   7.172  36.365   0.539
15915W        W81076  26.730  43.254   1.891
15916W        W81077  13.155  15.215   1.374
15917W        W81078  26.554  39.938   2.135
15918W        W81079  29.685  42.500  13.968
15919W        W81080  36.648   6.797   3.714
15920W        W81081  20.105  40.877  11.996
15921W        W81082  28.690   9.568   4.367
15922W        W81083   9.893  27.988  12.843
15923W        W81084  28.877  25.160  10.734
15924W        W81085  33.915  19.118  12.154
15925W        W81086   9.044  43.928   2.274
15926W        W81087  44.352  28.648   1.204
15927W        W81088  17.353  33.364   2.716
15928W        W81089  22.567  33.327   4.234
15929W        W81090  11.819  16.624   1.021
15930W        W81091  15.803  27.886   4.653
15931W        W81092   4.777  13.125  14.776
15932W        W81093  11.567  22.958   0.859
15933W        W81094  23.258  25.178  14.047
15934W        W81095  29.824   9.639  12.287
15935W        W81096   4.963  37.341   1.769
15936W        W81097  14.695  42.476   2.238
15937W        W81098   0.573   0.331   3.226
15938W        W81099   7.068  28.707  13.925
15939W        W81100  44.276  26.974   4.534
15940W        W81101  10.300  10.425  11.166
15941W        W81102  15.231  34.898   1.047
15942W        W81103  31.193   1.981  10.356
15943W        W81104  16.794  40.558  11.578
15944W        W81105  37.891  19.993   3.736
15945W        W81106  14.799  35.865   3.658
15946W        W81107  43.880   0.990  11.137
15947W        W81108   2.690  20.803   3.160
15948W        W81109  10.858  13.547   4.366
15949W        W81110  40.542   7.274   0.313
15950W        W81111   8.764  10.390   4.202
15951W        W81112  25.865  18.736  13.481
15952W        W81113  25.985  25.109  11.623
15953W        W81114   4.788  35.552   1.332
15954W        W81115  24.395  13.176  10.921
15955W        W81116   6.729  24.027  14.951
15956W        W81117  29.036  13.317   1.229
15957W        W81118  43.605  31.964  12.453
15958W        W81119  23.115   3.852   1.333
15959W        W81120   5.403   6.900   1.701
15960W        W81121  16.709  40.649   3.253
15961W        W81122   1.233  33.545  12.977
15962W        W81123  18.183  22.775   4.542
15963W        W81124  35.706   0.377  12.312
15964W        W81125   5.181   7.031  14.111
15965W        W81126  33.082  26.967  13.929
15966W        W81127  40.668  27.079   0.504
15967W        W81128  17.025  31.649  13.993
15968W        W81129  26.226  31.848  13.431
15969W        W81130   4.874  21.983  13.053
15970W        W81131  44.364   1.656   4.639
15971W        W81132  41.416  40.596   4.464
15972W        W81133  19.178   0.061  13.859
15973W        W81134  19.533   1.064  11.506
15974W        W81135   9.735  10.162   0.059
15975W        W81136  31.409  32.634   2.724
15976W        W81137  16.090   3.252  10.675
15977W        W81138   0.853  38.113   4.033
15978W        W81139   5.382  37.482   4.950
15979W        W81140   7.197   5.171  11.392
15980W        W81141  14.762  43.884   1.963
15981W        W81142   2.467  42.484   3.229
15982W        W81143  21.921  27.436  14.264
15983W        W81144  24.785   1.410   4.101
15984W        W81145  30.932  22.099  10.224
15985W        W81146  34.953   3.385  10.708
15986W        W81147  24.908  35.876   2.506
15987W        W81148  35.073  11.108   2.188
15988W        W81149  20.793  36.966   3.188
15989W        W81150  25.611  33.884   3.631
15990W        W81151  19.702  23.492  11.862
15991W        W81152  11.190  11.767   1.518
15992W        W81153  43.866   8.448   3.312
15993W        W81154  31.196  41.361  13.804
15994W        W81155  42.241  14.884  12.425
15995W        W81156  10.663  14.199   4.396
15996W        W81157  33.940   3.462   2.688
15997W        W81158   3.685  16.625   4.336
15998W        W81159  14.236  36.613  13.340
15999W        W81160  27.210   3.316  12.055
16000W        W81161  21.692  12.809  13.248
16001W        W81162  23.157  33.792  10.696
16002W        W81163  11.136  22.679  11.957
16003W        W81164  39.274  29.365  14.148
16004W        W81165   1.951  13.959   2.848
16005W        W81166  44.167  22.701  14.030
16006W        W81167  33.543  34.337  13.330
16007W        W81168  22.580   9.315   0.285
16008W        W81169  16.825  38.226  11.789
16009W        W81170   2.792   3.333  10.664
16010W        W81171   1.363  23.485  10.887
16011W        W81172   5.899   2.961   2.454
16012W        W81173   2.318   4.545  13.140
16013W        W81174  21.538  25.596   1.728
16014W        W81175  25.646  43.117   4.204
16015W        W81176  28.017  33.261  10.272
16016W        W81177  37.056  39.849   2.732
16017W        W81178   0.890  24.926  13.621
16018W        W81179  44.194  36.184   1.198
16019W        W81180   1.609  16.072  12.383
16020W        W81181  42.364  35.572   9.682
16021W        W81182  28.644  12.219  11.577
16022W        W81183  21.487  24.222  13.369
16023W        W81184   3.487  24.145  11.442
16024W        W81185  14.366  36.505   3.187
16025W        W81186  36.449  33.687   2.216
16026W        W81187  24.669  24.905   3.799
16027W        W81188  26.418  42.528   0.774
16028W        W81189   5.212  24.610  10.374
16029W        W81190  20.089  18.891   4.141
16030W        W81191  19.501  21.435   9.746
16031W        W81192  34.794  43.340   1.747
16032W        W81193   4.749   9.647   2.153
16033W        W81194  27.040  26.504  13.477
16034W        W81195  10.903   3.816   0.732
16035W        W81196  26.473  31.016   4.264
16036W        W81197  13.203  13.519   4.106
16037W        W81198  14.255  35.568  12.406
16038W        W81199  12.861   9.888  12.435
16039W        W81200  13.532   7.669  11.333
16040W        W81201  16.883  34.844  12.914
16041W        W81202  40.100  14.224  12.763
16042W        W81203   6.375  31.403   0.021
16043W        W81204  16.800  18.385   3.698
16044W        W81205  38.751  41.371  11.627
16045W        W81206  42.188  35.883  11.008
16046W        W81207  19.782  17.171  10.705
16047W        W81208  23.729  41.590  14.955
16048W        W81209  32.662  32.891  12.417
16049W        W81210  27.352  44.820   4.642
16050W        W81211   4.946  32.236   4.131
16051W        W81212  32.517  18.810  11.150
16052W        W81213   3.387  31.639  12.939
16053W        W81214   8.918  32.554  12.164
16054W        W81215  40.323  26.306  13.546
16055W        W81216  28.196  35.389  11.979
16056W        W81217  34.871   4.306  10.564
16057W        W81218   1.763   4.358  13.899
16058W        W81219  44.231  26.096   4.233
16059W        W81220   8.522   8.696   2.979
16060W        W81221  44.284  39.232   3.732
16061W        W81222  11.442  10.503  12.073
16062W        W81223  10.344  15.242   3.756
16063W        W81224  16.782   0.999   3.159
16064W        W81225  15.685   6.193   4.191
16065W        W81226  42.304   1.922  12.026
16066W        W81227  40.752  21.681   4.100
16067W        W81228  40.332  15.789  13.866
16068W        W81229  12.127   7.670  14.142
16069W        W81230   3.272  29.859   3.840
16070W        W81231   0.834   5.868   0.109
16071W        W81232  31.158  35.199  10.926
16072W        W81233   7.636  15.756   1.646
16073W        W81234  36.026  11.844   0.350
16074W        W81235   4.740  24.482   5.000
16075W        W81236   5.905  29.846   4.533
16076W        W81237  37.975  41.947   0.918
16077W        W81238  36.832  27.476   1.273
16078W        W81239   7.209  17.149  14.019
16079W        W81240   9.056  40.820   3.778
16080W        W81241  16.411   1.276   0.312
16081W        W81242  26.212  44.777   1.293
16082W        W81243   0.162   5.655   2.847
16083W        W81244  25.337  18.588  11.065
16084W        W81245  10.761  19.539   2.907
16085W        W81246  10.337  20.390  12.106
16086W        W81247   2.156  35.473  13.038
16087W        W81248  14.527  34.566   3.367
16088W        W81249  21.005  12.109  14.943
16089W        W81250  19.586   9.190  14.347
16090W        W81251  24.229  25.989  13.694
16091W        W81252  11.102  23.324  14.603
16092W        W81253  42.554   3.476  12.062
16093W        W81254  38.066  16.295  13.542
16094W        W81255  15.277  38.836   1.499
16095W        W81256  39.492  35.415   2.369
16096W        W81257  31.414  23.272  13.932
16097W        W81258  15.616  19.658   0.898
16098W        W81259  28.166  22.781  14.546
16099W        W81260   7.172  12.720   3.947
16100W        W81261  37.843  35.064   4.743
16101W        W81262  29.424  33.220  14.966
16102W        W81263  27.096  24.193  10.165
16103W        W81264   9.723  32.012   3.663
16104W        W81265   0.349  26.453  11.191
16105W        W81266  21.630   8.342  11.392
16106W        W81267  12.941  18.038  12.189
16107W        W81268  42.828  44.496  13.295
16108W        W81269  41.528   6.409  10.401
16109W        W81270  29.165  38.582  14.241
16110W        W81271  22.542  17.696  12.899
16111W        W81272   7.337  43.208   3.746
16112W        W81273  39.945  15.435  10.819
16113W        W81274  44.265  12.189   4.509
16114W        W81275  26.128  14.331   1.864
16115W        W81276  17.080   4.241   0.801
16116W        W81277  23.783   1.657  12.142
16117W        W81278  13.411  34.205  10.740
16118W        W81279  38.874  30.658  14.825
16119W        W81280  34.288  22.754   1.785
16120W        W81281   4.353  19.777  11.210
16121W        W81282  40.290  33.620  14.849
16122W        W81283  13.087  41.811   0.929
16123W        W81284  19.455   6.170   1.400
16124W        W81285  35.084   2.370   3.674
16125W        W81286  30.983  12.376   1.340
16126W        W81287  28.752  38.995   3.115
16127W        W81288  19.633  14.230  11.612
16128W        W81289   2.231  12.120  12.478
16129W        W81290  25.595  40.774   1.688
16130W        W81291  41.419   5.521   4.083
16131W        W81292  16.709  15.544   2.188
16132W        W81293   8.232  10.383   1.010
16133W        W81294  13.365  15.201   2.849
16134W        W81295  30.522  26.693  12.012
16135W        W81296  26.685  31.342   0.508
16136W        W81297  15.167  42.826   0.727
16137W        W81298  32.101  11.925   2.798
16138W        W81299  20.305   3.818  12.058
16139W        W81300  33.485  44.437   3.544
16140W        W81301   2.991   1.319   0.250
16141W        W81302  41.079  33.429   1.485
16142W        W81303  44.816  21.252  13.933
16143W        W81304   6.316  32.524  12.063
16144W        W81305  26.280  35.847  13.795
16145W        W81306  10.621  10.234  11.675
16146W        W81307  25.170  10.409  11.962
16147W        W81308   1.188  18.625   2.455
16148W        W81309  18.344  15.095   3.070
16149W        W81310  34.874  31.038  10.586
16150W        W81311  39.948  37.743  13.791
16151W        W81312  40.128  30.977   1.896
16152W        W81313  25.260   3.944  12.420
16153W        W81314  26.804  27.415   3.953
16154W        W81315  30.295  29.914   1.880
16155W        W81316   7.760  21.138  11.867
16156W        W81317   0.878  38.413   2.892
16157W        W81318  11.547   2.549   3.727
16158W        W81319  14.248  38.509  13.678
16159W        W81320  37.478   5.927   3.577
16160W        W81321  43.780  42.480   3.120
16161W        W81322  43.268  23.835   0.005
16162W        W81323  30.423   1.995  13.062
16163W        W81324  43.940  13.274   9.766
16164W        W81325   7.110  13.127  13.441
16165W        W81326  11.185  23.518   3.126
16166W        W81327  13.300  27.454   3.325
16167W        W81328  44.903  30.622   3.318
16168W        W81329  36.674  21.987   3.135
16169W        W81330  27.716  24.702  11.758
16170W        W81331  12.936  34.980   4.482
16171W        W81332  30.489  27.070   3.106
16172W        W81333  39.806   1.463  12.497
16173W        W81334  13.878  20.299  13.905
16174W        W81335   9.359  21.784   1.531
16175W        W81336  21.805   9.900  12.839
16176W        W81337  36.443  25.299   2.841
16177W        W81338  17.153  37.629   2.857
16178W        W81339  18.621  40.442  12.243
16179W        W81340   5.376   9.014   0.406
16180W        W81341  40.341  14.090  14.428
16181W        W81342  24.096  16.887  12.461
16182W        W81343   3.568  39.924   4.780
16183W        W81344  15.787   5.743  13.029
16184W        W81345  44.782  29.473   0.490
16185W        W81346  21.202  31.951  11.402
16186W        W81347  43.471  37.391   2.135
16187W        W81348  39.758  40.934   1.432
16188W        W81349  36.858  13.189  12.837
16189W        W81350  32.662  30.496   4.656
16190W        W81351  17.477  17.508   3.226
16191W        W81352  19.770  18.176   2.120
16192W        W81353  13.354   0.436   2.218
16193W        W81354   2.347  31.644  14.549
16194W        W81355   4.432   6.679   3.673
16195W        W81356  23.390  11.536   0.286
16196W        W81357  32.989  37.606   4.935
16197W        W81358  34.330  40.067  12.053
16198W        W81359  29.661  35.010   1.794
16199W        W81360  30.460   3.013  13.042
16200W        W81361  13.890  32.208  13.906
16201W        W81362  42.752  30.204   4.410
16202W        W81363   1.674  18.186   3.605
16203W        W81364  32.038  28.606  13.564
16204W        W81365  17.144  29.100   2.867
16205W        W81366  44.478   6.460   3.684
16206W        W81367  29.545   8.621  14.102
16207W        W81368  12.534  21.466  13.327
16208W        W81369  44.811  16.505   4.411
16209W        W81370   0.240  25.523   3.668
16210W        W81371  21.677   4.630   4.627
16211W        W81372  27.612  40.453   2.660
16212W        W81373   0.825   4.442  14.071
16213W        W81374   8.839  44.273   2.647
16214W        W81375  10.906   9.135   0.294
16215W        W81376  40.497  42.397  12.119
16216W        W81377  22.281  23.648  11.735
16217W        W81378   2.112  43.470   4.199
16218W        W81379  26.127   0.733   1.491
16219W        W81380  32.449  32.581   4.372
16220W        W81381   4.006  38.032   4.583
16221W        W81382  10.548  18.070  13.522
16222W        W81383  31.879  39.461   0.448
16223W        W81384  37.145  19.938  10.781
16224W        W81385  10.059  37.130   1.392
16225W        W81386   8.547  13.171   0.155
16226W        W81387   1.699  27.874   4.193
16227W        W81388  26.132  14.888  11.813
16228W        W81389  23.500  37.293  14.423
16229W        W81390  17.460  37.852   4.856
16230W        W81391   2.336  23.507  14.061
16231W        W81392  32.308  19.535   1.840
16232W        W81393  38.593  26.603   3.179
16233W        W81394  23.719  23.617   5.366
16234W        W81395  42.915  37.647   1.941
16235W        W81396   6.405  21.567  13.833
16236W        W81397  40.706   2.308   0.377
16237W        W81398  23.466  42.981   1.921
16238W        W81399   2.925  17.699  10.907
16239W        W81400  26.973  43.050  11.254
16240W        W81401  28.502   0.911  11.050
16241W        W81402  31.621  30.018   2.597
16242W        W81403  23.230   8.780   2.651
16243W        W81404  36.799  37.501  14.280
16244W        W81405   0.227  11.539   1.156
16245W        W81406  13.682  21.572   0.042
16246W        W81407   0.147  26.727   4.215
16247W        W81408   8.748  39.810   1.298
16248W        W81409  22.729  29.611   1.201
16249W        W81410  44.224  17.018   1.235
16250W        W81411   7.095   4.259   3.709
16251W        W81412  19.304  39.446  12.165
16252W        W81413  20.568  21.622  11.585
16253W        W81414   1.893  31.967  10.594
16254W        W81415   5.755  20.157   1.262
16255W        W81416  36.627  35.914  12.547
16256W        W81417   1.842  14.809  11.197
16257W        W81418  23.024  37.463   4.115
16258W        W81419  43.290  19.249  10.482
16259W        W81420   9.928   4.719  11.531
16260W        W81421  15.745  24.908  13.607
16261W        W81422  20.700  38.701   2.721
16262W        W81423  22.232   0.964   0.831
16263W        W81424  30.677   1.000  11.366
16264W        W81425  13.677  24.739   3.664
16265W        W81426  10.843  27.939   0.672
16266W        W81427  40.753  13.192  14.940
16267W        W81428   3.996  12.070  11.919
16268W        W81429  26.561  33.478  12.122
16269W        W81430   4.713  21.097   0.771
16270W        W81431  42.380  35.458   0.259
16271W        W81432   9.192   0.137   0.335
16272W        W81433  21.333  40.467  11.982
16273W        W81434   5.170  17.271  12.978
16274W        W81435  13.295   0.474   1.249
16275W        W81436  42.320  40.114   1.948
16276W        W81437  39.319  17.154   4.106
16277W        W81438  22.643  19.817   4.179
16278W        W81439  22.680  20.967  12.771
16279W        W81440  25.198  15.675  12.533
16280W        W81441  38.829  13.784   4.219
16281W        W81442  36.077  37.715  12.573
16282W        W81443  20.766  26.825  10.709
16283W        W81444  11.703   5.373  14.065
16284W        W81445  43.980  34.662  14.004
16285W        W81446  40.858  42.596  14.763
16286W        W81447  33.574  38.430  14.753
16287W        W81448  15.512  43.437  13.091
16288W        W81449  28.148   7.038  13.976
16289W        W81450   9.377  22.797   1.537
16290W        W81451  28.665  36.285  14.535
16291W        W81452  28.843  16.478   0.741
16292W        W81453  21.511  27.102  11.249
16293W        W81454  38.490  17.573   4.583
16294W        W81455  25.087  43.077  10.274
16295W        W81456  28.919  42.963   1.333
16296W        W81457   2.945  29.210  12.531
16297W        W81458  15.210  33.933  13.723
16298W        W81459  42.334  11.434  12.465
16299W        W81460   0.052  34.816  12.493
16300W        W81461  44.411  43.179   0.765
16301W        W81462   6.299  34.992  13.398
16302W        W81463  23.944  39.082  12.433
16303W        W81464  42.586  28.923   3.021
16304W        W81465  17.739   2.180   1.914
16305W        W81466   9.816  15.263  12.317
16306W        W81467  40.264  37.411  10.594
16307W        W81468  23.930  44.471   3.254
16308W        W81469   0.225   8.728   4.215
16309W        W81470  11.247   0.951  14.840
16310W        W81471  39.579  25.493   3.722
16311W        W81472   0.831  28.226   3.678
16312W        W81473  39.938  23.555   1.958
16313W        W81474   9.731  25.483   3.328
16314W        W81475  31.851   2.069   2.649
16315W        W81476  29.006   4.662   2.425
16316W        W81477  30.531  35.441  13.838
16317W        W81478  44.249   0.621   4.439
16318W        W81479   6.145  35.288  12.688
16319W        W81480  40.768   6.484  14.977
16320W        W81481  38.265   2.875   1.784
16321W        W81482   8.439   8.371   1.267
16322W        W81483   6.955  16.615  14.959
16323W        W81484  14.531   6.387  12.990
16324W        W81485   4.929   7.176  14.571
16325W        W81486   9.566   5.763  10.701
16326W        W81487  30.485  24.801  11.216
16327W        W81488  36.534  11.352  13.494
16328W        W81489  35.853  16.794  10.934
16329W        W81490  34.298  40.166   1.610
16330W        W81491  12.838  44.407  11.732
16331W        W81492  38.962  42.859   4.645
16332W        W81493  16.750  13.151  14.012
16333W        W81494   6.011  44.212   0.455
16334W        W81495   7.400  27.730  10.864
16335W        W81496  32.648  24.475   1.912
16336W        W81497   6.793  42.903   1.732
16337W        W81498   9.425  25.049   2.763
16338W        W81499  12.571   7.713  11.916
16339W        W81500  29.775   3.559  14.976
16340W        W81501  34.103  20.797   0.835
16341W        W81502  22.530  10.318  12.844
16342W        W81503  22.406  36.863   4.748
16343W        W81504  36.644  18.043   3.737
16344W        W81505  39.838  16.135  12.604
16345W        W81506   1.306  29.146   4.023
16346W        W81507   0.734  28.007  14.893
16347W        W81508  17.479  33.752  11.660
16348W        W81509  31.692   4.893   3.764
16349W        W81510   4.755  39.087   2.378
16350W        W81511  30.740  18.203  14.999
16351W        W81512   5.417  21.849   4.690
16352W        W81513  20.881  10.150  10.051
16353W        W81514  20.688  26.770   2.821
16354W        W81515  24.164   4.461   4.659
16355W        W81516   2.782  32.917   1.709
16356W        W81517  19.492  24.357   4.196
16357W        W81518   0.732   9.625  12.874
16358W        W81519  21.656  43.649   0.286
16359W        W81520   4.261   1.229   2.311
16360W        W81521  39.855  43.593  11.616
16361W        W81522  16.359   7.824   2.297
16362W        W81523  41.782   6.777  10.922
16363W        W81524  24.801  21.260   1.744
16364W        W81525  39.406  42.588  13.278
16365W        W81526  13.244  39.677   1.814
16366W        W81527  44.989  32.096  12.014
16367W        W81528  40.335  41.024  13.144
16368W        W81529  16.711  10.245  12.090
16369W        W81530   6.894  37.642   1.656
16370W        W81531   4.426  41.568   2.783
16371W        W81532   5.965  23.607  12.430
16372W        W81533  29.026  15.217  10.798
16373W        W81534  35.612  37.039   3.353
16374W        W81535  24.626  42.111  10.433
16375W        W81536   6.305  30.564   2.072
16376W        W81537  32.984  35.905  13.532
16377W        W81538  22.673  39.635   2.797
16378W        W81539  13.808  35.115   0.312
16379W        W81540  23.078  17.280  14.296
16380W        W81541  17.929   3.560   2.295
16381W        W81542   9.764  14.073   4.913
16382W        W81543   5.830  32.133   0.421
16383W        W81544  17.011   9.323  11.217
16384W        W81545  39.900  23.067  11.652
16385W        W81546   6.182  44.715   1.808
16386W        W81547  25.505  34.005   4.532
16387W        W81548  26.234  32.485  11.227
16388W        W81549  12.337  34.703   4.176
16389W        W81550   4.940  23.667   3.312
16390W        W81551  18.035   2.955   0.800
16391W        W81552  31.027  21.791  11.673
16392W        W81553  21.661  36.063  11.486
16393W        W81554  25.702   5.302  10.782
16394W        W81555  12.391   3.987   3.337
16395W        W81556  42.950  22.922   3.896
16396W        W81557  43.934  12.447   0.796
16397W        W81558  18.590  16.017   0.440
16398W        W81559  24.205  28.521   4.240
16399W        W81560  42.767  18.705   0.998
16400W        W81561   4.528  23.480   4.069
16401W        W81562  12.807  21.436   0.800
16402W        W81563   8.112   9.205   2.628
16403W        W81564  11.274  28.335   3.293
16404W        W81565   2.064  12.972  14.516
16405W        W81566  11.831   8.137  11.136
16406W        W81567  19.308  32.510   2.689
16407W        W81568  43.399   0.834   4.246
16408W        W81569  20.544  29.092   2.441
16409W        W81570  33.422   5.477  11.127
16410W        W81571  27.990  36.624  11.631
16411W        W81572  19.015  36.851  14.739
16412W        W81573  37.757  23.012   1.711
16413W        W81574  22.696  24.229   1.297
16414W        W81575  33.190   6.369  12.023
16415W        W81576   5.264  16.103  11.622
16416W        W81577  23.466  15.782   0.268
16417W        W81578  18.168  16.607  13.755
16418W        W81579  37.111  10.923   3.628
16419W        W81580  13.262   7.225  10.292
16420W        W81581  15.348  44.933  10.774
16421W        W81582  41.299   7.991   2.547
16422W        W81583  29.194  11.612   3.663
16423W        W81584  30.318  11.928  11.988
16424W        W81585  42.846  32.215   1.721
16425W        W81586  41.452  35.524  12.026
16426W        W81587  16.326   9.145   4.449
16427W        W81588  29.540  28.421  14.267
16428W        W81589   2.907  14.679  14.847
16429W        W81590  35.430  36.095   3.660
16430W        W81591  15.352  27.502  11.903
16431W        W81592  17.601  41.524   1.855
16432W        W81593   8.850  20.747  10.491
16433W        W81594  37.495  31.550   1.763
16434W        W81595  40.427  16.076   4.554
16435W        W81596  24.760  36.334   9.810
16436W        W81597  42.004   0.455  11.981
16437W        W81598  15.576  14.786   3.366
16438W        W81599  38.292  43.984  11.924
16439W        W81600   0.292  25.128  14.534
16440W        W81601   3.201  41.314  12.037
16441W        W81602  43.744   2.125  12.032
16442W        W81603   3.248  12.833   1.742
16443W        W81604   2.838  31.132   1.417
16444W        W81605   4.646  29.083   3.090
16445W        W81606   0.451  27.047  14.787
16446W        W81607  43.260  22.306   4.528
16447W        W81608  18.665  20.281   3.755
16448W        W81609  20.523  41.576   2.678
16449W        W81610  26.164  26.594   3.196
16450W        W81611  19.675  20.989   3.176
16451W        W81612  30.383   5.745   0.457
16452W        W81613  11.677   8.929  11.438
16453W        W81614  21.894  43.934  10.776
16454W        W81615  32.459  28.061   2.887
16455W        W81616  34.996  10.348   2.895
16456W        W81617  24.274  19.789   0.415
16457W        W81618  31.524  14.244  14.053
16458W        W81619  21.423  40.769  11.554
16459W        W81620  14.851  23.113   2.889
16460W        W81621  26.113   3.277   3.310
16461W        W81622  20.296  25.730   3.240
16462W        W81623   6.834  22.971  14.889
16463W        W81624  41.013  35.569  14.878
16464W        W81625  37.313  34.641  11.985
16465W        W81626   0.846  31.437  12.691
16466W        W81627  26.687  34.531   2.092
16467W        W81628  37.866   3.177  13.840
16468W        W81629  42.543  29.011  13.954
16469W        W81630  15.972  19.020  10.621
16470W        W81631   8.879  12.789  11.616
16471W        W81632   2.892  23.143   0.821
16472W        W81633   5.090  36.338   4.140
16473W        W81634  36.737   5.505  13.050
16474W        W81635  11.373   1.293   2.730
16475W        W81636   6.659  12.076   3.340
16476W        W81637  35.433   8.860   1.723
16477W        W81638  27.068   7.159  12.529
16478W        W81639  19.686  33.923  14.253
16479W        W81640  44.792  37.647  12.571
16480W        W81641  21.682  16.958   0.366
16481W        W81642   0.011  21.555   0.990
16482W        W81643  39.060  36.139   2.125
16483W        W81644  16.997   2.632  11.974
16484W        W81645   1.271  44.870   0.737
16485W        W81646  34.966  19.206  10.378
16486W        W81647   5.749  30.813  12.272
16487W        W81648  38.428   4.296  14.933
16488W        W81649  31.536   5.664   2.954
16489W        W81650  42.484  37.930   2.691
16490W        W81651   5.978  31.403  13.042
16491W        W81652  10.846  18.234  10.638
16492W        W81653   0.553   3.412  10.766
16493W        W81654  37.987  22.971   4.511
16494W        W81655  44.425   0.248  10.198
16495W        W81656   1.431  20.253   2.341
16496W        W81657  12.368  28.471  11.340
16497W        W81658  41.545   1.844  13.485
16498W        W81659  22.279  44.263   4.522
16499W        W81660  37.504   4.608   3.161
16500W        W81661   4.755  20.205   3.641
16501W        W81662  25.474   2.380   4.490
16502W        W81663  29.676  15.032  10.778
16503W        W81664   9.238  12.301  14.384
16504W        W81665  37.474  19.057  10.450
16505W        W81666  20.260   4.357   0.947
16506W        W81667   9.023  10.604   1.613
16507W        W81668   9.429  34.361   1.811
16508W        W81669  18.901  22.435   4.170
16509W        W81670   4.404  10.881  13.912
16510W        W81671   1.811  17.033  12.335
16511W        W81672  26.507  10.184   3.293
16512W        W81673  14.503  22.816  14.375
16513W        W81674  38.668  16.662  14.250
16514W        W81675  12.756   1.446   2.662
16515W        W81676  17.563  25.068  11.817
16516W        W81677  15.684  29.428   0.850
16517W        W81678  25.726  31.203   1.677
16518W        W81679  28.573  42.097  10.777
16519W        W81680  37.075  14.448   4.803
16520W        W81681  18.348  18.644  12.398
16521W        W81682  43.285  31.963   0.943
16522W        W81683   1.278  13.318  14.877
16523W        W81684  37.329  35.099   1.226
16524W        W81685  39.063  24.462  12.418
16525W        W81686  29.510  38.036   3.597
16526W        W81687  31.690  28.034   0.816
16527W        W81688  22.087  42.076  11.884
16528W        W81689  27.724  29.950  14.389
16529W        W81690  36.637  40.060   3.594
16530W        W81691  29.344   4.321   0.314
16531W        W81692  21.300  42.932  11.953
16532W        W81693  30.234  10.556   3.852
16533W        W81694  10.049  34.565   4.708
16534W        W81695  43.960  34.329  10.012
16535W        W81696  20.111   9.654  11.910
16536W        W81697  28.133  39.983   5.013
16537W        W81698  10.835  30.457   4.510
16538W        W81699  32.067   0.268  11.586
16539W        W81700   7.954  17.196  14.693
16540W        W81701  44.860   3.670   0.801
16541W        W81702  31.686  36.367   2.254
16542W        W81703   1.007  39.451  13.793
16543W        W81704  30.949  19.343  10.765
16544W        W81705  21.720   9.292  11.998
16545W        W81706  37.042  13.223   3.658
16546W        W81707  28.703  44.101  13.276
16547W        W81708  17.791  36.076  10.660
16548W        W81709  42.797  43.457  14.427
16549W        W81710   1.532   8.605  10.765
16550W        W81711  37.286  40.577   2.226
16551W        W81712  20.641   2.494   3.143
16552W        W81713  17.623  21.162   1.783
16553W        W81714  21.560  12.276   0.765
16554W        W81715  33.481  18.818   4.912
16555W        W81716  42.992  18.532   1.792
16556W        W81717   9.150   7.050   2.421
16557W        W81718  20.093  10.828  10.605
16558W        W81719  17.078   3.735   0.749
16559W        W81720   2.174   7.963  12.608
16560W        W81721  42.566  31.009  12.581
16561W        W81722  44.321   6.375  11.930
16562W        W81723  44.043  25.220   3.835
16563W        W81724  22.082  35.058   0.809
16564W        W81725  39.640  23.945   1.821
16565W        W81726   6.218  12.304  11.636
16566W        W81727   5.882   7.471   4.270
16567W        W81728  20.793  32.550   2.709
16568W        W81729   7.469  33.116   2.271
16569W        W81730   2.352  17.407   4.718
16570W        W81731  12.162  44.987  11.676
16571W        W81732   2.186  43.279   0.254
16572W        W81733   3.359  28.285  13.367
16573W        W81734   3.676   6.764   2.358
16574W        W81735   9.686  23.529   2.147
16575W        W81736  12.592  32.538   1.471
16576W        W81737  18.093  11.383   0.363
16577W        W81738  29.157   0.224  14.323
16578W        W81739  35.510  21.104  14.486
16579W        W81740   8.783  27.386  12.887
16580W        W81741  43.894   3.847   3.028
16581W        W81742  26.695  31.543   4.362
16582W        W81743  15.098  17.380   0.887
16583W        W81744  42.858   9.171   4.601
16584W        W81745  38.837  14.333  13.382
16585W        W81746  42.614  12.706   4.153
16586W        W81747   0.843   7.619   0.933
16587W        W81748  32.070  28.356  13.120
16588W        W81749   1.007  43.334   3.559
16589W        W81750   1.792  16.519   0.011
16590W        W81751  21.606  36.499   3.178
16591W        W81752   4.662   1.509  10.396
16592W        W81753  11.224   2.820  13.276
16593W        W81754  35.555  35.610   3.508
16594W        W81755  20.957  28.705  12.118
16595W        W81756  37.185  38.486  11.802
16596W        W81757  35.952  33.393  11.190
16597W        W81758  19.807  14.744  13.834
16598W        W81759  25.721  35.108   3.665
16599W        W81760  26.410  38.957   3.615
16600W        W81761   8.252  25.231   0.934
16601W        W81762  32.309   1.195  14.731
16602W        W81763  41.419  10.112   1.428
16603W        W81764  33.180  17.762   0.265
16604W        W81765  37.542   9.050   1.803
16605W        W81766  31.682   8.082  12.635
16606W        W81767  26.674  32.400  14.467
16607W        W81768  22.315   2.199   1.257
16608W        W81769   8.485  30.932   0.960
16609W        W81770  32.641  34.056   4.687
16610W        W81771  44.855  42.776  13.023
16611W        W81772  37.902  36.059  12.657
16612W        W81773  41.852  37.803  11.151
16613W        W81774  16.310  38.647  12.543
16614W        W81775  39.567  38.973   3.086
16615W        W81776  31.880  41.334  12.928
16616W        W81777  10.130  20.118  13.498
16617W        W81778   2.449  39.489  14.573
16618W        W81779   7.646   0.483  14.613
16619W        W81780  36.352  37.242   5.165
16620W        W81781  29.062  11.916  14.970
16621W        W81782  13.350  30.517  14.619
16622W        W81783   3.304  23.873   2.847
16623W        W81784  34.566  15.580  14.919
16624W        W81785  25.123  43.956  12.912
16625W        W81786  34.448  39.442   3.216
16626W        W81787   1.263  37.421  12.516
16627W        W81788  16.327  39.563   3.214
16628W        W81789  43.150  21.896   3.267
16629W        W81790   0.745  14.498  14.428
16630W        W81791   7.204  13.567  14.418
16631W        W81792  22.761  38.002   3.712
16632W        W81793   0.761  12.804  12.499
16633W        W81794  26.562  43.281  13.330
16634W        W81795  40.318  32.840  13.835
16635W        W81796   9.203   9.423   4.986
16636W        W81797  35.117   6.230  12.969
16637W        W81798  20.715  13.298   4.257
16638W        W81799  17.885  42.221   4.124
16639W        W81800   9.670  20.386   2.536
16640W        W81801  37.960  36.313  10.624
16641W        W81802   2.274  11.417   3.978
16642W        W81803  35.831  15.250  11.200
16643W        W81804  18.139  11.371   1.864
16644W        W81805   2.660  34.907   1.741
16645W        W81806   4.170  27.637   1.733
16646W        W81807   8.191  28.484   1.759
16647W        W81808   4.867  14.248   3.163
16648W        W81809  23.080  24.146   3.160
16649W        W81810  41.461  14.427   1.885
16650W        W81811  21.465  16.757   0.780
16651W        W81812  23.096  14.194   0.355
16652W        W81813  32.293  36.291  12.904
16653W        W81814  39.378  19.580   1.818
16654W        W81815  30.674  12.202  11.735
16655W        W81816  18.765  41.760   1.671
16656W        W81817  33.198  35.606   1.752
16657W        W81818  30.879  28.230  11.004
16658W        W81819   5.925   3.818   4.531
16659W        W81820  29.115  43.492  11.489
16660W        W81821  26.889  40.072  12.513
16661W        W81822  19.359  39.863  10.469
16662W        W81823   3.196   9.443  12.959
16663W        W81824   1.293  17.158   2.661
16664W        W81825  28.907  17.872   2.840
16665W        W81826  21.076  31.005  14.838
16666W        W81827  23.576   7.941   0.061
16667W        W81828   4.874  11.903  13.636
16668W        W81829  42.556  23.126   1.805
16669W        W81830  38.070   9.374  14.478
16670W        W81831  41.597  26.122   4.710
16671W        W81832  11.890  26.120  14.827
16672W        W81833  27.607  40.902  12.155
16673W        W81834  26.282   5.132   4.050
16674W        W81835   4.075  26.617  11.698
16675W        W81836   2.167  30.583  12.935
16676W        W81837  10.986  10.462  10.755
16677W        W81838  41.335  18.745   4.641
16678W        W81839  32.493  14.812  11.035
16679W        W81840  16.816  30.533   0.203
16680W        W81841  34.060   8.709  14.279
16681W        W81842  31.107  12.707   3.799
16682W        W81843  14.026  43.305   1.853
16683W        W81844  40.687  16.247   1.983
16684W        W81845  22.828  13.258  11.583
16685W        W81846  20.279  43.390  14.978
16686W        W81847  17.051  38.543  13.823
16687W        W81848  12.034  35.188  11.118
16688W        W81849  34.031  22.097  12.963
16689W        W81850   9.120  17.014   5.069
16690W        W81851  24.141  18.735  14.336
16691W        W81852  34.647   9.302  13.728
16692W        W81853  39.458  18.089  10.759
16693W        W81854  39.940  22.736   1.267
16694W        W81855   3.819   4.965  14.936
16695W        W81856   4.029  35.283   4.296
16696W        W81857  30.067  15.847  14.307
16697W        W81858  40.040  16.038   1.897
16698W        W81859  15.258   1.182  13.893
16699W        W81860  12.849  16.783  13.487
16700W        W81861  43.170  34.972  11.340
16701W        W81862  14.101   1.438  13.830
16702W        W81863  36.782  21.296   4.771
16703W        W81864  17.530  25.062  14.818
16704W        W81865  28.496  36.325  12.899
16705W        W81866  38.947  26.078  13.626
16706W        W81867  33.622  14.364  13.141
16707W        W81868  12.349  27.467   3.306
16708W        W81869   2.729  23.667   0.801
16709W        W81870  39.128  14.159   2.590
16710W        W81871   2.465  38.715  12.175
16711W        W81872  41.057   1.942   4.518
16712W        W81873   3.627   5.193  11.378
16713W        W81874   0.978  30.602   2.712
16714W        W81875  24.313  40.374  11.988
16715W        W81876  17.028  21.214  11.976
16716W        W81877  10.797  27.509   0.961
16717W        W81878  13.148  32.548   0.885
16718W        W81879  26.001  27.029  10.728
16719W        W81880  15.541  28.717  11.650
16720W        W81881  15.875   2.211   3.405
16721W        W81882  24.954   8.450   0.730
16722W        W81883  21.350   7.521   2.924
16723W        W81884  28.293   0.044  11.092
16724W        W81885  10.920   9.713  13.129
16725W        W81886  15.198  20.829   1.489
16726W        W81887  41.686  17.136   1.964
16727W        W81888   2.030  36.991   2.270
16728W        W81889  34.636   5.443   2.820
16729W        W81890   3.857  11.586  11.982
16730W        W81891  29.055  38.043  14.379
16731W        W81892  34.984  18.444  14.852
16732W        W81893  20.127   2.236  12.977
16733W        W81894  27.189  22.750   0.842
16734W        W81895  40.294   9.695  13.398
16735W        W81896  32.251  37.202   0.383
16736W        W81897  15.183   9.262   4.335
16737W        W81898   2.897  42.974   3.792
16738W        W81899  26.224   7.796   3.371
16739W        W81900  14.839  32.079  12.895
16740W        W81901   2.753   4.237   4.511
16741W        W81902  33.781   9.473  11.098
16742W        W81903   7.445  34.557  14.028
16743W        W81904  28.945  18.704  13.358
16744W        W81905  13.319  22.759  12.885
16745W        W81906   0.911  44.501   5.435
16746W        W81907  32.193  27.041   1.880
16747W        W81908   4.183  44.731   2.232
16748W        W81909  22.317  29.633  11.377
16749W        W81910  20.995  33.556  12.956
16750W        W81911   6.388  30.479   2.565
16751W        W81912  22.060  26.191   0.626
16752W        W81913  32.429  21.037   3.673
16753W        W81914   0.497   9.913  13.257
16754W        W81915  30.191  33.185  13.487
16755W        W81916  33.595  12.758  13.549
16756W        W81917   5.868   9.503  14.766
16757W        W81918  20.109  33.117   2.824
16758W        W81919   0.133  30.535   1.253
16759W        W81920  11.113   2.997   1.259
16760W        W81921  29.699   5.777  10.541
16761W        W81922   7.851  30.923  10.487
16762W        W81923   9.676  28.891   3.243
16763W        W81924  31.725   6.657   0.249
16764W        W81925   5.458   9.821  14.740
16765W        W81926   3.928   2.266   0.630
16766W        W81927   7.624   5.274   2.897
16767W        W81928  36.122  28.029   2.847
16768W        W81929  31.405  37.095   3.708
16769W        W81930  11.247  25.228  12.053
16770W        W81931  39.137  19.740   1.368
16771W        W81932  36.074   1.356  10.565
16772W        W81933  13.937  25.905  14.415
16773W        W81934   3.165  42.538  14.437
16774W        W81935   7.863  41.700   4.139
16775W        W81936  11.611  19.617   2.135
16776W        W81937  31.166   7.342   2.662
16777W        W81938  23.407   0.225   4.580
16778W        W81939  27.611   6.996  10.362
16779W        W81940  31.667  20.528  14.048
16780W        W81941   7.106  25.301  12.613
16781W        W81942  37.039  19.755   4.338
16782W        W81943  19.371   1.668   3.365
16783W        W81944  40.104  25.193  14.243
16784W        W81945   4.746   7.376  10.178
16785W        W81946  11.215  21.342  12.891
16786W        W81947  28.061  25.413   2.784
16787W        W81948   2.841  35.050   4.094
16788W        W81949  33.061  33.764  14.788
16789W        W81950  10.527  13.325   0.376
16790W        W81951   3.794   4.712   4.116
16791W        W81952  18.973  44.302  14.996
16792W        W81953   8.256  40.256  14.927
16793W        W81954  44.453   9.160  14.789
16794W        W81955  35.939  20.938   5.099
16795W        W81956  19.941  12.329  12.443
16796W        W81957  38.229  10.566  14.768
16797W        W81958  16.194   8.131   0.823
16798W        W81959  43.442  37.469  12.446
16799W        W81960  41.851  18.709   4.830
16800W        W81961  11.304  16.583  13.367
16801W        W81962  20.085  19.305   2.759
16802W        W81963   2.943   3.031  14.350
16803W        W81964  42.643  28.445  12.859
16804W        W81965  31.334  12.589  10.090
16805W        W81966  37.214   8.794  11.257
16806W        W81967  39.403  27.474   2.760
16807W        W81968   4.463  35.060   1.272
16808W        W81969  37.521  43.937  10.680
16809W        W81970  27.004  37.016  14.769
16810W        W81971  33.319  35.906   2.335
16811W        W81972   5.287  38.773  14.011
16812W        W81973   5.251  30.772   0.356
16813W        W81974  43.350  38.875   2.375
16814W        W81975  31.595  34.550  11.582
16815W        W81976  20.219  24.719   3.169
16816W        W81977  35.981  34.689   0.474
16817W        W81978   1.248  24.498   1.341
16818W        W81979  31.755  35.289   3.271
16819W        W81980   5.812  20.567   2.413
16820W        W81981  11.786  32.500  13.717
16821W        W81982  29.285  17.540   0.698
16822W        W81983  11.550  28.097  10.356
16823W        W81984  17.351  28.226   3.981
16824W        W81985  44.396  38.542  14.473
16825W        W81986  32.517  42.622  10.110
16826W        W81987  24.880  11.491  12.243
16827W        W81988   7.736   9.683  10.851
16828W        W81989  33.703  32.601  13.318
16829W        W81990  17.110  14.271   4.750
16830W        W81991   3.684   1.046  11.601
16831W        W81992  25.373  22.987  14.947
16832W        W81993  15.878   5.767   3.627
16833W        W81994  27.379   2.529   1.564
16834W        W81995  20.555   3.530   1.767
16835W        W81996  21.175   4.634  11.147
16836W        W81997  19.839   7.186   4.145
16837W        W81998   0.002  34.381   2.617
16838W        W81999  27.803  42.908   3.198
16839W        W82000  35.761  20.003  11.565
16840W        W82001   5.453  44.233  11.952
16841W        W82002  19.047  27.473   0.043
16842W        W82003   2.921   5.120   0.885
16843W        W82004  32.610  23.179  13.794
16844W        W82005   3.807  10.172  13.934
16845W        W82006  35.651  19.242   3.401
16846W        W82007   3.360  35.948  10.514
16847W        W82008  29.439  14.030  12.396
16848W        W82009  20.121  40.079   5.022
16849W        W82010   4.669  37.901   3.290
16850W        W82011  38.242  14.635   0.527
16851W        W82012  25.076  11.291   2.945
16852W        W82013  31.595  30.174  11.651
16853W        W82014  11.345  11.619  13.760
16854W        W82015   1.012  35.185   0.936
16855W        W82016  33.406  37.378   9.960
16856W        W82017  21.238  25.544  11.394
16857W        W82018  25.476   5.239   3.602
16858W        W82019  14.787   5.940  10.423
16859W        W82020  35.016  23.493   0.149
16860W        W82021   3.277   9.404   4.246
16861W        W82022  28.153  15.821   4.606
16862W        W82023  37.446  29.407  14.943
16863W        W82024  33.729  28.997   0.247
16864W        W82025  21.127  17.619  10.119
16865W        W82026  37.869  44.081   0.780
16866W        W82027  37.804  26.065   4.604
16867W        W82028   8.175  33.137  12.575
16868W        W82029  26.826  43.870  12.385
16869W        W82030  43.396  24.225  13.557
16870W        W82031  26.975  15.838  13.981
16871W        W82032  21.191  38.044   1.250
16872W        W82033   3.966  35.816  12.044
16873W        W82034  14.800  30.676   3.348
16874W        W82035   5.301   5.103  10.280
16875W        W82036  24.998  27.164  11.973
16876W        W82037  11.614  23.662   3.355
16877W        W82038  25.808  11.651  14.481
16878W        W82039  13.012  41.551  11.424
16879W        W82040  10.214  14.384   2.357
16880W        W82041  21.407   5.871   3.114
16881W        W82042  36.378  10.345  12.305
16882W        W82043  38.112  27.323   4.265
16883W        W82044  34.948  41.916   4.957
16884W        W82045   6.356  26.710   0.329
16885W        W82046   9.666  15.726   3.263
16886W        W82047  44.870  36.301  14.906
16887W        W82048  19.960   2.861  14.322
16888W        W82049  41.952  25.443  12.543
16889W        W82050  33.139  44.431  14.917
16890W        W82051  17.025  43.584   3.204
16891W        W82052   2.949  43.545   3.849
16892W        W82053  18.775  30.591  11.826
16893W        W82054  43.236  25.465   3.646
16894W        W82055  14.816  41.656  11.851
16895W        W82056  34.701  29.642   0.886
16896W        W82057  28.214  23.697   3.220
16897W        W82058  16.574  21.988   1.371
16898W        W82059  24.511   9.415   4.583
16899W        W82060  12.305  24.093  11.002
16900W        W82061  24.499  41.869   1.891
16901W        W82062  19.623  27.634  12.444
16902W        W82063  15.599  43.773   1.337
16903W        W82064  10.757  24.296   0.439
16904W        W82065  35.035  41.981   1.428
16905W        W82066  32.510  31.750  12.941
16906W        W82067  32.854  19.296   0.507
16907W        W82068  24.584  18.572   2.501
16908W        W82069  29.114  17.386   2.836
16909W        W82070  34.358  15.732  13.395
16910W        W82071  32.066   3.555  12.777
16911W        W82072  39.239  12.729  11.457
16912W        W82073  27.521  22.351   2.896
16913W        W82074  11.208   8.723  11.596
16914W        W82075  32.013  40.527   0.430
16915W        W82076   7.793  19.797  13.441
16916W        W82077  41.981   5.843  12.554
16917W        W82078  10.294  19.845  13.955
16918W        W82079  43.965   7.504  10.819
16919W        W82080  19.093  28.663   4.750
16920W        W82081   8.137  38.366   2.118
16921W        W82082  16.055  38.108  10.689
16922W        W82083  19.051  11.772   1.960
16923W        W82084   2.660  28.841  14.483
16924W        W82085  10.912  26.020   1.227
16925W        W82086   6.190  37.474   3.219
16926W        W82087   2.817  16.360  10.642
16927W        W82088  40.647  34.038   0.193
16928W        W82089  10.784   8.111   0.198
16929W        W82090  15.603  41.316  13.469
16930W        W82091   3.883  41.717   1.908
16931W        W82092   6.377   6.494   9.999
16932W        W82093  39.139   4.218   3.778
16933W        W82094  26.533  33.105  12.988
16934W        W82095   2.805  26.912  14.938
16935W        W82096  31.088  31.324   3.651
16936W        W82097  17.209  33.851  13.421
16937W        W82098  35.111   7.324   4.007
16938W        W82099  25.594  28.047   0.127
16939W        W82100  32.431  34.500   4.465
16940W        W82101  10.489  26.061   2.643
16941W        W82102   4.184   7.253  14.998
16942W        W82103  33.768   9.178   3.145
16943W        W82104  14.226  25.097  14.542
16944W        W82105  43.376  30.644   3.504
16945W        W82106  22.475  32.933   0.435
16946W        W82107  30.675   1.721  14.452
16947W        W82108   9.360  12.762   1.686
16948W        W82109  14.329  16.161   1.291
16949W        W82110   5.859  40.451  14.794
16950W        W82111  38.707  37.294  11.933
16951W        W82112  28.548  29.812  12.546
16952W        W82113  10.814  11.410  10.322
16953W        W82114  43.303  37.828  11.981
16954W        W82115  20.838  21.112   1.608
16955W        W82116  38.645  17.295  12.074
16956W        W82117  24.896  41.482   4.822
16957W        W82118  11.667  32.763   1.220
16958W        W82119  35.974  20.526  12.119
16959W        W82120  25.983  31.187  12.474
16960W        W82121  14.109  30.743  12.496
16961W        W82122  15.488   7.887  10.708
16962W        W82123  27.543  31.017   3.254
16963W        W82124  23.509  20.039   1.753
16964W        W82125   6.287  28.924   1.779
16965W        W82126  39.912   0.915   4.472
16966W        W82127  38.043  40.893   0.643
16967W        W82128  22.957  26.636  11.139
16968W        W82129  43.954  27.701  13.060
16969W        W82130  14.176  21.728  14.981
16970W        W82131  18.013   5.212  14.502
16971W        W82132  38.803  44.969  12.962
16972W        W82133   8.724  13.237  14.289
16973W        W82134  44.337  24.133  10.990
16974W        W82135  37.486   5.138   4.576
16975W        W82136  12.100  14.169  12.610
16976W        W82137   0.963   5.336   0.173
16977W        W82138   2.388  19.208  10.922
16978W        W82139  30.802  18.786   4.033
16979W        W82140  23.020   4.934  11.073
16980W        W82141  12.711  34.943   1.899
16981W        W82142  40.942  20.167  14.542
16982W        W82143  10.824  21.995  11.953
16983W        W82144   1.147  36.041   2.569
16984W        W82145   5.225  23.208   0.947
16985W        W82146  18.386   1.755  10.726
16986W        W82147  33.853  10.360  12.034
16987W        W82148   1.438  44.574   2.658
16988W        W82149  27.497   5.873  11.000
16989W        W82150  17.207  11.077  12.435
16990W        W82151  27.715  37.269  11.344
16991W        W82152   9.913  34.555   2.714
16992W        W82153  19.609   7.716   2.802
16993W        W82154   2.340  21.097  11.917
16994W        W82155  16.840  35.390  12.300
16995W        W82156  40.781  40.365  12.679
16996W        W82157  14.289   8.231  10.954
16997W        W82158   6.853  29.523  13.363
16998W        W82159  19.626  21.491  11.438
16999W        W82160  33.966  28.531   0.341
17000W        W82161  25.942  16.243   1.012
17001W        W82162  14.670  28.432   1.758
17002W        W82163  25.101   8.813   2.609
17003W        W82164  12.335  31.081  10.740
17004W        W82165   1.347  38.799   2.188
17005W        W82166  25.630  21.134   2.411
17006W        W82167  13.028   3.928  11.681
17007W        W82168  28.510  26.717   3.883
17008W        W82169  44.386  28.569  11.938
17009W        W82170  39.585  28.962  14.246
17010W        W82171  42.544  32.628  14.360
17011W        W82172  17.008  10.157  14.410
17012W        W82173  36.001   7.743  10.838
17013W        W82174  41.318   4.516   4.504
17014W        W82175  17.376  22.324   3.640
17015W        W82176  17.669   2.811   3.846
17016W        W82177  23.511  33.395  10.718
17017W        W82178   0.549  14.127  12.820
17018W        W82179  38.957  29.507   3.449
17019W        W82180  33.454  36.586  12.065
17020W        W82181  18.194  42.076  12.926
17021W        W82182  27.026  30.854   3.108
17022W        W82183  25.552  15.667  11.660
17023W        W82184  25.082   0.181   0.357
17024W        W82185  19.757   3.794   3.901
17025W        W82186  32.493  34.825  11.516
17026W        W82187  28.548  38.277   4.818
17027W        W82188  38.569  36.552   1.737
17028W        W82189   3.323  10.431   1.781
17029W        W82190  38.656  35.736   4.915
17030W        W82191  23.956  28.034   3.288
17031W        W82192  21.952   4.814  12.145
17032W        W82193  26.535  22.753  13.647
17033W        W82194  25.651  10.353   3.646
17034W        W82195   5.296   3.882   1.805
17035W        W82196  15.559  25.490  14.353
17036W        W82197  11.141  44.403   2.158
17037W        W82198  19.025  15.221  13.908
17038W        W82199  12.595  28.011  13.902
17039W        W82200   5.668  13.815  11.634
17040W        W82201  39.274  24.009  14.471
17041W        W82202  43.518  26.645   4.421
17042W        W82203  11.035   7.425  13.425
17043W        W82204  24.005  23.180  13.635
17044W        W82205  23.133   7.825   2.873
17045W        W82206  21.479  32.813   3.804
17046W        W82207  20.165  31.558  13.638
17047W        W82208   6.245  35.731  14.921
17048W        W82209   7.479  34.592   4.527
17049W        W82210  21.082  26.416  14.862
17050W        W82211  22.068  40.862   0.797
17051W        W82212  34.981  42.192  14.541
17052W        W82213  23.250   8.703  13.912
17053W        W82214  13.560  22.658   4.312
17054W        W82215  37.880  42.392   2.931
17055W        W82216  18.794  33.557  12.961
17056W        W82217   0.793  44.772   1.821
17057W        W82218  38.094   2.811   0.869
17058W        W82219  19.759  44.090   4.885
17059W        W82220  29.210  14.712   4.615
17060W        W82221  15.150   5.910   0.707
17061W        W82222   4.128  39.136  12.831
17062W        W82223  28.399  19.561   5.044
17063W        W82224  16.557  24.224  14.956
17064W        W82225  31.719  34.134  13.462
17065W        W82226   7.748   8.758   0.293
17066W        W82227  22.153  16.182  14.862
17067W        W82228  12.338  13.364  10.595
17068W        W82229   9.855  41.807  10.982
17069W        W82230  42.423  39.015   2.683
17070W        W82231  37.926  30.632  14.769
17071W        W82232  43.538  32.045   0.498
17072W        W82233  34.344   0.522   3.643
17073W        W82234   8.562  26.224   1.251
17074W        W82235  14.880  20.813  10.513
17075W        W82236   3.054  33.021  14.899
17076W        W82237  28.544   1.900   1.237
17077W        W82238  24.520   7.450  14.406
17078W        W82239  21.254  15.289   3.583
17079W        W82240   8.159  11.341   0.893
17080W        W82241  34.631  13.067  13.556
17081W        W82242   8.754  42.080   1.993
17082W        W82243  24.119  21.709   1.515
17083W        W82244  19.499   1.776  13.021
17084W        W82245  35.017   1.489  12.093
17085W        W82246  10.794  18.345  11.512
17086W        W82247  22.565   1.916  13.119
17087W        W82248  31.798  34.584   0.323
17088W        W82249   1.045  16.429  14.019
17089W        W82250  13.973  14.394  11.069
17090W        W82251   8.358   3.699  11.912
17091W        W82252  16.588  16.635   1.690
17092W        W82253  15.985   4.803  12.334
17093W        W82254   0.285  31.020   1.178
17094W        W82255   7.885  27.678  14.432
17095W        W82256  24.029   7.417   3.657
17096W        W82257   2.834  33.971   3.681
17097W        W82258  20.285  35.572   4.578
17098W        W82259  39.871  27.992   1.120
17099W        W82260  42.531  41.723  14.027
17100W        W82261  19.615   9.081   1.967
17101W        W82262  14.146  16.861  11.240
17102W        W82263  30.324   3.446  14.946
17103W        W82264  29.040  20.345  11.158
17104W        W82265  15.573  19.833  10.958
17105W        W82266  22.732  28.161   0.957
17106W        W82267  31.378  27.174  12.074
17107W        W82268  28.589   9.266  10.576
17108W        W82269  31.208   9.658   4.582
17109W        W82270  22.205   5.350  14.371
17110W        W82271  14.825  30.979   4.584
17111W        W82272   0.808  31.424   1.910
17112W        W82273  19.178  39.423  11.680
17113W        W82274  15.995   3.106  13.466
17114W        W82275   1.486  43.265   3.836
17115W        W82276   5.770   4.713   1.622
17116W        W82277   9.326  42.714   4.491
17117W        W82278  13.785  29.746  11.914
17118W        W82279  34.343  30.519  13.809
17119W        W82280   3.212  33.536   3.268
17120W        W82281  39.132  23.059  14.253
17121W        W82282   6.819   3.409   5.486
17122W        W82283  17.342  44.350  11.961
17123W        W82284  37.586  39.516   3.846
17124W        W82285   6.824  26.639   2.597
17125W        W82286  35.598  43.701   2.784
17126W        W82287  31.234  28.222  11.387
17127W        W82288  16.223   9.670   1.039
17128W        W82289   6.288  13.436  12.823
17129W        W82290  13.819  43.116   4.606
17130W        W82291   1.561   8.690  14.378
17131W        W82292  36.961  23.676   2.188
17132W        W82293   2.746  43.851  11.587
17133W        W82294  30.002  40.501  14.503
17134W        W82295  22.974  32.101   0.207
17135W        W82296  40.442   6.677  12.443
17136W        W82297  27.472  44.898   0.167
17137W        W82298   8.676  11.279  10.722
17138W        W82299  41.481  33.929  12.874
17139W        W82300  18.707  10.055  14.384
17140W        W82301   4.938  11.975   1.973
17141W        W82302  21.600   1.959  10.711
17142W        W82303  30.026   5.640   0.838
17143W        W82304  14.822  38.431  11.565
17144W        W82305  14.908  15.760   9.863
17145W        W82306  28.420  21.046   4.274
17146W        W82307  38.401  26.470  14.777
17147W        W82308  11.786   7.792   4.464
17148W        W82309   7.675  38.529   1.868
17149W        W82310   1.835   4.345   3.263
17150W        W82311  43.381  34.501  11.195
17151W        W82312  41.484  28.035  11.472
17152W        W82313  16.851  28.719  13.912
17153W        W82314  41.491  42.871   2.256
17154W        W82315  40.628  18.598   1.676
17155W        W82316  26.255   9.422   1.239
17156W        W82317  13.194   8.847  12.929
17157W        W82318   7.629  11.245   0.931
17158W        W82319  29.677  35.148  11.195
17159W        W82320  17.633  17.444   1.979
17160W        W82321  11.210  26.246  12.948
17161W        W82322  11.271  42.819   5.207
17162W        W82323  43.430  18.241  12.808
17163W        W82324  14.579  41.062   0.608
17164W        W82325   0.988  18.222   9.842
17165W        W82326  44.761  14.599  13.309
17166W        W82327  15.786  41.810  11.443
17167W        W82328  31.799  19.047   1.725
17168W        W82329  44.647  33.394   4.584
17169W        W82330  10.085  27.448  11.590
17170W        W82331  34.263  20.675  10.534
17171W        W82332  31.207  35.391   2.295
17172W        W82333  38.307  39.962  12.823
17173W        W82334  38.964  12.298  11.585
17174W        W82335  10.352  23.549   3.676
17175W        W82336  18.444  16.544   1.195
17176W        W82337  30.043  30.388   0.297
17177W        W82338   1.904   3.237  10.661
17178W        W82339  17.017  13.755   3.737
17179W        W82340  20.073  26.473   0.731
17180W        W82341  41.345  41.877   4.744
17181W        W82342   9.689  28.449  13.707
17182W        W82343  41.836  17.582   1.750
17183W        W82344  12.608  18.639   4.170
17184W        W82345  31.220  31.382  11.024
17185W        W82346  22.415  29.986   1.314
17186W        W82347  35.550  14.210  13.587
17187W        W82348  16.084   0.794   1.471
17188W        W82349  14.199   2.888  11.784
17189W        W82350  23.223  31.776  11.605
17190W        W82351  12.730  19.038  14.358
17191W        W82352  27.544  23.578   0.562
17192W        W82353  36.979  23.741  13.512
17193W        W82354   5.737  36.663  14.128
17194W        W82355   8.932  44.588   5.016
17195W        W82356  42.767  24.990  14.408
17196W        W82357  30.850  31.044  14.867
17197W        W82358   1.363  33.118   1.757
17198W        W82359   1.423   2.433   2.840
17199W        W82360  17.311   4.942   4.722
17200W        W82361  26.463  25.421  12.381
17201W        W82362  26.215  29.059  11.699
17202W        W82363  43.325   8.442  10.389
17203W        W82364  39.065  21.547   2.727
17204W        W82365  11.836  40.008  13.194
17205W        W82366  17.167   1.931   3.052
17206W        W82367  17.540  14.288  13.019
17207W        W82368   8.394   2.905  14.412
17208W        W82369  20.260  38.210   3.749
17209W        W82370  31.653  43.779  14.391
17210W        W82371   5.761  12.335   2.401
17211W        W82372  35.814  32.981   4.132
17212W        W82373  18.740   4.796   3.680
17213W        W82374  36.566  20.685   2.642
17214W        W82375  35.324  32.392   0.441
17215W        W82376  38.546  36.488  11.650
17216W        W82377  16.740   4.348   4.091
17217W        W82378  36.518  29.734   4.677
17218W        W82379   5.687  41.045  13.802
17219W        W82380   8.889  28.845  14.305
17220W        W82381  28.057  18.063  11.461
17221W        W82382  39.869  30.944  11.449
17222W        W82383  26.634  36.642   2.388
17223W        W82384  23.232   1.200   3.330
17224W        W82385  10.454   5.157  10.273
17225W        W82386  13.128  19.936   2.320
17226W        W82387  37.072  29.403   2.330
17227W        W82388  21.319  10.350   0.890
17228W        W82389  31.912  26.579   1.098
17229W        W82390  39.964  10.576  13.560
17230W        W82391  15.922  21.502   4.371
17231W        W82392  20.154   8.457   3.720
17232W        W82393   6.811   8.584  14.905
17233W        W82394  15.974  18.251   0.261
17234W        W82395  29.409   9.177   0.484
17235W        W82396  36.126  11.951   4.410
17236W        W82397  28.196  34.448  11.222
17237W        W82398   8.793  43.042   3.899
17238W        W82399  14.035   2.004  14.006
17239W        W82400  21.667  43.975   3.150
17240W        W82401  11.278   1.979   3.283
17241W        W82402  20.488   5.629  14.935
17242W        W82403  23.233  13.061   0.295
17243W        W82404  42.933  12.848  14.426
17244W        W82405  11.812  41.415   4.890
17245W        W82406   2.508  24.656  11.122
17246W        W82407  12.128  32.395   2.887
17247W        W82408  13.488  10.240   0.476
17248W        W82409   0.495  23.156   1.467
17249W        W82410  42.854  18.152  10.832
17250W        W82411  13.633  37.470   1.450
17251W        W82412  27.769  20.983  10.765
17252W        W82413  43.327  44.787   0.941
17253W        W82414  31.083   5.662  14.381
17254W        W82415  42.548  44.425   2.963
17255W        W82416  24.300  15.726  13.020
17256W        W82417  12.494  32.532  14.561
17257W        W82418  23.047  15.442  10.166
17258W        W82419   2.676  44.916  14.479
17259W        W82420  32.155  36.690   2.127
17260W        W82421  13.254  27.921   3.085
17261W        W82422  29.588  18.503   0.840
17262W        W82423  20.670  16.928   3.452
17263W        W82424  18.531  10.159   3.789
17264W        W82425   3.689   6.767  13.813
17265W        W82426   7.661  36.194   4.089
17266W        W82427  26.377  22.565   4.609
17267W        W82428  37.170  41.764   0.505
17268W        W82429  27.559  23.928   0.987
17269W        W82430  32.621  25.245   1.246
17270W        W82431   1.650  42.867  11.613
17271W        W82432  39.327  24.680  12.802
17272W        W82433  28.208  43.900   3.190
17273W        W82434  11.030  41.533  11.069
17274W        W82435   6.856  30.136  14.861
17275W        W82436  33.681  17.539   3.572
17276W        W82437  10.856  15.227   3.863
17277W        W82438   9.300  42.024  12.659
17278W        W82439  36.567  19.651  13.353
17279W        W82440   4.861   5.412   3.588
17280W        W82441  35.464  17.955   2.580
17281W        W82442  29.602  13.721  10.257
17282W        W82443  25.577   6.654  13.838
17283W        W82444  36.875  35.169   0.372
17284W        W82445   2.116  39.896  14.526
17285W        W82446  20.256  19.781  11.809
17286W        W82447  39.134  14.012  14.409
17287W        W82448  42.600  33.011   0.622
17288W        W82449  19.009  22.976  12.349
17289W        W82450  39.445  30.730  11.198
17290W        W82451   3.481   3.815  13.798
17291W        W82452   7.104  10.014  14.657
17292W        W82453  15.068  16.282   9.887
17293W        W82454  25.523   0.091   2.658
17294W        W82455  23.129  19.468   3.319
17295W        W82456  27.388  18.734  12.479
17296W        W82457  30.018  35.426  14.018
17297W        W82458  32.061  33.130  13.503
17298W        W82459  11.360  34.985  10.449
17299W        W82460  38.727  37.643  10.752
17300W        W82461  12.716  13.854  12.911
17301W        W82462  25.935  40.498   0.892
17302W        W82463  41.263   1.387  12.338
17303W        W82464  43.415  18.013  13.759
17304W        W82465  28.137  44.575  13.672
17305W        W82466  29.540  20.975  13.573
17306W        W82467   9.620  14.313   0.897
17307W        W82468  25.614   3.354   2.390
17308W        W82469  17.683  30.478   0.771
17309W        W82470  16.888  10.733   3.794
17310W        W82471   3.148  40.783   2.290
17311W        W82472  20.175   3.652   0.174
17312W        W82473  22.548  30.865   2.955
17313W        W82474   1.915  12.854  11.446
17314W        W82475  34.622  23.077  13.064
17315W        W82476   4.827   9.861   0.276
17316W        W82477  21.697  21.888  14.088
17317W        W82478  38.876  39.102  13.929
17318W        W82479  20.393   0.781   3.818
17319W        W82480  13.253  10.406  14.890
17320W        W82481  22.799   5.340  10.245
17321W        W82482  20.901   4.210  11.134
17322W        W82483  32.550  43.494  12.590
17323W        W82484   7.796  23.179   0.871
17324W        W82485  14.352   8.345  12.122
17325W        W82486  22.275   3.196   4.160
17326W        W82487  44.938  30.814  13.469
17327W        W82488  39.151  19.196   4.843
17328W        W82489  28.505  27.945  11.988
17329W        W82490   7.414   4.655   3.606
17330W        W82491  33.569  35.813  11.603
17331W        W82492  32.407  31.962   1.136
17332W        W82493  28.137  13.141  10.692
17333W        W82494  32.472   7.683   4.138
17334W        W82495  30.897  27.440   0.568
17335W        W82496  14.684   0.892   2.668
17336W        W82497  40.124  25.496   0.064
17337W        W82498   6.146  41.799  10.815
17338W        W82499  38.730  31.069  14.097
17339W        W82500  14.297  29.062  14.730
17340W        W82501   0.056  24.363  12.046
17341W        W82502  44.269  12.318  10.856
17342W        W82503  27.588  44.463  13.843
17343W        W82504  14.555  40.118  12.123
17344W        W82505  11.707  39.041  10.639
17345W        W82506  27.848  14.066   2.323
17346W        W82507  34.323  39.555  11.972
17347W        W82508  15.839  12.253  11.611
17348W        W82509  13.241  39.986  11.969
17349W        W82510   3.312  43.506  10.696
17350W        W82511  20.587   5.160   0.925
17351W        W82512  32.134  19.859  14.359
17352W        W82513   5.049  29.486   1.135
17353W        W82514  12.177  40.665  12.877
17354W        W82515  17.693  10.956  14.386
17355W        W82516  35.006  10.004   2.512
17356W        W82517  37.387  11.579   1.840
17357W        W82518  41.488  10.980  13.388
17358W        W82519  40.608  17.526   2.961
17359W        W82520  41.278   5.967  11.519
17360W        W82521  18.772  22.613  12.645
17361W        W82522  35.859  16.612   1.676
17362W        W82523  37.341  37.385  11.068
17363W        W82524  35.376  38.566  13.098
17364W        W82525  42.814   6.473   2.298
17365W        W82526  14.387  42.859  14.259
17366W        W82527  11.809  12.561   0.012
17367W        W82528  13.692  13.828   3.774
17368W        W82529  28.666  40.025   1.116
17369W        W82530  22.331  41.802  11.541
17370W        W82531  22.838  39.380  14.320
17371W        W82532  33.369  14.804   0.394
17372W        W82533  29.570  20.052   3.278
17373W        W82534  30.072  20.579  14.583
17374W        W82535  29.627  34.354   3.939
17375W        W82536  26.226  10.640   1.874
17376W        W82537  39.002  32.058   0.929
17377W        W82538  32.835   2.011  12.164
17378W        W82539  19.996  20.006  11.394
17379W        W82540  23.729  17.824   3.274
17380W        W82541   9.317  27.540  12.015
17381W        W82542  28.819  42.307  11.353
17382W        W82543  11.166  26.682  10.722
17383W        W82544  26.114  40.476  14.149
17384W        W82545  17.307  41.995  14.066
17385W        W82546  35.783  13.936  10.971
17386W        W82547   0.502  37.557  12.852
17387W        W82548  27.088  30.450  10.880
17388W        W82549  17.573  21.964   2.227
17389W        W82550  24.142  23.760  14.979
17390W        W82551  24.192  43.540  13.526
17391W        W82552  40.738  11.656   4.627
17392W        W82553  21.644  25.960  13.782
17393W        W82554   4.883  13.791   4.820
17394W        W82555  29.456  40.806  14.272
17395W        W82556  43.783  17.309   4.131
17396W        W82557   4.417  13.625   3.670
17397W        W82558  30.536  21.110   2.403
17398W        W82559  19.449  31.713  12.114
17399W        W82560  20.704  29.162  12.960
17400W        W82561   1.513  32.031   2.085
17401W        W82562   9.799  24.528  13.343
17402W        W82563   5.975   3.015  14.706
17403W        W82564  28.122  19.656   2.683
17404W        W82565  37.339  27.151   0.857
17405W        W82566  18.218  13.288   1.310
17406W        W82567  25.843   3.224   0.045
17407W        W82568  26.494   6.761  13.996
17408W        W82569   7.891  38.348   4.872
17409W        W82570  32.218  32.673   0.245
17410W        W82571  35.093  33.919  13.934
17411W        W82572  15.905  29.486   1.776
17412W        W82573   6.216  18.532   1.715
17413W        W82574  30.495  20.391   3.073
17414W        W82575  13.493  37.391   0.277
17415W        W82576  36.369   0.516   1.756
17416W        W82577   3.603  10.666  12.523
17417W        W82578  36.213  23.165  11.621
17418W        W82579  38.871   3.917  10.638
17419W        W82580  34.407  23.157  11.396
17420W        W82581   4.459  43.853  10.578
17421W        W82582  43.831  26.618   0.343
17422W        W82583  42.919  40.365   0.229
17423W        W82584  18.801  34.904  14.005
17424W        W82585  25.002  27.984  14.399
17425W        W82586  15.190  11.202   4.759
17426W        W82587  27.960  31.582   0.989
17427W        W82588  37.373   1.412   2.512
17428W        W82589  44.676  43.891  12.294
17429W        W82590  20.843  42.414   1.748
17430W        W82591  40.885  15.182   0.705
17431W        W82592   8.726  12.422   1.619
17432W        W82593  43.506  15.985  11.046
17433W        W82594   2.587  17.616   0.507
17434W        W82595   2.346  41.975  14.773
17435W        W82596  29.007  19.567   1.486
17436W        W82597  32.502  10.654   4.689
17437W        W82598  40.369  34.406  13.975
17438W        W82599  31.417   6.519   3.633
17439W        W82600  36.641  20.196  10.636
17440W        W82601  11.751  37.045   0.427
17441W        W82602   6.220   1.348   2.681
17442W        W82603  35.766  28.181  13.704
17443W        W82604  17.517   8.586  11.205
17444W        W82605  16.271  39.059   5.312
17445W        W82606   6.399  39.933  10.197
17446W        W82607   4.428   5.868  12.902
17447W        W82608  33.486  30.142   3.595
17448W        W82609  29.617   2.836  14.330
17449W        W82610  23.087  25.699  14.061
17450W        W82611  17.087  19.699   3.717
17451W        W82612  10.209  39.264  11.405
17452W        W82613  41.767  31.875  10.288
17453W        W82614  12.273  42.767   3.247
17454W        W82615  25.427  41.552  13.168
17455W        W82616  40.223   7.779  11.307
17456W        W82617   6.648  40.692  12.477
17457W        W82618   4.056   4.384  11.761
17458W        W82619  23.791  21.708   3.304
17459W        W82620   7.368  36.090   4.831
17460W        W82621  14.127   7.135   1.803
17461W        W82622  16.417  44.103   0.244
17462W        W82623  11.119   1.274   3.203
17463W        W82624  25.276  23.278  14.501
17464W        W82625   7.141   3.976   2.810
17465W        W82626  16.265  29.129  11.954
17466W        W82627  22.186  16.941   0.298
17467W        W82628  12.881  31.557   0.610
17468W        W82629   8.622  21.189   0.831
17469W        W82630  25.780   0.742  13.957
17470W        W82631   9.251   9.369  12.045
17471W        W82632  19.871   8.876  13.042
17472W        W82633  30.663  23.964   3.688
17473W        W82634  24.476  41.629   0.661
17474W        W82635  28.599   2.668   3.645
17475W        W82636  14.819  12.624  11.185
17476W        W82637  32.523  34.889   2.186
17477W        W82638  31.927  20.238  10.607
17478W        W82639  36.072  37.648  11.303
17479W        W82640  43.053   8.436  12.173
17480W        W82641  35.871   7.338  10.502
17481W        W82642  44.967  32.834   3.732
17482W        W82643  31.373  31.467  13.986
17483W        W82644  31.638  35.153  14.610
17484W        W82645   6.257   9.523  12.507
17485W        W82646   6.457  23.183   2.429
17486W        W82647  13.775  22.082  13.937
17487W        W82648  13.680   3.275  12.464
17488W        W82649  15.834   4.348  11.748
17489W        W82650   8.237  32.724  10.722
17490W        W82651  44.711   7.877  13.002
17491W        W82652  43.282   8.341  13.021
17492W        W82653   4.989  37.580   3.579
17493W        W82654   7.888  16.222  11.882
17494W        W82655  35.527   9.434  11.068
17495W        W82656  41.755  11.495  11.248
17496W        W82657  26.879   5.310  11.466
17497W        W82658  34.114  10.284   3.894
17498W        W82659  28.954  19.528   2.359
17499W        W82660  22.506  43.388   0.446
17500W        W82661  19.684  27.071  13.924
17501W        W82662   1.192  30.100  11.071
17502W        W82663   4.219  16.706   1.446
17503W        W82664  24.446  20.251  14.847
17504W        W82665  29.822  29.443   1.432
17505W        W82666  26.399  21.447   3.183
17506W        W82667  41.446  20.003  12.923
17507W        W82668  34.860  31.574  12.295
17508W        W82669  36.272   1.395   3.144
17509W        W82670  14.776  25.983   3.177
17510W        W82671  10.647  12.658  12.271
17511W        W82672  33.115  12.904   3.659
17512W        W82673  28.956  14.701  10.676
17513W        W82674  42.791  39.929   1.959
17514W        W82675  21.127  32.993  12.279
17515W        W82676  30.469   2.310   1.368
17516W        W82677   2.887  19.513  10.959
17517W        W82678  35.528  10.742   4.420
17518W        W82679  31.104  12.347  10.513
17519W        W82680   7.041  30.081  13.792
17520W        W82681  42.841  38.524  11.492
17521W        W82682   1.046   5.866  11.993
17522W        W82683  23.016  34.628   4.165
17523W        W82684  26.595  25.503   1.759
17524W        W82685  41.921  25.541   1.380
17525W        W82686  12.401  14.384  13.930
17526W        W82687  28.968  24.950  12.988
17527W        W82688  34.520  11.762   2.482
17528W        W82689  27.602  34.597   1.100
17529W        W82690   2.683  18.998  14.360
17530W        W82691  42.855   2.221   4.671
17531W        W82692  20.119  33.189  11.191
17532W        W82693  42.889   8.894  14.498
17533W        W82694  27.219  37.755  10.424
17534W        W82695  41.932   6.275   2.402
17535W        W82696  36.306  31.062  10.989
17536W        W82697  32.442  12.601  14.466
17537W        W82698  17.708  44.842  11.448
17538W        W82699  32.429  12.356   0.402
17539W        W82700  20.792   8.893  14.833
17540W        W82701  18.671  42.541  13.538
17541W        W82702   1.745   8.757   1.330
17542W        W82703   1.803  28.198  13.018
17543W        W82704  27.990  29.614  14.814
17544W        W82705  37.636  19.879  11.562
17545W        W82706   2.541  13.600  12.444
17546W        W82707   0.769  41.366  12.066
17547W        W82708  43.983  29.916   0.354
17548W        W82709   1.732  21.103   3.638
17549W        W82710  42.700   9.545   0.708
17550W        W82711  37.467   3.889   4.991
17551W        W82712  25.885  15.346   2.957
17552W        W82713  29.929   7.173  14.487
17553W        W82714  16.206  18.539  14.691
17554W        W82715  20.374   0.008   3.342
17555W        W82716  10.017  21.519  11.559
17556W        W82717  21.010   0.130   2.673
17557W        W82718  19.459  26.593  13.925
17558W        W82719  23.303  43.444  10.773
17559W        W82720   1.965  17.741  12.110
17560W        W82721  15.542  30.668  11.069
17561W        W82722  41.990  27.744   2.831
17562W        W82723  11.236   6.621  13.872
17563W        W82724  38.840  27.194  14.747
17564W        W82725   9.112  15.103   4.674
17565W        W82726  25.172  22.030  13.498
17566W        W82727  31.260  21.683  10.180
17567W        W82728  31.157  14.582  13.431
17568W        W82729  20.652   3.174   4.131
17569W        W82730   0.301  12.848  12.728
17570W        W82731  42.807   8.834   3.869
17571W        W82732  43.455   5.148   2.779
17572W        W82733   0.185  30.950  10.724
17573W        W82734  20.925  41.372  12.136
17574W        W82735   8.888  33.871   2.896
17575W        W82736  25.227  26.499   3.310
17576W        W82737  31.331   3.771   1.139
17577W        W82738  17.332  11.358  11.133
17578W        W82739   7.409  38.486   0.993
17579W        W82740  27.509   9.176   1.590
17580W        W82741  32.663  39.543   2.655
17581W        W82742   6.448   0.243   1.873
17582W        W82743  13.618  12.427   2.185
17583W        W82744  40.131  20.132  11.204
17584W        W82745  21.136  39.474  13.943
17585W        W82746  15.712  25.801   3.111
17586W        W82747  12.340  32.155  11.651
17587W        W82748  21.083  28.896   4.316
17588W        W82749  31.502  25.910   3.679
17589W        W82750  23.171  11.423   1.853
17590W        W82751  23.145  34.973  13.054
17591W        W82752  35.961  43.331  10.911
17592W        W82753  37.023   4.025  14.508
17593W        W82754  23.802  24.206  12.156
17594W        W82755  31.204  18.682   0.999
17595W        W82756  12.548  17.107   0.245
17596W        W82757  42.392  20.133  11.530
17597W        W82758  37.919   7.355   4.761
17598W        W82759  25.411  18.411   3.257
17599W        W82760  33.289  15.697  13.599
17600W        W82761   6.517  15.099   0.868
17601W        W82762  25.957   6.910   4.713
17602W        W82763  44.400  22.294   4.557
17603W        W82764   0.487  31.995   3.742
17604W        W82765  42.013   4.694   0.889
17605W        W82766  37.592  34.161   1.825
17606W        W82767   5.749   3.487   4.871
17607W        W82768  10.606   8.890  13.436
17608W        W82769  35.567  10.742  10.502
17609W        W82770   1.285  15.746   5.018
17610W        W82771  28.961  15.699   4.187
17611W        W82772  24.182   4.301   3.747
17612W        W82773  44.795  44.633  13.394
17613W        W82774  19.756  25.597   1.063
17614W        W82775  19.567  13.759   1.447
17615W        W82776  34.539  37.137   0.664
17616W        W82777  13.202  25.066   3.693
17617W        W82778  17.849  28.951  14.797
17618W        W82779  20.536  21.700  10.688
17619W        W82780  43.632  11.375   4.717
17620W        W82781  25.783  19.841  11.981
17621W        W82782  12.983   3.063  12.901
17622W        W82783  36.099  29.040  14.368
17623W        W82784  38.664   7.293   5.130
17624W        W82785  24.326  11.761   3.472
17625W        W82786   4.878   6.142  13.890
17626W        W82787   0.055  25.505  14.855
17627W        W82788  23.197  33.482   0.933
17628W        W82789  25.100  10.801   2.190
17629W        W82790  31.813  44.310   2.864
17630W        W82791  16.017  34.496   3.230
17631W        W82792  29.186   7.956  13.459
17632W        W82793  35.411  17.367  14.006
17633W        W82794  17.254  20.474  14.392
17634W        W82795   4.291   9.808  14.973
17635W        W82796  42.347  41.268   1.263
17636W        W82797  12.243  30.927  12.979
17637W        W82798  44.042  23.379   3.309
17638W        W82799  39.120  16.387  11.146
17639W        W82800  10.924  41.554  12.077
17640W        W82801  30.876  28.415  12.660
17641W        W82802  30.914   0.271  12.269
17642W        W82803  18.097   9.843   3.348
17643W        W82804  39.165  25.600  13.815
17644W        W82805  35.936  37.038  12.905
17645W        W82806  22.697   9.293   1.712
17646W        W82807   8.676   8.131   1.739
17647W        W82808  20.769   5.648   4.273
17648W        W82809  25.454   4.316  11.541
17649W        W82810  36.943   6.874  12.931
17650W        W82811   1.451  43.464   4.342
17651W        W82812  30.126  40.484   0.988
17652W        W82813  20.557  26.096  12.400
17653W        W82814  11.848  32.022  14.869
17654W        W82815  26.696  18.115  13.333
17655W        W82816   0.799   4.848   4.388
17656W        W82817  25.727  39.975   1.430
17657W        W82818   9.838  25.176  11.095
17658W        W82819  25.872   9.977  14.827
17659W        W82820  21.170  19.316  14.701
17660W        W82821   1.326  36.198  11.628
17661W        W82822  23.519  28.633   0.877
17662W        W82823  35.020  18.116   4.309
17663W        W82824   0.782  19.865   4.431
17664W        W82825   2.193  20.295   0.331
17665W        W82826  28.257  33.672  12.397
17666W        W82827   6.764  31.602   1.441
17667W        W82828  33.470   4.283   4.643
17668W        W82829   4.284   7.680   3.743
17669W        W82830  32.347  13.270  13.966
17670W        W82831   4.317  17.573  13.270
17671W        W82832  44.320   6.166   2.342
17672W        W82833  42.464   1.917   4.530
17673W        W82834  26.313  41.368   2.674
17674W        W82835  11.210  13.818  10.539
17675W        W82836  28.544  10.757  14.101
17676W        W82837  36.821  23.994  14.115
17677W        W82838  35.367  16.866  13.944
17678W        W82839  23.749  42.428  13.621
17679W        W82840  28.688   7.367  13.317
17680W        W82841  42.375  27.112   4.468
17681W        W82842  15.292   7.414  14.328
17682W        W82843   7.150  20.254   2.782
17683W        W82844  35.955  33.368   0.032
17684W        W82845   3.346  40.027   3.546
17685W        W82846   0.215  30.941   2.920
17686W        W82847   8.458   9.969   4.597
17687W        W82848   8.207   1.292   0.877
17688W        W82849  11.604  31.552  14.890
17689W        W82850  36.419  29.582   4.180
17690W        W82851  33.441  16.736   3.457
17691W        W82852  37.331  21.631  12.367
17692W        W82853   8.000  23.950  12.240
17693W        W82854  23.159   5.075   2.776
17694W        W82855  12.895  14.114   0.481
17695W        W82856  26.984  26.146   1.660
17696W        W82857  43.248  15.776   1.240
17697W        W82858  26.901  11.929   1.460
17698W        W82859  20.154   4.150   3.305
17699W        W82860  13.417   8.685   3.673
17700W        W82861   8.348  35.492  13.795
17701W        W82862  22.935  42.854  13.476
17702W        W82863  24.467  18.763  13.054
17703W        W82864   6.359   5.192  12.291
17704W        W82865  28.799  39.977   3.156
17705W        W82866   9.864  32.985  14.340
17706W        W82867  33.846  36.519  13.820
17707W        W82868  43.960  36.337  14.918
17708W        W82869  34.781  39.519  13.709
17709W        W82870  39.395  31.624  10.507
17710W        W82871  38.904  24.755  14.742
17711W        W82872  11.338  34.540   1.369
17712W        W82873  42.527   4.962  11.483
17713W        W82874  10.193  21.510   3.777
17714W        W82875  33.596  37.599  11.965
17715W        W82876   4.755  20.711   1.135
17716W        W82877  27.408  11.647   0.514
17717W        W82878  34.642  25.164   2.967
17718W        W82879  44.207  34.980   4.609
17719W        W82880   9.770  36.107  14.883
17720W        W82881  44.872  10.868   1.188
17721W        W82882   9.079  28.977  12.113
17722W        W82883  10.772  40.217   3.847
17723W        W82884  14.523  41.358  12.648
17724W        W82885   5.454  14.555   0.713
17725W        W82886  33.582  32.465  10.015
17726W        W82887  22.590  38.404  14.476
17727W        W82888  39.781  14.204  12.342
17728W        W82889   5.715  29.144  13.093
17729W        W82890  17.695   7.676  13.994
17730W        W82891  43.545  18.102  12.002
17731W        W82892  32.472  11.323  12.826
17732W        W82893  43.419  17.089  12.967
17733W        W82894  16.201  14.296   0.658
17734W        W82895  23.311   1.526  10.613
17735W        W82896  17.113  41.398  14.765
17736W        W82897  19.034  38.951  14.804
17737W        W82898  28.589  20.114  12.196
17738W        W82899  36.269   5.914  10.069
17739W        W82900  42.487   6.177  13.978
17740W        W82901   5.102  44.376  14.316
17741W        W82902  40.645  32.113   4.531
17742W        W82903  10.379  32.802   2.318
17743W        W82904  28.547  30.834  12.233
17744W        W82905  21.496  15.260  11.285
17745W        W82906  29.597  32.099   1.429
17746W        W82907  29.482  38.259   4.098
17747W        W82908  23.343   2.854  10.435
17748W        W82909  19.284   2.174  12.175
17749W        W82910   9.880  40.022  14.072
17750W        W82911  34.945   5.849   2.685
17751W        W82912  16.559  35.279   2.910
17752W        W82913  34.082  12.240  14.297
17753W        W82914  14.737   5.036   0.082
17754W        W82915  44.475  19.725   1.455
17755W        W82916  18.956  23.590  12.959
17756W        W82917   2.799   6.494   2.375
17757W        W82918  39.451  13.185   3.728
17758W        W82919  33.000  16.217   1.249
17759W        W82920  24.764  43.821   0.381
17760W        W82921  18.635  20.796  12.116
17761W        W82922   1.758  17.819   2.275
17762W        W82923   5.738  33.125   4.561
17763W        W82924   3.967  12.795   9.759
17764W        W82925  31.173  14.256   1.038
17765W        W82926  10.232  33.733   1.320
17766W        W82927  38.407  36.014  12.560
17767W        W82928  38.565  19.426   4.054
17768W        W82929  35.733   8.479  12.121
17769W        W82930   9.090  13.153   3.784
17770W        W82931  27.718  41.340  11.893
17771W        W82932  32.436  14.184   5.007
17772W        W82933  19.655  36.910   2.672
17773W        W82934  27.330  34.596  14.365
17774W        W82935   6.930  10.435  11.887
17775W        W82936  20.971  11.352  12.884
17776W        W82937  41.830  26.500   4.423
17777W        W82938  42.861   3.729   4.452
17778W        W82939  44.201  21.737   1.373
17779W        W82940  20.692  19.151   2.119
17780W        W82941  16.827  29.548  13.012
17781W        W82942   3.509  19.085   3.195
17782W        W82943  27.760  20.501  13.263
17783W        W82944  24.720  28.486   4.430
17784W        W82945   3.546  31.064  11.196
17785W        W82946  43.411  27.967   2.635
17786W        W82947   2.702  23.387   1.252
17787W        W82948  17.338  20.809   4.074
17788W        W82949  34.698  41.921   0.770
17789W        W82950  15.689  15.314  11.176
17790W        W82951  33.991  32.120  10.165
17791W        W82952  25.693  30.872   0.745
17792W        W82953   1.416  10.031   4.430
17793W        W82954   0.748  20.191   5.030
17794W        W82955  20.354  27.552  13.581
17795W        W82956  36.452  14.482   4.264
17796W        W82957  20.349  34.019  11.458
17797W        W82958   9.405   2.194  13.567
17798W        W82959  22.622  20.639  11.246
17799W        W82960  44.733  25.458  14.037
17800W        W82961   7.695  38.639   0.457
17801W        W82962  26.224  32.369   4.853
17802W        W82963  37.764  36.303   2.324
17803W        W82964  28.641  16.309   4.069
17804W        W82965   3.638  14.960   0.228
17805W        W82966  35.360  29.894   2.828
17806W        W82967  23.979   0.686  14.019
17807W        W82968  24.807   7.028   1.031
17808W        W82969  38.473  30.321   2.975
17809W        W82970  28.191  31.975  11.641
17810W        W82971  11.297   6.418  14.381
17811W        W82972  21.027  33.020  14.890
17812W        W82973  27.564  26.706   3.909
17813W        W82974  18.550  32.958   1.366
17814W        W82975   2.429  21.726   3.681
17815W        W82976  22.550  41.904   4.541
17816W        W82977  40.866  38.239  13.802
17817W        W82978  28.002   6.183   1.334
17818W        W82979  38.338  40.232  11.046
17819W        W82980  27.348  38.490   3.515
17820W        W82981  27.250  11.708  11.618
17821W        W82982  20.594  44.523  12.518
17822W        W82983  19.509  31.314   1.710
17823W        W82984  32.110   1.954   4.020
17824W        W82985  10.773  22.265   3.851
17825W        W82986  21.935  11.213   9.481
17826W        W82987  13.103  41.049  11.275
17827W        W82988  11.973  18.689  11.598
17828W        W82989   8.566  24.764  12.480
17829W        W82990  27.241  42.131  12.350
17830W        W82991  18.143  31.601  13.092
17831W        W82992  20.116  10.340  11.508
17832W        W82993  35.322   2.237   4.120
17833W        W82994  30.108  38.353  11.286
17834W        W82995   6.396  20.261   2.224
17835W        W82996  17.643   8.685  12.572
17836W        W82997   2.240   7.037  12.865
17837W        W82998   6.450  44.494  11.993
17838W        W82999   8.633  44.314  11.158
17839W        W83000   6.453   9.361   1.859
17840W        W83001  30.462   6.254   3.308
17841W        W83002  23.586  15.180  10.321
17842W        W83003  20.584  33.432  13.419
17843W        W83004  28.154  39.397  10.600
17844W        W83005  31.435  44.998  14.947
17845W        W83006  33.445  37.891   1.441
17846W        W83007  26.215   9.967  11.128
17847W        W83008  22.046  39.427   0.419
17848W        W83009  22.994  17.172   0.312
17849W        W83010  23.937  36.007  13.331
17850W        W83011  40.543  30.799   3.578
17851W        W83012  13.148  39.555   0.828
17852W        W83013  23.319  12.732   2.723
17853W        W83014   1.852  10.885  13.030
17854W        W83015   7.140  17.597   3.288
17855W        W83016  41.722  43.399   4.140
17856W        W83017   4.573  26.944   0.281
17857W        W83018  19.791   3.336  14.513
17858W        W83019  34.066   9.917   1.500
17859W        W83020  31.083  13.276  14.044
17860W        W83021   4.366  25.600   1.198
17861W        W83022  42.711  11.893   4.504
17862W        W83023  37.434  17.701  13.990
17863W        W83024   5.439  27.993  14.789
17864W        W83025   5.212   2.345  10.846
17865W        W83026   8.396  32.793  14.465
17866W        W83027  12.137  44.184   3.785
17867W        W83028  14.227  44.228  14.827
17868W        W83029   6.941  20.162   2.274
17869W        W83030  37.934  20.255  10.690
17870W        W83031  10.200  30.735  11.362
17871W        W83032  31.353  32.006  13.128
17872W        W83033  37.322  35.553   1.648
17873W        W83034  41.457  40.274   1.337
17874W        W83035  43.574  31.367   4.497
17875W        W83036  34.483  24.992  13.514
17876W        W83037   9.028  41.581  13.419
17877W        W83038   8.103  18.016   1.751
17878W        W83039   7.997   2.465   2.262
17879W        W83040  11.875  38.092   4.113
17880W        W83041  14.256   8.613  10.028
17881W        W83042  33.141  14.254   2.500
17882W        W83043  19.340  38.185  10.818
17883W        W83044   6.861  31.689  11.448
17884W        W83045  31.562  28.442   4.810
17885W        W83046   8.834  29.498  11.622
17886W        W83047  25.120  33.702  14.832
17887W        W83048  31.128  37.446  10.369
17888W        W83049  36.954  36.820  13.637
17889W        W83050  42.925   8.352  11.072
17890W        W83051  11.849  36.671  10.910
17891W        W83052  42.217  30.912  14.913
17892W        W83053  34.955  32.432  12.039
17893W        W83054  28.166  29.451  12.476
17894W        W83055  44.357  27.665  14.578
17895W        W83056   6.833   4.579  12.153
17896W        W83057  22.676   2.358  12.881
17897W        W83058   2.483   4.314   2.460
17898W        W83059  20.348   6.851  11.230
17899W        W83060  42.830  31.418  14.895
17900W        W83061  17.553  32.192   0.330
17901W        W83062  23.696  35.588   2.166
17902W        W83063  43.836  39.368   2.797
17903W        W83064  22.266  38.449   1.889
17904W        W83065  44.017  14.192  10.706
17905W        W83066  11.554  27.633  10.561
17906W        W83067  14.647   2.449  14.515
17907W        W83068   0.610  29.701   0.710
17908W        W83069  11.549  18.993  11.647
17909W        W83070  27.496  26.275  13.515
17910W        W83071  21.649  38.024   2.349
17911W        W83072   9.464  23.601   4.565
17912W        W83073   9.019  26.691   3.262
17913W        W83074  34.965   0.214   2.459
17914W        W83075  17.332  28.022  14.547
17915W        W83076  32.498  27.901  11.445
17916W        W83077  35.906  25.652  12.116
17917W        W83078  23.303  19.943  11.492
17918W        W83079  33.645  23.493  12.007
17919W        W83080  25.675  37.105  13.408
17920W        W83081  29.892  42.023  14.312
17921W        W83082  33.629  44.245  12.032
17922W        W83083   6.458  33.386  13.383
17923W        W83084  35.946  28.513  12.016
17924W        W83085  31.008  24.119  11.122
17925W        W83086   7.746  17.705  14.427
17926W        W83087  24.043   3.968  13.421
17927W        W83088  42.273  11.958  12.499
17928W        W83089   7.408  30.300   0.351
17929W        W83090  17.590  21.260   4.121
17930W        W83091  11.548   2.577   3.000
17931W        W83092  34.723  30.300  13.455
17932W        W83093  21.741  25.983  10.417
17933W        W83094  11.977  35.460  13.350
17934W        W83095  11.245  17.791  14.230
17935W        W83096  32.494  22.085  10.556
17936W        W83097  36.742  20.117  12.763
17937W        W83098  39.033  28.727  10.201
17938W        W83099  20.998  40.748   3.017
17939W        W83100  22.803   1.443  10.502
17940W        W83101   2.456  26.241  11.114
17941W        W83102  44.324  10.707   3.359
17942W        W83103   4.719  24.462   4.503
17943W        W83104  27.080   7.464  11.569
17944W        W83105  35.344   1.269   2.365
17945W        W83106  36.263  21.263  10.715
17946W        W83107  12.520  36.936  13.935
17947W        W83108   6.701  22.330  13.717
17948W        W83109  32.440   1.994  13.583
17949W        W83110   9.632  21.183  11.421
17950W        W83111   8.567   2.305   2.494
17951W        W83112  31.150  12.374   3.339
17952W        W83113  18.860  23.566   3.673
17953W        W83114  15.584  42.089   2.789
17954W        W83115  22.714  37.123   2.519
17955W        W83116  35.824  29.663   0.261
17956W        W83117  29.378  24.192   3.360
17957W        W83118  32.543  34.279  11.266
17958W        W83119   8.847  32.269  11.711
17959W        W83120   3.900  14.064   1.515
17960W        W83121   9.428  29.965  11.255
17961W        W83122  24.693  38.462  14.263
17962W        W83123  39.906   4.891   2.702
17963W        W83124  18.527   9.714  14.020
17964W        W83125  16.589   9.136   0.298
17965W        W83126   1.299  19.502   3.696
17966W        W83127  10.702  43.870   0.243
17967W        W83128  38.591  44.809   0.692
17968W        W83129  42.992  43.792   1.310
17969W        W83130  35.972  38.759  14.849
17970W        W83131  35.406  44.736   0.461
17971W        W83132  14.160  18.505   1.534
17972W        W83133   9.899  29.955   4.301
17973W        W83134  33.591   5.841   3.260
17974W        W83135  35.524  40.403  11.724
17975W        W83136   0.680  42.609   3.630
17976W        W83137  42.979  15.606  12.025
17977W        W83138  12.344   0.717  11.156
17978W        W83139  32.818   0.233   1.283
17979W        W83140   9.421  37.237  12.110
17980W        W83141  20.700  40.387   0.884
17981W        W83142  31.016  43.878  12.069
17982W        W83143   5.299  18.976  11.032
17983W        W83144  39.383  17.347   4.584
17984W        W83145  34.983  24.634   4.610
17985W        W83146  17.544  36.642  12.094
17986W        W83147  19.206  12.293   4.333
17987W        W83148   8.383  28.881   3.580
17988W        W83149  21.808  32.466   1.737
17989W        W83150  12.121  22.562   2.489
17990W        W83151  11.687  10.686   1.221
17991W        W83152  33.736  44.945  13.664
17992W        W83153   2.413  39.048   0.483
17993W        W83154  12.861  15.117   1.784
17994W        W83155  26.485   5.291  13.840
17995W        W83156  35.340   6.175   1.916
17996W        W83157  11.083   7.677  10.583
17997W        W83158  30.099  29.905  14.384
17998W        W83159  31.515  22.984  14.358
17999W        W83160  19.579  24.195   9.787
18000W        W83161  28.143   1.738  10.595
18001W        W83162  14.370   2.351   2.417
18002W        W83163  25.321   5.702   0.434
18003W        W83164  40.633   2.831  13.880
18004W        W83165  32.253  28.208   3.818
18005W        W83166  27.874  30.771   4.117
18006W        W83167  26.652   8.920  12.423
18007W        W83168  23.485  17.610   4.369
18008W        W83169  36.192  15.326  12.166
18009W        W83170  24.506  14.182  13.344
18010W        W83171  40.329   5.309   0.435
18011W        W83172   7.822  19.108   3.161
18012W        W83173  21.658   0.556  14.983
18013W        W83174  37.218  28.916   0.322
18014W        W83175  42.595  37.580   0.368
18015W        W83176  30.431  11.392  12.041
18016W        W83177  34.419  18.845   1.337
18017W        W83178   0.863  40.152  11.515
18018W        W83179   0.165  31.670   4.713
18019W        W83180   1.407  19.549  12.948
18020W        W83181  21.067   6.735  10.754
18021W        W83182   8.536  19.272   2.165
18022W        W83183   4.754  30.100   4.205
18023W        W83184   5.675  16.721  12.139
18024W        W83185  31.495  14.351   0.086
18025W        W83186   8.197  14.600  14.257
18026W        W83187  10.691  37.434  12.058
18027W        W83188  24.837  17.101  11.206
18028W        W83189  19.637   0.865   1.461
18029W        W83190  38.410   7.755  13.130
18030W        W83191   9.974   4.862   1.140
18031W        W83192   3.257  23.774  10.055
18032W        W83193   7.492   2.271  13.867
18033W        W83194   6.272   3.857   2.178
18034W        W83195  34.712  13.708   1.838
18035W        W83196  25.087  24.107   0.078
18036W        W83197  36.516  24.765   0.870
18037W        W83198  41.282  39.090  14.798
18038W        W83199  35.760  35.490  12.256
18039W        W83200  39.574  25.944  14.551
18040W        W83201   1.974  38.760  11.144
18041W        W83202  29.171  16.164   4.150
18042W        W83203   2.022  19.371   3.219
18043W        W83204  39.013  42.734   1.342
18044W        W83205  37.330  33.946  13.627
18045W        W83206  12.069  29.281   0.745
18046W        W83207   8.538   4.517   5.026
18047W        W83208   7.166  40.455  11.089
18048W        W83209  27.053  35.047  12.891
18049W        W83210  34.101  18.786   4.113
18050W        W83211  30.555  34.499  12.890
18051W        W83212  10.247   2.527   3.241
18052W        W83213  18.830  43.622  12.085
18053W        W83214  37.487  42.033  12.503
18054W        W83215  27.399  17.192   2.405
18055W        W83216  33.603  38.100  12.052
18056W        W83217  21.054  31.340  12.877
18057W        W83218  35.030  10.739  11.235
18058W        W83219  12.800  36.315   1.868
18059W        W83220   3.373  42.852  13.029
18060W        W83221  18.549   5.237  10.943
18061W        W83222  31.527  15.383  12.099
18062W        W83223  32.155  37.820  12.011
18063W        W83224  15.345   8.138  11.159
18064W        W83225  27.518  28.048  12.861
18065W        W83226  33.220  27.069   4.181
18066W        W83227  38.402  27.536  10.871
18067W        W83228  29.991  12.332  11.988
18068W        W83229  27.030  10.821  14.239
18069W        W83230  20.061  19.509   0.865
18070W        W83231  15.838   9.261   4.603
18071W        W83232  25.002  28.928   3.908
18072W        W83233  36.787   0.006  10.588
18073W        W83234  32.993   0.317   3.922
18074W        W83235   1.496   8.911   1.768
18075W        W83236  43.978  43.382   2.159
18076W        W83237  36.345  42.707  11.631
18077W        W83238  13.153   9.427  14.939
18078W        W83239  19.147  37.999   3.188
18079W        W83240  26.675  14.787   1.923
18080W        W83241  14.847  23.373   0.080
18081W        W83242  19.114   8.412   3.241
18082W        W83243  30.436   4.517  14.192
18083W        W83244  41.848   3.755  11.783
18084W        W83245  16.003  26.088  10.437
18085W        W83246  41.678  11.353   2.930
18086W        W83247  43.273  29.879  12.416
18087W        W83248  30.424  40.026   3.747
18088W        W83249  14.779  10.581  11.179
18089W        W83250  43.896  14.233  13.784
18090W        W83251  33.032   1.346  11.600
18091W        W83252   0.289  30.897   4.206
18092W        W83253  36.656   3.963  13.295
18093W        W83254   3.913  33.891   2.185
18094W        W83255  23.537  35.937   3.710
18095W        W83256  34.891  16.714  11.986
18096W        W83257  15.368  16.243   3.103
18097W        W83258  35.191   6.235   2.421
18098W        W83259  38.890  36.047   1.116
18099W        W83260  43.029   1.117   2.277
18100W        W83261  11.197  43.295   4.455
18101W        W83262  34.324  20.755   3.175
18102W        W83263   9.252   9.942   5.035
18103W        W83264  32.416   2.272  12.903
18104W        W83265  25.064  13.340   0.344
18105W        W83266  32.423  11.992   0.778
18106W        W83267   4.350  30.223   0.761
18107W        W83268  22.594   7.786  14.743
18108W        W83269  27.902  21.258   1.165
18109W        W83270  38.267   8.519  13.290
18110W        W83271  36.298  24.540   0.461
18111W        W83272  24.929   5.660  13.016
18112W        W83273  26.457   9.564  14.034
18113W        W83274  25.890   0.822  10.980
18114W        W83275   0.424  10.362   4.904
18115W        W83276  19.309  40.964  12.994
18116W        W83277  15.053  24.230   0.844
18117W        W83278  38.829  20.764  11.093
18118W        W83279   5.733   8.497   4.358
18119W        W83280  19.474   4.196  13.434
18120W        W83281   3.222  33.836  11.539
18121W        W83282  26.339  15.623   1.990
18122W        W83283  30.434  37.654   2.719
18123W        W83284  16.478  17.621   4.216
18124W        W83285  35.144  12.325  11.929
18125W        W83286  39.065  41.244   2.324
18126W        W83287  28.435  13.151  11.897
18127W        W83288  10.726   6.781  13.883
18128W        W83289   0.936  13.298  13.914
18129W        W83290  15.588  23.713   0.806
18130W        W83291  43.818  16.655   1.234
18131W        W83292  32.452  26.560  11.601
18132W        W83293  43.890  33.346  11.535
18133W        W83294  32.666   5.833   4.787
18134W        W83295  39.433  21.465   2.362
18135W        W83296  27.129   3.857  12.869
18136W        W83297  41.421  15.649  13.241
18137W        W83298  44.369  18.040  11.199
18138W        W83299  33.660  23.794   2.303
18139W        W83300   5.579   1.360  12.004
18140W        W83301  15.112  14.656   1.581
18141W        W83302  31.454   3.725  10.951
18142W        W83303  43.846  34.627   2.047
18143W        W83304   4.428  40.585  13.980
18144W        W83305  14.814  34.181  11.004
18145W        W83306  28.506  14.683  14.201
18146W        W83307  11.890  33.123   0.867
18147W        W83308  33.845   4.010  11.903
18148W        W83309  42.850  33.715  12.858
18149W        W83310  29.572  10.766   0.832
18150W        W83311   4.190  26.675  13.533
18151W        W83312   0.235  24.855  12.026
18152W        W83313  15.633  32.223  14.135
18153W        W83314  41.041  32.615  13.065
18154W        W83315  23.523  30.760   4.734
18155W        W83316   6.703  25.071   0.730
18156W        W83317  19.632  35.802   1.441
18157W        W83318  24.058  31.576  14.893
18158W        W83319  30.661  14.019  12.771
18159W        W83320  24.954  14.141   2.660
18160W        W83321   3.259  32.951   4.441
18161W        W83322  14.618   8.395  11.645
18162W        W83323  24.055  30.940   0.409
18163W        W83324  32.108  11.138  11.044
18164W        W83325   4.147  38.495   4.430
18165W        W83326  37.473  30.911   1.424
18166W        W83327  13.803  14.185   4.785
18167W        W83328   5.136  22.445   1.499
18168W        W83329  22.145  18.515   1.899
18169W        W83330  28.660  21.076   2.813
18170W        W83331  12.372  15.856   4.177
18171W        W83332  10.897  17.169  10.651
18172W        W83333  20.794  29.992   2.385
18173W        W83334   3.728  10.151  12.600
18174W        W83335  22.356  10.405  14.814
18175W        W83336  22.143  38.647  14.414
18176W        W83337  41.203  18.435   0.301
18177W        W83338  28.103   5.242  13.359
18178W        W83339  12.122  41.948   2.706
18179W        W83340  18.777   2.320   0.214
18180W        W83341  14.524   6.706   3.324
18181W        W83342  17.273  31.615  13.143
18182W        W83343  40.452   6.897   1.294
18183W        W83344  28.971  20.846  11.221
18184W        W83345  28.927  11.722   0.434
18185W        W83346   8.779  33.428  12.833
18186W        W83347  42.481   0.710  11.239
18187W        W83348  31.860  32.865  14.884
18188W        W83349  35.959  43.780  11.158
18189W        W83350  35.009  34.936  13.532
18190W        W83351   3.786  40.906  12.414
18191W        W83352  12.309  36.523   3.127
18192W        W83353  31.916  29.232   3.205
18193W        W83354  32.412  33.834  12.930
18194W        W83355  20.586  40.685  10.053
18195W        W83356  28.165  30.878  12.919
18196W        W83357  23.461  21.059   3.104
18197W        W83358  11.738  31.503  10.793
18198W        W83359  43.761  35.859  13.402
18199W        W83360  13.689  27.652   4.031
18200W        W83361  18.554  21.063  13.447
18201W        W83362  24.033  10.615   1.704
18202W        W83363  25.463   4.164   2.729
18203W        W83364  42.815  12.245   1.954
18204W        W83365  15.850  16.106  13.038
18205W        W83366  13.811   1.316  14.346
18206W        W83367  42.954  14.862  11.484
18207W        W83368  30.053  27.152   0.778
18208W        W83369   3.752  18.364  11.577
18209W        W83370   4.165  21.941   2.900
18210W        W83371  22.630   0.583   2.868
18211W        W83372  17.752   3.898  13.392
18212W        W83373  41.013  16.537   2.260
18213W        W83374  34.358  31.772  14.053
18214W        W83375   8.383  39.202  11.207
18215W        W83376  14.388  35.940   4.544
18216W        W83377  30.017   4.858  12.024
18217W        W83378  42.987  19.302  13.518
18218W        W83379   6.480  18.497  12.582
18219W        W83380  29.902  34.655   1.336
18220W        W83381   5.698  19.371   4.723
18221W        W83382  28.368  39.934  12.093
18222W        W83383  19.859   0.783   3.926
18223W        W83384  20.301  25.965  10.701
18224W        W83385   0.678  28.926  12.876
18225W        W83386  36.962  29.245   0.031
18226W        W83387  28.067  22.763   0.325
18227W        W83388   1.821  17.227  13.280
18228W        W83389   8.075   6.991  10.591
18229W        W83390  36.384   3.412  11.091
18230W        W83391  29.617  30.683  10.481
18231W        W83392   6.890  18.105  12.455
18232W        W83393   4.018  21.090  10.008
18233W        W83394  41.953   6.045   1.145
18234W        W83395   3.692   8.293   4.806
18235W        W83396  23.182  13.707   1.248
18236W        W83397  31.092  25.182   5.642
18237W        W83398  25.721  31.082  12.053
18238W        W83399   7.229  34.103   3.664
18239W        W83400  27.650  23.162  13.808
18240W        W83401  36.358   2.744  13.817
18241W        W83402  22.601   4.010   2.385
18242W        W83403  42.641   6.259   2.730
18243W        W83404  41.831  20.761  10.755
18244W        W83405  14.503  19.747   2.812
18245W        W83406  21.064   7.892  14.386
18246W        W83407  28.242  11.036  10.073
18247W        W83408  20.487  19.719   4.231
18248W        W83409   1.613  17.094   0.425
18249W        W83410  14.198   2.552   0.442
18250W        W83411  17.570  30.613  13.897
18251W        W83412  19.566   7.103  12.316
18252W        W83413  15.631  31.592  10.420
18253W        W83414   0.357   2.259  12.482
18254W        W83415  20.343  44.242  12.893
18255W        W83416  36.086   9.217   0.949
18256W        W83417  40.513   4.738  13.928
18257W        W83418  26.762  28.531   3.191
18258W        W83419  11.667  20.807  14.497
18259W        W83420  19.469  43.285  14.517
18260W        W83421  17.825  33.352  14.780
18261W        W83422  43.485  29.158   2.234
18262W        W83423   7.776  17.171   2.330
18263W        W83424  12.180  14.527  14.997
18264W        W83425  35.512  35.358   1.336
18265W        W83426  21.532  29.631  13.346
18266W        W83427   1.736  27.711   1.888
18267W        W83428   1.957   6.663   3.755
18268W        W83429  17.972  41.461  13.807
18269W        W83430  25.093   9.934   2.667
18270W        W83431   5.367  44.756   2.257
18271W        W83432  13.145  42.830  11.498
18272W        W83433  11.320  26.492   0.366
18273W        W83434  42.913  20.468   3.479
18274W        W83435  18.711   5.240   3.422
18275W        W83436  37.043  33.997  14.481
18276W        W83437  38.837   4.146  13.106
18277W        W83438  32.007  15.052  14.964
18278W        W83439  43.065  15.072  11.941
18279W        W83440  25.615  32.217   0.695
18280W        W83441  10.796   9.539   0.622
18281W        W83442  10.903  39.900   2.923
18282W        W83443   3.233  11.679   3.555
18283W        W83444  25.483  23.960   2.720
18284W        W83445  17.770  43.996  12.067
18285W        W83446  33.283   4.702   1.876
18286W        W83447  44.197   8.817   4.988
18287W        W83448  17.161   9.048   5.085
18288W        W83449   5.201   3.116  14.413
18289W        W83450   9.666  19.187   1.546
18290W        W83451  39.551  42.372   4.857
18291W        W83452   3.978  34.616  13.431
18292W        W83453   6.450   8.843   4.777
18293W        W83454   3.626  11.192   0.828
18294W        W83455   8.626  30.543  13.909
18295W        W83456   7.756  31.621  12.918
18296W        W83457  14.961  44.980  11.179
18297W        W83458   7.650  24.917   3.559
18298W        W83459  30.577  42.964   4.724
18299W        W83460   5.338  22.410  10.898
18300W        W83461  41.461  34.039   4.596
18301W        W83462   1.963  42.737   5.356
18302W        W83463  33.491  43.433  12.433
18303W        W83464  17.726  41.370   5.021
18304W        W83465  40.658  30.333  10.129
18305W        W83466  30.942  14.838  12.431
18306W        W83467  37.939  24.453   2.174
18307W        W83468  21.649  30.945   3.036
18308W        W83469  31.616  20.714  11.730
18309W        W83470   2.717  26.399  13.361
18310W        W83471  41.052  17.574   3.219
18311W        W83472   7.427  26.445  11.659
18312W        W83473  38.280  27.008  12.003
18313W        W83474  20.055  23.891   1.181
18314W        W83475  26.539  13.570   0.491
18315W        W83476  18.196  20.927  11.852
18316W        W83477  39.634  20.280  11.131
18317W        W83478  13.882  25.531  13.126
18318W        W83479  11.845  32.891  10.672
18319W        W83480  43.040   9.921  11.298
18320W        W83481  43.969  27.467   4.495
18321W        W83482   3.831   5.684   2.219
18322W        W83483  11.812  21.114  13.987
18323W        W83484  11.734  25.727  10.212
18324W        W83485  18.212  29.108   4.551
18325W        W83486   3.320  36.223  13.866
18326W        W83487  16.725  11.250  14.561
18327W        W83488  44.487  21.548   1.805
18328W        W83489  13.432  26.541  11.741
18329W        W83490  43.931  15.246   0.900
18330W        W83491  29.599  17.120  11.382
18331W        W83492  21.092  27.655  10.721
18332W        W83493   1.563  22.444   0.446
18333W        W83494  22.925  10.214  11.396
18334W        W83495  10.849  20.134   4.067
18335W        W83496  25.811  20.449   0.651
18336W        W83497   6.835  41.627   1.234
18337W        W83498  36.991  20.443  13.095
18338W        W83499   0.123  32.739   3.230
18339W        W83500  19.428  17.647   3.725
18340W        W83501  30.340   1.324   4.748
18341W        W83502  32.985  31.584  12.897
18342W        W83503   9.703  28.788   2.306
18343W        W83504  21.103   5.193   0.461
18344W        W83505   8.397   2.861  10.985
18345W        W83506  34.475   9.653  13.384
18346W        W83507  19.536  35.982   1.918
18347W        W83508  12.243  29.101   4.579
18348W        W83509  24.098  22.011  14.627
18349W        W83510  40.772  11.360  11.672
18350W        W83511   4.987  21.770   4.997
18351W        W83512  23.101  23.060  12.616
18352W        W83513  13.273  43.555  13.615
18353W        W83514  39.855  41.670  13.468
18354W        W83515  44.112  24.360   0.957
18355W        W83516   1.021  15.297   3.308
18356W        W83517  20.993  23.767  11.123
18357W        W83518  40.049  21.677  12.162
18358W        W83519  19.968   6.703  13.562
18359W        W83520  26.569   6.868   3.291
18360W        W83521  38.914  26.898  11.222
18361W        W83522  11.646  10.732  11.509
18362W        W83523  40.092   8.688  11.464
18363W        W83524  23.095  39.940  12.707
18364W        W83525  25.782  11.145   4.521
18365W        W83526   9.349   7.496   1.206
18366W        W83527   5.840   6.887   0.417
18367W        W83528  10.063  34.483  13.079
18368W        W83529   0.441   3.766  12.414
18369W        W83530  18.114  36.636  11.299
18370W        W83531  39.618   8.819   1.105
18371W        W83532   4.958  10.673  12.703
18372W        W83533  43.401  24.131   3.866
18373W        W83534   1.691  44.929   2.397
18374W        W83535  32.185  13.692   1.904
18375W        W83536   1.444   5.954   0.744
18376W        W83537  33.181  30.112  13.430
18377W        W83538  14.758  41.932  13.772
18378W        W83539  20.889  30.427  13.281
18379W        W83540  12.402  23.678   3.697
18380W        W83541  15.695   8.523   3.323
18381W        W83542  29.477  24.500  11.858
18382W        W83543  33.028  22.118  12.872
18383W        W83544   8.882  38.554  14.378
18384W        W83545   1.718  44.316  14.923
18385W        W83546  32.987  40.337   3.138
18386W        W83547   0.307  21.536   2.376
18387W        W83548  35.997  34.056  10.760
18388W        W83549  19.187  16.337   1.337
18389W        W83550  11.633  37.154  10.947
18390W        W83551  28.217  42.798  13.477
18391W        W83552   1.484   6.720   0.766
18392W        W83553  38.968  42.299  12.120
18393W        W83554   1.411  43.381  12.056
18394W        W83555  24.149   7.968  13.771
18395W        W83556  44.771  13.784   1.669
18396W        W83557  31.568  21.616   1.756
18397W        W83558  42.309   5.809   0.845
18398W        W83559  44.148  19.740  11.579
18399W        W83560  41.312  44.837   2.161
18400W        W83561  43.798  44.883   1.272
18401W        W83562  15.887   6.380   0.818
18402W        W83563  33.001  15.043   2.793
18403W        W83564  34.695  32.971   4.081
18404W        W83565  39.836   8.638   2.285
18405W        W83566  43.516   1.344   3.132
18406W        W83567  33.416  11.317  10.307
18407W        W83568  40.011  32.084   0.173
18408W        W83569  25.989  24.492  13.864
18409W        W83570   4.217  20.819   4.011
18410W        W83571  38.419  41.697   0.850
18411W        W83572   3.772  33.977   3.119
18412W        W83573   2.548  10.267  11.086
18413W        W83574  25.047  10.118   3.509
18414W        W83575  39.373  18.660  14.271
18415W        W83576   6.711  23.217  13.315
18416W        W83577  31.950  12.154  12.433
18417W        W83578  17.895  36.120   3.647
18418W        W83579  19.928  28.596   0.810
18419W        W83580  11.310  17.314  14.034
18420W        W83581  42.302  33.033  13.339
18421W        W83582  19.256   4.323   0.948
18422W        W83583  32.744  16.578  14.600
18423W        W83584  31.027  29.418  14.554
18424W        W83585  20.947  10.316  11.651
18425W        W83586  32.641  13.084  14.358
18426W        W83587  17.073  26.664   2.284
18427W        W83588   0.683   3.395   1.435
18428W        W83589   2.191  22.587  12.430
18429W        W83590  18.570  10.790   2.957
18430W        W83591   8.585  44.132  14.002
18431W        W83592  18.596  43.713  12.926
18432W        W83593  24.651  29.411   5.054
18433W        W83594  22.913  44.835   3.316
18434W        W83595  33.160   8.171   2.529
18435W        W83596  32.014  42.757  14.543
18436W        W83597  27.248  13.470  13.415
18437W        W83598  22.136  14.159  14.815
18438W        W83599  40.296  26.698  10.204
18439W        W83600  24.744  38.772  12.700
18440W        W83601  19.969  24.087  11.571
18441W        W83602  43.405  20.051   2.680
18442W        W83603  36.065  31.437   3.933
18443W        W83604  44.956  24.135   0.457
18444W        W83605  18.941  16.692   3.217
18445W        W83606  32.409  33.456  14.048
18446W        W83607  32.379  41.326   2.446
18447W        W83608   4.410  23.318  12.484
18448W        W83609  36.958  25.571  11.283
18449W        W83610  44.508  40.880   3.914
18450W        W83611  10.725   4.552  12.953
18451W        W83612   0.761  26.417  11.555
18452W        W83613   9.725   9.770   3.573
18453W        W83614  40.485  23.034  12.427
18454W        W83615  21.755  44.343  14.019
18455W        W83616  14.754  39.112   3.516
18456W        W83617  18.115  29.512  11.155
18457W        W83618  10.036  42.855  13.744
18458W        W83619  15.645  43.964  12.398
18459W        W83620  37.431   9.135  13.793
18460W        W83621  31.200  24.662   5.554
18461W        W83622   1.095   8.107   0.067
18462W        W83623   9.839   2.210   4.226
18463W        W83624  11.333   3.919   1.014
18464W        W83625  42.472   4.924   0.718
18465W        W83626  27.997   5.033   0.482
18466W        W83627  34.724  35.874  11.114
18467W        W83628  22.711   8.397   0.246
18468W        W83629   3.468  27.527  13.046
18469W        W83630  21.296  27.719   3.614
18470W        W83631  36.859   2.619  13.763
18471W        W83632  14.599   0.911  14.066
18472W        W83633  30.919  25.504   4.615
18473W        W83634   0.453   4.852  13.633
18474W        W83635  30.435  40.468   4.590
18475W        W83636  11.583  21.556   4.850
18476W        W83637   0.790  20.143  13.956
18477W        W83638  10.427   4.661   4.541
18478W        W83639  40.619   2.681  12.928
18479W        W83640   4.766  24.994   1.368
18480W        W83641   4.106  31.598   3.343
18481W        W83642   9.447  17.742  14.131
18482W        W83643  17.118  36.170   0.994
18483W        W83644   6.310  28.552   4.649
18484W        W83645  39.470  42.467  14.781
18485W        W83646  43.033  33.549  14.282
18486W        W83647  34.463  15.070   0.010
18487W        W83648  19.480   6.235  12.986
18488W        W83649   4.405  17.787   3.825
18489W        W83650   4.810  10.288   1.859
18490W        W83651   3.873   3.694   0.671
18491W        W83652   8.680  35.768   4.090
18492W        W83653   3.908  20.695  13.370
18493W        W83654  13.056   6.388  13.331
18494W        W83655  39.575   0.358   2.311
18495W        W83656   3.688  20.721  12.882
18496W        W83657   7.773  27.473  12.986
18497W        W83658  37.593  17.537   1.275
18498W        W83659   0.870  20.323   4.177
18499W        W83660  39.789  24.672   2.763
18500W        W83661  33.795  21.168  10.215
18501W        W83662  19.104   2.224  13.024
18502W        W83663  17.418  25.051   4.362
18503W        W83664  12.208   0.454   0.297
18504W        W83665   3.599  33.931  14.801
18505W        W83666   1.937   4.976  14.715
18506W        W83667  40.324  30.998  13.828
18507W        W83668  38.936   2.982  12.460
18508W        W83669  38.709  23.551   1.627
18509W        W83670   2.863  41.572   1.381
18510W        W83671  39.570   6.338   3.402
18511W        W83672   7.210  24.049   1.878
18512W        W83673  16.102   5.882  13.664
18513W        W83674   3.044  43.949   4.153
18514W        W83675  27.543  13.353  13.855
18515W        W83676  10.142  33.473  12.785
18516W        W83677  27.416  12.705  14.276
18517W        W83678  25.147  24.467  13.960
18518W        W83679  33.954  30.841   0.983
18519W        W83680  34.248  24.951   2.455
18520W        W83681  29.094   9.155  12.941
18521W        W83682  36.028  32.970   3.655
18522W        W83683  36.595  31.991   4.662
18523W        W83684  33.052  20.631  12.081
18524W        W83685  27.983   2.864  12.054
18525W        W83686  13.058  11.302  10.087
18526W        W83687   0.491  39.598  13.814
18527W        W83688  27.990   3.303   2.668
18528W        W83689  39.293  40.404   0.893
18529W        W83690   1.772   2.852  14.183
18530W        W83691  24.297  17.354  12.521
18531W        W83692  26.507  11.635  14.098
18532W        W83693  10.168  31.043   1.791
18533W        W83694   5.235  14.473   9.932
18534W        W83695  21.650  12.141  10.585
18535W        W83696  33.061   5.710   3.227
18536W        W83697  25.319  37.676   4.576
18537W        W83698  17.164   4.365   1.795
18538W        W83699  44.531  30.080   1.982
18539W        W83700  17.844   2.294   2.683
18540W        W83701  10.722  15.608  10.689
18541W        W83702   7.208   0.509   1.405
18542W        W83703  32.716   7.176  14.801
18543W        W83704  13.859   2.334  14.603
18544W        W83705  37.077  29.511   0.979
18545W        W83706  37.089  23.758   1.676
18546W        W83707  38.418  35.300  14.953
18547W        W83708  15.594  23.459  12.955
18548W        W83709  32.450  37.301  11.016
18549W        W83710  24.480  29.068  13.325
18550W        W83711  18.017   3.215  13.261
18551W        W83712  19.117  23.568  14.740
18552W        W83713  13.152  14.925  13.420
18553W        W83714   9.973  37.971   1.355
18554W        W83715  20.010   8.010  14.021
18555W        W83716   3.734  41.476   4.386
18556W        W83717  10.158  16.523  11.402
18557W        W83718  23.480  42.901   4.893
18558W        W83719  37.425  41.435  13.421
18559W        W83720  39.990   1.720   0.873
18560W        W83721  25.896   8.817   0.559
18561W        W83722   2.369  31.558   3.784
18562W        W83723  21.958   2.369   2.626
18563W        W83724  33.955  19.883   2.386
18564W        W83725  24.822  19.757   4.505
18565W        W83726  33.914  15.286   4.196
18566W        W83727  30.747  27.426   0.068
18567W        W83728  23.547  12.614  14.273
18568W        W83729   6.733  44.198  11.263
18569W        W83730  16.682  37.636   4.120
18570W        W83731  19.513   9.811  12.902
18571W        W83732  23.430  20.527   4.697
18572W        W83733  13.317  15.299   4.605
18573W        W83734   9.861  43.183   3.114
18574W        W83735  10.213  24.229  14.831
18575W        W83736  19.556  19.574   1.399
18576W        W83737  37.449  26.157   1.806
18577W        W83738  43.690  23.616   0.219
18578W        W83739  28.239  14.118  14.023
18579W        W83740  18.141  14.406  10.922
18580W        W83741  38.560   0.848   0.277
18581W        W83742   2.180  23.965   1.878
18582W        W83743   1.444  33.705  14.385
18583W        W83744  34.551  18.678  12.491
18584W        W83745  25.144  21.264   0.271
18585W        W83746  26.840  32.451   4.893
18586W        W83747  31.098  32.167   4.031
18587W        W83748  18.268  39.415   3.165
18588W        W83749  37.077  13.206  11.139
18589W        W83750  38.842  10.522   3.062
18590W        W83751  14.592   9.605  13.989
18591W        W83752  29.211  40.587  11.267
18592W        W83753  12.649  42.366  12.414
18593W        W83754  17.880   3.126   3.233
18594W        W83755  27.952  43.641  13.830
18595W        W83756  22.624  16.033   3.170
18596W        W83757   0.208  40.088   3.118
18597W        W83758  25.125   2.951  11.710
18598W        W83759  36.783  22.576  12.493
18599W        W83760  13.859  34.032   2.727
18600W        W83761  27.271  34.266   0.913
18601W        W83762   7.278   6.422   1.311
18602W        W83763  23.537  22.764   3.605
18603W        W83764  38.927  18.826   3.199
18604W        W83765   2.355  19.275   0.320
18605W        W83766  23.970  26.492  11.152
18606W        W83767  37.581   9.201  12.940
18607W        W83768   2.909  22.921  12.155
18608W        W83769  28.878  35.516   3.737
18609W        W83770  43.756  43.888   3.030
18610W        W83771  25.025   0.387   3.644
18611W        W83772   0.579  30.123   1.967
18612W        W83773  28.700  17.215   4.268
18613W        W83774   5.328  21.451  10.733
18614W        W83775  37.825  34.656  12.065
18615W        W83776  28.093  12.589  12.425
18616W        W83777  29.177   6.866   1.449
18617W        W83778  23.019  22.247  13.767
18618W        W83779   0.400   8.409  11.148
18619W        W83780  31.122  42.317  11.574
18620W        W83781  14.875  41.905  13.273
18621W        W83782   8.151  37.894   1.226
18622W        W83783  43.730  21.970   4.618
18623W        W83784  27.068   3.937  10.726
18624W        W83785  34.041  41.298  11.401
18625W        W83786  10.099  30.929   0.278
18626W        W83787  12.713  38.262   4.676
18627W        W83788  14.097   7.418  12.080
18628W        W83789  37.679  14.122   0.164
18629W        W83790  36.773   3.659   0.378
18630W        W83791  27.656   0.239   3.683
18631W        W83792  25.048  14.709  13.106
18632W        W83793  12.645   4.788  12.801
18633W        W83794  17.126  28.911   0.415
18634W        W83795  12.866  14.748   3.173
18635W        W83796  11.235  10.094   3.659
18636W        W83797  12.521  16.379   1.915
18637W        W83798  20.375  36.881  11.130
18638W        W83799  37.045   8.443  14.974
18639W        W83800   8.725  20.512   2.847
18640W        W83801   1.691  41.440  14.359
18641W        W83802  13.170  26.880  12.949
18642W        W83803  10.096  42.399  13.420
18643W        W83804  31.841   0.003  12.153
18644W        W83805  27.867  37.034  14.872
18645W        W83806   8.331   9.873   0.350
18646W        W83807  32.563  33.050   2.555
18647W        W83808  28.606  31.958   2.309
18648W        W83809  30.027  19.189  14.320
18649W        W83810  39.102  33.513  11.503
18650W        W83811  35.867   0.524   1.870
18651W        W83812  26.052   9.450  10.122
18652W        W83813  37.922  18.797   1.282
18653W        W83814  11.379  28.419   1.428
18654W        W83815  33.049  13.437  13.484
18655W        W83816  10.875  29.157  10.687
18656W        W83817  29.494  31.049  12.467
18657W        W83818  16.841  10.638  11.198
18658W        W83819  35.029  30.432   1.464
18659W        W83820  38.034  12.118   3.113
18660W        W83821  16.620  33.037   0.290
18661W        W83822  22.535  17.656  14.364
18662W        W83823  44.917  33.313  13.582
18663W        W83824   1.852  34.142  12.019
18664W        W83825  40.473  37.963   4.049
18665W        W83826  30.269  23.738  11.467
18666W        W83827  29.728  15.762  11.268
18667W        W83828  38.102  38.882  11.171
18668W        W83829  27.908   0.247   0.918
18669W        W83830  29.528  32.433   2.292
18670W        W83831  19.473   9.163  10.361
18671W        W83832  36.039  19.892   0.419
18672W        W83833  10.703  39.723  13.789
18673W        W83834  13.262  18.461  10.379
18674W        W83835  42.824  33.514   4.039
18675W        W83836  27.862  28.385   1.986
18676W        W83837  40.867  23.211   0.973
18677W        W83838  44.950  27.284  14.707
18678W        W83839  17.712  30.218  11.534
18679W        W83840   9.100  39.907   4.801
18680W        W83841  25.269  18.778   4.635
18681W        W83842   7.830  34.719  14.400
18682W        W83843  32.591   8.374  12.979
18683W        W83844  16.535  15.882  14.725
18684W        W83845  32.999  31.534  12.014
18685W        W83846  39.331   8.630  11.960
18686W        W83847  32.638   0.377  14.338
18687W        W83848  11.745  12.232  14.015
18688W        W83849  25.323  42.841   2.345
18689W        W83850  17.732  32.159  10.219
18690W        W83851  15.578  26.026   0.385
18691W        W83852  35.435   9.030  11.358
18692W        W83853  35.335  11.193  12.901
18693W        W83854  33.413  25.536   0.214
18694W        W83855  25.910   6.341   0.022
18695W        W83856  28.681  27.179  13.398
18696W        W83857  11.680   1.827  12.874
18697W        W83858  41.894  25.592   4.538
18698W        W83859  25.153  13.345   2.740
18699W        W83860  21.457  21.820  13.603
18700W        W83861  24.952  16.696  13.851
18701W        W83862  41.801  35.861  10.185
18702W        W83863  44.727  16.525   3.886
18703W        W83864  24.633  24.082  14.373
18704W        W83865   4.960  11.339   3.238
18705W        W83866   3.206  24.655   4.020
18706W        W83867   3.893   4.665   0.898
18707W        W83868  18.619  24.234   0.048
18708W        W83869  21.236  15.807   4.926
18709W        W83870  32.316   0.312  10.683
18710W        W83871  33.399  40.008  14.565
18711W        W83872   0.911   9.095   0.881
18712W        W83873   1.012   3.260  11.023
18713W        W83874   0.837   5.835  13.458
18714W        W83875   1.394  41.809  12.314
18715W        W83876  22.143  13.262  10.183
18716W        W83877  33.438  29.407   3.328
18717W        W83878  11.744  23.877  14.081
18718W        W83879   2.989   4.944  11.940
18719W        W83880  43.356  26.209   3.301
18720W        W83881   4.841  11.623  14.991
18721W        W83882  14.842  40.618   0.655
18722W        W83883  43.026  39.764  13.834
18723W        W83884  33.229  22.543   5.615
18724W        W83885  27.453  26.510  11.040
18725W        W83886  35.614   2.282   2.706
18726W        W83887  32.986  33.438  11.662
18727W        W83888  43.568   9.672   3.666
18728W        W83889  18.419  42.064  11.232
18729W        W83890  21.290   2.960  12.402
18730W        W83891  29.039  38.344   3.281
18731W        W83892  25.633  31.233   3.890
18732W        W83893  41.259  14.895   0.132
18733W        W83894  20.590  11.871   1.708
18734W        W83895  39.905  26.626   0.306
18735W        W83896   1.967  17.658  13.577
18736W        W83897  43.421   9.866  14.488
18737W        W83898  25.501   6.779   0.272
18738W        W83899  39.438  23.237  10.743
18739W        W83900  43.300   5.675  12.552
18740W        W83901   1.461  21.583   0.891
18741W        W83902  19.550  28.184  10.717
18742W        W83903   6.239  17.171   1.816
18743W        W83904  16.209  29.087  13.029
18744W        W83905  25.979  23.088   3.622
18745W        W83906   6.712  11.607  13.010
18746W        W83907  35.158  24.593  14.849
18747W        W83908  34.870  26.640   2.896
18748W        W83909  29.891  24.589   1.719
18749W        W83910   7.246   9.834   1.133
18750W        W83911  39.536   3.752  14.653
18751W        W83912  33.416  31.845  11.589
18752W        W83913  20.399  19.333  13.502
18753W        W83914  11.843  43.595  11.451
18754W        W83915  19.697  27.899  14.641
18755W        W83916  37.887  13.201   2.181
18756W        W83917  29.811  26.243  10.790
18757W        W83918  24.741  13.674   2.842
18758W        W83919   6.098  31.518  13.547
18759W        W83920  39.475   1.234   1.295
18760W        W83921   8.828   6.227   1.877
18761W        W83922   8.456  10.606  11.945
18762W        W83923  19.834  11.250   2.093
18763W        W83924  24.696  18.445  14.922
18764W        W83925  32.995  19.068  13.000
18765W        W83926  26.156  26.078   2.328
18766W        W83927  32.721  17.695   3.538
18767W        W83928  34.103  19.062   0.992
18768W        W83929   8.229  36.169   2.842
18769W        W83930  16.413   4.921  11.096
18770W        W83931  18.312  14.065  11.777
18771W        W83932  12.865  13.733  11.848
18772W        W83933  26.480  44.466   4.241
18773W        W83934  10.624  11.657  12.118
18774W        W83935   4.729  39.287   1.830
18775W        W83936   0.742  25.640   1.668
18776W        W83937   9.050  14.626  10.501
18777W        W83938  33.181  44.882   3.708
18778W        W83939  41.906  31.134  13.498
18779W        W83940  39.034  11.120   2.277
18780W        W83941  16.112  37.501   2.760
18781W        W83942  21.825   8.223   0.281
18782W        W83943  17.788  21.218  14.972
18783W        W83944  29.897  29.693   4.059
18784W        W83945  22.556  44.682   0.390
18785W        W83946  10.321  13.362   4.304
18786W        W83947  16.250  18.319  10.945
18787W        W83948   9.061  29.499  10.702
18788W        W83949   4.005   8.950  11.146
18789W        W83950  21.537  25.615   4.689
18790W        W83951  29.026  36.865  13.772
18791W        W83952  37.898  37.106  14.084
18792W        W83953  41.756  31.173   2.771
18793W        W83954  18.128   5.537  10.647
18794W        W83955   8.705  28.503  11.612
18795W        W83956  34.146   6.524  12.199
18796W        W83957   7.795  36.805  13.502
18797W        W83958  36.272   4.392  11.116
18798W        W83959   3.770  34.526  11.514
18799W        W83960  20.784   7.195   4.441
18800W        W83961  36.996  43.666  10.619
18801W        W83962  37.232   8.820  13.019
18802W        W83963  26.734  30.997   0.892
18803W        W83964  25.257  44.303   1.626
18804W        W83965  13.456  31.760  10.247
18805W        W83966   3.250  16.003   1.229
18806W        W83967  20.675  15.235   4.433
18807W        W83968   8.683  44.938   0.446
18808W        W83969   3.990   9.721   0.391
18809W        W83970  30.122  18.978   4.278
18810W        W83971  24.608  17.961  14.826
18811W        W83972  36.364  16.636  14.007
18812W        W83973   6.334  43.852  13.631
18813W        W83974   4.405  27.913  12.671
18814W        W83975   3.780  22.277  10.703
18815W        W83976  37.500  33.660   4.520
18816W        W83977  28.273  16.695  14.877
18817W        W83978  25.235  11.885   1.725
18818W        W83979   7.199   6.065   3.652
18819W        W83980   4.672   6.795   2.296
18820W        W83981  26.594  16.028   3.284
18821W        W83982  21.233  20.743   1.365
18822W        W83983  21.477  20.090   0.327
18823W        W83984  12.758  40.308   1.408
18824W        W83985  14.120  12.267   4.500
18825W        W83986  42.460   0.207  11.104
18826W        W83987  35.533  43.990   1.870
18827W        W83988  26.389   5.396  10.658
18828W        W83989   6.994  39.473   0.105
18829W        W83990  11.623  34.845   3.280
18830W        W83991  17.511  28.603  11.487
18831W        W83992   7.879  26.943  12.528
18832W        W83993   2.940   8.573   3.432
18833W        W83994   3.803  42.674   3.693
18834W        W83995  41.037  42.500  12.891
18835W        W83996  13.804  24.775   0.264
18836W        W83997   0.417  19.714   0.421
18837W        W83998   2.297  30.152   2.323
18838W        W83999   7.402  14.094  11.992
18839W        W84000  14.255  42.487  12.058
18840W        W84001   1.173  35.018   3.722
18841W        W84002  19.814  13.081  12.688
18842W        W84003  36.540  33.705  14.309
18843W        W84004  20.374   0.066  13.387
18844W        W84005  44.243  27.320   0.400
18845W        W84006   4.020   0.795  13.543
18846W        W84007  20.682  19.261  12.750
18847W        W84008   3.859  36.855   3.777
18848W        W84009   1.422   8.224  13.428
18849W        W84010  20.135  18.971  14.939
18850W        W84011  31.735  16.805  12.441
18851W        W84012   7.110   9.283   4.200
18852W        W84013  16.750  10.439  13.543
18853W        W84014  34.928  18.855   1.920
18854W        W84015  18.309   9.994  10.506
18855W        W84016  23.025  30.352   3.522
18856W        W84017  11.855  33.556   5.009
18857W        W84018  44.426  28.693  13.928
18858W        W84019  15.022  13.278  12.883
18859W        W84020  34.336   2.762  12.447
18860W        W84021  33.898  36.150  14.866
18861W        W84022  40.698  20.145   4.680
18862W        W84023  44.035  14.797  14.981
18863W        W84024  39.038  23.850   1.231
18864W        W84025  43.793  13.298  11.195
18865W        W84026   4.234  43.776   3.337
18866W        W84027  16.225  16.294   0.957
18867W        W84028  36.248  20.018   4.173
18868W        W84029  26.116  21.032  14.402
18869W        W84030  15.850  35.859  10.912
18870W        W84031  31.986  29.608  13.617
18871W        W84032  17.653  24.674  10.984
18872W        W84033  19.054   7.870  11.579
18873W        W84034  31.651   8.720  13.012
18874W        W84035  15.124  42.333  14.861
18875W        W84036  14.715  37.109   2.371
18876W        W84037  22.189  25.976  12.139
18877W        W84038  20.428  11.224   3.068
18878W        W84039   3.795  38.019   2.690
18879W        W84040  38.446  34.030  10.781
18880W        W84041   0.967  18.547  11.576
18881W        W84042  30.860   7.723   2.863
18882W        W84043  17.335  36.671  11.155
18883W        W84044  42.353  12.997   0.973
18884W        W84045   9.360   2.652   3.455
18885W        W84046  37.493  40.532  14.841
18886W        W84047  13.282  28.123  14.722
18887W        W84048  16.799  36.852  12.296
18888W        W84049  24.014   6.207   2.778
18889W        W84050  32.180   5.400   4.035
18890W        W84051   5.638  15.662   4.673
18891W        W84052   8.722   4.763  10.312
18892W        W84053  36.310   0.709  14.057
18893W        W84054  30.550  25.190   4.942
18894W        W84055  37.563  33.511  11.592
18895W        W84056   9.841  21.844   3.625
18896W        W84057   9.759  19.822  13.308
18897W        W84058  37.416  27.083   3.314
18898W        W84059  28.215  39.404  14.486
18899W        W84060  11.183  39.775  12.609
18900W        W84061  21.636  23.572   3.121
18901W        W84062  16.895   4.088   2.773
18902W        W84063   5.467   1.510   4.244
18903W        W84064  38.554  30.373  13.531
18904W        W84065  24.896   3.871   4.529
18905W        W84066   3.725  19.684  12.453
18906W        W84067   1.142  18.504   3.745
18907W        W84068  30.064   1.330  10.760
18908W        W84069  40.164  32.630   2.490
18909W        W84070   3.720  30.121  12.201
18910W        W84071  18.000   8.908   2.354
18911W        W84072  41.196   3.648  11.027
18912W        W84073   3.463  38.314   3.279
18913W        W84074  39.293  18.658  13.754
18914W        W84075  38.649  44.688   1.213
18915W        W84076   2.832  13.627   2.798
18916W        W84077  14.787  16.157  12.144
18917W        W84078   5.503  35.907   3.166
18918W        W84079  26.988  23.728  11.966
18919W        W84080  18.969  15.171   0.656
18920W        W84081   1.986   1.948  14.642
18921W        W84082  16.662  13.677  14.173
18922W        W84083   1.803  34.499   0.200
18923W        W84084  34.968   1.839   3.577
18924W        W84085  23.673   6.991   0.024
18925W        W84086  13.422   3.602  14.495
18926W        W84087  34.457  35.411  11.403
18927W        W84088  35.689  30.429  13.285
18928W        W84089  29.556  17.279  10.914
18929W        W84090  22.170  34.135  11.239
18930W        W84091  40.318  20.680   1.661
18931W        W84092  39.781  29.158   0.831
18932W        W84093  13.755  16.913  10.825
18933W        W84094   8.733  43.469   3.630
18934W        W84095  23.415   2.309  13.407
18935W        W84096  10.396  24.010  13.983
18936W        W84097  15.838  19.783   1.802
18937W        W84098   1.504  38.782  11.392
18938W        W84099  21.244  12.215   2.124
18939W        W84100  44.347  36.565  12.429
18940W        W84101  21.350  38.950   4.392
18941W        W84102   0.238   9.601  14.257
18942W        W84103  36.893  32.113  13.434
18943W        W84104   5.256  40.939  11.553
18944W        W84105   5.860   0.920  13.092
18945W        W84106  22.522   0.410   4.810
18946W        W84107  31.876   7.731   2.622
18947W        W84108  25.274  29.918   1.702
18948W        W84109  11.746   9.296   0.710
18949W        W84110  36.492  37.987  12.402
18950W        W84111  17.065  30.956  13.551
18951W        W84112   0.771  27.975  10.759
18952W        W84113  19.552  26.125  12.601
18953W        W84114  11.620  14.167   2.415
18954W        W84115  39.710  31.406  11.632
18955W        W84116  30.084  15.411   1.871
18956W        W84117   8.284  25.411   1.766
18957W        W84118  24.747  43.802   4.101
18958W        W84119   1.912  25.564  11.845
18959W        W84120  24.979  10.263  13.094
18960W        W84121  30.366  42.954   3.739
18961W        W84122  12.281  16.615   0.756
18962W        W84123  39.084  41.528  14.501
18963W        W84124  44.821  38.935   5.311
18964W        W84125  31.614  33.653   3.677
18965W        W84126  36.141   8.146  12.045
18966W        W84127   2.262  37.775   4.246
18967W        W84128  20.199  42.245  10.588
18968W        W84129  39.652  18.314  11.693
18969W        W84130   6.403  23.667  12.798
18970W        W84131  23.290  10.746   0.379
18971W        W84132  26.295  24.070  13.791
18972W        W84133  30.141  38.703   5.179
18973W        W84134  34.097  17.005  11.288
18974W        W84135  10.539  33.672   2.583
18975W        W84136  36.648  42.886  11.998
18976W        W84137   1.306   4.636   4.371
18977W        W84138  24.215  32.973   3.666
18978W        W84139   1.108  10.452  13.385
18979W        W84140  41.355  37.876  14.115
18980W        W84141  26.603  40.690  13.379
18981W        W84142  44.654  33.131  11.904
18982W        W84143   0.823  12.764   3.070
18983W        W84144  39.078  32.379   0.477
18984W        W84145  19.461   9.253   1.494
18985W        W84146  29.194  25.601   3.319
18986W        W84147   4.838  11.089  14.910
18987W        W84148  43.548  28.316   3.373
18988W        W84149  43.351  26.693   3.497
18989W        W84150  30.235  41.120  11.866
18990W        W84151  14.354  34.918  11.058
18991W        W84152   4.711  24.380   9.690
18992W        W84153  44.365  35.972   2.183
18993W        W84154  39.606  28.375  12.209
18994W        W84155  25.727   8.317   0.479
18995W        W84156   8.469  40.009   3.580
18996W        W84157   1.281  36.528  14.899
18997W        W84158  43.277  13.108   3.153
18998W        W84159  32.529  18.158   4.370
18999W        W84160  25.527  29.813  14.398
19000W        W84161  18.288  11.093   0.921
19001W        W84162  43.537  15.700  13.881
19002W        W84163   7.336  25.563   4.208
19003W        W84164  40.452  31.693   1.447
19004W        W84165  26.230  23.178   0.785
19005W        W84166  42.090   5.920  13.047
19006W        W84167   4.261   0.885  12.374
19007W        W84168   0.204  29.262   1.841
19008W        W84169   9.871  20.754   0.894
19009W        W84170  27.768   6.846  14.986
19010W        W84171  23.582  21.177   0.255
19011W        W84172   3.190  18.604   1.831
19012W        W84173   6.834  20.137  14.348
19013W        W84174  37.708  29.556   3.018
19014W        W84175   9.218  35.480  14.705
19015W        W84176  42.826  25.732  11.166
19016W        W84177   4.038  40.031  13.414
19017W        W84178  30.825   7.990  12.034
19018W        W84179   8.230  20.191  11.232
19019W        W84180  33.664   1.822  11.129
19020W        W84181  41.861  15.928  13.058
19021W        W84182   3.840  44.113  11.651
19022W        W84183   6.830  43.680  12.028
19023W        W84184  13.435  25.653   4.552
19024W        W84185  21.294   5.915  11.130
19025W        W84186  44.707  39.437  13.401
19026W        W84187  16.187  36.182  12.763
19027W        W84188  39.199  23.727   1.702
19028W        W84189  16.843   0.077  10.748
19029W        W84190   6.330  28.708   3.315
19030W        W84191  14.893  31.052  10.852
19031W        W84192   0.177   6.913   0.915
19032W        W84193  32.610  28.036   0.933
19033W        W84194  32.557  26.099   0.461
19034W        W84195   9.802  30.949   1.388
19035W        W84196  32.930  29.336  10.278
19036W        W84197  14.113  22.750   1.124
19037W        W84198  21.552  35.890  14.223
19038W        W84199  10.313  26.180  14.811
19039W        W84200  31.888  16.323  12.617
19040W        W84201  37.130  34.944   0.757
19041W        W84202   3.475  14.353   0.886
19042W        W84203   9.194  44.671   4.520
19043W        W84204  28.466  39.177  13.399
19044W        W84205  42.342  25.414   3.619
19045W        W84206   5.748  37.400   2.185
19046W        W84207  43.884  14.644   5.470
19047W        W84208  18.258  18.523   3.549
19048W        W84209  30.845   6.340   2.620
19049W        W84210  20.157  43.016   5.197
19050W        W84211  41.772  22.646  12.430
19051W        W84212   0.295  13.241  12.400
19052W        W84213  28.590  28.816  14.829
19053W        W84214   3.462  37.008   3.497
19054W        W84215  28.566  14.100  11.095
19055W        W84216  43.400  43.505   3.636
19056W        W84217  32.090  24.900   4.860
19057W        W84218  21.155  12.141  11.122
19058W        W84219   2.006  33.397  10.712
19059W        W84220  42.409  16.150   2.496
19060W        W84221  14.432   3.480   0.275
19061W        W84222   5.714  42.301   4.434
19062W        W84223  39.880  36.622   2.865
19063W        W84224  19.203  11.704   2.980
19064W        W84225  11.896  33.171  14.194
19065W        W84226   9.146   6.103  13.596
19066W        W84227   9.218  10.608  12.921
19067W        W84228  41.453  36.007  12.407
19068W        W84229  10.732  43.557   2.333
19069W        W84230  33.531  22.680  11.541
19070W        W84231  34.988  12.819  10.732
19071W        W84232   4.053  33.106  12.003
19072W        W84233  17.206  10.217   2.690
19073W        W84234  37.975  16.538   0.488
19074W        W84235  24.479  34.462  11.701
19075W        W84236  31.669   3.873  10.506
19076W        W84237  29.859   1.133   4.959
19077W        W84238  12.362  18.786   1.846
19078W        W84239  23.466  38.017   5.127
19079W        W84240  42.428  39.095  13.425
19080W        W84241  27.446  11.602  12.094
19081W        W84242   4.714  32.438   4.542
19082W        W84243  26.717  37.314   5.055
19083W        W84244  37.631  36.929   0.446
19084W        W84245  14.892  22.208  11.683
19085W        W84246  19.481  30.681  13.848
19086W        W84247  35.237  21.182  10.395
19087W        W84248   8.176  11.250  12.386
19088W        W84249   7.587   6.814  10.491
19089W        W84250  44.176   6.223   4.075
19090W        W84251  32.846  16.615  13.738
19091W        W84252  23.891   8.154  12.337
19092W        W84253  34.366  13.414   3.629
19093W        W84254  11.521   0.487   4.623
19094W        W84255  44.854  24.675   2.965
19095W        W84256  19.609  35.671  10.402
19096W        W84257  44.376   3.899   0.725
19097W        W84258  18.652  36.205   2.623
19098W        W84259   6.395  37.468  13.520
19099W        W84260  40.287  12.770   4.158
19100W        W84261   6.532  32.338  11.634
19101W        W84262  41.432  15.296   3.713
19102W        W84263  38.346  11.603   2.867
19103W        W84264   3.430  19.970  14.514
19104W        W84265  33.555  28.135  13.063
19105W        W84266  19.974  42.359  12.813
19106W        W84267   7.175  27.540  12.791
19107W        W84268  31.441   5.148  14.906
19108W        W84269   4.620  21.588  12.064
19109W        W84270   4.438  29.466   3.799
19110W        W84271  23.647  24.711  12.099
19111W        W84272  44.343  20.216   0.098
19112W        W84273  13.546   4.271   2.684
19113W        W84274   5.433   1.071   2.963
19114W        W84275  20.211  39.090   1.532
19115W        W84276  28.486  14.242  14.950
19116W        W84277   1.868  30.809   3.637
19117W        W84278   2.823  16.311   1.416
19118W        W84279  11.328   7.828  13.702
19119W        W84280  41.307  36.016   3.351
19120W        W84281  20.989  44.986  14.531
19121W        W84282  32.926  40.452  13.291
19122W        W84283  29.866  27.216  11.959
19123W        W84284  36.101  17.573   1.441
19124W        W84285  24.089  42.147   4.901
19125W        W84286  22.335  14.663  11.075
19126W        W84287   3.150  38.064   0.584
19127W        W84288  33.090  17.448  11.939
19128W        W84289  27.174  18.304  13.450
19129W        W84290  10.336  21.931   1.407
19130W        W84291  24.240   1.717  11.908
19131W        W84292  14.275  14.087  14.838
19132W        W84293  18.630  21.751  10.624
19133W        W84294  25.016  26.644  12.029
19134W        W84295  37.919   4.974  10.720
19135W        W84296  36.546   5.914  10.653
19136W        W84297  32.383  29.980   3.322
19137W        W84298  25.456  33.194   4.538
19138W        W84299  43.366  10.818  14.381
19139W        W84300  16.303  32.421   4.038
19140W        W84301  25.095   9.321   0.264
19141W        W84302  42.345  29.724   2.787
19142W        W84303   1.983  18.638  10.720
19143W        W84304  21.974  28.291   9.767
19144W        W84305  40.817  28.525   3.571
19145W        W84306  15.272   4.893   0.085
19146W        W84307  24.766  27.734   0.720
19147W        W84308   5.382  30.589  10.623
19148W        W84309  43.278  37.671  13.364
19149W        W84310  13.232  34.384   5.020
19150W        W84311   0.107  44.872  13.060
19151W        W84312  32.853  25.093  12.985
19152W        W84313  22.167  25.511   3.358
19153W        W84314  38.536  17.197  11.195
19154W        W84315  25.549  43.382  11.156
19155W        W84316  23.373  34.727   3.769
19156W        W84317  22.053  30.360   1.429
19157W        W84318  19.409  11.168  13.189
19158W        W84319  15.670  35.427   3.134
19159W        W84320  17.153  15.902  12.042
19160W        W84321  21.232  36.873   0.028
19161W        W84322  38.737   3.408   4.480
19162W        W84323   9.863  27.539   0.887
19163W        W84324  23.053  17.794  12.566
19164W        W84325  30.519  40.441   2.304
19165W        W84326  24.707  18.009  11.110
19166W        W84327  44.455  40.121  12.643
19167W        W84328  40.508  13.723   2.278
19168W        W84329  13.683  10.743   4.511
19169W        W84330  44.545   2.471   0.919
19170W        W84331  25.322   3.596  11.067
19171W        W84332   0.341  41.796   3.678
19172W        W84333   3.267  30.560   2.186
19173W        W84334  33.220  16.851   1.278
19174W        W84335  37.011   9.058   4.003
19175W        W84336   9.144  19.648  13.791
19176W        W84337  14.956   3.764  14.328
19177W        W84338   5.200  18.483  12.461
19178W        W84339  39.847  15.409   4.624
19179W        W84340  44.782  18.220  10.744
19180W        W84341   3.637  28.358  11.151
19181W        W84342  28.749  40.234   2.390
19182W        W84343   2.325   0.643   4.226
19183W        W84344  19.026  33.014   4.619
19184W        W84345  16.625  15.559   3.562
19185W        W84346  29.133   5.269   0.314
19186W        W84347  36.411  18.128  12.600
19187W        W84348   4.322   8.244  10.644
19188W        W84349  28.037  28.390   3.243
19189W        W84350  42.578  31.541   2.812
19190W        W84351  18.095  37.163  10.628
19191W        W84352  35.810   2.502  12.948
19192W        W84353  11.826  33.681  14.403
19193W        W84354  36.945  30.908   1.279
19194W        W84355  38.572  13.211   0.211
19195W        W84356   3.456  39.840   0.866
19196W        W84357   2.455   2.705  13.035
19197W        W84358  26.416  30.622  14.955
19198W        W84359  43.142  19.081   0.972
19199W        W84360  40.956  14.707   1.475
19200W        W84361  21.531   9.988  13.832
19201W        W84362  31.380  37.516   4.113
19202W        W84363  12.366  19.125   4.204
19203W        W84364  26.198   3.803   1.832
19204W        W84365  29.674  17.337  12.371
19205W        W84366   5.932  31.242  12.104
19206W        W84367  16.299  25.778  14.944
19207W        W84368  30.803  28.889   3.777
19208W        W84369  11.761  37.855  12.301
19209W        W84370  10.865  10.142   3.313
19210W        W84371  42.757  23.409  14.243
19211W        W84372   3.730  36.043   2.227
19212W        W84373  23.105  30.287   2.207
19213W        W84374  13.543   8.239  14.687
19214W        W84375  11.231  41.477  14.077
19215W        W84376  42.800  26.445   1.783
19216W        W84377   7.340  25.721  10.274
19217W        W84378  28.691  27.838   1.435
19218W        W84379  12.140   1.542  11.994
19219W        W84380  22.090  19.825   2.755
19220W        W84381  11.676  36.546  12.118
19221W        W84382  14.828   7.645   2.212
19222W        W84383  23.046  20.565  12.712
19223W        W84384  14.325  25.126  12.523
19224W        W84385  24.718   7.110  12.927
19225W        W84386  32.575   2.011   4.984
19226W        W84387   5.260  24.679   5.044
19227W        W84388  11.317   0.431  12.737
19228W        W84389   3.949  25.938   3.848
19229W        W84390   7.277  28.168  12.575
19230W        W84391   7.063   3.896  13.058
19231W        W84392   9.754  11.621   3.129
19232W        W84393  31.659  41.997   1.760
19233W        W84394   9.900  39.066   1.982
19234W        W84395  22.063  20.757  12.591
19235W        W84396  14.244   2.452  12.376
19236W        W84397   8.467  25.961   3.434
19237W        W84398  13.807  37.760   0.121
19238W        W84399  11.282  35.347  11.720
19239W        W84400  12.318  12.732  14.774
19240W        W84401  11.288   7.911   2.860
19241W        W84402  39.063   0.984   1.575
19242W        W84403  27.609   9.689  13.921
19243W        W84404  12.500  15.037  12.096
19244W        W84405   4.497   5.691   1.398
19245W        W84406  34.585  22.995   2.362
19246W        W84407  38.662  38.972   4.651
19247W        W84408  36.301  17.659   1.945
19248W        W84409  28.691  13.914  13.850
19249W        W84410  23.835   3.675   4.691
19250W        W84411  36.115  26.700   0.860
19251W        W84412   8.937  10.213   2.857
19252W        W84413  29.185  27.634   0.856
19253W        W84414  32.158  44.708  13.421
19254W        W84415  13.593   0.961   3.859
19255W        W84416  28.934  30.175   1.812
19256W        W84417  24.338  44.913   0.693
19257W        W84418   1.996   6.334  12.314
19258W        W84419  33.224  30.040   1.241
19259W        W84420  39.414   0.418  11.624
19260W        W84421  14.335  23.229  12.016
19261W        W84422  40.188  24.279  13.805
19262W        W84423  23.175  26.940  14.788
19263W        W84424  29.314  33.459  10.888
19264W        W84425   4.463  14.646   1.954
19265W        W84426  24.643   6.605   4.958
19266W        W84427   5.307  15.820   3.600
19267W        W84428  44.275  36.724   1.290
19268W        W84429  11.938   3.822   3.191
19269W        W84430   0.832   9.921   3.198
19270W        W84431  30.162  39.329  10.532
19271W        W84432  34.097   5.768  13.389
19272W        W84433  21.651  36.621  12.529
19273W        W84434   4.190  32.115   3.714
19274W        W84435  11.254   5.622  14.132
19275W        W84436   0.832  32.559   2.733
19276W        W84437  31.872  21.905   0.290
19277W        W84438  43.909  38.461  13.832
19278W        W84439  25.057  42.393  12.975
19279W        W84440  41.112  36.391  12.517
19280W        W84441  39.161  26.055   4.533
19281W        W84442   5.201  34.901   3.815
19282W        W84443  29.365  10.921   1.283
19283W        W84444  43.144  21.148  13.344
19284W        W84445   0.581  21.600  12.619
19285W        W84446   8.023  31.918   0.798
19286W        W84447  17.734   4.286  12.597
19287W        W84448  35.190  43.939  11.426
19288W        W84449  17.164  24.725  12.175
19289W        W84450  21.299  23.402   1.879
19290W        W84451   2.793  17.904   2.254
19291W        W84452  21.770  42.807   2.364
19292W        W84453  32.507  20.367  12.874
19293W        W84454  32.649  33.914  11.961
19294W        W84455  42.634  10.320  14.340
19295W        W84456  41.504  12.710   1.070
19296W        W84457   7.694  40.719   1.370
19297W        W84458  11.579  27.635   2.025
19298W        W84459  30.038   5.168  12.436
19299W        W84460   2.704   0.737   1.384
19300W        W84461  30.497  14.164   2.317
19301W        W84462  13.058  29.907  12.110
19302W        W84463  38.168  10.176  13.986
19303W        W84464  24.560  24.247  14.854
19304W        W84465  24.507  15.929  13.793
19305W        W84466  34.184  20.355   2.311
19306W        W84467  36.719  34.140   0.446
19307W        W84468  43.748  25.037  14.361
19308W        W84469   2.364   9.026   0.844
19309W        W84470  30.878  11.632   4.891
19310W        W84471  15.757  30.036   4.484
19311W        W84472   7.772   2.994   1.690
19312W        W84473  37.753  41.021   9.575
19313W        W84474  15.144  23.486  14.539
19314W        W84475  27.992  43.861   4.622
19315W        W84476  31.865  22.685   0.907
19316W        W84477  20.212  11.204  11.930
19317W        W84478  31.534  35.945  14.534
19318W        W84479  11.270   2.819  13.789
19319W        W84480   4.315  10.532  14.322
19320W        W84481   6.499  34.884  11.148
19321W        W84482   1.395  35.649  11.608
19322W        W84483  24.570  18.515  14.058
19323W        W84484  20.042  15.630  13.399
19324W        W84485  40.399   2.084  12.048
19325W        W84486  10.889  18.147   2.870
19326W        W84487  30.780  29.919   2.386
19327W        W84488   4.442  11.161  11.573
19328W        W84489  15.304  22.902   4.153
19329W        W84490  43.056  26.673   1.407
19330W        W84491  15.618  44.510   2.737
19331W        W84492  33.583  37.383  11.488
19332W        W84493  18.606  30.872   3.611
19333W        W84494  23.577  44.150   0.837
19334W        W84495  27.915  40.497   1.706
19335W        W84496  43.323   9.791   4.612
19336W        W84497  41.385  32.112   1.559
19337W        W84498  36.545  16.287  13.313
19338W        W84499   1.902   0.316  14.951
19339W        W84500  37.492  25.180  12.164
19340W        W84501  21.101  10.899   3.836
19341W        W84502  42.972  38.457   3.193
19342W        W84503  13.069  26.896  12.051
19343W        W84504  18.694   4.321   2.397
19344W        W84505  20.696  17.117  10.637
19345W        W84506  17.126  15.628   1.175
19346W        W84507  23.224  39.855   0.101
19347W        W84508  35.359  39.082   0.036
19348W        W84509  26.279  13.588  13.317
19349W        W84510   2.495   0.919  11.201
19350W        W84511   8.643  33.371  14.831
19351W        W84512  22.115  10.703   3.642
19352W        W84513  20.539  37.430  12.306
19353W        W84514  40.538   2.661   1.680
19354W        W84515  37.976  17.328   2.469
19355W        W84516  24.071  29.140  12.870
19356W        W84517  15.222   5.309   0.373
19357W        W84518   5.951  24.511   2.609
19358W        W84519   8.057  28.739   0.733
19359W        W84520  14.613   7.913   1.773
19360W        W84521  42.417  44.236  13.141
19361W        W84522  32.862  18.703  14.754
19362W        W84523  24.231   5.553  10.742
19363W        W84524  40.500  34.841  12.098
19364W        W84525  30.090  21.612  14.868
19365W        W84526  34.364  40.291   2.113
19366W        W84527   9.796   4.032   0.349
19367W        W84528  44.444  31.550  11.682
19368W        W84529  26.091  12.138  14.967
19369W        W84530  26.442   3.880   3.137
19370W        W84531  27.085  18.322  12.484
19371W        W84532  23.585  35.583  11.516
19372W        W84533  28.358  16.026  14.157
19373W        W84534  33.533  42.349  10.335
19374W        W84535  23.171   2.305   1.779
19375W        W84536   6.099  14.212   4.655
19376W        W84537  21.062  10.866   2.306
19377W        W84538  19.273  28.753   3.238
19378W        W84539   5.870  36.007   4.630
19379W        W84540  10.161  35.550  14.826
19380W        W84541  43.912  28.129  10.461
19381W        W84542  26.604  28.421  14.951
19382W        W84543  12.869   5.911   0.815
19383W        W84544   9.812  13.400   0.848
19384W        W84545  12.675   4.363  12.514
19385W        W84546  21.717  26.915  13.533
19386W        W84547  28.250  32.532  13.036
19387W        W84548  12.092  24.199   4.719
19388W        W84549  38.991  39.790   1.414
19389W        W84550  44.606  41.018   5.091
19390W        W84551  43.542   5.908  12.946
19391W        W84552  24.512  18.683   1.484
19392W        W84553  27.578  35.570   0.210
19393W        W84554  43.119  36.863   1.353
19394W        W84555   7.795  31.553   3.471
19395W        W84556  18.612  38.863   4.853
19396W        W84557  30.571  26.683  14.222
19397W        W84558  39.277  23.659   0.449
19398W        W84559   6.272  17.665   3.311
19399W        W84560  11.627  29.403   4.506
19400W        W84561  10.803  44.541  10.554
19401W        W84562   5.697  24.270   9.847
19402W        W84563   4.224  31.196   3.644
19403W        W84564  14.345   8.935   2.177
19404W        W84565  20.426   4.520  11.202
19405W        W84566  28.969   2.781  11.147
19406W        W84567  15.375  38.797   4.586
19407W        W84568  38.775  26.582   3.645
19408W        W84569  16.335  35.837   4.224
19409W        W84570  35.146   5.347   2.762
19410W        W84571  28.983   4.184   2.877
19411W        W84572  15.644   7.461  13.913
19412W        W84573  13.695  23.374   0.539
19413W        W84574  13.306  41.959   2.954
19414W        W84575  35.398  33.290   1.139
19415W        W84576  33.502  21.472   4.356
19416W        W84577   7.771  44.785   2.247
19417W        W84578   1.385   8.906  11.890
19418W        W84579  27.673  14.721   2.731
19419W        W84580  20.048  35.435   3.139
19420W        W84581  36.995  10.398   0.004
19421W        W84582  21.656  42.086   3.476
19422W        W84583  23.659  14.237   4.489
19423W        W84584   8.690  42.970  11.363
19424W        W84585  44.673  14.711   1.689
19425W        W84586  38.868  27.417   3.711
19426W        W84587  20.524  27.021   1.788
19427W        W84588  10.859   0.019   3.159
19428W        W84589   7.996  40.828  10.955
19429W        W84590  37.021   4.453   0.563
19430W        W84591  16.046  41.353  14.864
19431W        W84592  39.052   2.821   3.780
19432W        W84593   7.454  17.583  11.963
19433W        W84594   7.305  36.873   1.726
19434W        W84595   3.454  10.746   3.577
19435W        W84596  41.152  29.509  13.802
19436W        W84597  38.946  31.492  12.864
19437W        W84598  17.139   1.404   1.162
19438W        W84599  31.134  21.298  14.325
19439W        W84600  35.078  38.738   2.184
19440W        W84601  43.911  42.400  11.560
19441W        W84602   6.740  32.214   3.721
19442W        W84603  29.082  17.178  13.501
19443W        W84604   0.653  22.203   3.098
19444W        W84605  12.770  13.388  12.700
19445W        W84606  43.871  44.562  11.008
19446W        W84607  29.052  29.620   3.589
19447W        W84608  44.451  31.883   4.158
19448W        W84609   0.766  38.297  12.514
19449W        W84610  13.170  24.609  13.420
19450W        W84611  24.905   7.463   3.854
19451W        W84612   7.625  39.171  13.087
19452W        W84613  31.509   6.876  12.099
19453W        W84614  36.115  33.917   3.646
19454W        W84615  31.179  13.780   1.800
19455W        W84616  31.264  29.898   3.964
19456W        W84617  25.929   6.380  11.001
19457W        W84618  40.534  22.901  10.341
19458W        W84619  27.424  25.804   3.531
19459W        W84620   3.874  44.238  13.421
19460W        W84621   3.686  12.197   2.388
19461W        W84622  24.148  19.495  11.907
19462W        W84623   3.735   5.490   1.728
19463W        W84624   2.525  28.921  12.618
19464W        W84625  39.052  19.995  13.029
19465W        W84626   6.129  11.404  12.036
19466W        W84627  17.444  25.092  13.502
19467W        W84628  31.602   0.738  14.031
19468W        W84629  43.826  17.746   2.308
19469W        W84630  27.085  11.872  12.884
19470W        W84631  21.332  33.776   0.965
19471W        W84632  32.581  33.216  13.631
19472W        W84633   9.099  41.589  11.266
19473W        W84634   3.824  10.488  13.522
19474W        W84635  14.864   8.659  13.157
19475W        W84636  35.196  31.953   2.107
19476W        W84637   4.786   2.309   0.800
19477W        W84638  43.863  30.155  13.003
19478W        W84639  26.294   0.353   4.193
19479W        W84640   0.842  27.480   4.409
19480W        W84641  18.199  31.223   3.573
19481W        W84642  13.368  12.689   3.663
19482W        W84643  43.749  38.514  12.899
19483W        W84644  30.177  32.211  14.080
19484W        W84645  15.619  37.587   1.112
19485W        W84646  11.706  25.043  12.868
19486W        W84647  13.668  39.987   1.702
19487W        W84648   9.331  26.971  13.355
19488W        W84649   3.295   5.622  14.044
19489W        W84650  20.544  21.410   1.936
19490W        W84651  16.321   5.784  11.395
19491W        W84652  24.253  11.185  14.989
19492W        W84653  28.602  38.593   3.433
19493W        W84654   6.677  14.155  13.950
19494W        W84655  44.464   9.742   1.815
19495W        W84656  15.805  13.214  14.887
19496W        W84657  20.977  21.799   3.075
19497W        W84658   1.436  11.339   1.124
19498W        W84659   5.891  36.097  12.415
19499W        W84660  15.625  16.243   1.814
19500W        W84661  40.981  22.406  10.840
19501W        W84662  18.045   9.731   1.439
19502W        W84663  33.207  20.437   5.010
19503W        W84664   9.246  41.922   2.830
19504W        W84665  32.403  37.884   3.768
19505W        W84666  34.131  23.076   0.865
19506W        W84667   8.715  39.605  14.547
19507W        W84668   7.366  15.384   4.205
19508W        W84669  15.292  29.127   4.552
19509W        W84670  39.258  23.459   3.068
19510W        W84671   2.922  31.663   1.351
19511W        W84672  13.165   0.351  14.244
19512W        W84673  30.038   6.335  12.789
19513W        W84674  31.662  29.442   3.691
19514W        W84675  10.767   6.261   0.123
19515W        W84676  23.582   1.896   3.433
19516W        W84677   7.396  18.121  11.118
19517W        W84678   4.698  40.016   3.779
19518W        W84679  34.367   0.694  11.633
19519W        W84680  21.776  39.846   1.893
19520W        W84681   0.407  34.940   1.729
19521W        W84682   7.054  23.594  14.904
19522W        W84683   8.433  34.503   2.819
19523W        W84684  10.242  24.178   4.502
19524W        W84685  18.703   2.942   2.353
19525W        W84686   9.880  33.624  14.915
19526W        W84687  18.013   8.313   2.805
19527W        W84688   5.378  20.562   2.769
19528W        W84689  38.445  27.112   1.146
19529W        W84690  40.992   6.027   0.206
19530W        W84691  21.084  30.068  10.473
19531W        W84692  29.043   5.337  14.805
19532W        W84693   4.708  23.947   5.076
19533W        W84694  28.687  27.544   0.742
19534W        W84695   5.489  29.945   2.315
19535W        W84696  22.523  37.373   4.839
19536W        W84697  16.757  37.871  12.394
19537W        W84698  40.757  40.828  12.911
19538W        W84699  13.555  11.867   2.825
19539W        W84700  36.601   0.358   3.566
19540W        W84701   9.168  37.706   1.969
19541W        W84702  33.967  30.759   0.336
19542W        W84703  39.713  35.211  12.555
19543W        W84704  15.583   5.658   4.103
19544W        W84705  16.823  20.363  11.168
19545W        W84706  35.447  29.491  10.586
19546W        W84707  21.796  41.827   0.792
19547W        W84708  26.889  27.914   5.046
19548W        W84709  13.470  23.740   1.835
19549W        W84710   8.845  10.968  14.349
19550W        W84711  32.445  41.543   1.260
19551W        W84712  37.831  14.327   3.778
19552W        W84713  31.609  34.959  11.072
19553W        W84714   9.946  20.997  14.335
19554W        W84715  27.101  17.801  13.579
19555W        W84716  16.198  10.805   0.726
19556W        W84717   8.787   5.629   4.549
19557W        W84718  25.696   2.231  14.042
19558W        W84719  15.848  15.615   2.391
19559W        W84720  12.316   9.757  10.790
19560W        W84721  33.026   4.425   2.443
19561W        W84722   4.856   2.952  14.060
19562W        W84723  35.473  17.178  13.531
19563W        W84724  22.178   4.081  10.560
19564W        W84725   3.298  42.489   2.672
19565W        W84726  24.032   3.202   3.596
19566W        W84727   1.001  32.045   3.699
19567W        W84728  44.345  30.175  12.305
19568W        W84729  18.879   1.659  11.133
19569W        W84730  35.506  14.215   1.904
19570W        W84731   3.732  12.748  13.496
19571W        W84732   2.711  10.701  13.457
19572W        W84733  23.843  13.047   2.347
19573W        W84734  14.689   7.891   0.924
19574W        W84735   5.387  33.760  10.563
19575W        W84736  26.748  33.087   2.755
19576W        W84737   5.149  18.130   4.176
19577W        W84738  17.213  17.678   2.228
19578W        W84739  31.310  13.661  14.361
19579W        W84740  41.962  40.924   1.547
19580W        W84741  27.088  38.320  14.387
19581W        W84742  24.421  36.344   0.171
19582W        W84743  31.992  28.412   2.797
19583W        W84744  34.648  21.131  11.632
19584W        W84745  33.308  28.341   4.328
19585W        W84746  17.527  30.564   1.311
19586W        W84747  26.889  12.777  12.425
19587W        W84748  29.984  44.740  10.591
19588W        W84749  14.700  19.768  13.928
19589W        W84750  43.344  25.199  11.625
19590W        W84751  18.057  12.184   3.477
19591W        W84752   7.740   5.658   2.108
19592W        W84753   5.578   7.370  10.658
19593W        W84754   1.281  30.658  14.777
19594W        W84755  33.823  30.467  11.830
19595W        W84756  36.559  24.853  10.113
19596W        W84757  32.022  20.544   0.255
19597W        W84758  16.588   4.030   0.880
19598W        W84759  40.837  27.532  10.786
19599W        W84760   4.267   9.357  14.202
19600W        W84761   6.088  12.122  14.166
19601W        W84762   1.579  16.069   0.212
19602W        W84763  27.185   0.969   1.947
19603W        W84764  28.089   1.431  12.519
19604W        W84765  16.605  26.527  11.414
19605W        W84766  14.232   0.007   3.273
19606W        W84767  40.033  12.252   4.465
19607W        W84768   2.921  26.461   2.538
19608W        W84769  18.856  32.924  11.474
19609W        W84770  32.128  40.909  12.175
19610W        W84771  43.206  43.456  14.126
19611W        W84772  26.656   5.977   0.041
19612W        W84773  17.221   4.365  14.340
19613W        W84774  33.125  22.166   3.773
19614W        W84775  25.612  40.871  14.232
19615W        W84776   6.851  35.177  12.195
19616W        W84777  17.080   0.501  13.433
19617W        W84778  38.089   6.404  12.028
19618W        W84779   2.190   2.397   0.333
19619W        W84780  11.082  38.727   0.313
19620W        W84781  17.344  32.856   4.555
19621W        W84782  41.015   8.573   5.342
19622W        W84783   5.697   4.978   0.800
19623W        W84784  12.703  40.208  14.774
19624W        W84785  20.038  27.734   0.023
19625W        W84786   7.502   9.638  12.525
19626W        W84787   4.979   6.689  14.444
19627W        W84788  23.029  17.131  14.803
19628W        W84789  32.221   1.843  10.655
19629W        W84790  25.703   4.695   0.318
19630W        W84791  13.746  10.160   2.833
19631W        W84792   5.008  13.691   2.839
19632W        W84793  11.924   0.020  12.580
19633W        W84794  31.542  42.510   1.839
19634W        W84795  38.851  26.760   2.773
19635W        W84796   2.416  32.021   2.540
19636W        W84797  12.901  41.515  12.206
19637W        W84798   5.098   5.000  12.462
19638W        W84799  12.706  13.409  13.208
19639W        W84800  32.040  11.612   1.204
19640W        W84801  39.274  21.200   0.207
19641W        W84802   8.750  11.690   3.180
19642W        W84803  36.172  42.012   0.311
19643W        W84804  34.003   3.254  10.254
19644W        W84805  12.626  10.226   0.939
19645W        W84806   6.911   5.483   1.844
19646W        W84807  27.920  18.546   0.281
19647W        W84808  23.127  26.070  11.176
19648W        W84809  40.059  43.380  14.944
19649W        W84810   3.539  22.105   3.114
19650W        W84811  17.560  23.668   3.138
19651W        W84812  13.667  19.168  13.369
19652W        W84813  41.999  32.060   2.868
19653W        W84814  10.538  30.044   2.202
19654W        W84815  42.790  14.653  11.002
19655W        W84816   2.265   9.744   5.024
19656W        W84817   5.461  34.881  14.852
19657W        W84818   5.855  42.481   2.923
19658W        W84819   8.649  29.608   0.333
19659W        W84820  19.996  13.320  13.958
19660W        W84821  10.817  40.241  12.490
19661W        W84822  25.033  15.260   1.569
19662W        W84823  35.589   2.421   4.535
19663W        W84824   7.479   7.734  14.785
19664W        W84825   4.589   8.197   2.507
19665W        W84826  40.295  21.974   1.321
19666W        W84827  20.817  19.686  13.901
19667W        W84828  18.261  22.300  11.520
19668W        W84829  17.726   9.445  11.969
19669W        W84830  11.818   8.842  12.909
19670W        W84831  40.518  28.566   1.320
19671W        W84832  34.804  25.192   2.477
19672W        W84833  36.588  38.327   2.392
19673W        W84834  17.209   8.344  11.569
19674W        W84835  41.956   8.193  11.516
19675W        W84836  38.283  33.735   4.896
19676W        W84837  25.437  24.549   1.595
19677W        W84838  31.428  28.611   2.174
19678W        W84839   7.325  12.036  12.046
19679W        W84840   1.600  36.971   4.920
19680W        W84841   2.306  19.677   3.881
19681W        W84842  15.095  34.462   3.671
19682W        W84843  18.540  12.542  14.357
19683W        W84844  26.200  44.564  11.249
19684W        W84845  11.601   1.555   0.912
19685W        W84846   9.410  13.180   1.390
19686W        W84847  27.598  20.480  14.273
19687W        W84848  25.206  17.826  13.460
19688W        W84849  16.716  39.318   5.254
19689W        W84850   4.420  12.045  10.435
19690W        W84851  36.364   1.396   0.947
19691W        W84852  34.764  42.867  12.488
19692W        W84853   9.262  23.128   1.044
19693W        W84854  30.381  39.288  14.460
19694W        W84855  31.407  10.347  11.698
19695W        W84856  16.526  33.976   4.867
19696W        W84857  25.473   0.932  10.680
19697W        W84858  31.615  41.399  12.478
19698W        W84859  39.851   3.400  11.391
19699W        W84860  30.831  26.945   3.715
19700W        W84861  12.393  29.628   2.264
19701W        W84862  28.070  26.929  14.924
19702W        W84863  36.884  28.204  14.740
19703W        W84864  44.388  43.036   0.048
19704W        W84865  19.280  15.528   5.080
19705W        W84866   4.147  26.260   1.781
19706W        W84867  32.039   5.477  11.095
19707W        W84868  20.733   2.236   2.233
19708W        W84869  34.164  40.415   4.082
19709W        W84870  25.226   4.388  13.544
19710W        W84871   4.079  23.154   9.820
19711W        W84872  36.903  26.453  13.989
19712W        W84873  22.042   8.190   1.743
19713W        W84874  22.730  11.127  11.778
19714W        W84875  25.168  41.060   4.965
19715W        W84876  22.087  16.401   4.984
19716W        W84877  43.898  35.770   1.398
19717W        W84878  30.919  40.062  11.154
19718W        W84879   1.485  33.556  14.912
19719W        W84880  35.233  35.376   2.663
19720W        W84881  21.270  33.665  14.317
19721W        W84882  27.697  14.127  12.067
19722W        W84883   0.958  38.781  12.585
19723W        W84884  19.643  30.018   0.111
19724W        W84885  44.952  28.845   2.061
19725W        W84886  26.513  24.254   4.185
19726W        W84887  34.582  24.070   4.128
19727W        W84888  29.569  43.202   1.755
19728W        W84889  18.622  18.748  13.311
19729W        W84890  44.693  11.186  14.020
19730W        W84891   6.217  16.792   4.382
19731W        W84892   9.779  16.737  14.649
19732W        W84893   3.796   8.287  10.725
19733W        W84894   1.912  13.253  10.640
19734W        W84895  29.236  29.772   1.909
19735W        W84896  27.167   1.890  11.565
19736W        W84897  17.475  42.684   9.663
19737W        W84898  28.465  33.595  14.881
19738W        W84899  28.891  37.360  13.864
19739W        W84900   0.471   9.927   0.823
19740W        W84901  20.320  15.595   3.391
19741W        W84902  43.554  44.751   4.596
19742W        W84903  19.145  23.930  12.635
19743W        W84904  13.648  36.811   1.119
19744W        W84905  12.131  41.301  13.470
19745W        W84906   1.164  23.557  11.572
19746W        W84907  17.719  22.697  10.694
19747W        W84908  14.839   6.330   4.121
19748W        W84909  27.028  25.544   3.292
19749W        W84910  17.270  26.820   4.232
19750W        W84911  18.847  18.724  12.434
19751W        W84912  33.701  24.216  11.592
19752W        W84913   5.592  11.321  13.281
19753W        W84914  33.315  33.812  12.582
19754W        W84915  44.277  30.503  14.717
19755W        W84916   4.288  42.784  11.977
19756W        W84917  24.522  22.954   1.318
19757W        W84918  10.752   7.360   4.791
19758W        W84919   3.116  32.832  13.540
19759W        W84920  12.021  23.882   4.302
19760W        W84921  40.501  26.386   5.083
19761W        W84922  14.839  35.608  14.514
19762W        W84923   6.275  37.976   4.074
19763W        W84924  22.337   8.316   4.100
19764W        W84925  17.620   4.904  13.451
19765W        W84926  32.439  24.937   3.613
19766W        W84927   5.851  29.918  14.760
19767W        W84928  19.864  44.309   3.677
19768W        W84929  25.977   0.841  10.475
19769W        W84930   3.529  41.003  12.881
19770W        W84931  27.223   0.478  12.036
19771W        W84932  33.769   8.434   0.986
19772W        W84933  13.364  23.057  11.609
19773W        W84934  20.081  39.562   3.302
19774W        W84935   2.207   9.751  12.986
19775W        W84936  16.894  25.849   2.424
19776W        W84937  14.916  15.563   0.915
19777W        W84938  27.956  36.588   1.702
19778W        W84939  20.287  26.981   3.816
19779W        W84940   8.940  38.874  11.986
19780W        W84941   6.885  38.404  12.562
19781W        W84942   1.790  37.820  12.934
19782W        W84943  19.524  38.052  12.446
19783W        W84944   9.823  24.068   3.242
19784W        W84945  18.048  13.067   1.761
19785W        W84946  42.376  44.186  11.171
19786W        W84947  27.257  12.120   2.646
19787W        W84948  32.889  36.373   9.649
19788W        W84949   1.074  21.041   2.877
19789W        W84950   2.347  18.613   4.350
19790W        W84951  14.359  41.881   0.993
19791W        W84952  34.425  28.003  11.676
19792W        W84953  37.260  41.072   4.545
19793W        W84954  35.626  24.011  11.465
19794W        W84955  31.450  41.989   3.319
19795W        W84956  42.078   6.379  11.641
19796W        W84957  14.731   2.443   0.450
19797W        W84958  38.107  35.914   4.150
19798W        W84959   6.404  40.632   4.365
19799W        W84960   5.123  24.264  11.742
19800W        W84961  40.337  39.367  11.180
19801W        W84962  39.540  28.049  11.792
19802W        W84963  38.924  39.329  10.787
19803W        W84964   1.562   3.678   4.582
19804W        W84965  43.970  26.190   1.481
19805W        W84966  24.465  28.482   4.890
19806W        W84967   9.148  18.004   3.648
19807W        W84968  15.389  28.686  11.171
19808W        W84969  16.957  23.122   4.779
19809W        W84970  15.251  26.966  11.376
19810W        W84971  30.053  24.208  13.039
19811W        W84972  15.781  42.883  14.672
19812W        W84973  30.225  18.624  12.987
19813W        W84974   4.786  12.727  10.795
19814W        W84975  15.744  37.663   4.284
19815W        W84976  41.874  36.388   1.243
19816W        W84977  44.720   1.073  11.651
19817W        W84978  44.351   8.877   2.949
19818W        W84979  39.379   4.233  13.795
19819W        W84980  11.657  41.944   0.886
19820W        W84981  22.621   3.489   2.393
19821W        W84982  15.568  22.626   0.035
19822W        W84983  23.678  41.811   2.380
19823W        W84984   0.157   3.910  11.105
19824W        W84985  32.407  37.317  12.866
19825W        W84986  12.426  38.891  14.352
19826W        W84987   7.400  39.739   2.260
19827W        W84988  38.018  25.747  14.707
19828W        W84989  43.347  16.737   1.477
19829W        W84990  18.616  40.498  13.611
19830W        W84991  25.948  37.287   4.489
19831W        W84992   5.416  21.603  14.754
19832W        W84993  29.433  30.271   1.804
19833W        W84994  20.066  35.431   4.114
19834W        W84995  23.606  15.845   4.684
19835W        W84996   4.980   9.321  11.113
19836W        W84997  36.213  26.338   2.228
19837W        W84998  35.484  24.996   4.021
19838W        W84999  12.231  17.870  14.991
19839W        W85000  36.885  14.783   2.308
19840W        W85001  32.520  25.062  12.144
19841W        W85002   0.975  34.064  11.074
19842W        W85003  43.830  35.604   1.892
19843W        W85004  44.887  33.576  10.217
19844W        W85005  15.768  12.293  10.731
19845W        W85006  25.418  40.026  13.585
19846W        W85007  17.341  36.638   1.023
19847W        W85008  19.064  40.682  13.369
19848W        W85009  11.783  12.117   3.334
19849W        W85010  41.419   6.844  14.467
19850W        W85011  37.348  13.269   1.204
19851W        W85012  14.657   8.158  13.951
19852W        W85013   5.147  25.388   0.107
19853W        W85014  31.240   3.973  13.043
19854W        W85015  35.217   5.041   1.887
19855W        W85016  27.028   8.432  13.844
19856W        W85017  28.142  19.614   4.583
19857W        W85018  35.099  31.878   4.565
19858W        W85019   0.368   4.192  11.484
19859W        W85020  27.300  21.381  13.078
19860W        W85021  20.050   9.798  12.832
19861W        W85022  36.362  44.263   1.375
19862W        W85023  25.981   9.829   1.426
19863W        W85024  27.729   2.421  12.027
19864W        W85025   7.865  11.552  11.608
19865W        W85026  11.669  11.287  13.997
19866W        W85027  15.645   7.137  11.286
19867W        W85028  43.372  37.584   1.688
19868W        W85029   9.144  14.228  12.471
19869W        W85030  12.318   7.857   1.342
19870W        W85031  19.021   9.669  13.824
19871W        W85032  16.714   6.225  14.866
19872W        W85033   1.847  30.344  12.614
19873W        W85034  20.318   3.430   5.113
19874W        W85035  44.434  24.005   1.269
19875W        W85036  37.787  20.776  13.899
19876W        W85037  12.188  24.610  12.244
19877W        W85038  24.039   7.388  11.269
19878W        W85039   5.888  27.891  11.864
19879W        W85040  23.208  42.051   2.356
19880W        W85041   2.392  28.655   2.822
19881W        W85042  33.777  16.215   4.085
19882W        W85043   0.884  28.967  11.537
19883W        W85044  37.825  44.175  11.887
19884W        W85045  30.630  21.887   4.701
19885W        W85046   7.687  31.855  12.115
19886W        W85047  19.571  18.359  11.577
19887W        W85048  39.581  17.010  14.853
19888W        W85049  23.022   4.223   1.669
19889W        W85050   5.766  33.218  11.192
19890W        W85051  20.811  28.462  14.499
19891W        W85052  17.759  36.774   2.722
19892W        W85053   3.061  10.169  11.051
19893W        W85054  26.914  22.482   4.604
19894W        W85055   8.487  39.263  14.842
19895W        W85056   4.167   5.792  11.101
19896W        W85057  44.266  29.033   1.942
19897W        W85058  31.969   5.869   0.323
19898W        W85059  36.483  26.189   3.741
19899W        W85060  39.456   2.910   4.660
19900W        W85061  25.002  23.643   4.153
19901W        W85062  29.630   0.994   3.668
19902W        W85063   8.487  32.590   1.714
19903W        W85064  26.038   2.642  12.143
19904W        W85065  27.980  25.120  11.944
19905W        W85066  33.770  24.527   0.998
19906W        W85067  43.303  18.494  11.065
19907W        W85068  27.174  13.146   0.675
19908W        W85069  16.606  24.186   0.887
19909W        W85070   9.966  24.571   3.283
19910W        W85071   9.396  38.522   2.404
19911W        W85072   9.061  13.596  14.042
19912W        W85073  31.558  24.601  14.930
19913W        W85074   8.306  40.919   3.244
19914W        W85075  22.973   6.424  11.241
19915W        W85076  43.749  16.585   2.416
19916W        W85077  25.262  40.888   2.323
19917W        W85078  23.727   7.089  13.032
19918W        W85079  28.671  34.104   3.258
19919W        W85080  41.289  44.169  10.537
19920W        W85081  31.868  24.303  13.194
19921W        W85082  16.440  12.864  14.399
19922W        W85083   6.274  43.835  11.648
19923W        W85084  15.491  28.499  14.975
19924W        W85085  44.969  14.689   1.242
19925W        W85086   6.845   6.264  14.508
19926W        W85087  34.609  24.915   2.089
19927W        W85088  40.007  34.623  13.622
19928W        W85089  23.491   4.928  12.137
19929W        W85090  26.551  26.424  13.307
19930W        W85091   6.355   9.387  14.830
19931W        W85092   7.605  15.652   0.315
19932W        W85093  30.951  19.987  11.385
19933W        W85094  13.393  24.537  13.902
19934W        W85095  40.690  27.248  11.198
19935W        W85096  11.686  27.367  11.770
19936W        W85097   3.217  13.414   0.906
19937W        W85098  15.820  23.648   3.355
19938W        W85099  29.568  42.405  14.478
19939W        W85100  22.217   9.379  10.833
19940W        W85101  13.115  15.148  12.555
19941W        W85102  18.624   5.932  12.856
19942W        W85103  39.384  26.169   0.895
19943W        W85104   5.705  20.326   0.759
19944W        W85105  38.023  38.012  14.056
19945W        W85106   3.290  15.225  11.849
19946W        W85107  43.440  24.642   4.107
19947W        W85108   1.025  44.959  13.112
19948W        W85109  19.826  42.054  11.906
19949W        W85110  30.564  42.481  14.186
19950W        W85111  14.144  37.351   4.625
19951W        W85112  33.085  14.015  13.801
19952W        W85113  42.455  20.273  12.885
19953W        W85114   5.787  21.998  12.972
19954W        W85115   9.300  33.962   2.150
19955W        W85116  25.583  28.882  12.410
19956W        W85117  21.501  21.035   0.363
19957W        W85118   3.305   5.857  10.240
19958W        W85119  12.284   5.949  14.034
19959W        W85120  38.533   9.859   4.659
19960W        W85121  30.167   8.379   1.228
19961W        W85122   6.104  36.522  12.173
19962W        W85123  32.443  36.467  14.315
19963W        W85124  17.029   8.468   2.853
19964W        W85125  31.662  18.037  13.801
19965W        W85126   3.905  43.025   2.304
19966W        W85127  40.788  11.893   2.615
19967W        W85128  15.624  23.196  11.873
19968W        W85129  25.503   7.769  14.434
19969W        W85130  30.442  22.580  10.649
19970W        W85131  41.079  28.616  11.967
19971W        W85132  30.672  42.676   1.007
19972W        W85133   6.402  35.837   4.613
19973W        W85134   7.576  17.861   5.013
19974W        W85135  16.249  29.675  11.098
19975W        W85136  39.235  37.581   0.810
19976W        W85137   7.650  20.141  12.457
19977W        W85138  23.368  34.387   2.805
19978W        W85139   2.935  10.204   1.036
19979W        W85140  32.229  16.731  10.499
19980W        W85141  42.462   4.361  12.119
19981W        W85142  24.753   8.161  10.599
19982W        W85143  31.209  38.514   3.963
19983W        W85144  37.695  39.080  10.198
19984W        W85145  24.417  20.185   0.748
19985W        W85146  14.212  17.263  12.112
19986W        W85147  44.379  41.671   3.270
19987W        W85148   2.316  36.394   0.650
19988W        W85149   6.768  44.718  14.612
19989W        W85150  44.725   8.782   5.096
19990W        W85151  16.669  25.578  12.553
19991W        W85152  38.395  14.683   4.555
19992W        W85153  20.116  22.653   2.864
19993W        W85154   8.646  21.607  14.389
19994W        W85155  22.147  33.264  11.599
19995W        W85156  22.532  36.481   4.096
19996W        W85157  44.281  36.808   2.315
19997W        W85158  27.590  10.233  13.271
19998W        W85159  19.734  13.244  12.202
19999W        W85160   6.311  34.359  10.854
20000W        W85161  15.320   7.686   1.318
20001W        W85162   0.832  23.728  10.343
20002W        W85163   2.833  37.314   2.797
20003W        W85164   9.884   3.256  10.563
20004W        W85165  35.850   1.752  10.315
20005W        W85166  17.328   6.327   0.419
20006W        W85167  35.892  34.056  13.119
20007W        W85168  23.650   4.206   0.731
20008W        W85169  39.226  22.197  14.368
20009W        W85170   3.521  21.209  11.098
20010W        W85171  11.075   4.439   0.126
20011W        W85172  31.162  29.518   3.630
20012W        W85173  24.317   3.506  14.934
20013W        W85174  34.178  18.639   0.296
20014W        W85175  44.942  25.569   2.262
20015W        W85176   8.703  10.601  12.959
20016W        W85177  41.026  27.786   4.250
20017W        W85178  16.571  23.104   4.396
20018W        W85179  18.065  41.859  12.097
20019W        W85180  33.477  35.148   4.715
20020W        W85181   9.326  17.355  13.130
20021W        W85182   4.209  34.478   1.568
20022W        W85183  25.586  42.200   3.701
20023W        W85184   5.820  34.273   4.110
20024W        W85185  34.449  25.943  12.964
20025W        W85186  41.725  44.792   2.489
20026W        W85187  20.742  37.055  14.355
20027W        W85188   5.988  20.519   3.444
20028W        W85189  30.481   3.762   1.191
20029W        W85190  41.560  31.673   2.825
20030W        W85191  26.756  17.291   0.703
20031W        W85192  41.060  23.275  10.999
20032W        W85193  11.318   4.623   4.570
20033W        W85194  35.109  26.126  12.372
20034W        W85195  14.635  24.754  13.357
20035W        W85196  36.940  32.654  13.852
20036W        W85197  23.541   1.279  13.376
20037W        W85198  14.723  14.219  13.143
20038W        W85199   5.717  24.513  13.473
20039W        W85200  44.888   3.355  12.338
20040W        W85201  14.179  43.519   1.408
20041W        W85202  22.733   0.914  13.521
20042W        W85203  29.421  36.838  13.422
20043W        W85204   9.631   1.137   4.918
20044W        W85205  15.286   5.214   2.572
20045W        W85206  22.935   3.091   3.615
20046W        W85207  40.590  25.416   4.183
20047W        W85208   3.088  15.717   1.884
20048W        W85209  13.837   8.845  10.941
20049W        W85210  24.930  14.640   2.350
20050W        W85211  41.372   7.058   2.207
20051W        W85212  13.667   4.969   2.307
20052W        W85213  31.970  15.701   3.045
20053W        W85214  17.037  40.983  12.599
20054W        W85215  40.622  33.486  10.577
20055W        W85216   1.222  11.591  14.792
20056W        W85217  16.271   6.709  11.387
20057W        W85218   9.948  25.750   3.736
20058W        W85219  31.496  26.523  12.931
20059W        W85220   0.818  20.838   4.177
20060W        W85221  17.855  33.017   0.894
20061W        W85222  28.253   1.743  13.340
20062W        W85223  40.462  20.767   2.656
20063W        W85224  24.921  32.547   4.263
20064W        W85225   4.235   9.666   4.537
20065W        W85226  35.071   5.785  12.399
20066W        W85227  34.246  28.960   3.648
20067W        W85228  33.646  27.933   4.313
20068W        W85229  16.068  14.847  13.527
20069W        W85230  35.882  38.043  11.052
20070W        W85231   7.207  19.642  12.795
20071W        W85232  22.963  33.450  14.728
20072W        W85233   8.234  43.705  13.949
20073W        W85234  42.469  25.375   0.681
20074W        W85235  30.144  36.477  11.748
20075W        W85236  37.594  24.707   0.814
20076W        W85237  37.746  19.465   3.725
20077W        W85238   6.733  17.788   1.141
20078W        W85239  11.686   5.822   3.676
20079W        W85240  31.834   7.356   1.921
20080W        W85241  11.108  30.730  14.757
20081W        W85242  41.060  31.182  10.681
20082W        W85243  13.539  21.049  11.571
20083W        W85244   4.959   3.233   5.039
20084W        W85245  26.440   4.675  11.143
20085W        W85246   8.302  44.951   2.997
20086W        W85247   9.970  36.579  14.817
20087W        W85248  14.440  44.882   1.022
20088W        W85249  27.760  11.001  13.746
20089W        W85250  42.066  38.732   1.839
20090W        W85251  44.201  15.778  13.039
20091W        W85252  17.082   4.960   0.435
20092W        W85253  11.202  15.735   3.683
20093W        W85254   3.483  25.654   1.240
20094W        W85255  19.295   8.695   2.768
20095W        W85256  17.311   6.194   0.923
20096W        W85257  43.313  39.641  13.371
20097W        W85258  34.538  15.157  13.039
20098W        W85259  31.914  12.691  12.482
20099W        W85260  15.334   1.972  12.974
20100W        W85261  18.165  25.726  12.031
20101W        W85262  22.192  18.551  10.468
20102W        W85263  27.554   8.119   2.834
20103W        W85264  17.352  33.861   3.230
20104W        W85265  39.994   9.870  11.883
20105W        W85266  12.427  21.056  14.488
20106W        W85267  34.389  14.258  12.576
20107W        W85268   5.925  36.046   0.823
20108W        W85269  27.036   7.465   4.245
20109W        W85270  38.175  35.047   4.006
20110W        W85271  27.648  28.691  11.610
20111W        W85272  43.795  24.780   4.724
20112W        W85273  43.885  30.594  11.540
20113W        W85274  35.584  28.396  11.677
20114W        W85275  44.943  14.807   0.301
20115W        W85276  10.827   0.169   0.865
20116W        W85277  30.632  37.335  10.327
20117W        W85278  28.055  43.603   3.669
20118W        W85279   7.161  33.898   0.352
20119W        W85280  40.824  27.516   0.233
20120W        W85281  44.911   8.365   4.444
20121W        W85282  32.974  37.333  10.770
20122W        W85283   8.179  44.722  11.731
20123W        W85284  33.537  33.648   9.795
20124W        W85285   8.086  18.737  12.914
20125W        W85286  22.663  40.232   0.432
20126W        W85287  37.825  21.028   3.978
20127W        W85288  13.038  24.089   2.489
20128W        W85289   4.716  44.207   4.693
20129W        W85290  25.644  27.564  13.833
20130W        W85291  41.381  33.004   1.708
20131W        W85292  39.229  11.653  13.611
20132W        W85293  43.822  39.036   3.771
20133W        W85294  39.206  36.932   1.426
20134W        W85295  10.089  19.110  10.881
20135W        W85296  16.155  16.617   1.374
20136W        W85297  43.452  38.574   1.929
20137W        W85298  18.017  16.949   3.499
20138W        W85299  22.269  23.733   2.276
20139W        W85300   0.374   9.798   9.796
20140W        W85301  41.885  16.537   1.381
20141W        W85302  27.039   0.195  14.990
20142W        W85303  11.428   6.889  12.179
20143W        W85304  32.455  33.356  13.158
20144W        W85305  18.225  30.314   0.469
20145W        W85306  44.011   4.445  11.543
20146W        W85307  38.629   4.781  14.251
20147W        W85308  10.017   1.652   4.074
20148W        W85309  12.041   1.466  12.926
20149W        W85310  17.266  21.293  14.896
20150W        W85311  31.039  34.593  13.003
20151W        W85312  20.730  35.276   2.821
20152W        W85313  16.311  11.306   0.410
20153W        W85314  14.551  33.862  12.995
20154W        W85315  18.264  23.017   4.082
20155W        W85316  44.349   5.489   4.545
20156W        W85317   1.435  17.695  12.082
20157W        W85318  35.851  30.849  10.910
20158W        W85319  19.223  24.667  13.418
20159W        W85320  38.370  21.186  13.828
20160W        W85321  23.745  14.901   0.318
20161W        W85322  27.677   0.500  14.543
20162W        W85323  34.335  42.828  14.320
20163W        W85324  12.913  11.890   3.643
20164W        W85325  12.108  29.880  13.767
20165W        W85326  20.217   4.820   0.712
20166W        W85327  42.288   7.229   0.696
20167W        W85328   7.011  35.872  11.016
20168W        W85329  29.924  16.400   1.696
20169W        W85330  16.324  21.151   2.753
20170W        W85331  16.352  35.338  10.548
20171W        W85332  32.983  42.900  12.885
20172W        W85333  42.997  33.521   1.251
20173W        W85334  12.314  32.867   2.716
20174W        W85335  28.698  23.092  13.165
20175W        W85336   1.381  21.500   3.703
20176W        W85337  16.251  14.078   0.168
20177W        W85338  15.203   0.169  12.136
20178W        W85339  42.992   1.917  11.581
20179W        W85340   2.834   3.189  11.151
20180W        W85341  19.033  23.093   3.798
20181W        W85342   0.317   1.414   1.349
20182W        W85343   1.930   1.222   2.382
20183W        W85344   5.309  34.308  10.719
20184W        W85345  28.496   7.318   4.591
20185W        W85346   7.932  34.025   2.341
20186W        W85347  16.176  19.708  14.548
20187W        W85348  31.441  33.215  14.892
20188W        W85349  26.120  22.680  10.979
20189W        W85350  35.298  23.003   1.858
20190W        W85351  16.246   8.327   2.312
20191W        W85352  38.498  32.516  12.924
20192W        W85353  17.518  29.556   0.799
20193W        W85354  35.493  39.360  14.196
20194W        W85355  43.824  25.961   3.349
20195W        W85356  23.767  15.391   0.181
20196W        W85357  22.525  13.034   4.124
20197W        W85358  17.379  40.194   2.718
20198W        W85359  20.814   3.749  14.305
20199W        W85360   0.760   0.019  11.377
20200W        W85361  30.184  19.369   0.332
20201W        W85362   7.786  16.831   0.061
20202W        W85363   1.389  16.626  10.653
20203W        W85364  17.831   3.764  10.720
20204W        W85365  27.229   4.233   0.900
20205W        W85366  20.050   9.848  11.393
20206W        W85367  12.755  41.043   4.323
20207W        W85368  10.104  25.088   3.289
20208W        W85369  11.221   6.056  12.094
20209W        W85370  28.144   8.213   4.625
20210W        W85371  26.517  40.799  14.283
20211W        W85372   6.889  27.679   3.502
20212W        W85373  11.824  21.580   4.392
20213W        W85374  28.603   8.515   3.249
20214W        W85375  14.093  33.096  10.705
20215W        W85376   4.721   1.840  11.279
20216W        W85377   6.590  42.252   2.373
20217W        W85378  35.091   8.731   1.356
20218W        W85379  20.588  30.072  14.709
20219W        W85380  16.602  36.685   2.231
20220W        W85381  23.433  16.049  12.917
20221W        W85382   2.862  36.696  11.962
20222W        W85383  25.758  21.833  14.353
20223W        W85384   5.359  19.775   0.158
20224W        W85385  43.049   8.825   1.366
20225W        W85386  36.939  40.376   2.799
20226W        W85387  42.835  40.911   3.168
20227W        W85388   2.062  32.357   1.319
20228W        W85389  29.510   9.681  10.437
20229W        W85390  42.423  23.646   4.590
20230W        W85391  20.520  25.772  11.974
20231W        W85392  30.072  40.137  12.375
20232W        W85393  36.479  35.321   4.418
20233W        W85394  21.546  40.262  11.547
20234W        W85395  13.887  11.313  11.232
20235W        W85396   7.719  27.842   4.135
20236W        W85397  28.047   4.462  12.591
20237W        W85398  40.835  11.202  14.025
20238W        W85399  10.361   4.415   2.702
20239W        W85400  15.816   7.190   3.631
20240W        W85401  24.846  28.231   3.216
20241W        W85402  40.256  41.759   1.312
20242W        W85403  19.423  26.164   3.157
20243W        W85404  30.206  26.703   4.159
20244W        W85405  24.593  35.142   3.605
20245W        W85406  38.077  17.096  13.026
20246W        W85407  38.391   2.975  13.879
20247W        W85408   8.826  40.687   1.939
20248W        W85409  25.750   3.800  12.395
20249W        W85410   8.851   3.322   5.117
20250W        W85411  28.512  31.163  12.624
20251W        W85412  32.378  17.728   0.756
20252W        W85413  38.002  32.896  12.494
20253W        W85414  43.765  13.741  13.933
20254W        W85415  21.698  31.939   2.736
20255W        W85416  19.182  35.527   1.487
20256W        W85417  44.201  26.065  11.469
20257W        W85418   5.102  12.330  11.027
20258W        W85419  26.294  36.098  10.785
20259W        W85420  13.912   3.773  14.440
20260W        W85421   1.913  36.990  13.902
20261W        W85422  27.106  40.584  13.948
20262W        W85423  13.754   5.271  11.335
20263W        W85424  20.119  21.428   1.254
20264W        W85425  39.913  30.145  14.222
20265W        W85426   7.509  42.336  12.614
20266W        W85427  30.020   5.125   0.732
20267W        W85428  42.445   0.219  14.078
20268W        W85429  19.643  42.624   1.311
20269W        W85430  41.951  23.158   4.277
20270W        W85431  15.973  14.371  13.368
20271W        W85432  14.620  44.302   1.200
20272W        W85433  35.096   0.040  14.879
20273W        W85434  20.889  29.484   3.259
20274W        W85435  28.386  33.597  10.973
20275W        W85436   9.612  37.968  14.431
20276W        W85437  27.568  37.600   1.702
20277W        W85438  37.315  14.879  11.607
20278W        W85439  34.023  33.081  11.871
20279W        W85440  30.721   1.020  14.937
20280W        W85441   4.362  26.385  13.986
20281W        W85442  40.740   3.265   0.074
20282W        W85443  33.357  40.482  13.555
20283W        W85444  21.642   6.407   4.261
20284W        W85445  29.528  37.316   3.199
20285W        W85446  13.330  13.876  11.244
20286W        W85447  17.624  21.714   1.746
20287W        W85448  23.622   9.681  12.827
20288W        W85449  32.482   0.400   4.737
20289W        W85450  40.986   8.610   1.000
20290W        W85451  42.787  10.084  11.703
20291W        W85452   2.514  12.861   1.403
20292W        W85453   4.200   5.949   3.180
20293W        W85454  13.761  43.765   1.709
20294W        W85455  29.619  30.632   4.516
20295W        W85456  11.234  24.620   2.390
20296W        W85457  18.056   5.408   2.649
20297W        W85458  39.501  43.395  10.925
20298W        W85459   1.537  23.258  11.877
20299W        W85460   0.524  35.499  12.677
20300W        W85461   7.329  25.407  13.470
20301W        W85462   4.362  20.278  12.124
20302W        W85463   9.724   3.259   0.813
20303W        W85464   1.518  27.966  12.440
20304W        W85465   7.235   7.315  10.619
20305W        W85466  44.442  16.635   0.161
20306W        W85467  31.091  16.630  12.969
20307W        W85468   5.811  36.321   4.215
20308W        W85469  34.807  27.237  12.307
20309W        W85470   6.004  19.083   3.605
20310W        W85471  12.570  10.616  14.085
20311W        W85472  16.949  25.028  13.423
20312W        W85473  37.024  12.325   4.097
20313W        W85474   2.501  28.029   4.999
20314W        W85475  15.646   3.503  10.615
20315W        W85476   2.625  44.052  12.845
20316W        W85477  34.347  18.293  11.926
20317W        W85478  28.583  44.931  14.773
20318W        W85479  15.381  21.819  14.578
20319W        W85480  12.772  11.087  10.480
20320W        W85481  40.879  37.478  11.599
20321W        W85482  33.353  30.385   0.523
20322W        W85483  36.510  30.874  13.984
20323W        W85484  33.636  22.954  12.068
20324W        W85485  27.492  32.423   4.623
20325W        W85486  24.755  23.206  11.550
20326W        W85487  16.078  20.031   1.353
20327W        W85488  21.720  22.778  13.964
20328W        W85489  32.502  14.762   0.872
20329W        W85490   3.285  32.641   1.796
20330W        W85491  20.616   8.194   3.664
20331W        W85492  43.178  26.716   2.500
20332W        W85493  38.485  42.292   1.691
20333W        W85494   1.592   1.702  10.699
20334W        W85495  37.506  29.743  11.136
20335W        W85496   1.016  14.468  10.398
20336W        W85497   5.873  17.140  11.941
20337W        W85498  20.203  31.984   0.494
20338W        W85499  37.387  32.093   2.914
20339W        W85500  19.334  31.197  13.735
20340W        W85501  20.947  33.207  11.441
20341W        W85502  32.214   5.418  12.066
20342W        W85503  16.662  18.133  12.663
20343W        W85504  31.366  40.982   1.932
20344W        W85505  31.408  21.212   2.688
20345W        W85506  27.974   8.588   0.862
20346W        W85507  31.429  25.024  13.149
20347W        W85508  15.058  10.220  14.413
20348W        W85509  40.739   7.616  13.245
20349W        W85510  17.141  39.671  12.781
20350W        W85511   3.324  44.340   0.718
20351W        W85512  22.155   5.821   0.338
20352W        W85513   7.200  37.981  10.656
20353W        W85514  36.912  15.800   1.243
20354W        W85515  42.242  20.804  14.344
20355W        W85516  15.123  11.883  12.913
20356W        W85517  12.535  40.400  11.560
20357W        W85518  20.065  19.641  12.792
20358W        W85519   0.542  20.131  14.460
20359W        W85520  20.161  31.538  11.605
20360W        W85521  24.358  43.483  11.599
20361W        W85522  25.673  34.353   1.750
20362W        W85523  12.814  42.358  12.888
20363W        W85524  20.291  16.583  14.521
20364W        W85525  43.313   7.848  12.824
20365W        W85526   1.920  15.556   2.763
20366W        W85527  44.763   2.654  10.685
20367W        W85528  41.329  12.909  10.943
20368W        W85529  18.755  21.728  11.126
20369W        W85530  24.022   3.236   0.274
20370W        W85531  23.139  35.007  14.910
20371W        W85532  16.537  24.767  13.220
20372W        W85533   5.667  17.111   1.757
20373W        W85534   7.659   7.107   2.259
20374W        W85535  40.988  22.019   0.747
20375W        W85536   5.760  31.537  11.138
20376W        W85537   8.338  11.395   0.390
20377W        W85538  15.585  26.012   1.280
20378W        W85539  18.065  23.545  13.869
20379W        W85540  16.345  24.143  14.497
20380W        W85541  34.088  39.528   1.623
20381W        W85542  36.143   4.237   0.483
20382W        W85543  28.123   8.311   2.075
20383W        W85544  14.783  24.187  12.035
20384W        W85545  20.150  29.222  12.817
20385W        W85546  39.366  21.627   1.049
20386W        W85547  34.074  23.052  13.058
20387W        W85548  32.833  13.566   4.143
20388W        W85549  18.999   4.698   4.140
20389W        W85550   4.792  12.141   0.894
20390W        W85551  29.490  27.214   2.618
20391W        W85552  20.303  28.328   5.024
20392W        W85553  24.251  36.539  12.989
20393W        W85554  19.853   9.208   1.106
20394W        W85555  28.473  23.753   0.720
20395W        W85556  21.714  10.466   3.338
20396W        W85557  12.935   9.378  11.669
20397W        W85558  43.868  14.152   0.224
20398W        W85559  43.279  30.922  13.164
20399W        W85560  41.813  25.291  10.891
20400W        W85561  38.059  30.008   4.825
20401W        W85562   1.099  41.334  14.435
20402W        W85563  19.003  25.666   2.376
20403W        W85564  42.146   8.867  14.748
20404W        W85565  19.231  29.176   4.824
20405W        W85566  31.113  15.149   1.096
20406W        W85567  15.869  33.935  14.978
20407W        W85568  38.781  35.952  11.267
20408W        W85569  43.530   5.257   3.662
20409W        W85570  16.785  15.084  12.128
20410W        W85571  43.108   9.668   1.014
20411W        W85572  12.826  11.924   4.535
20412W        W85573  33.569  17.732   1.154
20413W        W85574  34.268  32.599   3.183
20414W        W85575   9.896  21.638  14.795
20415W        W85576   4.326  40.435  11.536
20416W        W85577  28.402  43.080  11.054
20417W        W85578  34.284   0.844  13.001
20418W        W85579  10.174  14.775   3.881
20419W        W85580   9.216  10.922   0.290
20420W        W85581  42.823  22.738   0.979
20421W        W85582   5.386  38.467  12.121
20422W        W85583  42.484  29.998   0.375
20423W        W85584  26.819  31.381  12.442
20424W        W85585  17.003  17.254  12.265
20425W        W85586  31.007   8.328  12.369
20426W        W85587  39.848   5.923  12.355
20427W        W85588   8.666  22.008   1.315
20428W        W85589  44.069  26.641   1.286
20429W        W85590  41.783  35.929  12.015
20430W        W85591   5.263  10.623   0.259
20431W        W85592  27.859  12.773   3.242
20432W        W85593   8.352  37.410   1.420
20433W        W85594  19.699  41.229  11.430
20434W        W85595  13.061   9.725   2.215
20435W        W85596   4.865  44.910   3.139
20436W        W85597  39.240  19.116   3.476
20437W        W85598  40.029  18.593   4.235
20438W        W85599  43.051   7.231   5.163
20439W        W85600  19.737  36.341   3.647
20440W        W85601  26.289  42.917  10.578
20441W        W85602  10.312   7.474  12.169
20442W        W85603  26.668   6.745   1.500
20443W        W85604  31.191  25.131   2.369
20444W        W85605  16.081   1.549   2.153
20445W        W85606  39.945   1.194   2.578
20446W        W85607   8.736  11.858  11.693
20447W        W85608  32.077  15.558   3.559
20448W        W85609  28.160  44.313  10.763
20449W        W85610  39.118  32.092   9.985
20450W        W85611   1.296  23.912  12.520
20451W        W85612  25.776   6.423   4.743
20452W        W85613   5.330  16.776   0.291
20453W        W85614   3.656  21.187  13.939
20454W        W85615  17.356  20.118   3.658
20455W        W85616   1.961  13.070  13.359
20456W        W85617  29.505   2.372   0.404
20457W        W85618  25.695  34.068  12.358
20458W        W85619  16.074  30.576  11.091
20459W        W85620   6.081   7.354   4.963
20460W        W85621  44.892  37.902   1.129
20461W        W85622  44.787  40.004  14.930
20462W        W85623  31.199   5.154  14.470
20463W        W85624  23.273  14.575  14.425
20464W        W85625  11.286  22.212   2.348
20465W        W85626   8.101  38.563  13.216
20466W        W85627  35.407  10.780   3.900
20467W        W85628  24.937  27.150  11.477
20468W        W85629  13.848   2.424   4.627
20469W        W85630  15.598  22.025  11.047
20470W        W85631  26.516   8.633   1.844
20471W        W85632  39.532  41.035   2.346
20472W        W85633  39.049  43.726  13.450
20473W        W85634   7.349  28.161   2.929
20474W        W85635  40.811   0.637   0.430
20475W        W85636  23.973  12.472  12.469
20476W        W85637  35.391  43.815   0.281
20477W        W85638   7.814   1.555  14.991
20478W        W85639  16.581  19.142   3.242
20479W        W85640   6.948  37.544  10.777
20480W        W85641  33.585  37.763  10.688
20481W        W85642  14.609  36.542  14.014
20482W        W85643  27.481   8.667  12.941
20483W        W85644  31.613  11.129   3.734
20484W        W85645  39.109  36.048  14.824
20485W        W85646  19.707   9.781  10.939
20486W        W85647   0.247  27.892  10.622
20487W        W85648  16.163   8.220  13.834
20488W        W85649  17.542   4.358   2.158
20489W        W85650  10.164   6.014   3.318
20490W        W85651   2.943   7.629   3.333
20491W        W85652   9.254  44.747   1.676
20492W        W85653  15.869  24.109  10.986
20493W        W85654   9.372   5.209  11.564
20494W        W85655  36.224  27.586  12.546
20495W        W85656  17.268  21.387   3.704
20496W        W85657  32.148  41.347  12.485
20497W        W85658  37.906  19.172   2.882
20498W        W85659  41.123  10.212   4.112
20499W        W85660  19.056   0.387   2.274
20500W        W85661   5.499   5.262  11.198
20501W        W85662  16.361  31.364  12.503
20502W        W85663  38.938   3.234   3.501
20503W        W85664   0.184   7.170  13.037
20504W        W85665  28.561  21.243   1.140
20505W        W85666   1.301  28.074   0.785
20506W        W85667  40.158  17.378  13.882
20507W        W85668  17.084  10.912   0.162
20508W        W85669  16.241  16.755  13.427
20509W        W85670  10.787   5.033   9.892
20510W        W85671  25.929  36.003   4.510
20511W        W85672  40.511   9.330  14.822
20512W        W85673  15.481  28.136  14.494
20513W        W85674  23.513  21.234  14.382
20514W        W85675  29.012  38.489   4.864
20515W        W85676   5.013   5.214  11.049
20516W        W85677  42.338  34.619   0.008
20517W        W85678  33.974  33.078  12.373
20518W        W85679  34.503  29.180   1.799
20519W        W85680  20.844  17.338   0.683
20520W        W85681   3.199  36.751  11.482
20521W        W85682   7.962  10.689   1.853
20522W        W85683  27.134  18.017   0.294
20523W        W85684  44.778  17.032   3.724
20524W        W85685  44.727  35.401  11.604
20525W        W85686  16.292  13.314  14.207
20526W        W85687  33.099  40.030  11.899
20527W        W85688  22.596  15.688  14.933
20528W        W85689   2.267  39.202   1.648
20529W        W85690  36.829  37.011   1.759
20530W        W85691  22.504  14.706   9.461
20531W        W85692  38.293  11.914   0.983
20532W        W85693  22.545   6.417  13.880
20533W        W85694  38.398  16.519   1.304
20534W        W85695   9.005  34.058  11.111
20535W        W85696   7.007   9.711   1.958
20536W        W85697  22.606  40.040  11.605
20537W        W85698  44.751   3.851   4.198
20538W        W85699  42.339   8.193  12.994
20539W        W85700  44.707   7.088  11.979
20540W        W85701   4.179  16.269  12.968
20541W        W85702  43.694  27.002  10.455
20542W        W85703  40.440  18.919  12.623
20543W        W85704   7.495  43.743  11.098
20544W        W85705  33.559   3.442   1.647
20545W        W85706  18.178  29.399   1.615
20546W        W85707  36.066   3.518   2.567
20547W        W85708   8.145  11.850   3.697
20548W        W85709  37.321   7.740   3.219
20549W        W85710  18.728   9.365   0.401
20550W        W85711   7.292   0.012  11.915
20551W        W85712   6.934  25.249   2.363
20552W        W85713  22.880  43.979  12.813
20553W        W85714  22.618   3.240   1.929
20554W        W85715  22.770  16.705   4.179
20555W        W85716  24.138  24.761   0.903
20556W        W85717  28.952  43.986   4.044
20557W        W85718  13.180  30.974   4.509
20558W        W85719  25.788  39.064  12.077
20559W        W85720  20.153  38.305  13.177
20560W        W85721  42.351  38.408  11.703
20561W        W85722  22.412   5.718   3.252
20562W        W85723  40.190  35.787  11.946
20563W        W85724  43.286  21.160   3.724
20564W        W85725  24.443   9.422  11.773
20565W        W85726  43.891  34.119  14.079
20566W        W85727   2.796  19.744  12.828
20567W        W85728  29.938  35.058  12.298
20568W        W85729  10.542  11.849   2.686
20569W        W85730  22.329  41.698  12.187
20570W        W85731  39.556   9.815  10.581
20571W        W85732  42.645  31.751  13.117
20572W        W85733  16.188   6.349   4.909
20573W        W85734   2.351   2.035   4.055
20574W        W85735  11.188   5.372   0.344
20575W        W85736  42.351   1.779   0.767
20576W        W85737  32.937  31.964   4.224
20577W        W85738  19.664  10.619   3.917
20578W        W85739  34.327  42.323   2.204
20579W        W85740  17.159  25.499   1.695
20580W        W85741  38.971  40.100   4.369
20581W        W85742   4.540   7.675  11.096
20582W        W85743   0.950  41.606  12.509
20583W        W85744   3.427  23.407  13.602
20584W        W85745  34.513  42.927  14.939
20585W        W85746  35.689   2.248  13.491
20586W        W85747  29.344  17.201   1.067
20587W        W85748   3.664   9.692   2.888
20588W        W85749  32.936  22.100   2.334
20589W        W85750  23.955  13.951   2.307
20590W        W85751  21.171  12.916  11.618
20591W        W85752   3.605  17.138  12.915
20592W        W85753  43.304  30.190  14.412
20593W        W85754  43.534  30.536  12.900
20594W        W85755   6.878  14.790  14.754
20595W        W85756  19.219  38.937  11.447
20596W        W85757  20.512  22.119   9.658
20597W        W85758   8.093  17.640   3.053
20598W        W85759   4.668  19.371  10.760
20599W        W85760  44.354  21.880   0.429
20600W        W85761  17.366  22.431  13.116
20601W        W85762  22.681  38.314   4.135
20602W        W85763  39.581  31.616   0.484
20603W        W85764  39.891  42.540   0.720
20604W        W85765  28.067  23.214   4.573
20605W        W85766  28.191  19.990  14.016
20606W        W85767   2.184  42.971   1.347
20607W        W85768  21.398   0.437   0.450
20608W        W85769  23.496  36.457  10.622
20609W        W85770  19.685   7.371   0.801
20610W        W85771  34.126   5.736   2.158
20611W        W85772  21.036   5.169   3.280
20612W        W85773  19.574  13.050   0.661
20613W        W85774  38.927  24.932   3.188
20614W        W85775  21.983  42.420  14.025
20615W        W85776  44.261   4.902   4.528
20616W        W85777  39.103  34.637  13.115
20617W        W85778   6.279  34.458   1.176
20618W        W85779  11.347  29.638  12.412
20619W        W85780  10.639   7.297   2.812
20620W        W85781  37.278  38.223   5.214
20621W        W85782  22.591   3.861  14.421
20622W        W85783   2.373  14.612  11.910
20623W        W85784  38.070  38.430   3.119
20624W        W85785   1.274   5.403  11.948
20625W        W85786  24.669  24.500  12.581
20626W        W85787  35.526  41.361  12.064
20627W        W85788  16.293  22.740  14.487
20628W        W85789   1.312  30.011   0.973
20629W        W85790  13.628   4.240  10.948
20630W        W85791  12.676  12.395  12.082
20631W        W85792   2.299  41.120   3.687
20632W        W85793  24.494  37.389   1.850
20633W        W85794  13.151  12.813  13.544
20634W        W85795   5.220  12.404  11.536
20635W        W85796   0.559  36.016  12.536
20636W        W85797  42.074  35.503  14.805
20637W        W85798  12.262  36.822   0.447
20638W        W85799  38.458  26.118  13.825
20639W        W85800  41.502  24.661   0.090
20640W        W85801  10.018  37.876   2.338
20641W        W85802  24.723   4.045  12.375
20642W        W85803  35.342  34.450   4.183
20643W        W85804  27.394  40.013   0.469
20644W        W85805  16.239  18.726   0.153
20645W        W85806  19.394  31.063  11.522
20646W        W85807  40.825   0.945   0.008
20647W        W85808  30.577   4.241   1.691
20648W        W85809  14.640  21.395   1.922
20649W        W85810  25.264  34.852   3.624
20650W        W85811   9.594  23.138  13.150
20651W        W85812  37.437  38.371  10.974
20652W        W85813  32.580  42.317   2.788
20653W        W85814  35.313  44.884  10.716
20654W        W85815   1.826  23.641  11.662
20655W        W85816  29.559   1.358  12.471
20656W        W85817   0.711  20.656   0.206
20657W        W85818  31.176  24.067   3.687
20658W        W85819   1.855  25.047  10.984
20659W        W85820  29.618  44.904   3.284
20660W        W85821  15.143   4.261  13.501
20661W        W85822  34.101  29.853  11.151
20662W        W85823  25.922   9.266  12.882
20663W        W85824  18.989  33.704   3.242
20664W        W85825  29.225  11.942   3.245
20665W        W85826  34.453   8.147   0.289
20666W        W85827  35.609  31.906   4.434
20667W        W85828   9.017  12.597  11.166
20668W        W85829  35.246  38.304   5.251
20669W        W85830  21.711   9.840   2.799
20670W        W85831  23.537  42.299  11.260
20671W        W85832   9.119  14.562   1.377
20672W        W85833   5.018  16.068  12.089
20673W        W85834  37.024  26.968   0.464
20674W        W85835  42.466  34.419   3.561
20675W        W85836  15.719  23.576  14.679
20676W        W85837  41.786  20.648   1.195
20677W        W85838  34.084  23.778   2.598
20678W        W85839  33.154  38.281  12.423
20679W        W85840  37.479  41.438  10.623
20680W        W85841   1.909  44.895  13.406
20681W        W85842  19.487  28.482   2.677
20682W        W85843  33.483  29.016  12.531
20683W        W85844  43.923  41.730  12.826
20684W        W85845   4.770  29.133   3.585
20685W        W85846  17.862  34.014   3.283
20686W        W85847  25.774  16.036  10.702
20687W        W85848  11.865   1.373  10.717
20688W        W85849  35.856  28.277  11.190
20689W        W85850  25.306  16.254   3.867
20690W        W85851  28.658  21.684   3.891
20691W        W85852  13.378   7.837   1.255
20692W        W85853  11.864  27.888  14.743
20693W        W85854  41.633  35.708   1.991
20694W        W85855  39.356  39.419   1.342
20695W        W85856  11.122   4.093   3.827
20696W        W85857  20.259  42.839   0.537
20697W        W85858  25.085  12.137   0.712
20698W        W85859  29.175  19.101   4.684
20699W        W85860  12.668  41.506   5.035
20700W        W85861   1.730   6.881   3.282
20701W        W85862  28.945  35.526  12.907
20702W        W85863  10.411  12.754  14.601
20703W        W85864  38.554  16.398  12.774
20704W        W85865  31.766  27.667   3.218
20705W        W85866  19.554   4.738   0.281
20706W        W85867  11.827  31.930  11.158
20707W        W85868   5.723  20.146  12.789
20708W        W85869  14.842  25.203   0.023
20709W        W85870  33.606  35.521  13.164
20710W        W85871  26.793   1.194   9.844
20711W        W85872  26.706   3.467   0.195
20712W        W85873  24.699   5.962   1.357
20713W        W85874  32.057  29.389  13.148
20714W        W85875   2.780  17.570   5.036
20715W        W85876  20.451   8.863   0.232
20716W        W85877  19.241  17.331  10.703
20717W        W85878   5.737   5.166   1.341
20718W        W85879  32.056  12.154  10.327
20719W        W85880  35.015  18.638  10.504
20720W        W85881  44.740  18.583  12.489
20721W        W85882  25.752   1.661  13.981
20722W        W85883  39.526  13.234  12.953
20723W        W85884  41.366   7.364  11.639
20724W        W85885  35.475   2.901  12.180
20725W        W85886  18.109  30.636   1.897
20726W        W85887  42.578  19.636   3.110
20727W        W85888  37.356  41.570  14.674
20728W        W85889   0.856  41.572  14.026
20729W        W85890  44.268  15.626   1.066
20730W        W85891  11.853   6.337  13.166
20731W        W85892  32.485   2.348   3.383
20732W        W85893  23.566  11.196   4.270
20733W        W85894  43.353  22.143  12.357
20734W        W85895  14.083  18.150   1.893
20735W        W85896  43.409  28.599  11.559
20736W        W85897   1.396   5.217   1.258
20737W        W85898  44.415  38.016   3.976
20738W        W85899  28.171   9.860   2.453
20739W        W85900  30.909  24.576   1.690
20740W        W85901  32.336  43.908  10.948
20741W        W85902  42.214  24.054  14.843
20742W        W85903  38.280   2.291  13.406
20743W        W85904  44.666  16.711  13.002
20744W        W85905  28.609  36.076  13.358
20745W        W85906  12.556  35.662   4.064
20746W        W85907   1.004  31.869  10.932
20747W        W85908   5.698   6.290   2.712
20748W        W85909  40.331  13.722  14.878
20749W        W85910  22.705   4.228  13.273
20750W        W85911  14.384  41.923  14.580
20751W        W85912  25.037  20.804  13.976
20752W        W85913  35.728  24.668   3.111
20753W        W85914  18.141  44.023   0.824
20754W        W85915   3.912  28.266   4.505
20755W        W85916  26.979  16.709   3.672
20756W        W85917  20.880  44.378  12.907
20757W        W85918  34.348  31.422   2.769
20758W        W85919  13.744  44.012  14.247
20759W        W85920  16.029   7.448   3.221
20760W        W85921  11.796  16.662  13.559
20761W        W85922  44.893   8.176   3.387
20762W        W85923  33.059   6.959  11.143
20763W        W85924  28.648  37.328   1.251
20764W        W85925  31.127   7.487   1.199
20765W        W85926   3.877  13.090   1.234
20766W        W85927  27.253  29.955   0.305
20767W        W85928  13.451  18.537  12.713
20768W        W85929  23.323  44.802  12.485
20769W        W85930  44.053  31.614   1.452
20770W        W85931  33.436  19.829  13.157
20771W        W85932   7.400  26.172  13.472
20772W        W85933  28.977   3.228  12.886
20773W        W85934   0.380  33.878  11.656
20774W        W85935  15.919  18.680   4.605
20775W        W85936  27.110  44.762  12.492
20776W        W85937   4.019  22.803   2.757
20777W        W85938  37.632  26.702   1.003
20778W        W85939  33.687  17.268  11.125
20779W        W85940  10.266  42.875  13.276
20780W        W85941  33.829  43.029  12.287
20781W        W85942   6.721  24.752  13.414
20782W        W85943  30.087  29.968   3.102
20783W        W85944   4.917  18.477  12.932
20784W        W85945  11.317  42.366  13.882
20785W        W85946  42.317   4.530   1.704
20786W        W85947  40.788  27.671  12.016
20787W        W85948  20.603   8.402   0.004
20788W        W85949   2.326  18.307  11.484
20789W        W85950   5.910   8.863   2.408
20790W        W85951  17.466   1.913  11.006
20791W        W85952  40.389  10.018   2.737
20792W        W85953  13.419  14.200  13.823
20793W        W85954  19.144  38.075   2.689
20794W        W85955  41.237   0.960   2.968
20795W        W85956  44.552  36.373  11.479
20796W        W85957  39.000  16.275   1.363
20797W        W85958  44.419   7.298  14.781
20798W        W85959  18.831  43.925  12.508
20799W        W85960  26.252  10.261  14.064
20800W        W85961   1.064  12.307  13.276
20801W        W85962  15.066  16.649  11.116
20802W        W85963   1.155  44.319  10.407
20803W        W85964  29.660  31.080  13.522
20804W        W85965  30.069  16.708   1.305
20805W        W85966   9.866  33.136   4.571
20806W        W85967  23.543  25.290   4.249
20807W        W85968   1.634  10.785   4.725
20808W        W85969  24.519   5.389   1.788
20809W        W85970  15.013  37.869  14.418
20810W        W85971   7.242  37.925   3.986
20811W        W85972  36.696   0.347  11.514
20812W        W85973  30.085  36.387  14.505
20813W        W85974  44.345   6.069  12.689
20814W        W85975  43.030  35.876   2.494
20815W        W85976   3.426  27.102  14.318
20816W        W85977  15.315  37.274   0.741
20817W        W85978   3.778  30.811  13.329
20818W        W85979  41.291  18.455   2.196
20819W        W85980   1.386  38.596  13.949
20820W        W85981  18.648   5.675   3.685
20821W        W85982  13.869   7.458  10.986
20822W        W85983   1.920  31.914   0.503
20823W        W85984  24.564  17.190  12.937
20824W        W85985  11.876  37.802   4.557
20825W        W85986  28.182  12.259   0.282
20826W        W85987   6.083  30.153   3.630
20827W        W85988  25.187  15.729   0.810
20828W        W85989   1.506  33.320  12.035
20829W        W85990  13.865  28.403  12.436
20830W        W85991  40.252  10.736  11.441
20831W        W85992  27.324   1.801  12.564
20832W        W85993  12.643  42.392  13.845
20833W        W85994   7.096  37.521   4.273
20834W        W85995  12.424  39.756   3.145
20835W        W85996  35.627  24.148   3.215
20836W        W85997  37.471  34.161   2.711
20837W        W85998  40.557  35.817   5.044
20838W        W85999  20.227  27.423  10.632
20839W        W86000  13.213  26.369  12.947
20840W        W86001  12.568  34.191  13.320
20841W        W86002  17.309  21.717   4.097
20842W        W86003  32.193  40.345  14.426
20843W        W86004  17.008  25.295   4.178
20844W        W86005   5.661  28.132   5.087
20845W        W86006  28.304  26.526   5.131
20846W        W86007  43.039  23.753  11.887
20847W        W86008  17.118  42.495  14.551
20848W        W86009  17.520  41.726  14.452
20849W        W86010  11.193  20.102  14.895
20850W        W86011   1.754  40.019   0.459
20851W        W86012  23.172   7.281  14.480
20852W        W86013  22.116   4.600  10.383
20853W        W86014   9.826  26.966   4.346
20854W        W86015   8.163  17.869   0.823
20855W        W86016  38.956  40.973   0.311
20856W        W86017   4.295  11.177  13.026
20857W        W86018  10.874  17.667   4.675
20858W        W86019  34.881  25.344   1.992
20859W        W86020   4.197  31.178   0.977
20860W        W86021  22.510  12.288  13.066
20861W        W86022  18.170  43.747  11.779
20862W        W86023   4.543   3.671  11.465
20863W        W86024   4.210  36.950  13.402
20864W        W86025   7.806  19.763  14.230
20865W        W86026  15.556  42.504   4.290
20866W        W86027  35.715  15.741  13.342
20867W        W86028  26.055  44.950  14.887
20868W        W86029  17.351  31.358  12.261
20869W        W86030   7.889  42.587  11.619
20870W        W86031  11.398  21.233  14.353
20871W        W86032  33.827  32.106   2.743
20872W        W86033  21.332  12.844   4.689
20873W        W86034  19.876  40.436   0.438
20874W        W86035  10.285   2.825   4.507
20875W        W86036  10.897  37.092   4.157
20876W        W86037  14.431  20.696   4.491
20877W        W86038  14.893   1.821  11.959
20878W        W86039  38.465   2.763   0.018
20879W        W86040  32.445  34.013   4.209
20880W        W86041   7.885   0.756  11.140
20881W        W86042  15.306  15.538   2.472
20882W        W86043   2.265  33.891  13.406
20883W        W86044   9.720   5.259  14.803
20884W        W86045   7.485   6.476   0.390
20885W        W86046   0.046  17.132  10.620
20886W        W86047  23.883  37.568   0.672
20887W        W86048   8.816  23.143   0.709
20888W        W86049  32.132   4.344   4.344
20889W        W86050  14.016  30.971   0.142
20890W        W86051  42.550  35.096  12.665
20891W        W86052  44.967  27.622   0.976
20892W        W86053  15.576  27.315   1.901
20893W        W86054  16.915  44.207   0.334
20894W        W86055   0.340  32.160   4.596
20895W        W86056  17.265  10.381   1.460
20896W        W86057   2.993  37.461   4.118
20897W        W86058  17.541   3.121  11.541
20898W        W86059  25.104  36.731   9.794
20899W        W86060  41.301   2.252   1.749
20900W        W86061  36.617  14.221   2.789
20901W        W86062   4.367  29.165  14.887
20902W        W86063   1.013  31.026   0.855
20903W        W86064  35.970  19.253  12.880
20904W        W86065  18.587  29.107  13.029
20905W        W86066  27.475  20.097  11.687
20906W        W86067  22.026  26.284  13.085
20907W        W86068  15.643   3.209  14.918
20908W        W86069  32.119  28.581  11.041
20909W        W86070  16.357  36.215   3.318
20910W        W86071  30.122  43.729  10.728
20911W        W86072   6.265  18.075   4.710
20912W        W86073  11.320  18.003  10.655
20913W        W86074   0.354  23.430   2.821
20914W        W86075  43.450   9.297   2.430
20915W        W86076   8.726  42.618  11.019
20916W        W86077  12.741  27.219   4.162
20917W        W86078  35.788  22.619  11.233
20918W        W86079  25.543  23.952  13.147
20919W        W86080  32.241  36.487  11.582
20920W        W86081  29.940  40.340  13.865
20921W        W86082  40.111  12.363  14.027
20922W        W86083  35.331  41.002   4.610
20923W        W86084  42.740  14.231   4.253
20924W        W86085  38.630   1.083  11.697
20925W        W86086  24.191  29.090  11.458
20926W        W86087  17.341  30.559  13.378
20927W        W86088  16.561  16.061   9.896
20928W        W86089  44.858  35.703   2.820
20929W        W86090   9.885   9.637  12.075
20930W        W86091   8.412  28.923   1.896
20931W        W86092  21.432  42.535   3.303
20932W        W86093  16.093  38.455   2.271
20933W        W86094   5.236  29.105   3.768
20934W        W86095  19.120   7.408   2.142
20935W        W86096  27.922  37.099  10.767
20936W        W86097  10.372  42.773  12.452
20937W        W86098  19.034  28.442  12.499
20938W        W86099  35.323  38.302   2.270
20939W        W86100  26.086  14.488   2.945
20940W        W86101  21.828  42.947   5.058
20941W        W86102  41.508  17.576   0.181
20942W        W86103  36.966  31.852  11.122
20943W        W86104  34.434  41.248   3.201
20944W        W86105  18.578  29.953   3.117
20945W        W86106  22.644  44.505  12.039
20946W        W86107  41.974  28.642   1.004
20947W        W86108  21.220  15.782   4.356
20948W        W86109  37.214  13.445  10.698
20949W        W86110  14.421   2.888   0.759
20950W        W86111  44.702  39.086   0.083
20951W        W86112  34.545  35.896  11.583
20952W        W86113  18.041  38.485   2.141
20953W        W86114  37.495  28.089   2.122
20954W        W86115  28.350  29.083  11.163
20955W        W86116  28.495   3.845   2.179
20956W        W86117  17.023  30.378   1.473
20957W        W86118   7.845  33.473   4.263
20958W        W86119   6.924  14.800   2.702
20959W        W86120  25.921   6.303   1.743
20960W        W86121  12.416  30.037  12.914
20961W        W86122   1.914  34.198   3.164
20962W        W86123  35.444   5.024   0.528
20963W        W86124  30.784  37.599   4.834
20964W        W86125  20.287  31.576   0.851
20965W        W86126  37.438  11.047   1.871
20966W        W86127  31.318  39.919  14.882
20967W        W86128  32.014  44.127   4.340
20968W        W86129  31.400   7.028   4.662
20969W        W86130  11.341  40.853  13.452
20970W        W86131   8.680  38.338  11.373
20971W        W86132  18.676  13.335   1.053
20972W        W86133  38.410  32.529   2.617
20973W        W86134   6.457  11.586   4.226
20974W        W86135  30.984  29.103   2.850
20975W        W86136  31.918  28.207   0.354
20976W        W86137   5.225  32.298  10.701
20977W        W86138  20.678  39.922  14.593
20978W        W86139  41.542  17.766   1.357
20979W        W86140   2.434  32.062  13.017
20980W        W86141  12.588   1.739   2.221
20981W        W86142  25.485   6.810   4.215
20982W        W86143  34.794  35.320  13.803
20983W        W86144  37.126  15.627  12.016
20984W        W86145   6.846   2.676  12.353
20985W        W86146  41.604   3.941   2.719
20986W        W86147  27.154  43.508   2.156
20987W        W86148  25.158  32.047  10.922
20988W        W86149   2.854  14.056  14.442
20989W        W86150  28.123  12.278   1.694
20990W        W86151  15.243  16.339  14.444
20991W        W86152   9.780  32.554  11.411
20992W        W86153  39.257  35.715   1.885
20993W        W86154  12.672  17.548  13.533
20994W        W86155  30.144  16.054  11.192
20995W        W86156   1.956  18.765   4.809
20996W        W86157  22.436  43.092   1.743
20997W        W86158   0.499   7.308  11.678
20998W        W86159   5.762  13.917   4.947
20999W        W86160  11.740  44.095  10.748
21000W        W86161   8.900  17.595   3.442
21001W        W86162   6.871  20.778   1.358
21002W        W86163  42.842  38.981  13.147
21003W        W86164   3.228  31.228   5.004
21004W        W86165  37.560  43.635   2.620
21005W        W86166  15.724  17.018  14.076
21006W        W86167  14.639  18.689   0.756
21007W        W86168  14.591  10.371  13.550
21008W        W86169   3.672   9.470   3.362
21009W        W86170   6.760  30.306  11.202
21010W        W86171   8.503  23.451   0.423
21011W        W86172  29.980  10.193   4.346
21012W        W86173  25.923  35.498  13.969
21013W        W86174  10.401  34.567  14.913
21014W        W86175  21.672  39.021   3.387
21015W        W86176  32.560   3.237   0.795
21016W        W86177  37.049   3.749   1.742
21017W        W86178  12.956  36.445  12.448
21018W        W86179  13.350  11.735  14.952
21019W        W86180  25.902   0.551   2.443
21020W        W86181  37.025   9.404  12.062
21021W        W86182  34.977  37.682  10.681
21022W        W86183  30.628  43.652   4.207
21023W        W86184  41.999  18.168  11.159
21024W        W86185  38.130  21.143   3.589
21025W        W86186  16.168  11.781   3.856
21026W        W86187  11.411  39.032  11.074
21027W        W86188  42.346  22.655   1.664
21028W        W86189  35.742  38.360   5.057
21029W        W86190  20.326  23.760   1.941
21030W        W86191  14.230   5.063   4.749
21031W        W86192   6.415  23.813  12.314
21032W        W86193  41.281  39.805   9.449
21033W        W86194  29.825   3.131   0.579
21034W        W86195   3.116  27.915   4.207
21035W        W86196  39.125  18.310   9.954
21036W        W86197   6.801  35.830   2.673
21037W        W86198  28.025   9.420   3.742
21038W        W86199  42.775  16.363   2.214
21039W        W86200   3.344  19.148  13.256
21040W        W86201  24.228   0.744   1.639
21041W        W86202  40.404  36.793  12.075
21042W        W86203  27.752  30.845  14.515
21043W        W86204  14.159  30.580  13.989
21044W        W86205   2.470  35.766   0.732
21045W        W86206  21.635   1.062   3.360
21046W        W86207  29.606  22.270  11.985
21047W        W86208  14.766  26.999  11.127
21048W        W86209   5.887  31.864  14.884
21049W        W86210   4.198  22.005   4.691
21050W        W86211  14.889  19.718  14.821
21051W        W86212  39.435  31.208   2.331
21052W        W86213  39.823   2.364   1.787
21053W        W86214  12.687  39.697   3.596
21054W        W86215  14.502  23.801   2.374
21055W        W86216  26.213  34.871  12.457
21056W        W86217  44.935  13.817   0.665
21057W        W86218  40.914  43.781  14.512
21058W        W86219   9.958  13.339  11.993
21059W        W86220   1.294  31.893   4.109
21060W        W86221  44.938   6.216   4.581
21061W        W86222  20.176   2.234  11.950
21062W        W86223   2.813  17.129  10.158
21063W        W86224  37.545   5.626   2.775
21064W        W86225   3.369  38.507   3.798
21065W        W86226  20.668  13.171  10.513
21066W        W86227  40.795  14.285   1.206
21067W        W86228  31.512  20.945  14.397
21068W        W86229   1.961  26.226   2.305
21069W        W86230  30.067  36.870  14.749
21070W        W86231  35.823  42.620   1.172
21071W        W86232   2.516   8.863   5.213
21072W        W86233  11.456  10.999  11.957
21073W        W86234  36.403  12.235  13.473
21074W        W86235   6.906   6.747  13.319
21075W        W86236  22.117  39.530  12.189
21076W        W86237  39.420  38.087  11.391
21077W        W86238   9.405  39.814  11.194
21078W        W86239  16.547  44.532   2.374
21079W        W86240  16.721  40.552   1.944
21080W        W86241  10.655  43.335   3.618
21081W        W86242  35.770  30.909   1.215
21082W        W86243  33.635  23.021   1.006
21083W        W86244  19.148   1.955   1.287
21084W        W86245  22.073  12.211  13.345
21085W        W86246  40.880  20.742  14.531
21086W        W86247   9.377  41.795   5.229
21087W        W86248  17.127  28.121   2.638
21088W        W86249  11.885   0.037  13.082
21089W        W86250  28.856  43.321  11.022
21090W        W86251  20.622  28.096   1.294
21091W        W86252   1.529  32.513  13.922
21092W        W86253  22.613  14.907   1.360
21093W        W86254  29.138  30.078   4.877
21094W        W86255  36.820  44.231   3.559
21095W        W86256   1.965   4.975  13.366
21096W        W86257  29.575  22.703   0.247
21097W        W86258  24.672   8.569   4.165
21098W        W86259  13.779  27.603  13.921
21099W        W86260  37.556  25.031   3.204
21100W        W86261   4.726  36.399   3.272
21101W        W86262  38.521  33.884   0.790
21102W        W86263  40.027  29.065   4.209
21103W        W86264  32.563  19.849  12.026
21104W        W86265  20.992  22.948   0.661
21105W        W86266  17.195  16.292  13.414
21106W        W86267   1.714  30.023  10.994
21107W        W86268  15.840  20.286   1.742
21108W        W86269  32.221   8.124  12.684
21109W        W86270  13.323  33.394  11.018
21110W        W86271   9.871  24.572  10.425
21111W        W86272   1.840  25.236   3.056
21112W        W86273  22.253  12.862   4.679
21113W        W86274  29.393  28.479  12.063
21114W        W86275  43.129  41.709   4.273
21115W        W86276   6.814  17.374   4.500
21116W        W86277  20.477  29.115  14.650
21117W        W86278  38.458   1.969   1.752
21118W        W86279  34.482  33.712  12.056
21119W        W86280  37.842  36.006  14.955
21120W        W86281  28.388  14.081   2.296
21121W        W86282  15.413   8.691  14.798
21122W        W86283   8.351  36.077   0.555
21123W        W86284   7.948   9.235   0.347
21124W        W86285   4.422  21.998   1.640
21125W        W86286   2.939   2.690  11.248
21126W        W86287   0.202  29.101  14.442
21127W        W86288  31.893  38.989  14.732
21128W        W86289  19.858  34.107  11.590
21129W        W86290  27.252   3.961  11.552
21130W        W86291  15.803  34.970   1.653
21131W        W86292   9.965  34.438   0.124
21132W        W86293   6.638   3.652  14.444
21133W        W86294  26.624  40.725   0.450
21134W        W86295   4.377  16.274   4.455
21135W        W86296   2.331   8.183   0.485
21136W        W86297  28.218  39.791   1.226
21137W        W86298  14.232  41.286   0.253
21138W        W86299  43.465   9.145   2.935
21139W        W86300   5.509  36.726   4.170
21140W        W86301  33.545  40.879   3.707
21141W        W86302  29.442  44.772   2.790
21142W        W86303  38.232  34.994   2.603
21143W        W86304   9.442   8.010  14.900
21144W        W86305  41.523  16.662   4.101
21145W        W86306   2.310  10.151   3.811
21146W        W86307  24.784   7.394   0.485
21147W        W86308  19.584   5.996  13.792
21148W        W86309  18.295  15.776  14.057
21149W        W86310   0.789  22.464   1.866
21150W        W86311  15.233  18.128  14.795
21151W        W86312   2.412   0.972   0.952
21152W        W86313  31.909  14.578  14.849
21153W        W86314  36.422   7.976   1.720
21154W        W86315  25.361   5.036  11.076
21155W        W86316  32.543  34.476   0.922
21156W        W86317   5.815  44.033  11.669
21157W        W86318  16.129  10.768  12.432
21158W        W86319   3.838  17.626  10.740
21159W        W86320  38.485  18.065   1.308
21160W        W86321  26.776  11.757  14.544
21161W        W86322  33.831  33.015  14.962
21162W        W86323   7.845   3.683  11.948
21163W        W86324  23.076  11.885   5.029
21164W        W86325  42.862  10.809  13.330
21165W        W86326  40.563  33.826   3.783
21166W        W86327  40.238  10.131  10.354
21167W        W86328  20.554   8.832   1.144
21168W        W86329  14.572   2.186  10.583
21169W        W86330  11.192  11.566   3.197
21170W        W86331   5.668  31.812  12.928
21171W        W86332  38.487  23.096   3.167
21172W        W86333  19.013   9.321   4.825
21173W        W86334  40.976  40.762   0.417
21174W        W86335   1.308  39.275  11.486
21175W        W86336  40.011  26.339   4.573
21176W        W86337  25.476  28.955  14.988
21177W        W86338   0.008  32.603   0.692
21178W        W86339  43.594  43.339  13.827
21179W        W86340  32.699  15.160  12.485
21180W        W86341   1.587  18.400  10.979
21181W        W86342  44.992  22.467  14.956
21182W        W86343  31.407   5.428   1.856
21183W        W86344  44.904   5.307   4.135
21184W        W86345  34.478  21.247   3.078
21185W        W86346  14.609  14.226  11.609
21186W        W86347  30.306   9.989  12.918
21187W        W86348  13.275  22.227  13.857
21188W        W86349  20.764  33.832  11.680
21189W        W86350   6.663   8.397  12.889
21190W        W86351  43.017  16.267   1.280
21191W        W86352  30.389  41.889   0.247
21192W        W86353   5.978  11.247   4.269
21193W        W86354  27.241  40.922   0.005
21194W        W86355  18.805  21.307  11.542
21195W        W86356  44.572  25.240  14.899
21196W        W86357  43.081  21.062  12.848
21197W        W86358  16.626  20.026  12.176
21198W        W86359  34.459  36.625   0.783
21199W        W86360  31.709  23.447   2.137
21200W        W86361  21.969  24.933  11.208
21201W        W86362  40.878  31.129   3.822
21202W        W86363  33.466  17.674  14.774
21203W        W86364  16.713  13.138   0.563
21204W        W86365  32.426  16.583  14.167
21205W        W86366  25.576  27.745  13.357
21206W        W86367  42.914  25.073   0.769
21207W        W86368  12.776  26.892  14.854
21208W        W86369   2.116   3.015  13.276
21209W        W86370   6.084   2.365   1.775
21210W        W86371  12.842   3.785   1.708
21211W        W86372  27.758  19.752  11.949
21212W        W86373  16.646  15.170   3.155
21213W        W86374  24.454  17.063   0.245
21214W        W86375   2.401   1.519   2.362
21215W        W86376   6.763   0.656  10.754
21216W        W86377   3.505  41.037   1.399
21217W        W86378  39.761  35.310   1.387
21218W        W86379   9.626  27.321   4.706
21219W        W86380  27.653  13.459  12.448
21220W        W86381  15.615  33.074  13.668
21221W        W86382  40.674  41.585  11.666
21222W        W86383  14.116   9.413   1.329
21223W        W86384  33.345  14.383  14.074
21224W        W86385  14.730  33.148  11.183
21225W        W86386  19.169  25.693   3.219
21226W        W86387  10.904  36.952   0.881
21227W        W86388  41.749   7.725  13.507
21228W        W86389  32.454   8.313   0.397
21229W        W86390  32.886  29.136  13.412
21230W        W86391  21.834  37.819  13.123
21231W        W86392  17.818  25.096   0.739
21232W        W86393  30.092   9.900  14.441
21233W        W86394  29.462  40.524  13.826
21234W        W86395  34.122   1.468  13.920
21235W        W86396  11.276  41.200  11.424
21236W        W86397  35.510  29.416   0.607
21237W        W86398   9.083  32.085  11.211
21238W        W86399  26.747   9.166   1.348
21239W        W86400   5.870  17.643   0.786
21240W        W86401  25.171  25.218   0.727
21241W        W86402  44.650   1.234   3.727
21242W        W86403  36.513  10.763  12.689
21243W        W86404  24.257  18.938  10.980
21244W        W86405   9.647   4.786   4.059
21245W        W86406  39.607  15.439   2.405
21246W        W86407  30.677   7.266   1.099
21247W        W86408  32.447  41.005  13.915
21248W        W86409   8.389   9.307   3.605
21249W        W86410  30.801  27.702  12.802
21250W        W86411   7.125  44.640   3.780
21251W        W86412  33.115  32.287  11.410
21252W        W86413   2.877  23.536   2.761
21253W        W86414   3.029  16.496  12.434
21254W        W86415   5.493  39.587  13.439
21255W        W86416  39.006  20.214   0.775
21256W        W86417  11.781  16.539   2.341
21257W        W86418  21.753  20.162  13.242
21258W        W86419   1.000  39.351  14.668
21259W        W86420  26.458  26.287   0.437
21260W        W86421  21.193  14.633   2.841
21261W        W86422  40.429  20.707  14.819
21262W        W86423  35.402  10.706   2.408
21263W        W86424  12.903   7.854   2.155
21264W        W86425   2.737   0.795   3.899
21265W        W86426  24.968  10.165  12.458
21266W        W86427  36.021  23.604  13.864
21267W        W86428   0.494  37.896   0.309
21268W        W86429   9.261   3.632   2.396
21269W        W86430  37.293  36.422  12.095
21270W        W86431  22.179   0.663   2.654
21271W        W86432   9.590  43.919  12.846
21272W        W86433   2.265  12.883  14.992
21273W        W86434  22.571  28.035   3.364
21274W        W86435  42.197   3.026   4.350
21275W        W86436  31.893  37.393   0.050
21276W        W86437  38.419   9.188  10.774
21277W        W86438  18.831  30.731   3.188
21278W        W86439  18.535  26.271  12.913
21279W        W86440   4.862  11.330   1.314
21280W        W86441  37.110  39.479   4.064
21281W        W86442   7.325  44.838  12.902
21282W        W86443   5.178  27.895  11.629
21283W        W86444  42.516  33.551  14.255
21284W        W86445  28.503  38.376  13.927
21285W        W86446   3.180  25.306   1.499
21286W        W86447  39.475  17.642   4.116
21287W        W86448   7.904  34.534   1.658
21288W        W86449  21.056  38.557   3.723
21289W        W86450   4.903   2.269  13.157
21290W        W86451  31.617  25.479   1.746
21291W        W86452  38.378  41.953   2.313
21292W        W86453  16.677  31.288   0.676
21293W        W86454  11.186   4.988   4.222
21294W        W86455  26.547   3.518   1.223
21295W        W86456  18.810  10.888  12.449
21296W        W86457   3.175  17.223   4.961
21297W        W86458  23.103  30.561   1.238
21298W        W86459  10.377   6.107   2.393
21299W        W86460  11.647  41.728   2.696
21300W        W86461   7.255  12.753   2.967
21301W        W86462   4.927  23.606  10.298
21302W        W86463   6.286   0.915  14.799
21303W        W86464  42.533   9.976   4.618
21304W        W86465  20.379  16.544   3.660
21305W        W86466  27.202   0.763   4.152
21306W        W86467  17.844  12.365   2.481
21307W        W86468   4.373  43.792  13.233
21308W        W86469   0.412  33.471  12.006
21309W        W86470  28.633  28.063   4.510
21310W        W86471  15.042  35.431   1.456
21311W        W86472  32.397  34.535  14.542
21312W        W86473  43.537  26.149   0.933
21313W        W86474  39.056   9.573   2.878
21314W        W86475  27.346   7.439   1.228
21315W        W86476  16.312  26.564  12.633
21316W        W86477  22.726  42.354  13.463
21317W        W86478  21.031   7.240   1.429
21318W        W86479   7.326  38.110  13.314
21319W        W86480  24.682   3.370   2.824
21320W        W86481  29.707  16.784  11.002
21321W        W86482  13.748  28.616   0.468
21322W        W86483  37.913  30.841   4.192
21323W        W86484  29.120   1.029   3.353
21324W        W86485  39.339   5.432   0.210
21325W        W86486   5.666  21.490  12.892
21326W        W86487  24.155  32.503  12.852
21327W        W86488   5.675  22.162  11.249
21328W        W86489  41.811   0.503   0.440
21329W        W86490  25.060  15.609  11.526
21330W        W86491  38.817  33.107  11.642
21331W        W86492  32.491  33.544   3.971
21332W        W86493  10.640   4.130   2.338
21333W        W86494  28.690   6.402  11.035
21334W        W86495  15.666  17.416  13.253
21335W        W86496  27.420  34.964   1.440
21336W        W86497  33.181  19.257  10.753
21337W        W86498  37.350  39.982  12.042
21338W        W86499   4.982  23.669  11.554
21339W        W86500   4.997  28.030  14.441
21340W        W86501   8.437  27.633  14.761
21341W        W86502  25.893   1.891   0.051
21342W        W86503  32.678  16.641   0.492
21343W        W86504  32.301  16.097  11.157
21344W        W86505  37.600  36.502  14.808
21345W        W86506  30.765  42.705  11.544
21346W        W86507  37.526  27.944  14.057
21347W        W86508  20.479   4.316   4.777
21348W        W86509  20.301  36.425   4.810
21349W        W86510   4.897  13.715   1.368
21350W        W86511  35.132  23.485  14.236
21351W        W86512   3.049  22.264   0.856
21352W        W86513  44.806  35.114   3.621
21353W        W86514  40.743   2.983  11.280
21354W        W86515  16.296   0.128  11.174
21355W        W86516  38.448  41.211   0.732
21356W        W86517  19.199  15.059   4.345
21357W        W86518   3.799  27.985   2.792
21358W        W86519   8.857  14.128  13.967
21359W        W86520  41.878  32.510  10.919
21360W        W86521   6.273  30.643   4.536
21361W        W86522  27.729  28.459   0.754
21362W        W86523  22.007  25.672  14.023
21363W        W86524  26.203  17.961   2.296
21364W        W86525  19.184   8.107  13.303
21365W        W86526  40.396  44.769   3.162
21366W        W86527  44.119  27.074  11.950
21367W        W86528  38.001   6.893  10.464
21368W        W86529  33.872  38.488   0.719
21369W        W86530  37.831   2.008   1.437
21370W        W86531   5.202  14.334   1.463
21371W        W86532  36.906  40.314   4.930
21372W        W86533  29.162  12.805  11.993
21373W        W86534   4.758  21.704  11.192
21374W        W86535  20.690  24.512   1.395
21375W        W86536  13.389  16.727  14.286
21376W        W86537  14.257  23.265  14.361
21377W        W86538  18.654   6.793  14.533
21378W        W86539   4.611  33.579   2.421
21379W        W86540  10.198  28.427   0.241
21380W        W86541  42.076  25.148  12.034
21381W        W86542  21.431  16.080  11.243
21382W        W86543  44.954  39.438   1.906
21383W        W86544  23.777   2.957  11.799
21384W        W86545  31.028  11.766   1.288
21385W        W86546   6.224  29.184  12.987
21386W        W86547  29.747  25.494  13.326
21387W        W86548  33.483  13.671  14.359
21388W        W86549  29.492  18.630   4.831
21389W        W86550  39.282  10.515  11.507
21390W        W86551  20.693  30.045  14.207
21391W        W86552  16.446  24.486   3.175
21392W        W86553   5.653  32.966   0.809
21393W        W86554  25.245  29.626   0.529
21394W        W86555  26.221  41.709   0.316
21395W        W86556   3.803   4.900   4.582
21396W        W86557  18.263   3.990   1.463
21397W        W86558   1.506  12.539  11.587
21398W        W86559  20.209   8.203   0.911
21399W        W86560  19.244  11.450  10.683
21400W        W86561   9.809  16.197   0.401
21401W        W86562  28.973  17.968   1.242
21402W        W86563  10.272   0.470  14.001
21403W        W86564  38.391  33.562   2.923
21404W        W86565  38.616  41.382  14.326
21405W        W86566  39.207  16.504   2.864
21406W        W86567  18.130  17.262   1.883
21407W        W86568   4.193  40.515   1.184
21408W        W86569  33.571  17.509  12.444
21409W        W86570  29.186  13.170   1.687
21410W        W86571   2.319  21.796   4.622
21411W        W86572  33.261  40.594  10.326
21412W        W86573   0.856   3.961   2.741
21413W        W86574  32.542   7.795   4.650
21414W        W86575  23.723  26.503  10.718
21415W        W86576   3.955  21.690  13.042
21416W        W86577  15.295  17.611  14.974
21417W        W86578  27.628   1.479  12.038
21418W        W86579  14.125  42.362   5.450
21419W        W86580   7.839   5.326  11.653
21420W        W86581  13.186  41.958  10.598
21421W        W86582  12.749  10.151  13.909
21422W        W86583   2.511  35.512  10.602
21423W        W86584  17.497  19.341  14.817
21424W        W86585  22.952  43.733  11.861
21425W        W86586  14.834  32.462   3.113
21426W        W86587  35.984  31.284  12.060
21427W        W86588  13.397  17.923  10.294
21428W        W86589  24.666   2.869   1.337
21429W        W86590  10.941   4.410   3.300
21430W        W86591  12.871   5.290  11.481
21431W        W86592  36.601  13.085   5.027
21432W        W86593  27.313  40.270  14.306
21433W        W86594  14.664   3.668  13.018
21434W        W86595  12.999  19.919  11.065
21435W        W86596  14.749  29.961   1.801
21436W        W86597  20.950  36.737   1.297
21437W        W86598   0.121  18.762   0.725
21438W        W86599  30.727  39.414   5.075
21439W        W86600  26.083  37.424  10.294
21440W        W86601   4.380  21.503   4.831
21441W        W86602  42.439  29.985   4.817
21442W        W86603  26.487  15.645  10.559
21443W        W86604  20.241  25.424   1.260
21444W        W86605   4.122  17.492   1.312
21445W        W86606  40.708  29.579  14.772
21446W        W86607   3.000   9.406  14.528
21447W        W86608   5.150  23.689   5.077
21448W        W86609   3.674  34.441   4.252
21449W        W86610  24.568  10.199   4.626
21450W        W86611  31.835  42.697  10.693
21451W        W86612  10.331   6.173  11.909
21452W        W86613  33.606  26.590  10.522
21453W        W86614  35.896  13.809  11.454
21454W        W86615  21.813  13.017  14.284
21455W        W86616  31.369  43.679  13.955
21456W        W86617  34.943  37.318   3.697
21457W        W86618  35.978  32.624  13.831
21458W        W86619  44.650  22.406  12.617
21459W        W86620  31.236  30.492  11.382
21460W        W86621  14.167  34.959   3.119
21461W        W86622  23.810  41.110   1.939
21462W        W86623  34.983  25.210   5.271
21463W        W86624   0.174  34.688   4.331
21464W        W86625   2.704  13.564  10.343
21465W        W86626  44.931  42.681  13.960
21466W        W86627  33.882  40.670   4.457
21467W        W86628  37.632  31.079   0.853
21468W        W86629  10.693   7.900   4.766
21469W        W86630   8.025  24.727   0.915
21470W        W86631   1.820   6.315  13.788
21471W        W86632  18.923  17.223   3.137
21472W        W86633  34.214  38.003  13.904
21473W        W86634  38.584  39.532  13.856
21474W        W86635  18.735  29.735   5.081
21475W        W86636  26.757  33.778   1.432
21476W        W86637   0.781  23.227  12.505
21477W        W86638  29.539   0.248   4.012
21478W        W86639  37.344  28.937   3.148
21479W        W86640  43.484  18.739   3.134
21480W        W86641  37.069  24.327   4.193
21481W        W86642   4.729  44.798  11.987
21482W        W86643  35.586  42.851   2.301
21483W        W86644  39.031  31.531  13.378
21484W        W86645  10.837  34.095   4.747
21485W        W86646  38.258  23.072   4.091
21486W        W86647  11.596  39.460   4.612
21487W        W86648  40.349  19.017   1.531
21488W        W86649  44.103  38.090   3.520
21489W        W86650  32.305   5.053   2.854
21490W        W86651  21.778   7.179   0.686
21491W        W86652  39.909  32.458   4.448
21492W        W86653  11.943  36.240   0.586
21493W        W86654  21.192   7.160  14.844
21494W        W86655  28.652  11.864  11.962
21495W        W86656  22.664  15.450   0.459
21496W        W86657  42.324   4.889   2.074
21497W        W86658  21.066  10.275   0.440
21498W        W86659  27.582  36.362  10.316
21499W        W86660  37.494  32.202  13.085
21500W        W86661  11.798  29.159  10.532
21501W        W86662   1.898  38.036  12.493
21502W        W86663   1.270  21.520   2.729
21503W        W86664   0.733   7.946   4.122
21504W        W86665  21.167  22.591   0.270
21505W        W86666  21.302  26.576  14.378
21506W        W86667  43.823  10.774  14.002
21507W        W86668  40.719   4.255  14.090
21508W        W86669   5.798  36.596   2.795
21509W        W86670  20.210  38.558   3.386
21510W        W86671  10.712  15.333  14.424
21511W        W86672   7.406  26.571  10.018
21512W        W86673  29.002  22.863   2.124
21513W        W86674  38.026  41.405  12.297
21514W        W86675   3.373  37.975   2.348
21515W        W86676   1.065  42.893   3.816
21516W        W86677   1.780  12.838   1.858
21517W        W86678   0.595  11.560  11.611
21518W        W86679  37.848  36.595  14.368
21519W        W86680  15.526  22.510   3.690
21520W        W86681  42.921  28.894  14.700
21521W        W86682   5.726  34.033   4.603
21522W        W86683  36.964   5.871   4.888
21523W        W86684  36.460  33.424   0.403
21524W        W86685  13.597  36.558   2.486
21525W        W86686   8.887   3.442  10.563
21526W        W86687  20.574  25.144   0.810
21527W        W86688   6.412  15.217   4.893
21528W        W86689  10.310  16.268  10.560
21529W        W86690  17.249  28.435   0.206
21530W        W86691  13.947  15.328   0.179
21531W        W86692  23.344  26.504   2.832
21532W        W86693  26.497  14.658  14.592
21533W        W86694   7.733  24.138  10.759
21534W        W86695  35.154   4.426  14.570
21535W        W86696  34.720   6.732   3.330
21536W        W86697  16.309  36.018   0.256
21537W        W86698  18.055   7.142   1.729
21538W        W86699   6.697  26.007   0.732
21539W        W86700  10.699  34.042  13.050
21540W        W86701  36.011  21.175   1.397
21541W        W86702   2.726  11.237   2.713
21542W        W86703  26.441  25.064   4.949
21543W        W86704   9.694  23.707  11.084
21544W        W86705  35.028  29.008   3.243
21545W        W86706   2.712   2.258  12.953
21546W        W86707  27.088  42.815   0.381
21547W        W86708  11.362  18.820   4.106
21548W        W86709  44.215  15.419   2.065
21549W        W86710  21.924  40.189   2.733
21550W        W86711  26.202  34.497  12.964
21551W        W86712   0.499  39.742   3.944
21552W        W86713  14.974   8.270   4.738
21553W        W86714  21.141  32.078   4.567
21554W        W86715  41.278  34.271  12.524
21555W        W86716  36.601  10.079  14.781
21556W        W86717   2.699   0.386  13.035
21557W        W86718  15.539   8.080   4.130
21558W        W86719   4.911  26.654  12.822
21559W        W86720  30.147  41.227   2.767
21560W        W86721   9.258  29.981  13.091
21561W        W86722  14.731  11.993   1.158
21562W        W86723   6.462  15.141  13.110
21563W        W86724  14.371  15.023  12.818
21564W        W86725  14.302   4.952   3.816
21565W        W86726  25.714  18.741  10.637
21566W        W86727   5.494   1.518   3.200
21567W        W86728  12.106  32.903  12.888
21568W        W86729  29.449  22.442   0.695
21569W        W86730  28.324  10.635  11.539
21570W        W86731  44.926   9.952   0.967
21571W        W86732  42.218  26.727  13.475
21572W        W86733   2.775  23.210   0.202
21573W        W86734  14.021  31.403   2.338
21574W        W86735  32.168  43.913  14.414
21575W        W86736   6.626  35.001   1.843
21576W        W86737  21.997  12.748  10.111
21577W        W86738   4.476   3.508   3.709
21578W        W86739  25.576  12.091  14.259
21579W        W86740   7.333  21.231  14.950
21580W        W86741  17.096  17.120  12.763
21581W        W86742   0.337  17.756  12.683
21582W        W86743  35.310  29.530   0.165
21583W        W86744  33.111  27.870  12.995
21584W        W86745  15.432   0.178  11.249
21585W        W86746  11.720  28.581   0.560
21586W        W86747  40.809   2.384  14.489
21587W        W86748  44.583   2.435  14.424
21588W        W86749  35.073  26.679   3.773
21589W        W86750   7.382  43.189  12.494
21590W        W86751  22.254  16.277   4.509
21591W        W86752  22.240  13.503   1.638
21592W        W86753  12.461   7.488   0.995
21593W        W86754   9.441  37.037   2.928
21594W        W86755  10.841  44.033  13.481
21595W        W86756  39.923  34.497  12.085
21596W        W86757   1.016  28.542  12.954
21597W        W86758  29.804  30.141   0.713
21598W        W86759  23.583  21.206   1.165
21599W        W86760   8.760  22.974  11.532
21600W        W86761   0.146  43.889   3.600
21601W        W86762  29.695  13.799   0.275
21602W        W86763  19.132  25.975   4.536
21603W        W86764  34.009   0.678  13.401
21604W        W86765  19.500  25.923  13.079
21605W        W86766  39.368  35.316  12.927
21606W        W86767  44.611   6.827  14.960
21607W        W86768   2.858  15.601   2.777
21608W        W86769  32.460  40.856   2.673
21609W        W86770  23.049   0.036  11.512
21610W        W86771  40.991   9.461  11.124
21611W        W86772  10.686   8.749  14.367
21612W        W86773  39.289   7.907   3.689
21613W        W86774  43.370  14.250  12.150
21614W        W86775  43.071   2.851   2.849
21615W        W86776  35.968   4.889  11.909
21616W        W86777  30.521   8.566   0.475
21617W        W86778  29.930   5.612   3.870
21618W        W86779   7.149  13.226  11.243
21619W        W86780  23.111  39.615   2.507
21620W        W86781   9.156  37.877   0.162
21621W        W86782  24.524  31.023   1.666
21622W        W86783  18.492   9.126  14.438
21623W        W86784  34.686   5.795   1.276
21624W        W86785   7.667   0.531  12.461
21625W        W86786  31.154  20.160   2.510
21626W        W86787   9.376  25.199  12.724
21627W        W86788   1.359  37.469   5.039
21628W        W86789  22.023  37.149   9.856
21629W        W86790  33.357  11.351   3.856
21630W        W86791  36.096   6.015   2.116
21631W        W86792  15.541  38.845  14.894
21632W        W86793   4.909   9.780   3.894
21633W        W86794  44.514   5.447   3.615
21634W        W86795  10.259   7.312   0.009
21635W        W86796  36.970  34.973   1.683
21636W        W86797   3.348  20.274  12.263
21637W        W86798  21.088  33.937  12.076
21638W        W86799   9.247  13.751  10.721
21639W        W86800  21.740   7.262   4.626
21640W        W86801  38.114  44.819   1.323
21641W        W86802  29.025  37.335   3.449
21642W        W86803  38.135  24.270   0.841
21643W        W86804   2.361   4.804  12.484
21644W        W86805  42.003  20.855   2.444
21645W        W86806   2.826  14.146   3.443
21646W        W86807   6.493  25.286  12.943
21647W        W86808  30.664   7.237  13.036
21648W        W86809  43.966  40.876   0.595
21649W        W86810  38.470  12.868   2.227
21650W        W86811  30.590  19.652   2.428
21651W        W86812   8.704  21.082  11.849
21652W        W86813  20.731  17.094   2.225
21653W        W86814   3.653  22.766  10.678
21654W        W86815  10.835  29.536   1.056
21655W        W86816   4.861  17.330   0.877
21656W        W86817  21.522  26.491   2.588
21657W        W86818   2.405  21.549   0.758
21658W        W86819  12.305  18.255  13.908
21659W        W86820  13.282  22.243   0.750
21660W        W86821  18.512  29.551   4.636
21661W        W86822  38.028  29.175  13.368
21662W        W86823  14.307  28.715  11.128
21663W        W86824  16.563   1.017  12.914
21664W        W86825   8.263  19.066   2.912
21665W        W86826  14.316  30.960  12.073
21666W        W86827  27.223  41.381   0.224
21667W        W86828  17.102  14.625  14.308
21668W        W86829  21.113  29.354   2.794
21669W        W86830   0.049  28.654   3.281
21670W        W86831  30.848   4.982  14.830
21671W        W86832   2.629  28.431   0.798
21672W        W86833   4.423   7.397   4.156
21673W        W86834   9.152  39.610  12.483
21674W        W86835  39.337  40.900   1.132
21675W        W86836   3.885  14.225   5.018
21676W        W86837   2.708   3.415  12.090
21677W        W86838  20.445  41.371   3.422
21678W        W86839  39.295   0.517  10.724
21679W        W86840   2.532  19.500  13.204
21680W        W86841  20.164  12.290  14.032
21681W        W86842  19.552   0.393   1.759
21682W        W86843  25.185  17.578  14.777
21683W        W86844  13.702  37.058   2.609
21684W        W86845   0.935   4.494  11.574
21685W        W86846   7.769  26.119   0.795
21686W        W86847  43.036   2.002   3.200
21687W        W86848  24.206  44.014  11.661
21688W        W86849   5.350   3.721   2.329
21689W        W86850   0.950   1.926   4.489
21690W        W86851   0.344   9.571   4.536
21691W        W86852   7.093  42.784   3.856
21692W        W86853   1.958   2.966  11.119
21693W        W86854  12.634   0.007   0.875
21694W        W86855   5.210   4.449   4.661
21695W        W86856  21.685  17.124   3.829
21696W        W86857  35.956   1.716  13.374
21697W        W86858  44.763  28.100   0.920
21698W        W86859  34.022  31.704   4.972
21699W        W86860  28.414  38.039  11.460
21700W        W86861  22.526  16.668   3.719
21701W        W86862  17.249  32.236  14.423
21702W        W86863  17.049  22.949   1.727
21703W        W86864   2.359  23.003  12.862
21704W        W86865  15.015  25.528   0.933
21705W        W86866  27.219   8.833  14.858
21706W        W86867  27.943   6.993   0.878
21707W        W86868  42.043  17.838  13.878
21708W        W86869   2.936  23.826   3.201
21709W        W86870  33.078  26.582   4.107
21710W        W86871  26.443  35.920   1.860
21711W        W86872  21.966  42.987  11.576
21712W        W86873  43.426  23.171   3.908
21713W        W86874  16.807   6.294   0.370
21714W        W86875  25.964  34.980   1.837
21715W        W86876  25.676  44.871  13.156
21716W        W86877  26.391  42.122  12.532
21717W        W86878  27.504  12.787   0.154
21718W        W86879  39.477  28.166   0.298
21719W        W86880  18.583  34.799   4.655
21720W        W86881  40.545  36.467   1.690
21721W        W86882  20.638   9.073   4.206
21722W        W86883  12.603  18.455  11.008
21723W        W86884  40.244  16.143  10.369
21724W        W86885  20.248  21.561  13.813
21725W        W86886  15.576   7.285  12.321
21726W        W86887   5.828  21.014   3.274
21727W        W86888  18.798  18.236   0.489
21728W        W86889  34.839   1.323   4.212
21729W        W86890  22.698  39.677  12.996
21730W        W86891  31.422  41.983   0.415
21731W        W86892   5.193  17.980  12.403
21732W        W86893  28.432  23.586   2.729
21733W        W86894  17.333  22.624   2.561
21734W        W86895  27.976  34.829   1.380
21735W        W86896  42.801  30.909  11.226
21736W        W86897   4.867  23.998   9.995
21737W        W86898  34.611   5.709  10.822
21738W        W86899   7.510  10.906  14.526
21739W        W86900  37.844  42.927   2.153
21740W        W86901  30.367   0.441   4.652
21741W        W86902  25.920  19.753  12.501
21742W        W86903  20.696  38.896   1.222
21743W        W86904  24.141  36.403   0.611
21744W        W86905   4.766   0.365  11.440
21745W        W86906   4.413  21.698   3.850
21746W        W86907   5.199  24.822  12.471
21747W        W86908  13.293  43.749  14.098
21748W        W86909   1.716  24.252   3.147
21749W        W86910  40.494  29.067  13.899
21750W        W86911  23.532  17.734  12.703
21751W        W86912  11.615   1.780   1.417
21752W        W86913  43.002  18.659   4.227
21753W        W86914  43.828  33.832  11.652
21754W        W86915  39.419  22.047   2.345
21755W        W86916  31.037  32.563  10.694
21756W        W86917  22.662  43.802   0.767
21757W        W86918  24.725  34.066   2.827
21758W        W86919  13.233  13.509   1.258
21759W        W86920  15.200   4.133   4.181
21760W        W86921  26.892   2.707  11.152
21761W        W86922  31.821  15.234   3.219
21762W        W86923  33.671  23.221   3.183
21763W        W86924  38.949  27.936   0.635
21764W        W86925  40.511  14.003  12.042
21765W        W86926  21.356  26.464  12.574
21766W        W86927  16.718  26.270   4.083
21767W        W86928  44.899   7.426  10.697
21768W        W86929  37.223  30.512  14.288
21769W        W86930  13.177  10.706  11.167
21770W        W86931  30.484  13.536   4.011
21771W        W86932  17.688   3.836  12.889
21772W        W86933   7.858  29.653   4.567
21773W        W86934  37.377  35.171   2.940
21774W        W86935   3.174  30.199  10.809
21775W        W86936   1.754  23.637   0.449
21776W        W86937  16.772   6.201   2.872
21777W        W86938  19.475  11.637  12.993
21778W        W86939   6.125  20.256  13.498
21779W        W86940  39.895   4.239  10.696
21780W        W86941   7.971  17.352  12.074
21781W        W86942  22.182   4.233  13.442
21782W        W86943  29.465  32.414  12.387
21783W        W86944   8.276  40.070  11.402
21784W        W86945  11.935   9.485  11.078
21785W        W86946  12.282  11.289   0.800
21786W        W86947   6.258  11.772   3.178
21787W        W86948  11.395  32.581   2.366
21788W        W86949   5.894   2.168   3.690
21789W        W86950  21.006   4.788   1.256
21790W        W86951  22.883  22.907   2.727
21791W        W86952  16.769  43.289  14.297
21792W        W86953  34.621   8.591   3.264
21793W        W86954  19.670  40.100   2.700
21794W        W86955  36.624  26.106  13.445
21795W        W86956   2.116  37.784  13.328
21796W        W86957  18.295  37.232   3.412
21797W        W86958  25.833   4.334   0.889
21798W        W86959  18.077  10.407  12.348
21799W        W86960  25.000  34.199   2.378
21800W        W86961  35.087  33.093   0.028
21801W        W86962  26.924  12.943   5.128
21802W        W86963  34.351  42.355  10.661
21803W        W86964  28.643  18.952   2.787
21804W        W86965   0.284   7.251  14.442
21805W        W86966  42.355  31.635   1.194
21806W        W86967  10.638  34.616  13.934
21807W        W86968  44.033  37.985   0.890
21808W        W86969  18.051  26.521  11.595
21809W        W86970  35.800  21.197  10.458
21810W        W86971  17.288  18.231  12.092
21811W        W86972   5.064  39.659  11.588
21812W        W86973  19.824  34.447   1.862
21813W        W86974  37.338  23.308   1.789
21814W        W86975  43.913  36.717   3.560
21815W        W86976  16.138  13.786  14.071
21816W        W86977  27.387  27.154   0.957
21817W        W86978   2.249  19.046   2.742
21818W        W86979   5.198  29.609  12.566
21819W        W86980  23.193  27.166  14.311
21820W        W86981  25.328  38.562  11.258
21821W        W86982  43.153  26.963  10.334
21822W        W86983   0.776  44.069   1.366
21823W        W86984  44.815  39.068   4.819
21824W        W86985  42.018  44.515   2.160
21825W        W86986  37.750  21.115   1.793
21826W        W86987  14.319  37.552   2.197
21827W        W86988   6.633  32.407   4.633
21828W        W86989   4.475  18.701   1.362
21829W        W86990  37.026  42.727  14.605
21830W        W86991  29.204  38.089   9.651
21831W        W86992  35.574  31.332  11.625
21832W        W86993  43.782  14.681  10.727
21833W        W86994  12.713  28.559  12.009
21834W        W86995  36.125  33.102  13.901
21835W        W86996  13.718  32.159  11.115
21836W        W86997   5.107  17.269  13.904
21837W        W86998  12.103  36.308  12.338
21838W        W86999   3.011  18.499   0.421
21839W        W87000  17.674  14.245  13.525
21840W        W87001  35.981   0.966   0.878
21841W        W87002  28.117  16.639  11.253
21842W        W87003  30.458  27.068   1.614
21843W        W87004  10.330  34.033  11.575
21844W        W87005  19.507  40.931  12.155
21845W        W87006  21.013  36.529   2.807
21846W        W87007  19.629  10.152   4.687
21847W        W87008  14.179  30.926  14.654
21848W        W87009   4.490  41.780  11.025
21849W        W87010  24.469  38.162   2.234
21850W        W87011   9.362  11.389  11.114
21851W        W87012  39.294  18.528   0.961
21852W        W87013  25.625  32.818  13.560
21853W        W87014  26.014  16.989  10.611
21854W        W87015  36.929  27.231   4.479
21855W        W87016  12.419   0.057  12.792
21856W        W87017  19.552  34.421  14.311
21857W        W87018  12.173  38.947  12.898
21858W        W87019   2.157  20.590  13.048
21859W        W87020  15.465  27.184   0.597
21860W        W87021   3.248  16.999  12.324
21861W        W87022  43.450   4.459   4.080
21862W        W87023   2.340  29.211  10.336
21863W        W87024  20.384   3.143  11.266
21864W        W87025  37.354  15.877   2.612
21865W        W87026   3.350  24.086   3.871
21866W        W87027  37.596  17.612   0.377
21867W        W87028  43.431   0.880   3.361
21868W        W87029  33.607  29.163  11.609
21869W        W87030  18.493  29.895  13.251
21870W        W87031  39.616  19.508   1.334
21871W        W87032  42.285  16.097  10.603
21872W        W87033   7.905  43.582  11.337
21873W        W87034  33.787  37.256   2.259
21874W        W87035  17.139  29.622   2.781
21875W        W87036  37.016  39.533  12.977
21876W        W87037  12.979  34.260  11.011
21877W        W87038   5.847  27.384  11.985
21878W        W87039  26.680   9.644   4.736
21879W        W87040  25.215  28.885  14.389
21880W        W87041   4.516  16.618  12.794
21881W        W87042  40.592  20.416  13.359
21882W        W87043  41.426  41.034  11.251
21883W        W87044  16.811  28.210   1.711
21884W        W87045  41.674  32.914  14.093
21885W        W87046  19.278  32.882  13.113
21886W        W87047   6.186  28.863  10.266
21887W        W87048  18.063  31.050  13.363
21888W        W87049  20.029  23.242  13.562
21889W        W87050  39.431  44.511  13.284
21890W        W87051  25.648   4.819   4.921
21891W        W87052  34.647  12.288  11.988
21892W        W87053   6.898   1.683   3.796
21893W        W87054   0.666  35.999  12.020
21894W        W87055   9.199   3.651   3.230
21895W        W87056  37.828   8.286  12.466
21896W        W87057  12.998   0.267  13.266
21897W        W87058  35.830   6.350   1.806
21898W        W87059  41.251  30.024  14.543
21899W        W87060  26.909  30.012   3.691
21900W        W87061  14.675  42.998  10.820
21901W        W87062  41.836  41.498  13.887
21902W        W87063  38.704  40.909   2.467
21903W        W87064   6.800  13.846   1.734
21904W        W87065  17.620   6.372  11.615
21905W        W87066  38.809  44.209   1.450
21906W        W87067   8.098  42.838  12.536
21907W        W87068   9.754  34.370  10.500
21908W        W87069  42.001  14.432  12.732
21909W        W87070  23.101  27.035   3.438
21910W        W87071  14.829  28.041  10.893
21911W        W87072  22.973  35.269   1.447
21912W        W87073  28.911  18.310  11.979
21913W        W87074  17.053  33.850   4.834
21914W        W87075  40.637  44.268   5.099
21915W        W87076   6.388   8.317  13.901
21916W        W87077  42.385  38.418   3.697
21917W        W87078   2.036  36.038   2.395
21918W        W87079   6.084  15.832   0.474
21919W        W87080  12.094  20.146  14.919
21920W        W87081   6.101  40.749  13.397
21921W        W87082  36.387  14.192   2.312
21922W        W87083  37.043  10.842   0.366
21923W        W87084  14.802  25.044   0.939
21924W        W87085  37.100  15.102   0.080
21925W        W87086  33.635   1.336  13.440
21926W        W87087  34.192   5.294   0.025
21927W        W87088  12.354  27.740  14.963
21928W        W87089  22.688  43.281   3.649
21929W        W87090  29.652  25.179  14.970
21930W        W87091  33.471  34.494   0.750
21931W        W87092   2.348  19.583  14.733
21932W        W87093   8.089   9.758  14.287
21933W        W87094  13.832  10.604   4.020
21934W        W87095   7.154  41.909  11.083
21935W        W87096  43.405   0.673   2.476
21936W        W87097   5.161  30.700   1.017
21937W        W87098  35.831  22.181   3.857
21938W        W87099  40.301  21.343  10.683
21939W        W87100   8.887  21.548  10.734
21940W        W87101  14.180   9.152   0.874
21941W        W87102  29.368  20.824   0.356
21942W        W87103  41.669  15.726   0.301
21943W        W87104   8.880  13.174   2.274
21944W        W87105  33.004   4.279   4.850
21945W        W87106  37.861  21.601   4.084
21946W        W87107  23.208   4.703  10.647
21947W        W87108  31.474  30.568   0.360
21948W        W87109  15.260  40.560  11.535
21949W        W87110  37.098  16.271   2.843
21950W        W87111  14.347  11.156   3.633
21951W        W87112  13.718  40.833  12.120
21952W        W87113  43.522   1.146  13.369
21953W        W87114  31.779  24.459  13.678
21954W        W87115  20.778  23.497   0.706
21955W        W87116   5.254  13.167   0.882
21956W        W87117  21.500  17.750  12.820
21957W        W87118   0.072  26.642  12.081
21958W        W87119  34.045  19.317  10.574
21959W        W87120  16.294  23.760  13.507
21960W        W87121   6.108  42.361   4.756
21961W        W87122   3.552  43.763  14.115
21962W        W87123  39.738  31.914  12.886
21963W        W87124  41.046  26.093  11.162
21964W        W87125  23.476  30.961   3.218
21965W        W87126  24.802  19.971  11.658
21966W        W87127  15.825  37.493   3.823
21967W        W87128  20.234  16.898  10.786
21968W        W87129  34.563  42.846   4.642
21969W        W87130   5.876   5.676   1.442
21970W        W87131   4.415  34.034   2.194
21971W        W87132   6.287   5.483  14.236
21972W        W87133  33.448  27.967   0.783
21973W        W87134  44.000  27.825  11.466
21974W        W87135  32.573   0.819  12.129
21975W        W87136  44.462  33.583  12.121
21976W        W87137   7.726  34.548   3.146
21977W        W87138  43.268   7.674   4.940
21978W        W87139  13.097  23.043  13.420
21979W        W87140   8.759  18.294  10.767
21980W        W87141  28.077  31.852   2.284
21981W        W87142  33.607  28.036  14.328
21982W        W87143  12.336  43.676  14.694
21983W        W87144  20.894  40.990  10.840
21984W        W87145  38.267  40.415   0.256
21985W        W87146  29.988  10.064   4.945
21986W        W87147  13.293  25.528   2.046
21987W        W87148   4.271  43.944   4.641
21988W        W87149  22.415  18.467   3.927
21989W        W87150  19.014  24.986  10.302
21990W        W87151  21.406   0.481  10.815
21991W        W87152  40.340   9.920  12.856
21992W        W87153  17.766   2.784  13.354
21993W        W87154   6.672  13.644   0.306
21994W        W87155  37.543  42.945   4.412
21995W        W87156  32.248   4.642  14.923
21996W        W87157   6.811  32.166  13.962
21997W        W87158   9.577   0.842   2.451
21998W        W87159  26.739   8.690  11.039
21999W        W87160  13.860  16.743   3.665
22000W        W87161   8.352  16.098  11.123
22001W        W87162  42.735  36.877  11.971
22002W        W87163   3.942  45.000   3.285
22003W        W87164  35.679  38.244   4.550
22004W        W87165   3.251   8.092  13.474
22005W        W87166  12.386  37.945   3.820
22006W        W87167  31.376  18.250   1.354
22007W        W87168   5.809  17.660  10.747
22008W        W87169  13.035  13.962  13.583
22009W        W87170  22.068  36.021   1.902
22010W        W87171  19.657   0.711  12.188
22011W        W87172  27.400   1.307  11.559
22012W        W87173  36.056   2.650  13.399
22013W        W87174  21.989  28.280  11.412
22014W        W87175  36.019  41.392  13.335
22015W        W87176  14.233  21.861   3.168
22016W        W87177  42.898  13.866  11.282
22017W        W87178   2.934  11.775   3.136
22018W        W87179  26.590   6.904   1.989
22019W        W87180  14.625  24.478  12.439
22020W        W87181  15.710  17.643   3.534
22021W        W87182  26.816  18.586  14.870
22022W        W87183  40.256  13.173   3.191
22023W        W87184  20.205   3.341  10.823
22024W        W87185  10.659   2.259  14.762
22025W        W87186  39.412  39.771  14.135
22026W        W87187  21.374  23.828   4.591
22027W        W87188  37.650   5.764  11.949
22028W        W87189   7.331  27.889  13.579
22029W        W87190  27.934  43.420   3.217
22030W        W87191  23.933  27.872   2.774
22031W        W87192  23.087   5.248  12.346
22032W        W87193   4.752   8.704  13.473
22033W        W87194   1.775  21.300  14.188
22034W        W87195   8.634   4.597  12.808
22035W        W87196   6.251  25.734  14.810
22036W        W87197   9.188  16.311   1.892
22037W        W87198  42.907   8.419   0.346
22038W        W87199  31.059  36.836  14.901
22039W        W87200  32.679  21.740  14.999
22040W        W87201  26.286  24.464   0.020
22041W        W87202  25.953  29.051   0.935
22042W        W87203  30.428  36.555  13.495
22043W        W87204  38.920  19.966  10.673
22044W        W87205  31.996  27.869   2.794
22045W        W87206  33.186  31.201   2.872
22046W        W87207  20.550  25.175  12.497
22047W        W87208  34.597  20.948   0.794
22048W        W87209  31.078  15.623  11.992
22049W        W87210  24.713  13.192  11.680
22050W        W87211   9.233  26.790   0.665
22051W        W87212  30.522  41.942  12.050
22052W        W87213  16.930   9.460   3.797
22053W        W87214   3.775   0.873   4.893
22054W        W87215  21.408  10.852   1.010
22055W        W87216  43.944   2.115   2.156
22056W        W87217  23.702  41.084  12.419
22057W        W87218  33.002   5.334   4.822
22058W        W87219  23.334  15.542  12.966
22059W        W87220  20.604  27.120   3.173
22060W        W87221  33.059  30.434  12.831
22061W        W87222  37.638   0.366  11.639
22062W        W87223  37.380  25.653   2.036
22063W        W87224  23.106  28.365  12.386
22064W        W87225  31.066   0.360   3.569
22065W        W87226  25.097  40.901  12.517
22066W        W87227  10.300  29.919  12.698
22067W        W87228  27.668  32.551  13.844
22068W        W87229  17.022  24.611  13.133
22069W        W87230  38.500  23.082  10.789
22070W        W87231   4.963  26.813  13.321
22071W        W87232  11.777  36.513   3.142
22072W        W87233  11.963  21.217   4.994
22073W        W87234  29.182   7.421   4.600
22074W        W87235  17.646   9.257   4.549
22075W        W87236  11.884  39.883   1.748
22076W        W87237  36.137  11.257   1.341
22077W        W87238  16.136  36.313   4.167
22078W        W87239  42.923  16.883   0.995
22079W        W87240   7.704  39.255   3.167
22080W        W87241   2.787  26.521   4.820
22081W        W87242  21.114  18.228   0.980
22082W        W87243  27.504  33.112   2.278
22083W        W87244  21.511  11.805   4.275
22084W        W87245   7.246   8.930   2.290
22085W        W87246   8.896  19.635   1.403
22086W        W87247  35.861   6.307  12.432
22087W        W87248  36.788  11.406  14.510
22088W        W87249  16.512   4.031  10.991
22089W        W87250  43.501  38.493  12.421
22090W        W87251  39.793   7.848   0.348
22091W        W87252  22.024  13.988   1.718
22092W        W87253  28.913  34.814   1.328
22093W        W87254  31.810  34.037  11.548
22094W        W87255  24.653  41.849  12.398
22095W        W87256  42.735  11.425   3.694
22096W        W87257  22.168  30.905  13.233
22097W        W87258  42.513   8.862  13.377
22098W        W87259  26.624  44.226  10.484
22099W        W87260  42.855  32.999  10.210
22100W        W87261  14.555  43.376   1.788
22101W        W87262   8.708  38.036   0.373
22102W        W87263  38.908  39.790   2.876
22103W        W87264  34.451  29.344  10.626
22104W        W87265   4.584  31.511  12.672
22105W        W87266  29.015  12.886   4.449
22106W        W87267  32.929   6.110   1.747
22107W        W87268  14.692   7.620   3.626
22108W        W87269   4.357   3.727   1.456
22109W        W87270  37.100  16.383   1.905
22110W        W87271  15.114  38.628  12.142
22111W        W87272  26.710  35.872   2.319
22112W        W87273   3.426  21.948  11.655
22113W        W87274  36.398  39.253   1.391
22114W        W87275  15.674  30.404  11.970
22115W        W87276  26.834   3.442  10.780
22116W        W87277  42.307  40.272   2.441
22117W        W87278  37.833  32.887   1.863
22118W        W87279  25.181  39.844   4.955
22119W        W87280  26.221  40.239   0.519
22120W        W87281  44.115  32.847   3.295
22121W        W87282  12.180  39.595  11.538
22122W        W87283   9.794  44.688  14.030
22123W        W87284  44.415  43.587   2.341
22124W        W87285  34.207  18.578  11.533
22125W        W87286  33.138  21.676   3.529
22126W        W87287  15.875   2.320  11.520
22127W        W87288  15.258  30.968   2.408
22128W        W87289  23.953  25.687   1.217
22129W        W87290  20.709  27.153   4.512
22130W        W87291  21.041  13.848  14.393
22131W        W87292   1.481   1.892  12.877
22132W        W87293  29.490  36.298  13.627
22133W        W87294  38.480  11.419  10.979
22134W        W87295  42.349  36.972   0.893
22135W        W87296  34.293  42.039   3.907
22136W        W87297  27.563  35.296  12.977
22137W        W87298   5.789  37.686  14.003
22138W        W87299   2.221  31.103  12.933
22139W        W87300  26.949  39.887   2.463
22140W        W87301  25.956   8.706  10.729
22141W        W87302  44.437  40.442  13.062
22142W        W87303  17.289  25.496   4.571
22143W        W87304   0.995  44.635  14.544
22144W        W87305  14.459  30.997   1.864
22145W        W87306   4.757   3.412  14.287
22146W        W87307   6.714  20.789   3.371
22147W        W87308  29.695   2.383   3.638
22148W        W87309  10.654  40.370   1.740
22149W        W87310  41.689   3.932   1.868
22150W        W87311   5.957  41.048  11.216
22151W        W87312   9.267  15.557   2.377
22152W        W87313  12.738  35.629   0.312
22153W        W87314  43.766  36.093   0.369
22154W        W87315  14.444  38.465   2.233
22155W        W87316   9.216  26.458   5.052
22156W        W87317   5.874   7.392   0.610
22157W        W87318  21.280   7.698  14.905
22158W        W87319  29.154  38.052   5.197
22159W        W87320  14.772  23.129  12.435
22160W        W87321  26.236  37.977  13.555
22161W        W87322  35.326   2.580  13.104
22162W        W87323  13.914  17.698   1.713
22163W        W87324  24.449   2.683   4.228
22164W        W87325   9.901  29.073   2.755
22165W        W87326   8.926  13.223   1.555
22166W        W87327  33.496   1.564  11.543
22167W        W87328  30.506  40.760  14.365
22168W        W87329  30.730  18.093  13.314
22169W        W87330  22.087  42.079   1.797
22170W        W87331  41.950  17.622   4.317
22171W        W87332  37.967  33.403  13.780
22172W        W87333   7.632  22.745   3.690
22173W        W87334  27.436  15.079   1.767
22174W        W87335  25.086   1.195  14.398
22175W        W87336  12.400  39.586   4.302
22176W        W87337  43.328  20.342  14.271
22177W        W87338  15.142  10.599  13.658
22178W        W87339   6.142   3.012   3.461
22179W        W87340  40.933  24.181  11.964
22180W        W87341  44.738  44.471   0.034
22181W        W87342  36.561  16.278  12.430
22182W        W87343  17.766  39.324   0.935
22183W        W87344  34.936  25.631  14.106
22184W        W87345   4.777  13.273   3.535
22185W        W87346  22.595   0.155  10.367
22186W        W87347  25.841   9.849  12.477
22187W        W87348  28.525  23.212   3.574
22188W        W87349  43.974  31.767   2.744
22189W        W87350  10.821  27.310   1.450
22190W        W87351  19.801   6.982  13.973
22191W        W87352  35.898  24.018   2.762
22192W        W87353  13.736  34.692  12.590
22193W        W87354   1.236  22.729   2.757
22194W        W87355  39.312  30.382   3.600
22195W        W87356  43.455   2.388  14.705
22196W        W87357  12.250  12.364   3.290
22197W        W87358  15.849  26.449   4.513
22198W        W87359  12.185  42.869   4.503
22199W        W87360  40.520  23.223   3.138
22200W        W87361   1.169  17.263   3.670
22201W        W87362  36.581  13.452   2.775
22202W        W87363  16.638  34.303   0.291
22203W        W87364   6.811   7.913  12.499
22204W        W87365  29.035  25.290   2.421
22205W        W87366   1.893  27.005   0.723
22206W        W87367  13.176  38.050   3.175
22207W        W87368   1.008  20.374  14.382
22208W        W87369  20.069   3.324  13.411
22209W        W87370  31.348   5.499  11.139
22210W        W87371  33.031  16.786   2.164
22211W        W87372  38.343  11.200   1.713
22212W        W87373  25.732  17.841  11.683
22213W        W87374  29.102  27.938  11.521
22214W        W87375  44.790  21.337   2.235
22215W        W87376  44.858   3.558   0.047
22216W        W87377  22.575  30.490   2.596
22217W        W87378  18.147  31.624  12.583
22218W        W87379  33.480  21.498  12.097
22219W        W87380  37.072  31.553  13.326
22220W        W87381  30.171  15.505  11.249
22221W        W87382  43.894  44.241   2.474
22222W        W87383   9.326  26.464   1.875
22223W        W87384  23.749  31.866  12.015
22224W        W87385  29.773   6.060   1.028
22225W        W87386  32.467  37.372   3.698
22226W        W87387   4.354  14.449  14.973
22227W        W87388  32.497  40.764  14.376
22228W        W87389  30.393  39.820  14.895
22229W        W87390   2.124  20.621   1.872
22230W        W87391  27.996   7.544  13.935
22231W        W87392  14.290   2.734  14.950
22232W        W87393   1.174   1.813  14.312
22233W        W87394  33.454  24.505   2.888
22234W        W87395   5.321   6.411   1.939
22235W        W87396   8.297  42.137  13.752
22236W        W87397  15.138  28.539   1.926
22237W        W87398  36.946  23.938  11.899
22238W        W87399  19.831  31.110   3.655
22239W        W87400   8.890   1.769   0.958
22240W        W87401   7.086  21.313   0.749
22241W        W87402   4.858   0.458  10.556
22242W        W87403   5.672   2.006   2.036
22243W        W87404   9.191  18.795   4.184
22244W        W87405  24.683   9.700  13.983
22245W        W87406  39.854   9.228  13.562
22246W        W87407  28.771  41.331   2.647
22247W        W87408  23.157  28.588  13.350
22248W        W87409  27.982   3.168   0.898
22249W        W87410  38.064  11.713  12.627
22250W        W87411   2.294  38.356  12.532
22251W        W87412  17.490   6.713  13.569
22252W        W87413  24.026  37.442   4.561
22253W        W87414   9.437   3.967   2.777
22254W        W87415   2.380   6.755   2.561
22255W        W87416  25.066  13.628  14.879
22256W        W87417  17.855  20.800   0.927
22257W        W87418  19.221   0.220  12.385
22258W        W87419   8.134  26.931   0.009
22259W        W87420  19.742  30.492  14.829
22260W        W87421  22.983  23.710  14.011
22261W        W87422  29.271  40.056  10.083
22262W        W87423  37.678   5.049  12.471
22263W        W87424   3.326   6.084  11.612
22264W        W87425  24.210  21.462   2.462
22265W        W87426  32.907   3.524  14.420
22266W        W87427  17.727   0.505  14.810
22267W        W87428  19.995  13.740  14.303
22268W        W87429  20.220  20.107   2.349
22269W        W87430   1.878  10.900   0.529
22270W        W87431  41.330   4.704   1.213
22271W        W87432   0.827  11.338  11.998
22272W        W87433  43.696  44.331  13.368
22273W        W87434   3.671   3.347   1.638
22274W        W87435  44.863  40.213   1.294
22275W        W87436  43.339  26.529  14.170
22276W        W87437  28.425  29.543   2.269
22277W        W87438  41.488  39.290  12.904
22278W        W87439  14.830  24.957   5.023
22279W        W87440   8.279  19.704  11.993
22280W        W87441  15.192  27.066  13.517
22281W        W87442   0.994  23.961  13.829
22282W        W87443  44.189  11.734   1.828
22283W        W87444   0.684  14.051  14.724
22284W        W87445  39.529  28.634  13.856
22285W        W87446  21.297  19.197   3.336
22286W        W87447  25.913  28.173  14.494
22287W        W87448  25.495  31.366  12.461
22288W        W87449  38.919  41.293  12.637
22289W        W87450  15.294  22.520  13.075
22290W        W87451  26.505  23.593   3.226
22291W        W87452  26.500  16.273  14.795
22292W        W87453  22.608   9.506  10.103
22293W        W87454  23.012   4.729   1.527
22294W        W87455  36.263   3.717   0.381
22295W        W87456  42.783  31.626   2.301
22296W        W87457   7.141  37.967   1.212
22297W        W87458  17.846  43.548  14.949
22298W        W87459  12.731  41.460   2.979
22299W        W87460  14.613  24.664   3.654
22300W        W87461  38.056  35.805  10.657
22301W        W87462  31.629  29.049  10.639
22302W        W87463  13.631  24.492  12.528
22303W        W87464  36.544  41.934   4.948
22304W        W87465   8.763  44.435   3.712
22305W        W87466  29.608  40.825   0.583
22306W        W87467  37.074  21.839  10.987
22307W        W87468   2.240  40.394   2.423
22308W        W87469  41.437  41.075  11.772
22309W        W87470   8.519   2.720  14.893
22310W        W87471   0.756  20.511  10.681
22311W        W87472  35.054   9.257  14.074
22312W        W87473  44.389  24.812   3.257
22313W        W87474  39.889   2.820  10.686
22314W        W87475  43.864  34.630   3.783
22315W        W87476  15.792  43.694   3.192
22316W        W87477  36.162  23.878  12.855
22317W        W87478  24.084  32.191   1.376
22318W        W87479  10.608  39.527   1.738
22319W        W87480   6.665  13.332  11.208
22320W        W87481   6.667  35.005  14.353
22321W        W87482  22.848  15.556  12.886
22322W        W87483   1.219  42.228  14.467
22323W        W87484  42.945  16.281  14.483
22324W        W87485  33.967  39.683   0.738
22325W        W87486   4.148  44.018   2.613
22326W        W87487  23.723  14.568   1.717
22327W        W87488   9.430  25.797   3.625
22328W        W87489   9.279   7.698   3.868
22329W        W87490  36.464  22.447   1.305
22330W        W87491   0.465  44.700  11.633
22331W        W87492   8.258  31.143   0.054
22332W        W87493  13.328  27.128  12.498
22333W        W87494  19.083  24.660  13.947
22334W        W87495   2.246  35.012  11.212
22335W        W87496  10.156  30.115   2.790
22336W        W87497  23.572  32.191  12.611
22337W        W87498  43.219  12.194  14.414
22338W        W87499  31.517  16.757  11.047
22339W        W87500   5.639   4.815   0.290
22340W        W87501  37.795  37.003  12.904
22341W        W87502  41.357  31.947  11.169
22342W        W87503  16.746   8.216   3.361
22343W        W87504  23.202  11.686   1.398
22344W        W87505  26.411  35.873  10.336
22345W        W87506  26.272  24.204  14.311
22346W        W87507  32.379  37.862  13.779
22347W        W87508  33.746  41.959   4.589
22348W        W87509  42.536  38.504  14.891
22349W        W87510  36.832  11.732  14.918
22350W        W87511  13.054  22.466   3.560
22351W        W87512  28.656  29.601  13.002
22352W        W87513  33.626  32.562   3.992
22353W        W87514   6.466  27.682   0.847
22354W        W87515  26.992  33.077  14.357
22355W        W87516  26.974  30.166   0.698
22356W        W87517  17.738  44.628  13.295
22357W        W87518  27.307  42.666  14.942
22358W        W87519   5.721  29.103   3.913
22359W        W87520  37.225  33.997   2.255
22360W        W87521  10.050  21.440  10.735
22361W        W87522  36.180  23.573   2.718
22362W        W87523  25.971  35.174  12.065
22363W        W87524  18.284  22.545  12.516
22364W        W87525  15.834  10.378   2.208
22365W        W87526  24.007  28.998  11.918
22366W        W87527  29.169   6.257   0.830
22367W        W87528  29.597  38.896  14.122
22368W        W87529  28.246  14.704  13.113
22369W        W87530  35.071  34.019  14.504
22370W        W87531   1.866   3.341   0.341
22371W        W87532  23.921   7.708   2.493
22372W        W87533   9.718  39.577  14.304
22373W        W87534  43.173  42.033  12.369
22374W        W87535  24.027  12.220  13.545
22375W        W87536  26.467   8.179  13.642
22376W        W87537   7.859  14.280  12.918
22377W        W87538   1.303  26.510  13.455
22378W        W87539  21.868  14.312   4.179
22379W        W87540  39.220  31.476  11.504
22380W        W87541  38.824  10.523  12.859
22381W        W87542  44.229   7.139  10.513
22382W        W87543  36.174   0.512   1.064
22383W        W87544   9.274  21.005   0.505
22384W        W87545  27.281  31.658  11.572
22385W        W87546  32.930  23.606  10.426
22386W        W87547  44.396  42.046  14.868
22387W        W87548  36.867  13.303   1.596
22388W        W87549  15.655   1.831   2.202
22389W        W87550  22.187  22.025  14.920
22390W        W87551   3.899  19.842  11.456
22391W        W87552  17.239  31.852  12.157
22392W        W87553  17.743   0.733  11.180
22393W        W87554  23.681  42.545   1.769
22394W        W87555  30.552   6.846  12.667
22395W        W87556  18.216  30.543   0.933
22396W        W87557   1.948   6.787   1.693
22397W        W87558  32.393   5.887  14.370
22398W        W87559  19.642  17.655   0.002
22399W        W87560  28.373  10.116  11.565
22400W        W87561  36.332  17.080  14.310
22401W        W87562  17.242   5.885  12.415
22402W        W87563  21.785  20.817  10.580
22403W        W87564  43.815  33.835  12.964
22404W        W87565  11.305  30.214   1.702
22405W        W87566  37.885   4.872  12.934
22406W        W87567  16.639  31.076   2.664
22407W        W87568   2.802   6.443   0.440
22408W        W87569   0.788  44.716  10.398
22409W        W87570   0.697  28.937   1.290
22410W        W87571  34.677   0.104  13.555
22411W        W87572  34.923  43.595  12.231
22412W        W87573  38.571  12.293   4.459
22413W        W87574  16.010  15.348  10.473
22414W        W87575  25.546  33.887  10.473
22415W        W87576  14.299  24.650   4.395
22416W        W87577  34.536  29.148  11.259
22417W        W87578  12.977  34.895  13.947
22418W        W87579  42.021  18.503  10.454
22419W        W87580  11.558   5.326   2.739
22420W        W87581  22.997  39.142  12.358
22421W        W87582  31.380  33.153   1.710
22422W        W87583   5.448  18.270  12.969
22423W        W87584  22.970  27.833   4.642
22424W        W87585  11.301  20.128   3.392
22425W        W87586  23.347  24.923   2.803
22426W        W87587  21.851  42.183  10.724
22427W        W87588  17.809  40.391  14.562
22428W        W87589  10.085  39.966  13.191
22429W        W87590  23.669   2.994  12.823
22430W        W87591  29.197   9.416   1.366
22431W        W87592  39.076  24.948   0.301
22432W        W87593   1.833  34.844  11.430
22433W        W87594  17.841  28.495  11.103
22434W        W87595  42.944  16.056   2.651
22435W        W87596   3.416  38.798   0.880
22436W        W87597  16.265  35.431  11.589
22437W        W87598  40.995  32.953   1.319
22438W        W87599  42.944  28.683   2.745
22439W        W87600   8.325  19.293  14.869
22440W        W87601  42.558   3.292   4.628
22441W        W87602  21.093   2.216  13.815
22442W        W87603  22.567  44.302   4.086
22443W        W87604  35.090  15.217  10.443
22444W        W87605   3.692  26.264  14.376
22445W        W87606  32.165   4.008   2.891
22446W        W87607  34.390  41.197  10.491
22447W        W87608  42.296  29.293   1.688
22448W        W87609  35.133  15.171   3.048
22449W        W87610  33.703  21.942   4.373
22450W        W87611  42.704  21.416   0.453
22451W        W87612  23.560  39.881  13.823
22452W        W87613  27.929  31.070   3.619
22453W        W87614  23.223  29.073   4.704
22454W        W87615  12.577  24.942   4.561
22455W        W87616  27.896  15.097  13.903
22456W        W87617  19.573  17.857   4.591
22457W        W87618  37.109  14.406  11.544
22458W        W87619  36.102  37.561   4.171
22459W        W87620  30.677  17.150   0.743
22460W        W87621  25.463  23.083  14.046
22461W        W87622   6.796  26.906  14.374
22462W        W87623   8.924   8.221   5.036
22463W        W87624  30.676   1.485   3.673
22464W        W87625   6.269   9.436   3.847
22465W        W87626  32.900  15.538  12.200
22466W        W87627  37.771  41.030  13.400
22467W        W87628  36.094  36.093  10.888
22468W        W87629  10.623  21.599   4.122
22469W        W87630  38.612   7.643   1.272
22470W        W87631  10.770   9.438   3.783
22471W        W87632  28.461  27.441   1.207
22472W        W87633  24.552  30.896   3.157
22473W        W87634  38.074  32.412   4.396
22474W        W87635  41.533  28.095  13.946
22475W        W87636   5.015  36.854   4.134
22476W        W87637  24.638  13.803  12.481
22477W        W87638   8.755   3.806   2.269
22478W        W87639  21.121  33.673  13.499
22479W        W87640  38.261   1.373   1.827
22480W        W87641  10.528  27.104   1.819
22481W        W87642   8.711   8.846  11.974
22482W        W87643   6.844   3.206  11.047
22483W        W87644  25.766  16.819  10.180
22484W        W87645  11.587  41.514  12.439
22485W        W87646  28.381  27.504  11.152
22486W        W87647  11.776  41.042  14.347
22487W        W87648   0.153  22.713   4.755
22488W        W87649  38.887  34.886   1.878
22489W        W87650  19.304  35.193   0.920
22490W        W87651  31.467  36.874  11.631
22491W        W87652   1.279  15.932   0.677
22492W        W87653  11.861   2.406   0.398
22493W        W87654  19.145  10.761   4.646
22494W        W87655  15.014  38.942   0.116
22495W        W87656   6.493  14.436  14.807
22496W        W87657   7.843  28.240   2.356
22497W        W87658  24.031  15.882   1.718
22498W        W87659  27.147  42.502   4.319
22499W        W87660  32.654  42.116   3.629
22500W        W87661  22.135  17.733  12.169
22501W        W87662  44.172   9.872   2.219
22502W        W87663  29.791  17.526   0.837
22503W        W87664  33.023  18.569   1.755
22504W        W87665  42.970  20.110  14.563
22505W        W87666  31.662  10.722   4.164
22506W        W87667  28.565  14.721   0.206
22507W        W87668  42.856   3.974  13.988
22508W        W87669  29.744   2.913   1.290
22509W        W87670   6.962  44.894   4.596
22510W        W87671  24.533  25.136   0.856
22511W        W87672  37.372  24.474   1.268
22512W        W87673  21.731  42.310  12.486
22513W        W87674  42.266  16.402  14.928
22514W        W87675   2.312   3.897   3.884
22515W        W87676  23.958  38.314   3.209
22516W        W87677  22.746  19.060  12.954
22517W        W87678  32.043  44.817  14.282
22518W        W87679   0.981   7.766   2.734
22519W        W87680  21.674   0.406   1.411
22520W        W87681  28.703  22.177   0.181
22521W        W87682  24.514   3.670  12.027
22522W        W87683   2.310   4.528   0.031
22523W        W87684  42.738   1.967   1.805
22524W        W87685  32.330  43.156  13.967
22525W        W87686   8.860  41.092   2.295
22526W        W87687   8.931  29.242   2.762
22527W        W87688  39.025  36.555  14.739
22528W        W87689  12.092  36.048  14.414
22529W        W87690   1.367  33.819  13.483
22530W        W87691  10.118  36.464  13.948
22531W        W87692  39.270  44.978  14.064
22532W        W87693  20.484  39.571  11.641
22533W        W87694  41.436   7.900   1.307
22534W        W87695  25.045  23.406  14.954
22535W        W87696   3.601  21.625  12.047
22536W        W87697   4.052  21.828  10.701
22537W        W87698  33.509   5.267  12.170
22538W        W87699   6.450  41.752   2.610
22539W        W87700  22.035  35.916   3.754
22540W        W87701  42.509  42.430  14.892
22541W        W87702  20.837   5.929   0.709
22542W        W87703  18.739  19.180   0.250
22543W        W87704  32.026  44.420   3.891
22544W        W87705  15.129  44.868  11.650
22545W        W87706  19.557  14.197   0.650
22546W        W87707  39.116  40.320  14.825
22547W        W87708  25.780  27.512  10.619
22548W        W87709  44.796  21.747   4.526
22549W        W87710  10.457  32.573   3.649
22550W        W87711   2.263  20.098   1.180
22551W        W87712  32.333  31.594   4.731
22552W        W87713  27.188  35.293  13.375
22553W        W87714  11.190  10.171  12.359
22554W        W87715   9.842   7.610   1.227
22555W        W87716  17.097  22.202   4.115
22556W        W87717  12.886  44.196   4.145
22557W        W87718  15.077   8.284   1.759
22558W        W87719   0.670  43.734  12.490
22559W        W87720  13.562  12.403  12.063
22560W        W87721  36.602  13.647  14.828
22561W        W87722  23.920  43.980  13.546
22562W        W87723  19.724  39.814   1.705
22563W        W87724  40.016  41.561  13.988
22564W        W87725   9.653   5.240  13.382
22565W        W87726  41.945  33.179   4.531
22566W        W87727   6.832   9.188  14.855
22567W        W87728   8.409  16.892  12.859
22568W        W87729  30.067  14.277   3.890
22569W        W87730   5.247  44.719  11.975
22570W        W87731  18.699  29.388   2.213
22571W        W87732   1.327  19.198   2.345
22572W        W87733  23.881  40.940   0.766
22573W        W87734   0.939  26.612   1.992
22574W        W87735  17.263  14.687  10.798
22575W        W87736   9.697  17.770   1.354
22576W        W87737  15.900  12.159  12.498
22577W        W87738  24.078  29.401   3.675
22578W        W87739  21.123  13.223   5.015
22579W        W87740  40.804   3.943  12.833
22580W        W87741  27.650  19.637  10.578
22581W        W87742  21.660  20.122   1.887
22582W        W87743  13.268  18.195   4.308
22583W        W87744   6.471  41.832  14.478
22584W        W87745  32.446  28.649   0.409
22585W        W87746   2.338  25.469   2.816
22586W        W87747   2.336  43.983   2.391
22587W        W87748  14.192  33.158   4.557
22588W        W87749  27.152   4.922   3.724
22589W        W87750   6.494  37.582   5.028
22590W        W87751  14.601  31.122   5.035
22591W        W87752  12.746   5.700  12.974
22592W        W87753  43.476  17.518  13.861
22593W        W87754  12.375  29.148  13.022
22594W        W87755  20.579  36.143  14.228
22595W        W87756  23.944  10.587   2.673
22596W        W87757  31.199  38.922  11.464
22597W        W87758   3.251  23.037   3.555
22598W        W87759  22.181  43.905   3.313
22599W        W87760  41.895  36.635   0.754
22600W        W87761  41.281   9.630  11.997
22601W        W87762  31.099  10.755   2.924
22602W        W87763   7.514  35.364   2.953
22603W        W87764   9.489  37.990   1.136
22604W        W87765  10.172  30.467   9.828
22605W        W87766  17.615   9.581  11.050
22606W        W87767  15.629  10.727   4.136
22607W        W87768  38.962   7.618   4.581
22608W        W87769  26.567  22.768  13.120
22609W        W87770  17.022   8.282  12.064
22610W        W87771  17.535  16.162  14.777
22611W        W87772  10.569   8.755   3.321
22612W        W87773  14.174   3.747  13.995
22613W        W87774  24.750  15.641   3.858
22614W        W87775  14.554  27.157  13.014
22615W        W87776  33.342   6.699  12.956
22616W        W87777  28.762  31.050   1.539
22617W        W87778  32.064   1.538  13.829
22618W        W87779  22.388   1.282   3.903
22619W        W87780   8.646  26.994   0.750
22620W        W87781  15.676  11.237   1.241
22621W        W87782  41.415  30.423  12.882
22622W        W87783  24.979  31.012   4.479
22623W        W87784  31.652  32.048   5.041
22624W        W87785  23.393  20.506   1.582
22625W        W87786  31.197  44.024   4.032
22626W        W87787  37.993  40.368  14.799
22627W        W87788  36.123  42.317  13.491
22628W        W87789  26.004  37.512  13.523
22629W        W87790  28.289   1.860   0.775
22630W        W87791  20.537  17.728   0.818
22631W        W87792  11.470   2.733  12.082
22632W        W87793   6.319  10.243   4.597
22633W        W87794  24.428  44.041  13.448
22634W        W87795  36.563  43.098   0.787
22635W        W87796  24.282   5.631   1.386
22636W        W87797  32.005  17.665  14.253
22637W        W87798  13.789  38.982   1.800
22638W        W87799  11.719  38.348   0.914
22639W        W87800  23.268  40.523  13.369
22640W        W87801  40.918  25.465   0.192
22641W        W87802  19.664  26.016   4.939
22642W        W87803  33.054  40.863   1.303
22643W        W87804  12.155   5.503  14.332
22644W        W87805  12.100  12.196  10.767
22645W        W87806  32.692   1.973   2.345
22646W        W87807  23.597  14.970   3.751
22647W        W87808  26.986  14.696  14.293
22648W        W87809  15.175  42.645   2.208
22649W        W87810   9.356  27.697   0.967
22650W        W87811  21.296  42.950   5.010
22651W        W87812  19.733  17.547  12.633
22652W        W87813  43.719  13.319  14.742
22653W        W87814   4.252  26.201  13.024
22654W        W87815  25.929  22.669   3.320
22655W        W87816  29.968   2.707   1.776
22656W        W87817  18.335  39.715  11.294
22657W        W87818  26.117  30.973   0.387
22658W        W87819  40.088  40.513  13.872
22659W        W87820   1.444   1.008  11.122
22660W        W87821  39.799  19.296  14.831
22661W        W87822   5.273  16.611   4.387
22662W        W87823  39.967  36.973   3.254
22663W        W87824  20.749   6.579  13.148
22664W        W87825  22.087  15.418   2.896
22665W        W87826   5.778  21.067  12.574
22666W        W87827  15.349  31.624  12.045
22667W        W87828   5.652  34.453  12.519
22668W        W87829  17.729  33.500   3.424
22669W        W87830  35.119   3.003   2.613
22670W        W87831  13.388   2.268  12.078
22671W        W87832  42.639  23.131  14.909
22672W        W87833  16.080   2.881  12.979
22673W        W87834   4.227  29.940   3.068
22674W        W87835  38.560  27.123   4.122
22675W        W87836  16.674  18.620  10.960
22676W        W87837   4.304  10.604   2.792
22677W        W87838  13.873  36.079   2.379
22678W        W87839  33.943  18.322  11.161
22679W        W87840   8.295  23.298   0.869
22680W        W87841  10.679  31.994  14.344
22681W        W87842  10.865   6.844  11.447
22682W        W87843  42.137  39.624  14.512
22683W        W87844  23.006  15.897   4.758
22684W        W87845   5.794  31.934   0.902
22685W        W87846  10.183  27.899  10.760
22686W        W87847  12.720   5.699  10.743
22687W        W87848   2.883   5.339   2.224
22688W        W87849  19.617  43.590   0.947
22689W        W87850   0.448   4.191  14.454
22690W        W87851  27.196  28.945  10.744
22691W        W87852  42.382  15.208   3.391
22692W        W87853  38.369  11.798   0.091
22693W        W87854  18.524   2.855   1.870
22694W        W87855  24.720  44.589  11.471
22695W        W87856   9.346   2.381  11.636
22696W        W87857  19.569  21.908  12.153
22697W        W87858  30.563  11.354   2.757
22698W        W87859  22.689   8.772  13.798
22699W        W87860  30.837  26.122  13.427
22700W        W87861  37.148  28.136  13.750
22701W        W87862  40.283  41.300  10.767
22702W        W87863   5.177  10.180  14.996
22703W        W87864  21.498  24.267  11.636
22704W        W87865  35.546  33.649  11.007
22705W        W87866  35.201  27.140  10.836
22706W        W87867  31.738   4.694  12.438
22707W        W87868   7.906  16.758  14.078
22708W        W87869   1.442   1.379   3.261
22709W        W87870  38.402  15.537  13.060
22710W        W87871  20.313   7.805   4.514
22711W        W87872  42.274   5.325   0.218
22712W        W87873   1.565   4.393   0.785
22713W        W87874  26.983  40.966  11.672
22714W        W87875  11.669  40.233  13.993
22715W        W87876   0.363   3.043  13.863
22716W        W87877  11.905  41.463  12.003
22717W        W87878  28.882  42.888   0.476
22718W        W87879  20.750  34.417  10.684
22719W        W87880  39.936  21.387  11.086
22720W        W87881  36.025  36.303   0.990
22721W        W87882  38.391  39.442  12.970
22722W        W87883  13.200  23.626  11.191
22723W        W87884  35.292   8.807  13.075
22724W        W87885  38.064  28.243   2.934
22725W        W87886  38.849  32.446   2.333
22726W        W87887  15.636  21.189   0.733
22727W        W87888  44.619  26.779   4.165
22728W        W87889  44.433  28.136  13.347
22729W        W87890  11.960  10.675   0.774
22730W        W87891  14.829  37.950   0.255
22731W        W87892  18.189  16.763   1.723
22732W        W87893  15.292   7.327   2.196
22733W        W87894  29.418  15.231   0.361
22734W        W87895  23.932  25.535   2.316
22735W        W87896  32.909  11.332   4.116
22736W        W87897  12.961  31.006   1.021
22737W        W87898  23.049  25.022   3.255
22738W        W87899   3.897   2.385   2.063
22739W        W87900   4.073  32.912  14.913
22740W        W87901  38.520  16.793  14.758
22741W        W87902  26.367   3.307   1.661
22742W        W87903  13.815   4.824  11.593
22743W        W87904  21.617  11.857  11.017
22744W        W87905  43.287  28.984   4.306
22745W        W87906   4.260  34.522   2.073
22746W        W87907  24.286  18.658   4.983
22747W        W87908   0.970   2.955  11.973
22748W        W87909  27.769  22.623   2.491
22749W        W87910   6.809  19.880  13.063
22750W        W87911  39.341   8.708   1.985
22751W        W87912   3.280  26.676   0.074
22752W        W87913  10.464  34.453  14.398
22753W        W87914  36.294  24.138   4.752
22754W        W87915   0.856   2.875  13.887
22755W        W87916  39.943  10.249   0.932
22756W        W87917   8.732   9.363   4.171
22757W        W87918  12.080  23.472  14.051
22758W        W87919  12.307   3.609   2.323
22759W        W87920   6.504   5.374   2.140
22760W        W87921  43.087  26.017  13.267
22761W        W87922  37.248  26.099   2.311
22762W        W87923  20.137  24.193   2.169
22763W        W87924  28.298  24.607   3.200
22764W        W87925   9.124  20.043  11.117
22765W        W87926  41.064   4.493   0.813
22766W        W87927  26.191   6.692  12.212
22767W        W87928  29.439   4.419  10.690
22768W        W87929  39.677  38.401   4.188
22769W        W87930  21.768   2.881  11.587
22770W        W87931  33.687   5.025  13.934
22771W        W87932  39.623  31.934   0.891
22772W        W87933  44.307  16.276  10.690
22773W        W87934  38.577   1.871  13.294
22774W        W87935   1.263  15.550   4.124
22775W        W87936  16.545  27.547  14.488
22776W        W87937   2.417  37.371   2.463
22777W        W87938  39.042  27.901   0.106
22778W        W87939  28.162  40.041  14.848
22779W        W87940  31.915   5.153   1.048
22780W        W87941  32.219  11.160   1.374
22781W        W87942  11.766  28.186  13.514
22782W        W87943  41.816  18.630   0.939
22783W        W87944  30.916  10.770  14.849
22784W        W87945  39.904   7.316   4.191
22785W        W87946  25.588  37.322   5.327
22786W        W87947   9.116   0.961   4.773
22787W        W87948  31.999  13.346   4.024
22788W        W87949  12.868  16.006  12.030
22789W        W87950  20.541   5.627  13.070
22790W        W87951  41.803  37.821  12.080
22791W        W87952  31.781  28.052  12.203
22792W        W87953   1.989   0.415  11.603
22793W        W87954   5.727  32.924  12.992
22794W        W87955  14.955  32.891   4.656
22795W        W87956  19.740  29.669   4.140
22796W        W87957   6.774  43.443   4.597
22797W        W87958  26.646  42.842  13.629
22798W        W87959   3.956  33.642   3.665
22799W        W87960  18.655   2.303  11.590
22800W        W87961  17.795  41.761  13.068
22801W        W87962  38.821   5.228  14.406
22802W        W87963   9.143  12.967  12.016
22803W        W87964  25.220  12.552   3.429
22804W        W87965  22.595  23.685  10.646
22805W        W87966  16.233  22.120  14.851
22806W        W87967  37.947  27.622  12.463
22807W        W87968  26.813  26.546   1.346
22808W        W87969  28.034   4.812  10.427
22809W        W87970  34.931  11.159  13.329
22810W        W87971  34.518  25.777   0.756
22811W        W87972  19.971   9.249   1.598
22812W        W87973  14.175  38.691  13.174
22813W        W87974  27.549  23.362   4.518
22814W        W87975  14.687   2.539  13.997
22815W        W87976   3.464  11.890   4.261
22816W        W87977  29.077  11.887   2.741
22817W        W87978  20.946   6.776   3.194
22818W        W87979   1.285  19.185   4.432
22819W        W87980  20.251  11.620  10.994
22820W        W87981  36.059  22.908  14.592
22821W        W87982  37.690  27.005   4.239
22822W        W87983  27.433  11.057  12.117
22823W        W87984   4.719   3.476   4.159
22824W        W87985  28.041  24.077   4.928
22825W        W87986  43.447  11.666   0.674
22826W        W87987  44.375   2.178  13.969
22827W        W87988  18.649   2.824  12.712
22828W        W87989  16.052  26.668   3.525
22829W        W87990  32.755  39.045   2.825
22830W        W87991  14.594   8.431   1.754
22831W        W87992  33.853   2.656  12.317
22832W        W87993   3.234  31.646   0.884
22833W        W87994   8.201   4.915   4.878
22834W        W87995  36.088  18.723   4.192
22835W        W87996  36.745   0.273   2.749
22836W        W87997  15.110  31.336   3.636
22837W        W87998  32.413  27.494   1.763
22838W        W87999  21.519   4.458   3.916
22839W        W88000  23.278  36.951   1.848
22840W        W88001  10.931   3.038   4.147
22841W        W88002  24.937  14.836   3.776
22842W        W88003  44.322  39.191   1.031
22843W        W88004   1.714  12.064  12.423
22844W        W88005  18.285  21.254  10.782
22845W        W88006  10.370  37.562  13.413
22846W        W88007  25.477  37.971   3.175
22847W        W88008  44.355  41.500  13.022
22848W        W88009   8.690  21.086  10.840
22849W        W88010  14.045  14.648  10.631
22850W        W88011  24.048  27.908  11.082
22851W        W88012  24.282  33.414  13.909
22852W        W88013  36.093  44.973  13.393
22853W        W88014  38.014  40.683   2.856
22854W        W88015  40.531   3.223   1.009
22855W        W88016  28.048   3.655  11.440
22856W        W88017  35.514  41.437   4.361
22857W        W88018  38.914  28.186  13.305
22858W        W88019  37.369  35.379  12.907
22859W        W88020   6.456  25.116  10.618
22860W        W88021  28.458  39.399   0.920
22861W        W88022  18.895  39.310   4.982
22862W        W88023  44.913   1.100  12.123
22863W        W88024   8.370   3.562   0.713
22864W        W88025  38.617  24.469   0.824
22865W        W88026  25.623  22.197   3.190
22866W        W88027  23.084  23.753   0.675
22867W        W88028  33.049   8.491   4.092
22868W        W88029  33.184  12.761   2.855
22869W        W88030  16.700   5.978   2.405
22870W        W88031  17.008  33.572  12.539
22871W        W88032   1.490  15.861  11.181
22872W        W88033  15.190  28.043   0.358
22873W        W88034  27.098  42.938  10.763
22874W        W88035  28.104  10.775   1.978
22875W        W88036   1.874  18.814  14.032
22876W        W88037  27.667  44.535   2.513
22877W        W88038  19.405  21.216  10.232
22878W        W88039  27.200  39.903  10.108
22879W        W88040  21.460  34.072   4.870
22880W        W88041  34.137   2.311   1.607
22881W        W88042  23.716   4.426  12.113
22882W        W88043  27.670  39.970  14.037
22883W        W88044   2.886  24.139   3.614
22884W        W88045  31.209  44.372  11.948
22885W        W88046  38.080   0.002  13.493
22886W        W88047  36.548  37.137   3.028
22887W        W88048  35.417  31.907   4.949
22888W        W88049   9.331   3.560   4.177
22889W        W88050   3.993  41.977  12.573
22890W        W88051   7.881  34.913   4.562
22891W        W88052  28.392  24.951  11.153
22892W        W88053  41.770  30.929  13.961
22893W        W88054  36.034  25.004   0.498
22894W        W88055  14.437  43.784   0.478
22895W        W88056   2.394  24.231   1.453
22896W        W88057  15.173  29.456   1.462
22897W        W88058  14.055  27.470  14.807
22898W        W88059  36.855  20.835   1.834
22899W        W88060  15.299   2.335  14.765
22900W        W88061  18.234   9.562  12.006
22901W        W88062  27.400  26.846  12.607
22902W        W88063  29.437  22.766  14.729
22903W        W88064  36.816   1.691  11.413
22904W        W88065   5.288  42.899  10.132
22905W        W88066  44.956  17.664  10.643
22906W        W88067  38.251  13.647  11.545
22907W        W88068   2.985  28.079   0.173
22908W        W88069  33.171   2.226  12.523
22909W        W88070  12.871  43.840  10.626
22910W        W88071   4.321  28.470  14.325
22911W        W88072  28.219  10.340  12.013
22912W        W88073   0.579  28.770  12.070
22913W        W88074  38.375  11.797   1.844
22914W        W88075  23.215   8.762  12.996
22915W        W88076   6.001   1.769   2.917
22916W        W88077   1.022  10.404  11.043
22917W        W88078   8.166  33.964  12.948
22918W        W88079   4.039  21.267  10.881
22919W        W88080   2.926  20.482   3.499
22920W        W88081   1.326  37.782  14.370
22921W        W88082   8.951   0.923  11.102
22922W        W88083  38.374   5.232  10.525
22923W        W88084  42.941  24.588   2.276
22924W        W88085  38.036  29.969  12.007
22925W        W88086  32.324  39.551   2.268
22926W        W88087  30.005  27.170   1.847
22927W        W88088  28.123  11.773  13.363
22928W        W88089   5.642  12.901  10.552
22929W        W88090   8.214  18.766   4.218
22930W        W88091  20.105  41.714  12.155
22931W        W88092  26.412   8.246   3.131
22932W        W88093  23.272  11.334   2.888
22933W        W88094  11.189  14.976   4.239
22934W        W88095  35.976  24.948   3.888
22935W        W88096  26.563  27.188  13.794
22936W        W88097   1.237  17.296  13.925
22937W        W88098  35.559  18.095   0.358
22938W        W88099  14.013  29.499   5.033
22939W        W88100  31.023  37.927   4.102
22940W        W88101  37.253  14.968  14.391
22941W        W88102  27.694  22.739  11.077
22942W        W88103  40.758  42.068  13.486
22943W        W88104  25.244  19.380  13.619
22944W        W88105  34.986  29.188  11.960
22945W        W88106   4.900  19.019  12.935
22946W        W88107  11.408  19.187   3.229
22947W        W88108  15.346  43.723  13.509
22948W        W88109  12.745  40.402  14.288
22949W        W88110  39.270  26.245  14.233
22950W        W88111  21.304  17.313   4.990
22951W        W88112  32.697  22.001  11.034
22952W        W88113   5.810  24.995   2.427
22953W        W88114  18.481  27.615  12.592
22954W        W88115   5.863  27.266   4.712
22955W        W88116  21.038  44.927  13.969
22956W        W88117  39.998  36.153   4.505
22957W        W88118  29.924   6.789  14.130
22958W        W88119  18.342  30.954  12.446
22959W        W88120  31.494  42.683  13.804
22960W        W88121  32.658   9.417  12.038
22961W        W88122  29.991  25.627   0.660
22962W        W88123  33.202  12.631   4.085
22963W        W88124  34.964  23.216  10.778
22964W        W88125  31.740   3.836   3.121
22965W        W88126  35.903   1.289  13.086
22966W        W88127  28.026   0.312   3.334
22967W        W88128  37.870  19.705  12.007
22968W        W88129  39.579   3.138  10.415
22969W        W88130  32.913  13.076   0.675
22970W        W88131  23.602  39.540   3.783
22971W        W88132  22.167  29.209  10.711
22972W        W88133  20.081  15.687   0.405
22973W        W88134  44.368  10.845  11.175
22974W        W88135  22.506  13.111   0.774
22975W        W88136  27.673  14.823   4.051
22976W        W88137  21.664  44.374   1.404
22977W        W88138  22.615  34.114   3.204
22978W        W88139   0.365  39.809   2.708
22979W        W88140  16.458  44.786   4.505
22980W        W88141  18.634   5.140  12.704
22981W        W88142   8.441  35.174   0.079
22982W        W88143   7.876  27.495   3.768
22983W        W88144  39.290  29.438  10.757
22984W        W88145  33.571  10.285  10.947
22985W        W88146  18.026   1.605   0.438
22986W        W88147  14.870  37.298   4.173
22987W        W88148  44.450   6.827  11.145
22988W        W88149  22.122  41.912   3.248
22989W        W88150  38.772   8.125   3.192
22990W        W88151   6.542  44.359  13.378
22991W        W88152  30.972  20.997   4.570
22992W        W88153   4.833  22.953   2.698
22993W        W88154   2.181  13.223  11.165
22994W        W88155  25.452  32.058  12.505
22995W        W88156  25.684  39.503   2.339
22996W        W88157  12.771  11.167   0.797
22997W        W88158  39.545  32.171   3.209
22998W        W88159  18.020  43.032  14.693
22999W        W88160   5.644   8.380  13.237
23000W        W88161   1.114  19.635  13.854
23001W        W88162  37.229  13.665   4.840
23002W        W88163  33.596  43.980  13.796
23003W        W88164  17.214  35.927   0.316
23004W        W88165   2.838  11.236  13.601
23005W        W88166  31.976  10.961  11.534
23006W        W88167   4.809  33.071  12.616
23007W        W88168  16.679   9.425  13.440
23008W        W88169   5.425  43.066  12.045
23009W        W88170  24.521   8.188   0.780
23010W        W88171  37.021  40.768  10.297
23011W        W88172  25.605   9.406   9.789
23012W        W88173  22.553  26.717  11.669
23013W        W88174  44.398  20.497   4.723
23014W        W88175   0.341  17.055   1.732
23015W        W88176   3.427  11.250   2.801
23016W        W88177  22.223  17.348   1.275
23017W        W88178  30.515  20.686   0.774
23018W        W88179  43.070  42.574   1.890
23019W        W88180   8.277  24.616   1.361
23020W        W88181  14.801  16.686  13.802
23021W        W88182  35.118  29.550   1.373
23022W        W88183  44.632  42.371   4.738
23023W        W88184   0.433  38.374  13.577
23024W        W88185  21.233  42.859  12.780
23025W        W88186  38.668  23.954  10.795
23026W        W88187  39.292  26.911  14.778
23027W        W88188   7.566  11.638   1.832
23028W        W88189  38.182  34.501  12.911
23029W        W88190   4.228   6.399  11.918
23030W        W88191  31.984  18.263  10.304
23031W        W88192  18.796  10.435  11.236
23032W        W88193  14.336  39.395   9.821
23033W        W88194  41.506   5.661  12.481
23034W        W88195  21.764  19.768  11.826
23035W        W88196   2.459  41.776  13.230
23036W        W88197  12.483  44.686  11.961
23037W        W88198  42.953  19.523  12.990
23038W        W88199  38.986  44.005   3.248
23039W        W88200   7.291  36.277   1.452
23040W        W88201  10.677  28.922   4.410
23041W        W88202  13.341  20.681   1.983
23042W        W88203  24.247   2.853  11.662
23043W        W88204  40.431  14.098   0.867
23044W        W88205  32.756  36.000   3.055
23045W        W88206  32.701  43.804  13.250
23046W        W88207  21.975  11.710   2.439
23047W        W88208  40.597  22.339   4.883
23048W        W88209  31.783  44.037  11.713
23049W        W88210   3.041  36.781   3.692
23050W        W88211  10.291  15.189  14.019
23051W        W88212  30.838  38.559   2.824
23052W        W88213  42.386  23.566   0.004
23053W        W88214  28.463  25.129  14.504
23054W        W88215  16.058  43.197  13.874
23055W        W88216  10.631  44.954   4.511
23056W        W88217  41.863   5.700  12.088
23057W        W88218  20.321   6.159   2.507
23058W        W88219   1.306  19.742   2.327
23059W        W88220  38.034   8.832  10.835
23060W        W88221  22.173  25.614   1.853
23061W        W88222  16.953  15.598   4.472
23062W        W88223  24.516  27.182  14.880
23063W        W88224  21.069  25.168  12.541
23064W        W88225  34.518  19.366   1.280
23065W        W88226  27.466  28.885  12.086
23066W        W88227  35.129   4.871  13.374
23067W        W88228  22.982   4.352   1.175
23068W        W88229   9.938  10.449   1.028
23069W        W88230  14.327  29.071  12.150
23070W        W88231  18.110  37.108   1.591
23071W        W88232  20.618  38.850  11.076
23072W        W88233  13.774   8.313  10.785
23073W        W88234  14.690   5.820   4.880
23074W        W88235  21.762  35.892   3.328
23075W        W88236   2.348  26.766   0.507
23076W        W88237  34.069   7.314   0.844
23077W        W88238  35.042  16.909  13.404
23078W        W88239  22.762  18.351  13.859
23079W        W88240   1.281  18.353   0.771
23080W        W88241  19.687   7.150   3.659
23081W        W88242  40.781  22.509  12.233
23082W        W88243  36.159  38.848   1.937
23083W        W88244  21.047  23.779  14.024
23084W        W88245  30.043   4.848  13.952
23085W        W88246  40.474  34.962   0.389
23086W        W88247  35.560   7.829   1.261
23087W        W88248  42.163  17.657  11.093
23088W        W88249  39.314  16.619   3.357
23089W        W88250  25.412  13.708  12.991
23090W        W88251  12.794  19.298   3.073
23091W        W88252   8.931  22.348   1.599
23092W        W88253  25.305  42.244  12.478
23093W        W88254  16.657  43.924  11.544
23094W        W88255  26.959  33.937   4.208
23095W        W88256  18.896  39.194   1.646
23096W        W88257  33.535   0.604  10.693
23097W        W88258  35.593  38.095  11.465
23098W        W88259  17.522   0.584   0.416
23099W        W88260  24.147  36.814  10.163
23100W        W88261   3.965  25.000   2.211
23101W        W88262  23.627  32.321  13.545
23102W        W88263  17.046  13.780   2.430
23103W        W88264  20.319   1.236  14.381
23104W        W88265   2.681  42.398  12.444
23105W        W88266  40.463  26.103  11.920
23106W        W88267  39.306  34.630  12.571
23107W        W88268  22.249  12.108   2.211
23108W        W88269  19.625  39.580   2.709
23109W        W88270  19.681   4.727   0.796
23110W        W88271  40.629  11.227  10.805
23111W        W88272  40.513   3.841  13.586
23112W        W88273   4.198   3.461  10.166
23113W        W88274  20.694  23.630  10.721
23114W        W88275   7.333  11.609   0.724
23115W        W88276   9.685  41.027  11.521
23116W        W88277  35.880  26.495   2.741
23117W        W88278  24.546  15.005  14.220
23118W        W88279  12.613  26.506  13.760
23119W        W88280  30.190  33.613   3.191
23120W        W88281  34.383   6.936   4.067
23121W        W88282  20.793   7.821   3.281
23122W        W88283  17.607  33.082   2.295
23123W        W88284  19.592  27.714  11.572
23124W        W88285  24.028  39.246   1.364
23125W        W88286  29.053  28.475  11.529
23126W        W88287  41.338   5.764   0.500
23127W        W88288  21.193  26.032  11.192
23128W        W88289   9.724  27.378   2.207
23129W        W88290  15.466  40.345   2.600
23130W        W88291   4.990  10.827   1.278
23131W        W88292  21.120  11.337  10.697
23132W        W88293  43.268   8.194   3.939
23133W        W88294   5.347  44.693   3.220
23134W        W88295   5.718  20.542  13.630
23135W        W88296  26.191  25.624   2.049
23136W        W88297   1.448  23.510   2.393
23137W        W88298  19.286  17.075   0.737
23138W        W88299  14.098  36.874   2.933
23139W        W88300  12.872  36.132   4.217
23140W        W88301   4.890  42.714  14.852
23141W        W88302  13.170  11.645   1.457
23142W        W88303  30.440  23.779  14.053
23143W        W88304  17.551  24.524  14.004
23144W        W88305  24.231  24.021   0.423
23145W        W88306  18.203  17.489   2.761
23146W        W88307  10.241   6.624   0.586
23147W        W88308  43.828   8.777   3.700
23148W        W88309  43.865   1.433   4.626
23149W        W88310   2.673  42.490  10.513
23150W        W88311  25.192  28.814  13.072
23151W        W88312  32.059  19.003  12.138
23152W        W88313   1.106  37.494  10.682
23153W        W88314   8.885  31.624   3.720
23154W        W88315   0.861  19.730   3.522
23155W        W88316  35.998  27.673   0.944
23156W        W88317   1.834  25.658  12.824
23157W        W88318   2.317  40.933  11.462
23158W        W88319  11.920  11.908  12.460
23159W        W88320  10.649  34.448  11.477
23160W        W88321  37.992  13.685   2.955
23161W        W88322  30.915  21.528   0.178
23162W        W88323   2.321   1.783   1.653
23163W        W88324   3.329   6.781   4.347
23164W        W88325  43.919  40.047   3.833
23165W        W88326  37.402  42.690  14.225
23166W        W88327  17.078  36.054  13.250
23167W        W88328  15.532   1.875   4.519
23168W        W88329  17.335  31.369  11.686
23169W        W88330   8.377   5.357   2.251
23170W        W88331   5.746  15.350  11.655
23171W        W88332  18.690  29.628  12.429
23172W        W88333  24.555  26.528   1.255
23173W        W88334   3.161  26.839   2.294
23174W        W88335  22.768   0.615  14.382
23175W        W88336  43.825  23.142   2.903
23176W        W88337  41.640  26.005  13.459
23177W        W88338   6.562   9.686  13.897
23178W        W88339  44.421  33.125   0.832
23179W        W88340   0.389  27.469  14.502
23180W        W88341  16.636   6.185   4.670
23181W        W88342  36.839  23.241   3.428
23182W        W88343  16.736   6.710  14.151
23183W        W88344   8.846  38.486   2.611
23184W        W88345   8.161  35.853   4.150
23185W        W88346  15.517  13.260  14.421
23186W        W88347  26.064  32.502   0.969
23187W        W88348  19.339   0.829   1.032
23188W        W88349   0.918  13.694  14.323
23189W        W88350  26.961  35.390  13.888
23190W        W88351  34.376   0.262   2.701
23191W        W88352  36.980  35.043  13.081
23192W        W88353  17.633  12.355   3.135
23193W        W88354  39.910  22.544   4.821
23194W        W88355  31.372  13.558  11.160
23195W        W88356  16.220  19.227  14.341
23196W        W88357   1.975  12.294  12.039
23197W        W88358   2.729   1.862   0.697
23198W        W88359  23.617  25.198  11.176
23199W        W88360  37.634  19.636  13.942
23200W        W88361  38.443  36.080  10.904
23201W        W88362  26.275   3.383  13.881
23202W        W88363  33.111  29.721   4.972
23203W        W88364  38.544  42.503   0.287
23204W        W88365  14.019  28.920  13.927
23205W        W88366  28.715  27.503  14.885
23206W        W88367  29.948  32.520   1.142
23207W        W88368  16.058  16.206  12.576
23208W        W88369  44.149  24.210  12.908
23209W        W88370   7.401  13.853  10.702
23210W        W88371  17.139  37.887   1.487
23211W        W88372  14.888  32.002   1.354
23212W        W88373  18.485   2.835  10.690
23213W        W88374   0.366  41.098   0.394
23214W        W88375   1.518  26.539   0.771
23215W        W88376   5.532   7.344  12.489
23216W        W88377   3.629  29.506   1.972
23217W        W88378  11.272  35.339   4.231
23218W        W88379  12.942  13.822   3.153
23219W        W88380  28.409  27.781   4.137
23220W        W88381   6.776   1.184  12.905
23221W        W88382  10.035  12.509   1.453
23222W        W88383  39.397  23.981  13.241
23223W        W88384  37.923   7.494  11.121
23224W        W88385   5.222   5.034  11.586
23225W        W88386  23.980  43.413   0.424
23226W        W88387  16.241  24.073  10.636
23227W        W88388   4.285  43.993  11.367
23228W        W88389  16.251  21.467  11.606
23229W        W88390  18.634  26.048   0.636
23230W        W88391  34.666  34.566   3.707
23231W        W88392  10.624   0.829   2.692
23232W        W88393   9.925  42.462   2.248
23233W        W88394  35.175  28.656  14.836
23234W        W88395  20.960  43.843  14.825
23235W        W88396  23.788   8.788  13.869
23236W        W88397  20.822  28.982  14.293
23237W        W88398   7.246   1.537   1.298
23238W        W88399  44.908  20.164   0.015
23239W        W88400  41.327  10.442   9.818
23240W        W88401  18.915  26.140   3.179
23241W        W88402   9.916  20.184  10.574
23242W        W88403   9.654  20.713  14.017
23243W        W88404  21.185   3.893  13.304
23244W        W88405  35.629  41.224  12.963
23245W        W88406  33.490  30.724   4.160
23246W        W88407   4.426  12.849   2.311
23247W        W88408  13.887   7.976   3.839
23248W        W88409  10.169  42.813  11.967
23249W        W88410  20.546   2.799   4.953
23250W        W88411  37.554  35.626  11.892
23251W        W88412  29.460   1.040  14.320
23252W        W88413   7.762  37.926   4.140
23253W        W88414  16.515  44.601   9.831
23254W        W88415  19.014   1.708   1.754
23255W        W88416  32.489  24.459  10.637
23256W        W88417  31.884  13.090  11.057
23257W        W88418  43.406  32.289  13.793
23258W        W88419  36.901   0.838  11.387
23259W        W88420  36.116  43.807  12.600
23260W        W88421  27.613   4.461   2.169
23261W        W88422  16.134  29.564   3.139
23262W        W88423  22.546  17.070   1.905
23263W        W88424   0.859  10.065  11.422
23264W        W88425  35.922  31.035  11.390
23265W        W88426  28.687  19.590   3.249
23266W        W88427  19.010  12.150   3.258
23267W        W88428   7.173  44.492   2.001
23268W        W88429  15.834  33.458  14.822
23269W        W88430   8.765  12.126  12.129
23270W        W88431  22.809  14.172  10.559
23271W        W88432   4.194  15.025   2.804
23272W        W88433  39.401  26.108   2.304
23273W        W88434  14.123  37.048   3.463
23274W        W88435  21.783  29.023   1.841
23275W        W88436  23.259  40.766   3.369
23276W        W88437  26.918   6.825   2.400
23277W        W88438  29.586  33.050   0.423
23278W        W88439   7.204  14.140  13.794
23279W        W88440  41.753  12.764   3.796
23280W        W88441  40.794  39.758   0.246
23281W        W88442  40.840  44.199   3.760
23282W        W88443  29.993  39.926  13.479
23283W        W88444   9.655   6.185  13.561
23284W        W88445  32.526  34.957   4.211
23285W        W88446  39.913  18.686   3.343
23286W        W88447  23.943  15.662  14.756
23287W        W88448  39.207  17.741  11.156
23288W        W88449  30.463  15.391   3.765
23289W        W88450  21.507  40.033  10.103
23290W        W88451  13.147   1.671  13.484
23291W        W88452  28.535  41.906   0.017
23292W        W88453  41.929  17.511  10.647
23293W        W88454  43.557  24.343   4.899
23294W        W88455   0.408  41.262   3.705
23295W        W88456  30.062  20.141   3.741
23296W        W88457  32.943  16.368  14.171
23297W        W88458  18.961  30.531   1.517
23298W        W88459  10.944  43.379   1.498
23299W        W88460  26.473  39.203  10.404
23300W        W88461  10.970   0.183  12.455
23301W        W88462  38.365   2.162   2.696
23302W        W88463  19.725  33.819  13.755
23303W        W88464  34.559  33.145  10.649
23304W        W88465  19.611  18.040   2.943
23305W        W88466  24.843  19.504   4.055
23306W        W88467  36.793  32.413   1.227
23307W        W88468  10.726  42.054  11.993
23308W        W88469   2.526   7.193  10.352
23309W        W88470  35.534  44.058   4.095
23310W        W88471  33.568  32.142   1.853
23311W        W88472  22.559  24.474   1.751
23312W        W88473  27.814   1.856  12.434
23313W        W88474  14.602  28.081   0.445
23314W        W88475  11.224  16.330   4.102
23315W        W88476  24.196  35.448   3.768
23316W        W88477   6.259  42.061  12.625
23317W        W88478  15.837  11.542  12.040
23318W        W88479  28.972  38.000   4.703
23319W        W88480  33.135  41.681  11.044
23320W        W88481  16.790   6.768   1.140
23321W        W88482  40.910  34.786  14.326
23322W        W88483  26.422   3.813  14.535
23323W        W88484  22.398  11.474   2.250
23324W        W88485  27.975  25.592  13.805
23325W        W88486  33.082   0.215  12.516
23326W        W88487  43.963  35.638  12.183
23327W        W88488  33.722  10.986   2.386
23328W        W88489  42.156   8.336   0.887
23329W        W88490  16.567  20.034   1.175
23330W        W88491  42.359  34.227  14.690
23331W        W88492  14.105  17.585   4.191
23332W        W88493  34.708  17.499  13.034
23333W        W88494  16.345   9.834  12.146
23334W        W88495  41.413  26.454  13.119
23335W        W88496  18.541  28.494   2.775
23336W        W88497  16.197  24.940   3.157
23337W        W88498  32.173   0.839  10.568
23338W        W88499   3.698  29.821   2.398
23339W        W88500  27.528  41.986   2.682
23340W        W88501   8.691  12.347  14.311
23341W        W88502  41.998   4.919   4.146
23342W        W88503   7.343  15.398   0.751
23343W        W88504  41.922  40.326  11.261
23344W        W88505  23.825  12.603  13.831
23345W        W88506  23.436  41.393  11.158
23346W        W88507   5.704  15.216  14.422
23347W        W88508  22.528  33.722   5.045
23348W        W88509  19.681  43.750  14.611
23349W        W88510  11.070  38.991   2.887
23350W        W88511  36.782  43.483   4.454
23351W        W88512  13.599  34.327   1.804
23352W        W88513  33.532  39.260  13.984
23353W        W88514   8.857   5.592   2.310
23354W        W88515   3.710   1.412  14.329
23355W        W88516  34.619  14.138   1.073
23356W        W88517  37.480  23.596  14.830
23357W        W88518  12.979  44.401  12.782
23358W        W88519  42.971   3.724   2.986
23359W        W88520   1.400   0.527   4.223
23360W        W88521  13.312  12.105   2.412
23361W        W88522   1.311   6.928  11.911
23362W        W88523  26.552  18.805   1.261
23363W        W88524  24.525   1.930   5.110
23364W        W88525  34.800  42.146   2.293
23365W        W88526  44.309  34.085   4.244
23366W        W88527  38.988   6.573  11.941
23367W        W88528  24.022  39.238  14.925
23368W        W88529  14.310  13.116  14.841
23369W        W88530  33.485  12.746   3.277
23370W        W88531   6.190  35.933   4.153
23371W        W88532  11.880  39.081  13.351
23372W        W88533   1.535  31.064  14.565
23373W        W88534  17.166  38.734   0.391
23374W        W88535  37.802  40.845   4.584
23375W        W88536  43.877  38.987  10.669
23376W        W88537  15.262   5.812   0.194
23377W        W88538   9.137  44.534  14.768
23378W        W88539  25.643  13.125  14.484
23379W        W88540   7.168  19.318   2.420
23380W        W88541  21.650  31.686  14.998
23381W        W88542  19.272  36.265   2.299
23382W        W88543  16.251  43.583  13.516
23383W        W88544   6.864  29.955  10.802
23384W        W88545  18.491   9.884   2.349
23385W        W88546  28.427  11.806   0.354
23386W        W88547  15.861  30.202   0.290
23387W        W88548  35.895  41.114  14.188
23388W        W88549  22.132  34.625   1.726
23389W        W88550   9.874   6.693   4.123
23390W        W88551  23.717  31.038  13.931
23391W        W88552  24.872  36.828   4.318
23392W        W88553  39.063   0.853   0.206
23393W        W88554   5.709  39.114   1.419
23394W        W88555  39.314  29.980  13.324
23395W        W88556  21.969   4.641   4.104
23396W        W88557  29.955  44.087  14.604
23397W        W88558  24.774  32.197   0.345
23398W        W88559  13.754   9.327  10.701
23399W        W88560  33.844  37.538   1.782
23400W        W88561  18.873  15.142  12.931
23401W        W88562  17.988  10.850   0.040
23402W        W88563  39.309  26.476   2.758
23403W        W88564  15.190   8.200   0.848
23404W        W88565  31.851  40.462   2.401
23405W        W88566   0.847  10.226   3.609
23406W        W88567  35.867  44.676   0.713
23407W        W88568  24.544  10.175   3.301
23408W        W88569  29.183  26.249   0.460
23409W        W88570  29.091  40.048  13.090
23410W        W88571  26.748   4.425   1.004
23411W        W88572  12.878  23.685   0.420
23412W        W88573  28.700  28.008  13.475
23413W        W88574  27.099   3.314   0.528
23414W        W88575  38.305   2.169   1.275
23415W        W88576  16.100  13.789   3.623
23416W        W88577  16.667  30.793   1.583
23417W        W88578   5.375  32.965  11.455
23418W        W88579  43.080  26.203   2.766
23419W        W88580   3.258  23.472  14.377
23420W        W88581   2.552  27.953   9.900
23421W        W88582  21.248  37.691  10.188
23422W        W88583  32.925   0.694  13.848
23423W        W88584   1.741  10.405  12.378
23424W        W88585  21.916  27.792  11.605
23425W        W88586   1.325   1.266  11.541
23426W        W88587  30.915  37.743  10.750
23427W        W88588  13.017  39.757  12.484
23428W        W88589  39.557  16.053  12.012
23429W        W88590  11.616  28.392   1.907
23430W        W88591  26.267   5.406  14.876
23431W        W88592  13.239  29.699   3.615
23432W        W88593  36.805   1.498  13.135
23433W        W88594   0.874   4.798   2.514
23434W        W88595  11.117  29.619  12.886
23435W        W88596   3.889   0.737   9.937
23436W        W88597  36.946  42.991   0.087
23437W        W88598  25.527  16.045  12.002
23438W        W88599  31.020  35.057   4.625
23439W        W88600  22.586  13.724  12.283
23440W        W88601  12.757  25.443  13.470
23441W        W88602  38.782   7.591   0.400
23442W        W88603  29.216  29.625   4.608
23443W        W88604  14.194  41.201  10.176
23444W        W88605  16.715  43.160  10.624
23445W        W88606  11.640  11.943  10.819
23446W        W88607  28.055  28.510  12.519
23447W        W88608  37.944  10.941  14.995
23448W        W88609  39.008  21.688  13.439
23449W        W88610  12.145   9.170   3.951
23450W        W88611  14.774  15.669  11.426
23451W        W88612   4.346  30.497   3.250
23452W        W88613  38.494  18.049   2.206
23453W        W88614  35.462   6.059   0.506
23454W        W88615  16.262  10.261  11.847
23455W        W88616  11.630  41.040  11.789
23456W        W88617  40.995   8.700   3.494
23457W        W88618  23.126  40.372   0.885
23458W        W88619  10.119  42.326  12.542
23459W        W88620  33.717  40.936  11.977
23460W        W88621  41.980  18.024  10.656
23461W        W88622   3.919  17.591  12.896
23462W        W88623  41.214  44.806   0.226
23463W        W88624  27.128  26.939   1.362
23464W        W88625  24.091   8.008  14.778
23465W        W88626   8.324  11.467   3.364
23466W        W88627  44.166  13.267   1.016
23467W        W88628   1.181  39.024  14.226
23468W        W88629  29.932   0.883  14.481
23469W        W88630  37.957  41.029   1.263
23470W        W88631   5.341  41.409  14.873
23471W        W88632  38.769   0.412   4.141
23472W        W88633  23.656  17.122   4.922
23473W        W88634  12.984   9.153  11.170
23474W        W88635  37.532  12.866   0.922
23475W        W88636  33.804   9.373   2.290
23476W        W88637  32.045  16.185   2.920
23477W        W88638  23.984  18.547  10.812
23478W        W88639   4.674  32.554   2.317
23479W        W88640   8.169   6.281   1.218
23480W        W88641  33.394  40.268   2.473
23481W        W88642  11.332  31.652  12.069
23482W        W88643  21.604  39.330   1.871
23483W        W88644  18.886  18.855   1.783
23484W        W88645  39.593  43.532   2.291
23485W        W88646   1.323   5.890   2.795
23486W        W88647  30.532  13.207  11.529
23487W        W88648  44.720   0.195  12.287
23488W        W88649   3.300  12.867   0.884
23489W        W88650   6.884   1.896  12.085
23490W        W88651  27.898  43.721   2.799
23491W        W88652   2.899  24.177   0.877
23492W        W88653  10.801   8.801   1.849
23493W        W88654  28.508  28.612  14.332
23494W        W88655   8.755  28.049   4.642
23495W        W88656  39.004   7.989   1.356
23496W        W88657  27.719   9.246   4.141
23497W        W88658  35.081   4.185  13.052
23498W        W88659  10.689  12.389   0.105
23499W        W88660  38.378  35.019   3.100
23500W        W88661   1.312  10.755   5.185
23501W        W88662   5.680  24.664  10.217
23502W        W88663   5.567  15.451   9.818
23503W        W88664   9.413  35.914   3.576
23504W        W88665  15.083  17.198   4.078
23505W        W88666  15.932  36.599  11.999
23506W        W88667  17.423  38.785   1.837
23507W        W88668  13.075  27.477  10.808
23508W        W88669   3.200   1.380  13.473
23509W        W88670  15.841   8.010   2.298
23510W        W88671  31.687  33.117  12.511
23511W        W88672  18.516  29.416   0.834
23512W        W88673  13.019  39.109  12.448
23513W        W88674  36.545  32.325   3.258
23514W        W88675  15.971  33.429  12.511
23515W        W88676  11.160  33.753   0.804
23516W        W88677  20.248  10.328   4.079
23517W        W88678  26.793  13.754  13.311
23518W        W88679   7.132  39.039  13.004
23519W        W88680  15.490  31.423   3.305
23520W        W88681  37.927  21.622   3.577
23521W        W88682  29.762  27.594   4.687
23522W        W88683   5.035  20.135   4.076
23523W        W88684  27.655  21.228  13.915
23524W        W88685  13.166   0.919   3.556
23525W        W88686   7.774  43.024   1.905
23526W        W88687  30.176   2.169   0.408
23527W        W88688  23.468  21.082  12.875
23528W        W88689  41.518  29.163   2.142
23529W        W88690  41.222   3.087  14.701
23530W        W88691  27.629  41.032   0.366
23531W        W88692  15.132   6.349   3.689
23532W        W88693  24.838  44.901  13.379
23533W        W88694   4.882  35.807  14.971
23534W        W88695  44.675  13.816   0.221
23535W        W88696  10.723  38.489   4.167
23536W        W88697  42.499   2.076   3.189
23537W        W88698   9.434  35.425  12.044
23538W        W88699  41.737  20.698  14.183
23539W        W88700  19.017  11.674  14.028
23540W        W88701  30.081  22.248   5.453
23541W        W88702  23.332  26.274  11.585
23542W        W88703  24.731  42.390  11.239
23543W        W88704  16.147  31.086   2.337
23544W        W88705  20.282  32.916   0.891
23545W        W88706  32.808  37.841  10.681
23546W        W88707   9.536  25.090  11.509
23547W        W88708  20.953   3.300  12.614
23548W        W88709  41.953  13.626  14.477
23549W        W88710  16.961  20.211  10.669
23550W        W88711  34.872  42.165  12.013
23551W        W88712   5.258  40.357  12.261
23552W        W88713   2.724  42.125  12.891
23553W        W88714  38.264   0.790  12.088
23554W        W88715  24.013  32.300   3.284
23555W        W88716  11.325  29.506  13.856
23556W        W88717  38.362  37.520   4.643
23557W        W88718  43.868  25.310  10.848
23558W        W88719  17.592   7.191  14.865
23559W        W88720  11.186   8.406   1.864
23560W        W88721   8.074  44.606  10.301
23561W        W88722  24.995   3.362  10.741
23562W        W88723   9.794  28.155   3.815
23563W        W88724  13.504  20.278   2.238
23564W        W88725  28.139  43.841  11.548
23565W        W88726  14.781  10.840   0.978
23566W        W88727   5.439   9.767   3.128
23567W        W88728  18.666  43.868   0.727
23568W        W88729  27.386  39.994  12.375
23569W        W88730  29.340  18.247  10.649
23570W        W88731   7.186  24.233  12.474
23571W        W88732   5.050   0.205  11.940
23572W        W88733  33.145  39.194  14.411
23573W        W88734  40.944   1.503   2.289
23574W        W88735   9.844  17.082   4.841
23575W        W88736  11.271  22.250  14.793
23576W        W88737  14.292  14.635  12.460
23577W        W88738  14.361  35.556   3.378
23578W        W88739   5.262  23.852   3.732
23579W        W88740  39.072  38.935   3.330
23580W        W88741   7.340  10.295   1.400
23581W        W88742  33.871  39.636   3.641
23582W        W88743  29.358  27.498   4.377
23583W        W88744  23.387  27.504  13.900
23584W        W88745  27.583  20.076   1.551
23585W        W88746  19.929   7.854   1.248
23586W        W88747  42.423   0.922   4.795
23587W        W88748  19.623  34.530   3.014
23588W        W88749  31.432  24.593   0.812
23589W        W88750  44.740  42.521  10.687
23590W        W88751  23.328  28.128   0.896
23591W        W88752  14.126   1.239   0.670
23592W        W88753  43.720  23.164   0.507
23593W        W88754  37.957   8.730   1.816
23594W        W88755  35.057  42.291   1.860
23595W        W88756  43.551  35.085   0.672
23596W        W88757  39.828  10.649   3.853
23597W        W88758   0.187  19.711  10.686
23598W        W88759  24.678  35.235  10.617
23599W        W88760  41.946   1.373  10.762
23600W        W88761  21.914  29.387   4.537
23601W        W88762  20.704   0.251   1.403
23602W        W88763  14.795   2.249  13.589
23603W        W88764   5.264  39.276   1.709
23604W        W88765  26.590  18.854   3.834
23605W        W88766  21.460  28.473   4.541
23606W        W88767  38.906  40.955   0.846
23607W        W88768  44.085  41.246   0.980
23608W        W88769   4.955  37.366   0.907
23609W        W88770  37.062  32.373   3.256
23610W        W88771  14.886  26.153   2.189
23611W        W88772   6.823   8.839  11.221
23612W        W88773  26.624   9.866  12.038
23613W        W88774   6.856  40.726   4.144
23614W        W88775  18.582  28.811   0.257
23615W        W88776  34.102  31.991   2.307
23616W        W88777   5.838   7.787  12.402
23617W        W88778  43.785  15.566   2.320
23618W        W88779  16.307  15.208   1.222
23619W        W88780  23.662  35.599   0.344
23620W        W88781   1.609  11.610  11.557
23621W        W88782  33.553  44.763  13.224
23622W        W88783   0.432  39.382   2.148
23623W        W88784  17.746  22.291  11.521
23624W        W88785  18.603  34.876  13.533
23625W        W88786   6.528  22.841  13.635
23626W        W88787  31.995  30.015  11.933
23627W        W88788   8.229   6.574   1.649
23628W        W88789  22.624   2.929  11.137
23629W        W88790   5.760  27.231  11.064
23630W        W88791  10.628  43.921  12.974
23631W        W88792  26.223   5.974   1.440
23632W        W88793  15.263  11.728  14.246
23633W        W88794   9.796  32.038  11.543
23634W        W88795  11.136   1.791   4.811
23635W        W88796  38.442  42.588  12.435
23636W        W88797   8.411   8.845  13.102
23637W        W88798  44.574  40.527   2.773
23638W        W88799  25.624  33.968  11.841
23639W        W88800   6.318   1.989   4.529
23640W        W88801   6.830   3.426  13.098
23641W        W88802  22.525  30.386  11.681
23642W        W88803  25.597   2.849  11.402
23643W        W88804  36.574   8.540   2.266
23644W        W88805  12.052  21.160   3.628
23645W        W88806  35.103  44.145   3.257
23646W        W88807   4.676   9.807   4.948
23647W        W88808  13.813  35.921   2.887
23648W        W88809  32.361  37.412  14.326
23649W        W88810  16.338   2.863   3.265
23650W        W88811  15.049  21.668  14.169
23651W        W88812  38.482  11.346   4.745
23652W        W88813   5.406  37.856   3.684
23653W        W88814  22.444  19.564   1.055
23654W        W88815  40.376  33.135  10.858
23655W        W88816  35.420  13.000   0.759
23656W        W88817  15.133  19.500  13.855
23657W        W88818   7.177  32.835  12.865
23658W        W88819  20.549   9.667   0.717
23659W        W88820  44.442  28.860  11.500
23660W        W88821  41.538  35.001  11.957
23661W        W88822  36.317   3.357   0.020
23662W        W88823   4.184  42.384  12.301
23663W        W88824  25.117   4.906  12.571
23664W        W88825  14.122  28.229   2.842
23665W        W88826  15.271  31.445   0.755
23666W        W88827   1.410  25.632   4.543
23667W        W88828  26.998  32.894   1.765
23668W        W88829   9.219  38.581  10.649
23669W        W88830  26.894  11.928   2.289
23670W        W88831  31.417  39.437   2.270
23671W        W88832  10.818  23.519   1.807
23672W        W88833  10.815  15.098  10.714
23673W        W88834  31.363  31.073  14.801
23674W        W88835  37.087  20.211   3.297
23675W        W88836  34.516   4.060  13.708
23676W        W88837  15.635  35.672   2.661
23677W        W88838  14.104   1.784   0.671
23678W        W88839  32.472  16.774  12.027
23679W        W88840   4.380  13.909   1.384
23680W        W88841  19.841  38.032   4.031
23681W        W88842  25.289  20.592   4.653
23682W        W88843  22.712  43.053  13.065
23683W        W88844  42.877   7.492   1.372
23684W        W88845  18.330  32.634  14.448
23685W        W88846   5.919  26.885  12.070
23686W        W88847  30.432  37.759  14.834
23687W        W88848  44.874  19.308  12.177
23688W        W88849  13.174   9.393  13.971
23689W        W88850   8.950  31.582  11.116
23690W        W88851  44.665  24.583  14.575
23691W        W88852  18.854  25.473  14.308
23692W        W88853   0.233  27.015   2.886
23693W        W88854  20.926   8.582   4.197
23694W        W88855  27.425   5.336  12.314
23695W        W88856  22.109   5.448   4.531
23696W        W88857   3.846   8.077  11.572
23697W        W88858  22.609  32.172   1.669
23698W        W88859   0.786  36.725  14.954
23699W        W88860  38.081  15.706   4.667
23700W        W88861  29.970   1.238  11.581
23701W        W88862  25.903  19.606   1.443
23702W        W88863  28.419  35.853  12.061
23703W        W88864  13.144  44.878  11.526
23704W        W88865  24.222  34.050  11.536
23705W        W88866  34.067  30.386   1.262
23706W        W88867   8.137  29.997   0.925
23707W        W88868  28.487   4.228   1.597
23708W        W88869  27.584  10.776  14.205
23709W        W88870  42.320  15.156  14.599
23710W        W88871  25.797  21.600   9.570
23711W        W88872  41.964  23.127   4.809
23712W        W88873  10.864  16.717   2.264
23713W        W88874  30.540   5.676   1.768
23714W        W88875  31.660  27.495   3.735
23715W        W88876  28.569  38.859  13.009
23716W        W88877  34.407  22.379  10.086
23717W        W88878  41.488  44.475  14.923
23718W        W88879  41.261  11.422  11.559
23719W        W88880   2.383  27.182  10.520
23720W        W88881  11.344  19.746  11.699
23721W        W88882  37.532   7.258  13.057
23722W        W88883  29.721   6.699   0.367
23723W        W88884  34.981   5.901   0.352
23724W        W88885  36.526  32.105  11.157
23725W        W88886  17.076   3.500   4.038
23726W        W88887  22.629  18.617  14.691
23727W        W88888  10.560  42.584  14.419
23728W        W88889  16.188  23.980   4.080
23729W        W88890  29.098  42.285   3.142
23730W        W88891  44.434  23.921  11.986
23731W        W88892   0.973  35.375  11.500
23732W        W88893  31.898   5.965  14.414
23733W        W88894  31.975   1.274  11.176
23734W        W88895  27.515   2.276  12.454
23735W        W88896  17.384   2.972  12.073
23736W        W88897  15.519  18.566   5.559
23737W        W88898  43.350  27.406  10.493
23738W        W88899  12.811  16.171   0.198
23739W        W88900   3.635   7.790  13.296
23740W        W88901  29.227  38.720   3.992
23741W        W88902  20.436   6.790   3.203
23742W        W88903  40.275  26.693  11.890
23743W        W88904   6.256  23.489  14.397
23744W        W88905  39.374  23.151  11.659
23745W        W88906  36.083  44.829   4.552
23746W        W88907  42.685  31.191   1.798
23747W        W88908  32.049  23.919  14.072
23748W        W88909  24.923  23.266  13.208
23749W        W88910  35.483  26.578   0.364
23750W        W88911  43.784  23.922   2.437
23751W        W88912   5.875   5.062  14.905
23752W        W88913   2.744  37.178   1.572
23753W        W88914  13.798  18.016  11.947
23754W        W88915  26.030  40.124   5.542
23755W        W88916  38.593  30.801  12.429
23756W        W88917  41.460   5.349   0.796
23757W        W88918   1.903  18.169  13.381
23758W        W88919  35.218  24.802   5.047
23759W        W88920  27.595   9.885  11.127
23760W        W88921  38.968  22.312   2.297
23761W        W88922  32.061   6.256  12.825
23762W        W88923  19.122  21.116   2.203
23763W        W88924  42.545   3.671  12.879
23764W        W88925  19.963  44.092  11.067
23765W        W88926  19.566  39.757  11.768
23766W        W88927  36.449  35.640  13.367
23767W        W88928   2.466   1.811  11.145
23768W        W88929   8.321  20.141  13.170
23769W        W88930   5.741  39.345   4.635
23770W        W88931  39.930  41.889   3.264
23771W        W88932  28.476  32.659  12.577
23772W        W88933  41.242   9.685  12.945
23773W        W88934  34.971  31.717  11.323
23774W        W88935  25.252  32.009   5.130
23775W        W88936   7.373  15.389  10.677
23776W        W88937   2.641   2.200   1.678
23777W        W88938  10.336  16.326   1.456
23778W        W88939  25.145   5.898   2.307
23779W        W88940  13.642   8.859  11.885
23780W        W88941  41.412  37.553  11.291
23781W        W88942  16.558  12.874   2.152
23782W        W88943  12.247  43.257   2.172
23783W        W88944   6.473  10.070   1.231
23784W        W88945  22.529  27.070   2.304
23785W        W88946  22.815   7.600  14.298
23786W        W88947  42.738  30.158  13.060
23787W        W88948   7.213  14.905  10.684
23788W        W88949  42.400  33.415   4.378
23789W        W88950  32.295  38.047  12.933
23790W        W88951   2.870  44.112  12.021
23791W        W88952  19.332   9.157  11.393
23792W        W88953  26.262  43.420   0.814
23793W        W88954   8.556  10.116   1.740
23794W        W88955  17.299  11.292  13.805
23795W        W88956   0.928  12.322   0.423
23796W        W88957  28.190  13.699   4.493
23797W        W88958  15.469  44.238  13.456
23798W        W88959  22.041   3.315  11.628
23799W        W88960  29.860  10.070  13.203
23800W        W88961  11.167  36.906   0.432
23801W        W88962   7.274  36.328   3.679
23802W        W88963   8.682  41.797  12.078
23803W        W88964   5.757  15.364   1.791
23804W        W88965  24.031  18.459   4.542
23805W        W88966  25.261  18.232   4.096
23806W        W88967  27.896  24.049  10.202
23807W        W88968  13.393  17.793  11.145
23808W        W88969  10.636  37.784   4.997
23809W        W88970  39.075  41.257   1.439
23810W        W88971  30.955  21.002  13.910
23811W        W88972   8.218   4.713  12.092
23812W        W88973  25.938  31.951  13.862
23813W        W88974  17.714  41.018   1.863
23814W        W88975   8.344  18.298  12.821
23815W        W88976  44.873   7.123  11.129
23816W        W88977  13.289  19.077   1.159
23817W        W88978   9.748  33.720   2.597
23818W        W88979  11.822  35.332   0.484
23819W        W88980  21.923  18.131   4.559
23820W        W88981  36.118  37.335   4.679
23821W        W88982  42.582   8.652  14.925
23822W        W88983   5.035   7.170   2.371
23823W        W88984   9.644  33.427   1.634
23824W        W88985   7.683  31.285  13.798
23825W        W88986  38.621  42.444   1.175
23826W        W88987  36.676  25.665   1.160
23827W        W88988   6.893  44.859   0.938
23828W        W88989  19.282  15.250   0.254
23829W        W88990   0.497  34.032   0.925
23830W        W88991  13.342  33.085  12.526
23831W        W88992  22.195  14.811   4.440
23832W        W88993   1.192  16.822  12.570
23833W        W88994  41.145   7.924  12.379
23834W        W88995   8.655  40.082   4.548
23835W        W88996  35.511  32.634  11.951
23836W        W88997  31.986  37.931  11.101
23837W        W88998  32.730  18.491   3.668
23838W        W88999  21.392  13.400  12.463
23839W        W89000   0.288  37.389   2.304
23840W        W89001  13.444   1.319   4.825
23841W        W89002   1.852  25.711  14.926
23842W        W89003  41.963  19.511   4.532
23843W        W89004  25.473  18.052  13.839
23844W        W89005   8.788  20.681   0.866
23845W        W89006  23.711   0.206   1.738
23846W        W89007  19.116  27.478   4.747
23847W        W89008  13.594  23.962  14.902
23848W        W89009  29.980  37.928   2.772
23849W        W89010  23.204   0.150   1.893
23850W        W89011   5.404  27.560   4.794
23851W        W89012  35.552  17.689  13.336
23852W        W89013  17.702  38.937   3.758
23853W        W89014   5.216  38.087   2.114
23854W        W89015  18.294   0.608   0.366
23855W        W89016   7.606   2.505  13.410
23856W        W89017  27.641   2.056  12.884
23857W        W89018  39.750  17.550  14.756
23858W        W89019  28.743   2.722   2.857
23859W        W89020  37.895  11.132   0.775
23860W        W89021  34.403  20.186   3.709
23861W        W89022  31.170   0.291   0.270
23862W        W89023  31.614   1.358  12.492
23863W        W89024   4.135  40.867   3.826
23864W        W89025  28.115   4.428  11.698
23865W        W89026  16.835  29.470  14.229
23866W        W89027  11.881  25.482  10.653
23867W        W89028  40.546  13.615  14.415
23868W        W89029  11.522   8.290   0.912
23869W        W89030  33.171  26.455  14.905
23870W        W89031  11.567   9.138  10.969
23871W        W89032  20.243  44.005   0.355
23872W        W89033  31.077  31.237  12.270
23873W        W89034  40.522  43.267  14.280
23874W        W89035  36.427  39.727   5.285
23875W        W89036  38.969  14.792  12.135
23876W        W89037  13.266  16.212   1.028
23877W        W89038  11.452  43.265   1.678
23878W        W89039  26.499  16.282  11.978
23879W        W89040  24.184  16.362   1.838
23880W        W89041   1.508   1.525  13.958
23881W        W89042  26.568  19.085  13.970
23882W        W89043   4.689  15.073   3.651
23883W        W89044  37.513  36.994  14.425
23884W        W89045   3.229   9.153   1.989
23885W        W89046  16.165  24.840  14.892
23886W        W89047   5.737  10.187  12.130
23887W        W89048  26.102  18.248   0.953
23888W        W89049  10.683  11.733   1.303
23889W        W89050  20.206  28.763   1.282
23890W        W89051   7.770  30.332  14.060
23891W        W89052  32.897   3.366   2.373
23892W        W89053  25.668   9.750  10.195
23893W        W89054   3.726   1.492  12.844
23894W        W89055  21.925  12.413  13.799
23895W        W89056  20.646  29.858  10.664
23896W        W89057  21.127   1.926   2.363
23897W        W89058  37.297  41.404   2.785
23898W        W89059  16.788  27.333   2.293
23899W        W89060  33.094  16.255   0.567
23900W        W89061  41.566  24.010   4.902
23901W        W89062  19.559   5.427  10.405
23902W        W89063   5.821  19.645  12.690
23903W        W89064  43.229  32.415  14.748
23904W        W89065   3.998  22.621   0.489
23905W        W89066  14.049  40.017  11.286
23906W        W89067  12.863  23.105   0.664
23907W        W89068  19.569  29.957  13.099
23908W        W89069  29.693   3.520  13.832
23909W        W89070   1.338  17.614  14.433
23910W        W89071  12.305  23.126  13.740
23911W        W89072  30.474  40.623  13.821
23912W        W89073  12.626  33.919   1.373
23913W        W89074   6.516  22.033  11.452
23914W        W89075   5.158  16.653   3.908
23915W        W89076  19.550  41.949  13.344
23916W        W89077  36.541   4.422  13.816
23917W        W89078  13.771  40.836  10.331
23918W        W89079  15.398   6.910  14.341
23919W        W89080  27.704  37.457   3.619
23920W        W89081  19.592  40.543  13.554
23921W        W89082  32.605   7.679  12.655
23922W        W89083  11.385  30.437  14.375
23923W        W89084  32.501  35.417   3.001
23924W        W89085  40.785  42.780  11.406
23925W        W89086  31.149  18.221  14.660
23926W        W89087  22.384  34.632   2.808
23927W        W89088  29.804   4.909  12.826
23928W        W89089  34.823   1.944  11.902
23929W        W89090  19.639  42.633   0.389
23930W        W89091   9.910  44.013   1.023
23931W        W89092  35.643  17.273   1.914
23932W        W89093  11.311  22.126   0.299
23933W        W89094   2.839   0.822  14.839
23934W        W89095   4.789  41.176  11.456
23935W        W89096  35.960  21.924  13.810
23936W        W89097  29.617  16.055   4.422
23937W        W89098   0.482   5.898   0.952
23938W        W89099   4.799   8.984   1.182
23939W        W89100   1.398   6.143  14.026
23940W        W89101   2.733  44.396   1.693
23941W        W89102  11.274  15.859   2.130
23942W        W89103  13.687  26.981   2.843
23943W        W89104   0.452  21.373   1.148
23944W        W89105   9.168  25.495   2.716
23945W        W89106  16.320  35.563   1.012
23946W        W89107  18.748  39.694  11.606
23947W        W89108   6.520  44.325  12.482
23948W        W89109  28.488   3.210   2.808
23949W        W89110  30.685  27.541  10.717
23950W        W89111   4.413  41.417  14.867
23951W        W89112  25.066  24.910  13.687
23952W        W89113  18.333  39.306  10.630
23953W        W89114  15.786  27.945   3.854
23954W        W89115  44.817  18.179   4.807
23955W        W89116  37.682  39.140  12.468
23956W        W89117  22.543   1.923   9.767
23957W        W89118  22.778  19.915  10.274
23958W        W89119  15.344  26.541   0.315
23959W        W89120  43.195  14.024   3.362
23960W        W89121  22.789  28.673  12.669
23961W        W89122  38.871  36.102   1.626
23962W        W89123   9.645  25.757   0.315
23963W        W89124  31.536  26.774  13.955
23964W        W89125  35.452  23.166   1.220
23965W        W89126  36.009  33.037   2.207
23966W        W89127  16.749  14.687  14.980
23967W        W89128  19.453  44.162  14.399
23968W        W89129  12.644  21.751   3.337
23969W        W89130  35.945  31.056   2.186
23970W        W89131  11.641   3.367   0.808
23971W        W89132  39.859  11.019  11.250
23972W        W89133  16.102   0.507   2.822
23973W        W89134   5.811  33.552   1.902
23974W        W89135   9.448   9.913  12.067
23975W        W89136  41.999  43.120   3.696
23976W        W89137  27.103  20.268   4.597
23977W        W89138  22.833  13.358   0.469
23978W        W89139  10.763   3.719  13.948
23979W        W89140  41.766  21.199   0.419
23980W        W89141   2.323  34.342   0.960
23981W        W89142  15.749  36.095   1.192
23982W        W89143  37.800   5.402   4.221
23983W        W89144  30.361   1.227   0.273
23984W        W89145   3.180  14.897  14.314
23985W        W89146  26.420   8.301  11.612
23986W        W89147  32.710  24.733   3.208
23987W        W89148   7.869  11.160   0.468
23988W        W89149   3.370  21.225   3.533
23989W        W89150  32.965  33.982   1.778
23990W        W89151  33.086  10.172   3.583
23991W        W89152  23.212   7.937   1.360
23992W        W89153  42.054   7.615   0.267
23993W        W89154  22.149  32.502  12.167
23994W        W89155  13.433  21.261   5.052
23995W        W89156  33.451  11.316   3.351
23996W        W89157  25.078  42.029   0.348
23997W        W89158  22.561  18.309   1.654
23998W        W89159  35.446  33.821  14.836
23999W        W89160   4.160   7.261  12.126
24000W        W89161  12.272  37.805   2.339
24001W        W89162   7.117  36.385  12.060
24002W        W89163   4.484  14.888  14.720
24003W        W89164   0.321  39.382   3.613
24004W        W89165  29.329  12.635   4.776
24005W        W89166  13.396   1.236   3.212
24006W        W89167   9.335  32.978  14.343
24007W        W89168  12.592  34.487  10.721
24008W        W89169  44.189  24.299  14.914
24009W        W89170   3.281  10.414  10.603
24010W        W89171  32.381   2.562  14.953
24011W        W89172  27.037  26.085  12.100
24012W        W89173  11.251  35.893  12.183
24013W        W89174   0.535  26.360  12.051
24014W        W89175  10.341   6.861  14.618
24015W        W89176   8.582  10.016   0.854
24016W        W89177  19.272  32.012  13.601
24017W        W89178  35.898  39.507  13.535
24018W        W89179  19.407  30.816   1.602
24019W        W89180  35.771   9.829   4.639
24020W        W89181  17.356  33.365   0.118
24021W        W89182  37.009   7.069   2.407
24022W        W89183   1.722  27.272   4.865
24023W        W89184  40.308  43.969   3.703
24024W        W89185  14.217  25.892  13.200
24025W        W89186   0.300  31.434   2.788
24026W        W89187  44.921  10.854  14.608
24027W        W89188  26.148  17.335  12.621
24028W        W89189  26.586  18.861  11.150
24029W        W89190  27.491  14.805  14.404
24030W        W89191  34.685  43.771   3.913
24031W        W89192  35.951   8.862  14.930
24032W        W89193  13.528   9.205  11.143
24033W        W89194  28.567  34.075  13.585
24034W        W89195  18.616  44.050  13.357
24035W        W89196   2.002  17.369   3.839
24036W        W89197  35.899   4.381  12.013
24037W        W89198  22.496   6.154   4.162
24038W        W89199  33.100   9.240   4.021
24039W        W89200  30.524  25.804  13.809
24040W        W89201   9.560   0.304  10.964
24041W        W89202  20.182  23.620  14.921
24042W        W89203   7.847  18.113   2.371
24043W        W89204   6.201   2.454   0.366
24044W        W89205   8.766   4.190  12.499
24045W        W89206   0.920  32.675  11.373
24046W        W89207   1.742  42.045  11.188
24047W        W89208  38.595  22.117   0.782
24048W        W89209   6.945  36.316  14.470
24049W        W89210  26.694  22.988   4.566
24050W        W89211  25.427  39.920  14.608
24051W        W89212  43.480  27.906  10.649
24052W        W89213  22.943  34.017  12.136
24053W        W89214  38.120  12.160  13.958
24054W        W89215  15.212  12.158  13.351
24055W        W89216  14.107  33.333   1.214
24056W        W89217  11.320  30.703   1.873
24057W        W89218  21.627  41.843   1.781
24058W        W89219  26.139  17.594   1.305
24059W        W89220  28.758  11.862   4.620
24060W        W89221   6.258  19.143  13.942
24061W        W89222  42.312  20.039   3.249
24062W        W89223   7.934  42.690   4.190
24063W        W89224  28.428  31.807   4.607
24064W        W89225  13.631  36.436   2.972
24065W        W89226  37.132  19.705  11.616
24066W        W89227  10.881   1.764   0.389
24067W        W89228  32.831  10.815  13.427
24068W        W89229  12.301  41.599   4.308
24069W        W89230  24.196  42.368   3.880
24070W        W89231  41.872  38.938  13.830
24071W        W89232  32.507   1.880   3.581
24072W        W89233   0.036   1.266   0.351
24073W        W89234   7.771  20.127  10.407
24074W        W89235   1.401  14.272  13.905
24075W        W89236   3.700  17.580  14.975
24076W        W89237  16.654  14.312  13.383
24077W        W89238  36.550  13.197   2.054
24078W        W89239  23.440  28.881  14.567
24079W        W89240  11.254  39.109   2.396
24080W        W89241  44.926  39.157   2.356
24081W        W89242  14.517  32.488   3.621
24082W        W89243  23.809  13.119  11.614
24083W        W89244  20.385  28.539  12.231
24084W        W89245  24.515  37.050   4.641
24085W        W89246  32.357  26.754   3.072
24086W        W89247  23.145  21.066   4.082
24087W        W89248  16.928  11.724   1.382
24088W        W89249   1.493   1.437   4.233
24089W        W89250   0.128  21.967  12.589
24090W        W89251  13.806  38.101  14.747
24091W        W89252  17.613  44.717   0.566
24092W        W89253  18.053  31.166   0.461
24093W        W89254  14.994  41.103   4.941
24094W        W89255  24.098  44.469   2.365
24095W        W89256  10.863  34.199  12.602
24096W        W89257  37.929   3.610  11.167
24097W        W89258  39.513  38.407  12.320
24098W        W89259  12.711   2.815   0.281
24099W        W89260   5.937  20.537  12.537
24100W        W89261   7.085   3.334   3.724
24101W        W89262  18.788   4.299   0.095
24102W        W89263  30.883   5.645  13.472
24103W        W89264  12.803  36.888  10.999
24104W        W89265  10.893  17.000  14.054
24105W        W89266  10.944  40.637   4.148
24106W        W89267  21.325  10.696  14.318
24107W        W89268   4.989  12.636   0.896
24108W        W89269  16.996  14.144  14.906
24109W        W89270  21.761  42.478  11.987
24110W        W89271  18.723  14.317  13.512
24111W        W89272  35.400  15.289   1.668
24112W        W89273   0.821  31.086   4.594
24113W        W89274  21.503   9.623  12.521
24114W        W89275   9.456  14.710   4.568
24115W        W89276  11.759  39.965  12.128
24116W        W89277  22.954   0.934  13.994
24117W        W89278   1.540  12.809  13.450
24118W        W89279   9.802  35.568   2.256
24119W        W89280  10.778  19.790  10.977
24120W        W89281   1.302   5.921   3.696
24121W        W89282  40.329   1.303   0.875
24122W        W89283  11.567   2.910   1.019
24123W        W89284  10.600  16.587  14.082
24124W        W89285  21.691  36.797  10.789
24125W        W89286  41.967   3.881   2.320
24126W        W89287  27.107  36.378   1.612
24127W        W89288  44.571   7.207   3.160
24128W        W89289   3.367   8.815  11.293
24129W        W89290  42.998  10.173   4.515
24130W        W89291  42.946  31.898   3.718
24131W        W89292  37.967  34.308  12.441
24132W        W89293  35.537  43.803   4.563
24133W        W89294   4.296  13.329   2.166
24134W        W89295   2.795  23.703  10.878
24135W        W89296   3.870  28.484   0.050
24136W        W89297  24.512   7.319   1.788
24137W        W89298  23.100  25.363   2.872
24138W        W89299  15.387  11.745   4.704
24139W        W89300   8.316  35.714   1.919
24140W        W89301  28.993  43.304   3.252
24141W        W89302  20.784  43.236  11.051
24142W        W89303  14.490  21.039   4.100
24143W        W89304  40.823  41.526   4.223
24144W        W89305  44.044   6.517  11.093
24145W        W89306  44.958   0.242   3.720
24146W        W89307  36.965   9.897   4.147
24147W        W89308  14.871   2.158  13.100
24148W        W89309  15.569  17.746  12.782
24149W        W89310  28.753  29.940  14.469
24150W        W89311  43.010   0.256   0.309
24151W        W89312  24.947  25.534  13.324
24152W        W89313  23.767   2.627  13.968
24153W        W89314  25.714  22.046  11.377
24154W        W89315  15.652  23.190   3.570
24155W        W89316  11.066  15.078   4.722
24156W        W89317  22.622  23.729   4.003
24157W        W89318  27.994   2.242   0.963
24158W        W89319  28.529   2.494  13.092
24159W        W89320  26.742  23.134   3.174
24160W        W89321  14.591   5.420   3.880
24161W        W89322   4.750   2.375  10.600
24162W        W89323   2.493   6.992   0.802
24163W        W89324  12.644  18.220   0.414
24164W        W89325  35.375  18.441   3.867
24165W        W89326  36.948  41.116   3.190
24166W        W89327  40.831  12.199   3.031
24167W        W89328  29.082  22.678  11.086
24168W        W89329  27.192  31.429  14.360
24169W        W89330  10.919  31.683  13.934
24170W        W89331  24.946  34.534   2.756
24171W        W89332  13.196  41.503   1.730
24172W        W89333  29.100  28.419  10.687
24173W        W89334  30.108   9.935   1.272
24174W        W89335  12.056  33.146   4.085
24175W        W89336  39.004   3.632  12.998
24176W        W89337  25.353  20.519   0.864
24177W        W89338   8.410  24.352  13.835
24178W        W89339   9.325  13.675   1.712
24179W        W89340  26.877  25.557  13.915
24180W        W89341  39.835   0.212  10.743
24181W        W89342  37.791  12.530   1.236
24182W        W89343  36.852   0.445  13.797
24183W        W89344  15.868  43.368  14.897
24184W        W89345  35.852  19.253  14.966
24185W        W89346  27.204  19.501   4.142
24186W        W89347  31.210  30.340   3.695
24187W        W89348  23.674   5.346  13.492
24188W        W89349  25.806  16.975  14.824
24189W        W89350  12.671  31.045  11.902
24190W        W89351  23.951  13.491  10.893
24191W        W89352  18.719  21.023   3.171
24192W        W89353  36.410  22.736   0.762
24193W        W89354  13.148  18.321  14.764
24194W        W89355  25.238   9.913  12.070
24195W        W89356  12.540   2.438   4.245
24196W        W89357  16.042  42.352  13.973
24197W        W89358  34.667  37.079  12.533
24198W        W89359  38.783  24.046   1.758
24199W        W89360   1.278  32.479  11.960
24200W        W89361   4.628   2.362   5.451
24201W        W89362  24.440   6.142  11.442
24202W        W89363  35.864   1.665  11.831
24203W        W89364  35.896  19.079  10.925
24204W        W89365   8.567  14.745  10.349
24205W        W89366  32.675   5.132   1.746
24206W        W89367  15.728  35.165   2.687
24207W        W89368  40.088  43.508   3.726
24208W        W89369   0.986  35.671   0.809
24209W        W89370   3.975  11.991   2.799
24210W        W89371  17.786   0.023   3.239
24211W        W89372  10.545   2.376   0.827
24212W        W89373   6.950  30.121  10.328
24213W        W89374   3.952  42.838  12.368
24214W        W89375  13.127  13.143   0.354
24215W        W89376   7.284  30.412   2.225
24216W        W89377  17.839  42.737   0.084
24217W        W89378   1.131   5.385  13.475
24218W        W89379  25.629   7.290  11.761
24219W        W89380  21.714  17.807  10.554
24220W        W89381  11.222  16.144  10.871
24221W        W89382  10.053  42.451   1.381
24222W        W89383  16.278  38.597  11.664
24223W        W89384   4.984  40.911   2.392
24224W        W89385  28.527  10.456  12.841
24225W        W89386   2.454  36.083  13.004
24226W        W89387  19.238   8.482   3.930
24227W        W89388  36.954  44.856   3.231
24228W        W89389  42.801  31.388  13.452
24229W        W89390  44.558  42.170   3.268
24230W        W89391  12.200   0.732   3.697
24231W        W89392  34.264  37.411   1.452
24232W        W89393   9.255  25.934   3.163
24233W        W89394   5.608  19.970  12.330
24234W        W89395  30.601  30.049  12.648
24235W        W89396  36.544  37.394   0.876
24236W        W89397  37.110   2.693   2.814
24237W        W89398  13.442   4.830   3.624
24238W        W89399  41.520  13.072   0.206
24239W        W89400  36.867  33.940   4.128
24240W        W89401  32.077  14.063   3.209
24241W        W89402  40.876  37.717  10.229
24242W        W89403  38.257  35.099  12.602
24243W        W89404  40.305  41.280   2.774
24244W        W89405  21.091  26.893  12.901
24245W        W89406  41.602  34.515  11.191
24246W        W89407  22.529  28.624   1.707
24247W        W89408  12.864  37.863   4.386
24248W        W89409  14.731   1.582   1.674
24249W        W89410   5.364  19.528  12.451
24250W        W89411  30.124  39.646   2.450
24251W        W89412   6.203  33.587   3.242
24252W        W89413  37.282  34.400   3.424
24253W        W89414  34.087  14.148   3.063
24254W        W89415  14.958  43.871   9.869
24255W        W89416   7.349  17.054   4.767
24256W        W89417  19.380  31.208   3.870
24257W        W89418  37.432   7.656  11.030
24258W        W89419  43.207  30.168  10.748
24259W        W89420  16.116  25.275   3.597
24260W        W89421  17.316  17.670   2.773
24261W        W89422  28.387  36.406   0.237
24262W        W89423  14.771  38.787   3.128
24263W        W89424  25.384  15.744   2.309
24264W        W89425  24.989   3.262   4.027
24265W        W89426  44.719  11.698  13.837
24266W        W89427  11.737  35.074  12.077
24267W        W89428  23.637  18.055  14.060
24268W        W89429  21.621  19.014  11.584
24269W        W89430  34.662  14.603   1.814
24270W        W89431  22.073  12.187  12.793
24271W        W89432  40.431  26.745  12.381
24272W        W89433  10.397  36.379  11.886
24273W        W89434  10.683   5.275   3.097
24274W        W89435  28.994  31.701  12.025
24275W        W89436  39.027  17.637  13.872
24276W        W89437  41.271  26.639   2.908
24277W        W89438  25.779  19.592   3.621
24278W        W89439  30.030   8.651  14.798
24279W        W89440   9.198  38.406   1.408
24280W        W89441  29.075  37.911   0.343
24281W        W89442  27.198   3.939   1.777
24282W        W89443   3.169  39.129  14.491
24283W        W89444   7.163  34.859   2.795
24284W        W89445  17.255  41.233   2.120
24285W        W89446  37.137   1.023   4.169
24286W        W89447  10.238  41.360   1.827
24287W        W89448  20.504  33.647  12.845
24288W        W89449  25.715  37.940   2.716
24289W        W89450   5.573  36.043  11.158
24290W        W89451  34.444  18.169   3.576
24291W        W89452  40.854  15.546   3.278
24292W        W89453   5.564  36.417   1.007
24293W        W89454   2.584  23.102   2.961
24294W        W89455  26.031  15.859   4.161
24295W        W89456  12.852  44.511  11.228
24296W        W89457   0.658  30.536   0.228
24297W        W89458   3.861  13.270  13.542
24298W        W89459  18.433  23.595  11.192
24299W        W89460   7.652   7.727  14.304
24300W        W89461  40.291  22.557  12.519
24301W        W89462  25.991  44.723   0.370
24302W        W89463  25.133   0.837  11.596
24303W        W89464  32.651   0.779  14.696
24304W        W89465  19.380  36.892  12.076
24305W        W89466  44.114   1.533  11.100
24306W        W89467  25.458  34.833   1.869
24307W        W89468  31.982  33.097  14.428
24308W        W89469   8.611  42.929   0.289
24309W        W89470   6.261  31.671   2.402
24310W        W89471  26.232  22.597   2.416
24311W        W89472  11.633   5.859  10.793
24312W        W89473  37.990  28.179   1.335
24313W        W89474  32.890  29.548   3.346
24314W        W89475  22.776   8.652   4.592
24315W        W89476  21.211  35.424   2.727
24316W        W89477  43.511  44.294   0.892
24317W        W89478  39.450  13.113   4.303
24318W        W89479  34.606  13.121   0.263
24319W        W89480  36.901  44.837  13.049
24320W        W89481   4.722   0.600  11.920
24321W        W89482  19.384  40.817   2.265
24322W        W89483  24.781  21.262   3.680
24323W        W89484  37.614   9.779  14.830
24324W        W89485   4.145  12.671   1.921
24325W        W89486  26.149   9.986  10.150
24326W        W89487   5.920  35.702  12.067
24327W        W89488  35.093  11.653  10.827
24328W        W89489  25.902  40.629  14.936
24329W        W89490  24.909  23.544   3.312
24330W        W89491  40.829  23.520  13.629
24331W        W89492  41.851  23.616   1.026
24332W        W89493  14.647   6.744  11.962
24333W        W89494  37.470  34.311   0.907
24334W        W89495   6.179  12.944  14.721
24335W        W89496  40.358  22.478   1.371
24336W        W89497  25.935   4.662  10.109
24337W        W89498  42.997  17.632  10.785
24338W        W89499  41.880  14.944  14.925
24339W        W89500  42.525   6.598   3.713
24340W        W89501  33.364  16.134  12.050
24341W        W89502  22.139  15.248  12.818
24342W        W89503  34.131  37.070   4.556
24343W        W89504  15.648  44.902   0.485
24344W        W89505  14.747  10.375   3.752
24345W        W89506   4.431  39.837   3.222
24346W        W89507  31.834  17.094   0.529
24347W        W89508  13.250  23.548  14.335
24348W        W89509  42.346   3.140   1.336
24349W        W89510  35.985  43.426  11.942
24350W        W89511  44.439  26.475   4.545
24351W        W89512  29.088  22.441  12.020
24352W        W89513  37.321  38.773  12.593
24353W        W89514   4.485  24.678  12.019
24354W        W89515  42.423   9.477   4.552
24355W        W89516  43.218  33.122   4.230
24356W        W89517  16.858  42.067   3.228
24357W        W89518  35.095   8.489  10.732
24358W        W89519  17.265  14.600  14.822
24359W        W89520  35.451   7.977  14.460
24360W        W89521  13.358   7.437   3.133
24361W        W89522  24.419  23.669   3.212
24362W        W89523  40.700  30.651   4.551
24363W        W89524  43.792  30.346  14.564
24364W        W89525   8.774  33.488   2.144
24365W        W89526  41.368  41.677  13.984
24366W        W89527  18.231  16.746  14.254
24367W        W89528   3.996  28.094  12.407
24368W        W89529  35.858  13.360  11.713
24369W        W89530  36.140  11.707  10.759
24370W        W89531  29.535  10.440  11.567
24371W        W89532  33.413  25.219   1.041
24372W        W89533   7.263  34.181  10.617
24373W        W89534  35.909  43.407   4.397
24374W        W89535  13.614   8.819   3.149
24375W        W89536   7.133   3.581  14.290
24376W        W89537   4.870   5.702   0.150
24377W        W89538  18.295  25.113   0.515
24378W        W89539  19.322  20.669  10.733
24379W        W89540  22.151   7.938  10.657
24380W        W89541  26.199  29.156   0.493
24381W        W89542  35.419  30.834  11.573
24382W        W89543   5.473   2.399  10.414
24383W        W89544  22.277   4.819   2.227
24384W        W89545  15.574  11.732  12.442
24385W        W89546  26.250  33.336  13.359
24386W        W89547  32.439   6.672   4.116
24387W        W89548   8.453  39.441   2.697
24388W        W89549  19.145  36.309   4.569
24389W        W89550  29.674  42.469  12.030
24390W        W89551  19.917  44.362   4.507
24391W        W89552   0.736  33.574  13.858
24392W        W89553  27.732   9.243  12.382
24393W        W89554   2.339  44.532   0.934
24394W        W89555  40.844  25.633   0.733
24395W        W89556  25.216   5.725   1.369
24396W        W89557  36.632   4.315  14.780
24397W        W89558  22.050   5.639  13.893
24398W        W89559  23.170  16.541   2.788
24399W        W89560  15.779  28.979   4.648
24400W        W89561  18.234  29.952  12.472
24401W        W89562  32.507   3.280   3.846
24402W        W89563  10.228  44.966  13.937
24403W        W89564  23.648  20.433  13.465
24404W        W89565   3.008  16.205  11.973
24405W        W89566  22.204  31.424   4.675
24406W        W89567  19.311  33.662   0.363
24407W        W89568  32.031   2.751   0.770
24408W        W89569  31.202  40.790  11.876
24409W        W89570  38.857  38.783  10.787
24410W        W89571  13.009  38.531   3.072
24411W        W89572   9.841  28.405   3.339
24412W        W89573  39.140  38.869   4.910
24413W        W89574  25.469  31.999   1.801
24414W        W89575  22.154  32.108   4.408
24415W        W89576  43.525  22.214  14.389
24416W        W89577   1.781  30.193   0.881
24417W        W89578  23.699  42.025   3.245
24418W        W89579   7.887  40.647   0.284
24419W        W89580   7.085  44.496  13.229
24420W        W89581  34.205  43.446  13.162
24421W        W89582   4.660  36.063   1.254
24422W        W89583  38.225  21.047  11.864
24423W        W89584  24.012   4.799   3.923
24424W        W89585  39.519  23.508   2.633
24425W        W89586  28.401  42.939  13.946
24426W        W89587  11.522  17.881   2.138
24427W        W89588  39.088   1.951   2.295
24428W        W89589  34.617  35.411  13.277
24429W        W89590  42.483   8.482   4.773
24430W        W89591   1.422  33.404   5.013
24431W        W89592   7.601   9.755  13.359
24432W        W89593   3.495  12.276  13.468
24433W        W89594  37.093  41.656  12.506
24434W        W89595  44.894  26.274  11.076
24435W        W89596  17.801  20.016   3.889
24436W        W89597  44.525  10.822   3.841
24437W        W89598  39.907   5.778  14.353
24438W        W89599  40.868  21.489   3.176
24439W        W89600  18.449  19.264   3.722
24440W        W89601  30.631  44.448   3.791
24441W        W89602  31.067  13.779   1.280
24442W        W89603  42.025   6.238   0.025
24443W        W89604  33.636  16.455   4.566
24444W        W89605  40.156  10.532  12.395
24445W        W89606  32.116  42.611  13.356
24446W        W89607   7.528   9.923   3.242
24447W        W89608   3.404  19.293   0.315
24448W        W89609  26.070  37.354  11.158
24449W        W89610  43.928  18.645   3.906
24450W        W89611  22.223  11.341   2.729
24451W        W89612  15.086  10.561   2.099
24452W        W89613  17.723  29.156  13.822
24453W        W89614  18.612  30.854   4.142
24454W        W89615  43.054  22.264   4.051
24455W        W89616  19.324  29.204   1.418
24456W        W89617  41.969  41.399  11.010
24457W        W89618  28.558  17.203  12.219
24458W        W89619  39.989  21.071   0.888
24459W        W89620   2.815  39.118  11.422
24460W        W89621  11.607  22.605   2.461
24461W        W89622  24.099   7.580  13.448
24462W        W89623  37.612  11.562   1.370
24463W        W89624   4.733  25.348  13.552
24464W        W89625  21.236  31.710   1.665
24465W        W89626  30.567  14.682   2.354
24466W        W89627  14.696  30.761   2.277
24467W        W89628  32.591   0.792   0.219
24468W        W89629  22.607  43.514  12.169
24469W        W89630  37.097   8.442   2.169
24470W        W89631  27.103  19.851  11.393
24471W        W89632  11.786  43.915   2.969
24472W        W89633  40.369  10.597  11.916
24473W        W89634  43.738  25.628   2.183
24474W        W89635  11.743  28.136   0.276
24475W        W89636  27.591  37.371  13.039
24476W        W89637  10.939   4.291   1.878
24477W        W89638  33.868  18.662   0.706
24478W        W89639  32.361  14.348  10.594
24479W        W89640   4.325  41.015  12.518
24480W        W89641  28.066  21.088  12.097
24481W        W89642   2.305  23.023   3.390
24482W        W89643  38.699   1.070   3.615
24483W        W89644  39.075  14.603  11.548
24484W        W89645   4.193  38.024   3.991
24485W        W89646  34.082  34.999  13.539
24486W        W89647  30.353  42.110  11.070
24487W        W89648  31.055   6.630   0.878
24488W        W89649  27.570  17.637   1.808
24489W        W89650  35.388  36.855  13.926
24490W        W89651  27.893   0.764  13.582
24491W        W89652  26.519  39.193  12.494
24492W        W89653  32.628  27.151  14.905
24493W        W89654  27.058   7.893   3.954
24494W        W89655  39.109  15.337   1.236
24495W        W89656  42.359  17.742   1.728
24496W        W89657  12.679  30.666   3.296
24497W        W89658   1.288  34.043  13.010
24498W        W89659   4.943   8.754  14.394
24499W        W89660  31.963  22.764  12.638
24500W        W89661  19.882  28.539  12.065
24501W        W89662  25.129  15.692   3.195
24502W        W89663  19.233  16.054   0.704
24503W        W89664  25.235   7.101  12.892
24504W        W89665   0.934  30.357   3.191
24505W        W89666   6.825  43.519  13.652
24506W        W89667   7.450  40.527   3.578
24507W        W89668  29.594  22.092   2.315
24508W        W89669  23.584  20.964   4.984
24509W        W89670   6.074  42.889   4.670
24510W        W89671  25.077  37.386  14.578
24511W        W89672   2.513  22.360   1.251
24512W        W89673   1.234  26.010  10.676
24513W        W89674  29.843  33.639  14.771
24514W        W89675   1.238  11.163   5.487
24515W        W89676  10.850  37.501   4.617
24516W        W89677   1.027   9.801  10.589
24517W        W89678  36.976  33.734  14.021
24518W        W89679  17.597  17.352   9.800
24519W        W89680  25.682  13.431  10.419
24520W        W89681  27.559   7.639  11.511
24521W        W89682  26.123  10.950  12.068
24522W        W89683  32.920  26.976   2.385
24523W        W89684  21.730  35.383   2.653
24524W        W89685  10.473  24.540  12.729
24525W        W89686  20.215   9.308  12.922
24526W        W89687  40.243  38.634   3.590
24527W        W89688   3.778  40.441   2.731
24528W        W89689   0.358  43.939  13.563
24529W        W89690  39.951  32.296   0.685
24530W        W89691  12.651  28.388   3.641
24531W        W89692  26.232  29.988   3.655
24532W        W89693  25.604  35.879  11.494
24533W        W89694  35.594  33.982   3.621
24534W        W89695  28.400  43.403  13.677
24535W        W89696  14.629  37.566   2.634
24536W        W89697  37.363  33.514  10.787
24537W        W89698   9.364  31.070   2.348
24538W        W89699   8.621  15.642   0.342
24539W        W89700  12.917  40.170  10.270
24540W        W89701  43.411  19.454  14.962
24541W        W89702  20.220  12.582   3.419
24542W        W89703   9.235  37.430   3.269
24543W        W89704  17.632  10.319  12.085
24544W        W89705   2.883  27.049   3.623
24545W        W89706   6.749   9.459  11.848
24546W        W89707  41.783  11.329   3.839
24547W        W89708  37.598  32.666  12.761
24548W        W89709   0.219   3.315   2.318
24549W        W89710   1.652  38.357   2.151
24550W        W89711  34.482   8.587  11.560
24551W        W89712  28.715  32.066  13.839
24552W        W89713  35.302   3.283   0.240
24553W        W89714   1.295  27.013  13.445
24554W        W89715  13.902  12.239   1.192
24555W        W89716  40.803  23.968  13.349
24556W        W89717   9.116  22.196   3.574
24557W        W89718   2.839  37.394  12.567
24558W        W89719  27.211  37.559   1.287
24559W        W89720  24.292  35.190  12.028
24560W        W89721  28.073  42.160  12.939
24561W        W89722  17.098  18.138   2.753
24562W        W89723  18.528  39.466   3.685
24563W        W89724   5.437  23.987   4.663
24564W        W89725   8.858  29.971   1.177
24565W        W89726   9.407  34.955   2.099
24566W        W89727  37.355  18.662   4.999
24567W        W89728   5.013  40.622  10.177
24568W        W89729   4.218  17.432   3.507
24569W        W89730  24.605  40.545   0.838
24570W        W89731  19.293  22.367   2.851
24571W        W89732  23.804  20.712   0.441
24572W        W89733  24.376   2.070  11.009
24573W        W89734  29.343  21.441   3.335
24574W        W89735  31.307   8.878   4.215
24575W        W89736   0.009  21.525   1.818
24576W        W89737   7.738  10.462   2.277
24577W        W89738   5.633  27.180   2.754
24578W        W89739  22.661  39.908  11.043
24579W        W89740  44.518  15.007   1.275
24580W        W89741  24.380  41.067  11.412
24581W        W89742   8.471   5.460   4.151
24582W        W89743  18.329  21.618   4.189
24583W        W89744  16.569  37.935   3.632
24584W        W89745   3.008   8.906   4.357
24585W        W89746  20.753  35.639  14.329
24586W        W89747   1.508  40.349  12.955
24587W        W89748  26.571  31.663  14.986
24588W        W89749  23.276  43.277  13.424
24589W        W89750  43.438  15.078  14.432
24590W        W89751  43.830  19.615   2.643
24591W        W89752  44.357   4.514   3.343
24592W        W89753  18.634  34.083  10.512
24593W        W89754  34.055  36.502  11.599
24594W        W89755   7.594  35.043  10.509
24595W        W89756  30.055  25.713   4.030
24596W        W89757  33.497  41.722   3.740
24597W        W89758  44.275  17.952  12.954
24598W        W89759  18.485  20.793  12.989
24599W        W89760  41.910  28.010   2.195
24600W        W89761  42.982  36.659  12.388
24601W        W89762  34.579  36.366  11.791
24602W        W89763  27.599  24.031   2.845
24603W        W89764  41.874   1.280  11.537
24604W        W89765  28.523  25.815  13.809
24605W        W89766  34.375  44.925  12.202
24606W        W89767  31.211  37.466   1.399
24607W        W89768  18.782  26.492   0.358
24608W        W89769  19.143  43.826   3.665
24609W        W89770   8.269  30.045   4.051
24610W        W89771  12.844   1.185   2.222
24611W        W89772  15.238  18.669   2.409
24612W        W89773  19.327  40.537   1.707
24613W        W89774   8.222   8.554   4.976
24614W        W89775  13.357   8.336   0.919
24615W        W89776  26.141   7.961  11.953
24616W        W89777  15.342  42.001   3.369
24617W        W89778  36.915  30.677  10.659
24618W        W89779   3.303  10.489   1.253
24619W        W89780  10.868  41.113   3.971
24620W        W89781  16.112   6.245   2.329
24621W        W89782  16.283  28.942   0.291
24622W        W89783  42.925  36.299  13.552
24623W        W89784  10.709   4.386   1.406
24624W        W89785  37.114  38.460   2.750
24625W        W89786   3.959  37.135  12.111
24626W        W89787  27.013   1.746   4.329
24627W        W89788  34.867  29.099   1.387
24628W        W89789  21.667  39.999  14.406
24629W        W89790  13.356   7.987   3.798
24630W        W89791  14.293   7.767  14.059
24631W        W89792  23.240  30.355   0.783
24632W        W89793  33.516  19.172   2.310
24633W        W89794  24.605   1.108   1.686
24634W        W89795  10.320  16.646  10.930
24635W        W89796  22.043  38.426  12.389
24636W        W89797  16.949  41.572   4.571
24637W        W89798  22.218  11.389   4.249
24638W        W89799  21.371  39.423   1.404
24639W        W89800  26.729  33.115   0.367
24640W        W89801  12.329  31.588   4.654
24641W        W89802  24.707  40.376  10.489
24642W        W89803  25.570  21.214   1.923
24643W        W89804  12.323  32.890   2.191
24644W        W89805   5.709  11.252  10.813
24645W        W89806  10.366  24.964   2.155
24646W        W89807  14.581  18.379  11.093
24647W        W89808  12.951  12.142  11.023
24648W        W89809   0.971  24.969  10.357
24649W        W89810  30.491  34.363   3.618
24650W        W89811  11.124  15.265   2.397
24651W        W89812  25.235  23.770  11.063
24652W        W89813  14.821  35.463  11.677
24653W        W89814  43.771  40.186  12.090
24654W        W89815  14.149   3.049   0.344
24655W        W89816  31.134  14.097  11.874
24656W        W89817  44.411  34.989  10.003
24657W        W89818  39.800  18.812  13.879
24658W        W89819  23.610   2.377  11.158
24659W        W89820  27.953  14.072  10.760
24660W        W89821   7.267  43.943   4.132
24661W        W89822  29.868  36.318   0.451
24662W        W89823  12.160  27.448  14.573
24663W        W89824  26.981  20.310  12.877
24664W        W89825  36.472  39.329   0.484
24665W        W89826  13.132  36.962  11.946
24666W        W89827  30.236  43.255  10.868
24667W        W89828  11.283  37.475  12.847
24668W        W89829  28.088  40.287   3.725
24669W        W89830   4.483  41.203   3.133
24670W        W89831  39.998  18.021  11.449
24671W        W89832   7.369  10.812  11.922
24672W        W89833  17.053  16.024  10.900
24673W        W89834   6.388   1.785  12.056
24674W        W89835   3.744  19.290   2.598
24675W        W89836   3.063  29.932   0.103
24676W        W89837  24.724   8.275   2.153
24677W        W89838  34.160  10.646   2.327
24678W        W89839  29.544  35.144   3.917
24679W        W89840  31.042  32.121   3.129
24680W        W89841  18.138  43.666  14.035
24681W        W89842  13.381  35.332  11.608
24682W        W89843  23.185  17.227   4.750
24683W        W89844  23.161  41.755  14.225
24684W        W89845  21.453  14.173  10.450
24685W        W89846  19.247  28.718   2.293
24686W        W89847   7.939  40.570  10.083
24687W        W89848  21.605  37.651  11.020
24688W        W89849   4.297   0.919  14.370
24689W        W89850  43.853  29.420   4.596
24690W        W89851  24.966  27.042   4.375
24691W        W89852   3.713  25.490   2.250
24692W        W89853  23.430  30.510   4.288
24693W        W89854  41.036  29.572  11.110
24694W        W89855   4.215  37.278  12.994
24695W        W89856  36.444  11.966   0.825
24696W        W89857  32.699  37.862   3.333
24697W        W89858  35.972  42.172  12.972
24698W        W89859  13.312  35.563  10.973
24699W        W89860   1.705   5.767   0.027
24700W        W89861  22.083  33.526  14.229
24701W        W89862   1.928  39.192   0.368
24702W        W89863  30.809  42.545   4.130
24703W        W89864  22.321  37.281   2.219
24704W        W89865  30.622  32.401   3.177
24705W        W89866  13.805  30.216   4.180
24706W        W89867  16.638   9.687  13.895
24707W        W89868  33.055  42.561   1.769
24708W        W89869  34.606   9.330   0.104
24709W        W89870  24.360  29.978  11.968
24710W        W89871  24.912  14.327  11.201
24711W        W89872  23.557   0.914   3.930
24712W        W89873  19.859  33.653   3.821
24713W        W89874  20.538  24.152   3.762
24714W        W89875  43.466  23.401   1.440
24715W        W89876  11.350  12.784   4.852
24716W        W89877  20.052  24.146   3.594
24717W        W89878   2.277  16.812  10.934
24718W        W89879  30.467  27.663   1.350
24719W        W89880  24.666  25.150   2.372
24720W        W89881  44.784  44.370  10.178
24721W        W89882  14.000  32.706   0.845
24722W        W89883  18.263  24.993  12.999
24723W        W89884   0.995   6.425   1.838
24724W        W89885  30.318  36.376   2.410
24725W        W89886  34.401  25.815  11.952
24726W        W89887   8.115  43.551  13.465
24727W        W89888   6.685  37.096   1.432
24728W        W89889   1.057  39.411  11.945
24729W        W89890  41.847  14.739  13.774
24730W        W89891   8.745   4.419  13.807
24731W        W89892  20.157  35.026  11.619
24732W        W89893  31.921  13.254   1.915
24733W        W89894  29.495  31.616   0.634
24734W        W89895  20.716  19.371   1.187
24735W        W89896  39.795  10.185   4.597
24736W        W89897  31.413  22.188  13.947
24737W        W89898   0.337  35.496  10.679
24738W        W89899  17.721  30.838  14.856
24739W        W89900  40.020  42.509  13.992
24740W        W89901  39.843   4.473   0.044
24741W        W89902   9.984  13.888  11.085
24742W        W89903  38.017  13.413  13.584
24743W        W89904  28.717  31.049   1.039
24744W        W89905  26.131  39.303  13.326
24745W        W89906  16.725   5.153   1.904
24746W        W89907   2.015  23.498  13.453
24747W        W89908   1.443  23.177  13.998
24748W        W89909  21.178  39.621   0.952
24749W        W89910   0.462  33.167   1.996
24750W        W89911   4.178  42.770   4.032
24751W        W89912  24.008  20.704   3.146
24752W        W89913   2.481   8.749  11.550
24753W        W89914  42.513   2.125  14.717
24754W        W89915  10.296  43.694  12.177
24755W        W89916  33.203   2.239   3.206
24756W        W89917  41.776   8.883   2.811
24757W        W89918   9.791  26.007   3.274
24758W        W89919  36.008  40.207  11.765
24759W        W89920  24.305  30.563  10.760
24760W        W89921   2.741  30.382   4.945
24761W        W89922  26.143  39.363  14.230
24762W        W89923  31.446   1.023   3.348
24763W        W89924  36.586  29.257  14.269
24764W        W89925  41.882   1.510   2.737
24765W        W89926   6.727  10.068   4.315
24766W        W89927  30.621  32.997   0.520
24767W        W89928  42.287  10.007  10.350
24768W        W89929  22.570  25.435   0.764
24769W        W89930  32.235  32.959  13.973
24770W        W89931   3.295  39.578   1.304
24771W        W89932   8.869  41.543   4.226
24772W        W89933   7.365  20.193  13.592
24773W        W89934  18.577  19.549   1.079
24774W        W89935   2.252  14.826   4.555
24775W        W89936   9.671   6.552   0.410
24776W        W89937  35.049   8.116  11.552
24777W        W89938  29.242   3.577  14.850
24778W        W89939  19.030  10.726  14.862
24779W        W89940  11.207  29.698   4.511
24780W        W89941   2.999  19.731  13.772
24781W        W89942  15.539  36.069   2.979
24782W        W89943   6.197   2.868  14.106
24783W        W89944  21.356   7.104  11.569
24784W        W89945  27.996   7.178   4.346
24785W        W89946  27.082  22.793   0.346
24786W        W89947  39.274  11.423  12.952
24787W        W89948  25.090   1.694  10.379
24788W        W89949  14.469  20.984   3.208
24789W        W89950  23.033  44.576  14.450
24790W        W89951  24.184  28.511  14.899
24791W        W89952  16.649  13.548   0.924
24792W        W89953  36.350  42.840  13.471
24793W        W89954  22.346   2.489  11.961
24794W        W89955  32.079  24.948   3.228
24795W        W89956  19.195  17.343   1.163
24796W        W89957   0.619   8.155  13.783
24797W        W89958  16.193  35.085   3.802
24798W        W89959   9.170  16.286  10.537
24799W        W89960  24.635  15.629   4.362
24800W        W89961  15.524  34.553   1.776
24801W        W89962  20.455   7.895   1.241
24802W        W89963  26.069   4.289   0.407
24803W        W89964  21.592  10.406   1.925
24804W        W89965  13.411  26.110   1.766
24805W        W89966  31.307   3.913   2.839
24806W        W89967  25.939  18.318  14.654
24807W        W89968  26.463  10.892  13.440
24808W        W89969  38.361  19.680  13.399
24809W        W89970  38.340  34.378  11.173
24810W        W89971   5.209  15.828  13.923
24811W        W89972  18.789  26.426  13.329
24812W        W89973   3.894   7.481   0.907
24813W        W89974  22.570  34.942   1.609
24814W        W89975  42.509  35.950   0.152
24815W        W89976   3.278  31.130   0.845
24816W        W89977  14.580  26.631  12.994
24817W        W89978  27.060  34.779   3.880
24818W        W89979  38.159  36.846   1.609
24819W        W89980  44.301  10.571  13.853
24820W        W89981  43.571  13.327   4.575
24821W        W89982  36.531   3.736   2.402
24822W        W89983  32.492  31.608  12.083
24823W        W89984   4.814  44.816   0.631
24824W        W89985  20.628   4.200   4.065
24825W        W89986  37.624  43.430   0.426
24826W        W89987   0.982  42.857   2.166
24827W        W89988  31.058   8.494   0.294
24828W        W89989  17.572  26.607   2.393
24829W        W89990  19.771  10.247  12.986
24830W        W89991  22.868  35.759  11.917
24831W        W89992  30.444  19.984  11.466
24832W        W89993  30.554  44.887  12.307
24833W        W89994   1.195  35.807  13.331
24834W        W89995  16.847  10.402  14.932
24835W        W89996   2.941   5.670   2.616
24836W        W89997  24.245  10.664  14.900
24837W        W89998  25.164   7.835   2.738
24838W        W89999  42.820   1.895  13.012
24839W        W90000   8.327   1.228   4.508
24840W        W90001  27.152   5.666   3.224
24841W        W90002  36.076  19.505   3.499
24842W        W90003  13.354  41.004  14.860
24843W        W90004   0.796  22.120  14.927
24844W        W90005   4.170   9.655   2.739
24845W        W90006  18.378   4.103   0.427
24846W        W90007  44.578  41.922   2.305
24847W        W90008  43.314  18.269   4.457
24848W        W90009  20.940   3.488   4.400
24849W        W90010  26.675  37.598   0.471
24850W        W90011  26.997  33.094   2.260
24851W        W90012  37.065   5.165   1.828
24852W        W90013  20.507  15.044  11.622
24853W        W90014   7.222   2.513  14.727
24854W        W90015  11.366  23.140  11.997
24855W        W90016  37.350  31.095  13.504
24856W        W90017  22.113  19.242   9.852
24857W        W90018   5.782  11.746  13.550
24858W        W90019  42.819  25.671  13.983
24859W        W90020  31.002  35.959  11.523
24860W        W90021  33.372  14.675  14.506
24861W        W90022  17.169  28.406  14.200
24862W        W90023   8.724  29.523   5.114
24863W        W90024  34.096   4.891  11.206
24864W        W90025  11.146  29.175   4.502
24865W        W90026  28.995   0.899   0.186
24866W        W90027  22.149  25.596   3.867
24867W        W90028   2.703   1.247   3.637
24868W        W90029   2.771   1.827   0.180
24869W        W90030  35.695  44.789   1.443
24870W        W90031  31.397  29.108   4.584
24871W        W90032   4.417   6.761  14.391
24872W        W90033   5.140  22.761  10.540
24873W        W90034  11.599   1.922   4.580
24874W        W90035   7.679  39.778   4.512
24875W        W90036   2.173  37.297   9.773
24876W        W90037  11.527   7.521   2.603
24877W        W90038  20.588   4.744  14.462
24878W        W90039   2.520  32.454  13.368
24879W        W90040  32.957   8.356   1.582
24880W        W90041   5.670  39.559   1.916
24881W        W90042  14.234  36.094   1.201
24882W        W90043   4.422  15.574  11.620
24883W        W90044  32.878  41.412  12.014
24884W        W90045  38.486   5.031  10.978
24885W        W90046   9.613  30.861  13.993
24886W        W90047  17.285  10.851   3.476
24887W        W90048  35.002  16.785   1.678
24888W        W90049  36.710  28.534   2.048
24889W        W90050  18.713   0.812  10.073
24890W        W90051  14.401  33.079  12.460
24891W        W90052  31.957  22.138   3.149
24892W        W90053  33.795  20.989   2.840
24893W        W90054   1.685  16.268  11.511
24894W        W90055  16.617  34.322   3.553
24895W        W90056  34.779  26.554  13.416
24896W        W90057  33.603  21.314   1.353
24897W        W90058  26.488  42.531  12.246
24898W        W90059  17.283   8.696  11.945
24899W        W90060   8.852  40.273  11.896
24900W        W90061  17.266  44.642  14.004
24901W        W90062  34.352  15.528  12.079
24902W        W90063   1.509  10.697   1.887
24903W        W90064   9.331  19.279   3.282
24904W        W90065  12.376  26.202  13.390
24905W        W90066  23.517  26.246   4.557
24906W        W90067  33.032  43.514   3.732
24907W        W90068  38.538  35.329  11.876
24908W        W90069   5.966  18.258  12.946
24909W        W90070  15.205  14.321   3.956
24910W        W90071   9.736  42.897  13.328
24911W        W90072  36.954   1.507   4.134
24912W        W90073  12.818  43.838   3.771
24913W        W90074  41.871  43.918   3.416
24914W        W90075  14.176  38.862   4.858
24915W        W90076   7.032   4.984   1.690
24916W        W90077  30.172  39.226   2.144
24917W        W90078   9.430  32.644   0.561
24918W        W90079   4.756  34.037   5.063
24919W        W90080  41.535  29.878   2.831
24920W        W90081  32.698  16.174   1.690
24921W        W90082  25.731  37.703   4.242
24922W        W90083  34.560  16.702  13.422
24923W        W90084  38.495  42.075  12.385
24924W        W90085  39.789   5.301  13.965
24925W        W90086  42.410  21.679  14.020
24926W        W90087  24.509  43.887   1.738
24927W        W90088  21.223  24.678  13.464
24928W        W90089  20.828  17.309   2.701
24929W        W90090  17.331  15.950   2.553
24930W        W90091  41.009  44.470  13.438
24931W        W90092  18.345  20.235   3.036
24932W        W90093  11.272   9.670  13.628
24933W        W90094  26.479  27.970  14.740
24934W        W90095  17.521   9.838  11.479
24935W        W90096   5.799   9.378   1.498
24936W        W90097  10.036  13.161   0.371
24937W        W90098  26.562   6.363  12.407
24938W        W90099  12.098  42.505   4.120
24939W        W90100   0.883  14.907   2.342
24940W        W90101   9.806  16.546   3.888
24941W        W90102  35.930  10.398   4.359
24942W        W90103   8.961  18.547  13.941
24943W        W90104  18.148  19.831   1.215
24944W        W90105  11.677  33.612  11.865
24945W        W90106  42.911  12.541  13.353
24946W        W90107   6.834  18.603  13.352
24947W        W90108  43.462  11.861   4.536
24948W        W90109  15.334  29.392   2.853
24949W        W90110  28.708  42.511  14.025
24950W        W90111  38.043   1.749   0.016
24951W        W90112  30.000  16.750  13.909
24952W        W90113  38.038  13.725  12.048
24953W        W90114  34.191   7.882  13.877
24954W        W90115  37.014  12.167  10.705
24955W        W90116   0.188  27.626   0.486
24956W        W90117   9.831  10.945   2.315
24957W        W90118   1.467   4.386  10.796
24958W        W90119  33.187  21.041   1.265
24959W        W90120  36.359   4.797  14.704
24960W        W90121  10.671   4.099   0.334
24961W        W90122   4.260  16.571  12.357
24962W        W90123   7.137  26.043  14.426
24963W        W90124  12.341  19.252  13.989
24964W        W90125  29.547  41.355   2.361
24965W        W90126   6.823   8.660   5.090
24966W        W90127  44.638   5.971   1.917
24967W        W90128  26.935   0.240  12.433
24968W        W90129  32.541  19.993  14.969
24969W        W90130  32.935  18.115   3.328
24970W        W90131  42.038  13.280   2.185
24971W        W90132  30.433  14.139  11.501
24972W        W90133   3.616  31.662   3.535
24973W        W90134  37.064   0.915  13.601
24974W        W90135  12.450  21.153   3.959
24975W        W90136  10.603  31.816   4.612
24976W        W90137  12.651   6.784  14.393
24977W        W90138   0.263  43.805   2.698
24978W        W90139  35.311   1.493  14.593
24979W        W90140  44.196  31.494  11.232
24980W        W90141  25.484   2.173   3.568
24981W        W90142   3.326  41.079  14.338
24982W        W90143   3.380   7.985  12.897
24983W        W90144   6.429  37.334  10.632
24984W        W90145  17.349  16.534   3.148
24985W        W90146  35.565  37.320  14.873
24986W        W90147  37.623  15.359  10.749
24987W        W90148  10.882  28.200  14.497
24988W        W90149   5.430  31.154  14.098
24989W        W90150  15.550  13.219  13.172
24990W        W90151  43.820  23.794  13.003
24991W        W90152  42.509  10.990  10.647
24992W        W90153  30.986   1.229   0.937
24993W        W90154  42.750  37.350  14.086
24994W        W90155  28.553  13.155  11.418
24995W        W90156  10.723   8.916  12.564
24996W        W90157  27.832  43.742  11.986
24997W        W90158  27.160   8.886   0.649
24998W        W90159  20.132  44.366  13.846
24999W        W90160  25.990  17.942  13.824
25000W        W90161  40.424   7.092   0.791
25001W        W90162   4.315  37.874  14.451
25002W        W90163  11.741   2.444   0.923
25003W        W90164  44.941  31.097   3.882
25004W        W90165  36.530  22.262   1.796
25005W        W90166   4.982  27.041   3.275
25006W        W90167  39.037  13.813  11.126
25007W        W90168  23.908  40.007   4.301
25008W        W90169  31.980   4.249   0.180
25009W        W90170  41.212  10.171   2.807
25010W        W90171  35.567  27.570  12.039
25011W        W90172  26.000   3.580   3.697
25012W        W90173  17.498  22.880   3.606
25013W        W90174  43.589  25.582   2.697
25014W        W90175  10.790  11.275   4.115
25015W        W90176  11.436  25.940  11.162
25016W        W90177  41.237  32.129  13.034
25017W        W90178  14.568  34.662   3.873
25018W        W90179  36.983  28.092  11.617
25019W        W90180   5.283  41.809  10.819
25020W        W90181   8.384  13.598  13.545
25021W        W90182  34.990  12.611  14.433
25022W        W90183  37.154  26.512  12.842
25023W        W90184  14.619  14.601   1.817
25024W        W90185  13.814  32.053   1.858
25025W        W90186  39.802  36.019  13.008
25026W        W90187   9.139  20.559   0.264
25027W        W90188  17.916  23.057   0.708
25028W        W90189  28.112   1.171  14.899
25029W        W90190   9.727  34.872  12.054
25030W        W90191   6.742   8.933   0.291
25031W        W90192  36.473   2.384   1.599
25032W        W90193   5.000  31.965  13.693
25033W        W90194  14.425  18.684   2.837
25034W        W90195   4.392  12.678   4.617
25035W        W90196  27.123  40.342   2.311
25036W        W90197  14.346  15.618  10.701
25037W        W90198  12.039  27.145   2.648
25038W        W90199  20.342  27.144  14.776
25039W        W90200  10.181  25.595   0.259
25040W        W90201   6.557  44.125   3.545
25041W        W90202  12.611  33.687  13.177
25042W        W90203   9.027  35.521   3.725
25043W        W90204  11.718  32.010  12.060
25044W        W90205   3.951  40.060   2.455
25045W        W90206  24.862  20.573   1.399
25046W        W90207  41.831  15.212  14.402
25047W        W90208  29.960   4.355  13.750
25048W        W90209  34.207  21.724   2.384
25049W        W90210   7.096  16.272  13.036
25050W        W90211  13.348  42.532  12.689
25051W        W90212  37.344  12.746   2.776
25052W        W90213  40.399  23.809   0.802
25053W        W90214  30.920   0.801  14.508
25054W        W90215  44.194  25.258   5.036
25055W        W90216  11.868  30.572   2.725
25056W        W90217  21.600  42.018   4.003
25057W        W90218  12.793   9.349   0.777
25058W        W90219  41.897   2.341   4.459
25059W        W90220  40.465  15.201   2.392
25060W        W90221  36.592  39.525  11.629
25061W        W90222  31.059  19.432   0.285
25062W        W90223   3.799  28.026   0.348
25063W        W90224  12.528  33.105   3.921
25064W        W90225  26.724  14.309  12.018
25065W        W90226  13.536   9.893  11.598
25066W        W90227  42.765  10.040   0.848
25067W        W90228  30.057   1.039   3.967
25068W        W90229  22.092  36.643  11.165
25069W        W90230  37.643  36.345  13.976
25070W        W90231  28.377  31.917   0.977
25071W        W90232  35.893  31.222  12.980
25072W        W90233  33.411  17.772   4.552
25073W        W90234  41.968  16.530  11.999
25074W        W90235  17.628  41.411  13.416
25075W        W90236  29.539   1.095   1.253
25076W        W90237  23.625  25.004  12.586
25077W        W90238  40.431  26.623  10.717
25078W        W90239  12.139  42.920  12.970
25079W        W90240   1.791  22.695   2.704
25080W        W90241   6.806  18.099  14.840
25081W        W90242   2.543  36.970  12.475
25082W        W90243   9.493  10.865   0.742
25083W        W90244  12.387  17.701   1.009
25084W        W90245  15.047  39.878  12.212
25085W        W90246   5.208   2.453  11.791
25086W        W90247  21.597  22.739   2.643
25087W        W90248   6.803  43.901   4.881
25088W        W90249  25.729  16.849  11.042
25089W        W90250  41.553   0.276  11.094
25090W        W90251  41.846  14.696   4.546
25091W        W90252  34.197  33.105  13.887
25092W        W90253  30.015   4.329  14.766
25093W        W90254  32.133  44.439   0.030
25094W        W90255  32.547  38.320   3.095
25095W        W90256  35.866  22.821   4.673
25096W        W90257  40.011  25.246  12.337
25097W        W90258   4.531  26.268   2.662
25098W        W90259   9.713  10.265   3.299
25099W        W90260  44.530   8.327  11.101
25100W        W90261  43.474  12.299  14.864
25101W        W90262  29.316  16.109  13.118
25102W        W90263   8.385   9.643  14.849
25103W        W90264  20.572   9.580  12.669
25104W        W90265   9.138  17.658   0.801
25105W        W90266   6.864  28.923   1.856
25106W        W90267  23.714  36.940   4.033
25107W        W90268  35.367  12.288   1.436
25108W        W90269   8.611   6.393  11.190
25109W        W90270   6.668  11.816  14.738
25110W        W90271   0.966   1.759   1.193
25111W        W90272   2.885  35.926  13.876
25112W        W90273  43.948  13.461   5.157
25113W        W90274  41.335  12.172   0.730
25114W        W90275  28.599  39.810  14.696
25115W        W90276  39.283   8.977   1.497
25116W        W90277  31.988  34.548   2.722
25117W        W90278  12.379  13.580  11.075
25118W        W90279  38.388  39.792  11.984
25119W        W90280  41.473  10.800  10.776
25120W        W90281  19.590   8.732  11.509
25121W        W90282  23.344  40.848   0.874
25122W        W90283   8.725  11.378   2.726
25123W        W90284  36.993  12.781   4.903
25124W        W90285   7.749  23.701   3.155
25125W        W90286  11.744  44.113  13.170
25126W        W90287  17.528  28.396   4.825
25127W        W90288  37.667  35.124   3.857
25128W        W90289  41.783   4.769   3.709
25129W        W90290  13.274  25.199  14.415
25130W        W90291  24.676  10.973  14.800
25131W        W90292  10.225  16.781  12.876
25132W        W90293  10.365  30.477   0.844
25133W        W90294  30.247  20.272   1.898
25134W        W90295  42.368  29.639   3.292
25135W        W90296  19.468  36.287   3.224
25136W        W90297   2.821  39.959  13.167
25137W        W90298   2.718  41.185   3.148
25138W        W90299  12.476  24.908   0.475
25139W        W90300  37.148  36.016   3.667
25140W        W90301   3.469  36.033   1.782
25141W        W90302  12.694   7.178   1.587
25142W        W90303   0.823  25.211   1.338
25143W        W90304  17.041  19.239  14.025
25144W        W90305  39.803  42.493   0.206
25145W        W90306   1.210  32.871   2.582
25146W        W90307  30.997   2.050  11.123
25147W        W90308  32.571  28.421  13.556
25148W        W90309  34.484  44.851  13.173
25149W        W90310  18.549  16.264  14.961
25150W        W90311   8.708  35.417  10.724
25151W        W90312  21.038   9.916   4.396
25152W        W90313  17.642  13.329  14.015
25153W        W90314  40.327  12.162   2.678
25154W        W90315  33.777  35.041  14.087
25155W        W90316  15.459  22.934   5.019
25156W        W90317  28.512   3.465   4.643
25157W        W90318  35.000  12.106   1.801
25158W        W90319  42.269  33.521   4.866
25159W        W90320  41.183  40.131  13.455
25160W        W90321  35.931  34.172  13.995
25161W        W90322  32.456   1.881  11.314
25162W        W90323  15.090  16.618  14.838
25163W        W90324   2.660  39.537   5.166
25164W        W90325  38.351  19.644  14.312
25165W        W90326  27.282  15.294   1.197
25166W        W90327  29.634  21.337   2.859
25167W        W90328  21.794  37.142   3.152
25168W        W90329  29.421   0.808  13.406
25169W        W90330  25.207   5.288  10.654
25170W        W90331  21.529  35.114   3.707
25171W        W90332  37.548  33.126  13.002
25172W        W90333  30.159   7.651  11.634
25173W        W90334   9.378  41.340   0.990
25174W        W90335  28.896  41.304   0.819
25175W        W90336  43.947  16.303  11.074
25176W        W90337  34.902  17.832  12.120
25177W        W90338  28.677  35.892   4.873
25178W        W90339  25.685  42.589  12.313
25179W        W90340   9.011  35.060   0.909
25180W        W90341   6.295  36.457   4.036
25181W        W90342  36.839  28.221   3.344
25182W        W90343  33.770  33.901  12.344
25183W        W90344  30.882  37.493  12.600
25184W        W90345  30.990  39.155   2.161
25185W        W90346  38.652  12.233  13.994
25186W        W90347  44.880  27.736  11.010
25187W        W90348   2.259  35.866  13.403
25188W        W90349  38.657  14.744   1.841
25189W        W90350  13.246   2.782   4.059
25190W        W90351  32.759   9.302   3.058
25191W        W90352  26.459  43.245  11.150
25192W        W90353  32.391  10.275  13.018
25193W        W90354  41.055  33.080   2.692
25194W        W90355  21.161  21.498   1.657
25195W        W90356  26.735  18.337  11.169
25196W        W90357  23.986  25.535  13.619
25197W        W90358  35.997  16.325  11.588
25198W        W90359  33.821  10.865  13.439
25199W        W90360  33.551  28.202   2.331
25200W        W90361  15.123  21.459  14.899
25201W        W90362  43.822  43.472   4.114
25202W        W90363  20.622  36.171  11.170
25203W        W90364  34.638  18.482  12.957
25204W        W90365  35.142  27.214  14.838
25205W        W90366   8.296  33.998   4.620
25206W        W90367  20.212  35.644  14.242
25207W        W90368  22.962  43.504   4.385
25208W        W90369  36.628   4.895   1.737
25209W        W90370  36.593  40.949   0.846
25210W        W90371  40.858  13.627   0.420
25211W        W90372  10.124  39.727  12.578
25212W        W90373  12.394   1.344  14.389
25213W        W90374   6.763  24.241  13.549
25214W        W90375   3.845  31.734   4.780
25215W        W90376  30.398  21.789   4.251
25216W        W90377  44.834  10.689   1.714
25217W        W90378  28.482  23.094   5.250
25218W        W90379  13.440  22.114   3.562
25219W        W90380  16.604   1.842  13.996
25220W        W90381   0.545  40.253   1.785
25221W        W90382  18.210   1.967   4.705
25222W        W90383  19.386  13.548   2.370
25223W        W90384  22.735  29.785  12.466
25224W        W90385   7.230  41.343   1.344
25225W        W90386  22.933   2.635  12.118
25226W        W90387  24.960  29.391   4.203
25227W        W90388  38.602  27.507   0.838
25228W        W90389  13.607  44.853  10.623
25229W        W90390  33.446   3.805  12.147
25230W        W90391  22.619   5.857  11.808
25231W        W90392  40.873  16.659  12.571
25232W        W90393   2.478  15.136  11.462
25233W        W90394   8.885  12.837   1.887
25234W        W90395  10.424  22.710  13.984
25235W        W90396  32.952  13.237   2.767
25236W        W90397  23.036  42.307  11.966
25237W        W90398  44.664  13.615   2.145
25238W        W90399  35.753   9.487  11.524
25239W        W90400  40.478  14.438   2.835
25240W        W90401  41.274  17.112   3.293
25241W        W90402  35.270   9.701  12.949
25242W        W90403   7.792  16.965   4.090
25243W        W90404  34.993   1.989  11.277
25244W        W90405  27.012  28.685  11.148
25245W        W90406  25.552  28.902  11.588
25246W        W90407  27.654  40.227  10.754
25247W        W90408  12.336  22.887  12.895
25248W        W90409  16.873  39.433  10.216
25249W        W90410  33.172   6.377   3.784
25250W        W90411   3.829  12.417  13.078
25251W        W90412  29.456  26.695   2.742
25252W        W90413   8.575   1.827  13.379
25253W        W90414  19.359   5.399  11.882
25254W        W90415  42.921   8.164  10.579
25255W        W90416  33.831  23.027   2.721
25256W        W90417   2.987  20.660   1.332
25257W        W90418   8.382  44.235   0.877
25258W        W90419  23.181   4.455   0.707
25259W        W90420  22.390  33.826  13.404
25260W        W90421  17.812  24.199   0.304
25261W        W90422  34.795   0.450  14.995
25262W        W90423  25.147  39.043  12.485
25263W        W90424  28.216  18.286   4.540
25264W        W90425  36.382  40.050  14.834
25265W        W90426  13.119  29.559  14.434
25266W        W90427  18.182  32.958   0.415
25267W        W90428  11.163  43.330   3.442
25268W        W90429   4.990  40.947  11.044
25269W        W90430  23.921  23.554   0.386
25270W        W90431  40.916  38.470  14.719
25271W        W90432  14.157  36.635  14.324
25272W        W90433  27.644  10.892   4.104
25273W        W90434  37.047  20.614  12.616
25274W        W90435  42.491  10.488   3.261
25275W        W90436  21.479  19.462   0.873
25276W        W90437  17.813  27.116  11.041
25277W        W90438  15.199  30.346   2.694
25278W        W90439  15.784  17.281   4.705
25279W        W90440  41.448  15.808   1.659
25280W        W90441  39.973  31.886   3.184
25281W        W90442  32.419   2.168  11.882
25282W        W90443  34.790  22.741  10.002
25283W        W90444  17.237  38.700  14.269
25284W        W90445  32.462   6.726   1.209
25285W        W90446  10.725   2.853   0.959
25286W        W90447   1.922  28.961   0.008
25287W        W90448  10.477  10.760   1.934
25288W        W90449  16.784  12.675  12.055
25289W        W90450  41.879  41.027  14.125
25290W        W90451  27.838  13.964   1.168
25291W        W90452  11.144  40.910   1.340
25292W        W90453  44.619  12.600   0.214
25293W        W90454  42.878  20.027  10.710
25294W        W90455  34.621   4.594  14.401
25295W        W90456  26.474  26.200   3.300
25296W        W90457  30.984  27.723   3.975
25297W        W90458  11.361  29.664   2.690
25298W        W90459  38.028   6.792   1.258
25299W        W90460   6.387   9.073  10.974
25300W        W90461   0.633  11.995  13.868
25301W        W90462  44.251   3.135  10.233
25302W        W90463  28.089  34.282   1.625
25303W        W90464  40.433  38.979  13.699
25304W        W90465  43.078  28.906  13.915
25305W        W90466   8.270  21.168   9.989
25306W        W90467  32.571  25.148  14.418
25307W        W90468  11.125  32.930  14.714
25308W        W90469  15.834  29.188   0.425
25309W        W90470   6.873   2.889  14.865
25310W        W90471  34.458   4.921   4.914
25311W        W90472  28.510  35.120  13.537
25312W        W90473   5.834  31.115   4.632
25313W        W90474  17.447  23.143  10.757
25314W        W90475  37.164  21.682   5.335
25315W        W90476  26.115   1.692   3.275
25316W        W90477  14.165  26.514   2.432
25317W        W90478  16.498  10.723  12.030
25318W        W90479   3.447  18.683   1.376
25319W        W90480  20.168  37.913  13.515
25320W        W90481  33.685  32.677  13.827
25321W        W90482  18.399  20.279  14.880
25322W        W90483   7.725   6.394  14.918
25323W        W90484  38.265  43.221   0.888
25324W        W90485   3.486   9.216  12.349
25325W        W90486  34.448  19.787  14.993
25326W        W90487  43.795  14.106   4.204
25327W        W90488  44.479  41.787  11.076
25328W        W90489  17.953  25.656   3.901
25329W        W90490  44.274   4.643  13.920
25330W        W90491  42.547  42.863  10.487
25331W        W90492  24.210  37.096  11.196
25332W        W90493  42.436  37.787  12.962
25333W        W90494  29.407  27.966  12.002
25334W        W90495  10.997  17.087  14.930
25335W        W90496  19.687  36.925   0.295
25336W        W90497  26.088  21.529   0.010
25337W        W90498  40.176  35.662   0.510
25338W        W90499  17.858  34.870  13.882
25339W        W90500  36.109   2.766  14.290
25340W        W90501  19.330  18.788  12.519
25341W        W90502  13.707  42.154  13.566
25342W        W90503  18.470  36.465   4.093
25343W        W90504  29.403  12.523  10.650
25344W        W90505   4.886  29.336  11.648
25345W        W90506  14.396  29.007   1.109
25346W        W90507  11.232  22.221  12.999
25347W        W90508  41.808  38.244   4.543
25348W        W90509  18.721  19.841   1.463
25349W        W90510  20.594  42.587   0.169
25350W        W90511  23.089   6.367   4.641
25351W        W90512  40.029  44.597   2.782
25352W        W90513   2.256   3.378  12.359
25353W        W90514   4.856   5.411   2.725
25354W        W90515  39.926  31.407   3.380
25355W        W90516  29.806  20.192  14.299
25356W        W90517   7.672  40.390  10.934
25357W        W90518  19.549  23.371   0.504
25358W        W90519   7.977  14.732  12.677
25359W        W90520  12.029  40.828  14.754
25360W        W90521  26.102  23.444  12.565
25361W        W90522  10.747  38.527   1.469
25362W        W90523   3.293  20.263   0.413
25363W        W90524  34.809  26.058   4.380
25364W        W90525  11.242  17.605  10.969
25365W        W90526  30.758  24.709   3.184
25366W        W90527  24.151  23.214   3.171
25367W        W90528   2.214  25.273   1.390
25368W        W90529  34.924   4.378  14.025
25369W        W90530  39.362   8.377   1.280
25370W        W90531  14.458  18.677   3.714
25371W        W90532  26.200  43.470  11.539
25372W        W90533  36.284  27.407   1.287
25373W        W90534  36.998  37.499   3.090
25374W        W90535  13.530   2.010  14.857
25375W        W90536  25.134   4.963  11.525
25376W        W90537  23.255   2.705   1.427
25377W        W90538  35.026  36.654  12.670
25378W        W90539   4.655  17.241  12.086
25379W        W90540  24.683  40.382  11.631
25380W        W90541  36.116   2.667   3.917
25381W        W90542  44.851  31.896   1.366
25382W        W90543  14.895  16.004   3.152
25383W        W90544  42.561  19.239  14.767
25384W        W90545  26.926  33.547  10.798
25385W        W90546   9.826   9.863   2.705
25386W        W90547  17.073  37.661  14.370
25387W        W90548  34.052  31.192  13.430
25388W        W90549   4.714  19.504  12.996
25389W        W90550  39.077  11.799   1.326
25390W        W90551  27.188  34.750  13.296
25391W        W90552   8.733  43.635  14.027
25392W        W90553  18.066   2.711   3.516
25393W        W90554  10.393   0.199   0.380
25394W        W90555  32.961  27.477   2.251
25395W        W90556  28.490  42.270   2.751
25396W        W90557   4.554  44.728   0.202
25397W        W90558  23.250  37.481  11.162
25398W        W90559   2.195  44.988   1.486
25399W        W90560   9.857   4.542   0.298
25400W        W90561  34.020  29.281   5.041
25401W        W90562   4.499  23.514   3.549
25402W        W90563   5.758  38.547   0.554
25403W        W90564  15.290  24.966   3.748
25404W        W90565  41.449  44.806   1.122
25405W        W90566  19.426  19.820   2.475
25406W        W90567  40.878  20.252   2.387
25407W        W90568   9.596  23.856   0.813
25408W        W90569   6.686  25.953  14.066
25409W        W90570  22.695   6.014  12.282
25410W        W90571   5.391  41.276  11.196
25411W        W90572  37.348  14.923   4.645
25412W        W90573  11.828  18.992  11.200
25413W        W90574   3.246  35.480  12.014
25414W        W90575   8.813  27.157   1.677
25415W        W90576  24.007   8.614  13.343
25416W        W90577  15.675   2.379   4.431
25417W        W90578  39.931   9.646  13.864
25418W        W90579   0.444   0.010   4.452
25419W        W90580  21.844  30.492   0.879
25420W        W90581  12.749  41.371   2.483
25421W        W90582  42.768  38.479   0.509
25422W        W90583  22.606  14.774  12.806
25423W        W90584  41.322  37.994  10.315
25424W        W90585  27.167  25.991  13.814
25425W        W90586   8.595  37.810   5.348
25426W        W90587  15.571   7.532   1.747
25427W        W90588  36.802  42.266  14.784
25428W        W90589  29.762  31.229   1.852
25429W        W90590  19.279  18.359   5.488
25430W        W90591  26.657  32.565   2.024
25431W        W90592  36.907  19.557   0.820
25432W        W90593  30.471   5.426  12.567
25433W        W90594  42.795  13.131  13.351
25434W        W90595  38.460  12.311   0.284
25435W        W90596  33.977   3.574   4.457
25436W        W90597  31.894  32.587   2.544
25437W        W90598  42.740  23.550  13.739
25438W        W90599  13.881   5.208   2.777
25439W        W90600  44.015   8.174   2.323
25440W        W90601  14.400  18.091   3.366
25441W        W90602  34.633   2.511   2.868
25442W        W90603  15.659  29.283   2.281
25443W        W90604   6.635  37.950   1.254
25444W        W90605  23.505   8.232  13.233
25445W        W90606  35.468   8.685  11.722
25446W        W90607  38.752  21.001  11.961
25447W        W90608  36.912   6.293   4.568
25448W        W90609   1.940  33.604  12.056
25449W        W90610  23.766  44.327  14.883
25450W        W90611  20.251  36.881   2.661
25451W        W90612  12.591  24.468   3.652
25452W        W90613  35.901  15.994   3.379
25453W        W90614  24.719  35.528  12.026
25454W        W90615  40.764  35.567   3.696
25455W        W90616  22.974   7.346  12.918
25456W        W90617  24.252  18.147   4.168
25457W        W90618   5.870  12.466   0.398
25458W        W90619  20.077  15.634   1.898
25459W        W90620  43.518  10.836  12.166
25460W        W90621  35.414  41.445   0.393
25461W        W90622  35.376  11.536  14.103
25462W        W90623  15.916  34.941  14.830
25463W        W90624  36.637  24.621  12.331
25464W        W90625   5.270   8.454  10.515
25465W        W90626   9.059  43.030  10.120
25466W        W90627   5.638  30.529   0.878
25467W        W90628  15.686  33.616   1.343
25468W        W90629   8.221  23.884  13.982
25469W        W90630  32.403  44.334  12.534
25470W        W90631  23.485  38.565   3.279
25471W        W90632  20.658  12.842  12.463
25472W        W90633  30.623  35.726   0.099
25473W        W90634   9.750  39.491  11.391
25474W        W90635  13.161   4.918  10.980
25475W        W90636  31.368  38.724  10.255
25476W        W90637   2.854   6.960   0.373
25477W        W90638  33.140  30.391   3.881
25478W        W90639  29.577  10.810   4.559
25479W        W90640   9.860  24.924   2.457
25480W        W90641   3.914  32.118  11.139
25481W        W90642  44.291   8.897   1.929
25482W        W90643  33.392  37.961   4.971
25483W        W90644   5.425   6.983   3.537
25484W        W90645  26.224   0.805  12.561
25485W        W90646  21.230  23.589   1.421
25486W        W90647  40.425  22.967  14.355
25487W        W90648   8.961  35.981  11.517
25488W        W90649  18.196   9.818  14.935
25489W        W90650  37.046  20.766  13.491
25490W        W90651  28.597  41.381  14.877
25491W        W90652  29.008  40.666  14.021
25492W        W90653  12.391  10.248   3.073
25493W        W90654  31.703   9.690   4.717
25494W        W90655  42.718  18.093  12.221
25495W        W90656  39.578  12.512  14.328
25496W        W90657  29.016   9.901   0.743
25497W        W90658   7.258  36.536  14.831
25498W        W90659  17.655  39.309   0.059
25499W        W90660   0.776   2.313   4.180
25500W        W90661  13.076  14.770   2.681
25501W        W90662  30.157  25.147  11.420
25502W        W90663  28.178  24.645  12.522
25503W        W90664   2.142  14.640  13.253
25504W        W90665  36.081  40.301  13.159
25505W        W90666  22.756  13.542   1.497
25506W        W90667  35.989  30.813  12.354
25507W        W90668  38.391  32.091  12.671
25508W        W90669  27.385   3.160  12.508
25509W        W90670  41.758  39.791  14.830
25510W        W90671  28.496  17.736  12.145
25511W        W90672   4.858  44.044  14.883
25512W        W90673  40.494  25.712   0.344
25513W        W90674   5.545  40.744   1.389
25514W        W90675  30.923  21.768   9.799
25515W        W90676  40.673  20.116  11.180
25516W        W90677  24.199  40.741   1.137
25517W        W90678  18.790  35.138   4.284
25518W        W90679   0.516  39.579   5.410
25519W        W90680   6.147   0.858   2.278
25520W        W90681  20.091  32.965   0.399
25521W        W90682  18.049  24.348  10.784
25522W        W90683   2.773  14.994   2.900
25523W        W90684  32.028  12.194   0.086
25524W        W90685   2.275  42.222  14.333
25525W        W90686  33.811  33.469  13.250
25526W        W90687  32.401  17.063   2.649
25527W        W90688  20.190  17.798   3.101
25528W        W90689  11.436  42.752   1.684
25529W        W90690  32.698   0.431  11.656
25530W        W90691   7.072  34.274   4.484
25531W        W90692  36.199   2.164  13.506
25532W        W90693   1.774  28.656  13.470
25533W        W90694   7.662  19.003  12.861
25534W        W90695   9.751  23.300   1.215
25535W        W90696  10.208  12.236   0.009
25536W        W90697  22.154  28.654  14.776
25537W        W90698   2.772   9.789   4.897
25538W        W90699  15.066   6.788  10.721
25539W        W90700   2.228  22.981  13.359
25540W        W90701  14.174  40.809  13.996
25541W        W90702   8.231  37.586  13.494
25542W        W90703  30.017   9.673   0.836
25543W        W90704  29.693  25.581   3.194
25544W        W90705  37.382  15.565   1.411
25545W        W90706  38.390   5.681   0.383
25546W        W90707  41.093  39.808  14.297
25547W        W90708  24.649   7.825   2.785
25548W        W90709  39.644  31.131   1.727
25549W        W90710  14.217  41.306  14.722
25550W        W90711  10.960  40.068  13.507
25551W        W90712  22.121  36.540   4.428
25552W        W90713  15.202  41.296   0.872
25553W        W90714  19.680  28.771  11.596
25554W        W90715  20.150  21.143   0.802
25555W        W90716  25.282  32.565  13.902
25556W        W90717  31.629   7.935   0.396
25557W        W90718   4.181  31.375   2.863
25558W        W90719  14.511  19.535   4.599
25559W        W90720  21.256  36.834   4.967
25560W        W90721  21.187  39.882  14.689
25561W        W90722   8.831  23.740  14.426
25562W        W90723  30.692  27.006  11.642
25563W        W90724  31.076  22.604   1.335
25564W        W90725   1.863   8.952   2.880
25565W        W90726  13.562  40.563   9.850
25566W        W90727   3.634  44.949   2.854
25567W        W90728   9.628  10.622   0.254
25568W        W90729  42.862  19.525  12.114
25569W        W90730  33.684  44.880   3.729
25570W        W90731  12.345  40.225   2.218
25571W        W90732  10.230  17.278   5.188
25572W        W90733  18.678  35.929   0.428
25573W        W90734  12.431  27.076   2.987
25574W        W90735  16.630  17.715   5.632
25575W        W90736   8.945   6.090  14.519
25576W        W90737  24.134   8.908  12.029
25577W        W90738  41.916  25.734   3.115
25578W        W90739  14.187  12.680   1.024
25579W        W90740  37.507   0.685   0.915
25580W        W90741  26.234  34.051   2.844
25581W        W90742  12.214  24.278  12.877
25582W        W90743   2.536  34.829  12.171
25583W        W90744  30.455  10.839  13.241
25584W        W90745  36.067  41.084   1.337
25585W        W90746  20.056   6.888   0.048
25586W        W90747  41.833  27.859  12.861
25587W        W90748  37.547  11.070   0.385
25588W        W90749  32.595  41.091  12.342
25589W        W90750   6.350  42.784  12.886
25590W        W90751   7.392  11.827  14.294
25591W        W90752   9.283   6.322  12.298
25592W        W90753   7.411  22.690   2.878
25593W        W90754  42.780  42.512  14.438
25594W        W90755  41.350  24.128   3.873
25595W        W90756  30.425  25.489   3.754
25596W        W90757   1.654  26.007  14.509
25597W        W90758   1.740  14.265   0.429
25598W        W90759  41.000  20.187   4.278
25599W        W90760  26.002   2.999  13.606
25600W        W90761  17.325  13.162   2.348
25601W        W90762  39.835   6.669   1.489
25602W        W90763   8.858  30.278  12.146
25603W        W90764  10.923  31.809  11.175
25604W        W90765   4.033  11.217   4.138
25605W        W90766  30.451  18.671   1.383
25606W        W90767  38.694  39.179   4.149
25607W        W90768   1.460   9.169   4.103
25608W        W90769  19.354  40.735   4.197
25609W        W90770  24.722  15.735   1.044
25610W        W90771  14.804  26.240  14.330
25611W        W90772   8.995  20.042   0.270
25612W        W90773  14.858   5.236   3.175
25613W        W90774  16.233  41.576  14.432
25614W        W90775   8.757  14.727   3.257
25615W        W90776  17.704   7.264  13.569
25616W        W90777  43.845  42.554   2.610
25617W        W90778   1.264  17.673   2.339
25618W        W90779   2.844   1.389   2.124
25619W        W90780  31.228  10.347  14.792
25620W        W90781  25.475   6.819   4.871
25621W        W90782   1.735  33.058  13.493
25622W        W90783  14.342  20.084  14.258
25623W        W90784  11.346  12.556  14.268
25624W        W90785  42.891  37.401  13.597
25625W        W90786   4.790  31.218   3.865
25626W        W90787  10.884  32.875  13.332
25627W        W90788  10.215   8.346   3.329
25628W        W90789  24.884   6.642   0.344
25629W        W90790  12.174  19.037  13.443
25630W        W90791  25.759  12.915   4.957
25631W        W90792  29.572  39.590  11.734
25632W        W90793   2.242   9.647   0.188
25633W        W90794  17.606   0.160  10.072
25634W        W90795   7.692   1.755  14.474
25635W        W90796   1.759  29.588   2.320
25636W        W90797  27.828  27.627  12.655
25637W        W90798  21.750  32.362   2.446
25638W        W90799  33.612  29.969  14.339
25639W        W90800  11.628   9.372  11.679
25640W        W90801  24.005   6.232   0.032
25641W        W90802   1.047  18.688  12.827
25642W        W90803  21.137   3.922   2.195
25643W        W90804  30.613  19.613   0.433
25644W        W90805  30.054   9.249  12.579
25645W        W90806  20.305  37.013  13.533
25646W        W90807  35.101  24.722   3.770
25647W        W90808   3.407   2.761  12.649
25648W        W90809  31.392  12.353   2.366
25649W        W90810  19.459  40.931  14.299
25650W        W90811  39.135  24.741  13.868
25651W        W90812  15.335  30.395  13.568
25652W        W90813  31.527  33.946  12.672
25653W        W90814   1.286  38.439  13.458
25654W        W90815  20.038  28.292   1.416
25655W        W90816  16.913  17.716  11.037
25656W        W90817  15.835   9.754   2.778
25657W        W90818  35.040  27.565  13.478
25658W        W90819  29.936  42.830   0.476
25659W        W90820  29.610  44.872   4.356
25660W        W90821  19.216   5.629  14.542
25661W        W90822  17.621   5.927   2.168
25662W        W90823  18.794  10.043   4.532
25663W        W90824  12.873  37.699  13.493
25664W        W90825  15.540  43.266   3.291
25665W        W90826   8.632  25.052  11.608
25666W        W90827   1.143   0.145   1.746
25667W        W90828   2.432  33.394  12.008
25668W        W90829   5.357  18.759  12.869
25669W        W90830   8.983  30.424   3.134
25670W        W90831  40.935  17.670  13.230
25671W        W90832  38.318  23.133  12.562
25672W        W90833  12.737   3.475   0.720
25673W        W90834  30.470  22.416   0.876
25674W        W90835  12.324  12.841  14.260
25675W        W90836  28.964   1.789  14.086
25676W        W90837  26.976   5.646   0.305
25677W        W90838  35.872  34.206   0.383
25678W        W90839  36.026  25.503   3.122
25679W        W90840  21.250  29.101   0.689
25680W        W90841  39.465   8.091   2.815
25681W        W90842  29.397  24.565   1.877
25682W        W90843  11.962  42.801   3.694
25683W        W90844  41.566  29.494   3.878
25684W        W90845  30.862  29.193   1.720
25685W        W90846  44.890  42.773  11.660
25686W        W90847   9.071  11.557  12.789
25687W        W90848  20.305  17.179   9.832
25688W        W90849  36.585  23.690   1.735
25689W        W90850  24.402   7.822   2.316
25690W        W90851  21.486  11.026  11.615
25691W        W90852  43.874  21.638  11.878
25692W        W90853  35.885  39.788  12.026
25693W        W90854   3.801   0.669  14.970
25694W        W90855   7.614   1.763  13.923
25695W        W90856  16.118  44.396  11.621
25696W        W90857  40.296  26.966   0.861
25697W        W90858   6.796  30.358   1.882
25698W        W90859  27.011  27.238  11.486
25699W        W90860  18.212  29.460  13.164
25700W        W90861  36.562  15.302  10.753
25701W        W90862   0.437  31.602  14.303
25702W        W90863  36.827   6.725   4.288
25703W        W90864  39.822  40.069  11.998
25704W        W90865   6.138  38.874   2.916
25705W        W90866   8.323   0.850   0.017
25706W        W90867  24.925   4.268   0.452
25707W        W90868  44.469   1.043   4.159
25708W        W90869  12.627  13.411   4.753
25709W        W90870   5.514  24.986  11.555
25710W        W90871   1.814  14.311   4.955
25711W        W90872   8.351  44.448  13.647
25712W        W90873  38.633  41.901   2.789
25713W        W90874  29.461  23.005  13.417
25714W        W90875  16.157  40.556  14.562
25715W        W90876   8.029  16.560  12.587
25716W        W90877  43.127  42.571   3.680
25717W        W90878   8.255  12.739   4.622
25718W        W90879  42.898   3.340   4.053
25719W        W90880  30.654   3.806   2.232
25720W        W90881  18.298  44.269   4.764
25721W        W90882  40.393  31.957  10.676
25722W        W90883  33.668  10.770  11.156
25723W        W90884   9.580   1.750   1.250
25724W        W90885  36.784  32.164   1.696
25725W        W90886  14.254  14.563   2.210
25726W        W90887  19.675  21.135   1.257
25727W        W90888   7.770  36.056  13.026
25728W        W90889   4.890  28.836   4.506
25729W        W90890  19.592   5.284  13.136
25730W        W90891  18.628   9.745   0.879
25731W        W90892  43.339  32.145   1.436
25732W        W90893  34.525   1.952   1.715
25733W        W90894  39.165  42.336   1.037
25734W        W90895  18.096   2.734  14.016
25735W        W90896  36.397   3.543   3.822
25736W        W90897   8.370  25.479  10.755
25737W        W90898  11.866   5.293   0.967
25738W        W90899  39.206  27.564  12.989
25739W        W90900  27.411  24.863   4.084
25740W        W90901  29.893  14.640  14.764
25741W        W90902  22.190  39.794  12.855
25742W        W90903   7.024   6.181  12.567
25743W        W90904   5.937  20.181  10.727
25744W        W90905  43.097  39.146   1.500
25745W        W90906   7.862  22.137  12.702
25746W        W90907  19.745   3.458   1.269
25747W        W90908  19.647  22.208  10.239
25748W        W90909  11.843   6.299  11.521
25749W        W90910  18.159  14.825   2.684
25750W        W90911  26.316  44.331   0.445
25751W        W90912   2.051  43.610   0.617
25752W        W90913  22.956  35.140   2.203
25753W        W90914  38.644  42.435   4.678
25754W        W90915  40.297  24.747   2.720
25755W        W90916  26.550  42.017   0.889
25756W        W90917  26.562  20.997   3.495
25757W        W90918  19.844  32.930  12.427
25758W        W90919  29.184  19.675   4.677
25759W        W90920  33.270   9.495  12.067
25760W        W90921  40.531  23.947   4.099
25761W        W90922  35.457  30.948   0.143
25762W        W90923  26.513  40.721   4.052
25763W        W90924  44.697  14.192   3.243
25764W        W90925  32.030   3.483  11.893
25765W        W90926  12.029  30.981   3.023
25766W        W90927  40.492   5.106  10.683
25767W        W90928  23.596  25.317  11.666
25768W        W90929  12.548   2.134  14.760
25769W        W90930  13.010   2.603  11.937
25770W        W90931  40.447  36.339   4.306
25771W        W90932  12.241  39.358  14.367
25772W        W90933  10.501  23.850   2.795
25773W        W90934   1.847   9.801   1.475
25774W        W90935  22.270  25.977   0.201
25775W        W90936  44.265  27.718  10.574
25776W        W90937   8.372  38.604   3.620
25777W        W90938  44.282  30.041   0.978
25778W        W90939   3.399   2.026   3.709
25779W        W90940  30.498  21.939   5.531
25780W        W90941  14.189  19.660   2.411
25781W        W90942  34.557  37.302   4.336
25782W        W90943   9.712   1.535   0.321
25783W        W90944   3.977  20.932   2.183
25784W        W90945  25.929  11.780   3.605
25785W        W90946   8.473  26.804   4.616
25786W        W90947  33.907   3.045  11.655
25787W        W90948  43.076  42.681  11.216
25788W        W90949  43.305  20.188   4.628
25789W        W90950   7.625  40.261  10.435
25790W        W90951  43.100  41.019  10.732
25791W        W90952  33.874  15.554   3.767
25792W        W90953  38.258  42.473   3.727
25793W        W90954  43.485  34.568  10.291
25794W        W90955  27.784  21.381   3.723
25795W        W90956  32.187  14.833  14.493
25796W        W90957   9.077  33.874  11.996
25797W        W90958   0.922  29.679  11.179
25798W        W90959  44.238  38.310  12.824
25799W        W90960  35.477  43.537  11.072
25800W        W90961   5.264  29.157  12.844
25801W        W90962  30.383   3.230   4.110
25802W        W90963   9.208  29.475  12.019
25803W        W90964  18.196  41.009   2.285
25804W        W90965  44.302  21.157   2.084
25805W        W90966   9.987   9.909   0.908
25806W        W90967  31.603  24.439   1.815
25807W        W90968  22.212  13.329   4.488
25808W        W90969  20.512  36.486   0.579
25809W        W90970  20.051  14.184   0.835
25810W        W90971  44.317  29.563   1.789
25811W        W90972  18.214  43.891  14.920
25812W        W90973  20.732  27.980  13.557
25813W        W90974  30.598  33.575   1.133
25814W        W90975  13.588  43.213  14.681
25815W        W90976  38.505  40.920  14.553
25816W        W90977  40.489   5.943   3.846
25817W        W90978  41.024  36.560  14.744
25818W        W90979  11.769  43.013  10.654
25819W        W90980   0.801  33.168  13.516
25820W        W90981   2.253   9.834  11.190
25821W        W90982  14.058  13.475   1.646
25822W        W90983  23.345  28.491  11.548
25823W        W90984  35.556  44.061   0.997
25824W        W90985  15.616   2.468   1.431
25825W        W90986  28.415   0.965  12.153
25826W        W90987  10.153  27.513  14.230
25827W        W90988  38.862  25.469  14.304
25828W        W90989  21.522  19.117  14.060
25829W        W90990  27.005  28.545   2.599
25830W        W90991   3.796  37.010   4.592
25831W        W90992   9.808   8.275   4.143
25832W        W90993  39.919  41.386  12.638
25833W        W90994  11.676  42.021   1.808
25834W        W90995  24.070  42.476  14.681
25835W        W90996  16.642  31.558   4.549
25836W        W90997   9.058  24.258  10.677
25837W        W90998   0.194  34.528   1.376
25838W        W90999   7.310  19.178  11.083
25839W        W91000  41.979  40.851   0.199
25840W        W91001  28.107  27.677  12.168
25841W        W91002  41.919  22.343  12.883
25842W        W91003  26.921  36.115  12.025
25843W        W91004   9.132  23.497   3.320
25844W        W91005   1.870  27.669   2.394
25845W        W91006  31.356   3.878   1.660
25846W        W91007  13.190  22.712   3.103
25847W        W91008  36.080   6.160  11.205
25848W        W91009  23.776  40.248  12.966
25849W        W91010  32.509  23.283  13.306
25850W        W91011  39.925  13.139   2.318
25851W        W91012  30.860   6.312  14.807
25852W        W91013  31.174   9.630  11.035
25853W        W91014  41.089  43.435   2.874
25854W        W91015  12.659  42.869  13.022
25855W        W91016  41.297  16.275  14.841
25856W        W91017  28.080  15.804   2.867
25857W        W91018  36.450  18.839   0.767
25858W        W91019  12.166  13.148  11.918
25859W        W91020   0.346  43.488   3.114
25860W        W91021  40.670   9.417  10.704
25861W        W91022  39.043  42.237   4.024
25862W        W91023   6.762  16.293   3.139
25863W        W91024  24.411  32.465   4.206
25864W        W91025  38.379   3.748  10.920
25865W        W91026  22.158   3.470   1.814
25866W        W91027  17.068  21.248   4.152
25867W        W91028  25.123  39.578  12.433
25868W        W91029  24.750  21.640  14.255
25869W        W91030  34.798  10.365  10.486
25870W        W91031  36.900   8.792   0.908
25871W        W91032  39.622  44.554  12.779
25872W        W91033  31.949   6.259  13.993
25873W        W91034  35.986  39.824   1.791
25874W        W91035  10.845  42.063  12.943
25875W        W91036   3.367  37.593   2.711
25876W        W91037  12.617  44.263  12.293
25877W        W91038  17.706  42.862   3.566
25878W        W91039   4.183   6.245  14.379
25879W        W91040  44.155  23.681  13.818
25880W        W91041  24.486  19.304   0.897
25881W        W91042  23.069  32.059   1.291
25882W        W91043  27.735   0.768  14.088
25883W        W91044  30.566  26.386  14.936
25884W        W91045  10.357  18.286   1.510
25885W        W91046  37.166   3.221   2.824
25886W        W91047  32.806  15.361   3.154
25887W        W91048  16.674  38.559  10.045
25888W        W91049   0.805  40.562   4.503
25889W        W91050  35.384   3.431  14.228
25890W        W91051  25.600  41.850  14.096
25891W        W91052  32.709  25.263   0.311
25892W        W91053  16.353  19.277  13.387
25893W        W91054  38.890  26.275  10.649
25894W        W91055  30.121  40.585  12.613
25895W        W91056  29.023  27.005   3.391
25896W        W91057   0.371  35.848  13.035
25897W        W91058   5.143  13.676  14.371
25898W        W91059  26.029  38.023   2.321
25899W        W91060  29.287  15.011  12.207
25900W        W91061  20.162  32.472   0.217
25901W        W91062  28.937  31.943   4.758
25902W        W91063   5.713   4.851   4.594
25903W        W91064   8.544   7.353   4.089
25904W        W91065  35.027  31.362  10.945
25905W        W91066  33.882   1.211   3.463
25906W        W91067  14.175  11.886  13.332
25907W        W91068  42.800  10.608   2.324
25908W        W91069   2.804  44.377  13.616
25909W        W91070  12.620  30.671   0.453
25910W        W91071  22.499  41.023   3.169
25911W        W91072   4.023   5.226  13.456
25912W        W91073  35.289   1.573   1.353
25913W        W91074  44.275  16.831  14.185
25914W        W91075  32.324  33.509  12.025
25915W        W91076  19.967  16.136   1.740
25916W        W91077  28.383  34.845   0.394
25917W        W91078  11.897   5.370   3.145
25918W        W91079   4.471   7.387  14.603
25919W        W91080  39.266  38.018  12.557
25920W        W91081  24.010  42.135   1.014
25921W        W91082  38.427  29.658  14.352
25922W        W91083  35.389  28.353  10.956
25923W        W91084  27.717  20.879   3.634
25924W        W91085   4.326  27.466  11.779
25925W        W91086   7.467   9.382   0.420
25926W        W91087  16.298  17.707   2.821
25927W        W91088  13.198  21.249   4.589
25928W        W91089   0.900  21.603  10.608
25929W        W91090  14.344  41.897  13.441
25930W        W91091  13.041  30.460   4.480
25931W        W91092  18.015   4.486   0.499
25932W        W91093  21.201  32.898  11.755
25933W        W91094  33.749  22.538   1.945
25934W        W91095  17.965  35.916  12.423
25935W        W91096  32.022  17.125  13.956
25936W        W91097  32.470  41.396   0.777
25937W        W91098   3.244  28.587   2.589
25938W        W91099   8.772   7.015   3.615
25939W        W91100  13.081  39.032  13.817
25940W        W91101  42.926  16.845   3.618
25941W        W91102  44.990  34.145  10.958
25942W        W91103  34.061   6.189  11.279
25943W        W91104  18.596   7.303  13.843
25944W        W91105  19.287  31.515   0.609
25945W        W91106  43.499   1.840   3.416
25946W        W91107  41.864  33.037  14.576
25947W        W91108  30.522  31.708  13.463
25948W        W91109   6.434  33.555  14.299
25949W        W91110  15.297  34.041  11.093
25950W        W91111   7.534  34.143   1.665
25951W        W91112  12.743   9.865  11.112
25952W        W91113  35.578   8.296   0.913
25953W        W91114  35.803   3.672  11.557
25954W        W91115   1.842   8.825  11.143
25955W        W91116  20.430   7.716   3.670
25956W        W91117  26.062   7.535  11.049
25957W        W91118  14.046   0.749  12.516
25958W        W91119  33.990  11.046  13.929
25959W        W91120  23.680  26.660   1.844
25960W        W91121  26.926  29.517  14.374
25961W        W91122  32.062  28.995  12.136
25962W        W91123  32.439  15.892  10.679
25963W        W91124   9.860  28.414   4.378
25964W        W91125  34.827   8.642   3.734
25965W        W91126  10.549   0.353  11.188
25966W        W91127  11.409  35.804   2.745
25967W        W91128  35.404  14.129  12.115
25968W        W91129  35.624  38.959  11.111
25969W        W91130  27.611  26.073   2.320
25970W        W91131  19.692  36.387   0.544
25971W        W91132   1.627   7.218  12.941
25972W        W91133  32.852  24.623  11.599
25973W        W91134  23.022  30.814  11.060
25974W        W91135  34.344  19.876  12.093
25975W        W91136  34.919  11.996   2.707
25976W        W91137  36.038   4.107  14.590
25977W        W91138  26.247  40.812  12.485
25978W        W91139   6.244   3.315   4.131
25979W        W91140  29.212  28.123  14.624
25980W        W91141  17.705   8.225   0.289
25981W        W91142  40.933   6.950   0.168
25982W        W91143  34.664  41.827  11.703
25983W        W91144  40.127  16.607   0.781
25984W        W91145  15.870   5.708   1.856
25985W        W91146  15.768  23.219  12.368
25986W        W91147  39.988  24.060   3.419
25987W        W91148  22.497  38.816  14.897
25988W        W91149   2.507  36.536   1.115
25989W        W91150   1.546   3.263   3.169
25990W        W91151   8.784  21.262   1.726
25991W        W91152  12.573  22.234   3.010
25992W        W91153   6.839  42.669   2.177
25993W        W91154   1.936  30.427  14.118
25994W        W91155  37.990  23.568   2.439
25995W        W91156  15.009  36.096  12.765
25996W        W91157  25.954  26.691   3.675
25997W        W91158  12.097  11.756   4.182
25998W        W91159  24.154   8.410  11.177
25999W        W91160   8.621  37.415  13.812
26000W        W91161   3.415  24.505  11.069
26001W        W91162  22.660   4.767  11.617
26002W        W91163  42.051  21.401   2.479
26003W        W91164   4.261  21.479   1.771
26004W        W91165  17.744   3.371   3.683
26005W        W91166  44.059  12.850   9.483
26006W        W91167   9.181  35.549   0.874
26007W        W91168   9.860  29.816   3.210
26008W        W91169   9.390   6.601  13.780
26009W        W91170  44.678   6.101  10.051
26010W        W91171  19.416  16.175   4.018
26011W        W91172  17.320  20.495  13.479
26012W        W91173  16.757   6.679   1.682
26013W        W91174  14.988  28.976   3.606
26014W        W91175  38.935  17.806   3.118
26015W        W91176  44.098  27.594  12.067
26016W        W91177   2.828  38.364   1.600
26017W        W91178  18.663  43.366   0.836
26018W        W91179  32.367  18.031   0.327
26019W        W91180   4.917  32.925   3.227
26020W        W91181  30.960   5.269  12.462
26021W        W91182   0.308   8.690   1.428
26022W        W91183  20.259  30.565  10.713
26023W        W91184  26.715  37.542   2.316
26024W        W91185   8.653  10.392   1.318
26025W        W91186  31.484  21.046   4.506
26026W        W91187  40.341  19.709  14.928
26027W        W91188  44.778  10.756  10.877
26028W        W91189  24.912  35.834  11.059
26029W        W91190  25.211  16.778   2.399
26030W        W91191  27.578  35.066   0.060
26031W        W91192  15.961  37.009   2.899
26032W        W91193  17.864  25.646  13.512
26033W        W91194  36.117   0.408  11.456
26034W        W91195  43.698  18.219   4.131
26035W        W91196  22.974  39.381  11.879
26036W        W91197   3.471   5.321   3.210
26037W        W91198  20.526  30.556  12.950
26038W        W91199  14.516  36.983  11.689
26039W        W91200  23.123   0.705   2.734
26040W        W91201  16.356  12.197  10.694
26041W        W91202  35.028  37.926  13.322
26042W        W91203   0.051   8.120  13.630
26043W        W91204   3.203  23.758  13.947
26044W        W91205  24.748  21.964   3.164
26045W        W91206  17.279   0.766  14.963
26046W        W91207  26.516  30.277  10.224
26047W        W91208   5.610  40.512  14.338
26048W        W91209  25.608  18.331   4.594
26049W        W91210  25.392   6.317  14.541
26050W        W91211   6.406  24.341   2.444
26051W        W91212  40.156  37.570   0.330
26052W        W91213  27.157   2.253  11.154
26053W        W91214  25.691  40.301  11.534
26054W        W91215  14.763   2.003   2.275
26055W        W91216  16.921  16.234   1.764
26056W        W91217  28.175  30.320  12.214
26057W        W91218  14.121  14.598   1.711
26058W        W91219  26.125  13.872   1.628
26059W        W91220  25.987  39.833  12.529
26060W        W91221  32.419  32.458   4.933
26061W        W91222  21.284  40.408   3.293
26062W        W91223  41.906  17.367  14.799
26063W        W91224  15.177  44.880  12.566
26064W        W91225   0.300  41.352  11.108
26065W        W91226  44.963  35.185   1.875
26066W        W91227   4.987  10.205  13.557
26067W        W91228  34.811  15.376   2.698
26068W        W91229  22.301  10.686   4.503
26069W        W91230  38.977  38.464   3.098
26070W        W91231  42.583  14.284  10.579
26071W        W91232   0.098  40.561   2.925
26072W        W91233  16.890  18.163  10.769
26073W        W91234  44.506  29.786   3.907
26074W        W91235  41.576   2.852   3.231
26075W        W91236  18.647  22.636  12.140
26076W        W91237  39.635   0.395  13.090
26077W        W91238  34.317  26.512  12.443
26078W        W91239  22.120  17.078  11.018
26079W        W91240  26.207   3.558  10.736
26080W        W91241  37.748   1.835  10.149
26081W        W91242  35.184   6.007   3.681
26082W        W91243  33.408  38.572  12.068
26083W        W91244   8.265  20.257   2.809
26084W        W91245  41.585  44.810  12.947
26085W        W91246  29.972  13.042   2.688
26086W        W91247  15.236  13.401  14.006
26087W        W91248  20.784  36.566  12.894
26088W        W91249  13.870  34.397  12.181
26089W        W91250  16.131  20.105   0.424
26090W        W91251  14.177   3.486  12.488
26091W        W91252   4.175  23.674   2.612
26092W        W91253  36.476  11.427   5.202
26093W        W91254  10.305  44.805  13.438
26094W        W91255   0.240  32.670  12.833
26095W        W91256  14.062  41.310  13.912
26096W        W91257  41.013  41.783   1.803
26097W        W91258  16.325  23.190  14.223
26098W        W91259  18.363   0.034  14.245
26099W        W91260  22.631  24.177   0.287
26100W        W91261  36.383  28.081  14.842
26101W        W91262  16.585  31.202  11.710
26102W        W91263  21.756   8.234  10.894
26103W        W91264  35.044   6.461   4.555
26104W        W91265  39.878   3.961   2.616
26105W        W91266  42.282   3.313  13.552
26106W        W91267  42.296   4.744  13.777
26107W        W91268   7.348  14.376  10.688
26108W        W91269  36.590  27.380   1.713
26109W        W91270  30.597  22.626  12.147
26110W        W91271  21.673   4.518  11.342
26111W        W91272  25.739  30.503  13.591
26112W        W91273   9.545  16.180   1.026
26113W        W91274  25.639  35.440  10.664
26114W        W91275  33.612  40.414   0.844
26115W        W91276  31.149  40.563  13.369
26116W        W91277  28.994  44.105   3.518
26117W        W91278  33.858  30.050  10.602
26118W        W91279  36.270  41.105   1.829
26119W        W91280  28.821  25.477  14.803
26120W        W91281  30.638  27.903   0.849
26121W        W91282   4.660   4.922  13.063
26122W        W91283  14.260   4.241   1.269
26123W        W91284   9.839  19.310  13.431
26124W        W91285  30.586  31.602   3.592
26125W        W91286  39.806  10.168   3.618
26126W        W91287  34.348  24.040  12.925
26127W        W91288  34.128   1.193  13.371
26128W        W91289  29.188  44.400   4.371
26129W        W91290  40.160  14.167  10.586
26130W        W91291  42.517  38.545  13.392
26131W        W91292  37.830  31.426  12.420
26132W        W91293   1.052  13.999   3.418
26133W        W91294  25.074   0.892   1.753
26134W        W91295  11.151  37.043  12.586
26135W        W91296  35.928  39.509   1.376
26136W        W91297  25.731  40.391  13.390
26137W        W91298  28.051  43.447  10.152
26138W        W91299  20.512   7.868  14.841
26139W        W91300   5.531  32.071  14.562
26140W        W91301  43.926  26.470  14.843
26141W        W91302  17.024  37.136  12.788
26142W        W91303   6.439  20.452  12.473
26143W        W91304  30.551  38.366  11.572
26144W        W91305   2.360  31.207  10.793
26145W        W91306  18.085   4.771  11.920
26146W        W91307  20.246  38.300   2.791
26147W        W91308  32.424  38.632   2.688
26148W        W91309  27.082  21.067   2.681
26149W        W91310  37.869  42.534  14.912
26150W        W91311  21.600  32.959  10.788
26151W        W91312  14.922  23.694   5.138
26152W        W91313  21.797  37.522   2.190
26153W        W91314  27.503  23.129   4.975
26154W        W91315  30.989  31.440  10.526
26155W        W91316  11.731   5.823   4.593
26156W        W91317  22.026  25.626  10.756
26157W        W91318   2.392  34.477   3.107
26158W        W91319  15.475  13.727   2.199
26159W        W91320  24.619  19.065  11.339
26160W        W91321  30.017  17.402  11.501
26161W        W91322  41.121  11.898  11.780
26162W        W91323  37.059  38.647   5.460
26163W        W91324  33.125   7.775  10.675
26164W        W91325  23.823  15.718   0.636
26165W        W91326  37.624  20.195   1.254
26166W        W91327   2.512  10.208  13.429
26167W        W91328  16.231   6.907   1.938
26168W        W91329  27.170   4.712   2.337
26169W        W91330   1.039   9.895  13.201
26170W        W91331   9.763  37.936   4.536
26171W        W91332  37.148  24.420  11.062
26172W        W91333  30.165  31.677  11.581
26173W        W91334  25.174  31.319  13.520
26174W        W91335  33.718  17.818  12.846
26175W        W91336   6.673  16.651  10.572
26176W        W91337   7.611  36.009  12.478
26177W        W91338  22.283  31.492  14.467
26178W        W91339  17.264  41.099   1.601
26179W        W91340  26.440  16.505  12.430
26180W        W91341  11.845  14.377   0.743
26181W        W91342  18.519  37.102  12.966
26182W        W91343  14.867  30.396  14.501
26183W        W91344  16.354  30.958   0.424
26184W        W91345   2.910  13.537  14.493
26185W        W91346  26.704   0.449  11.992
26186W        W91347  19.851   8.808  11.971
26187W        W91348  27.722  36.145   2.361
26188W        W91349  19.741  25.460   2.032
26189W        W91350   8.334  20.349   4.241
26190W        W91351   2.868  36.928   4.181
26191W        W91352  23.147  23.035   5.581
26192W        W91353  13.157  38.821   4.486
26193W        W91354  29.090  24.812  14.406
26194W        W91355  20.407  31.293   5.067
26195W        W91356   9.513  41.326  14.365
26196W        W91357  16.072   0.022  12.108
26197W        W91358  21.757  30.135  13.299
26198W        W91359  14.763   2.961   3.720
26199W        W91360  13.165   6.735  12.956
26200W        W91361  44.817  28.906   2.809
26201W        W91362  11.121  26.941   2.485
26202W        W91363  14.942  38.478   2.348
26203W        W91364  30.595  32.384   2.277
26204W        W91365  32.092  35.482  11.181
26205W        W91366  44.888  19.142  14.816
26206W        W91367  15.974  31.879  14.350
26207W        W91368  12.595  44.179   3.156
26208W        W91369   0.441  17.756  11.220
26209W        W91370  17.746  39.349  14.526
26210W        W91371  39.175  40.199   2.264
26211W        W91372  36.664  30.031   4.263
26212W        W91373   1.237  27.515   1.794
26213W        W91374  38.996  31.946   2.395
26214W        W91375  40.059   1.357  14.017
26215W        W91376  20.148  12.792  12.437
26216W        W91377   7.216   8.143   2.694
26217W        W91378  28.494  25.704   2.835
26218W        W91379  20.844  26.621   1.984
26219W        W91380  34.507  31.312  13.175
26220W        W91381   3.255  44.452   4.544
26221W        W91382  11.008  12.056   2.771
26222W        W91383   5.709  22.887   3.770
26223W        W91384  10.662   0.849   3.911
26224W        W91385   5.851   8.555   3.845
26225W        W91386  44.353  41.882   4.836
26226W        W91387  33.557  33.012   4.836
26227W        W91388   5.228  25.336   3.668
26228W        W91389  31.536  20.698  11.216
26229W        W91390  25.209  14.209  12.992
26230W        W91391  15.809  31.037   3.177
26231W        W91392  33.439  28.943   3.041
26232W        W91393  37.012  25.705   4.170
26233W        W91394  12.190  16.743   2.123
26234W        W91395  41.970   3.001  12.966
26235W        W91396  20.070   9.620   0.869
26236W        W91397  14.529  25.054   0.499
26237W        W91398  34.467  39.780   1.957
26238W        W91399  26.530  20.680  13.610
26239W        W91400   2.756  42.382   1.845
26240W        W91401  12.635  20.281  10.969
26241W        W91402  44.783   7.945  10.764
26242W        W91403  27.559  23.634   3.207
26243W        W91404  44.283  33.614   0.857
26244W        W91405   3.634  18.231  14.304
26245W        W91406   2.348  18.570  14.037
26246W        W91407  30.169  36.770  13.102
26247W        W91408  14.143  13.603  14.961
26248W        W91409  44.390  34.615   0.242
26249W        W91410  35.419  21.671  14.378
26250W        W91411  27.362  23.205   0.222
26251W        W91412  24.664   8.189  13.798
26252W        W91413   6.324  28.048   2.181
26253W        W91414  13.306  33.661  14.675
26254W        W91415  18.990   5.860   2.770
26255W        W91416  28.606  23.640  14.660
26256W        W91417  33.366  14.653   2.728
26257W        W91418  29.606  36.853  14.147
26258W        W91419  27.273  34.764  12.413
26259W        W91420  12.578   9.920   4.556
26260W        W91421  44.776  44.758  13.898
26261W        W91422  26.260  18.592  14.323
26262W        W91423  32.037  39.034   1.211
26263W        W91424  42.469  43.738   2.782
26264W        W91425  23.584   1.880   2.339
26265W        W91426  12.630  10.173  10.708
26266W        W91427  25.549   8.731  10.395
26267W        W91428  34.185  11.826   2.881
26268W        W91429  33.088   1.977  10.403
26269W        W91430  44.892   0.948  14.193
26270W        W91431  12.507  17.599  11.500
26271W        W91432  29.077  16.666  13.415
26272W        W91433   5.779  27.065  11.585
26273W        W91434  38.082  13.736   0.012
26274W        W91435  12.598  39.354  14.916
26275W        W91436  17.591  43.410  13.895
26276W        W91437  30.426  32.047   0.451
26277W        W91438  18.629  28.699  13.958
26278W        W91439  13.089   1.643   3.377
26279W        W91440  19.114  19.626  13.127
26280W        W91441  43.934  34.897   5.070
26281W        W91442   1.874   5.713  12.560
26282W        W91443  29.988  38.575  12.630
26283W        W91444  37.366  11.831   0.904
26284W        W91445   8.228   1.687   3.169
26285W        W91446  22.400  41.439   4.721
26286W        W91447  41.351  41.418   0.413
26287W        W91448   3.038  44.454   4.074
26288W        W91449  21.647  29.967   0.210
26289W        W91450  20.289  18.815  13.428
26290W        W91451  44.451  20.057  11.837
26291W        W91452  43.405  29.472  12.734
26292W        W91453  18.906  22.071   4.603
26293W        W91454   8.982  15.913   4.237
26294W        W91455  23.071  41.532   2.333
26295W        W91456  37.807  29.577   4.649
26296W        W91457  19.766  20.454   2.404
26297W        W91458  42.304  31.455  13.371
26298W        W91459  19.694  38.517  11.265
26299W        W91460  13.130   3.214  14.218
26300W        W91461  14.024  14.821   0.259
26301W        W91462  44.001  36.020   4.152
26302W        W91463  11.407  41.495  11.935
26303W        W91464   7.861  32.761   3.533
26304W        W91465   4.675  42.482  12.093
26305W        W91466  36.525  20.430   1.651
26306W        W91467  17.512  35.559  11.526
26307W        W91468  43.377  25.092   1.007
26308W        W91469  12.549  11.682   2.823
26309W        W91470  26.695   2.895   0.876
26310W        W91471  21.846  32.562  14.781
26311W        W91472   6.288  26.348   3.123
26312W        W91473  31.151  25.071   3.847
26313W        W91474   3.254  21.870  14.407
26314W        W91475  39.208  35.129  12.473
26315W        W91476  18.825  30.407   2.361
26316W        W91477  21.284  41.723   3.654
26317W        W91478   8.653  12.640  12.096
26318W        W91479  30.119   5.320   0.260
26319W        W91480  41.943   0.771   5.023
26320W        W91481   7.394  44.358   0.521
26321W        W91482   1.352  11.213  11.806
26322W        W91483   6.877   1.160  14.273
26323W        W91484   4.371  42.519   1.775
26324W        W91485  17.551   8.999  14.480
26325W        W91486   6.341  36.830   4.453
26326W        W91487  32.004  15.030  10.915
26327W        W91488  39.721  32.914   4.185
26328W        W91489  23.766   9.941   2.337
26329W        W91490  31.985  26.161  11.397
26330W        W91491   7.913   1.314  14.359
26331W        W91492   5.828  26.912  13.307
26332W        W91493   3.865  41.561   1.042
26333W        W91494  30.570  20.614   4.649
26334W        W91495   6.875  21.520  14.949
26335W        W91496  11.837  37.762  11.456
26336W        W91497  22.027  41.350  12.413
26337W        W91498  19.025  26.078  12.440
26338W        W91499   7.235  28.584   1.614
26339W        W91500   9.426  25.355   5.083
26340W        W91501  39.403  26.569   0.157
26341W        W91502   2.850  33.442   1.690
26342W        W91503   0.866  39.980   5.697
26343W        W91504  16.321  43.842   2.328
26344W        W91505  23.199  41.210  14.161
26345W        W91506   7.883  21.282  13.917
26346W        W91507  38.373   9.917  12.052
26347W        W91508  39.370   0.719   4.218
26348W        W91509  34.479   9.652  12.490
26349W        W91510  12.649  17.322   0.731
26350W        W91511  44.774   2.946  11.121
26351W        W91512   5.636  30.210  14.374
26352W        W91513  29.544  36.277   2.271
26353W        W91514  22.471   9.240  13.867
26354W        W91515  11.685  36.061  11.978
26355W        W91516   4.374  13.025  12.446
26356W        W91517  41.743  36.923   1.197
26357W        W91518  41.773  26.619  11.275
26358W        W91519  22.055  37.624   4.294
26359W        W91520  17.020  31.979  11.156
26360W        W91521  14.276  20.040  11.217
26361W        W91522   8.435  11.311   1.350
26362W        W91523  37.449  13.699   1.481
26363W        W91524  14.622  29.646   3.224
26364W        W91525  23.460  28.530   1.801
26365W        W91526  44.965   4.912   2.295
26366W        W91527   5.307   1.844   4.640
26367W        W91528  30.984  17.567   2.764
26368W        W91529   0.436   3.146  12.974
26369W        W91530  37.098  17.149   2.999
26370W        W91531   8.362  18.309  11.871
26371W        W91532  41.317  38.657   3.322
26372W        W91533  37.539  32.473   0.693
26373W        W91534  40.476  13.681  13.482
26374W        W91535  33.032   1.009  13.453
26375W        W91536  38.019  37.296   2.403
26376W        W91537   6.593  23.222   0.554
26377W        W91538  14.675  17.677  14.216
26378W        W91539  30.924  25.581   2.175
26379W        W91540  21.486  10.194   3.727
26380W        W91541  42.764  10.173   3.550
26381W        W91542  12.114   8.913   0.685
26382W        W91543  22.255  36.064   4.192
26383W        W91544  22.030  25.974  14.501
26384W        W91545   0.251  14.539  12.607
26385W        W91546  16.244   3.639   3.578
26386W        W91547  33.220  16.721  14.445
26387W        W91548  39.377  44.765   1.840
26388W        W91549  29.620  28.713  12.504
26389W        W91550  30.540  18.343   2.383
26390W        W91551  27.732  11.945   1.787
26391W        W91552  24.025  31.617  14.005
26392W        W91553  39.473  43.264   0.848
26393W        W91554   2.919  26.433  14.789
26394W        W91555  14.616  33.759  12.297
26395W        W91556   1.846  23.409  14.234
26396W        W91557  19.408  44.681  14.334
26397W        W91558  22.807  38.272  10.269
26398W        W91559  43.872  32.509  12.650
26399W        W91560  27.149   3.896   2.690
26400W        W91561  17.555  29.341   2.642
26401W        W91562  38.415   4.816   9.981
26402W        W91563  32.401  40.867   1.774
26403W        W91564  28.447  17.508   0.052
26404W        W91565  20.081  10.501   3.639
26405W        W91566  30.565  10.807   2.759
26406W        W91567  39.833  16.657  12.478
26407W        W91568   9.695  16.817  10.569
26408W        W91569  33.025  33.435  13.435
26409W        W91570  36.687  35.738  12.027
26410W        W91571  17.362  11.873  12.052
26411W        W91572  31.079  27.421  14.243
26412W        W91573  25.174   9.599  10.294
26413W        W91574  19.271  21.869  11.294
26414W        W91575  39.969  25.272   2.081
26415W        W91576  32.323  28.706   4.286
26416W        W91577  25.241  23.501   2.856
26417W        W91578  17.177  38.441   3.186
26418W        W91579  21.040  44.877  13.096
26419W        W91580   9.741  43.411  12.553
26420W        W91581  33.040  34.690   2.194
26421W        W91582  41.951  33.355  10.308
26422W        W91583  15.989  38.020   1.326
26423W        W91584  41.381  31.179   1.276
26424W        W91585  31.068  37.987   2.014
26425W        W91586   6.499  28.006   3.667
26426W        W91587   3.380  37.875  12.857
26427W        W91588  11.438  23.892  13.385
26428W        W91589   1.698   3.314  13.957
26429W        W91590  44.967  10.538   3.154
26430W        W91591  41.879  41.876  12.105
26431W        W91592  19.416  44.494   0.779
26432W        W91593  36.108  30.463  13.574
26433W        W91594   1.348  36.711  13.218
26434W        W91595   1.023  28.052   2.182
26435W        W91596  22.012  16.386   3.068
26436W        W91597   7.181   9.744   3.633
26437W        W91598  21.098   6.520  13.561
26438W        W91599   6.969  10.846  14.468
26439W        W91600  20.915  17.112  14.588
26440W        W91601  38.137  40.392  11.869
26441W        W91602  33.457  41.584   4.354
26442W        W91603  15.247  20.572   0.489
26443W        W91604  13.656  43.773   4.085
26444W        W91605  21.049   6.981  14.370
26445W        W91606  40.625  28.350   0.808
26446W        W91607   4.382  23.666   5.471
26447W        W91608  21.435  25.534   2.243
26448W        W91609  32.089   2.855   2.230
26449W        W91610  15.584  10.254   0.349
26450W        W91611  22.722  15.136   0.070
26451W        W91612   4.928  29.572   3.795
26452W        W91613  44.075  19.730   0.065
26453W        W91614  37.609   6.422   2.323
26454W        W91615  23.862   6.169   4.174
26455W        W91616  30.105   4.000   1.529
26456W        W91617  21.222  31.399   0.244
26457W        W91618  43.304  15.244  13.127
26458W        W91619  41.527   3.314   2.269
26459W        W91620  32.364  24.366   5.295
26460W        W91621  29.191   1.939   0.433
26461W        W91622  14.212  20.479  11.541
26462W        W91623  22.652  42.420   2.734
26463W        W91624   4.328  23.206   4.742
26464W        W91625  29.484  30.716  13.214
26465W        W91626   9.116   8.765  14.508
26466W        W91627  39.512   5.134  12.034
26467W        W91628  29.411  38.059   5.661
26468W        W91629   4.661  25.652  12.915
26469W        W91630   7.880  25.163  12.118
26470W        W91631  15.064  37.846   2.843
26471W        W91632  13.495  11.145   0.391
26472W        W91633   5.908  39.384   4.137
26473W        W91634  43.065  13.148  12.528
26474W        W91635  44.767   7.249   1.007
26475W        W91636  40.052   1.500   3.619
26476W        W91637  27.201   1.642   3.237
26477W        W91638   5.191   5.769   4.342
26478W        W91639  11.111  41.930  10.633
26479W        W91640  44.805   8.895  13.935
26480W        W91641  14.854   0.197  12.862
26481W        W91642  33.967  39.561  13.903
26482W        W91643  12.891  19.120   2.258
26483W        W91644   4.139  43.491  11.463
26484W        W91645  19.318  44.448  13.027
26485W        W91646   4.262   9.023   0.486
26486W        W91647  32.175  27.950  14.982
26487W        W91648  28.955  37.134  10.630
26488W        W91649  40.047  18.883   3.809
26489W        W91650  30.108  21.235   0.296
26490W        W91651  37.913  25.823   3.275
26491W        W91652   5.765  41.562  13.539
26492W        W91653  14.106  28.129   4.634
26493W        W91654  11.429   2.391  13.523
26494W        W91655  31.206  40.351   0.277
26495W        W91656  32.449  23.969   2.097
26496W        W91657  22.183  27.167   0.317
26497W        W91658   1.027  23.126  14.304
26498W        W91659  30.713  31.421   0.958
26499W        W91660  23.130  41.497  14.960
26500W        W91661   6.290  27.287   2.892
26501W        W91662  28.983  29.158   4.410
26502W        W91663  12.522  10.107   4.073
26503W        W91664  15.278  16.407  10.332
26504W        W91665   3.266  36.052   1.310
26505W        W91666   8.405  22.097   0.354
26506W        W91667  37.497  35.383  14.276
26507W        W91668  31.111  40.541   4.205
26508W        W91669  20.959  25.992  12.071
26509W        W91670  10.796   2.648   4.474
26510W        W91671  42.389   9.878  14.497
26511W        W91672  43.500   7.289  13.533
26512W        W91673  39.297   1.411  12.426
26513W        W91674  31.006  20.616  13.568
26514W        W91675  27.348  31.915   1.784
26515W        W91676  40.441  14.045   4.608
26516W        W91677   3.326  35.038  13.430
26517W        W91678  24.912  28.155  13.512
26518W        W91679  26.073  40.042   5.032
26519W        W91680  26.506  10.337   2.276
26520W        W91681  27.695  13.258   1.933
26521W        W91682  20.530  40.055   2.848
26522W        W91683  21.065   9.367  14.756
26523W        W91684   6.041  15.538  13.404
26524W        W91685  27.965   3.970  11.050
26525W        W91686  33.518  11.236  14.720
26526W        W91687  40.422  20.607  12.030
26527W        W91688  42.878  24.126   2.506
26528W        W91689   0.272   6.393   0.959
26529W        W91690  20.640  31.964  14.869
26530W        W91691  31.962  32.448   3.565
26531W        W91692  23.643   1.375   4.165
26532W        W91693   1.706   2.315  13.054
26533W        W91694   0.337  19.005  11.747
26534W        W91695  21.296  32.570   4.734
26535W        W91696  43.691  23.454  13.825
26536W        W91697  37.217  22.077   2.197
26537W        W91698   1.981  37.311   4.095
26538W        W91699  20.169  44.591  13.372
26539W        W91700  33.896  35.740  13.556
26540W        W91701  33.103   2.718   1.936
26541W        W91702  28.726  43.769   0.341
26542W        W91703  25.269  29.740  10.806
26543W        W91704  37.461  38.506   3.959
26544W        W91705  34.975  13.446   1.424
26545W        W91706  43.724  42.907  13.549
26546W        W91707  43.377  30.550  11.570
26547W        W91708   2.511  28.560   1.300
26548W        W91709  11.239   9.892   1.251
26549W        W91710  19.111  17.699   3.310
26550W        W91711  30.148  41.919  14.751
26551W        W91712  36.582  40.855   2.886
26552W        W91713  33.348  38.400  12.920
26553W        W91714  25.239  23.929   4.509
26554W        W91715  15.179  14.044  14.892
26555W        W91716  38.602  19.520  12.972
26556W        W91717  24.646  29.322  12.513
26557W        W91718  14.997  27.310   4.210
26558W        W91719   4.660  37.360   3.255
26559W        W91720  23.434  22.470   1.789
26560W        W91721   9.223  32.973   0.173
26561W        W91722  25.626  23.640  12.317
26562W        W91723  23.347  15.658   0.836
26563W        W91724  42.943   0.838  14.477
26564W        W91725  31.604  43.282  14.206
26565W        W91726  10.291  40.803   0.947
26566W        W91727   9.189   7.635  13.567
26567W        W91728   0.848  30.528  12.399
26568W        W91729  34.948  39.462   0.391
26569W        W91730  12.692  32.744  11.129
26570W        W91731   6.328  43.888  14.159
26571W        W91732   8.134  42.887  13.056
26572W        W91733   4.270  29.032  13.124
26573W        W91734  15.128   9.772  13.056
26574W        W91735  23.256  22.393  12.015
26575W        W91736  18.832  25.501  13.417
26576W        W91737   6.996   9.785   3.157
26577W        W91738  38.085  19.673   4.135
26578W        W91739  34.775  38.001   2.678
26579W        W91740   2.821   1.904  12.577
26580W        W91741  21.098  16.365   0.826
26581W        W91742  27.741  44.302   4.742
26582W        W91743  16.250  29.180   0.825
26583W        W91744  31.591   6.289   1.238
26584W        W91745  22.066  20.571   3.270
26585W        W91746  35.852  34.033   4.103
26586W        W91747  22.760  10.541   4.313
26587W        W91748   3.133  21.154  13.884
26588W        W91749   2.402  22.315   4.550
26589W        W91750  29.471  14.595  11.579
26590W        W91751   6.341   1.899   3.640
26591W        W91752   5.681  26.332  13.396
26592W        W91753  18.725   7.361  13.315
26593W        W91754   4.310  22.865  12.237
26594W        W91755  10.668  41.681   0.979
26595W        W91756  40.604  24.394  11.619
26596W        W91757  27.601  24.985  14.799
26597W        W91758  18.265  34.670   2.851
26598W        W91759  26.714  35.097   3.681
26599W        W91760  20.396  10.120  11.889
26600W        W91761  31.237  33.958   1.576
26601W        W91762  33.106  26.188  14.469
26602W        W91763  41.493  38.382  13.481
26603W        W91764   1.732  44.312   4.307
26604W        W91765  42.268   7.880  13.486
26605W        W91766   7.204  40.840   1.428
26606W        W91767  10.421  38.680   0.159
26607W        W91768  27.333  40.370  10.355
26608W        W91769  29.727  30.702   2.761
26609W        W91770  36.143  15.598   4.122
26610W        W91771  20.968  11.815   2.421
26611W        W91772  11.249  11.248   0.799
26612W        W91773  10.823  43.254   0.986
26613W        W91774  20.139  41.274   4.989
26614W        W91775   8.603  39.986  12.814
26615W        W91776  20.766  24.734   1.960
26616W        W91777  23.076  39.947  13.650
26617W        W91778  24.189  33.984   2.805
26618W        W91779  40.785  24.683  14.828
26619W        W91780   5.768   5.146  11.621
26620W        W91781  11.589  30.141  10.545
26621W        W91782  44.353   5.511  13.551
26622W        W91783  10.373  39.506   0.385
26623W        W91784  15.278  42.103   1.467
26624W        W91785  14.086   5.298   1.867
26625W        W91786  29.923  42.991   1.391
26626W        W91787  28.997   2.367  11.677
26627W        W91788  38.459  34.363   3.905
26628W        W91789  39.933  34.910   1.714
26629W        W91790  20.808  23.192   5.040
26630W        W91791  20.645  36.922   0.340
26631W        W91792   3.930  43.903   0.420
26632W        W91793  41.402  13.832  13.381
26633W        W91794  33.045  34.339  11.934
26634W        W91795  16.969   7.343   9.699
26635W        W91796  10.702  10.899  12.474
26636W        W91797   7.881  11.125   4.108
26637W        W91798  35.463  15.786  12.312
26638W        W91799  19.691  34.335  13.813
26639W        W91800  32.067  11.936  11.969
26640W        W91801  26.415  18.177  14.736
26641W        W91802   2.532   2.851  13.532
26642W        W91803  36.846   7.260  13.599
26643W        W91804  18.323  22.479   1.394
26644W        W91805  26.283  25.278   0.253
26645W        W91806  29.578  37.880  14.405
26646W        W91807  38.363  15.039  12.969
26647W        W91808  21.977  44.397   3.277
26648W        W91809  27.211   1.445  14.480
26649W        W91810  21.613  35.854   0.446
26650W        W91811  36.540  29.441  14.766
26651W        W91812  44.297  37.522   1.775
26652W        W91813  34.630   5.114  14.404
26653W        W91814  12.574  25.392  11.244
26654W        W91815   5.336  15.401  14.772
26655W        W91816  44.465   5.546  12.575
26656W        W91817  24.355  33.201  14.440
26657W        W91818   7.769  42.766  14.323
26658W        W91819  36.452  42.107   0.787
26659W        W91820  29.970  10.519   2.024
26660W        W91821  15.668   0.788  13.159
26661W        W91822   5.956  37.252  10.848
26662W        W91823  27.227  25.061   0.594
26663W        W91824  42.992   0.770   0.805
26664W        W91825   9.817  11.185  11.893
26665W        W91826   6.785  18.632   1.639
26666W        W91827  32.504  24.950  12.644
26667W        W91828  41.838  36.622  13.177
26668W        W91829  26.759  14.133  12.910
26669W        W91830  44.802  24.662   0.431
26670W        W91831  29.783   8.782   2.652
26671W        W91832  31.919  42.621   4.161
26672W        W91833  37.843  12.451   3.498
26673W        W91834   7.977   1.958   0.292
26674W        W91835  42.780  30.175  14.395
26675W        W91836  20.495  12.902   1.177
26676W        W91837  19.111  42.952  11.659
26677W        W91838  40.545  40.821   2.635
26678W        W91839   3.357  10.467  13.234
26679W        W91840  22.945   3.459   1.051
26680W        W91841  21.591  18.049   0.821
26681W        W91842  36.695  33.175  13.361
26682W        W91843   7.102  22.086   1.250
26683W        W91844   8.444  36.906   0.431
26684W        W91845  29.821   0.639   9.672
26685W        W91846  40.810  40.751  12.369
26686W        W91847  31.335   3.397   0.303
26687W        W91848  43.999   0.579   3.163
26688W        W91849  18.641  37.449  12.170
26689W        W91850  13.856  28.384   1.256
26690W        W91851  20.677  40.888   0.704
26691W        W91852  44.843  40.264  12.327
26692W        W91853  33.526  41.270  10.190
26693W        W91854  44.830  34.353  12.579
26694W        W91855  16.852   2.837  13.350
26695W        W91856  10.839  16.710  13.603
26696W        W91857  33.709  14.924  13.176
26697W        W91858  38.583  23.890  11.642
26698W        W91859  17.870  26.745   2.816
26699W        W91860  29.626   6.536   4.195
26700W        W91861   8.042  23.068   1.792
26701W        W91862  42.833  24.618   3.802
26702W        W91863  15.071  17.195   0.395
26703W        W91864  43.328  21.691   3.715
26704W        W91865  20.701  16.781  12.857
26705W        W91866  25.930   4.096   3.719
26706W        W91867  31.009  22.308   3.178
26707W        W91868  15.360  28.069  10.646
26708W        W91869  15.002  34.618   4.159
26709W        W91870  11.145  15.508   1.181
26710W        W91871  16.471  42.355   3.674
26711W        W91872  26.718   5.002   2.307
26712W        W91873   5.799  22.147  10.760
26713W        W91874  34.841   6.822  11.679
26714W        W91875  40.097  22.522  10.707
26715W        W91876   1.199  25.264   0.992
26716W        W91877  25.113   0.855  12.587
26717W        W91878  18.043  21.476  11.928
26718W        W91879   8.008  43.469   2.032
26719W        W91880  42.649   3.209   0.405
26720W        W91881  25.149  40.037  10.532
26721W        W91882  44.448   6.263   4.944
26722W        W91883  24.674   9.904  11.134
26723W        W91884  38.717  21.753  12.546
26724W        W91885  18.695   4.982   0.736
26725W        W91886  30.446  44.429   4.696
26726W        W91887  35.273  16.741   2.920
26727W        W91888   0.491  25.016   4.995
26728W        W91889   3.171  20.137  14.933
26729W        W91890  27.934  14.424   1.412
26730W        W91891  37.092  23.539  13.964
26731W        W91892   6.259  36.055  12.908
26732W        W91893  10.815   7.544   3.551
26733W        W91894   4.573  33.168   1.467
26734W        W91895  11.915   4.743   1.760
26735W        W91896  30.494  24.111  12.447
26736W        W91897  16.326  40.044  14.340
26737W        W91898  31.971   9.150  12.472
26738W        W91899  44.851   9.119  13.472
26739W        W91900  10.773  30.156  13.947
26740W        W91901  33.844  34.397  14.331
26741W        W91902  16.188  26.006  13.846
26742W        W91903   2.649  18.018  11.182
26743W        W91904  17.583  42.607  10.160
26744W        W91905   0.187  38.712   4.055
26745W        W91906  36.386  12.722   4.038
26746W        W91907   8.618  30.730  12.007
26747W        W91908  43.917  14.545  11.581
26748W        W91909  10.275  11.113  13.792
26749W        W91910  16.232  35.507   3.479
26750W        W91911  15.978  39.493   2.277
26751W        W91912  10.396  29.230  10.870
26752W        W91913  40.957  12.415   3.488
26753W        W91914   8.773  31.109  11.065
26754W        W91915  11.393   2.769  11.006
26755W        W91916  15.344  21.034  10.376
26756W        W91917   5.914  14.756  14.353
26757W        W91918  20.744  24.032  12.040
26758W        W91919   5.366  11.932  10.681
26759W        W91920  44.810  39.463   2.763
26760W        W91921  11.662  12.237   3.811
26761W        W91922  30.816  11.734  11.920
26762W        W91923  13.385  34.587   2.241
26763W        W91924   0.753  27.674  12.542
26764W        W91925   3.155  31.532   3.702
26765W        W91926   7.584  29.943  11.617
26766W        W91927  41.337   0.851   1.684
26767W        W91928  19.298  10.611   1.807
26768W        W91929  42.391   8.608  13.901
26769W        W91930  36.116  43.277   3.082
26770W        W91931  14.153  29.594   4.559
26771W        W91932   3.525   2.979  14.967
26772W        W91933  34.344   5.693  12.931
26773W        W91934  28.907  17.710  14.843
26774W        W91935  23.654  10.705   4.133
26775W        W91936  31.508  12.267   4.497
26776W        W91937   0.368  19.743   3.726
26777W        W91938  41.249  44.807  12.045
26778W        W91939   7.746  44.500  13.690
26779W        W91940   2.525   8.768   4.528
26780W        W91941  10.302  33.992   1.790
26781W        W91942  24.844   4.756  13.547
26782W        W91943  39.813  14.924   2.252
26783W        W91944  39.116  12.793   3.749
26784W        W91945  43.141   7.116   3.244
26785W        W91946  36.011  33.482   2.936
26786W        W91947   8.215  11.165   2.634
26787W        W91948  21.629  35.317   4.179
26788W        W91949  13.265  25.931  11.070
26789W        W91950  12.193  15.041   0.044
26790W        W91951  36.944  41.440  11.219
26791W        W91952  24.058  36.392  10.455
26792W        W91953   7.782  32.119  10.995
26793W        W91954   8.969  41.745   3.749
26794W        W91955   9.391  28.676  13.351
26795W        W91956  43.807  43.164   3.713
26796W        W91957  26.933   2.973  11.608
26797W        W91958  14.261   0.287   3.729
26798W        W91959  10.751  43.538   4.616
26799W        W91960  34.340  21.287  13.849
26800W        W91961  18.542  11.633  13.829
26801W        W91962  20.777  33.788   2.917
26802W        W91963  42.098  18.689   1.969
26803W        W91964  31.957  40.881  10.770
26804W        W91965  11.120  25.548   4.237
26805W        W91966  35.814   3.460   0.242
26806W        W91967  38.033  29.055  13.870
26807W        W91968  18.180  34.178  10.769
26808W        W91969   7.991  22.778  14.272
26809W        W91970  15.242  44.725   4.268
26810W        W91971   9.848  25.601   1.914
26811W        W91972  34.624  28.475  11.520
26812W        W91973  14.281  31.297   0.454
26813W        W91974  30.834   8.870   1.841
26814W        W91975  37.516   2.844   4.630
26815W        W91976  38.454  19.363   0.935
26816W        W91977  21.041  22.189   5.395
26817W        W91978  19.690   9.279  12.169
26818W        W91979  43.977  21.653  11.379
26819W        W91980  34.601  34.399   0.680
26820W        W91981  31.065  11.164  12.939
26821W        W91982  17.110   5.620  13.513
26822W        W91983  40.093  14.731  11.592
26823W        W91984  12.118  22.121   3.248
26824W        W91985  12.375  11.841  13.901
26825W        W91986  13.714  23.808  11.106
26826W        W91987   9.267  14.762   3.232
26827W        W91988  38.484  22.714  14.194
26828W        W91989  20.597   9.151  12.353
26829W        W91990  15.322  22.580   4.598
26830W        W91991   1.676  37.407  14.335
26831W        W91992  34.132  32.533  14.599
26832W        W91993  21.145  29.131  10.439
26833W        W91994  13.595  14.318  11.924
26834W        W91995  13.088  29.208   3.673
26835W        W91996  39.584  26.611   2.359
26836W        W91997   5.697  24.549   2.151
26837W        W91998  41.794  34.056  11.482
26838W        W91999  34.226   4.425   0.331
26839W        W92000  39.041  27.216  13.384
26840W        W92001  25.400  15.799  13.599
26841W        W92002  23.692  15.916  14.333
26842W        W92003  30.675  13.827   1.660
26843W        W92004  33.883  28.121   3.476
26844W        W92005  12.874  18.826   1.831
26845W        W92006  43.827  38.627   2.305
26846W        W92007  29.035   0.948   1.340
26847W        W92008  28.630  38.673  14.327
26848W        W92009  35.862  16.644  13.866
26849W        W92010   3.238  30.906  14.341
26850W        W92011  35.223  18.607  11.869
26851W        W92012   8.401   9.711  12.915
26852W        W92013  20.834   6.844  13.920
26853W        W92014   7.130  18.839  10.717
26854W        W92015  37.075  38.670  11.173
26855W        W92016  21.720  21.989   2.183
26856W        W92017  43.256  42.902   4.924
26857W        W92018   1.332  21.799  11.444
26858W        W92019  18.064  34.695  12.006
26859W        W92020   3.382  40.101   0.416
26860W        W92021  43.735  13.550   2.490
26861W        W92022   5.814  25.135  10.062
26862W        W92023   0.756  26.083  14.811
26863W        W92024   8.808  23.778  12.660
26864W        W92025  42.887  27.188   0.332
26865W        W92026  17.835  29.197   1.314
26866W        W92027   0.973  22.950  13.801
26867W        W92028   0.667  42.731  10.997
26868W        W92029  11.740  27.995  13.043
26869W        W92030  21.642  18.417   3.741
26870W        W92031  34.127   4.430  11.911
26871W        W92032  32.426  38.020   1.503
26872W        W92033  32.826  32.854   4.091
26873W        W92034  19.820  11.879  11.150
26874W        W92035  31.601   7.491   3.955
26875W        W92036  36.423   5.654   1.305
26876W        W92037   2.987  38.239   4.651
26877W        W92038   9.881  17.455   3.528
26878W        W92039   4.451  19.135   1.984
26879W        W92040  35.316  30.696  12.366
26880W        W92041  40.267  26.595   3.763
26881W        W92042  44.453  38.213   1.055
26882W        W92043  11.187  29.706   1.741
26883W        W92044  21.045   1.115  11.975
26884W        W92045  28.176  23.737   9.822
26885W        W92046  11.262  25.984  12.497
26886W        W92047  28.031  19.120   0.820
26887W        W92048  20.996   0.734  10.672
26888W        W92049  12.609  14.281  12.571
26889W        W92050  11.516  36.079  10.145
26890W        W92051   8.139  34.183  14.832
26891W        W92052  41.582  17.522  14.324
26892W        W92053   2.240  17.863   0.204
26893W        W92054   7.827  41.330  11.014
26894W        W92055  39.741  29.065   2.038
26895W        W92056  39.659  27.096   2.522
26896W        W92057   6.641   9.153  13.892
26897W        W92058  30.517   8.407   3.886
26898W        W92059  17.329  28.347   3.285
26899W        W92060  12.301  13.668  14.425
26900W        W92061   4.502  41.046   2.128
26901W        W92062  32.388  12.442  12.468
26902W        W92063  43.011   4.275   4.346
26903W        W92064  35.509  27.430  11.147
26904W        W92065  15.836   9.388  11.550
26905W        W92066  34.637   6.311   1.201
26906W        W92067  32.851   9.771   2.354
26907W        W92068  17.323  27.395  12.048
26908W        W92069  24.568  33.149  11.582
26909W        W92070  27.108   2.978   4.652
26910W        W92071  26.954  33.931   0.695
26911W        W92072  36.044  28.432   3.756
26912W        W92073   8.649  43.298  11.831
26913W        W92074  40.008  32.489   5.054
26914W        W92075  39.185  39.131  13.484
26915W        W92076   4.825  14.520  11.159
26916W        W92077  32.014  24.636   3.664
26917W        W92078  44.443  15.211   4.145
26918W        W92079  27.473  19.681  13.237
26919W        W92080   7.213  27.710   3.100
26920W        W92081  12.736   4.455   2.494
26921W        W92082  30.342  31.830   0.991
26922W        W92083  38.386  39.422  10.684
26923W        W92084  23.555  43.002  11.517
26924W        W92085   1.716  26.116  13.595
26925W        W92086  33.459  35.866  14.802
26926W        W92087  18.004  33.659   3.841
26927W        W92088  13.609  20.738  13.995
26928W        W92089  26.593   3.718  11.984
26929W        W92090  14.313  44.786  10.598
26930W        W92091   0.344  13.302  12.953
26931W        W92092  28.521  13.566  12.165
26932W        W92093  32.060  16.581   3.779
26933W        W92094  15.760  38.400   2.805
26934W        W92095  14.601   1.881  11.545
26935W        W92096  35.803  11.326  14.329
26936W        W92097  33.151   9.465  13.358
26937W        W92098  35.285  35.839  13.014
26938W        W92099   5.565  14.902  13.936
26939W        W92100  20.712  22.613  14.347
26940W        W92101  19.104   5.052  11.582
26941W        W92102  21.292  16.193   1.318
26942W        W92103  15.731  43.509   0.476
26943W        W92104  34.057   7.192  11.536
26944W        W92105  30.696  18.726  11.153
26945W        W92106   4.513  31.049  10.689
26946W        W92107  29.703  13.260  13.939
26947W        W92108  37.518  39.604  12.335
26948W        W92109   8.242  21.224  11.627
26949W        W92110  28.631  26.024   3.674
26950W        W92111  35.443  19.775   2.147
26951W        W92112  34.338  24.197   2.802
26952W        W92113  30.341  37.086  13.478
26953W        W92114   5.385  42.772   3.876
26954W        W92115  30.381  38.229   0.747
26955W        W92116  43.298   1.673   3.871
26956W        W92117  33.458   6.866   0.375
26957W        W92118  41.540  34.641   2.222
26958W        W92119  28.618   0.522   1.870
26959W        W92120  42.412   1.256  14.852
26960W        W92121  38.493  37.384  12.414
26961W        W92122   7.930   7.749  13.410
26962W        W92123  16.779  12.606   0.830
26963W        W92124   8.274  27.198  11.529
26964W        W92125  24.665  10.680   0.240
26965W        W92126  42.985   4.647  10.734
26966W        W92127  41.793  22.271   2.636
26967W        W92128  18.195  25.920   4.301
26968W        W92129  41.432  15.088  14.035
26969W        W92130  32.356  22.883   2.501
26970W        W92131  28.866  12.518   5.441
26971W        W92132  30.715  40.318  13.446
26972W        W92133  23.221  36.971   4.212
26973W        W92134   8.105  38.991   2.689
26974W        W92135  30.676  13.840  11.855
26975W        W92136  12.640  15.421   3.984
26976W        W92137   7.709  10.660  14.085
26977W        W92138  17.344   8.383   3.631
26978W        W92139   7.228  13.815  11.587
26979W        W92140  32.614  14.385  13.397
26980W        W92141  37.590  44.025   3.142
26981W        W92142  32.702  19.977   2.654
26982W        W92143  35.574  13.233   3.630
26983W        W92144  28.338  17.595   4.185
26984W        W92145   6.295  34.610   1.668
26985W        W92146   3.594  33.911   4.418
26986W        W92147  22.751  44.420  13.992
26987W        W92148  41.027  26.864  14.749
26988W        W92149   3.781  25.740  14.447
26989W        W92150   6.699  11.699   4.684
26990W        W92151   4.749   8.942   0.288
26991W        W92152  19.857  31.206  11.369
26992W        W92153  20.309  14.098   3.705
26993W        W92154  40.396   7.727   1.652
26994W        W92155  15.136  32.424   1.516
26995W        W92156  43.447  34.796  10.779
26996W        W92157  21.197  19.310   1.727
26997W        W92158  40.361  26.426  11.480
26998W        W92159  13.007  31.659   1.124
26999W        W92160  20.458  20.150   0.388
27000W        W92161  36.672  39.175  11.991
27001W        W92162  28.552  15.135   0.517
27002W        W92163  26.742  17.478   3.092
27003W        W92164  20.062   4.742  13.877
27004W        W92165  37.454  10.703  12.989
27005W        W92166  10.619   2.214   0.277
27006W        W92167   1.691  37.496  13.838
27007W        W92168   7.176  40.432   2.607
27008W        W92169  21.522  18.185  13.068
27009W        W92170   5.495  10.518  13.288
27010W        W92171  34.892  18.166  10.701
27011W        W92172  36.533  42.445   5.093
27012W        W92173   1.490  22.963  14.516
27013W        W92174   8.022  44.089  10.458
27014W        W92175  18.531   3.686  12.758
27015W        W92176  11.434  12.771   3.786
27016W        W92177  33.816   3.968  10.819
27017W        W92178  40.091  16.045  13.497
27018W        W92179  21.164   4.391   0.875
27019W        W92180  32.641  31.114  12.065
27020W        W92181  15.548  24.039  10.107
27021W        W92182   3.950   7.899   0.021
27022W        W92183  15.571  20.057   0.484
27023W        W92184   9.198  33.940  12.970
27024W        W92185  36.108   3.048   0.384
27025W        W92186   4.268   7.839   2.291
27026W        W92187  32.280  29.617  14.375
27027W        W92188  19.481  22.317  11.200
27028W        W92189  28.531  37.530  11.582
27029W        W92190  19.579  14.658   1.513
27030W        W92191  20.857   7.260   0.233
27031W        W92192   0.516   0.328   0.802
27032W        W92193  30.380  13.795  13.535
27033W        W92194  38.870  29.722  13.427
27034W        W92195   2.045  23.134  13.829
27035W        W92196  33.017  40.760  12.663
27036W        W92197  18.522   9.482  11.203
27037W        W92198  14.892  28.049  10.383
27038W        W92199  25.314  26.423   2.687
27039W        W92200  12.307   7.933  12.873
27040W        W92201  30.505  41.728  13.469
27041W        W92202  33.565   9.979  14.802
27042W        W92203  43.317   0.028  12.962
27043W        W92204  37.570  13.638  11.316
27044W        W92205  25.151  36.002   3.190
27045W        W92206  26.598   0.377  13.571
27046W        W92207  21.031   1.797  10.005
27047W        W92208  11.438  37.918   3.870
27048W        W92209  24.890  13.781  12.989
27049W        W92210   2.493  26.689  12.961
27050W        W92211  35.380  24.497  11.490
27051W        W92212  10.268  41.852   3.085
27052W        W92213  29.324  20.031  14.332
27053W        W92214   7.426  19.676   0.820
27054W        W92215  11.028  14.956   1.062
27055W        W92216  25.051  23.433  14.038
27056W        W92217  13.521  36.287  10.678
27057W        W92218  25.839   9.316   5.392
27058W        W92219   1.175  19.305   0.808
27059W        W92220  43.325  18.306   3.370
27060W        W92221  22.793  31.738  12.376
27061W        W92222   5.215   8.748  12.514
27062W        W92223  30.047   8.692  12.382
27063W        W92224  40.104  10.348  14.888
27064W        W92225  32.472   5.382  10.829
27065W        W92226  18.037   6.451   2.323
27066W        W92227  19.615   6.704   4.044
27067W        W92228  35.387  11.214  14.594
27068W        W92229  39.365  15.238  13.060
27069W        W92230  31.932  34.065  12.950
27070W        W92231  44.900  28.920  14.831
27071W        W92232  43.990  29.580   3.118
27072W        W92233   9.249  20.120   2.624
27073W        W92234  39.108   4.269   2.410
27074W        W92235   6.282  36.046  11.520
27075W        W92236  10.397   6.935   3.101
27076W        W92237  40.102   4.169   3.027
27077W        W92238   1.059  35.582   4.518
27078W        W92239  30.257  32.605   3.452
27079W        W92240   8.014   3.909   0.631
27080W        W92241  16.737   8.332  14.924
27081W        W92242  23.668  19.285   1.296
27082W        W92243  22.319  29.314   2.356
27083W        W92244  43.870  41.230  12.929
27084W        W92245  14.393  28.224   0.921
27085W        W92246   8.655  18.126   3.689
27086W        W92247   6.058   6.416  14.746
27087W        W92248  37.229  33.602  12.518
27088W        W92249  10.710  42.376  11.187
27089W        W92250  25.035   0.966  14.907
27090W        W92251   5.268  33.433  10.083
27091W        W92252   3.431  28.961  11.655
27092W        W92253  42.562  17.538   0.422
27093W        W92254   5.974  40.516  11.210
27094W        W92255  26.064  38.845   2.993
27095W        W92256  18.065  37.853  11.683
27096W        W92257  41.520   2.687   3.719
27097W        W92258  23.939  23.611  14.392
27098W        W92259   4.982   5.312   1.793
27099W        W92260  23.468   6.381   0.809
27100W        W92261   8.651   5.830  10.784
27101W        W92262  11.958  41.779  13.527
27102W        W92263   3.809  24.171   2.629
27103W        W92264  16.171   3.724   3.061
27104W        W92265  40.927  44.382  11.953
27105W        W92266  31.682  14.803   0.293
27106W        W92267  32.543  24.506  14.764
27107W        W92268  34.876  26.192   2.188
27108W        W92269  34.883   6.408  12.530
27109W        W92270  37.117  42.224   0.232
27110W        W92271  28.030  29.137  10.162
27111W        W92272  15.999  27.146   0.710
27112W        W92273  40.752  37.972  13.372
27113W        W92274  29.708  31.858   4.197
27114W        W92275  33.448  28.806   1.878
27115W        W92276   1.785  25.728   2.178
27116W        W92277   9.791  27.108   3.837
27117W        W92278  32.119  44.370   1.944
27118W        W92279   1.460  26.738   3.673
27119W        W92280  41.519   3.708  11.405
27120W        W92281  24.774  23.137   1.741
27121W        W92282  30.544  17.912  14.505
27122W        W92283  31.486  19.185   0.357
27123W        W92284  36.869  34.339  11.137
27124W        W92285  21.617  13.086   3.742
27125W        W92286  40.915  26.967   2.571
27126W        W92287  42.101  10.778   0.003
27127W        W92288  43.585   4.278   1.772
27128W        W92289  36.385  20.985  11.682
27129W        W92290  21.235  19.388   2.840
27130W        W92291  24.955   7.742  11.220
27131W        W92292   3.235  11.940  13.792
27132W        W92293  23.989  12.632  14.861
27133W        W92294  30.967  31.560   3.200
27134W        W92295  36.511   7.108   4.107
27135W        W92296  30.164  26.650   3.224
27136W        W92297  40.333  21.078  11.142
27137W        W92298   8.839  23.105  14.316
27138W        W92299  17.253  31.476  11.179
27139W        W92300  44.251  25.648  14.885
27140W        W92301  39.030  29.928  11.696
27141W        W92302  30.283  16.405   3.280
27142W        W92303  10.314  24.522  13.213
27143W        W92304  28.859  12.963   0.287
27144W        W92305   6.153  15.952   3.823
27145W        W92306  26.948   9.364  11.097
27146W        W92307  41.512  20.245   4.275
27147W        W92308  31.909  24.853   0.712
27148W        W92309  40.091  33.086   2.164
27149W        W92310  39.480  20.957   4.210
27150W        W92311   5.934  41.897   3.643
27151W        W92312  42.226   7.104   2.518
27152W        W92313  24.591   1.975  13.349
27153W        W92314   2.496  39.904  10.279
27154W        W92315  17.071  17.270   9.747
27155W        W92316  12.164  14.151   1.441
27156W        W92317  42.311  29.948  11.259
27157W        W92318  36.045  29.498   4.626
27158W        W92319  42.773  38.088  11.184
27159W        W92320  20.751   1.707  10.899
27160W        W92321   5.649  12.535  13.346
27161W        W92322   8.181   8.284   2.698
27162W        W92323   2.284   6.639   2.072
27163W        W92324  20.643   4.800   9.884
27164W        W92325   5.213  28.375  14.044
27165W        W92326  42.575   8.801   3.268
27166W        W92327  16.169  11.336   4.814
27167W        W92328   6.380  25.255   1.634
27168W        W92329  15.007  30.352   3.691
27169W        W92330  13.133  42.680  13.128
27170W        W92331  22.349  19.110   0.778
27171W        W92332   8.864   0.858   0.026
27172W        W92333   2.236  34.018   1.790
27173W        W92334  19.734  37.322  13.366
27174W        W92335  15.131  21.785  11.020
27175W        W92336  25.158  27.646  12.016
27176W        W92337  10.379  35.794  11.205
27177W        W92338  40.556  23.317   5.026
27178W        W92339  25.750  29.618  12.809
27179W        W92340  23.539  23.774   1.627
27180W        W92341  42.035  24.789  12.957
27181W        W92342  11.421  32.959  14.300
27182W        W92343   0.863   2.450   3.687
27183W        W92344   7.165  19.422   0.431
27184W        W92345  42.518  15.326   1.127
27185W        W92346   2.228  36.122  14.760
27186W        W92347  22.243  44.803  11.859
27187W        W92348  28.055  32.999  12.979
27188W        W92349  40.963  11.387  13.516
27189W        W92350   9.784  44.244  13.746
27190W        W92351   6.850   2.188  14.512
27191W        W92352  39.939  36.076   2.098
27192W        W92353   6.852  24.005  11.544
27193W        W92354  26.769  13.644   3.831
27194W        W92355   2.901   8.900   4.858
27195W        W92356  22.140   2.346  13.739
27196W        W92357   7.900  20.584  10.632
27197W        W92358   6.221   9.657  14.365
27198W        W92359   8.166  23.819   0.802
27199W        W92360  33.616  39.908   3.266
27200W        W92361  40.448   3.317   2.422
27201W        W92362  17.096  10.649   2.431
27202W        W92363  11.566  13.875   4.747
27203W        W92364  40.393  41.814   3.526
27204W        W92365  37.348  12.791  11.064
27205W        W92366  38.613  24.542   1.696
27206W        W92367  21.262  30.769   5.122
27207W        W92368   5.339  41.898  11.839
27208W        W92369  17.704  22.612   4.390
27209W        W92370  33.650  10.864   3.182
27210W        W92371  41.101  12.297   2.242
27211W        W92372  18.849  11.872   4.174
27212W        W92373  24.654  25.026  12.523
27213W        W92374   1.669   0.011   1.868
27214W        W92375   1.379  34.124  10.722
27215W        W92376  29.486   2.793   3.963
27216W        W92377   5.459  35.036  12.158
27217W        W92378  40.393  24.792   0.750
27218W        W92379  10.801   5.693  13.853
27219W        W92380  18.932  21.705  13.101
27220W        W92381  19.117  10.345   1.359
27221W        W92382   3.764  27.033  11.569
27222W        W92383  44.574  35.160   0.829
27223W        W92384  28.492  44.084  11.131
27224W        W92385  31.648   2.264   4.664
27225W        W92386   1.605  41.867  13.819
27226W        W92387  25.117   9.170  10.011
27227W        W92388  32.827  24.191   2.396
27228W        W92389  12.675  17.357  11.071
27229W        W92390  20.665  14.361   3.394
27230W        W92391  30.911   9.338   0.629
27231W        W92392  23.484  21.618   2.826
27232W        W92393  42.430  24.046   0.315
27233W        W92394  40.865  39.934  14.761
27234W        W92395  13.928  28.906   1.367
27235W        W92396  16.453  11.843  13.780
27236W        W92397  16.165  14.811  12.190
27237W        W92398   2.990  20.255   2.116
27238W        W92399   5.579  14.559   2.804
27239W        W92400  33.439   2.889  11.414
27240W        W92401  37.469  22.688  11.225
27241W        W92402  17.018  29.674   3.673
27242W        W92403   4.912   8.376   2.850
27243W        W92404   6.903  35.532  11.847
27244W        W92405  43.312  40.144  13.478
27245W        W92406  33.011  18.018  12.014
27246W        W92407   3.656   7.233  12.131
27247W        W92408   6.773  10.754   3.488
27248W        W92409  15.753   9.809  10.841
27249W        W92410  37.828  23.070   2.691
27250W        W92411  33.501  20.627   1.357
27251W        W92412  16.122   3.806   4.058
27252W        W92413  41.104  40.080  12.953
27253W        W92414  16.191  34.334  12.902
27254W        W92415  38.883  43.259  14.965
27255W        W92416   7.715  15.730   4.620
27256W        W92417   1.431   1.004   1.756
27257W        W92418  22.524   9.746  10.993
27258W        W92419  39.578  14.776  11.556
27259W        W92420  41.759  23.118   1.256
27260W        W92421  12.637   5.967  12.541
27261W        W92422  37.147  38.743   4.526
27262W        W92423  20.572  27.823  10.811
27263W        W92424  23.495  41.113  14.954
27264W        W92425  35.576   6.548   0.339
27265W        W92426  25.025  35.422   0.863
27266W        W92427  15.856   2.370   4.895
27267W        W92428  10.668  18.850  14.351
27268W        W92429  10.184  17.317   1.257
27269W        W92430  34.823  16.190  10.667
27270W        W92431   5.820  13.792   4.428
27271W        W92432  35.039  30.051  13.779
27272W        W92433  40.586  18.136  13.926
27273W        W92434  23.541  30.124  13.527
27274W        W92435  34.241  28.396   5.106
27275W        W92436  28.877  24.418  10.271
27276W        W92437  44.279  12.724  10.521
27277W        W92438   6.015  19.632   3.430
27278W        W92439  18.470  23.439  13.021
27279W        W92440  34.916  20.264   3.611
27280W        W92441  28.384  15.136  12.584
27281W        W92442  36.918   5.337  13.506
27282W        W92443  39.033  13.872  14.904
27283W        W92444  16.200  17.231  14.312
27284W        W92445   2.464  29.863  13.671
27285W        W92446   1.526  36.422   1.302
27286W        W92447  44.884  29.605  11.302
27287W        W92448  13.308  22.587  13.376
27288W        W92449  43.023  34.521  11.584
27289W        W92450  32.419  34.002   0.222
27290W        W92451  23.685  25.493  10.616
27291W        W92452  38.471  44.732   1.717
27292W        W92453  33.379  24.746   1.263
27293W        W92454  38.252  23.490  12.986
27294W        W92455   3.679  40.542   1.277
27295W        W92456   7.807  44.938   3.326
27296W        W92457  14.281  15.666   0.449
27297W        W92458  15.710  38.338  14.606
27298W        W92459  25.720  42.496   1.369
27299W        W92460   1.842   8.604   4.496
27300W        W92461  38.261  44.887  12.104
27301W        W92462   6.235  10.112   2.752
27302W        W92463  16.160  16.797   3.393
27303W        W92464   3.894  28.896   1.511
27304W        W92465  19.525  23.274   3.885
27305W        W92466   1.399  28.998  12.341
27306W        W92467  19.166  28.551  10.717
27307W        W92468  34.834  38.489   3.176
27308W        W92469  30.935  25.987  11.591
27309W        W92470  35.990  14.574   2.234
27310W        W92471  13.302  39.863  10.545
27311W        W92472  22.528  16.156   1.774
27312W        W92473  23.549  40.085  12.507
27313W        W92474  11.617  33.596   1.513
27314W        W92475   2.476  18.805   1.209
27315W        W92476  34.465  21.379   4.082
27316W        W92477  27.477   2.436   3.110
27317W        W92478  36.559   9.173   2.747
27318W        W92479   7.945   9.856   4.676
27319W        W92480  12.293  35.643   3.300
27320W        W92481   9.495  33.663  13.301
27321W        W92482  28.504  36.832  12.886
27322W        W92483  18.500   2.015  11.149
27323W        W92484  31.352  21.873   3.314
27324W        W92485  29.949  23.210   1.003
27325W        W92486   5.957  21.461   3.663
27326W        W92487  39.287   6.343  12.957
27327W        W92488  44.896  29.654   3.219
27328W        W92489  36.538   5.773   3.522
27329W        W92490  32.997  33.815  13.810
27330W        W92491  13.390  28.268  14.215
27331W        W92492  19.895   8.659  11.082
27332W        W92493   9.866   5.338  10.697
27333W        W92494  39.902   8.772   0.197
27334W        W92495  40.857  21.237   2.241
27335W        W92496   4.103  25.108   3.110
27336W        W92497  19.569  29.616  11.394
27337W        W92498   8.204   0.390  11.915
27338W        W92499   1.202  18.011   3.692
27339W        W92500  28.572   1.690   0.018
27340W        W92501  37.540  13.836  10.839
27341W        W92502  14.149  36.548   0.293
27342W        W92503  39.077   6.324  11.090
27343W        W92504  16.015  37.064  11.404
27344W        W92505  26.879  31.277  14.785
27345W        W92506   4.198  25.496  11.946
27346W        W92507  24.201  26.910  11.376
27347W        W92508   3.091  37.450  10.592
27348W        W92509  21.737  19.289  10.677
27349W        W92510  21.610  16.464   4.039
27350W        W92511  23.622  24.981   4.640
27351W        W92512  29.055   7.205  12.389
27352W        W92513  17.781  38.067   0.293
27353W        W92514  16.614  19.103  11.184
27354W        W92515   5.921   6.553  11.194
27355W        W92516  12.371  24.629   4.936
27356W        W92517   6.752  12.619  13.030
27357W        W92518   1.338  40.038  14.261
27358W        W92519   4.371  19.891  13.040
27359W        W92520  11.785   6.794  14.500
27360W        W92521  28.643  14.084  13.362
27361W        W92522   7.428  24.591   4.162
27362W        W92523   7.147  30.187   0.924
27363W        W92524  43.276  18.103   1.824
27364W        W92525  15.138   7.271   4.119
27365W        W92526  39.483   0.754   3.285
27366W        W92527  26.172  35.035   0.179
27367W        W92528   2.245   8.805  12.535
27368W        W92529   6.215   6.213  12.938
27369W        W92530  44.345  11.904  11.183
27370W        W92531  22.150  19.042   3.273
27371W        W92532   2.301   4.211   1.773
27372W        W92533  10.271  26.485  11.243
27373W        W92534   0.775  22.934   4.017
27374W        W92535   1.997  29.156  13.946
27375W        W92536  12.582  11.186   1.286
27376W        W92537  30.333  13.067   4.786
27377W        W92538  40.809   7.383  10.744
27378W        W92539  41.996  18.035   3.686
27379W        W92540   3.819   4.123   0.944
27380W        W92541  20.255  42.499  11.057
27381W        W92542  27.158  14.776   2.125
27382W        W92543  34.413  35.566   3.719
27383W        W92544  22.818  26.316  11.516
27384W        W92545  41.759   7.269  12.572
27385W        W92546  31.580  10.451  11.190
27386W        W92547   6.458  30.024  11.487
27387W        W92548  11.837   4.347   2.991
27388W        W92549  21.753  26.355   1.707
27389W        W92550  35.172  11.445  12.446
27390W        W92551  25.279  31.893  14.452
27391W        W92552  37.293  28.730   0.790
27392W        W92553  13.144  18.599   3.412
27393W        W92554  10.725  11.755  12.983
27394W        W92555  30.683  17.323  12.055
27395W        W92556  17.519  21.529  11.873
27396W        W92557  25.175  34.402  13.064
27397W        W92558  21.142   1.984  11.532
27398W        W92559  22.199  17.802   9.708
27399W        W92560  43.391   3.850   2.243
27400W        W92561  24.478  22.775  11.518
27401W        W92562  23.573   1.854   4.369
27402W        W92563  26.120  38.354   3.201
27403W        W92564  17.473  42.981  10.924
27404W        W92565  24.628  28.228  13.986
27405W        W92566  24.460  29.940   0.205
27406W        W92567  36.741  11.863   1.293
27407W        W92568   1.381  40.397   0.701
27408W        W92569   3.736  33.293   0.327
27409W        W92570  34.636   1.683  11.508
27410W        W92571  12.806  22.461   4.914
27411W        W92572   8.292  27.811   3.772
27412W        W92573  15.927  31.143  14.688
27413W        W92574   2.562  25.424  13.355
27414W        W92575  27.140  21.853  10.220
27415W        W92576   5.738  24.834   4.961
27416W        W92577   8.947  19.436   2.742
27417W        W92578  19.146  37.021   1.848
27418W        W92579  34.878  32.016   3.608
27419W        W92580   5.391  24.141   1.977
27420W        W92581  25.994   7.384  13.991
27421W        W92582   1.116  18.429  13.546
27422W        W92583  15.102  38.974   2.430
27423W        W92584  14.230  32.421   2.140
27424W        W92585  25.175  36.790   0.329
27425W        W92586  40.326  19.990   0.365
27426W        W92587   2.312  19.213   3.644
27427W        W92588  32.540  36.407   3.814
27428W        W92589   6.314  39.377   0.345
27429W        W92590   1.477   2.797   0.035
27430W        W92591   3.337  32.111   3.390
27431W        W92592  33.491  23.952  13.950
27432W        W92593   3.148  28.241  11.152
27433W        W92594  42.993  42.831  10.200
27434W        W92595   3.033  12.256  14.755
27435W        W92596   1.282  11.539   4.085
27436W        W92597  26.930  10.132  11.697
27437W        W92598  39.022  19.105   3.945
27438W        W92599  30.916  11.662  12.825
27439W        W92600  16.333  33.666  14.879
27440W        W92601  36.145  44.961   3.650
27441W        W92602  28.077  22.608   5.295
27442W        W92603   7.595   4.701  10.782
27443W        W92604  22.759  32.404   2.758
27444W        W92605  35.601  19.682   3.672
27445W        W92606  35.117  29.130  13.996
27446W        W92607   8.859  27.038   2.305
27447W        W92608  15.195   3.388  10.381
27448W        W92609  14.489  11.675  11.547
27449W        W92610  16.044   8.156  13.310
27450W        W92611  22.590   8.252   3.207
27451W        W92612  33.156  40.506  14.831
27452W        W92613  36.416  31.383  13.977
27453W        W92614   1.586  37.521   3.082
27454W        W92615   9.859  34.014   0.382
27455W        W92616  39.226  25.443   0.261
27456W        W92617   5.303   7.814   0.964
27457W        W92618  20.164  44.339  10.577
27458W        W92619  44.347  34.822   3.700
27459W        W92620  11.641   6.371  13.633
27460W        W92621  18.791   3.438   2.257
27461W        W92622  14.121  24.690   0.666
27462W        W92623  35.445  21.799  13.893
27463W        W92624  38.028   3.247   3.238
27464W        W92625   3.840   2.488   2.657
27465W        W92626  28.778  39.824   4.529
27466W        W92627  37.297  38.270  14.840
27467W        W92628  22.075  39.629  10.910
27468W        W92629  29.069  19.752  12.308
27469W        W92630  28.221  17.025   1.954
27470W        W92631  19.556  21.078  11.120
27471W        W92632  10.731   0.831   1.723
27472W        W92633   0.385  20.560   2.248
27473W        W92634  31.121  16.112   2.989
27474W        W92635  10.099  15.554  13.381
27475W        W92636  15.776  23.079  14.869
27476W        W92637  29.490  11.383  11.986
27477W        W92638  18.543  27.110  12.505
27478W        W92639  18.259  14.885  11.625
27479W        W92640   4.981   0.815  10.162
27480W        W92641   9.614  42.878   2.199
27481W        W92642  33.856  12.211  12.460
27482W        W92643   6.073  16.602  12.462
27483W        W92644  19.721  39.744   4.121
27484W        W92645  17.218  19.435  12.552
27485W        W92646   2.346   4.471  11.147
27486W        W92647  19.837  16.348   3.143
27487W        W92648   4.594  22.685  10.490
27488W        W92649  13.573  17.480   4.125
27489W        W92650  23.469   8.081  12.066
27490W        W92651  18.456  13.401  12.694
27491W        W92652  20.191  28.143  11.970
27492W        W92653  39.307  36.955  14.033
27493W        W92654  28.717  19.087  12.445
27494W        W92655   2.973   0.796   4.884
27495W        W92656  41.105  15.576  11.599
27496W        W92657   6.214  12.615  14.260
27497W        W92658  25.417  22.666   3.338
27498W        W92659   8.271  15.725  10.343
27499W        W92660  16.206  44.943   0.430
27500W        W92661   1.682  29.903   4.433
27501W        W92662  12.853   3.293   0.164
27502W        W92663  44.487  39.966  10.780
27503W        W92664   7.299  17.294  12.348
27504W        W92665   5.664  28.721   2.760
27505W        W92666  23.615   5.343   2.869
27506W        W92667  26.646  19.087  10.657
27507W        W92668  21.102  40.542  10.975
27508W        W92669  42.023  40.867  11.069
27509W        W92670  32.545  40.730  13.482
27510W        W92671  16.876  35.581  13.375
27511W        W92672  25.541  10.124   4.181
27512W        W92673  34.527  41.923   1.630
27513W        W92674   7.851  37.372   2.243
27514W        W92675   4.915  19.163  14.036
27515W        W92676  16.294  34.457   4.649
27516W        W92677  18.609  12.331  11.025
27517W        W92678  14.171  29.391   4.099
27518W        W92679  35.598   5.770   3.901
27519W        W92680  17.513  38.404   4.122
27520W        W92681  24.183   1.971  13.667
27521W        W92682   5.221   2.290   0.510
27522W        W92683  43.079  31.026  12.680
27523W        W92684  41.672  22.092   1.227
27524W        W92685  22.738  24.069   3.559
27525W        W92686  24.586   7.952   1.265
27526W        W92687   1.132  11.310   0.686
27527W        W92688  41.357   4.637  14.759
27528W        W92689   4.196  29.462   3.333
27529W        W92690  34.461  36.880   1.619
27530W        W92691  13.193   8.240   4.387
27531W        W92692  16.926   5.880  12.817
27532W        W92693  18.937  37.716   0.162
27533W        W92694  21.030  13.481  10.775
27534W        W92695  13.198  17.317  11.997
27535W        W92696  43.306  29.287  11.005
27536W        W92697  25.115  34.591  14.984
27537W        W92698  30.903  10.784  10.803
27538W        W92699   3.826  19.739   4.329
27539W        W92700   7.858  24.485  12.828
27540W        W92701  28.393  42.822   1.387
27541W        W92702   0.568  30.528  11.609
27542W        W92703   2.423   6.502   3.601
27543W        W92704   5.378  33.959  14.344
27544W        W92705  39.133  25.018  14.337
27545W        W92706  20.131   3.274  12.131
27546W        W92707  24.140  42.038  13.306
27547W        W92708  21.213  23.326  11.305
27548W        W92709  36.177   5.466  11.713
27549W        W92710  14.245  42.374  14.333
27550W        W92711  26.073   0.957   1.951
27551W        W92712  43.971   7.950   3.373
27552W        W92713  44.908  39.540  10.128
27553W        W92714  41.733  32.358  10.461
27554W        W92715  33.285  38.931   2.832
27555W        W92716   3.851  39.618   0.044
27556W        W92717  31.914  23.091  13.942
27557W        W92718  44.859  30.538  10.656
27558W        W92719  10.892  18.011  13.913
27559W        W92720   3.786  15.078  10.672
27560W        W92721  35.918  24.909  11.181
27561W        W92722  20.630  34.329  13.909
27562W        W92723  19.054  24.627  11.928
27563W        W92724  23.314  15.244  12.030
27564W        W92725   8.613  34.850   3.582
27565W        W92726  22.004  17.281   0.652
27566W        W92727  14.510  37.674   1.717
27567W        W92728  32.197  14.059  11.181
27568W        W92729  28.161  37.498  12.044
27569W        W92730  19.354  40.447  14.570
27570W        W92731  31.162  33.974  12.308
27571W        W92732   9.508  38.437   4.539
27572W        W92733  28.019   5.984   1.844
27573W        W92734  14.358  23.557   0.246
27574W        W92735   1.704  31.918  12.325
27575W        W92736  24.295   4.219  12.991
27576W        W92737  10.289  12.729  13.095
27577W        W92738  39.427  22.453  13.888
27578W        W92739  17.482  16.063  13.848
27579W        W92740  35.097  37.027   3.303
27580W        W92741  22.921   7.182  12.435
27581W        W92742  33.043  20.834   4.065
27582W        W92743   9.149  13.500  11.158
27583W        W92744  10.375  10.826  10.387
27584W        W92745  29.133  21.437  12.940
27585W        W92746  34.060   9.392   2.754
27586W        W92747  38.089  38.919   3.800
27587W        W92748   2.288  39.750   1.763
27588W        W92749  24.417   9.900   1.988
27589W        W92750   9.778  20.582   1.382
27590W        W92751   8.234  28.609   2.285
27591W        W92752  21.553  31.583   1.277
27592W        W92753  32.750  26.103   2.331
27593W        W92754   7.360  31.441   3.191
27594W        W92755  29.715  27.908  12.846
27595W        W92756   5.357   9.216   4.189
27596W        W92757  31.384  32.721  14.981
27597W        W92758  14.583   4.400   0.833
27598W        W92759  10.352  38.930  12.234
27599W        W92760  33.802   6.759   3.789
27600W        W92761  27.031  27.884   1.395
27601W        W92762  18.766   2.883  13.654
27602W        W92763  19.362   3.239  11.126
27603W        W92764  22.552  30.631  11.231
27604W        W92765  39.315   9.323  11.656
27605W        W92766  20.541  25.171  14.437
27606W        W92767  37.308  40.577  14.361
27607W        W92768  18.652  31.312   3.838
27608W        W92769  42.537   2.377   2.426
27609W        W92770  31.019  41.041  14.694
27610W        W92771   8.420  24.292   3.265
27611W        W92772  40.741   9.269  12.581
27612W        W92773  34.833  20.284  14.525
27613W        W92774  20.869  19.555  11.604
27614W        W92775  32.455   8.684   5.052
27615W        W92776  16.172  27.098  11.467
27616W        W92777   9.372  29.950   4.186
27617W        W92778  22.761  38.607   9.880
27618W        W92779  42.276  35.375  11.054
27619W        W92780  26.403   5.292  12.369
27620W        W92781  39.406  10.816   4.711
27621W        W92782   2.703   3.885  14.271
27622W        W92783   4.628   6.813   3.217
27623W        W92784  27.259   3.716   0.857
27624W        W92785  38.289  22.661  12.294
27625W        W92786  15.210  22.403   4.128
27626W        W92787  19.102   6.885  12.423
27627W        W92788   8.818  20.282   2.398
27628W        W92789  29.168  35.113   2.860
27629W        W92790  40.448  38.821   3.163
27630W        W92791  23.277   8.768   4.665
27631W        W92792  20.968  43.491   1.183
27632W        W92793  12.255   1.840  10.691
27633W        W92794   8.610  12.348  11.668
27634W        W92795  25.022   0.378  14.895
27635W        W92796  22.898  29.032  13.434
27636W        W92797   0.229  31.534   3.770
27637W        W92798  38.346  42.984   2.890
27638W        W92799  44.700  38.934  12.116
27639W        W92800  35.364   9.874   4.310
27640W        W92801  22.114  28.189  12.868
27641W        W92802   4.907  42.045  11.267
27642W        W92803  26.116  23.720   1.648
27643W        W92804  11.181  33.934   1.292
27644W        W92805  16.315   4.790   2.775
27645W        W92806   1.411  31.518  13.680
27646W        W92807   2.151  13.400  14.792
27647W        W92808  28.220  27.945  10.184
27648W        W92809  25.693  37.712   0.354
27649W        W92810  38.800  28.602  11.814
27650W        W92811   7.258  40.315   1.377
27651W        W92812  15.571  10.274  14.423
27652W        W92813  30.392  38.467   4.598
27653W        W92814   9.805   8.629   2.147
27654W        W92815   5.729  13.205  14.862
27655W        W92816  15.667  22.220  12.075
27656W        W92817  10.345  12.910  11.045
27657W        W92818  22.698  17.563   2.130
27658W        W92819  20.991  17.493   1.488
27659W        W92820  17.623  10.324  11.566
27660W        W92821  13.233  25.633  11.999
27661W        W92822  37.180   5.196  12.510
27662W        W92823  26.148  28.640  13.079
27663W        W92824  30.441  18.153   1.509
27664W        W92825  19.918  13.355  10.756
27665W        W92826  25.364  27.214   1.272
27666W        W92827   8.217  21.056  13.580
27667W        W92828  11.250  34.893  11.980
27668W        W92829  31.211   7.229  12.976
27669W        W92830  31.450  14.310   3.263
27670W        W92831  29.157  40.525   2.344
27671W        W92832  27.627  30.930   0.734
27672W        W92833  28.796  16.859  10.984
27673W        W92834  39.664   0.407   1.187
27674W        W92835  30.201  28.914  14.328
27675W        W92836  43.044  31.161  14.489
27676W        W92837  44.144  19.299   1.842
27677W        W92838   0.395   9.906   3.623
27678W        W92839  34.585  26.181   2.643
27679W        W92840  32.393  38.352  14.063
27680W        W92841   0.494   2.661  14.389
27681W        W92842   4.157  34.671   4.217
27682W        W92843  19.963  13.334  11.693
27683W        W92844  22.929  22.766  11.230
27684W        W92845  31.004  38.261  10.695
27685W        W92846   2.450  39.701  12.082
27686W        W92847  31.152  23.021   1.659
27687W        W92848  37.832  38.509  14.973
27688W        W92849  42.733  15.247  13.949
27689W        W92850   3.269  13.851   2.647
27690W        W92851  28.952  22.668   5.372
27691W        W92852  15.701  14.338   0.517
27692W        W92853  26.156   8.479   1.431
27693W        W92854  14.862  28.578  11.144
27694W        W92855  33.080  19.270   1.426
27695W        W92856  15.155  22.837  11.080
27696W        W92857  22.200  24.577  11.567
27697W        W92858   8.889   9.366   1.276
27698W        W92859  35.323  26.046  14.824
27699W        W92860  10.255   2.702  14.537
27700W        W92861   6.263  27.066  10.307
27701W        W92862  40.851   3.652  10.643
27702W        W92863  28.417  16.113  11.901
27703W        W92864  20.632  11.100  10.704
27704W        W92865  14.874  25.206   2.254
27705W        W92866  34.350  20.584  12.493
27706W        W92867  37.856   5.869   3.926
27707W        W92868   6.956  19.098   1.777
27708W        W92869   0.026  35.553  14.064
27709W        W92870  15.807   6.630   2.098
27710W        W92871   7.017   8.248  13.787
27711W        W92872  11.851  37.241   0.904
27712W        W92873  14.667   9.184  14.661
27713W        W92874   2.696  17.842   1.365
27714W        W92875  15.074  43.106   2.380
27715W        W92876  31.281  10.154   4.287
27716W        W92877  28.399  40.850   1.228
27717W        W92878   4.384  40.185  14.353
27718W        W92879  40.914  22.022  13.944
27719W        W92880  27.157  11.243   1.778
27720W        W92881   5.842  26.348   1.187
27721W        W92882  37.370   1.792  13.892
27722W        W92883  42.933  15.400  11.527
27723W        W92884  16.766  41.808   9.707
27724W        W92885  10.154  10.574   0.244
27725W        W92886  37.595  20.281   5.046
27726W        W92887   9.309  41.990  11.515
27727W        W92888  44.140  35.358   3.280
27728W        W92889  26.489   5.658   2.806
27729W        W92890  38.832  15.487   3.658
27730W        W92891   5.711  13.508   0.318
27731W        W92892  22.615  14.267  11.406
27732W        W92893  26.479   2.065   1.463
27733W        W92894  17.484  27.522  14.914
27734W        W92895   1.103   5.914   1.989
27735W        W92896  13.118   1.032   4.062
27736W        W92897  21.987  43.492  11.541
27737W        W92898  30.549  43.608   2.439
27738W        W92899  37.459  43.042   2.943
27739W        W92900   8.461  26.284   4.700
27740W        W92901  14.650  29.046  11.340
27741W        W92902  37.980   8.228   4.180
27742W        W92903  27.740  11.185   2.873
27743W        W92904  36.026  29.369  14.827
27744W        W92905  30.628  10.755   4.732
27745W        W92906  44.423  29.976   4.391
27746W        W92907  30.815   9.876   4.328
27747W        W92908  12.962  41.044   1.767
27748W        W92909  21.572  36.874  13.978
27749W        W92910   1.905  37.934   3.833
27750W        W92911  30.591  19.729  10.739
27751W        W92912  23.456  31.084  14.381
27752W        W92913   7.004   0.328   4.933
27753W        W92914   2.804  34.122  11.435
27754W        W92915   3.241  39.912   4.054
27755W        W92916   3.367  23.711   0.300
27756W        W92917  20.805   5.843   4.772
27757W        W92918   3.966  36.859  14.125
27758W        W92919   3.384  40.757   2.788
27759W        W92920   0.499  35.650   2.460
27760W        W92921  15.601  12.170   2.265
27761W        W92922  28.641  11.171   2.320
27762W        W92923   7.459  35.344   0.341
27763W        W92924  21.916  22.685   1.771
27764W        W92925   9.431  14.810   1.739
27765W        W92926  12.302  11.655  13.417
27766W        W92927  30.451  17.130   4.349
27767W        W92928  19.727  42.520   3.596
27768W        W92929  20.173  26.421  13.489
27769W        W92930  31.343  39.855   0.403
27770W        W92931  14.647  38.892  11.734
27771W        W92932   7.435  13.292   4.622
27772W        W92933  36.910  35.794   4.055
27773W        W92934   0.723  36.944   2.725
27774W        W92935  33.916  42.307   4.216
27775W        W92936  43.515  24.546  13.952
27776W        W92937   8.179   5.733   1.259
27777W        W92938  36.156  29.507   3.734
27778W        W92939  21.690   3.700   4.760
27779W        W92940  20.662   1.241   2.305
27780W        W92941   2.051  29.076   1.721
27781W        W92942  42.979  43.702   2.652
27782W        W92943  44.394  21.627  13.376
27783W        W92944  38.977  37.924  12.124
27784W        W92945   9.832   6.027   2.400
27785W        W92946   6.591  40.988   0.692
27786W        W92947  16.997  38.546   5.013
27787W        W92948   3.776  21.635   3.142
27788W        W92949  34.122  21.303   1.047
27789W        W92950  17.206   3.942   0.265
27790W        W92951  32.379  33.182   2.057
27791W        W92952   2.392  18.784  11.719
27792W        W92953  10.848  28.451   0.699
27793W        W92954  36.310  35.909  12.963
27794W        W92955  28.536   8.934  11.989
27795W        W92956  41.253  13.146   3.142
27796W        W92957  44.359  21.638   0.882
27797W        W92958  25.192   7.570  12.579
27798W        W92959  11.030  33.163  11.953
27799W        W92960  36.525  16.090   0.371
27800W        W92961  39.506  37.123  11.029
27801W        W92962   0.821  18.336   1.005
27802W        W92963  15.605  25.419  13.808
27803W        W92964  27.664  10.254   4.993
27804W        W92965  13.114  14.586   0.279
27805W        W92966  16.104  29.712   0.857
27806W        W92967  29.487   2.405   3.165
27807W        W92968  35.015   5.767  13.764
27808W        W92969  19.106  40.670   3.343
27809W        W92970   4.177  29.171   2.579
27810W        W92971  16.541  40.371   2.369
27811W        W92972  19.037  15.163   1.231
27812W        W92973  41.378  20.262  13.894
27813W        W92974   5.799  29.371  12.115
27814W        W92975  38.814  40.843  12.363
27815W        W92976  14.079  11.879   2.668
27816W        W92977  31.850  24.433   1.368
27817W        W92978  21.111   7.717  11.640
27818W        W92979  39.912   5.173   3.198
27819W        W92980   9.015   4.495   1.472
27820W        W92981  11.291  32.664  12.607
27821W        W92982  30.887  15.110  12.871
27822W        W92983  32.930  35.244   0.874
27823W        W92984  14.310  10.068  10.448
27824W        W92985  39.398  30.696  12.075
27825W        W92986   3.672  10.852   1.241
27826W        W92987  43.102  26.172   1.263
27827W        W92988   5.825   5.818   2.523
27828W        W92989  36.402  22.455  13.090
27829W        W92990  12.794  24.413  14.381
27830W        W92991  38.423  12.521  11.787
27831W        W92992  43.528  40.741  10.738
27832W        W92993  14.622  20.395   2.224
27833W        W92994   3.715  30.762   3.709
27834W        W92995  35.387  39.935  12.519
27835W        W92996  41.094  38.951  13.490
27836W        W92997  26.028  18.435   2.463
27837W        W92998  16.383  22.479  11.466
27838W        W92999  31.655  34.389  13.959
27839W        W93000  25.476  21.066  13.073
27840W        W93001   5.625  44.901   3.603
27841W        W93002  31.054  14.753   4.887
27842W        W93003   3.763  17.073  14.833
27843W        W93004  44.498  27.291   0.863
27844W        W93005  29.741  43.915   2.196
27845W        W93006  21.226   5.728   0.394
27846W        W93007  27.796  22.224  10.962
27847W        W93008  34.430  34.777  14.894
27848W        W93009  22.790   1.399   2.397
27849W        W93010  22.200  32.808  12.587
27850W        W93011  25.921  35.457  11.612
27851W        W93012  27.124  34.627   3.373
27852W        W93013   0.826  19.220   3.611
27853W        W93014  20.587  41.498   2.155
27854W        W93015  33.898  28.423  12.005
27855W        W93016   8.492   2.953  13.893
27856W        W93017   1.204   4.905  11.678
27857W        W93018   4.379   5.645   3.568
27858W        W93019  14.305  39.009   1.820
27859W        W93020   6.958  42.312  13.898
27860W        W93021  17.028  17.281   2.537
27861W        W93022  12.851  10.647  10.739
27862W        W93023  33.623   5.014  11.360
27863W        W93024   3.269  22.999   4.501
27864W        W93025   7.189  12.377   0.354
27865W        W93026  42.038  42.300  11.069
27866W        W93027  41.332  22.656   3.201
27867W        W93028  23.791  35.313  12.058
27868W        W93029   7.802  36.939   1.919
27869W        W93030  36.427  15.217   4.451
27870W        W93031  20.223  14.581   3.571
27871W        W93032   0.604  21.180   2.670
27872W        W93033  35.418  21.142  13.011
27873W        W93034  18.319  27.265  12.941
27874W        W93035  39.594  11.820  13.089
27875W        W93036  32.459  31.757   3.330
27876W        W93037  43.972  33.990   1.018
27877W        W93038   8.505  24.413   1.791
27878W        W93039  21.192  16.646  12.445
27879W        W93040  28.477  32.666   4.251
27880W        W93041  39.435  19.331  12.014
27881W        W93042  23.450   5.872  11.683
27882W        W93043  20.054  19.637  13.306
27883W        W93044  22.815  38.378   0.745
27884W        W93045  25.969  44.230   2.472
27885W        W93046  30.721  25.752   4.172
27886W        W93047  43.020  38.613   0.953
27887W        W93048   2.948  39.056   0.851
27888W        W93049  24.201   2.356   0.701
27889W        W93050  16.732  38.823   0.672
27890W        W93051  14.743  23.151  11.419
27891W        W93052  13.605   3.397   4.504
27892W        W93053  15.303  35.769  13.853
27893W        W93054  16.241   6.254  12.219
27894W        W93055  16.156  22.955  12.119
27895W        W93056  42.834  32.568  11.222
27896W        W93057  38.198  12.840  14.463
27897W        W93058  14.653  28.235  13.733
27898W        W93059  44.182  35.801   0.356
27899W        W93060  31.911   5.312   3.592
27900W        W93061   9.003  16.092  14.737
27901W        W93062  31.906  15.305  11.551
27902W        W93063  19.792   7.192   2.788
27903W        W93064   9.606  42.201   3.084
27904W        W93065   1.305  36.122  13.810
27905W        W93066   0.015   4.478  11.704
27906W        W93067  10.930  10.798  14.928
27907W        W93068  13.903   9.682  13.523
27908W        W93069  36.549   3.453   1.766
27909W        W93070  20.238  20.494  14.992
27910W        W93071  37.398   4.374  12.029
27911W        W93072  39.858  33.447   4.761
27912W        W93073  44.194   0.093   3.262
27913W        W93074  42.400  35.590  13.289
27914W        W93075  16.201  28.664   0.720
27915W        W93076  36.864  39.924   4.032
27916W        W93077   1.986  27.162   3.421
27917W        W93078  43.154   8.465  14.363
27918W        W93079  18.007  17.715  14.329
27919W        W93080  33.039   7.898  11.160
27920W        W93081  10.775   3.899  10.739
27921W        W93082  29.163  21.193   1.935
27922W        W93083  33.032   8.823   5.055
27923W        W93084  14.709  12.205  14.794
27924W        W93085  27.089  18.624  12.930
27925W        W93086  24.429  15.656   2.021
27926W        W93087  31.309  38.925   5.438
27927W        W93088   5.917  23.139   2.789
27928W        W93089  10.047  12.969  13.836
27929W        W93090  10.809  29.209   2.378
27930W        W93091   4.873  14.076  13.518
27931W        W93092  10.863   9.521   1.132
27932W        W93093  27.975  16.020  13.800
27933W        W93094  26.521  34.278   4.121
27934W        W93095  17.200  15.666   2.161
27935W        W93096  31.053  30.018  13.925
27936W        W93097  14.267  18.755  10.926
27937W        W93098  40.016   5.504  12.617
27938W        W93099   1.370   9.543   0.337
27939W        W93100   4.671  25.256  14.946
27940W        W93101  30.565  30.554  12.504
27941W        W93102  36.385  26.292  10.324
27942W        W93103  42.464  31.103   3.841
27943W        W93104  38.064  27.302   2.910
27944W        W93105  14.732  16.582  11.874
27945W        W93106  39.023  24.834   0.855
27946W        W93107  16.256  36.592   4.586
27947W        W93108  32.804   9.310   0.394
27948W        W93109  15.826  27.719   2.139
27949W        W93110  32.388   0.999   2.439
27950W        W93111  34.491  13.278   2.144
27951W        W93112  25.728  39.522  14.485
27952W        W93113  36.887  23.319   1.427
27953W        W93114  32.911   4.827   4.216
27954W        W93115   7.355  11.801   1.248
27955W        W93116   7.479  42.926   4.169
27956W        W93117  27.665   2.041  10.675
27957W        W93118  21.260  20.509   3.737
27958W        W93119  39.545  12.593  13.280
27959W        W93120  39.962  19.148   2.494
27960W        W93121  16.118  38.033   2.689
27961W        W93122  12.617  30.655  14.947
27962W        W93123   1.235  24.630   3.969
27963W        W93124  12.987  22.636  12.453
27964W        W93125   9.737  38.866   1.002
27965W        W93126   0.470  42.939  12.144
27966W        W93127  22.253   7.757   2.561
27967W        W93128  40.825  40.437   2.924
27968W        W93129  39.637  26.620  13.001
27969W        W93130  44.570  43.968  14.466
27970W        W93131  40.021   2.040  11.681
27971W        W93132   5.306  15.550   4.061
27972W        W93133  22.042  29.157  14.487
27973W        W93134  41.017  39.582  12.916
27974W        W93135  21.977  23.679  11.325
27975W        W93136  42.888  30.689   1.859
27976W        W93137   6.768  33.972  13.074
27977W        W93138  20.799  29.070   1.609
27978W        W93139   6.001   0.880   4.128
27979W        W93140  13.279  18.552   0.238
27980W        W93141  43.418   6.778  13.338
27981W        W93142   6.620  27.286   0.337
27982W        W93143  43.726  43.400  14.359
27983W        W93144  28.919  35.608   2.755
27984W        W93145  23.444   2.705  14.528
27985W        W93146  20.174  24.988   2.713
27986W        W93147  40.063  26.807   3.280
27987W        W93148  34.796  32.218   2.374
27988W        W93149  35.364  23.707   0.486
27989W        W93150  12.866  26.442  13.323
27990W        W93151  43.434  11.597  13.889
27991W        W93152   0.894  37.110   3.208
27992W        W93153  33.893  43.972   0.456
27993W        W93154  35.358   3.120  13.821
27994W        W93155   0.736  21.129  14.949
27995W        W93156  32.815   7.492  11.406
27996W        W93157  17.814  26.763   0.370
27997W        W93158  36.621   2.768   4.116
27998W        W93159  44.517   0.036   2.441
27999W        W93160   5.908   0.275   3.816
28000W        W93161  19.468   4.913  11.227
28001W        W93162  32.643   3.592   1.150
28002W        W93163  37.125  12.199  14.951
28003W        W93164  29.403  17.774  12.689
28004W        W93165  14.128  24.686   1.866
28005W        W93166  29.787  44.423   3.182
28006W        W93167  43.150  21.231   0.859
28007W        W93168  33.052  12.881  11.009
28008W        W93169  20.714  24.516  13.033
28009W        W93170  10.928  39.023   1.969
28010W        W93171  17.951  11.352   3.200
28011W        W93172  42.932  29.620   1.707
28012W        W93173   1.290  22.112  13.632
28013W        W93174  37.386   2.937   0.497
28014W        W93175   0.095   6.845   0.090
28015W        W93176   3.177   4.294  13.806
28016W        W93177   0.156   4.312   2.309
28017W        W93178  20.328  41.999   2.437
28018W        W93179  37.545  11.357  10.540
28019W        W93180   7.362  28.028   2.438
28020W        W93181  24.192  26.447   0.877
28021W        W93182  15.710   5.169  13.889
28022W        W93183  25.428  26.642  13.392
28023W        W93184  37.781  22.337  13.560
28024W        W93185   2.952  19.087   1.806
28025W        W93186  28.534  16.713   2.963
28026W        W93187  40.499  21.711  13.921
28027W        W93188  32.495  40.232   9.686
28028W        W93189   4.422  14.627   3.689
28029W        W93190  17.517  20.775  13.001
28030W        W93191  29.555  12.998  10.721
28031W        W93192  10.883   3.876  13.466
28032W        W93193  43.307  14.335   9.885
28033W        W93194  38.861   6.345   3.766
28034W        W93195  14.175  18.331  13.957
28035W        W93196  28.408  37.685  11.111
28036W        W93197   9.710  16.213  11.800
28037W        W93198   4.485  17.232   2.222
28038W        W93199  33.410   9.230  14.197
28039W        W93200  29.091  44.439   2.496
28040W        W93201  14.157  19.637   0.184
28041W        W93202   4.127  17.924  11.551
28042W        W93203  10.821   9.208   3.325
28043W        W93204  15.659   9.147   4.126
28044W        W93205  41.287  16.665  13.507
28045W        W93206   3.260   9.834  14.699
28046W        W93207   5.370  33.143   3.286
28047W        W93208   7.106   9.506  14.556
28048W        W93209  43.969  10.233  11.158
28049W        W93210  33.782  39.313  13.477
28050W        W93211  40.338  18.995  11.681
28051W        W93212  10.341   0.395   2.712
28052W        W93213  37.084  29.414  13.255
28053W        W93214  21.481  38.156  11.082
28054W        W93215  41.868  26.617  14.906
28055W        W93216  24.954  28.438   1.782
28056W        W93217   1.980  27.450   2.855
28057W        W93218  32.434   1.409   0.899
28058W        W93219  39.807  41.483  10.735
28059W        W93220  44.886   0.270   2.172
28060W        W93221  14.244  30.464   4.104
28061W        W93222  13.277  44.241   2.866
28062W        W93223   9.192  10.234   3.308
28063W        W93224  32.369  38.239   4.951
28064W        W93225  27.865  33.212  13.383
28065W        W93226  40.243  31.484   1.877
28066W        W93227  40.305   8.132   4.322
28067W        W93228  11.349   5.441  10.811
28068W        W93229  34.549  21.516   0.288
28069W        W93230   6.653  44.708   3.615
28070W        W93231  31.707  31.279   1.713
28071W        W93232  42.432  33.625   0.377
28072W        W93233   2.291  20.303  13.945
28073W        W93234  16.483  16.575   9.855
28074W        W93235  13.362  16.824  13.410
28075W        W93236  14.235  34.089   3.378
28076W        W93237  14.788  42.954  11.892
28077W        W93238   3.800  23.013   4.066
28078W        W93239   1.050  34.166   0.812
28079W        W93240  23.380  36.316   4.582
28080W        W93241  43.524  11.323   3.318
28081W        W93242  41.905  39.562  11.938
28082W        W93243  10.613  44.917   1.806
28083W        W93244  10.051  43.322  13.470
28084W        W93245  25.628  31.104  13.737
28085W        W93246  29.625  33.866  13.427
28086W        W93247  12.371  34.625   2.242
28087W        W93248  40.581   6.420  13.991
28088W        W93249  20.758   8.169   0.477
28089W        W93250  37.130   6.525   2.122
28090W        W93251  42.275  16.625   2.329
28091W        W93252  32.114  14.521   2.301
28092W        W93253  21.378  33.147   2.279
28093W        W93254   3.888  23.276  13.778
28094W        W93255   7.748  42.268   1.370
28095W        W93256  12.426  34.666  13.948
28096W        W93257  37.611  34.637  14.886
28097W        W93258  16.666  26.751  14.057
28098W        W93259  37.464  25.597  11.335
28099W        W93260  35.932  27.430   3.701
28100W        W93261  37.048  32.976  12.996
28101W        W93262  10.095  23.765   0.791
28102W        W93263  42.495  20.921   0.206
28103W        W93264  18.024   4.574   2.099
28104W        W93265  30.938  13.319  11.231
28105W        W93266  28.579  29.561   2.814
28106W        W93267  22.439  15.633   1.726
28107W        W93268  39.488  36.949  12.067
28108W        W93269  24.461  20.021   2.213
28109W        W93270  15.315   4.811  14.586
28110W        W93271  21.149  31.868  10.890
28111W        W93272  30.623   6.388  14.323
28112W        W93273  33.690  21.544   0.886
28113W        W93274   2.150  32.019  12.585
28114W        W93275  18.085  43.297  13.677
28115W        W93276  36.564   0.217  12.944
28116W        W93277  27.697  43.010   0.054
28117W        W93278   0.740  37.612   0.861
28118W        W93279  43.432  31.841  12.936
28119W        W93280  40.981  40.480   4.933
28120W        W93281  16.190  11.364  14.429
28121W        W93282  13.191  38.361   3.586
28122W        W93283   3.452  26.557   1.400
28123W        W93284   2.413  27.002   4.260
28124W        W93285  12.697   9.737  13.259
28125W        W93286  44.381   5.813  14.535
28126W        W93287   6.392  23.217  12.368
28127W        W93288  32.558  39.539   1.797
28128W        W93289  37.315  10.250   4.558
28129W        W93290  33.911  27.408  11.196
28130W        W93291   1.478  34.325  13.523
28131W        W93292  16.783   0.316  11.196
28132W        W93293  34.102  30.189   3.315
28133W        W93294  29.571   0.235  14.015
28134W        W93295  25.098   2.997  13.682
28135W        W93296   1.327  41.969  13.367
28136W        W93297  11.378  17.108   1.574
28137W        W93298  20.710  33.361   1.662
28138W        W93299  17.668   8.234  13.921
28139W        W93300   4.864  21.677  13.488
28140W        W93301  39.504   9.795   4.025
28141W        W93302  20.558  38.690   2.211
28142W        W93303  43.943   9.862  14.860
28143W        W93304  16.139  24.628  14.410
28144W        W93305   4.901   6.909   1.848
28145W        W93306  19.623  28.102   4.308
28146W        W93307  38.665  23.084   1.390
28147W        W93308  32.614  43.967  12.805
28148W        W93309  12.508  40.937   2.662
28149W        W93310   5.493  40.765  11.134
28150W        W93311  36.802  11.655   4.859
28151W        W93312  40.952   9.407   0.529
28152W        W93313  10.603  19.678   1.939
28153W        W93314   8.628  38.099  14.430
28154W        W93315   0.913  21.850  14.424
28155W        W93316  42.932   4.582  12.060
28156W        W93317  28.435  35.045   1.233
28157W        W93318  28.594  17.247   1.678
28158W        W93319   5.333  14.793  10.325
28159W        W93320  25.158  40.782  13.024
28160W        W93321  13.934  31.581   3.783
28161W        W93322  11.134  23.440  11.600
28162W        W93323  24.641  30.589   0.423
28163W        W93324  13.724  42.730   2.445
28164W        W93325  13.923  18.191   4.615
28165W        W93326  40.851  23.307   2.404
28166W        W93327  16.326  13.407   1.315
28167W        W93328  44.642  41.199  14.396
28168W        W93329  35.777  11.748   4.865
28169W        W93330  43.513  30.908   4.235
28170W        W93331   4.880  21.259   5.114
28171W        W93332  19.579  28.047   0.182
28172W        W93333  35.596  13.347   0.324
28173W        W93334  35.187  19.688   2.805
28174W        W93335  25.591  24.666   4.554
28175W        W93336   8.114  11.883   0.987
28176W        W93337   3.722   1.170  10.642
28177W        W93338  20.285  38.840   2.978
28178W        W93339  16.232   6.865  14.025
28179W        W93340  11.573  33.433   2.011
28180W        W93341   9.277  17.314  11.218
28181W        W93342  16.295  37.282  10.328
28182W        W93343   8.766  14.240  10.704
28183W        W93344   8.171  26.434  11.158
28184W        W93345  19.523  14.257   5.108
28185W        W93346  37.142  35.921  11.951
28186W        W93347  18.523  33.173  10.516
28187W        W93348  37.574  44.885   1.324
28188W        W93349   0.418   6.194  11.643
28189W        W93350  40.808  28.559  11.522
28190W        W93351   1.863  43.747  13.989
28191W        W93352  15.184  13.710   1.761
28192W        W93353   9.139  30.667  14.792
28193W        W93354   7.250  12.075   1.726
28194W        W93355  13.698  31.120  13.332
28195W        W93356  38.176  23.789   1.623
28196W        W93357   5.167  13.981  13.936
28197W        W93358  34.831  14.619   3.707
28198W        W93359  26.462  28.855   0.166
28199W        W93360  12.813  13.433  10.813
28200W        W93361   2.485  23.558   3.251
28201W        W93362  12.952  30.862  14.637
28202W        W93363  42.475  23.992   3.608
28203W        W93364  30.582  14.877   4.680
28204W        W93365   9.990  25.102  14.531
28205W        W93366  12.083  15.654  13.745
28206W        W93367  39.820  29.496   0.414
28207W        W93368  23.135  14.344  10.176
28208W        W93369  21.491  15.901  10.084
28209W        W93370  20.599  29.127   4.292
28210W        W93371  33.361  24.640  12.486
28211W        W93372   6.847  41.237  11.570
28212W        W93373   8.845  28.605   1.911
28213W        W93374  31.753  28.220   2.106
28214W        W93375  23.123  33.420  11.063
28215W        W93376   1.713   9.847   3.230
28216W        W93377  27.018  14.241  12.473
28217W        W93378  24.008  28.881   0.970
28218W        W93379  21.878  25.586  12.521
28219W        W93380   3.230  18.194  12.983
28220W        W93381  29.939   0.792   1.355
28221W        W93382  15.641  32.657   2.843
28222W        W93383  28.977   2.145   4.779
28223W        W93384  25.195  31.097  14.001
28224W        W93385  35.239  14.100  10.885
28225W        W93386   1.925  24.986   1.716
28226W        W93387  34.464  19.109   1.820
28227W        W93388  18.026  20.830  10.598
28228W        W93389  37.992  41.245   0.239
28229W        W93390  42.699  16.510  13.173
28230W        W93391  26.676  41.904  11.663
28231W        W93392   0.841  16.814   2.950
28232W        W93393  22.082  39.827   2.335
28233W        W93394  34.106  36.555   4.552
28234W        W93395  15.279  20.179  11.224
28235W        W93396  16.739  40.967  10.255
28236W        W93397  22.654   6.601  14.354
28237W        W93398  44.842  24.936   4.322
28238W        W93399  38.785   9.326  10.402
28239W        W93400  22.044  23.611  13.530
28240W        W93401  42.505  14.277   3.593
28241W        W93402  44.185  37.866  12.506
28242W        W93403   3.280  25.462  11.686
28243W        W93404  21.802  25.935   2.015
28244W        W93405  33.494  21.138   3.370
28245W        W93406  32.353  20.660  14.599
28246W        W93407  38.683  15.698   4.931
28247W        W93408  25.747  11.040  10.789
28248W        W93409  42.031  22.185  14.501
28249W        W93410   3.788  37.471   1.894
28250W        W93411   2.510  35.296   2.616
28251W        W93412  41.270  27.530   1.219
28252W        W93413  33.407  33.191  11.240
28253W        W93414  10.363   6.813  13.537
28254W        W93415   4.218   3.127   0.919
28255W        W93416  12.920  39.639   4.041
28256W        W93417  44.012  42.634  11.113
28257W        W93418  29.929  12.735  13.831
28258W        W93419   5.255   7.844   3.735
28259W        W93420  26.731  35.715   4.959
28260W        W93421  14.216   8.172   4.173
28261W        W93422  26.409  44.092  12.157
28262W        W93423   6.752  19.192  10.568
28263W        W93424   3.845  21.973  14.981
28264W        W93425   2.356  11.097  13.510
28265W        W93426  44.451  13.608   0.722
28266W        W93427  30.358  38.272   4.094
28267W        W93428  44.387  12.509  12.862
28268W        W93429  27.003  34.826   1.774
28269W        W93430   5.305  16.133  12.507
28270W        W93431  11.249  44.286  10.665
28271W        W93432  29.408   9.183  14.115
28272W        W93433  29.648  18.294  11.551
28273W        W93434  33.925  22.521  10.040
28274W        W93435   0.735  22.637   1.367
28275W        W93436  37.123  22.840  12.783
28276W        W93437  34.560  17.026   0.928
28277W        W93438   2.447  32.612   3.755
28278W        W93439  15.254  28.153  12.490
28279W        W93440   1.347  15.622  13.484
28280W        W93441  11.425  11.235   4.727
28281W        W93442  10.337  44.123  12.521
28282W        W93443  34.002  11.269   4.254
28283W        W93444   0.224   7.427   2.723
28284W        W93445  35.437  19.186   4.522
28285W        W93446  44.448   3.311  12.044
28286W        W93447  44.336  13.135   0.545
28287W        W93448  25.691  44.859  14.014
28288W        W93449   9.414  27.618   9.536
28289W        W93450  33.532  28.185   3.841
28290W        W93451   8.444  19.494   2.645
28291W        W93452  41.911  40.466   4.470
28292W        W93453  15.878  14.199   5.007
28293W        W93454  41.284   8.270  12.960
28294W        W93455   1.435  13.715   2.602
28295W        W93456   9.173   8.282   1.700
28296W        W93457   2.534  23.539   1.755
28297W        W93458  21.754   9.628   2.310
28298W        W93459   9.851   1.858  12.898
28299W        W93460   8.385   2.383  14.516
28300W        W93461  23.284   4.868   1.135
28301W        W93462  25.983  13.906   2.154
28302W        W93463  10.666  21.586   1.821
28303W        W93464   9.093   2.286  11.184
28304W        W93465   5.969  41.453  14.022
28305W        W93466   6.416  16.526  12.859
28306W        W93467   4.659  10.098  14.023
28307W        W93468  11.379  26.043  14.781
28308W        W93469  38.230  27.391   1.525
28309W        W93470  36.115  22.182  10.668
28310W        W93471  38.867  32.926   2.563
28311W        W93472  22.525  27.656  12.085
28312W        W93473  19.066   0.831   3.745
28313W        W93474  27.557   5.342  13.336
28314W        W93475  20.507   1.734   2.345
28315W        W93476   1.076   3.904   1.272
28316W        W93477   8.764  15.933   2.475
28317W        W93478  44.491  24.768   2.190
28318W        W93479   0.700  22.556   3.649
28319W        W93480  26.190  12.811   3.660
28320W        W93481  29.946  17.618  13.572
28321W        W93482  23.176   5.618   2.735
28322W        W93483  36.587  10.906  13.208
28323W        W93484   7.884  36.293  13.471
28324W        W93485  21.818  29.611  10.732
28325W        W93486   9.294  14.352   4.209
28326W        W93487  15.729   6.499   2.573
28327W        W93488   3.221  28.411   4.098
28328W        W93489  12.819  17.228   3.169
28329W        W93490  29.649  24.664  13.497
28330W        W93491  19.750  32.172   3.674
28331W        W93492  22.970   8.580  12.573
28332W        W93493  39.722  30.788  14.810
28333W        W93494  39.562  33.606   1.427
28334W        W93495   5.196  30.262  14.082
28335W        W93496  32.618  36.542   3.279
28336W        W93497  17.535  33.099  14.377
28337W        W93498  30.895   7.823  14.843
28338W        W93499  34.497  39.497  13.259
28339W        W93500  40.810  22.499   4.405
28340W        W93501  21.236   9.464   4.149
28341W        W93502  39.957   9.762   2.733
28342W        W93503  21.199  42.752   3.708
28343W        W93504  24.001   4.730   1.853
28344W        W93505  32.666  25.898  12.175
28345W        W93506  34.557   9.181  10.769
28346W        W93507  22.667   7.103  14.305
28347W        W93508   4.365   9.373   1.898
28348W        W93509   8.915  42.472  11.527
28349W        W93510  39.879  42.663  13.521
28350W        W93511   9.348  11.373  12.015
28351W        W93512  13.847   1.379   2.999
28352W        W93513  33.028  33.266   3.255
28353W        W93514  44.112  32.358   1.310
28354W        W93515  44.673  26.618   2.406
28355W        W93516  21.018  15.685  14.280
28356W        W93517  10.830  32.607  12.885
28357W        W93518  12.091  21.708  12.436
28358W        W93519  17.247  21.157   2.414
28359W        W93520  29.501  13.862  13.286
28360W        W93521   9.896  22.678   4.612
28361W        W93522  12.372   5.475   3.321
28362W        W93523  15.645   8.015  13.986
28363W        W93524   2.547  30.083   0.526
28364W        W93525  14.090   4.700   0.017
28365W        W93526  44.391  35.852   3.260
28366W        W93527  42.332  22.659  13.042
28367W        W93528  33.913   4.295   0.716
28368W        W93529  30.552   0.994   2.628
28369W        W93530  18.222  23.409   0.325
28370W        W93531   6.288  39.811  14.425
28371W        W93532  17.336  44.123   2.333
28372W        W93533  44.812  25.989  14.831
28373W        W93534  23.664  24.993   2.380
28374W        W93535  43.040  37.423   1.231
28375W        W93536  28.130   7.903  14.316
28376W        W93537  33.536  23.552   5.064
28377W        W93538   1.319  31.219  12.513
28378W        W93539   6.987   6.199   4.173
28379W        W93540   8.666  23.666   0.865
28380W        W93541  13.019  31.019  13.937
28381W        W93542  36.571  36.645   3.205
28382W        W93543  32.225   5.411   0.196
28383W        W93544  42.453  18.553  12.134
28384W        W93545  30.580  25.988   4.594
28385W        W93546  22.163  29.695   2.727
28386W        W93547  23.447  25.767   1.295
28387W        W93548  19.584  15.677   1.730
28388W        W93549  44.507  43.386   2.809
28389W        W93550  38.916  36.382   4.360
28390W        W93551  18.074  29.588   1.066
28391W        W93552  25.819  24.522  14.808
28392W        W93553  43.423  37.779   1.223
28393W        W93554  18.396  16.002  12.948
28394W        W93555  35.568   8.977  12.135
28395W        W93556  35.617  11.287  11.170
28396W        W93557  33.405  11.101   1.934
28397W        W93558  30.123  29.404   3.697
28398W        W93559  14.147  34.038  12.427
28399W        W93560  33.323  32.469   3.582
28400W        W93561  30.456  14.874   3.775
28401W        W93562   3.230  44.312   2.369
28402W        W93563   7.448  34.158   0.788
28403W        W93564  13.010   2.331   4.127
28404W        W93565  19.854  17.904  12.275
28405W        W93566  12.599  30.067   0.626
28406W        W93567  23.263  43.944   3.208
28407W        W93568  36.179  37.122  11.180
28408W        W93569  31.133  34.445   1.282
28409W        W93570  17.534  33.486  10.590
28410W        W93571  14.731  23.243  13.618
28411W        W93572  43.883  28.383   1.229
28412W        W93573  31.983  13.439  13.617
28413W        W93574   1.793  22.021  13.452
28414W        W93575   0.394   3.776   3.608
28415W        W93576   4.276  10.376  13.805
28416W        W93577  16.122  14.618   4.103
28417W        W93578  39.300  13.676  10.683
28418W        W93579   4.709  34.718   1.625
28419W        W93580   2.705   5.167   2.678
28420W        W93581  32.343  18.509   4.038
28421W        W93582  16.019   1.304   3.229
28422W        W93583  17.020  27.227  11.688
28423W        W93584  39.424   3.996  10.804
28424W        W93585  31.675  36.314  12.456
28425W        W93586  27.738  21.383   2.729
28426W        W93587  35.097  17.046   0.832
28427W        W93588  43.361   1.328  12.381
28428W        W93589  13.341  23.104   4.124
28429W        W93590  25.956   5.744   3.718
28430W        W93591  18.693   3.401  12.019
28431W        W93592   7.206  40.065   0.897
28432W        W93593  23.292   7.733   3.358
28433W        W93594  18.989  19.769  12.112
28434W        W93595   4.781  22.535   1.900
28435W        W93596  29.149  35.032   1.760
28436W        W93597  26.156  44.359   4.724
28437W        W93598  31.639  16.134  14.919
28438W        W93599  32.192  11.827  10.689
28439W        W93600  28.519  19.010  14.072
28440W        W93601  20.179   9.834   4.120
28441W        W93602  18.490  34.516  12.239
28442W        W93603  43.520  21.503  11.150
28443W        W93604  31.378  33.947   0.367
28444W        W93605  25.786  36.195   2.071
28445W        W93606  20.477   0.743  10.612
28446W        W93607  38.365  34.758   1.853
28447W        W93608  10.380  21.047   2.861
28448W        W93609  10.937  32.438  10.679
28449W        W93610  24.101   6.643   4.204
28450W        W93611  26.134  18.769  14.832
28451W        W93612  41.502  21.214   4.313
28452W        W93613  36.165  42.959  12.105
28453W        W93614  20.104  23.952   4.052
28454W        W93615   7.820  20.032   2.094
28455W        W93616  28.176  42.867   1.847
28456W        W93617  21.448  28.122   0.046
28457W        W93618  18.790  23.095  12.814
28458W        W93619   2.087  36.374  13.205
28459W        W93620  27.925   0.097   0.362
28460W        W93621   5.349  36.814   1.720
28461W        W93622  27.514  24.976  10.525
28462W        W93623  22.612  18.456  12.078
28463W        W93624  15.067   6.113   1.224
28464W        W93625  25.177   3.138   3.029
28465W        W93626  11.961  39.509   2.890
28466W        W93627  31.889   5.154   1.868
28467W        W93628  13.522  28.847  10.695
28468W        W93629  41.070  10.694  11.186
28469W        W93630  15.244  24.649   1.770
28470W        W93631  25.569  12.643   3.076
28471W        W93632  41.434  36.306   2.926
28472W        W93633  38.977  11.528   3.174
28473W        W93634  14.838  43.463  10.633
28474W        W93635  37.817  20.059   2.751
28475W        W93636  34.003   1.487  10.888
28476W        W93637  24.799  12.279  12.123
28477W        W93638  32.579   6.363   0.248
28478W        W93639  14.300  30.520  11.231
28479W        W93640  20.070  25.588   4.652
28480W        W93641  22.143  28.075   4.883
28481W        W93642  19.123  22.762   4.578
28482W        W93643  19.002  20.707  12.991
28483W        W93644  42.364  42.427  10.705
28484W        W93645   3.834   7.383  10.121
28485W        W93646  23.812  40.514   2.626
28486W        W93647  39.161  15.640   1.715
28487W        W93648  38.333  29.413  11.615
28488W        W93649  15.629   5.725  10.949
28489W        W93650  39.597   8.198  12.143
28490W        W93651  22.656  25.194  11.130
28491W        W93652  39.341  43.507  14.754
28492W        W93653  12.868   1.611   4.115
28493W        W93654  12.882   2.593   1.005
28494W        W93655  16.378  23.890  14.039
28495W        W93656   3.345   9.277  11.844
28496W        W93657  21.544  11.851   1.851
28497W        W93658   2.545  28.885   1.720
28498W        W93659  12.267  29.685  14.740
28499W        W93660  42.546  14.324  13.434
28500W        W93661  44.494  39.547  10.475
28501W        W93662   2.611  36.449  14.722
28502W        W93663  28.102  18.654   3.239
28503W        W93664   6.392  30.770   9.862
28504W        W93665  29.116   8.827  14.336
28505W        W93666  31.603  20.368  14.999
28506W        W93667  10.822  19.477  13.423
28507W        W93668  25.247  39.314   3.380
28508W        W93669  41.489  24.057  13.651
28509W        W93670  31.417  28.371  12.051
28510W        W93671  17.331  38.824  11.268
28511W        W93672  28.139  28.566  10.717
28512W        W93673  24.612   2.986  13.500
28513W        W93674  29.100   8.816  14.857
28514W        W93675  27.617  37.928  13.126
28515W        W93676  43.799   9.798  12.961
28516W        W93677  15.270  23.500   4.173
28517W        W93678  26.072  41.893  13.921
28518W        W93679  26.522   1.646   3.612
28519W        W93680   3.903  22.573   4.298
28520W        W93681  39.261  42.610   3.711
28521W        W93682  42.841  30.911   1.380
28522W        W93683   4.836  10.356  10.160
28523W        W93684  27.198  41.186   2.457
28524W        W93685  10.270  44.451  13.873
28525W        W93686  35.955   8.316  13.764
28526W        W93687  42.730  43.954   3.183
28527W        W93688  20.835  21.333  14.774
28528W        W93689  22.214  29.506   1.330
28529W        W93690  43.410  20.759   0.287
28530W        W93691  24.795  27.905  10.659
28531W        W93692  18.593  25.850  11.162
28532W        W93693  41.471  18.293   4.859
28533W        W93694  25.572  10.100   0.537
28534W        W93695   5.989   8.830   1.039
28535W        W93696  35.131   8.425   1.821
28536W        W93697  33.336  20.968  14.515
28537W        W93698   8.217  23.334   4.203
28538W        W93699  36.328  32.941  12.471
28539W        W93700  34.817  11.861   5.035
28540W        W93701  22.012   7.473  13.301
28541W        W93702  11.608   2.980  14.354
28542W        W93703  10.010  33.445  13.837
28543W        W93704  43.313  17.689  12.845
28544W        W93705  17.076  44.419  12.456
28545W        W93706   0.695   3.909  10.897
28546W        W93707  30.679  15.119  10.702
28547W        W93708   2.374   7.666  10.533
28548W        W93709  34.446   8.919  14.012
28549W        W93710  33.449   3.678   2.404
28550W        W93711  15.245  21.596  13.057
28551W        W93712  42.648  38.053  14.665
28552W        W93713  23.021  12.357  13.527
28553W        W93714  33.055  37.943  14.543
28554W        W93715  13.097  27.417  12.089
28555W        W93716  12.764  34.611  13.554
28556W        W93717  35.294   0.006   4.112
28557W        W93718  20.698  39.360  10.831
28558W        W93719  42.109   0.716  12.426
28559W        W93720  40.094   9.301   0.545
28560W        W93721  35.267  28.582  10.507
28561W        W93722  29.092  31.020   4.827
28562W        W93723   6.590  39.092  13.895
28563W        W93724  15.346   6.857   1.951
28564W        W93725  22.653  16.884   1.433
28565W        W93726  17.982   5.685  12.015
28566W        W93727  16.078  12.415   2.232
28567W        W93728  13.188   5.726   4.047
28568W        W93729   0.492   2.709   2.839
28569W        W93730   2.192  16.342  12.944
28570W        W93731  38.612   6.707  14.476
28571W        W93732  39.475  29.873   4.123
28572W        W93733  32.857  27.219  14.400
28573W        W93734  21.129  19.004  12.851
28574W        W93735   9.884   1.684  14.795
28575W        W93736  32.391   8.484   2.904
28576W        W93737  11.714   3.487  14.277
28577W        W93738  12.703  37.864   3.330
28578W        W93739  37.336  30.267   3.703
28579W        W93740  28.946  31.840  14.540
28580W        W93741  24.085  21.622   1.020
28581W        W93742   5.198  34.601  13.999
28582W        W93743  14.269  40.451  10.633
28583W        W93744   7.899  43.006  11.972
28584W        W93745  42.078  43.447   0.312
28585W        W93746  17.708   7.620  11.157
28586W        W93747  14.748  13.732   4.066
28587W        W93748  22.471  34.214  11.997
28588W        W93749  25.068  38.558   0.070
28589W        W93750  25.586  24.913   0.706
28590W        W93751   2.961   1.226   4.131
28591W        W93752  15.621   7.338   2.861
28592W        W93753   7.715  26.099  10.154
28593W        W93754  43.147  33.214   3.192
28594W        W93755  17.803   0.108  13.151
28595W        W93756  16.225  33.667  13.551
28596W        W93757   5.846   0.752   3.657
28597W        W93758  28.214  14.912  11.127
28598W        W93759  17.280   3.430   0.364
28599W        W93760  16.534  30.381   4.142
28600W        W93761  24.575   8.372   2.653
28601W        W93762   5.792  26.534  12.943
28602W        W93763  28.009  24.739  13.004
28603W        W93764  22.751  43.021  13.951
28604W        W93765  22.780   9.085   0.730
28605W        W93766  19.822  24.427  12.876
28606W        W93767  40.153  41.648  11.482
28607W        W93768  23.626  12.813   4.661
28608W        W93769  43.355  19.971  14.892
28609W        W93770  23.764  38.445  14.702
28610W        W93771  18.618  18.254  11.549
28611W        W93772  20.062  29.944   3.308
28612W        W93773  39.662  19.591   2.941
28613W        W93774  10.845  42.770   0.756
28614W        W93775  10.245  16.149  11.055
28615W        W93776  12.819  24.195  11.124
28616W        W93777   0.388  42.628  11.755
28617W        W93778  17.831  42.549   1.347
28618W        W93779  35.365   0.811   4.540
28619W        W93780  32.442  22.065   4.598
28620W        W93781  12.248  44.229  11.938
28621W        W93782  26.485  43.821   4.813
28622W        W93783  13.686  42.842   0.012
28623W        W93784  36.929  14.317   4.151
28624W        W93785  35.357  38.389   3.109
28625W        W93786  44.951   9.576   2.887
28626W        W93787  19.701  23.871  10.212
28627W        W93788  12.892  27.134   3.252
28628W        W93789   5.240   2.436   2.841
28629W        W93790  38.393  25.698  11.180
28630W        W93791   2.763  19.810  12.312
28631W        W93792  38.380   8.929  12.091
28632W        W93793  30.922  22.210  12.166
28633W        W93794  36.101  16.154   4.766
28634W        W93795  44.734  32.617  12.892
28635W        W93796  13.835   1.251   3.519
28636W        W93797   1.490   2.866  13.745
28637W        W93798  30.102  22.434  12.087
28638W        W93799  33.583  21.216  10.687
28639W        W93800  14.721  32.590  13.240
28640W        W93801  15.344  30.884   1.878
28641W        W93802  42.384  17.277   1.476
28642W        W93803  28.588   2.390   4.504
28643W        W93804  32.701  26.417  12.029
28644W        W93805  25.512  41.137  12.856
28645W        W93806  10.756   7.020   1.392
28646W        W93807  25.528  40.512   3.225
28647W        W93808  40.804  19.613  12.009
28648W        W93809  36.811  34.055  11.759
28649W        W93810  43.572  43.592   0.391
28650W        W93811   4.409  33.821  10.680
28651W        W93812  18.616  44.742   1.358
28652W        W93813  14.141  24.534  13.354
28653W        W93814  41.244  36.102  11.229
28654W        W93815  44.873   4.002  11.564
28655W        W93816  43.267  29.620   0.186
28656W        W93817   2.772  36.443   0.222
28657W        W93818   4.697  40.526   1.291
28658W        W93819  18.624   7.669  14.591
28659W        W93820  31.926  24.669   4.430
28660W        W93821  15.379  23.812  10.939
28661W        W93822  32.626  42.811   0.042
28662W        W93823  10.285  41.721  10.742
28663W        W93824   2.364  31.199   4.537
28664W        W93825  29.404   0.392  11.668
28665W        W93826  12.330  39.373  11.119
28666W        W93827  41.993  35.073   3.257
28667W        W93828   7.737   5.056  10.426
28668W        W93829  32.034  38.792  12.758
28669W        W93830  37.803  42.426   3.464
28670W        W93831  23.098  40.333  14.008
28671W        W93832  21.821   4.296   2.596
28672W        W93833   7.769   7.668  12.932
28673W        W93834  15.546   0.192   1.355
28674W        W93835  38.405  35.498   4.135
28675W        W93836  33.792   7.287   1.287
28676W        W93837   3.389  25.682   3.214
28677W        W93838  15.111   2.200  10.557
28678W        W93839  35.150   6.691  13.472
28679W        W93840  14.545  37.497  13.846
28680W        W93841  29.164  10.433   3.239
28681W        W93842  41.111  10.780   4.020
28682W        W93843  16.608  40.351  14.680
28683W        W93844  20.532  38.785  13.989
28684W        W93845  16.818   5.169  11.827
28685W        W93846   0.707  34.521   1.388
28686W        W93847  14.697  22.683  11.203
28687W        W93848  35.308  28.004  11.847
28688W        W93849  16.951  20.766  10.715
28689W        W93850  22.612  15.804   2.174
28690W        W93851  16.841  29.050   3.323
28691W        W93852  26.649  33.831  11.738
28692W        W93853   0.887  12.202  14.283
28693W        W93854   4.231  22.537  11.418
28694W        W93855  13.104  26.781  11.464
28695W        W93856  31.408   3.700  12.517
28696W        W93857  17.823  41.559  12.546
28697W        W93858   1.929  35.012  14.424
28698W        W93859   7.850  33.452  12.345
28699W        W93860   1.362   4.685  13.996
28700W        W93861  33.638  20.994   0.954
28701W        W93862  22.485  22.912  13.815
28702W        W93863  15.533  26.350  12.716
28703W        W93864  32.935  13.873  12.535
28704W        W93865  17.159  38.192  14.311
28705W        W93866  44.447  19.965  12.342
28706W        W93867  15.318   0.407   4.151
28707W        W93868  44.825  26.792  12.471
28708W        W93869   8.157  30.515  12.593
28709W        W93870  26.875  44.109  12.944
28710W        W93871   6.987  43.325   0.819
28711W        W93872  21.111   1.165   1.195
28712W        W93873  30.658  22.900   4.050
28713W        W93874  31.347   0.950   4.303
28714W        W93875  37.933  35.165  14.476
28715W        W93876   4.844  36.630   0.435
28716W        W93877  28.014  25.157  13.479
28717W        W93878  16.618  15.691  12.924
28718W        W93879  14.927  28.998   9.980
28719W        W93880  35.598  39.872  11.601
28720W        W93881  14.192  38.866   2.884
28721W        W93882  20.661  33.636  12.144
28722W        W93883   0.539   7.481   0.505
28723W        W93884   0.414   0.319  13.728
28724W        W93885  12.757  44.919  13.581
28725W        W93886  36.049   6.523   1.362
28726W        W93887  27.915  13.178   4.480
28727W        W93888  42.805  32.424  13.931
28728W        W93889  24.179  26.915  14.007
28729W        W93890   7.348  27.218   3.097
28730W        W93891  12.277  34.201   3.141
28731W        W93892  21.925  14.887  10.872
28732W        W93893  14.072  12.358  12.085
28733W        W93894  20.295  33.108  12.595
28734W        W93895   3.259   7.288   2.650
28735W        W93896  44.369   7.351  13.384
28736W        W93897  23.949   1.002   2.608
28737W        W93898  25.439  42.488  14.347
28738W        W93899  35.620  19.623   0.276
28739W        W93900   5.823  26.871  14.344
28740W        W93901   9.545  28.144  11.543
28741W        W93902   5.669  33.618   3.259
28742W        W93903   1.025   0.971  14.985
28743W        W93904  41.040  24.470   3.372
28744W        W93905  14.618  43.587  14.776
28745W        W93906  16.657  35.041  11.441
28746W        W93907  21.995  20.031   3.233
28747W        W93908  35.827  36.541   3.244
28748W        W93909  41.703  14.158  11.647
28749W        W93910  26.268  12.289   2.826
28750W        W93911  40.839  10.722  14.297
28751W        W93912   0.800  23.672   2.801
28752W        W93913   1.743   2.490  11.158
28753W        W93914  36.033  34.915   1.829
28754W        W93915  20.141  40.988   4.132
28755W        W93916   1.345  25.051  10.710
28756W        W93917  13.318   4.280   0.462
28757W        W93918   5.158  33.206  11.878
28758W        W93919  24.924  38.014   3.154
28759W        W93920  23.794  36.097   0.859
28760W        W93921  24.971  19.406   1.824
28761W        W93922  43.721  24.980   0.333
28762W        W93923  28.689  38.551   1.947
28763W        W93924  40.792  33.521  13.901
28764W        W93925  33.850  17.013   2.738
28765W        W93926  42.454  40.021  14.578
28766W        W93927  40.963  33.846   4.540
28767W        W93928   6.301  29.065   4.529
28768W        W93929   5.733  44.385   1.434
28769W        W93930  41.740   6.125   1.948
28770W        W93931  24.606  22.416  12.478
28771W        W93932  19.588  18.321  12.423
28772W        W93933  43.008  15.739  13.974
28773W        W93934  19.129  30.943  11.977
28774W        W93935  32.876  17.220   1.259
28775W        W93936   6.309  20.045   3.547
28776W        W93937  19.814   3.878  12.184
28777W        W93938  31.729  16.945  13.509
28778W        W93939  12.764  13.627   0.344
28779W        W93940   4.048  27.551  13.041
28780W        W93941   5.781   7.088  12.904
28781W        W93942  24.317   5.159   1.179
28782W        W93943  34.505  44.341  13.895
28783W        W93944  39.241   5.835   0.566
28784W        W93945  43.930  29.665  10.686
28785W        W93946   7.209  23.337   4.197
28786W        W93947  37.564  16.480  13.478
28787W        W93948  21.613   6.880  14.997
28788W        W93949  36.872  23.478   4.136
28789W        W93950  17.210  14.834  12.305
28790W        W93951  42.835   9.833   1.759
28791W        W93952  19.158  17.835   2.808
28792W        W93953  24.431   7.704  11.255
28793W        W93954  16.866  43.571   1.467
28794W        W93955  24.911  36.465   2.205
28795W        W93956  15.345  32.725  14.891
28796W        W93957   4.218  32.032  11.551
28797W        W93958  16.109  11.093  13.429
28798W        W93959  29.649  15.612  14.016
28799W        W93960  20.161  25.463   0.746
28800W        W93961   4.106  21.551  12.028
28801W        W93962  33.684  37.802   9.783
28802W        W93963  37.743   0.772  11.332
28803W        W93964  34.966   9.106   3.876
28804W        W93965  28.553  41.810  13.631
28805W        W93966  10.091   0.830   2.545
28806W        W93967  28.355  17.690  12.638
28807W        W93968  33.034  34.940   4.953
28808W        W93969   8.273  35.607  12.408
28809W        W93970   1.103   3.740   4.266
28810W        W93971  16.766   8.710   5.044
28811W        W93972  21.346  32.395  11.644
28812W        W93973  15.586  17.110  10.751
28813W        W93974  41.543  10.516   4.106
28814W        W93975  29.386  41.029  11.493
28815W        W93976   9.646  40.792   0.449
28816W        W93977   5.914   6.298   1.303
28817W        W93978   9.554  34.471   0.411
28818W        W93979  37.097  21.224  10.321
28819W        W93980  44.778  10.342   1.318
28820W        W93981  23.967  36.470   3.854
28821W        W93982  10.649   1.932   4.674
28822W        W93983  34.403  25.226   1.001
28823W        W93984  34.068  33.328   4.127
28824W        W93985  31.498  35.869  13.956
28825W        W93986  31.141  16.131   3.988
28826W        W93987  10.851   8.663   5.132
28827W        W93988  13.205  40.064   1.457
28828W        W93989  40.406  33.871  13.874
28829W        W93990  17.664  24.597  12.017
28830W        W93991  26.662  35.664  10.744
28831W        W93992  11.509   1.681   2.381
28832W        W93993  13.399   3.092   1.328
28833W        W93994  14.061  21.081  13.364
28834W        W93995  38.838  38.031   0.867
28835W        W93996  13.638  36.365   2.010
28836W        W93997   0.244   3.651  12.926
28837W        W93998  13.846  32.136  10.304
28838W        W93999  19.690  29.323   2.925
28839W        W94000  32.180  28.157   2.382
28840W        W94001   3.659  27.703  14.530
28841W        W94002  38.028  22.568   0.283
28842W        W94003  42.537  42.972  11.508
28843W        W94004  36.371  44.801   4.100
28844W        W94005  37.029  29.472  14.564
28845W        W94006  25.228  44.362  14.747
28846W        W94007  14.339  25.511   4.360
28847W        W94008   5.433  29.615   3.731
28848W        W94009  43.735  13.129   5.511
28849W        W94010   7.415  33.331   4.527
28850W        W94011  42.924   3.105  12.038
28851W        W94012   9.324  32.944   1.076
28852W        W94013  15.867   4.790   0.952
28853W        W94014   6.442  33.055   2.228
28854W        W94015  22.031  16.783   0.761
28855W        W94016  15.823  30.472  12.465
28856W        W94017  27.761   7.859  13.309
28857W        W94018   7.356  24.583   2.757
28858W        W94019  36.754  12.437  10.332
28859W        W94020  31.520  19.435   2.122
28860W        W94021  38.913  35.818   0.250
28861W        W94022  21.529   2.249   1.742
28862W        W94023  38.930  37.269   0.491
28863W        W94024  37.352  21.076  13.939
28864W        W94025  28.581  29.004   0.785
28865W        W94026  28.430  13.606   3.085
28866W        W94027  12.641   5.292  10.428
28867W        W94028  44.182  19.672   3.655
28868W        W94029  11.584  34.150   2.369
28869W        W94030  24.162  15.326   2.374
28870W        W94031  13.223   2.409  13.937
28871W        W94032  12.395  17.681   2.471
28872W        W94033   3.510  32.940   1.334
28873W        W94034  32.886  16.121  10.507
28874W        W94035  12.191  41.539  13.938
28875W        W94036   4.375  16.717  13.255
28876W        W94037  29.582  23.470  14.370
28877W        W94038  26.220  39.583  11.144
28878W        W94039   1.301   8.132   0.572
28879W        W94040   0.753  43.317   1.629
28880W        W94041   5.881  44.477  14.910
28881W        W94042  31.624   0.556  14.964
28882W        W94043  32.830  32.083   0.307
28883W        W94044  22.878  14.481  11.020
28884W        W94045  37.058   3.204  12.412
28885W        W94046  21.635  31.437   2.878
28886W        W94047  10.656  35.971   0.888
28887W        W94048  29.404   6.376  13.953
28888W        W94049  12.111   8.743   4.801
28889W        W94050  40.031  43.829  10.269
28890W        W94051   3.489  26.108  13.594
28891W        W94052  24.275   0.901  10.013
28892W        W94053  18.869  44.919   2.172
28893W        W94054   9.403  23.127  12.078
28894W        W94055  43.509   4.392  13.904
28895W        W94056  27.018  27.470   4.752
28896W        W94057  37.586  39.357   1.888
28897W        W94058   3.337  24.889  13.434
28898W        W94059  40.603  35.320  10.438
28899W        W94060  25.435  15.018   0.904
28900W        W94061  36.879  26.708  11.448
28901W        W94062   1.458  11.137   2.118
28902W        W94063  12.025  33.895  11.149
28903W        W94064  25.496   1.322  10.298
28904W        W94065  18.034   6.029   0.341
28905W        W94066   9.228  29.093  11.225
28906W        W94067  26.053  35.467   3.367
28907W        W94068  24.693  10.561  12.203
28908W        W94069  19.571  40.708  12.618
28909W        W94070   0.151  24.599   4.592
28910W        W94071  40.441  35.514  10.873
28911W        W94072  31.425  28.191  10.909
28912W        W94073  18.354  34.348   4.674
28913W        W94074  17.261   0.937   1.427
28914W        W94075  34.820  40.622  13.334
28915W        W94076   9.392   5.224  14.287
28916W        W94077  18.110   8.731   3.220
28917W        W94078  18.594   4.031  13.757
28918W        W94079  33.860  23.035  12.562
28919W        W94080  36.396   2.879   1.771
28920W        W94081   6.491  16.287  10.249
28921W        W94082  22.061  30.629   3.736
28922W        W94083  29.950   9.245  13.577
28923W        W94084  23.909  23.416  12.632
28924W        W94085   1.423   2.951  12.250
28925W        W94086  33.618  35.039   4.188
28926W        W94087   3.322  37.788   0.999
28927W        W94088   2.925  37.025  13.946
28928W        W94089   8.435  21.984   2.304
28929W        W94090  14.600  16.108   1.871
28930W        W94091  19.505  19.244  11.513
28931W        W94092  16.543  29.030  14.178
28932W        W94093  13.737  18.043  13.938
28933W        W94094   1.924  15.743  12.624
28934W        W94095  42.702   4.341  14.346
28935W        W94096   1.001  11.920  12.533
28936W        W94097  35.732  28.064  12.119
28937W        W94098  32.986  29.189   2.843
28938W        W94099  28.432  19.707   3.688
28939W        W94100   4.306  13.533  12.459
28940W        W94101  36.982   8.114   3.083
28941W        W94102  38.009  13.197   4.513
28942W        W94103  27.149   6.998   4.095
28943W        W94104  35.907  32.403   2.761
28944W        W94105  44.331  36.799   4.380
28945W        W94106  29.540  29.784   5.005
28946W        W94107   0.900   5.636   3.558
28947W        W94108  21.793  24.973  12.985
28948W        W94109  30.868  17.956  11.119
28949W        W94110  37.486  18.248  10.973
28950W        W94111   1.861  36.618   3.169
28951W        W94112  31.967  17.770  13.411
28952W        W94113   7.581  22.662  12.806
28953W        W94114  11.276  30.008  14.036
28954W        W94115  17.559  28.347  11.951
28955W        W94116   1.894   2.204   2.809
28956W        W94117   0.292  38.588  14.558
28957W        W94118   4.705  41.367  12.419
28958W        W94119  20.786  28.341   3.549
28959W        W94120   8.082  15.854  14.913
28960W        W94121   3.840  22.330   0.961
28961W        W94122  13.243  44.998   4.069
28962W        W94123  16.143  31.170  12.086
28963W        W94124  20.596   6.703   4.205
28964W        W94125   7.736  39.131  14.509
28965W        W94126  43.728   9.185  11.629
28966W        W94127  20.078  16.008  13.831
28967W        W94128  40.831  11.243   3.275
28968W        W94129   4.670   2.274   1.651
28969W        W94130  35.846   2.951   1.926
28970W        W94131  22.430  44.957   1.771
28971W        W94132   1.525  38.172  12.150
28972W        W94133  28.612  16.126  13.705
28973W        W94134  30.141  33.700  13.406
28974W        W94135  29.897   2.404   2.191
28975W        W94136  25.858  44.236  12.072
28976W        W94137  36.385  21.628  14.729
28977W        W94138   5.317  18.269  13.991
28978W        W94139  10.680  36.344   2.268
28979W        W94140  10.362  28.630  12.443
28980W        W94141  14.677   7.905   2.626
28981W        W94142  14.123  26.368  13.009
28982W        W94143  32.617  30.406   3.511
28983W        W94144  23.344   4.562   1.878
28984W        W94145  28.657  12.762  11.139
28985W        W94146  30.127  11.098   2.832
28986W        W94147  16.961   1.943  10.804
28987W        W94148  20.155   9.438  12.391
28988W        W94149  36.036  20.009  12.021
28989W        W94150  10.100   1.873   4.581
28990W        W94151  23.493  30.956   1.759
28991W        W94152  16.341  14.213  14.266
28992W        W94153  39.052   4.926  13.262
28993W        W94154  15.053  44.221  10.262
28994W        W94155  15.292  44.285  14.824
28995W        W94156   7.867  30.771  11.400
28996W        W94157  32.953  22.544  12.591
28997W        W94158  15.605  37.905   4.706
28998W        W94159  15.308  13.126   0.909
28999W        W94160  18.679  39.401   2.861
29000W        W94161  24.785   2.373   1.396
29001W        W94162  23.654  22.724  14.507
29002W        W94163  37.150  13.440  11.578
29003W        W94164   5.417  33.023   2.149
29004W        W94165  17.862  44.287   3.713
29005W        W94166   7.310  15.140  14.744
29006W        W94167   2.826   9.232   2.793
29007W        W94168   7.259   5.510   3.787
29008W        W94169  28.438   6.376   1.550
29009W        W94170  12.966  16.144   2.844
29010W        W94171  23.614  13.949  14.485
29011W        W94172  42.547   0.956   0.566
29012W        W94173  16.621  28.768  11.986
29013W        W94174  33.051  35.136   1.937
29014W        W94175  44.234  21.555   3.727
29015W        W94176   1.478  42.333  14.027
29016W        W94177  40.418  16.100  14.262
29017W        W94178  23.602  34.370   2.293
29018W        W94179   4.369  34.103   0.211
29019W        W94180  23.930  34.516  13.446
29020W        W94181  13.206   5.600   2.100
29021W        W94182  34.441  11.922   3.736
29022W        W94183  26.535  16.555  11.540
29023W        W94184  15.549  11.048  12.993
29024W        W94185  13.817   9.890   3.264
29025W        W94186   7.960  18.856  11.100
29026W        W94187  32.557  14.193  13.870
29027W        W94188  35.422   7.192  13.983
29028W        W94189  34.303  44.676  10.657
29029W        W94190  41.044  41.398  11.994
29030W        W94191  38.159  26.835   1.516
29031W        W94192   1.388  17.332   1.761
29032W        W94193  27.465  27.980  11.093
29033W        W94194  32.485  26.959  12.126
29034W        W94195  24.571  27.457  12.149
29035W        W94196  22.158  33.803  12.528
29036W        W94197  37.010  37.303   4.588
29037W        W94198   6.366   7.906  12.226
29038W        W94199  35.049  39.090  12.470
29039W        W94200  11.657  24.003  10.456
29040W        W94201  44.828  28.239  11.068
29041W        W94202  40.645  15.647  14.969
29042W        W94203  14.621  10.427   1.265
29043W        W94204  17.692   6.532   1.023
29044W        W94205  39.637  33.129   1.229
29045W        W94206   0.443   9.766   2.643
29046W        W94207  37.344  34.587  11.151
29047W        W94208  21.748  28.645  13.958
29048W        W94209  17.904  16.116  12.895
29049W        W94210  11.053   1.427  11.108
29050W        W94211  21.685  23.970   0.285
29051W        W94212   3.583  37.679   0.432
29052W        W94213  43.601  25.202   1.915
29053W        W94214  26.461  29.458   4.337
29054W        W94215  32.252  29.439   4.575
29055W        W94216  10.315  17.529   0.323
29056W        W94217  32.577  15.364   1.620
29057W        W94218  36.139   5.829  13.509
29058W        W94219  20.114  36.485  12.321
29059W        W94220  36.475  35.131  13.409
29060W        W94221  23.504  44.348   0.361
29061W        W94222  43.532  39.501   2.369
29062W        W94223  41.786   4.783  12.033
29063W        W94224  44.836   7.831  14.836
29064W        W94225  31.531  17.245  12.655
29065W        W94226  36.324  19.065   1.602
29066W        W94227  29.894  35.503   3.850
29067W        W94228  29.258  35.540   4.092
29068W        W94229  25.227   6.961   2.773
29069W        W94230  22.792  23.574  11.710
29070W        W94231   8.622  39.394   0.932
29071W        W94232  44.303  26.814   0.854
29072W        W94233  31.595   4.402   2.320
29073W        W94234  31.557  30.893   0.965
29074W        W94235  43.452  39.039  12.522
29075W        W94236   6.795  39.961  12.820
29076W        W94237  41.036  19.748   4.657
29077W        W94238  38.349  43.241  14.917
29078W        W94239  14.670   8.942   1.773
29079W        W94240  11.828  38.864   0.834
29080W        W94241  39.570   9.570  14.325
29081W        W94242   6.884  44.198  14.740
29082W        W94243   2.785  43.607  11.144
29083W        W94244  22.582   3.704   4.113
29084W        W94245  34.556  43.860   4.440
29085W        W94246  21.488   0.240   1.862
29086W        W94247   7.536  23.229   3.793
29087W        W94248   5.422  35.922   1.745
29088W        W94249  12.115  40.108  11.491
29089W        W94250   1.299   8.901   3.697
29090W        W94251  22.671  37.131   3.401
29091W        W94252   3.237  17.822   1.951
29092W        W94253   8.410  24.573   4.664
29093W        W94254  28.120   6.604  13.694
29094W        W94255  20.846  17.461   5.195
29095W        W94256   0.790  18.512   4.166
29096W        W94257  18.644  33.594  10.779
29097W        W94258   5.272  34.936  14.370
29098W        W94259  20.256  31.768  10.618
29099W        W94260  17.138  10.569  10.411
29100W        W94261  15.573   4.765  11.996
29101W        W94262  36.082  29.528   2.312
29102W        W94263   6.217   9.309   2.341
29103W        W94264  22.266  13.537   1.058
29104W        W94265  23.652  38.522  12.576
29105W        W94266   9.756  34.883  14.037
29106W        W94267  25.883  12.891   2.289
29107W        W94268   2.861   3.413   2.445
29108W        W94269  34.563   2.657  13.432
29109W        W94270  43.682  21.772   1.272
29110W        W94271   3.205  10.911   1.534
29111W        W94272  33.080   2.259  14.944
29112W        W94273  17.797  44.368   2.783
29113W        W94274   2.261  19.247  11.922
29114W        W94275  36.995   2.504   4.397
29115W        W94276  22.613   5.324   1.896
29116W        W94277  31.930  36.166   4.564
29117W        W94278  33.947  17.345  14.014
29118W        W94279  38.674   2.421   3.121
29119W        W94280  38.494  42.237  14.357
29120W        W94281  15.499  29.678  11.230
29121W        W94282  25.878  14.335  13.496
29122W        W94283  44.423  31.520  10.779
29123W        W94284  17.251  10.136   1.948
29124W        W94285   2.229  18.210  11.975
29125W        W94286  41.743  15.536   1.242
29126W        W94287  14.756  38.403  14.403
29127W        W94288  24.977  13.787  12.063
29128W        W94289  14.961  41.561  12.896
29129W        W94290  41.429  24.138  11.765
29130W        W94291  27.035  34.867   0.404
29131W        W94292  23.758   2.283   2.634
29132W        W94293  18.316  20.729   3.204
29133W        W94294  23.033  18.515   1.765
29134W        W94295  24.163  30.939   3.847
29135W        W94296  29.990  10.541   4.727
29136W        W94297  30.974  30.960  11.326
29137W        W94298  22.666  19.575   4.623
29138W        W94299  20.289  31.669   4.689
29139W        W94300  23.785  28.316  12.899
29140W        W94301  25.888  44.629  11.682
29141W        W94302  27.668  42.023  10.713
29142W        W94303  13.505  34.646   3.244
29143W        W94304  24.947  26.481  13.540
29144W        W94305   5.908  12.755   3.220
29145W        W94306  42.338  35.147   2.883
29146W        W94307  11.311  32.880   2.785
29147W        W94308  43.777  13.631   1.976
29148W        W94309  38.112  28.158  11.737
29149W        W94310  42.620  18.583   2.238
29150W        W94311  38.650   3.734  13.412
29151W        W94312  41.854  21.216   5.074
29152W        W94313  12.160   0.864   2.824
29153W        W94314  27.059  36.774   3.869
29154W        W94315  38.579   4.811  12.993
29155W        W94316   4.211  12.110   1.379
29156W        W94317  14.814  15.230   4.180
29157W        W94318  16.249  44.294   2.735
29158W        W94319  41.713  15.725  14.322
29159W        W94320   9.587  28.239  12.511
29160W        W94321  37.964  42.341  12.332
29161W        W94322   2.686  44.117  11.136
29162W        W94323  13.471  39.569  14.876
29163W        W94324  33.383   5.764   2.799
29164W        W94325  31.138  31.494  11.521
29165W        W94326  25.709  33.583  12.677
29166W        W94327  29.961  34.252   0.990
29167W        W94328  28.389  15.164  14.037
29168W        W94329  42.003  41.919   2.780
29169W        W94330  18.653  35.193   3.435
29170W        W94331  11.809   1.838  14.229
29171W        W94332   3.826   3.860  10.605
29172W        W94333  21.780  36.563  11.601
29173W        W94334  43.836  44.654   3.334
29174W        W94335  37.884  28.598  14.613
29175W        W94336  15.290  16.111   1.355
29176W        W94337  30.967  40.009  12.430
29177W        W94338  33.896  32.568  11.982
29178W        W94339   1.924  33.341  14.045
29179W        W94340  20.513  13.275  14.915
29180W        W94341  22.522  30.101  10.583
29181W        W94342  32.621  30.715  13.762
29182W        W94343   6.955  41.784  10.633
29183W        W94344  41.122   2.034   3.172
29184W        W94345  15.788  38.719  14.264
29185W        W94346  39.845  28.418  10.753
29186W        W94347  23.529  12.209  12.615
29187W        W94348   6.820  22.010  12.505
29188W        W94349  24.516  15.499  13.439
29189W        W94350  30.260   4.219  13.346
29190W        W94351  10.293  36.774   1.037
29191W        W94352  18.767   3.218   4.587
29192W        W94353  39.909  42.123  14.838
29193W        W94354  37.563   0.005  13.477
29194W        W94355  29.627  30.560  12.248
29195W        W94356  36.123  38.128   2.295
29196W        W94357  41.267  10.905  11.614
29197W        W94358  30.346  41.287  13.169
29198W        W94359  12.351  23.061   4.526
29199W        W94360  43.188   1.543   2.502
29200W        W94361  20.727  29.609   3.743
29201W        W94362  19.181  18.158   0.861
29202W        W94363  36.493  34.994   1.444
29203W        W94364  25.537  31.018  10.691
29204W        W94365  24.666  30.551  13.975
29205W        W94366  42.042   6.047   3.184
29206W        W94367  32.252  24.129   3.635
29207W        W94368  17.000   8.768   2.149
29208W        W94369  31.077   0.304  11.283
29209W        W94370  15.631  31.144  12.141
29210W        W94371  38.999  44.439  12.082
29211W        W94372  20.784  26.952  13.421
29212W        W94373  12.591  21.062  11.136
29213W        W94374  43.088  33.071   0.780
29214W        W94375  17.023  34.952   0.059
29215W        W94376   1.139   6.810  11.429
29216W        W94377  20.763  22.949   2.310
29217W        W94378  30.808  12.278   3.743
29218W        W94379  30.599  44.533   2.182
29219W        W94380  28.408   0.543   2.685
29220W        W94381   4.219  27.777  11.273
29221W        W94382  36.369  19.603   0.781
29222W        W94383  16.618  36.596   4.196
29223W        W94384  40.527  33.527   1.509
29224W        W94385  44.019  15.524   3.237
29225W        W94386  38.289  19.118   4.429
29226W        W94387  15.320  29.073  13.462
29227W        W94388   7.285  33.019  10.702
29228W        W94389  31.620   7.962  10.818
29229W        W94390  16.224  41.975  12.601
29230W        W94391   5.992  35.085   1.474
29231W        W94392  38.518  28.328   1.275
29232W        W94393  32.654  44.568  10.170
29233W        W94394  36.534  41.550   2.338
29234W        W94395  43.760  15.921  13.288
29235W        W94396  42.425  27.506   4.116
29236W        W94397  14.294  42.212  12.504
29237W        W94398  22.550   1.459  10.016
29238W        W94399  24.938  44.781  14.458
29239W        W94400   9.642   1.408  11.659
29240W        W94401  18.017   1.678   3.189
29241W        W94402  21.833   4.851   2.458
29242W        W94403  36.820  10.256  10.583
29243W        W94404  44.472  14.421   3.652
29244W        W94405  34.255  22.446  12.308
29245W        W94406  43.798  36.049  11.900
29246W        W94407  37.596  19.721  13.020
29247W        W94408  44.535  38.359  12.062
29248W        W94409  37.350  19.297  14.970
29249W        W94410   9.060   4.866  10.696
29250W        W94411  33.603  35.043  11.149
29251W        W94412   3.232  29.508  14.336
29252W        W94413  14.331  22.800   4.691
29253W        W94414  19.292   7.998   3.593
29254W        W94415   1.957  33.530   1.884
29255W        W94416  33.657  35.863   0.338
29256W        W94417  19.046  18.538  13.595
29257W        W94418  25.447   3.325  11.601
29258W        W94419  34.588  43.228  12.055
29259W        W94420  17.110  28.869  11.852
29260W        W94421  42.461  43.396   4.598
29261W        W94422  15.288  37.103  13.555
29262W        W94423  21.707   7.211   2.665
29263W        W94424  44.215  14.788   3.945
29264W        W94425  27.923  18.485  10.145
29265W        W94426  23.514  32.959   0.321
29266W        W94427  40.020  24.836   1.732
29267W        W94428  37.447  41.795   0.993
29268W        W94429   5.928  10.297  13.086
29269W        W94430  23.177  19.071   2.353
29270W        W94431  28.216   3.285  14.849
29271W        W94432   5.143  33.531  11.439
29272W        W94433  13.708  21.090   0.257
29273W        W94434   6.681  41.115   2.891
29274W        W94435   0.921  39.567   3.337
29275W        W94436  40.424  10.628  14.598
29276W        W94437  32.531   3.448   4.747
29277W        W94438  43.053  19.141   3.719
29278W        W94439  29.634  16.153   4.942
29279W        W94440  31.322  15.318   0.484
29280W        W94441  24.348  19.034  11.815
29281W        W94442   3.727  43.390  11.141
29282W        W94443  31.072  13.730  13.849
29283W        W94444  37.818  14.591   2.265
29284W        W94445  25.050  17.271   2.305
29285W        W94446  18.997  16.964  14.320
29286W        W94447   5.927   7.247   2.782
29287W        W94448  24.575  11.859   1.949
29288W        W94449  37.380  40.097  14.178
29289W        W94450   5.193  43.847   1.695
29290W        W94451  14.747  36.073   0.670
29291W        W94452  29.475   2.780  11.257
29292W        W94453   8.641  20.284   3.789
29293W        W94454   6.560  30.187  12.774
29294W        W94455  31.135  33.735  14.292
29295W        W94456  18.216  19.791  14.803
29296W        W94457  26.598  44.410   9.994
29297W        W94458  33.799  32.594   1.140
29298W        W94459   4.768  25.454  11.994
29299W        W94460  25.995  27.523   3.641
29300W        W94461  29.748  26.495  13.070
29301W        W94462  29.877  15.593  12.558
29302W        W94463  32.992  17.639  13.336
29303W        W94464  26.182  23.192  14.509
29304W        W94465  40.331   4.283  13.755
29305W        W94466  42.047  23.639   3.171
29306W        W94467  17.690  11.163  13.476
29307W        W94468  22.859  40.439  11.821
29308W        W94469  11.497  29.912  11.977
29309W        W94470  21.265  37.434  11.754
29310W        W94471  28.446  24.214   5.233
29311W        W94472   7.286  21.084  11.145
29312W        W94473   9.977  24.053  13.324
29313W        W94474  18.518  24.300   3.780
29314W        W94475   2.755  30.273  14.045
29315W        W94476  42.750  31.575   4.161
29316W        W94477  35.190   3.290  10.044
29317W        W94478  24.074  20.500  11.879
29318W        W94479  14.354  36.571   4.756
29319W        W94480  18.176  34.848   2.352
29320W        W94481  20.877  27.672   4.290
29321W        W94482  38.419  20.150  10.537
29322W        W94483  14.235  16.808  13.810
29323W        W94484   1.196  27.606   0.192
29324W        W94485  41.946   3.792  12.274
29325W        W94486  37.605   0.225  12.596
29326W        W94487  19.827  39.050   0.937
29327W        W94488  26.034  36.364   0.526
29328W        W94489  26.014  42.093  13.455
29329W        W94490  16.233  30.245   3.698
29330W        W94491   8.538  32.052   2.417
29331W        W94492  28.075  32.393   1.707
29332W        W94493  34.064  11.318  13.469
29333W        W94494  32.649   1.430  12.468
29334W        W94495  25.749  24.042   4.468
29335W        W94496  24.007  37.791   3.424
29336W        W94497  37.064  35.689  12.414
29337W        W94498  40.438  24.265   2.877
29338W        W94499   0.888  33.016   3.895
29339W        W94500  16.350   5.234  11.531
29340W        W94501   1.264  22.254   1.975
29341W        W94502   8.709   0.406   1.929
29342W        W94503  22.737  42.691   1.902
29343W        W94504   2.225   3.241  12.840
29344W        W94505  34.259  44.367  11.103
29345W        W94506  32.540  17.193  14.056
29346W        W94507  23.031  11.731  14.916
29347W        W94508  25.912  24.884  13.424
29348W        W94509  34.483  13.700  13.775
29349W        W94510  16.093   6.188   3.346
29350W        W94511   9.670  37.382  13.774
29351W        W94512  38.785  19.782  11.129
29352W        W94513  37.662  27.454   4.497
29353W        W94514  28.308  32.095  14.768
29354W        W94515  16.570  42.366  12.919
29355W        W94516  44.934  30.096   1.466
29356W        W94517  41.735  36.141   0.710
29357W        W94518   0.759  32.496   3.780
29358W        W94519  39.424  19.773  12.312
29359W        W94520  36.535  16.973  11.164
29360W        W94521   0.379  33.668   0.241
29361W        W94522  24.606  43.364   4.792
29362W        W94523   6.319  26.584  13.106
29363W        W94524  41.797  13.787  13.745
29364W        W94525   6.784  28.474   3.438
29365W        W94526  36.301  31.859  10.330
29366W        W94527  32.011   4.135  13.276
29367W        W94528  28.378  32.029  13.002
29368W        W94529   0.682  29.982  11.533
29369W        W94530  18.152  33.880   4.763
29370W        W94531  11.796  24.642  12.573
29371W        W94532  38.479   6.381   0.777
29372W        W94533  26.342  15.861   5.074
29373W        W94534  40.005   5.747   3.841
29374W        W94535  28.836   5.675   0.407
29375W        W94536  42.097  44.860  11.697
29376W        W94537   1.666  41.905   3.829
29377W        W94538  11.943  37.283  11.550
29378W        W94539  44.023  20.638  11.405
29379W        W94540  30.682  18.973  13.610
29380W        W94541  13.618  22.042   4.591
29381W        W94542  15.656  22.870   2.269
29382W        W94543  27.002  18.201   4.234
29383W        W94544  42.255  28.071   3.191
29384W        W94545   7.229  16.897   0.760
29385W        W94546  21.455  26.036   2.374
29386W        W94547  30.658   4.235   4.073
29387W        W94548   4.694   9.156   3.239
29388W        W94549  33.598  24.950   3.650
29389W        W94550  28.902  20.612  10.752
29390W        W94551  43.916   3.697  12.995
29391W        W94552   3.909  28.618   3.344
29392W        W94553  14.222   0.006  11.435
29393W        W94554  43.673  30.396   1.475
29394W        W94555  44.911  29.561  10.792
29395W        W94556  39.087  15.809  11.980
29396W        W94557  38.258  22.295  11.911
29397W        W94558  31.687  14.712   2.522
29398W        W94559  36.032   0.398   0.127
29399W        W94560  19.500  17.040   0.277
29400W        W94561  32.918  44.346   1.244
29401W        W94562  39.153  12.575   5.075
29402W        W94563   3.674  11.718   0.096
29403W        W94564  20.167  25.561   1.756
29404W        W94565  35.398   1.740  10.662
29405W        W94566  34.482  14.247   4.978
29406W        W94567   6.519  30.546   1.045
29407W        W94568  22.586  33.186  14.955
29408W        W94569  42.268  22.582  12.535
29409W        W94570  25.645   2.760   2.613
29410W        W94571  27.994  25.339   1.586
29411W        W94572   2.492   2.312   0.757
29412W        W94573   3.683  33.922   1.206
29413W        W94574  30.519   6.788  12.151
29414W        W94575  27.977  37.837  14.363
29415W        W94576  44.815  28.512   2.435
29416W        W94577  39.417  25.061  10.766
29417W        W94578  28.663   0.057  12.916
29418W        W94579  20.024  18.590  13.024
29419W        W94580   7.953  26.890   1.330
29420W        W94581   8.255  22.274  14.168
29421W        W94582  10.304  31.073  13.348
29422W        W94583   5.739   6.972   4.198
29423W        W94584  25.180  13.882   1.241
29424W        W94585   5.548  35.293  11.038
29425W        W94586  44.902  31.980   4.355
29426W        W94587  38.078  27.619   1.957
29427W        W94588  29.935  26.628   4.596
29428W        W94589  10.385  10.233  13.363
29429W        W94590   5.845  15.850   1.613
29430W        W94591   9.742  36.407   3.654
29431W        W94592  21.873  41.062  11.096
29432W        W94593  19.575  20.070   4.851
29433W        W94594  15.291  35.091   3.306
29434W        W94595  12.233  44.384   0.334
29435W        W94596  11.109  35.033  12.484
29436W        W94597   1.951  16.311   0.476
29437W        W94598  17.267  39.849  11.469
29438W        W94599  33.953  41.832  13.081
29439W        W94600  18.228   6.930   0.320
29440W        W94601   3.632  44.881  10.128
29441W        W94602  34.922   7.585  13.604
29442W        W94603  33.509   2.212   2.732
29443W        W94604   0.456  17.342   0.894
29444W        W94605  31.121  43.044  12.428
29445W        W94606  30.584  30.608  13.914
29446W        W94607  27.124  14.230  11.046
29447W        W94608  11.194  11.279  10.654
29448W        W94609  44.213  26.775   3.307
29449W        W94610   1.312   2.783   3.209
29450W        W94611  10.877   7.574  12.947
29451W        W94612  32.498  34.361  12.278
29452W        W94613  24.875   4.023  13.769
29453W        W94614  33.590  42.174   1.728
29454W        W94615  20.583  20.147  13.962
29455W        W94616  10.647  44.060   2.858
29456W        W94617   7.447  29.913  14.078
29457W        W94618  23.126  41.399  13.204
29458W        W94619  33.467  44.745  11.229
29459W        W94620   8.591   2.366  13.158
29460W        W94621  32.444  11.085   3.396
29461W        W94622  22.112   4.319  12.059
29462W        W94623   7.397   0.364  14.174
29463W        W94624   9.290  27.396  12.995
29464W        W94625  31.670  38.511   3.667
29465W        W94626   5.346   0.972   4.318
29466W        W94627   6.073   4.701  11.587
29467W        W94628  24.524  26.949   3.152
29468W        W94629   8.723  26.936  10.733
29469W        W94630  35.905  25.779  12.616
29470W        W94631  14.398  44.412   4.009
29471W        W94632  20.955   6.999   4.010
29472W        W94633  44.346   9.725  10.698
29473W        W94634  20.174  12.658   1.690
29474W        W94635  19.889  24.883  10.171
29475W        W94636  37.192   3.706   4.541
29476W        W94637  10.565  11.892  14.831
29477W        W94638  31.023  42.325   9.743
29478W        W94639  17.517   6.185   1.385
29479W        W94640  18.743  25.353  11.153
29480W        W94641  22.178  31.487   3.204
29481W        W94642  21.247  23.223   2.335
29482W        W94643  23.552  16.287   5.026
29483W        W94644  21.488  24.609  13.955
29484W        W94645  19.237  40.244   1.279
29485W        W94646  15.192  34.883  13.535
29486W        W94647  38.418  33.455   1.445
29487W        W94648   5.964  26.109  11.549
29488W        W94649  20.128   8.388   4.626
29489W        W94650  17.541  37.617  11.239
29490W        W94651   5.202  37.333   3.994
29491W        W94652   3.358  34.321   2.269
29492W        W94653   8.359  20.773  10.316
29493W        W94654  23.829  26.110  11.619
29494W        W94655  30.638  37.466   3.145
29495W        W94656  40.953  17.572   1.350
29496W        W94657  33.622  29.774   2.678
29497W        W94658  22.506  14.121   1.832
29498W        W94659  43.099  24.665   5.108
29499W        W94660  29.863   2.945   4.415
29500W        W94661   2.814   0.711  13.959
29501W        W94662   9.974  40.777   0.035
29502W        W94663  16.470  15.637   0.689
29503W        W94664  23.738  10.833  13.156
29504W        W94665   0.509  14.497   1.386
29505W        W94666  35.899  11.205   0.846
29506W        W94667  43.501  36.627  14.897
29507W        W94668  38.460  13.445   4.343
29508W        W94669  38.358  17.091  14.263
29509W        W94670  11.307   9.791   2.835
29510W        W94671  18.781  14.793   5.000
29511W        W94672  13.331  33.961   3.713
29512W        W94673  20.584  40.620  12.598
29513W        W94674  39.773  40.488   3.865
29514W        W94675   5.588  44.289   2.323
29515W        W94676  41.405  15.834  12.752
29516W        W94677  35.464  25.730  14.260
29517W        W94678  20.578  27.268   0.851
29518W        W94679   1.829  33.337  12.507
29519W        W94680  23.731  38.282  13.025
29520W        W94681   4.949  14.667  14.846
29521W        W94682  29.446  39.830   2.237
29522W        W94683  28.640  39.092   3.622
29523W        W94684  33.685  23.189  14.881
29524W        W94685  22.830   1.330   1.372
29525W        W94686  10.794   9.460   4.693
29526W        W94687  23.368  41.564  12.418
29527W        W94688   8.538  17.743  14.911
29528W        W94689  27.160  23.533  12.432
29529W        W94690   8.661  37.988   4.487
29530W        W94691   0.529  28.509   0.049
29531W        W94692  17.763  26.039  12.037
29532W        W94693   0.483  40.131   0.505
29533W        W94694  36.186  16.138  14.573
29534W        W94695  27.476  26.805  13.583
29535W        W94696  12.094   9.702   4.687
29536W        W94697  26.852  16.678   1.255
29537W        W94698  33.987   3.771  14.870
29538W        W94699  26.546  42.855  14.471
29539W        W94700  36.578  44.433   2.365
29540W        W94701  14.875  24.031  12.548
29541W        W94702  27.523  44.410   2.988
29542W        W94703  43.112  16.743  14.652
29543W        W94704  31.947  31.923   0.898
29544W        W94705  23.732   8.173  10.857
29545W        W94706  35.146  41.692   0.969
29546W        W94707  32.058  10.259   4.754
29547W        W94708  26.621  21.804  13.442
29548W        W94709  18.512  22.635  11.169
29549W        W94710  10.082  12.086   1.796
29550W        W94711  15.064  11.775  12.410
29551W        W94712  15.005  14.325  13.584
29552W        W94713   2.953  15.710  13.397
29553W        W94714  12.301  43.463   0.731
29554W        W94715  11.342  26.608   1.472
29555W        W94716  43.787  27.550   4.027
29556W        W94717  38.639  20.977   1.382
29557W        W94718  21.271  10.311  12.040
29558W        W94719  13.361  30.457   4.082
29559W        W94720   3.218  40.415  13.409
29560W        W94721   4.606  42.055  14.086
29561W        W94722  22.306  31.798  12.535
29562W        W94723  33.910  15.526  14.423
29563W        W94724  14.184   1.493  14.711
29564W        W94725  40.065  16.250  12.152
29565W        W94726   0.699  32.081   3.279
29566W        W94727  20.791  29.112   1.092
29567W        W94728  23.566  10.121  11.621
29568W        W94729  33.056   1.738   4.294
29569W        W94730  37.906  10.867   2.640
29570W        W94731   5.163  33.916   4.741
29571W        W94732   6.615   5.781  14.493
29572W        W94733  17.725  30.413   3.690
29573W        W94734  12.289  28.008  11.522
29574W        W94735  29.756  19.231  11.628
29575W        W94736  42.592  14.489  13.954
29576W        W94737   0.306  37.856   3.472
29577W        W94738  29.630   7.354  14.871
29578W        W94739  40.603   0.060   0.864
29579W        W94740   7.832  40.746   3.187
29580W        W94741  15.583  22.094  12.965
29581W        W94742  41.428  23.215   4.414
29582W        W94743  33.681  20.481   0.825
29583W        W94744  29.537   4.810   2.345
29584W        W94745  18.699  38.188   0.162
29585W        W94746   7.518  36.782  14.431
29586W        W94747  23.168  23.553  12.198
29587W        W94748  39.308   2.990   0.175
29588W        W94749  35.914  29.427  11.370
29589W        W94750   0.744  42.802   0.426
29590W        W94751  15.135  28.526  13.595
29591W        W94752  38.162  30.155  11.136
29592W        W94753  38.404  17.704   0.014
29593W        W94754  42.972  12.335  12.876
29594W        W94755  15.129  10.142  13.436
29595W        W94756  14.866   2.416   3.777
29596W        W94757   6.879   1.965   2.422
29597W        W94758  19.156  35.599   1.990
29598W        W94759   4.427  16.578  10.503
29599W        W94760  43.619  21.835  14.741
29600W        W94761  17.496  37.208  13.632
29601W        W94762  35.418  20.727   2.303
29602W        W94763  15.167   3.556   3.321
29603W        W94764   4.975   9.846  12.918
29604W        W94765  28.335  36.121   3.742
29605W        W94766  29.035  32.474  10.665
29606W        W94767  27.121  40.921   0.518
29607W        W94768  32.005  14.818  13.225
29608W        W94769   6.671   1.915  13.541
29609W        W94770  37.731  34.373   3.105
29610W        W94771  27.568  32.179   2.247
29611W        W94772   5.475  13.228  12.599
29612W        W94773  15.842  43.998   0.934
29613W        W94774   5.197  25.190   1.118
29614W        W94775  40.767  17.052   3.149
29615W        W94776  15.536  26.089  10.678
29616W        W94777  36.824  23.241  13.596
29617W        W94778  14.184  27.933   3.305
29618W        W94779   0.588  11.136   1.860
29619W        W94780  27.128  15.081   9.547
29620W        W94781  24.424  37.615   2.834
29621W        W94782  37.305  24.095   2.244
29622W        W94783  36.686  11.285  10.966
29623W        W94784   0.732  21.759   1.287
29624W        W94785  15.558   4.525  13.323
29625W        W94786  26.923  42.436  13.424
29626W        W94787  22.945  24.771  11.164
29627W        W94788  14.302   5.676   1.526
29628W        W94789  23.002   3.594   3.828
29629W        W94790  39.504   6.809   1.935
29630W        W94791  37.958  11.658  13.981
29631W        W94792   3.656  17.498   4.103
29632W        W94793   4.639   1.415   3.144
29633W        W94794  44.507  23.184   4.059
29634W        W94795  32.458  21.084  14.328
29635W        W94796  33.036  25.901   0.767
29636W        W94797  41.855  29.773   4.550
29637W        W94798  22.563  17.094   5.438
29638W        W94799  14.655   1.625   3.059
29639W        W94800  39.245   3.476   4.832
29640W        W94801  38.401   1.800  10.787
29641W        W94802   1.796   2.321   1.302
29642W        W94803   0.917  26.383  14.252
29643W        W94804  22.534  20.505  12.594
29644W        W94805  18.570  39.377  12.727
29645W        W94806  29.432  36.856  10.657
29646W        W94807  17.694  33.571   1.416
29647W        W94808  35.917   8.144   0.351
29648W        W94809  18.383  22.491   4.157
29649W        W94810  11.658   4.310  11.472
29650W        W94811  17.061  34.613  11.898
29651W        W94812  23.385  20.526  10.634
29652W        W94813   2.541  44.729  11.663
29653W        W94814  42.180  16.538  13.266
29654W        W94815   9.456  22.749  14.431
29655W        W94816  32.500  11.562   1.542
29656W        W94817   9.556  15.455  14.992
29657W        W94818   3.415   3.507  10.826
29658W        W94819  21.005  21.069   0.195
29659W        W94820   2.035   2.664  11.539
29660W        W94821   5.751   9.446  14.281
29661W        W94822  37.984  16.790   1.511
29662W        W94823   3.352  20.023   2.939
29663W        W94824  21.077   4.232   3.293
29664W        W94825   4.855   3.168   4.544
29665W        W94826  24.742  13.242   1.615
29666W        W94827   8.920  35.110   2.252
29667W        W94828  15.110  39.503  13.574
29668W        W94829  19.088  20.153  10.678
29669W        W94830  40.746  20.540  12.868
29670W        W94831  40.852  38.900  13.971
29671W        W94832  11.354  35.388  12.220
29672W        W94833   6.128  37.433  13.071
29673W        W94834  16.048  12.774  13.994
29674W        W94835  29.179  25.672  11.927
29675W        W94836  24.291  43.798   3.160
29676W        W94837  29.848  19.954   5.041
29677W        W94838  33.367   7.906  11.988
29678W        W94839   3.249   5.935  13.405
29679W        W94840  13.303  13.631   0.386
29680W        W94841  20.208  22.728  11.726
29681W        W94842  14.296  10.147  10.953
29682W        W94843  12.770  16.235   2.360
29683W        W94844   1.191  16.916   0.728
29684W        W94845  32.013  33.679   1.246
29685W        W94846   9.476  33.939  11.021
29686W        W94847  17.331  18.579  12.904
29687W        W94848  35.181  35.879  13.667
29688W        W94849  35.485  18.458   2.409
29689W        W94850  19.508  10.206  12.534
29690W        W94851  41.660  26.282   2.927
29691W        W94852  38.274   0.484  13.463
29692W        W94853  11.920  17.545   2.298
29693W        W94854  41.568   6.153   3.341
29694W        W94855  21.037  35.277   3.523
29695W        W94856  36.364   3.927   1.739
29696W        W94857  36.036  10.746   0.641
29697W        W94858  41.813   1.528   1.830
29698W        W94859  15.306  27.224   3.214
29699W        W94860  27.590   6.162  11.644
29700W        W94861   5.799  39.163   0.061
29701W        W94862  34.522  37.605   3.828
29702W        W94863  23.753   9.179   1.770
29703W        W94864   3.566   2.346   3.257
29704W        W94865  23.477   0.839   1.265
29705W        W94866  27.463  44.042   1.701
29706W        W94867   8.402   5.411  13.062
29707W        W94868  31.094  25.898  14.395
29708W        W94869  27.490  21.181  12.651
29709W        W94870   8.141  28.893   0.200
29710W        W94871   8.908  38.975  11.132
29711W        W94872   2.516   4.355   0.936
29712W        W94873  36.604  34.099   1.933
29713W        W94874   3.372   1.374   1.248
29714W        W94875  20.361  39.334  11.215
29715W        W94876  18.701  19.497  11.169
29716W        W94877  39.374  35.103  10.829
29717W        W94878  32.826  30.034   4.102
29718W        W94879  39.774  19.039   1.579
29719W        W94880  39.055  33.317  13.365
29720W        W94881   9.820  17.525  13.486
29721W        W94882   7.644  37.884  11.585
29722W        W94883  25.063  16.686   0.915
29723W        W94884  26.723   1.904   1.893
29724W        W94885  37.896  31.107  11.664
29725W        W94886   1.737  22.210  13.933
29726W        W94887  33.401  31.631   3.809
29727W        W94888   0.967  36.167   0.741
29728W        W94889   9.364  41.342  10.279
29729W        W94890  20.190  10.748   1.335
29730W        W94891  21.591  29.121  11.543
29731W        W94892   1.932  28.941  10.121
29732W        W94893  23.543  17.108   4.398
29733W        W94894  22.335   5.520  14.915
29734W        W94895  21.578   4.643  10.363
29735W        W94896   8.486  28.482   4.514
29736W        W94897  41.442  20.451  12.022
29737W        W94898  12.718  22.294   4.046
29738W        W94899  16.940  10.147   3.137
29739W        W94900  31.035   1.167   1.871
29740W        W94901  39.154  34.358   0.529
29741W        W94902  15.638  42.275  14.974
29742W        W94903  13.716  34.885   1.016
29743W        W94904  29.899  44.885   0.057
29744W        W94905  33.536  28.467  10.778
29745W        W94906  32.838  38.010   0.029
29746W        W94907  10.603  30.862   4.760
29747W        W94908  28.595  38.620   1.425
29748W        W94909  36.214  29.306  13.893
29749W        W94910  10.274  28.464   1.345
29750W        W94911  16.512  32.684  13.374
29751W        W94912   5.518   7.696  11.176
29752W        W94913   0.159  36.115  12.188
29753W        W94914   1.740  30.525   0.461
29754W        W94915   0.410  24.520  11.690
29755W        W94916  34.645  32.450   1.060
29756W        W94917  30.985  27.027   0.293
29757W        W94918  38.388   7.649   4.685
29758W        W94919   0.685  15.484  10.949
29759W        W94920   7.710  30.851  11.890
29760W        W94921  20.218  44.298  11.472
29761W        W94922  22.569  22.261   4.069
29762W        W94923  12.097  15.241  13.423
29763W        W94924   3.798  43.881   1.376
29764W        W94925  38.491  32.057   2.425
29765W        W94926   7.168  27.440   2.641
29766W        W94927  28.206   0.666   0.806
29767W        W94928  21.843  36.829   0.830
29768W        W94929   0.806   7.173   3.650
29769W        W94930  36.770  30.197  11.557
29770W        W94931  38.497  21.992   4.040
29771W        W94932  36.148   5.550  13.061
29772W        W94933   3.640   3.452  14.148
29773W        W94934  17.170   7.455   2.798
29774W        W94935  34.922  41.933  12.970
29775W        W94936  39.421  17.832   1.832
29776W        W94937  17.184   3.462  11.412
29777W        W94938   8.941  15.692   5.014
29778W        W94939   4.953  36.530  11.083
29779W        W94940  33.246  14.734  13.064
29780W        W94941  36.162  20.528   1.172
29781W        W94942   6.238  14.134   3.265
29782W        W94943   1.209   1.722  12.460
29783W        W94944  38.774  34.060   0.295
29784W        W94945  35.479  13.707  11.789
29785W        W94946  32.010  32.881   3.835
29786W        W94947  42.431  44.793  13.116
29787W        W94948   8.156   9.772  11.641
29788W        W94949   6.301  32.339   0.326
29789W        W94950  14.518  19.285   5.085
29790W        W94951  20.890  44.949  12.591
29791W        W94952  18.036  14.655   2.217
29792W        W94953  35.405  13.351   2.256
29793W        W94954   2.159  36.314   4.293
29794W        W94955  38.126  19.522   0.163
29795W        W94956  10.409  22.911  13.495
29796W        W94957  10.476  19.487  14.456
29797W        W94958  34.616  12.644   0.019
29798W        W94959  38.776  33.642  14.021
29799W        W94960  35.829  38.061  12.274
29800W        W94961  20.524  20.873  11.169
29801W        W94962  11.593  18.574  14.633
29802W        W94963  37.358  23.967   1.253
29803W        W94964  22.485  35.323   1.994
29804W        W94965  25.663  43.266   1.780
29805W        W94966  38.017  30.508   0.275
29806W        W94967   0.134   2.296  14.432
29807W        W94968  20.990  29.940   4.123
29808W        W94969  14.411  18.496  12.627
29809W        W94970  27.852  11.055  14.898
29810W        W94971  26.927  21.629   2.375
29811W        W94972   2.348  41.949   2.207
29812W        W94973  24.450  18.617   0.357
29813W        W94974  10.608   5.933  14.285
29814W        W94975  18.094  39.399  13.537
29815W        W94976   6.164   8.278  13.118
29816W        W94977  30.516   0.434  12.572
29817W        W94978  10.890  29.548  13.578
29818W        W94979  24.560  30.051   2.174
29819W        W94980   6.240  16.721  10.928
29820W        W94981  32.569  25.785   4.185
29821W        W94982  15.617  39.051   3.598
29822W        W94983  23.963  15.723   2.771
29823W        W94984   9.173   3.846   1.919
29824W        W94985  23.758  36.900  12.097
29825W        W94986   3.101  13.027  14.580
29826W        W94987  37.044   2.899  13.073
29827W        W94988  26.425  28.987  12.778
29828W        W94989  29.954   6.666   2.760
29829W        W94990   1.685  24.738   2.224
29830W        W94991  20.609   8.734   1.864
29831W        W94992  38.313  37.114  13.769
29832W        W94993  26.357  23.689  10.216
29833W        W94994   0.831   2.825  12.956
29834W        W94995   0.581  26.099  12.544
29835W        W94996   5.770  17.585  11.688
29836W        W94997  38.535  39.929  10.666
29837W        W94998   7.969  14.166  14.430
29838W        W94999  40.364  33.316  12.961
29839W        W95000  12.756  36.517   0.028
29840W        W95001  22.712  30.117  12.080
29841W        W95002  17.421  21.098   1.291
29842W        W95003  14.728  24.927   3.191
29843W        W95004  23.041  13.891  12.454
29844W        W95005   0.753   5.231   2.263
29845W        W95006  41.021  38.751   2.877
29846W        W95007  19.578  32.952  14.393
29847W        W95008  19.678   8.842  13.970
29848W        W95009  35.098   6.396  10.315
29849W        W95010  20.990  42.508  13.060
29850W        W95011  28.945  10.306   3.875
29851W        W95012  18.225   4.408   3.066
29852W        W95013  17.284  20.610   2.283
29853W        W95014  33.451  18.299  11.975
29854W        W95015  40.571  15.866  12.667
29855W        W95016  11.090  42.430  12.164
29856W        W95017  27.030  20.010   5.033
29857W        W95018  17.574  31.164   0.238
29858W        W95019  16.345   1.872  12.065
29859W        W95020  13.184  24.889   2.731
29860W        W95021  25.103  33.521  13.919
29861W        W95022   7.504  20.697  11.597
29862W        W95023  13.744  12.893  12.410
29863W        W95024  26.545  37.007  14.459
29864W        W95025  39.425   7.583   2.683
29865W        W95026  31.564  42.532   4.545
29866W        W95027  20.433  23.181  11.555
29867W        W95028  15.376   3.596   0.183
29868W        W95029  19.563  15.855   2.243
29869W        W95030  16.288  29.451   0.397
29870W        W95031  42.025  10.755   1.384
29871W        W95032   3.129  25.338  10.202
29872W        W95033  15.072   5.779  11.970
29873W        W95034  29.198  17.952   4.529
29874W        W95035   8.567  42.921  12.759
29875W        W95036  13.942  20.035   4.121
29876W        W95037   0.485  32.441  13.746
29877W        W95038  35.656  41.905   0.304
29878W        W95039  18.866  31.820   0.697
29879W        W95040  26.369  12.265  13.412
29880W        W95041  16.780  31.883   2.320
29881W        W95042  27.179  42.403  12.960
29882W        W95043  15.882  20.728   0.887
29883W        W95044  14.406  26.247   2.007
29884W        W95045  37.532  40.567   3.774
29885W        W95046  40.198  25.867   4.380
29886W        W95047  38.113  42.751   0.347
29887W        W95048   2.981   7.767   4.559
29888W        W95049  22.586  11.700  10.606
29889W        W95050  19.045  22.997  11.523
29890W        W95051  37.470  20.407  13.393
29891W        W95052  31.614  27.497   5.205
29892W        W95053  27.018  16.094  11.225
29893W        W95054   0.660   6.722  13.806
29894W        W95055   2.811   2.854   4.588
29895W        W95056  25.262   9.257  13.430
29896W        W95057   4.367  40.891  14.904
29897W        W95058   8.451  17.327   3.233
29898W        W95059   4.274   8.739   1.335
29899W        W95060  30.692   2.685  14.291
29900W        W95061  38.117   7.942  12.112
29901W        W95062  24.533  37.923  11.997
29902W        W95063  20.522  19.958  10.135
29903W        W95064  40.973  38.457  13.345
29904W        W95065   6.833  28.742   1.319
29905W        W95066  25.051  20.518   1.868
29906W        W95067  35.070  17.086  11.202
29907W        W95068  34.904  21.506  11.388
29908W        W95069  29.194  20.976   3.537
29909W        W95070  17.294  19.159   2.648
29910W        W95071  18.052  21.234  13.486
29911W        W95072  28.017  18.161   0.803
29912W        W95073  17.245  32.811  11.830
29913W        W95074  23.027   0.804  13.101
29914W        W95075  30.192   1.854  14.648
29915W        W95076  36.262   7.860  11.275
29916W        W95077   2.107  14.111  11.133
29917W        W95078  39.637   3.266   0.455
29918W        W95079  40.132   4.009   1.381
29919W        W95080  37.308  26.648  13.745
29920W        W95081  39.206  24.736  11.136
29921W        W95082  16.147  16.331  12.094
29922W        W95083   6.873  20.810   0.466
29923W        W95084  15.088  42.313  13.699
29924W        W95085   5.665  14.786   2.337
29925W        W95086   7.763  38.973   3.615
29926W        W95087  30.432   0.072  11.841
29927W        W95088  24.693  26.620  13.980
29928W        W95089  44.556  44.545   4.651
29929W        W95090  16.138  38.605  10.664
29930W        W95091  17.194  34.560   1.064
29931W        W95092  26.470  14.107   2.162
29932W        W95093   2.409  32.766  10.732
29933W        W95094  41.777  37.564   3.940
29934W        W95095   4.632  13.810   0.937
29935W        W95096  41.055  14.080  10.912
29936W        W95097  29.229  36.449   3.447
29937W        W95098  30.901   1.523   2.830
29938W        W95099  44.042  38.145   4.489
29939W        W95100  23.302  38.247  13.377
29940W        W95101  21.036  41.783  13.403
29941W        W95102  34.809   5.596  11.969
29942W        W95103  34.441  18.234  10.982
29943W        W95104   8.808  17.462   2.382
29944W        W95105  40.965  27.003   1.527
29945W        W95106  17.406  44.261   0.485
29946W        W95107   3.296  34.106   2.969
29947W        W95108  25.036  39.904   2.222
29948W        W95109   1.336  36.018  14.866
29949W        W95110  19.248   0.726  11.216
29950W        W95111   1.367  40.665   4.458
29951W        W95112   0.740  40.162  14.914
29952W        W95113  41.275   5.857   1.042
29953W        W95114   5.264  10.282  12.878
29954W        W95115  27.630  29.199  11.689
29955W        W95116  30.842  40.658  10.665
29956W        W95117  40.455  34.507   5.158
29957W        W95118   8.323  35.830  13.114
29958W        W95119  26.655  36.882   0.980
29959W        W95120   1.673  16.668   0.702
29960W        W95121  29.399  43.451  13.567
29961W        W95122  27.059  32.028   4.702
29962W        W95123  23.330  36.929   3.701
29963W        W95124  24.757  32.155  11.591
29964W        W95125  14.787  22.071   4.346
29965W        W95126  29.159  12.025  10.832
29966W        W95127   2.320   1.285  14.475
29967W        W95128  32.002  35.288   0.647
29968W        W95129  41.913   3.685  13.571
29969W        W95130  19.512  17.071  10.284
29970W        W95131   2.101  22.203   3.068
29971W        W95132  18.083  40.538  14.990
29972W        W95133  29.709   9.110   4.169
29973W        W95134   6.135   7.471  12.028
29974W        W95135  13.102  38.810   1.306
29975W        W95136   0.707   3.000   1.783
29976W        W95137  17.737   5.155   4.512
29977W        W95138  29.140  41.433  12.514
29978W        W95139  31.040  19.967   4.531
29979W        W95140  15.072   5.502   4.111
29980W        W95141  20.332  12.862  14.689
29981W        W95142  33.597  36.943   3.736
29982W        W95143   1.888  19.297  13.057
29983W        W95144  29.452   8.620  11.435
29984W        W95145  14.861  31.105   1.563
29985W        W95146  34.791  33.570  13.616
29986W        W95147  13.891  39.931   0.701
29987W        W95148  19.758  21.803   9.966
29988W        W95149  35.920  38.640  13.016
29989W        W95150  44.567  17.156   3.223
29990W        W95151  15.827  43.013   1.900
29991W        W95152  39.489  14.588   4.078
29992W        W95153   9.920  33.102   3.201
29993W        W95154   3.441  14.445  14.990
29994W        W95155  11.776  43.967   3.472
29995W        W95156  28.227  24.440  10.292
29996W        W95157   1.888  11.723   0.994
29997W        W95158   3.688  32.687   2.663
29998W        W95159  10.190  37.852  10.658
29999W        W95160   3.430   4.078   0.253
30000W        W95161   7.950   3.508   4.182
30001W        W95162  41.115  33.195   0.822
30002W        W95163   6.886  41.957   3.260
30003W        W95164  29.834   5.222   1.185
30004W        W95165  16.253   1.417   4.683
30005W        W95166  16.299  36.355  11.687
30006W        W95167  36.006  34.423  14.446
30007W        W95168   6.494  28.054   4.758
30008W        W95169   4.175  31.058   4.540
30009W        W95170  23.927   4.712  13.955
30010W        W95171  35.451   4.958  12.051
30011W        W95172  17.101   1.667  14.006
30012W        W95173  39.125  36.932   3.669
30013W        W95174  41.528  42.855  10.702
30014W        W95175  42.728  17.159   1.865
30015W        W95176  23.153  27.187  13.339
30016W        W95177  42.214  27.549  12.020
30017W        W95178   3.867   3.501   1.165
30018W        W95179  28.008   5.498   3.691
30019W        W95180   7.593  39.553  11.464
30020W        W95181   0.006  41.486   3.467
30021W        W95182  25.051  43.771   2.688
30022W        W95183   1.795  15.173  10.321
30023W        W95184  26.474  13.581   3.389
30024W        W95185  42.763  30.405   1.355
30025W        W95186  17.681  25.295   1.708
30026W        W95187  26.062  16.133  12.612
30027W        W95188  13.186  23.013   1.285
30028W        W95189   5.718   8.622   1.896
30029W        W95190  23.452  34.364   4.193
30030W        W95191  42.255  15.676   3.176
30031W        W95192  31.709  42.052  11.553
30032W        W95193   8.678   8.705   0.213
30033W        W95194  17.989  16.109  13.800
30034W        W95195   1.499  32.165   3.699
30035W        W95196  25.353  44.465   0.389
30036W        W95197  17.692  39.828   1.896
30037W        W95198   9.087   7.741   0.829
30038W        W95199  11.173   8.629  12.570
30039W        W95200  12.235   0.452  13.136
30040W        W95201   3.228  31.591   1.778
30041W        W95202  42.784  21.112  13.691
30042W        W95203  36.870  22.170  13.591
30043W        W95204  39.101  28.115   4.528
30044W        W95205  16.825  13.081   1.103
30045W        W95206   1.750  21.115   2.259
30046W        W95207  10.902  30.451   2.167
30047W        W95208  24.051  30.136  12.897
30048W        W95209   2.284   9.271  12.779
30049W        W95210  10.911  22.340  11.077
30050W        W95211   7.813  34.659   0.763
30051W        W95212  12.923  44.911   0.424
30052W        W95213   3.011   2.545   1.968
30053W        W95214  26.032  24.169   1.892
30054W        W95215  18.063  37.626   1.387
30055W        W95216   0.582  20.134  13.076
30056W        W95217   3.739   0.194   3.733
30057W        W95218  24.587  30.333  12.295
30058W        W95219  42.529  41.312   4.827
30059W        W95220  21.416  35.873   0.938
30060W        W95221  44.394  10.664  11.660
30061W        W95222  41.748   1.883  11.153
30062W        W95223  37.940  31.689  11.029
30063W        W95224  22.239  34.990   3.453
30064W        W95225  38.756   1.908   1.319
30065W        W95226  31.729  29.498   4.601
30066W        W95227   8.602  32.546  13.169
30067W        W95228   3.179  12.174   3.323
30068W        W95229  12.720  11.063   3.216
30069W        W95230  20.272  20.553   4.672
30070W        W95231   2.333  16.661   4.081
30071W        W95232  25.205  36.003   4.207
30072W        W95233   6.468  15.022   2.540
30073W        W95234  20.728  38.425  11.982
30074W        W95235  32.469  22.498   4.320
30075W        W95236  31.311  36.586   1.945
30076W        W95237   6.746  41.335   2.426
30077W        W95238  24.827   3.450  14.976
30078W        W95239  28.529  29.238  11.637
30079W        W95240   1.877  30.411  10.725
30080W        W95241  32.359  36.957   1.232
30081W        W95242  23.645  44.538  14.428
30082W        W95243  21.478  30.962   0.476
30083W        W95244  29.235  17.392  11.646
30084W        W95245  25.983  30.878  13.309
30085W        W95246  30.204   8.220   0.720
30086W        W95247  14.517  43.337  14.341
30087W        W95248  33.534  22.077   2.001
30088W        W95249  20.353  31.970   4.211
30089W        W95250  27.979  18.340   1.318
30090W        W95251  30.946  37.022   1.312
30091W        W95252  35.428   0.776   3.656
30092W        W95253  28.042  38.025   0.895
30093W        W95254  42.794  24.140   3.005
30094W        W95255  34.036  31.246  11.961
30095W        W95256  33.058  21.196   2.194
30096W        W95257  22.709  14.505   0.170
30097W        W95258   1.438  41.987  10.781
30098W        W95259   3.229  13.836   3.615
30099W        W95260  32.478  29.675  12.949
30100W        W95261  18.996   1.700  14.328
30101W        W95262  35.812  24.248  14.877
30102W        W95263  12.848   6.164   1.294
30103W        W95264   5.928  26.392   2.188
30104W        W95265  10.779  23.564  14.928
30105W        W95266  33.625  24.191  12.460
30106W        W95267   6.892   2.011   0.875
30107W        W95268  39.446  39.359   4.375
30108W        W95269  32.213  41.552   0.339
30109W        W95270  18.791   8.652   2.791
30110W        W95271  22.705  42.519   0.372
30111W        W95272  36.338   8.385  12.942
30112W        W95273   5.594  11.825   5.069
30113W        W95274  37.791  37.587  14.277
30114W        W95275  12.082  42.964  13.833
30115W        W95276   2.959  35.800   2.790
30116W        W95277  10.302  19.534  13.552
30117W        W95278  37.900  32.072  13.530
30118W        W95279  22.015  31.636  13.909
30119W        W95280  18.606  38.095   0.818
30120W        W95281  44.324  24.855  12.202
30121W        W95282  20.106  26.152  12.124
30122W        W95283  19.361  32.870  12.606
30123W        W95284  11.965  15.110  11.530
30124W        W95285  36.637  31.310   1.505
30125W        W95286   9.415  32.959   1.586
30126W        W95287  15.907  33.341  13.993
30127W        W95288  35.148   3.847  10.573
30128W        W95289  22.988  22.608  14.921
30129W        W95290   3.738  42.290  13.572
30130W        W95291  29.095  22.531   0.247
30131W        W95292  43.885  39.127  10.135
30132W        W95293  15.553  21.929   2.722
30133W        W95294  18.706   8.045   3.228
30134W        W95295  35.839  36.017  14.985
30135W        W95296  28.265  42.167  10.086
30136W        W95297  34.755  37.270  12.066
30137W        W95298  34.063  29.220  14.254
30138W        W95299  37.100  20.018   1.221
30139W        W95300  37.143   5.728  14.925
30140W        W95301  18.277  12.945  12.534
30141W        W95302  32.458  28.633  12.012
30142W        W95303  37.522  21.678   0.398
30143W        W95304  31.080  30.787   2.657
30144W        W95305   1.499   5.047   1.752
30145W        W95306  19.830  33.615   0.578
30146W        W95307  24.304  29.912  11.113
30147W        W95308  38.488  13.247   3.552
30148W        W95309  10.630  43.048  12.069
30149W        W95310  29.144  22.532  12.865
30150W        W95311   8.778  39.565  10.614
30151W        W95312  20.220  12.887  12.952
30152W        W95313  23.057  34.003  12.663
30153W        W95314   7.820  23.012   4.176
30154W        W95315   9.751  42.033  14.766
30155W        W95316  17.135  15.610   3.657
30156W        W95317  36.198  31.514   1.681
30157W        W95318  20.609  15.091  12.933
30158W        W95319  38.897  38.442  12.195
30159W        W95320  30.118   5.038  13.461
30160W        W95321  20.315  40.754  13.012
30161W        W95322   7.270   8.212  12.101
30162W        W95323  34.606  23.272  13.991
30163W        W95324  32.698  38.313   3.596
30164W        W95325  19.517  10.896  13.972
30165W        W95326   7.849  32.348  11.502
30166W        W95327  18.188  44.693  11.576
30167W        W95328  33.585  12.178  12.026
30168W        W95329  25.480  28.621   2.676
30169W        W95330  43.847   2.058  14.093
30170W        W95331  14.600   1.103   1.792
30171W        W95332  15.331  20.809   9.837
30172W        W95333  43.937  17.507   1.846
30173W        W95334  24.244   7.576  11.710
30174W        W95335  23.145  21.511  10.771
30175W        W95336   6.247  38.085  14.939
30176W        W95337  43.358  14.086  11.201
30177W        W95338  12.064   8.714  12.190
30178W        W95339  25.464   4.695   2.849
30179W        W95340  27.426  18.636  11.608
30180W        W95341  38.305  21.415  11.450
30181W        W95342  41.400   7.216  12.952
30182W        W95343  22.730  17.778  11.010
30183W        W95344  36.968  14.581  12.082
30184W        W95345  41.873   3.816   4.915
30185W        W95346   5.692  43.434  11.019
30186W        W95347  13.225   1.368  14.101
30187W        W95348  34.350   7.893   4.002
30188W        W95349   7.670   8.606   4.060
30189W        W95350  21.521   6.234  10.112
30190W        W95351  15.565  25.862  12.586
30191W        W95352  10.216  17.077  14.508
30192W        W95353  14.009  11.645  11.696
30193W        W95354  30.505  24.047   1.409
30194W        W95355  30.111   2.949  12.347
30195W        W95356  42.217  40.812   4.718
30196W        W95357  20.150  35.063  14.172
30197W        W95358  25.970   2.446   4.521
30198W        W95359   0.333  24.811   4.120
30199W        W95360   1.707   9.187  14.413
30200W        W95361  24.910  18.826  13.749
30201W        W95362  12.054  43.807  11.037
30202W        W95363  33.540   0.361   4.599
30203W        W95364  19.103  25.453   4.781
30204W        W95365  33.116  37.869   2.417
30205W        W95366   4.279  13.454  10.234
30206W        W95367  17.665  29.170   3.103
30207W        W95368  21.339  27.757   2.197
30208W        W95369  23.002  12.092   0.485
30209W        W95370   1.976   2.332   0.803
30210W        W95371   4.625  38.279   4.076
30211W        W95372  42.665  38.083  12.591
30212W        W95373   4.217  33.638  13.805
30213W        W95374  10.973  25.939   1.766
30214W        W95375  38.059  21.751  14.875
30215W        W95376  25.505  12.613   2.570
30216W        W95377  31.597  29.153  12.393
30217W        W95378  24.170  29.686  13.412
30218W        W95379  16.032  42.955   4.939
30219W        W95380  26.592   4.784  14.386
30220W        W95381  16.332  26.157   0.806
30221W        W95382   6.869  37.500  11.273
30222W        W95383  36.727  20.257   4.181
30223W        W95384  22.480  24.049  13.467
30224W        W95385  22.764  22.942   1.695
30225W        W95386  30.904   3.495   1.361
30226W        W95387   1.801  19.667  12.640
30227W        W95388  44.456   9.199  10.562
30228W        W95389   6.583  42.805   3.805
30229W        W95390   2.774  15.556  11.277
30230W        W95391   7.404  33.923   4.753
30231W        W95392  17.771  41.737   4.167
30232W        W95393  28.258  30.984   1.821
30233W        W95394   2.327  34.745   4.882
30234W        W95395  34.373  37.645  11.130
30235W        W95396  13.184  14.263  10.639
30236W        W95397  12.281  31.057   4.801
30237W        W95398  41.618   6.444  11.375
30238W        W95399  22.251  18.009   1.944
30239W        W95400  25.845  36.805   4.667
30240W        W95401  19.834  18.743  12.550
30241W        W95402  36.404   1.713  13.669
30242W        W95403   3.355  39.091  11.149
30243W        W95404  35.383  38.325  14.945
30244W        W95405  42.132  10.245  14.248
30245W        W95406  39.138  35.729  14.424
30246W        W95407  28.932  36.636   5.323
30247W        W95408  40.941  27.195  13.777
30248W        W95409  24.932  36.574  14.369
30249W        W95410  26.320  15.072   4.729
30250W        W95411  23.757  29.558   0.267
30251W        W95412  16.564   2.707   2.811
30252W        W95413  27.627   7.757  14.284
30253W        W95414  10.558  38.470  13.362
30254W        W95415   6.099   5.942  14.418
30255W        W95416  38.345   2.000   3.196
30256W        W95417   8.653  26.196   0.362
30257W        W95418  33.618  38.959  14.410
30258W        W95419  35.016   3.257   1.619
30259W        W95420  10.735  39.434   2.231
30260W        W95421  13.069  44.444  13.742
30261W        W95422  21.125  35.047   1.885
30262W        W95423  27.138  41.221   2.958
30263W        W95424   5.268   1.317   4.710
30264W        W95425  40.545  26.651  12.880
30265W        W95426   8.961   6.888   0.048
30266W        W95427  41.902  17.084  12.051
30267W        W95428  18.720  16.031  13.376
30268W        W95429  13.781  42.569  14.504
30269W        W95430  43.023  29.900  14.769
30270W        W95431   0.858  30.546   0.717
30271W        W95432  23.443  29.485   0.668
30272W        W95433  42.789  24.462  14.428
30273W        W95434   4.822   4.311  13.005
30274W        W95435  40.110  44.737  10.924
30275W        W95436   2.952  42.513  13.801
30276W        W95437  35.941   1.765  12.861
30277W        W95438  29.407  41.818  14.532
30278W        W95439   3.389  23.127  14.012
30279W        W95440  43.289   6.407   0.798
30280W        W95441   4.651  31.010   1.720
30281W        W95442  35.546  10.141   0.774
30282W        W95443  27.640  40.018   3.647
30283W        W95444  18.791  16.195  14.235
30284W        W95445  26.554  41.893   3.802
30285W        W95446   4.309  38.378  11.799
30286W        W95447  29.129   9.115  12.419
30287W        W95448  17.306  18.676  11.530
30288W        W95449  38.804  21.232   4.904
30289W        W95450  32.062  11.443  12.056
30290W        W95451  11.317  31.981  14.885
30291W        W95452  26.441  44.757  11.639
30292W        W95453  17.320  15.160   3.938
30293W        W95454  10.579  39.007  10.601
30294W        W95455  21.691  31.985   3.835
30295W        W95456  25.724  29.596  10.562
30296W        W95457  39.635  38.781  13.328
30297W        W95458   9.854   1.795  11.904
30298W        W95459  31.379  18.670  12.046
30299W        W95460  42.376  19.258  11.585
30300W        W95461   6.229   8.799  11.595
30301W        W95462  10.837  41.075  13.427
30302W        W95463  14.360   4.179  11.576
30303W        W95464  25.181  16.215   3.298
30304W        W95465  11.603   4.871  14.214
30305W        W95466  27.202  23.004   1.683
30306W        W95467   9.893   4.973  11.046
30307W        W95468  34.877  29.595  12.403
30308W        W95469   8.367  14.628  13.358
30309W        W95470  42.994  21.738   4.100
30310W        W95471  13.053  20.670  12.550
30311W        W95472  23.586   8.383   3.282
30312W        W95473   7.944  35.758  11.086
30313W        W95474  28.097  14.374  11.177
30314W        W95475  25.140  20.360  11.634
30315W        W95476  40.987  43.490   4.636
30316W        W95477  29.510  34.688  13.057
30317W        W95478  35.372  42.787   1.410
30318W        W95479  31.568  16.649   4.566
30319W        W95480  18.004  38.021   0.744
30320W        W95481  23.740  28.540   2.821
30321W        W95482   2.727  24.770   3.129
30322W        W95483  27.225  36.508  14.502
30323W        W95484  31.618   1.252  13.965
30324W        W95485   7.102  29.021  13.007
30325W        W95486  28.018  23.018   2.683
30326W        W95487  41.405   2.206  10.798
30327W        W95488  15.267  35.357   0.254
30328W        W95489   1.708   3.974  13.444
30329W        W95490  16.639  37.119   4.149
30330W        W95491  15.381  19.605  14.724
30331W        W95492  43.086  35.373  10.370
30332W        W95493  29.107  29.938  13.189
30333W        W95494   6.425  14.295  10.589
30334W        W95495  38.870  24.155  13.290
30335W        W95496  14.698  11.061   3.228
30336W        W95497  36.402  41.031   2.330
30337W        W95498  16.738  34.367  13.042
30338W        W95499  17.285  36.166  11.323
30339W        W95500  40.601   1.797   0.296
30340W        W95501  32.981  27.399  10.743
30341W        W95502  36.583  26.330  11.687
30342W        W95503  38.369   2.470  11.962
30343W        W95504  16.043  33.841  10.660
30344W        W95505   9.105  32.476  13.102
30345W        W95506   7.203   3.259  13.431
30346W        W95507  17.031  30.466   4.274
30347W        W95508  34.364  21.698  13.003
30348W        W95509  44.523  41.023  13.853
30349W        W95510  32.905  12.631   0.368
30350W        W95511  37.895  19.457  14.400
30351W        W95512  41.929  31.355  13.038
30352W        W95513  12.207   4.779  12.002
30353W        W95514  22.289  24.053  12.039
30354W        W95515  12.906  27.914   3.661
30355W        W95516  40.209  43.725  11.931
30356W        W95517  18.279   0.874  10.886
30357W        W95518  36.642  24.692  14.432
30358W        W95519  24.599  40.635   2.291
30359W        W95520  10.526   2.725   4.041
30360W        W95521   7.316   0.838   2.648
30361W        W95522  19.072   3.344  10.685
30362W        W95523  30.138  36.458  12.259
30363W        W95524  29.694  30.109   2.216
30364W        W95525  40.085  15.670  12.521
30365W        W95526  38.627  36.430   0.853
30366W        W95527   3.290  26.746  12.579
30367W        W95528   9.360  40.347  12.816
30368W        W95529  16.338  42.413  10.725
30369W        W95530  21.568  13.390  13.856
30370W        W95531  31.673  14.164  11.111
30371W        W95532  10.366   4.683  12.581
30372W        W95533  23.020  28.678   0.297
30373W        W95534  20.794  21.680  12.442
30374W        W95535  13.589  22.080  14.863
30375W        W95536  43.735   3.334  10.066
30376W        W95537  31.803  32.595  14.363
30377W        W95538   2.701   0.947  12.548
30378W        W95539  36.522  41.268  13.314
30379W        W95540  21.115  44.454  11.372
30380W        W95541  10.834   2.366   4.903
30381W        W95542  16.202  19.314  10.964
30382W        W95543   3.442  35.570   2.659
30383W        W95544  29.923  15.219  12.967
30384W        W95545   1.570  37.975  11.240
30385W        W95546  20.985  36.829   3.691
30386W        W95547  26.693  35.639  14.299
30387W        W95548  41.749  39.347   1.394
30388W        W95549  26.006   8.761   1.921
30389W        W95550  24.011  11.303   3.427
30390W        W95551   2.306  18.739   2.255
30391W        W95552  21.183   1.443  12.320
30392W        W95553  23.113  12.701   4.653
30393W        W95554  44.370  17.309  14.369
30394W        W95555   7.992  15.132  13.102
30395W        W95556  28.969  36.019   1.856
30396W        W95557   0.145  27.145   0.185
30397W        W95558  24.557   3.018   1.831
30398W        W95559  17.546   7.981   0.741
30399W        W95560   2.889   6.026  11.880
30400W        W95561  34.919  42.871   3.659
30401W        W95562  28.720   3.249  11.100
30402W        W95563  16.524  22.932   0.047
30403W        W95564   4.034  34.118   3.523
30404W        W95565  33.871   5.747  14.343
30405W        W95566  15.696  30.484  14.893
30406W        W95567  24.679  18.677  11.655
30407W        W95568   5.435  21.268  13.998
30408W        W95569  20.559  29.024  12.145
30409W        W95570  18.574  34.596  10.349
30410W        W95571   0.509  21.745   1.932
30411W        W95572  36.329  12.104  12.461
30412W        W95573  43.269  14.736   0.328
30413W        W95574  13.765  35.319   1.869
30414W        W95575  21.194  27.263   2.244
30415W        W95576  13.431  32.743   3.339
30416W        W95577  34.370   9.689  10.665
30417W        W95578  13.328  24.148  11.183
30418W        W95579  18.564  44.706   4.235
30419W        W95580  18.225  39.105  14.294
30420W        W95581  25.695   6.748  11.444
30421W        W95582  11.260  17.900   3.255
30422W        W95583  13.369   3.702   4.127
30423W        W95584  28.801  28.665  13.011
30424W        W95585  16.852  20.366   2.412
30425W        W95586  19.062  13.326   3.729
30426W        W95587  44.021  43.427   2.962
30427W        W95588  29.119   7.440   0.853
30428W        W95589  43.351   1.335  10.595
30429W        W95590  25.863   8.261   1.858
30430W        W95591  16.388  20.376  12.482
30431W        W95592   2.016  33.060  12.102
30432W        W95593   2.412  20.588  12.576
30433W        W95594  36.950  33.530   4.590
30434W        W95595   1.106  29.563   0.818
30435W        W95596  22.926   7.467   1.336
30436W        W95597  39.851  42.065   2.284
30437W        W95598  11.115  30.701  11.084
30438W        W95599  33.900   8.806   2.765
30439W        W95600  33.629   8.859   1.281
30440W        W95601  29.137  14.849  12.672
30441W        W95602  33.096   8.776  14.109
30442W        W95603  14.441  12.787   4.961
30443W        W95604  22.484   5.868  12.970
30444W        W95605  23.105  36.368  12.435
30445W        W95606  28.645  22.182   1.446
30446W        W95607   1.981  31.174   0.943
30447W        W95608  32.323  38.547   0.347
30448W        W95609   7.657   0.906  10.686
30449W        W95610   6.351  20.759  11.962
30450W        W95611  12.667  24.959  12.060
30451W        W95612  30.838  33.532  12.450
30452W        W95613   2.805  37.907  12.639
30453W        W95614   4.895  19.781   0.875
30454W        W95615  24.628   0.030  14.845
30455W        W95616  26.819  20.183   2.775
30456W        W95617  21.318  25.153   1.907
30457W        W95618  42.556  43.233   3.040
30458W        W95619  28.997  29.969  10.528
30459W        W95620  11.067  15.012  14.765
30460W        W95621  31.267  21.114   4.979
30461W        W95622  16.270  41.483   0.317
30462W        W95623  29.546  26.891   0.614
30463W        W95624  18.987  34.125  12.456
30464W        W95625  25.914  44.068  13.349
30465W        W95626   8.205  32.475  11.162
30466W        W95627   2.243  23.853   0.449
30467W        W95628  30.421  26.539   0.863
30468W        W95629   9.189   5.378   2.685
30469W        W95630   9.684  33.524  10.413
30470W        W95631   0.485  21.968   2.611
30471W        W95632  11.171  34.737   1.862
30472W        W95633  19.760  11.646  10.707
30473W        W95634  20.517  16.138   0.298
30474W        W95635  30.401  22.462   4.186
30475W        W95636  19.102  34.561   0.214
30476W        W95637  31.908  29.684  12.761
30477W        W95638  43.441  41.515  13.539
30478W        W95639  30.528  18.025   1.994
30479W        W95640  28.202   1.525   1.218
30480W        W95641  16.186   6.935   3.307
30481W        W95642  42.103  13.585  12.400
30482W        W95643  42.356  10.347   0.724
30483W        W95644  11.158  13.167   4.573
30484W        W95645   1.215  18.783  12.344
30485W        W95646  17.547  27.757  13.413
30486W        W95647  31.482  12.919   0.561
30487W        W95648   6.448  19.598  13.836
30488W        W95649  41.734  15.842   3.157
30489W        W95650  13.607  26.881  11.328
30490W        W95651  35.861  27.501  12.951
30491W        W95652   5.461  13.316  10.841
30492W        W95653   2.030  29.431  10.697
30493W        W95654  25.688  27.271   2.406
30494W        W95655  41.852  31.958   1.286
30495W        W95656   7.488   1.830   0.291
30496W        W95657  21.057  41.875   5.104
30497W        W95658   2.148  44.876   3.150
30498W        W95659  34.507  39.104  13.609
30499W        W95660  33.923  13.368  14.764
30500W        W95661  11.891  15.721   0.740
30501W        W95662  20.065  21.713  11.608
30502W        W95663  21.005  16.328  14.948
30503W        W95664   9.872  17.818  14.956
30504W        W95665  23.587   5.386  12.429
30505W        W95666  20.791  32.254   4.207
30506W        W95667  11.234  17.569   1.782
30507W        W95668   2.807  39.564  13.588
30508W        W95669  15.215   0.435   3.609
30509W        W95670   0.418  43.029   0.032
30510W        W95671  10.886  23.248  11.199
30511W        W95672   6.930  19.738  14.020
30512W        W95673  10.167  32.003  14.336
30513W        W95674  42.579  11.507  10.795
30514W        W95675   0.767   1.265   1.155
30515W        W95676   8.567   3.430   2.589
30516W        W95677  30.713   0.937  13.880
30517W        W95678   2.632   8.967  10.703
30518W        W95679  35.151  43.766   0.863
30519W        W95680  13.864   2.870   3.812
30520W        W95681   4.070  40.618   4.507
30521W        W95682  11.388   5.572  12.101
30522W        W95683  33.353  17.155   3.745
30523W        W95684  20.979  27.900  11.556
30524W        W95685  18.370  35.634  13.069
30525W        W95686  14.664  17.704  11.536
30526W        W95687  15.626  42.040   1.036
30527W        W95688   8.736  27.473   5.345
30528W        W95689  34.903  30.100  14.860
30529W        W95690  31.265  12.529   2.848
30530W        W95691   4.758  43.482  10.830
30531W        W95692  21.386  32.462  13.373
30532W        W95693   2.728   0.219   1.328
30533W        W95694  29.574  37.469  14.795
30534W        W95695  22.281   2.728  12.540
30535W        W95696  34.369  12.078  10.640
30536W        W95697   8.315   0.527  12.969
30537W        W95698  32.850  25.018  13.971
30538W        W95699   6.455  31.174  12.043
30539W        W95700  33.231  16.853  10.381
30540W        W95701   8.557   8.842   3.454
30541W        W95702  37.555  12.884   1.511
30542W        W95703  44.671  27.604   1.404
30543W        W95704  44.029  36.467  11.585
30544W        W95705  30.961  44.817  13.013
30545W        W95706  38.220  32.465   3.897
30546W        W95707  29.685  36.786  12.943
30547W        W95708   9.358  21.838  12.023
30548W        W95709   1.823  41.082   0.247
30549W        W95710  26.508   8.623  13.374
30550W        W95711  31.044  39.507   4.131
30551W        W95712  18.128  33.437   0.237
30552W        W95713  23.188  26.419  14.740
30553W        W95714  32.554  16.418  13.363
30554W        W95715  10.634  39.004  13.029
30555W        W95716  26.341  17.280   1.670
30556W        W95717  40.480  43.570  13.310
30557W        W95718   2.694  17.987  11.688
30558W        W95719   2.550  35.932  12.036
30559W        W95720  18.700  39.438  13.717
30560W        W95721   0.109  10.413  14.394
30561W        W95722   2.352   7.971  14.705
30562W        W95723  17.079  15.083   4.394
30563W        W95724  14.677   0.005  14.567
30564W        W95725  18.888  10.139  12.098
30565W        W95726  27.848  39.238  11.691
30566W        W95727  32.021  40.841  13.637
30567W        W95728  42.176  28.262  13.026
30568W        W95729  11.197   9.138   3.893
30569W        W95730  42.411   8.555   3.699
30570W        W95731  33.538  18.710   3.040
30571W        W95732   2.268  37.782   0.857
30572W        W95733  28.206  21.459   4.033
30573W        W95734  29.960  41.117   1.345
30574W        W95735   5.673  10.212   1.370
30575W        W95736  44.446   0.313   3.655
30576W        W95737  23.507   8.715   1.775
30577W        W95738   5.887   6.472  12.086
30578W        W95739   2.803  18.489  11.664
30579W        W95740  23.288  22.672   5.214
30580W        W95741  39.925   7.434   3.260
30581W        W95742   8.138  34.591   1.170
30582W        W95743  30.090  30.824   1.824
30583W        W95744   5.924  32.572   3.573
30584W        W95745  19.255  18.165   2.166
30585W        W95746  16.548  16.510   5.406
30586W        W95747   2.408  41.308   1.433
30587W        W95748  15.756  26.053   2.620
30588W        W95749  39.816  18.777   2.090
30589W        W95750  42.424  34.063  14.225
30590W        W95751  44.410  37.774   1.318
30591W        W95752   3.846  30.650   3.218
30592W        W95753  35.965   0.275   2.311
30593W        W95754  44.907  42.548  14.479
30594W        W95755   7.893   3.364  14.912
30595W        W95756  29.594  37.752   4.016
30596W        W95757  22.140   6.011   2.894
30597W        W95758  30.452  34.986   0.436
30598W        W95759   4.710   0.137  10.979
30599W        W95760  22.426  29.680  14.945
30600W        W95761  38.045  38.302  11.612
30601W        W95762  33.405   5.353   0.641
30602W        W95763  29.009  24.221   0.835
30603W        W95764  30.044  38.101  14.076
30604W        W95765  40.383  31.540  13.081
30605W        W95766  39.075  15.199   0.702
30606W        W95767  22.965  27.606  14.205
30607W        W95768  42.378  15.855  11.057
30608W        W95769  40.800  34.762   4.814
30609W        W95770  19.648  30.462   0.770
30610W        W95771  42.108  16.276  12.426
30611W        W95772   8.331  44.099   1.707
30612W        W95773  20.032  25.748  13.928
30613W        W95774  22.077  14.091  12.801
30614W        W95775  42.843  26.652  14.031
30615W        W95776  33.358  40.582   0.363
30616W        W95777  20.254  42.664   3.677
30617W        W95778  26.938  14.285  11.528
30618W        W95779  17.254   7.592   4.003
30619W        W95780   7.113   6.823  10.736
30620W        W95781  23.623  21.915   0.822
30621W        W95782   3.077  25.208   3.298
30622W        W95783   9.246  18.710  11.468
30623W        W95784  19.049  20.907  14.432
30624W        W95785  29.208   6.646   0.383
30625W        W95786  41.825  12.600  14.400
30626W        W95787  29.684  11.448  14.725
30627W        W95788  34.097  26.881  12.140
30628W        W95789  42.654  41.547   2.596
30629W        W95790  20.079  19.337   4.987
30630W        W95791   5.917  42.504  11.197
30631W        W95792  40.690  17.749   0.903
30632W        W95793  13.532  38.329   1.364
30633W        W95794  25.224   9.096  14.817
30634W        W95795  17.039  27.546  12.457
30635W        W95796  28.399  22.651  12.434
30636W        W95797  33.102  21.373  11.553
30637W        W95798   9.208  37.429  11.198
30638W        W95799   9.703  24.631   2.843
30639W        W95800  17.562  26.889  14.917
30640W        W95801  33.629  24.053   5.154
30641W        W95802  10.281  33.221  13.455
30642W        W95803  22.181   8.463  10.710
30643W        W95804  41.831   5.310   3.805
30644W        W95805  10.898   1.171  11.598
30645W        W95806  29.694  11.926  12.057
30646W        W95807  39.550  15.231  13.564
30647W        W95808  19.603   1.450  11.110
30648W        W95809  38.015  24.769   3.287
30649W        W95810  41.851  19.073   3.240
30650W        W95811   5.148   6.763   0.774
30651W        W95812   1.143  22.895   3.654
30652W        W95813  23.113   9.839   2.724
30653W        W95814  15.798  27.982   0.832
30654W        W95815  25.550  35.446   0.784
30655W        W95816   3.247   5.030  14.130
30656W        W95817  25.448  42.833  14.742
30657W        W95818  41.311  39.318   4.099
30658W        W95819  44.158  41.906  10.687
30659W        W95820  14.936  34.487   0.911
30660W        W95821  42.398  30.389   0.726
30661W        W95822  35.458  14.902  11.120
30662W        W95823   5.776  16.241   1.942
30663W        W95824  23.075  44.055   0.283
30664W        W95825  40.016  15.740   0.560
30665W        W95826  28.102  23.419  12.416
30666W        W95827   2.854  42.100  14.594
30667W        W95828  42.385   2.677  13.021
30668W        W95829  15.621  34.542   0.407
30669W        W95830  21.574  44.485  10.664
30670W        W95831   3.155  25.912   0.280
30671W        W95832  16.641  15.376  13.440
30672W        W95833  18.608  33.980   2.186
30673W        W95834  37.865  11.143  13.941
30674W        W95835  26.448  11.889  10.707
30675W        W95836  17.071   8.921   0.229
30676W        W95837  24.709   3.814  11.527
30677W        W95838  10.440  27.909  14.400
30678W        W95839   2.483   3.335   3.263
30679W        W95840  42.412   1.245  13.137
30680W        W95841   3.826  44.880  14.497
30681W        W95842  44.004  29.441  14.589
30682W        W95843  38.047  41.560  13.860
30683W        W95844  23.595  11.680  12.766
30684W        W95845   0.871  11.375  11.119
30685W        W95846  21.225  12.609   2.929
30686W        W95847  32.614  20.031   0.493
30687W        W95848  38.445  18.990  13.997
30688W        W95849   4.376  44.203   3.090
30689W        W95850  29.437  32.549   1.196
30690W        W95851  27.915   3.717  13.396
30691W        W95852  44.056  38.446  11.818
30692W        W95853  24.025  37.892  11.902
30693W        W95854  35.892  15.018  13.112
30694W        W95855  39.059  23.192   1.873
30695W        W95856  16.205  12.689   2.906
30696W        W95857  36.866  40.809  14.457
30697W        W95858  12.641  26.083  10.706
30698W        W95859  36.972  37.791   4.492
30699W        W95860  38.022  35.527   3.773
30700W        W95861  34.996  10.200   3.387
30701W        W95862  22.319  41.416   1.313
30702W        W95863   0.026  25.149   1.629
30703W        W95864  42.943  24.134   1.989
30704W        W95865   9.056  40.102  12.391
30705W        W95866  23.912  12.644  11.424
30706W        W95867  31.154   1.857   1.214
30707W        W95868  43.852   8.990  13.226
30708W        W95869  10.595  37.526   4.187
30709W        W95870  18.762  33.457  12.001
30710W        W95871  31.799  27.204   4.688
30711W        W95872   0.405   7.308  10.614
30712W        W95873  29.732  43.154   0.874
30713W        W95874  41.807  32.149  13.290
30714W        W95875  38.975   9.860   2.429
30715W        W95876  32.356  40.869  12.716
30716W        W95877  43.842  22.584  12.305
30717W        W95878  16.522  18.151   4.109
30718W        W95879  30.952   4.561  11.323
30719W        W95880   9.891  32.947   1.790
30720W        W95881  13.528  44.510   3.633
30721W        W95882   3.326  36.359   5.229
30722W        W95883  14.804  19.574  10.554
30723W        W95884  21.763  41.549   4.164
30724W        W95885  20.268  13.742   1.046
30725W        W95886  14.217  12.750   2.969
30726W        W95887  19.555  27.188  11.534
30727W        W95888  41.696   9.693  13.914
30728W        W95889  21.650  10.262  14.285
30729W        W95890  38.974  41.057  13.720
30730W        W95891  44.067  35.493   4.631
30731W        W95892   8.917  25.423  11.370
30732W        W95893  41.460  23.611  14.340
30733W        W95894  17.733   5.212  10.600
30734W        W95895  14.913  44.978  14.085
30735W        W95896  14.889  26.052  13.825
30736W        W95897   9.395  27.571   1.834
30737W        W95898  17.137  36.961   0.583
30738W        W95899  24.413  35.910  11.098
30739W        W95900  20.061  31.083   0.764
30740W        W95901  23.969  43.037  12.467
30741W        W95902  28.173  14.710   0.560
30742W        W95903  16.982  15.701   0.667
30743W        W95904  18.478  18.315  14.754
30744W        W95905  11.628   3.326   2.307
30745W        W95906  28.206  42.948  10.232
30746W        W95907  24.422  28.086   4.562
30747W        W95908  44.507  41.929  13.791
30748W        W95909  19.254  15.622  12.172
30749W        W95910  24.451  11.843  13.504
30750W        W95911  30.991  35.970   2.627
30751W        W95912   5.741  18.288   1.186
30752W        W95913  10.247  12.262   2.280
30753W        W95914   3.376  37.354   2.231
30754W        W95915  28.328   1.248   1.795
30755W        W95916  19.008   8.312   0.942
30756W        W95917  26.445  21.649   0.531
30757W        W95918  39.459   3.781   0.515
30758W        W95919   3.329   1.199  12.988
30759W        W95920  19.734  28.878   0.107
30760W        W95921   7.744  14.616   2.316
30761W        W95922  19.100  19.326  10.206
30762W        W95923  22.246  24.714   4.047
30763W        W95924   1.257  42.519  12.647
30764W        W95925   1.777   3.861  14.808
30765W        W95926  20.808   1.066   4.634
30766W        W95927   0.308  23.206   1.964
30767W        W95928   8.682   0.713  10.711
30768W        W95929  21.103   4.784   2.228
30769W        W95930  25.452  16.591  14.826
30770W        W95931  16.197  12.258  13.985
30771W        W95932  44.050  13.760   2.854
30772W        W95933  23.661  26.179   2.054
30773W        W95934  28.839  32.265  11.574
30774W        W95935  32.504  41.097   0.376
30775W        W95936   5.492  44.060  10.726
30776W        W95937  11.640  19.780   4.032
30777W        W95938  13.848  18.246  13.465
30778W        W95939  17.188   7.214   2.248
30779W        W95940  42.089  19.929  12.097
30780W        W95941   4.760  25.019  13.175
30781W        W95942  37.734  43.271   3.353
30782W        W95943   8.071  14.387  11.461
30783W        W95944  17.124  24.120   3.623
30784W        W95945  23.887  34.418   2.762
30785W        W95946  26.007  18.705   1.240
30786W        W95947  27.647  28.708  10.707
30787W        W95948   7.400   8.855   3.678
30788W        W95949  19.736  44.540  11.277
30789W        W95950   1.063  10.845   0.425
30790W        W95951   7.848  12.671   1.850
30791W        W95952  11.171  19.789   4.280
30792W        W95953   6.847  15.150  11.620
30793W        W95954  12.270  29.603   1.290
30794W        W95955   3.668  10.731  11.639
30795W        W95956  10.508  34.949   2.330
30796W        W95957  10.708   3.472  14.418
30797W        W95958   2.789  38.550   4.273
30798W        W95959   2.511  32.040  10.010
30799W        W95960  43.300  25.678   0.977
30800W        W95961  29.472  21.704  11.098
30801W        W95962  44.751  10.967   0.640
30802W        W95963  29.146  27.369   1.418
30803W        W95964  41.746  36.264   4.115
30804W        W95965  17.232  40.855  11.598
30805W        W95966  26.189  17.930   4.782
30806W        W95967  39.143   9.406   1.785
30807W        W95968  27.163  31.372   3.174
30808W        W95969   1.232  25.533   1.416
30809W        W95970  32.557  44.960  10.965
30810W        W95971   1.696  35.328   0.358
30811W        W95972  26.067  34.337   0.385
30812W        W95973  26.028   1.184  14.000
30813W        W95974  14.082   9.928   1.307
30814W        W95975  39.221   5.104   4.185
30815W        W95976  32.598  26.526   2.657
30816W        W95977   4.797  11.898  10.111
30817W        W95978  12.794  24.515   2.663
30818W        W95979  17.148  37.116   1.957
30819W        W95980  36.430  11.239   3.722
30820W        W95981  14.563   8.779  12.333
30821W        W95982  14.799  27.655   2.277
30822W        W95983  24.216   8.263   2.078
30823W        W95984  31.179  37.551   0.872
30824W        W95985  24.062  14.863   3.974
30825W        W95986   4.504  37.694   3.725
30826W        W95987  13.403  26.399  11.233
30827W        W95988  11.113  24.180   3.876
30828W        W95989   2.730  26.648   4.007
30829W        W95990  31.179  27.122  11.599
30830W        W95991  24.469  14.591   3.791
30831W        W95992   8.468  30.010  12.413
30832W        W95993  15.736   3.748   2.298
30833W        W95994   6.496  18.075  10.163
30834W        W95995  26.913   1.913   2.822
30835W        W95996  25.677  36.052   4.035
30836W        W95997  18.301  12.619  14.850
30837W        W95998   8.342  42.336  11.611
30838W        W95999  41.201  29.096   4.059
30839W        W96000  29.054   2.291   2.862
30840W        W96001   9.635  17.553   4.567
30841W        W96002   8.850  10.651   3.163
30842W        W96003  12.260  40.520   0.699
30843W        W96004  35.659  38.073   3.642
30844W        W96005  14.623  25.182   3.631
30845W        W96006  28.882   3.439   0.396
30846W        W96007  40.914  23.015   4.293
30847W        W96008  36.693  13.205  11.495
30848W        W96009  31.774   6.330   1.823
30849W        W96010   4.252  12.724  13.905
30850W        W96011   8.649  15.082   2.201
30851W        W96012  29.099  37.571  10.933
30852W        W96013  34.740  43.530  13.079
30853W        W96014  15.642  28.064  13.875
30854W        W96015   0.866  16.151   1.710
30855W        W96016  15.027  15.112   1.328
30856W        W96017   9.866   5.364   0.703
30857W        W96018  43.051  10.688   1.445
30858W        W96019  39.070   5.923   1.473
30859W        W96020  13.103  13.095  12.974
30860W        W96021  38.535  39.173  11.141
30861W        W96022  18.633   6.283   1.667
30862W        W96023  21.170  39.032  10.103
30863W        W96024  32.633  28.220   1.861
30864W        W96025  26.911   1.779  11.135
30865W        W96026  22.085  14.137   2.205
30866W        W96027  37.774  35.756   2.344
30867W        W96028  30.967  26.939  14.384
30868W        W96029  20.730  30.214  13.715
30869W        W96030  42.080  14.646   1.260
30870W        W96031  18.112  24.020  11.208
30871W        W96032  39.605  36.652   0.886
30872W        W96033  32.874  35.486   0.414
30873W        W96034  41.170  25.987  11.657
30874W        W96035  26.945  25.759   3.760
30875W        W96036  34.174  28.004   4.291
30876W        W96037  40.852  33.869  14.734
30877W        W96038   7.890  23.069   2.849
30878W        W96039  44.923   0.302  12.816
30879W        W96040  17.987  29.592   4.676
30880W        W96041  22.063   5.299  11.521
30881W        W96042  18.959  12.279  12.432
30882W        W96043  34.913  25.983  11.914
30883W        W96044  42.276   5.893   2.747
30884W        W96045  43.310  10.140   0.929
30885W        W96046   0.385  23.801   4.160
30886W        W96047  13.671  18.535   4.312
30887W        W96048   5.351   7.221  11.106
30888W        W96049   1.461   0.796   0.749
30889W        W96050   0.823  43.485  13.952
30890W        W96051  30.558   2.972   0.104
30891W        W96052  21.953  17.793   0.505
30892W        W96053  30.299  33.214   1.893
30893W        W96054  39.058  19.471   0.530
30894W        W96055  13.169  29.457   3.171
30895W        W96056  31.122  25.105   4.336
30896W        W96057  38.533  25.893  13.347
30897W        W96058  24.250  19.196   4.985
30898W        W96059   5.207  33.930  11.048
30899W        W96060  20.257  44.064   2.784
30900W        W96061   6.950  18.870  14.275
30901W        W96062  16.739  38.811   5.403
30902W        W96063  19.460  25.900  11.216
30903W        W96064   1.460  34.052   1.188
30904W        W96065  29.294  11.711   5.044
30905W        W96066  24.939  16.192   1.133
30906W        W96067  44.460  24.985   4.662
30907W        W96068  14.254  15.569   2.707
30908W        W96069   3.022  11.866  10.022
30909W        W96070  36.218   9.845  12.260
30910W        W96071  13.297  44.457   1.275
30911W        W96072   9.741  24.087   4.654
30912W        W96073   0.357  27.130   4.491
30913W        W96074  26.560   9.667  13.541
30914W        W96075   1.957  21.092   1.216
30915W        W96076  29.712  13.569  11.542
30916W        W96077  25.583  40.328  10.611
30917W        W96078  38.181   6.280   1.232
30918W        W96079  20.815   6.223   2.386
30919W        W96080  24.589  19.500  13.946
30920W        W96081   6.092  15.291   0.552
30921W        W96082  21.597  14.574   1.358
30922W        W96083  35.345   4.170  13.855
30923W        W96084   1.756  19.959   0.361
30924W        W96085  23.756  41.457   2.787
30925W        W96086  15.852  25.058   1.875
30926W        W96087  31.996   3.811   1.017
30927W        W96088  43.020   2.719   4.637
30928W        W96089  44.463  13.368   5.035
30929W        W96090  12.147  13.654   1.294
30930W        W96091  29.072   3.504   3.634
30931W        W96092  24.678  16.081   4.610
30932W        W96093  15.100  28.959  11.548
30933W        W96094   6.043  13.359  14.454
30934W        W96095   7.686  34.023  13.055
30935W        W96096  24.042  38.146   9.744
30936W        W96097  20.876  15.255  13.362
30937W        W96098   0.167   2.927  11.456
30938W        W96099  19.812   2.493  13.973
30939W        W96100   6.540  34.487  12.854
30940W        W96101  29.022   0.053  13.851
30941W        W96102  44.444  34.071  14.333
30942W        W96103  22.137  32.410  11.310
30943W        W96104  37.629  32.363  14.723
30944W        W96105  29.924  38.287   3.804
30945W        W96106  27.695  29.548   3.836
30946W        W96107  12.160   9.371  13.948
30947W        W96108  22.312  13.237   0.296
30948W        W96109  31.069   3.682   3.244
30949W        W96110  39.030  26.467   2.326
30950W        W96111  10.381  24.389   1.930
30951W        W96112  31.642   2.340  12.421
30952W        W96113  29.648  25.375  11.883
30953W        W96114  25.830  12.672  10.358
30954W        W96115  24.899  27.141   1.495
30955W        W96116  24.560  42.942  10.441
30956W        W96117   3.213  43.321  11.161
30957W        W96118  20.514   4.289  12.120
30958W        W96119  15.597  11.200  11.163
30959W        W96120  23.987  24.974   4.167
30960W        W96121  13.837  29.367  14.881
30961W        W96122  42.838   7.118  11.641
30962W        W96123  12.562  19.392   2.610
30963W        W96124  35.293  32.980   1.788
30964W        W96125  17.567   1.871   3.391
30965W        W96126  41.405  12.906  14.262
30966W        W96127  34.085  22.807   5.026
30967W        W96128   0.906   3.773  13.775
30968W        W96129  34.159  14.211   2.529
30969W        W96130  25.561   0.456   0.348
30970W        W96131  17.799  25.144   4.737
30971W        W96132   0.911   6.375   0.298
30972W        W96133  39.544  33.108  10.397
30973W        W96134  27.768  26.840  10.086
30974W        W96135   6.846  15.396  13.431
30975W        W96136   5.373  31.902   4.205
30976W        W96137  31.398  39.405   9.665
30977W        W96138  21.225   8.331   2.559
30978W        W96139  28.829   4.371   0.291
30979W        W96140   0.891  33.462   2.598
30980W        W96141  42.315  28.998   0.369
30981W        W96142  13.129  22.875   5.120
30982W        W96143   1.174  41.787   0.296
30983W        W96144   0.922   1.954   3.812
30984W        W96145  29.870   6.968   4.040
30985W        W96146  30.234  18.297  14.290
30986W        W96147  20.686  22.610   2.764
30987W        W96148  29.442  18.215   1.289
30988W        W96149  33.003  20.322   4.173
30989W        W96150  29.913  32.416  14.501
30990W        W96151  27.562  20.917   2.830
30991W        W96152  43.610  18.932  11.171
30992W        W96153  15.322   7.050   4.618
30993W        W96154  42.017  22.012   0.023
30994W        W96155  23.504  23.250   0.341
30995W        W96156  19.880  41.267  12.225
30996W        W96157  40.530   6.261   3.436
30997W        W96158   8.493  40.363   0.915
30998W        W96159  34.949  32.610  11.113
30999W        W96160  29.005  29.359   3.142
31000W        W96161  39.906  35.420  12.124
31001W        W96162  38.383  25.462   2.697
31002W        W96163  27.228  33.591   2.329
31003W        W96164   9.771  29.036   1.791
31004W        W96165  35.458   2.647  10.652
31005W        W96166  10.145  10.657   4.427
31006W        W96167  38.996   6.429   1.386
31007W        W96168  43.499  35.565  14.841
31008W        W96169   2.724   4.011  13.372
31009W        W96170  25.268  42.420   2.654
31010W        W96171  30.556  19.964   0.779
31011W        W96172  44.882   7.789   1.057
31012W        W96173  21.158  43.801   1.925
31013W        W96174   4.247   4.899   4.283
31014W        W96175  22.276  40.941  13.947
31015W        W96176   3.899   8.443   3.197
31016W        W96177  34.331   8.247  12.709
31017W        W96178  33.180  29.679   4.206
31018W        W96179  39.590  21.096  13.748
31019W        W96180  42.220  11.241  11.586
31020W        W96181  27.056  41.925  12.785
31021W        W96182  15.693  36.456  12.443
31022W        W96183   5.878  27.448  13.475
31023W        W96184   1.820  40.937  11.265
31024W        W96185  26.804  21.696   5.045
31025W        W96186  15.706  29.211   4.103
31026W        W96187  44.267  36.985   1.788
31027W        W96188  40.380  27.578  14.874
31028W        W96189  17.116  41.899  13.600
31029W        W96190  43.869  13.691  10.533
31030W        W96191  39.412  36.314   4.518
31031W        W96192  16.120  41.914   1.845
31032W        W96193  14.189  31.378   3.406
31033W        W96194  18.992  19.220  12.368
31034W        W96195  29.919  24.139   0.928
31035W        W96196  21.051  10.573   1.297
31036W        W96197  44.126  25.711   3.704
31037W        W96198   1.291   2.335   1.439
31038W        W96199   0.406  37.864   4.917
31039W        W96200  28.993  25.672  12.425
31040W        W96201  33.832  34.421   2.228
31041W        W96202  35.382  13.884  11.314
31042W        W96203  13.781  20.425  13.058
31043W        W96204  32.154  40.954  13.166
31044W        W96205  27.041   3.052  14.516
31045W        W96206  42.303   9.212  11.536
31046W        W96207  19.577   7.660   2.183
31047W        W96208  30.247  22.540   2.716
31048W        W96209  44.463  37.353   0.485
31049W        W96210  20.161  37.959  10.932
31050W        W96211   7.748   6.774  14.264
31051W        W96212  34.411  19.094  14.653
31052W        W96213  10.538  29.806   1.426
31053W        W96214  27.921  12.304   4.496
31054W        W96215  28.644   0.548  13.089
31055W        W96216  34.612  34.311  12.737
31056W        W96217  16.352  30.504  10.671
31057W        W96218   8.727  17.217  12.580
31058W        W96219  28.749  10.319  14.275
31059W        W96220  35.159   0.272  11.646
31060W        W96221  17.306  13.041  13.241
31061W        W96222  34.838  25.661   3.955
31062W        W96223   5.072   2.546  13.589
31063W        W96224   6.571  21.244   0.462
31064W        W96225  37.636  13.716   1.983
31065W        W96226  13.275  38.999  11.937
31066W        W96227  42.624  27.845   0.709
31067W        W96228  20.107  13.989   4.562
31068W        W96229  43.823  10.871   3.350
31069W        W96230  13.631  38.197  10.840
31070W        W96231  18.151   8.838   1.466
31071W        W96232  21.097  42.530   2.831
31072W        W96233  12.290  39.883  11.026
31073W        W96234  24.325  41.139   0.398
31074W        W96235  38.221   2.953  11.803
31075W        W96236  17.240  13.108  13.747
31076W        W96237  11.864   4.574  11.073
31077W        W96238  21.600  10.504  13.854
31078W        W96239   3.880  19.009   4.015
31079W        W96240  29.643  39.026  13.596
31080W        W96241  31.453  41.688   1.370
31081W        W96242  31.014  18.227   3.293
31082W        W96243  30.132  16.397  14.313
31083W        W96244  33.584  19.792  10.279
31084W        W96245  44.927  19.842  12.125
31085W        W96246  39.797  29.583  10.666
31086W        W96247  37.716   6.906  14.327
31087W        W96248  18.422  16.585   3.060
31088W        W96249  40.802   0.116   0.378
31089W        W96250  38.844  42.979   2.149
31090W        W96251  29.062   7.388   2.333
31091W        W96252  26.561  31.643  13.039
31092W        W96253  13.441  34.431  11.212
31093W        W96254  30.583  28.163  14.455
31094W        W96255  27.490  24.473  14.871
31095W        W96256  22.913  41.325  12.087
31096W        W96257   2.800  11.770  13.575
31097W        W96258  30.362   5.832  12.865
31098W        W96259  28.144  16.538  11.770
31099W        W96260  42.401  30.713   1.700
31100W        W96261  24.055   0.822  11.636
31101W        W96262   5.394   0.764  14.625
31102W        W96263  22.025  43.555   2.871
31103W        W96264  31.388  38.591   1.923
31104W        W96265  26.724  41.139   0.779
31105W        W96266  10.084  21.161  11.176
31106W        W96267  18.622  19.138  10.287
31107W        W96268   7.888   5.884  14.884
31108W        W96269  29.948  25.383  14.397
31109W        W96270  37.332  33.190  11.191
31110W        W96271  39.228   5.119   1.218
31111W        W96272  34.972  28.970   1.887
31112W        W96273  13.169  16.321  14.839
31113W        W96274  27.219   7.764  13.346
31114W        W96275  37.425   8.293   3.343
31115W        W96276  28.985  19.589  10.676
31116W        W96277  15.821  18.031  12.364
31117W        W96278  41.409  43.592  13.831
31118W        W96279  30.808  28.532  14.074
31119W        W96280  19.514  35.892   4.507
31120W        W96281  35.444  39.385  11.417
31121W        W96282   1.258  38.370   0.393
31122W        W96283  18.698  36.530  14.007
31123W        W96284  31.903  26.624  11.591
31124W        W96285  13.861   6.224   0.824
31125W        W96286  18.106  28.313   1.785
31126W        W96287  33.517  16.787   1.927
31127W        W96288  11.490  25.208   2.089
31128W        W96289  24.595  42.297  13.445
31129W        W96290  42.376   3.082  14.956
31130W        W96291  16.138  18.939  12.392
31131W        W96292  26.278   9.813   4.482
31132W        W96293  19.637  28.083   2.952
31133W        W96294   0.016   2.403  11.080
31134W        W96295   8.558  21.848  13.819
31135W        W96296  37.542  23.116   3.708
31136W        W96297  37.801  37.404  13.321
31137W        W96298  26.087  22.253  10.684
31138W        W96299  43.938  34.600   5.502
31139W        W96300  40.863  39.105   4.313
31140W        W96301  22.685  35.463   5.002
31141W        W96302  33.097   5.159  12.907
31142W        W96303  11.345  18.721  12.070
31143W        W96304  21.726  11.855  12.581
31144W        W96305  39.948   2.190   2.366
31145W        W96306  42.803   0.427  11.552
31146W        W96307   3.370  29.275   4.651
31147W        W96308  19.981  44.149  14.339
31148W        W96309  15.757   8.515   2.425
31149W        W96310  31.823  42.223  14.520
31150W        W96311  43.914  10.282   1.259
31151W        W96312  25.568  34.545   0.763
31152W        W96313   1.806  10.871  11.060
31153W        W96314  38.578  43.695   3.305
31154W        W96315  19.150  24.189  12.173
31155W        W96316  22.695   7.221  11.716
31156W        W96317  32.509  26.428  13.837
31157W        W96318  13.600  23.198  13.457
31158W        W96319  22.497   0.528   1.017
31159W        W96320  14.156  15.414   4.651
31160W        W96321  22.292  39.529  13.661
31161W        W96322  37.324  19.150  11.486
31162W        W96323   4.347  29.756  11.003
31163W        W96324   8.306  43.263   3.811
31164W        W96325  11.224  36.903  11.141
31165W        W96326   7.993  41.454   1.698
31166W        W96327  35.409  33.291   3.615
31167W        W96328  16.726  10.422   2.754
31168W        W96329   5.696  38.579   2.852
31169W        W96330  28.084  41.807   3.711
31170W        W96331   1.055  23.596  13.307
31171W        W96332  27.550  28.515  14.297
31172W        W96333  34.427  19.691   2.307
31173W        W96334  31.946  18.704  14.805
31174W        W96335  25.642  28.839  10.637
31175W        W96336   4.000  22.321   3.243
31176W        W96337   8.624  42.594   1.970
31177W        W96338  38.662  32.967  11.170
31178W        W96339  35.408  16.669  11.189
31179W        W96340  28.223   9.598  10.691
31180W        W96341  44.301  14.633  10.650
31181W        W96342  35.467  27.658  14.309
31182W        W96343   4.890  11.629  12.071
31183W        W96344  21.592  42.657   2.815
31184W        W96345  24.660  15.238  14.656
31185W        W96346   2.759  28.445  12.383
31186W        W96347   1.495  14.662   1.163
31187W        W96348  34.973  39.754   2.753
31188W        W96349  13.273  13.001   1.346
31189W        W96350  23.548   8.264   4.743
31190W        W96351  18.733  10.007   1.418
31191W        W96352   3.946  35.177  10.697
31192W        W96353  19.147   3.887   4.851
31193W        W96354  25.783   5.268   4.073
31194W        W96355  13.670  21.005   4.568
31195W        W96356   4.751  24.445   0.149
31196W        W96357  27.074  21.113  11.873
31197W        W96358   8.255  41.509  12.109
31198W        W96359  29.330  25.569  14.842
31199W        W96360  32.664  36.955  14.322
31200W        W96361   3.723   8.953   1.906
31201W        W96362  43.751  31.095  14.045
31202W        W96363  22.180   3.666  10.848
31203W        W96364  13.160  18.712   4.410
31204W        W96365   6.741  14.743   1.182
31205W        W96366  42.327  40.510   0.839
31206W        W96367   9.826  16.124   2.899
31207W        W96368  29.443  34.788   4.842
31208W        W96369  21.678  44.433   2.846
31209W        W96370  13.852  35.376  14.460
31210W        W96371  17.160  28.121  10.653
31211W        W96372  21.892  38.502  13.459
31212W        W96373  42.728  26.088  14.778
31213W        W96374   8.717  35.648   3.297
31214W        W96375   6.765   2.000   4.217
31215W        W96376  36.974  13.643  12.054
31216W        W96377   2.714  24.278  14.390
31217W        W96378   4.655  38.020   0.398
31218W        W96379   0.486  27.620   0.918
31219W        W96380  19.765   5.734   4.418
31220W        W96381  43.625   4.471  12.986
31221W        W96382  40.695   4.110   0.870
31222W        W96383  21.599  27.060  12.015
31223W        W96384  36.485  25.516   4.319
31224W        W96385   1.199  29.528  13.360
31225W        W96386  32.687  34.344  10.522
31226W        W96387   4.634  44.211  14.449
31227W        W96388   9.361  19.486  13.286
31228W        W96389  33.927  19.359  11.192
31229W        W96390  27.656   0.747   3.144
31230W        W96391  19.598   1.052   4.939
31231W        W96392  34.528  24.094  11.852
31232W        W96393  11.118   7.785   1.776
31233W        W96394  25.052  30.925   3.363
31234W        W96395  33.353  24.249   2.441
31235W        W96396  32.756  32.410  13.378
31236W        W96397  23.580  30.956   2.282
31237W        W96398  26.388  40.436   0.093
31238W        W96399  22.778  33.061  10.303
31239W        W96400  13.753   8.328   1.276
31240W        W96401  14.808  15.988   4.012
31241W        W96402  19.770  16.575  14.516
31242W        W96403  19.794  25.898   1.651
31243W        W96404  33.309  42.946  10.611
31244W        W96405  36.070  28.484  14.904
31245W        W96406  17.768  25.562   4.383
31246W        W96407  26.386  11.141   2.047
31247W        W96408  20.281  42.526   5.400
31248W        W96409  15.059  40.572   1.307
31249W        W96410  41.211  23.996   1.197
31250W        W96411   0.632   4.346  11.955
31251W        W96412   8.756   6.500   0.462
31252W        W96413  44.869  33.055   1.254
31253W        W96414  32.669  29.079   2.113
31254W        W96415  24.985  43.993   3.568
31255W        W96416   6.244  31.920  11.611
31256W        W96417  22.825  19.771  11.580
31257W        W96418  22.265  15.030   3.226
31258W        W96419  20.505  26.302   4.425
31259W        W96420  35.930  15.374   2.562
31260W        W96421  33.801  20.643  11.614
31261W        W96422  25.075  30.173  10.613
31262W        W96423  12.050  16.186  14.474
31263W        W96424  42.908  41.399   0.439
31264W        W96425  11.582  34.517  12.132
31265W        W96426  10.290  29.371   9.942
31266W        W96427   0.880  17.404  14.424
31267W        W96428  29.150  17.402  13.961
31268W        W96429  15.776   6.776   1.619
31269W        W96430  26.588  18.320   2.259
31270W        W96431  37.892  26.877  10.430
31271W        W96432  44.440   0.076   4.586
31272W        W96433  42.015  34.249   2.889
31273W        W96434   9.030  28.975   0.806
31274W        W96435  28.952  41.992  14.246
31275W        W96436   0.816  42.577  11.458
31276W        W96437  41.529  17.589   2.188
31277W        W96438  10.599  42.895   4.022
31278W        W96439  38.017  35.791  13.521
31279W        W96440  26.147  33.038  14.805
31280W        W96441  40.856   7.206   2.079
31281W        W96442  44.761  38.634   2.280
31282W        W96443  12.202   0.365   2.286
31283W        W96444  35.581   8.479  13.427
31284W        W96445  10.662   2.487  14.287
31285W        W96446  44.832  33.725   3.124
31286W        W96447  44.882  18.179   0.120
31287W        W96448   4.311  33.102  12.440
31288W        W96449   6.734  10.343   3.131
31289W        W96450  44.445  42.297  11.096
31290W        W96451  42.053  12.784   1.955
31291W        W96452  22.934  13.403   4.110
31292W        W96453  23.602  29.200  13.059
31293W        W96454  28.092  36.721  11.141
31294W        W96455  31.402  32.973  10.769
31295W        W96456  31.186  44.836  11.518
31296W        W96457  25.033  16.053  10.198
31297W        W96458  23.131  42.126   1.132
31298W        W96459   2.250  11.784  12.895
31299W        W96460  19.074   9.558  11.211
31300W        W96461  30.624  15.711  12.604
31301W        W96462  14.834   0.994  12.038
31302W        W96463  33.791  33.662  11.027
31303W        W96464   6.949  29.641   9.838
31304W        W96465  42.017  19.818   0.282
31305W        W96466  12.244  37.744  12.449
31306W        W96467  39.581  20.830  13.261
31307W        W96468   7.250  34.952  11.904
31308W        W96469  24.154  41.007  12.639
31309W        W96470  34.345  22.557   3.191
31310W        W96471  39.866  10.355  12.012
31311W        W96472  33.499  15.209  13.578
31312W        W96473  23.181  42.834  13.018
31313W        W96474  39.461  42.976   1.389
31314W        W96475  12.197  38.121   1.923
31315W        W96476  13.305  43.818   0.567
31316W        W96477   0.202  20.227   2.797
31317W        W96478   5.430  21.214  12.012
31318W        W96479  25.294  30.597   2.412
31319W        W96480   4.245  40.455  13.208
31320W        W96481  25.565   7.193  13.758
31321W        W96482  21.606  32.397   3.484
31322W        W96483  10.408  29.077  10.383
31323W        W96484  33.079  14.665  12.118
31324W        W96485  14.881  35.328   0.979
31325W        W96486  20.040  23.645   5.356
31326W        W96487  40.083  21.026  13.931
31327W        W96488   4.734  44.653   3.571
31328W        W96489  15.221  27.139   2.276
31329W        W96490  19.212  12.662  14.892
31330W        W96491  21.267  22.213   2.194
31331W        W96492  37.002  43.517   2.241
31332W        W96493  30.183  25.218   4.147
31333W        W96494  38.081   7.719   2.850
31334W        W96495  31.498   5.680   1.002
31335W        W96496  14.889  16.215   5.032
31336W        W96497  14.826  26.541   0.259
31337W        W96498  33.130  14.298  12.783
31338W        W96499   0.417  26.119   4.677
31339W        W96500   4.668   6.799  14.842
31340W        W96501  41.025  11.430   1.293
31341W        W96502  25.161  23.929   3.129
31342W        W96503  43.725  26.137  11.295
31343W        W96504  13.010   8.997   3.854
31344W        W96505  35.289   0.052  11.202
31345W        W96506  13.054  36.454   4.857
31346W        W96507  23.235  22.878  12.143
31347W        W96508  30.473  40.984   0.342
31348W        W96509  25.580  35.996  12.976
31349W        W96510  21.714  23.022  12.715
31350W        W96511  12.507  41.534  12.638
31351W        W96512  34.887   0.396   1.993
31352W        W96513  15.015   1.404  13.512
31353W        W96514  13.384  14.082  12.935
31354W        W96515  37.767  40.645   3.311
31355W        W96516  44.464  23.750   2.296
31356W        W96517  11.729  14.367   4.611
31357W        W96518  19.828  26.625  12.576
31358W        W96519  31.108  18.520  10.261
31359W        W96520  15.677  39.344  14.796
31360W        W96521  31.824  33.171  10.996
31361W        W96522   8.147  19.314  10.731
31362W        W96523  28.310  44.146   1.257
31363W        W96524   3.365   9.332  10.838
31364W        W96525  44.390  22.610  12.165
31365W        W96526  30.068  19.459  10.193
31366W        W96527  40.336   2.682  13.441
31367W        W96528  17.237  20.976   3.369
31368W        W96529   5.739  32.384  10.794
31369W        W96530  36.268  36.208   3.282
31370W        W96531  40.122  12.786   3.622
31371W        W96532  19.462  42.953  12.982
31372W        W96533   3.414   3.780   0.892
31373W        W96534  24.751   2.393  13.094
31374W        W96535  35.632  12.604  14.866
31375W        W96536  32.112  25.741  11.677
31376W        W96537  41.487  21.929  14.254
31377W        W96538  26.204  43.497  14.950
31378W        W96539  31.910   8.667   2.953
31379W        W96540  24.682   2.715  11.911
31380W        W96541  32.161  21.116   1.327
31381W        W96542  11.131   5.394   1.889
31382W        W96543   3.427  32.486   4.159
31383W        W96544  37.839  36.771   1.005
31384W        W96545   2.167  11.829  14.833
31385W        W96546   4.831  23.682  10.795
31386W        W96547  32.546  10.596   3.623
31387W        W96548  41.954   1.694  10.358
31388W        W96549  16.532  35.118  10.964
31389W        W96550  11.293  21.711   2.460
31390W        W96551  16.651   6.426   2.144
31391W        W96552  38.701  15.549   2.011
31392W        W96553  26.665  23.650   9.778
31393W        W96554  39.438  17.652  12.050
31394W        W96555  18.497   3.427   1.680
31395W        W96556  21.783  14.521  13.019
31396W        W96557  40.533  32.060  12.394
31397W        W96558   3.002  16.570   1.838
31398W        W96559   6.402  22.293  12.393
31399W        W96560  15.614  24.606  14.397
31400W        W96561  13.690  35.843   1.951
31401W        W96562  43.341  36.809  13.153
31402W        W96563  44.794   6.443  10.573
31403W        W96564  28.463   2.284  11.680
31404W        W96565  30.768  31.424   1.840
31405W        W96566  32.967   5.247   0.937
31406W        W96567  42.150  39.692  10.156
31407W        W96568  22.488  24.886  14.334
31408W        W96569  17.214   5.122  13.698
31409W        W96570  39.907  11.518  12.735
31410W        W96571  12.905  14.202   3.726
31411W        W96572  20.355  38.580   1.428
31412W        W96573  27.633  38.802   0.949
31413W        W96574   2.680  22.717   4.721
31414W        W96575  36.579   8.966  10.445
31415W        W96576  10.785  10.459   1.277
31416W        W96577  29.898  42.937   4.037
31417W        W96578  34.936   4.922   1.274
31418W        W96579   1.787   0.438  13.072
31419W        W96580  34.610  27.417  13.768
31420W        W96581  16.845  23.884   0.232
31421W        W96582  22.501  39.685  14.638
31422W        W96583  31.261  36.843   0.375
31423W        W96584  35.274  25.452   0.261
31424W        W96585   3.333  30.345   2.697
31425W        W96586  21.446  13.165  10.538
31426W        W96587  31.890   5.909   3.216
31427W        W96588   8.273  39.132   4.058
31428W        W96589  43.453  44.774  13.925
31429W        W96590  32.445  22.817   3.003
31430W        W96591  32.608  23.083  14.753
31431W        W96592  42.822  12.253  11.991
31432W        W96593  44.185  11.708  11.951
31433W        W96594   1.509  29.406  12.011
31434W        W96595  38.405  41.041   2.851
31435W        W96596  40.336   5.711  14.058
31436W        W96597  38.548  21.081  14.297
31437W        W96598  34.352  17.523   1.905
31438W        W96599  28.896  29.360   4.880
31439W        W96600  27.682  26.950  14.039
31440W        W96601  19.197  15.795  11.166
31441W        W96602   5.670  32.966   2.625
31442W        W96603   3.009  15.866   0.558
31443W        W96604  44.243  36.133  12.685
31444W        W96605  29.946   1.741   2.879
31445W        W96606  35.940  18.419   0.265
31446W        W96607  21.125  17.047   3.702
31447W        W96608  38.156  15.031   0.169
31448W        W96609  23.750  32.617   2.312
31449W        W96610   2.908  19.226   0.474
31450W        W96611   3.435  33.991   0.301
31451W        W96612  17.231  26.103  12.032
31452W        W96613  14.340  31.499  12.019
31453W        W96614   4.822  40.152  11.473
31454W        W96615  22.286  37.974   4.598
31455W        W96616   6.731   2.201   3.749
31456W        W96617   0.250  17.815   0.013
31457W        W96618   3.687  31.554   3.027
31458W        W96619   8.716  26.689   1.443
31459W        W96620  38.404  39.819  13.328
31460W        W96621  11.638  10.060  13.591
31461W        W96622   3.644  35.971   5.015
31462W        W96623   8.852  27.172   3.287
31463W        W96624  34.943  13.661  14.114
31464W        W96625  22.793   5.041   2.342
31465W        W96626   8.876  42.461   4.437
31466W        W96627  13.453  11.792  10.864
31467W        W96628  28.063  17.903  11.935
31468W        W96629  29.002  34.051   4.570
31469W        W96630   2.777   3.096  11.642
31470W        W96631   7.958  21.980  10.770
31471W        W96632  16.390  21.791  12.466
31472W        W96633  33.822  19.742   3.280
31473W        W96634  41.966  15.460  14.851
31474W        W96635  13.285   4.543   1.919
31475W        W96636  10.266  29.434  11.837
31476W        W96637  22.673   3.261   3.193
31477W        W96638  38.085  22.266   2.102
31478W        W96639  31.474   2.244  13.751
31479W        W96640  44.986  19.417  11.152
31480W        W96641  16.236  28.148   4.658
31481W        W96642  26.621  21.513   3.652
31482W        W96643  28.547  35.411   4.350
31483W        W96644  42.565  41.966   1.164
31484W        W96645  38.965  27.730   2.674
31485W        W96646   5.576  38.445   4.344
31486W        W96647  27.608  10.393  10.234
31487W        W96648  40.637  29.851   2.600
31488W        W96649  21.707  15.498   0.376
31489W        W96650   2.767  29.251   2.355
31490W        W96651  44.001   8.416  12.511
31491W        W96652  29.450  41.711   4.975
31492W        W96653  44.517  38.137  10.719
31493W        W96654  10.625  21.333   0.447
31494W        W96655  37.353   8.340  12.802
31495W        W96656  32.890  40.982  14.621
31496W        W96657   4.129   8.144  11.121
31497W        W96658  17.060  27.612   3.382
31498W        W96659  36.394  40.913   4.435
31499W        W96660   7.766   6.122  12.246
31500W        W96661   6.183  21.575   1.262
31501W        W96662   7.943  32.700  12.451
31502W        W96663  16.187  29.934  13.551
31503W        W96664  36.213  16.030  11.203
31504W        W96665  34.965  16.098  11.672
31505W        W96666  13.082  38.646   4.001
31506W        W96667  44.234  42.861  13.561
31507W        W96668  18.638   1.495   4.203
31508W        W96669  26.966  35.182   4.215
31509W        W96670  34.972   3.674   4.533
31510W        W96671  10.462  18.954  12.068
31511W        W96672  23.496  23.676   4.076
31512W        W96673  12.372  10.198   3.571
31513W        W96674   6.374  38.631   2.332
31514W        W96675  42.839  38.499   2.286
31515W        W96676   6.911  25.108  11.994
31516W        W96677  39.473  12.338   3.239
31517W        W96678  11.322  20.590  11.127
31518W        W96679  29.048  35.655  14.430
31519W        W96680   5.886  36.508   0.083
31520W        W96681  35.599  22.006  14.734
31521W        W96682  34.860  36.207  12.886
31522W        W96683  24.824  26.551  12.571
31523W        W96684  44.951  14.620   4.556
31524W        W96685   6.610  14.638  13.093
31525W        W96686   5.900  24.113  13.167
31526W        W96687  42.404  12.048  11.587
31527W        W96688  24.803  43.723   2.231
31528W        W96689   9.315  20.284  14.880
31529W        W96690  16.180   9.146   1.026
31530W        W96691  34.838   9.457  10.436
31531W        W96692   6.859  10.988   0.362
31532W        W96693  17.659   4.372   3.840
31533W        W96694  33.921  13.850   2.283
31534W        W96695  12.895  18.506  13.438
31535W        W96696  37.299  33.065  12.531
31536W        W96697   3.308  41.731   2.169
31537W        W96698  21.969  38.040  11.103
31538W        W96699  35.285  41.982   2.257
31539W        W96700  42.031  28.181  10.593
31540W        W96701  31.562  11.163  14.561
31541W        W96702  12.792  31.180  11.413
31542W        W96703  10.162  34.881  14.387
31543W        W96704  12.322  28.979  11.134
31544W        W96705  20.736   9.060  12.843
31545W        W96706   3.771  22.842   0.887
31546W        W96707  35.424  11.877  12.642
31547W        W96708  16.573   0.897  11.531
31548W        W96709   7.013  27.494   4.414
31549W        W96710  39.570  43.269   0.143
31550W        W96711  13.580  41.403   2.418
31551W        W96712  16.206  22.842  10.358
31552W        W96713  40.411  14.199  13.732
31553W        W96714  42.815  38.187   4.562
31554W        W96715  20.383  43.977   9.879
31555W        W96716  22.108  42.870   0.896
31556W        W96717  10.921  39.847  12.150
31557W        W96718   1.449  11.805   3.655
31558W        W96719   7.559   9.870   2.116
31559W        W96720   9.331   1.662   3.682
31560W        W96721  18.274  26.483   1.834
31561W        W96722  33.633  37.011   1.834
31562W        W96723  32.121  23.191  14.520
31563W        W96724  37.519  15.128   1.617
31564W        W96725   7.229  10.287  11.500
31565W        W96726  44.768  26.394  13.095
31566W        W96727  20.758   8.938   3.276
31567W        W96728  38.561  14.098  13.019
31568W        W96729  11.598  27.945   1.223
31569W        W96730   2.371  32.076  12.101
31570W        W96731  41.542  13.382   4.571
31571W        W96732  41.549   3.036   2.736
31572W        W96733  13.648  11.973  13.473
31573W        W96734   0.722  37.362  11.017
31574W        W96735   2.415  20.219  11.946
31575W        W96736  18.271  11.412   1.353
31576W        W96737   6.190  33.307  11.585
31577W        W96738   5.331   9.908  12.364
31578W        W96739  28.075  10.679   4.256
31579W        W96740  27.177   4.943   2.815
31580W        W96741  33.459   7.837   4.573
31581W        W96742  17.837   2.365   4.130
31582W        W96743  21.325  28.015   0.738
31583W        W96744   0.333  21.115  13.941
31584W        W96745  26.532   2.487   3.235
31585W        W96746  27.459   3.679  12.455
31586W        W96747   5.354   8.396  14.275
31587W        W96748  13.115  32.622  11.437
31588W        W96749  11.446  16.199   3.647
31589W        W96750  40.860  13.208  14.435
31590W        W96751  22.275   9.896  13.080
31591W        W96752  32.820  14.490   1.230
31592W        W96753   2.143  35.567   0.397
31593W        W96754  36.340   6.868   2.735
31594W        W96755  27.188  39.362  12.924
31595W        W96756  28.045  29.514  10.976
31596W        W96757  21.428   9.835  14.421
31597W        W96758  19.797  11.873   1.296
31598W        W96759   7.185  43.463   0.332
31599W        W96760  39.094  16.014   5.040
31600W        W96761   4.296  23.669   4.962
31601W        W96762  23.004  29.203   2.863
31602W        W96763  28.807   2.191  14.398
31603W        W96764  26.240  20.789   3.857
31604W        W96765  41.350  20.991  14.398
31605W        W96766  33.396   8.605   2.717
31606W        W96767  22.164  37.088  14.574
31607W        W96768  24.483   0.957  11.878
31608W        W96769  31.391   2.213   2.466
31609W        W96770  32.951  44.423   3.655
31610W        W96771  13.211  43.563  14.816
31611W        W96772  27.187   6.319   0.593
31612W        W96773  22.636  40.646   5.611
31613W        W96774  41.986  11.308   2.326
31614W        W96775  37.104  18.569   4.190
31615W        W96776  42.375  44.866   2.348
31616W        W96777  35.974   5.942   1.384
31617W        W96778   6.533  40.344  13.506
31618W        W96779  35.919  10.284   3.348
31619W        W96780  44.035  28.941  12.025
31620W        W96781  31.165  42.125   2.898
31621W        W96782   8.017  10.931  14.476
31622W        W96783  36.851   2.758   1.482
31623W        W96784   1.637   1.408  12.972
31624W        W96785  29.129  32.870  13.908
31625W        W96786   1.208  17.636   2.846
31626W        W96787  35.461  23.070  12.681
31627W        W96788  10.030  17.083  12.216
31628W        W96789  42.030  35.433   2.174
31629W        W96790  36.126  20.598  14.224
31630W        W96791   3.482   0.957   0.954
31631W        W96792  27.019   6.952  11.642
31632W        W96793   0.761  10.247  10.588
31633W        W96794   3.168  15.818  10.057
31634W        W96795  30.666  26.136   0.673
31635W        W96796   8.980  10.958   0.739
31636W        W96797  27.609  18.246  12.516
31637W        W96798  23.325  44.329  11.212
31638W        W96799  35.065  13.217   0.470
31639W        W96800  39.582  14.960   1.455
31640W        W96801  11.281  29.748  14.878
31641W        W96802  20.095   0.923  13.028
31642W        W96803   6.749  12.120  12.906
31643W        W96804  25.476  36.359   9.857
31644W        W96805  41.137   6.345   3.559
31645W        W96806  42.215  12.129  14.390
31646W        W96807  14.244   8.099  12.571
31647W        W96808  33.614   8.672   3.171
31648W        W96809  31.629  13.327   0.241
31649W        W96810  39.142  12.748  14.248
31650W        W96811  20.115  43.572   4.039
31651W        W96812  36.017  21.266  11.432
31652W        W96813  21.678   8.801  12.131
31653W        W96814  32.559  16.650   1.875
31654W        W96815   7.472  18.785   1.829
31655W        W96816  36.067  24.674   2.135
31656W        W96817  37.883  24.584  14.348
31657W        W96818   7.315  26.299   3.364
31658W        W96819   2.216   8.661   2.617
31659W        W96820  16.919  13.943   1.732
31660W        W96821  25.485  42.172   1.721
31661W        W96822  23.695  33.866   0.451
31662W        W96823  41.230  21.778  12.262
31663W        W96824   2.792  16.107   2.644
31664W        W96825  44.981  35.415  11.116
31665W        W96826  24.830   0.437  11.219
31666W        W96827  39.898  18.904  12.968
31667W        W96828  21.672  32.978   1.747
31668W        W96829   9.719  43.289  13.881
31669W        W96830  25.487  33.712  11.238
31670W        W96831  23.253  42.442  13.494
31671W        W96832  32.704  34.827  12.744
31672W        W96833  44.587  25.720   4.171
31673W        W96834   2.233  20.356   4.531
31674W        W96835  19.589   6.315   0.022
31675W        W96836  43.799  12.812   2.280
31676W        W96837  44.006  29.688  11.576
31677W        W96838  34.508   3.012  13.838
31678W        W96839   3.189  31.555  13.819
31679W        W96840  28.412  42.716  11.422
31680W        W96841  28.592  39.643   4.964
31681W        W96842  10.848  24.347   3.243
31682W        W96843  40.667  29.160   1.816
31683W        W96844  41.472   8.804  10.716
31684W        W96845   5.074  15.595   1.180
31685W        W96846  27.187   4.833  14.796
31686W        W96847   9.189  40.320   1.948
31687W        W96848  42.461  35.493   5.044
31688W        W96849  42.953  35.430  11.540
31689W        W96850  19.881   3.086  10.498
31690W        W96851  20.466  26.451  11.451
31691W        W96852  38.002  33.430  13.264
31692W        W96853  39.165  12.396  14.644
31693W        W96854  32.766  41.429  13.845
31694W        W96855  18.039   0.580   3.931
31695W        W96856   8.766  39.817  13.776
31696W        W96857  34.037   9.282  10.704
31697W        W96858   9.138  38.536   4.875
31698W        W96859  36.874  42.143   3.179
31699W        W96860  19.429  17.313   3.123
31700W        W96861   3.996   3.694   3.308
31701W        W96862  24.783   2.235   2.254
31702W        W96863   1.594  17.281   2.250
31703W        W96864   5.702   8.328  11.090
31704W        W96865  26.558  37.989   1.455
31705W        W96866   6.717  18.679  14.736
31706W        W96867  22.001  21.609   2.001
31707W        W96868  10.482  32.271   1.482
31708W        W96869  24.503  36.534   4.580
31709W        W96870  10.861  33.851  13.501
31710W        W96871  23.015  27.419   1.105
31711W        W96872  14.194  10.778   0.253
31712W        W96873  35.388  17.922   3.993
31713W        W96874  33.361  41.731   1.430
31714W        W96875  36.100  34.414   4.653
31715W        W96876  33.604  17.237  12.012
31716W        W96877  38.861  17.034  12.473
31717W        W96878  36.234  14.876   1.645
31718W        W96879  25.812  37.871   1.854
31719W        W96880  21.050  20.726   2.356
31720W        W96881   2.677  12.105  10.765
31721W        W96882  38.009   2.249  13.844
31722W        W96883  32.966  21.017  11.183
31723W        W96884  26.420  23.455   1.955
31724W        W96885  32.129   9.526  11.331
31725W        W96886  41.145  34.428  11.443
31726W        W96887  33.183   7.369   1.914
31727W        W96888   7.348  11.187   0.387
31728W        W96889  40.801   9.566  12.145
31729W        W96890  20.689  19.910   2.065
31730W        W96891  25.669   8.950  13.333
31731W        W96892  37.029  25.185   4.150
31732W        W96893  29.051  14.846   0.416
31733W        W96894  28.524   7.148  10.635
31734W        W96895  27.075   5.169   0.466
31735W        W96896  17.637   1.397  10.963
31736W        W96897  32.083  25.717   2.758
31737W        W96898  14.715  26.082  11.561
31738W        W96899  22.987  16.716   2.297
31739W        W96900   0.893  12.667   2.163
31740W        W96901  41.923   3.975  10.468
31741W        W96902   7.781  24.732   2.248
31742W        W96903  27.042   0.969  13.097
31743W        W96904  29.727  19.966  13.374
31744W        W96905  44.008  25.036   1.659
31745W        W96906  28.123  25.483   4.280
31746W        W96907  39.412  25.036  11.632
31747W        W96908  36.055  19.819  12.495
31748W        W96909   3.709  33.901  13.033
31749W        W96910  27.941  15.049  14.856
31750W        W96911   4.423  38.909   4.610
31751W        W96912  39.987   1.339  10.975
31752W        W96913  15.783   1.727   3.008
31753W        W96914  38.367  38.718  14.742
31754W        W96915  41.018  16.751  13.923
31755W        W96916  26.739  15.813   2.255
31756W        W96917  21.611  15.710   3.562
31757W        W96918  39.737  17.786  11.071
31758W        W96919  14.832   1.912   0.376
31759W        W96920   8.648  19.243  14.432
31760W        W96921  34.555  37.489  14.598
31761W        W96922  41.246  40.313   4.104
31762W        W96923  16.836  14.198   2.166
31763W        W96924  12.167  26.181   4.486
31764W        W96925   4.788  34.966   2.623
31765W        W96926   2.879  18.307  14.024
31766W        W96927  43.979   8.940  14.517
31767W        W96928  24.739   2.208  10.673
31768W        W96929  21.924   4.911  13.019
31769W        W96930  12.315   7.783  14.846
31770W        W96931  18.753   0.225  14.584
31771W        W96932  12.144   6.900   3.075
31772W        W96933  31.309   0.974  10.744
31773W        W96934  43.447  19.600  13.802
31774W        W96935  29.718  31.525  12.496
31775W        W96936   1.841  36.927   4.444
31776W        W96937  32.558  21.697  12.137
31777W        W96938  27.739  33.115   1.243
31778W        W96939  25.305  25.090   0.240
31779W        W96940  24.515  12.787   1.728
31780W        W96941   7.956  14.775   2.752
31781W        W96942  40.416  29.065  10.256
31782W        W96943  42.526   3.416  14.117
31783W        W96944   8.363  43.785   3.054
31784W        W96945  27.724   3.820  14.762
31785W        W96946  40.624   0.885   4.594
31786W        W96947  15.629  26.593  14.881
31787W        W96948  36.262  28.129   0.800
31788W        W96949  44.720   0.427  11.037
31789W        W96950  36.428  10.820  11.158
31790W        W96951   0.310   9.988   2.172
31791W        W96952   3.882  25.460  11.193
31792W        W96953   0.657  20.441   1.811
31793W        W96954  30.502   0.468  13.075
31794W        W96955  30.376  19.041   1.020
31795W        W96956  27.214   6.012  13.357
31796W        W96957  11.933   9.080  13.577
31797W        W96958  23.689   1.397  12.558
31798W        W96959  44.293  10.740  10.658
31799W        W96960  15.689  16.539  13.307
31800W        W96961   2.350  19.143  12.860
31801W        W96962   8.440  26.913  10.299
31802W        W96963   7.304  19.793   2.156
31803W        W96964  16.611   2.237  11.097
31804W        W96965   4.850  11.354   0.408
31805W        W96966  26.713  44.046  13.781
31806W        W96967  36.402   8.279  13.524
31807W        W96968  27.592   9.183  14.217
31808W        W96969  19.955  16.780   2.332
31809W        W96970   7.370  21.732   4.046
31810W        W96971  13.306  18.805  13.358
31811W        W96972  23.318  24.599   3.212
31812W        W96973   8.223   1.287  13.551
31813W        W96974  11.913  25.925   4.044
31814W        W96975  36.321   7.113  10.260
31815W        W96976  25.279  31.848  13.655
31816W        W96977  26.146  43.259  13.027
31817W        W96978  21.985  38.807  13.933
31818W        W96979  10.118  14.732  11.118
31819W        W96980  19.490  42.514  12.628
31820W        W96981  17.519   9.095  11.152
31821W        W96982  23.314   1.294   1.492
31822W        W96983  29.440  19.587   3.742
31823W        W96984  38.418  33.148  14.002
31824W        W96985  22.795  16.592   1.836
31825W        W96986   9.849  20.761  13.523
31826W        W96987  40.298  14.508  12.009
31827W        W96988  20.238  10.972   3.693
31828W        W96989  44.680   6.771   2.351
31829W        W96990  14.841  19.560   3.201
31830W        W96991  21.546  14.377  11.612
31831W        W96992  34.125  39.842   3.233
31832W        W96993  25.713  22.214  10.352
31833W        W96994  33.131  27.106   3.257
31834W        W96995   6.313  28.999  12.008
31835W        W96996  32.517  32.057  10.207
31836W        W96997   3.704  11.432  11.157
31837W        W96998  17.438  18.128  13.523
31838W        W96999  17.602  37.130  14.941
31839W        W97000   0.426  15.075  13.389
31840W        W97001  39.015  44.770  13.417
31841W        W97002   2.981  24.083  11.527
31842W        W97003  44.530  17.031   2.270
31843W        W97004  18.583  14.385  14.097
31844W        W97005  33.674  37.857   3.236
31845W        W97006  15.175  13.764   3.712
31846W        W97007  32.319  44.386   2.996
31847W        W97008  17.810  31.938   3.136
31848W        W97009  15.319  10.355  14.888
31849W        W97010  10.230  11.352   4.023
31850W        W97011   7.889  15.616   1.212
31851W        W97012   1.924  18.578  11.744
31852W        W97013   3.695  38.007  13.281
31853W        W97014  14.168  42.325   3.478
31854W        W97015  32.430  15.502  10.256
31855W        W97016  20.065   7.960   0.428
31856W        W97017   3.910  28.397   1.341
31857W        W97018  43.841   1.509  13.516
31858W        W97019  23.685   2.250  14.348
31859W        W97020  36.830  14.853  10.728
31860W        W97021  31.618   4.107   0.830
31861W        W97022  41.135  34.175   0.199
31862W        W97023  30.506   3.787  12.540
31863W        W97024   4.122  42.272   3.587
31864W        W97025  12.825  12.802  14.906
31865W        W97026   1.772  39.601   4.154
31866W        W97027  24.038   1.751   0.173
31867W        W97028  17.104  44.404  10.175
31868W        W97029  41.891  15.212  11.699
31869W        W97030  19.642   4.388   1.332
31870W        W97031   8.264   8.618  12.099
31871W        W97032  32.504  16.724   4.450
31872W        W97033   9.736  44.653   1.856
31873W        W97034  30.139  40.068   4.188
31874W        W97035  16.106   3.698  12.344
31875W        W97036  37.417  28.141   1.624
31876W        W97037  29.052   4.836  14.081
31877W        W97038   8.305  35.913   2.393
31878W        W97039  31.918  28.511  11.975
31879W        W97040  18.294   2.975   2.676
31880W        W97041  10.812  44.062   3.348
31881W        W97042   8.644   9.898  13.319
31882W        W97043  29.994  40.905  11.471
31883W        W97044  32.214   8.740   3.999
31884W        W97045  20.798  29.374  10.732
31885W        W97046  24.632  12.757  13.668
31886W        W97047   8.235  12.752   3.674
31887W        W97048  30.334  33.377  12.401
31888W        W97049  16.831   1.430   4.716
31889W        W97050  24.337   9.206  13.304
31890W        W97051  33.643  24.181   5.650
31891W        W97052  16.199  10.775  10.520
31892W        W97053  16.147  42.008   2.833
31893W        W97054  16.280  40.359   0.509
31894W        W97055  19.136  40.528   0.850
31895W        W97056  37.307   9.528   2.788
31896W        W97057   7.429  42.391   2.684
31897W        W97058  41.249  43.934  11.200
31898W        W97059  20.219  25.232   3.171
31899W        W97060  41.584  37.028   3.253
31900W        W97061  29.107  28.615  12.498
31901W        W97062  18.664  33.104   3.877
31902W        W97063  36.605  27.141   2.649
31903W        W97064  26.972  34.460   4.299
31904W        W97065   4.777   3.869   0.597
31905W        W97066  22.216  35.135  13.461
31906W        W97067   7.204  10.663   3.167
31907W        W97068  36.708  44.333   4.042
31908W        W97069  32.268  14.043   2.266
31909W        W97070  12.670  27.660   1.298
31910W        W97071   7.467   1.419  11.590
31911W        W97072  17.327  10.702  11.367
31912W        W97073   0.438  23.697   2.219
31913W        W97074  11.565  38.766   2.690
31914W        W97075  11.104   2.848   2.900
31915W        W97076  33.381  33.631   1.263
31916W        W97077   4.029  22.273   1.899
31917W        W97078  42.411   6.115   2.280
31918W        W97079  44.712  21.059  14.890
31919W        W97080  41.512  10.354  12.481
31920W        W97081   8.816  33.388   2.657
31921W        W97082  14.622  41.262  11.563
31922W        W97083  39.082   0.625  12.489
31923W        W97084  36.067  19.376   0.424
31924W        W97085  16.154   7.269   2.761
31925W        W97086  33.340  16.349  10.345
31926W        W97087  13.175  35.236   3.293
31927W        W97088   7.451  21.933  11.051
31928W        W97089  24.179  44.713  13.962
31929W        W97090  42.273   2.016  11.087
31930W        W97091  30.999  41.014   0.219
31931W        W97092  43.090  36.987  13.958
31932W        W97093  11.881  25.194  14.767
31933W        W97094   4.942   3.992  11.415
31934W        W97095  40.458   0.777  14.660
31935W        W97096  34.383  34.558  11.089
31936W        W97097  38.883  19.701   0.118
31937W        W97098   3.505  39.654  11.042
31938W        W97099  35.443   7.876  13.389
31939W        W97100   4.258  26.478   0.905
31940W        W97101  38.377  17.032   1.267
31941W        W97102  37.941  22.621   4.129
31942W        W97103   4.228  42.542   2.693
31943W        W97104  31.218  33.931   3.861
31944W        W97105  43.533  20.563  13.828
31945W        W97106  16.742  30.136  10.686
31946W        W97107  11.722  40.035  14.502
31947W        W97108  22.131  26.883  12.409
31948W        W97109  31.522  34.922   4.476
31949W        W97110  40.082  42.978   0.289
31950W        W97111   2.286   9.207   4.330
31951W        W97112  42.932  36.080   0.414
31952W        W97113   3.559   2.351   1.665
31953W        W97114  22.748  32.545   3.618
31954W        W97115  39.463  36.158  11.664
31955W        W97116  22.267  12.337  12.341
31956W        W97117   0.212   9.229   3.220
31957W        W97118  25.722   3.294  11.160
31958W        W97119  25.069   5.856   4.654
31959W        W97120  31.372  15.824   1.865
31960W        W97121  27.598  42.037  13.120
31961W        W97122   4.733  14.552  13.647
31962W        W97123  35.015  27.738  14.992
31963W        W97124  12.725  15.542  14.420
31964W        W97125  30.510  32.433  12.322
31965W        W97126   1.180   2.778   1.894
31966W        W97127   6.791  14.587  12.632
31967W        W97128   3.556  35.526  13.398
31968W        W97129  34.339  27.082   0.555
31969W        W97130  43.782  11.898   0.002
31970W        W97131  27.006   2.191  12.412
31971W        W97132  14.207  14.203   4.463
31972W        W97133  16.796   3.137   4.268
31973W        W97134  42.557  42.813   2.264
31974W        W97135  41.407  35.611   1.529
31975W        W97136  13.675   2.725  11.616
31976W        W97137  27.990  14.066  14.899
31977W        W97138  17.729  10.762   0.908
31978W        W97139   3.792   9.125   3.734
31979W        W97140  12.578  18.572   1.415
31980W        W97141  36.977   4.485   3.118
31981W        W97142   5.327  10.089  11.402
31982W        W97143  42.229   0.828   3.730
31983W        W97144  12.562  33.392   1.877
31984W        W97145  22.273  18.140  13.876
31985W        W97146  25.082  18.108   1.103
31986W        W97147  40.493  44.954   3.643
31987W        W97148  18.589  15.046   5.414
31988W        W97149   3.157  14.761   0.303
31989W        W97150  26.685  29.611  13.890
31990W        W97151   7.240   6.350  13.348
31991W        W97152  11.880  27.007  13.851
31992W        W97153  11.865  44.753   0.249
31993W        W97154  16.153  33.664   3.335
31994W        W97155   4.311   3.648   0.943
31995W        W97156  10.311  13.533   0.823
31996W        W97157   4.328  44.997   3.618
31997W        W97158   2.323   5.932   4.468
31998W        W97159  16.991  25.980  12.493
31999W        W97160   4.868  19.663  11.151
32000W        W97161  33.002  34.212   2.813
32001W        W97162  40.549   1.711   3.631
32002W        W97163  13.425   9.309  12.027
32003W        W97164  32.895  17.281  10.551
32004W        W97165   5.340  19.804   4.717
32005W        W97166  34.150   1.491   3.775
32006W        W97167  36.428  29.638  13.407
32007W        W97168  31.443   1.302   4.670
32008W        W97169   9.673   8.572   3.101
32009W        W97170  31.895  16.073  10.823
32010W        W97171  30.568  26.855  11.153
32011W        W97172  42.294  14.927  14.026
32012W        W97173  23.114  27.746   0.160
32013W        W97174  26.455  30.855   5.125
32014W        W97175  11.839  44.792   3.297
32015W        W97176  42.465  30.695   3.128
32016W        W97177  10.638  36.508  14.014
32017W        W97178   5.378   9.735   3.673
32018W        W97179   4.465   7.760  13.333
32019W        W97180  14.916   2.516  11.248
32020W        W97181  16.748  19.011  14.410
32021W        W97182  33.468  38.980   3.311
32022W        W97183  39.969  22.798   3.314
32023W        W97184  31.828  38.951  10.057
32024W        W97185   6.215  38.338   0.399
32025W        W97186  31.692  44.930   1.008
32026W        W97187   1.861  25.656  11.354
32027W        W97188  31.734  43.902   0.355
32028W        W97189  31.213  31.133   1.841
32029W        W97190   6.722  37.388   4.593
32030W        W97191  40.125  19.238  11.126
32031W        W97192  21.085  38.590   0.650
32032W        W97193   0.919   0.856  14.016
32033W        W97194  35.925  29.616  11.829
32034W        W97195  16.305   8.700  14.014
32035W        W97196  42.418   0.006   0.794
32036W        W97197  19.957   4.753  11.097
32037W        W97198   0.016  41.439   3.975
32038W        W97199  22.757  33.177  13.629
32039W        W97200  43.172  37.593   0.763
32040W        W97201  11.832  27.883   0.767
32041W        W97202   1.279  26.260   1.747
32042W        W97203  40.077   4.089  11.547
32043W        W97204  37.060   4.448   0.060
32044W        W97205  12.136  10.186   0.758
32045W        W97206  25.079   8.193   3.425
32046W        W97207  23.582   3.300  10.595
32047W        W97208  32.786  42.312  14.151
32048W        W97209  39.906  43.553   1.002
32049W        W97210  19.986   1.949   4.701
32050W        W97211  34.963  16.587  11.485
32051W        W97212  20.870   3.268  11.502
32052W        W97213  29.728   1.939   3.334
32053W        W97214  13.539  10.850   1.810
32054W        W97215  15.398   7.812  12.424
32055W        W97216   4.646  44.636  13.341
32056W        W97217  10.379   6.819   0.138
32057W        W97218   8.285   2.815   1.406
32058W        W97219  40.485  13.067   4.518
32059W        W97220  11.278  24.570   0.426
32060W        W97221  28.950  33.331   2.764
32061W        W97222  18.046  17.753  12.107
32062W        W97223  33.606  23.476  10.626
32063W        W97224  25.518   7.827  10.670
32064W        W97225   9.243  11.394  14.557
32065W        W97226  26.009  21.572  13.493
32066W        W97227  37.914  28.861   0.696
32067W        W97228  41.398  30.903   3.952
32068W        W97229  23.238  22.540   2.618
32069W        W97230  28.169  36.889   3.269
32070W        W97231  29.106   9.827  10.737
32071W        W97232  25.599   2.757   4.810
32072W        W97233  44.138  18.995   0.323
32073W        W97234   2.283  35.652  14.910
32074W        W97235  25.099  31.647  12.624
32075W        W97236  29.427  19.783   2.288
32076W        W97237  12.423   1.476   0.296
32077W        W97238  29.046  15.805  12.438
32078W        W97239  43.862  19.174   2.332
32079W        W97240   3.910  32.550   3.584
32080W        W97241  18.771  14.792   0.937
32081W        W97242  19.609  12.561   4.551
32082W        W97243   5.870  39.047   0.567
32083W        W97244  26.453  12.805   0.002
32084W        W97245  35.425  41.992  14.810
32085W        W97246  26.905   8.250  12.509
32086W        W97247  39.101  10.234   1.224
32087W        W97248   4.217  20.253   3.690
32088W        W97249  33.658  40.464  14.970
32089W        W97250  21.770  34.025  10.934
32090W        W97251  42.289   9.189  10.680
32091W        W97252  13.730  26.079   4.605
32092W        W97253  12.001   6.970   4.093
32093W        W97254  25.992  37.421  14.106
32094W        W97255  42.369   8.845  11.897
32095W        W97256  21.582   1.454  13.969
32096W        W97257  13.889  32.100   1.319
32097W        W97258   0.983  28.475   4.687
32098W        W97259  27.161   9.295   2.833
32099W        W97260  25.602  16.153  11.515
32100W        W97261  15.601  20.727  10.690
32101W        W97262  34.601   7.759  14.987
32102W        W97263  17.498  41.584   4.592
32103W        W97264   1.930  14.098   3.727
32104W        W97265  24.418  25.491  12.529
32105W        W97266  10.643  28.997  11.643
32106W        W97267  39.498   1.975   1.686
32107W        W97268  14.183  32.202   2.682
32108W        W97269  15.388   8.724  13.929
32109W        W97270  21.320  18.620  11.588
32110W        W97271  11.088  12.415   2.381
32111W        W97272   6.658  25.038  12.515
32112W        W97273  40.989  18.336   4.622
32113W        W97274  29.733  10.641   3.692
32114W        W97275  10.867  23.475   2.732
32115W        W97276  43.619   5.369   0.417
32116W        W97277  26.558  40.906   1.219
32117W        W97278  39.842  17.036   0.791
32118W        W97279   6.903  28.738   3.874
32119W        W97280  22.524  20.992   0.989
32120W        W97281  35.362   3.671  13.774
32121W        W97282  31.186  41.440   1.746
32122W        W97283   7.931  35.058  13.655
32123W        W97284  29.720   3.189  12.128
32124W        W97285  44.896  13.711  13.417
32125W        W97286  37.955   8.833  13.014
32126W        W97287   6.338  40.226  12.871
32127W        W97288  21.184   7.365  12.008
32128W        W97289   7.306  37.489  12.427
32129W        W97290  41.235  35.093  14.787
32130W        W97291   6.385  17.178   3.175
32131W        W97292   2.452  28.856  14.971
32132W        W97293  20.970  20.065   0.379
32133W        W97294   1.475  35.987   0.741
32134W        W97295  13.217   6.112   2.132
32135W        W97296  14.737  35.802   2.370
32136W        W97297  23.948  34.664   1.697
32137W        W97298  39.149  18.157   4.172
32138W        W97299  28.577   7.366   0.161
32139W        W97300  12.664  12.656   3.185
32140W        W97301  39.037   9.092  12.018
32141W        W97302  37.641  15.754  14.644
32142W        W97303   6.005  37.000  14.479
32143W        W97304   7.149  20.239  14.988
32144W        W97305  21.356   4.341   2.399
32145W        W97306  29.601  44.769   3.806
32146W        W97307  37.525  24.623   2.692
32147W        W97308   5.684  15.014  12.048
32148W        W97309   4.533  30.776   3.731
32149W        W97310  42.781   8.458  13.053
32150W        W97311  29.569  20.837   2.719
32151W        W97312  35.003  28.840  10.068
32152W        W97313   9.745   7.113   1.300
32153W        W97314  14.142  37.584   1.349
32154W        W97315  40.818   9.765  12.644
32155W        W97316  36.116  19.913  13.363
32156W        W97317  30.639   8.004  12.528
32157W        W97318  43.271  12.629  11.481
32158W        W97319  23.101   6.982  13.338
32159W        W97320  37.054  11.361  13.572
32160W        W97321  15.289   7.216   0.656
32161W        W97322   4.954  12.835   1.383
32162W        W97323   2.037   4.197   2.242
32163W        W97324  43.328  28.058   4.148
32164W        W97325  12.157  10.931   1.179
32165W        W97326  18.603  12.190   1.868
32166W        W97327  17.378   6.143  12.878
32167W        W97328  37.085  34.487   2.527
32168W        W97329  19.752  33.152  11.921
32169W        W97330  43.834  39.098   4.607
32170W        W97331  36.197  17.304   0.978
32171W        W97332  17.285   0.952   3.180
32172W        W97333  16.485  18.670   0.939
32173W        W97334  35.497  40.519  13.813
32174W        W97335   3.392  31.948   4.923
32175W        W97336  12.592   7.295  14.272
32176W        W97337  32.074  21.783  13.774
32177W        W97338  32.014  16.100   3.931
32178W        W97339  20.811  25.962  10.859
32179W        W97340  18.798  41.960  12.551
32180W        W97341  37.091  14.486  14.488
32181W        W97342  41.018  38.107  12.967
32182W        W97343  36.018  17.424   4.473
32183W        W97344  37.844  43.621  10.915
32184W        W97345  30.521  38.153   2.642
32185W        W97346  33.617  14.438  11.465
32186W        W97347   9.600  43.776  11.101
32187W        W97348   5.220  21.702   4.266
32188W        W97349   8.179  29.084  12.152
32189W        W97350   5.297   9.394  11.941
32190W        W97351  30.552  38.900   2.299
32191W        W97352  26.569  21.267  14.312
32192W        W97353  21.091   0.175  10.561
32193W        W97354  27.647   4.182   1.746
32194W        W97355  38.642   2.397  10.619
32195W        W97356   3.882   4.025   2.872
32196W        W97357  17.697   5.372   4.044
32197W        W97358  12.008  24.008   3.379
32198W        W97359  26.922  15.650   1.314
32199W        W97360   9.550  11.860   4.932
32200W        W97361  29.990   7.663  13.082
32201W        W97362  17.616   3.780   1.923
32202W        W97363  23.722   4.889  12.627
32203W        W97364  44.168  24.773  14.549
32204W        W97365   1.642  37.598  13.356
32205W        W97366  30.048  20.002  12.960
32206W        W97367  42.937   0.245   4.390
32207W        W97368   8.337  18.326  13.359
32208W        W97369  14.943  35.199  12.112
32209W        W97370  36.323  18.539  13.899
32210W        W97371   3.412   5.461   2.634
32211W        W97372  39.772  26.496   3.706
32212W        W97373  34.819  34.645  11.464
32213W        W97374   7.761   5.902  10.966
32214W        W97375  22.556  32.080  11.348
32215W        W97376  10.158   5.779   4.845
32216W        W97377   5.788   0.514   1.001
32217W        W97378  31.441  40.484   3.729
32218W        W97379  21.251   4.048  14.486
32219W        W97380  31.090  25.495  14.969
32220W        W97381  13.435  44.957  11.100
32221W        W97382  28.190  30.152  11.714
32222W        W97383  30.669  42.509  11.078
32223W        W97384  30.181  30.953  13.666
32224W        W97385  13.566  14.778   2.630
32225W        W97386  30.494  42.223  13.322
32226W        W97387  43.203  31.827   9.931
32227W        W97388  28.268  27.791  14.020
32228W        W97389  24.695  34.252  10.846
32229W        W97390  41.027   7.569   3.284
32230W        W97391  30.154  33.625   0.218
32231W        W97392  28.655  10.808  10.277
32232W        W97393  16.979  36.521   0.110
32233W        W97394  35.906  34.355  13.526
32234W        W97395  40.241  28.649  11.644
32235W        W97396  16.173   2.497  13.810
32236W        W97397  19.488  28.161  14.228
32237W        W97398   1.795  27.417  11.711
32238W        W97399  10.731   0.092  13.568
32239W        W97400  26.343  16.574   1.258
32240W        W97401  43.659  19.529   3.568
32241W        W97402   4.199  17.174  11.150
32242W        W97403  35.902  13.891   0.046
32243W        W97404  19.097  26.234  12.939
32244W        W97405  22.194  10.215   0.647
32245W        W97406  22.254  37.846   3.724
32246W        W97407  37.101  38.513  10.612
32247W        W97408   8.205  15.571   1.634
32248W        W97409  34.138  28.557  14.855
32249W        W97410  11.573  12.173  11.519
32250W        W97411   7.164  36.066   2.366
32251W        W97412   5.909  40.954  14.257
32252W        W97413  40.123  29.439  13.942
32253W        W97414  26.006  28.655  12.019
32254W        W97415   0.183  24.108  10.929
32255W        W97416   4.523  32.448  11.572
32256W        W97417  12.110  42.689  10.366
32257W        W97418   4.616   6.246  11.621
32258W        W97419  13.596  28.068   0.327
32259W        W97420   9.117  38.082  14.260
32260W        W97421  44.366  41.131  10.120
32261W        W97422   0.255   8.429   3.676
32262W        W97423  13.766   0.274   4.373
32263W        W97424  24.457  21.907   2.271
32264W        W97425  10.708  33.194   0.697
32265W        W97426  21.605   9.267  11.469
32266W        W97427  27.509  40.911  11.668
32267W        W97428  16.683  19.558   1.397
32268W        W97429  17.672  12.577  14.244
32269W        W97430  19.169   4.188   3.278
32270W        W97431  29.024  25.831   0.169
32271W        W97432  16.003  37.025  12.833
32272W        W97433   1.478  23.089  12.892
32273W        W97434  37.533   9.285   3.206
32274W        W97435  28.539  21.692   1.632
32275W        W97436  29.893   1.221   0.001
32276W        W97437  32.016  18.589   1.935
32277W        W97438  10.473  35.841   3.171
32278W        W97439  34.266  13.765   0.915
32279W        W97440   0.978  18.534   1.972
32280W        W97441  30.140  37.378  11.669
32281W        W97442  31.109   8.270   0.758
32282W        W97443  31.131  22.025   1.855
32283W        W97444  18.736  28.878   2.129
32284W        W97445  11.900  29.719   4.170
32285W        W97446   5.885  44.002  12.170
32286W        W97447  22.707  29.626  10.613
32287W        W97448  24.665  36.765   3.156
32288W        W97449  44.951  40.941  13.530
32289W        W97450  28.707  43.787   3.239
32290W        W97451  29.898  35.956   3.627
32291W        W97452  20.791  20.584  11.511
32292W        W97453  21.234   2.895  11.627
32293W        W97454  31.413  36.345  14.214
32294W        W97455  12.196  33.174   3.200
32295W        W97456   0.900  32.671   0.783
32296W        W97457   8.224  17.762  12.584
32297W        W97458   7.203  20.761   0.876
32298W        W97459  28.654   7.025   2.324
32299W        W97460  21.445  26.635  11.078
32300W        W97461  11.821   0.455  14.936
32301W        W97462  43.332  21.589  13.171
32302W        W97463  34.881   0.727  11.612
32303W        W97464  41.107  35.910   2.870
32304W        W97465  18.668   1.868   0.987
32305W        W97466  32.472   6.148  13.932
32306W        W97467  16.532  40.075   1.869
32307W        W97468   2.790  12.594   1.783
32308W        W97469  20.270  37.877  11.433
32309W        W97470  28.999   1.382  14.955
32310W        W97471  18.818   1.497  12.605
32311W        W97472  11.011  15.224  13.324
32312W        W97473  16.118   6.426   4.399
32313W        W97474  34.895   6.540  14.933
32314W        W97475   2.713  38.522   2.808
32315W        W97476  37.427  42.874   3.462
32316W        W97477   2.777   0.791   3.388
32317W        W97478  28.927  14.163   3.745
32318W        W97479  19.313  21.123  13.031
32319W        W97480  36.026  34.905  14.298
32320W        W97481  22.652  20.497   3.698
32321W        W97482  19.607  12.364  11.124
32322W        W97483  39.928  35.920  11.523
32323W        W97484  12.316  32.912   1.166
32324W        W97485   6.361  26.558   2.404
32325W        W97486  41.494   7.728   4.072
32326W        W97487   3.421   2.702   5.020
32327W        W97488   6.198  26.213  12.789
32328W        W97489  15.842   1.924  12.127
32329W        W97490  12.766  31.627   2.414
32330W        W97491  33.113  21.788   4.545
32331W        W97492  40.732  38.317  11.276
32332W        W97493  21.776   8.845  10.163
32333W        W97494   7.210  36.869  10.709
32334W        W97495  33.157   0.050   2.795
32335W        W97496   5.791   6.530   1.778
32336W        W97497  24.321   1.407   0.435
32337W        W97498  15.227   6.801   1.437
32338W        W97499   7.295  13.014  12.139
32339W        W97500  20.030  19.851   5.034
32340W        W97501  27.198  24.458   2.350
32341W        W97502   8.298  35.938  14.544
32342W        W97503  10.347  29.738  11.052
32343W        W97504  36.022  33.589  12.634
32344W        W97505  10.380  39.952   3.081
32345W        W97506  14.870  24.165   3.620
32346W        W97507  37.894  43.561  13.014
32347W        W97508  24.948   8.044   4.564
32348W        W97509  30.287   3.120   1.870
32349W        W97510  40.951  12.558  11.038
32350W        W97511  22.728  40.400   2.372
32351W        W97512  32.136   5.739  13.933
32352W        W97513  41.437   9.279  12.626
32353W        W97514  16.175  27.125   2.439
32354W        W97515  44.407  27.173  14.820
32355W        W97516   7.381  28.138   0.711
32356W        W97517  32.122   0.531   2.866
32357W        W97518  33.975  42.546  12.162
32358W        W97519  44.747  14.383  14.495
32359W        W97520  13.272  42.829   0.324
32360W        W97521  16.993  28.581   2.393
32361W        W97522   4.532  44.805  10.548
32362W        W97523  25.269  24.177   2.298
32363W        W97524   8.455  11.359   2.229
32364W        W97525  27.133  21.350   0.167
32365W        W97526  21.476  27.579  11.406
32366W        W97527  11.727  43.284   3.727
32367W        W97528  14.106  25.955  12.699
32368W        W97529  31.285  18.564   4.168
32369W        W97530  26.555  37.948  12.197
32370W        W97531   8.827  13.511   2.663
32371W        W97532  18.522   7.042   2.454
32372W        W97533   3.695  17.758   1.435
32373W        W97534  38.576   0.954  13.460
32374W        W97535   0.491  36.250   2.262
32375W        W97536  21.758  39.802  11.611
32376W        W97537  31.727  38.350   4.145
32377W        W97538  20.120  19.765  14.412
32378W        W97539   4.511  32.145  11.132
32379W        W97540  14.251   9.208  14.289
32380W        W97541  31.001  27.502  11.903
32381W        W97542  28.956  30.649  13.300
32382W        W97543   5.407  38.978  12.029
32383W        W97544   5.495  34.800  11.203
32384W        W97545  38.446  38.505  13.379
32385W        W97546  20.645  30.480   4.646
32386W        W97547  39.815  17.075  13.247
32387W        W97548  15.366   4.500   2.004
32388W        W97549  37.499  32.662   4.468
32389W        W97550  20.753  24.451  10.790
32390W        W97551  17.677  36.556   4.871
32391W        W97552  20.633  20.423   2.275
32392W        W97553  23.146  26.071   1.984
32393W        W97554   1.176  29.053  14.494
32394W        W97555  31.861   9.902  11.576
32395W        W97556  12.290  41.107   4.126
32396W        W97557  34.165  22.987  14.948
32397W        W97558  28.355  27.000  11.081
32398W        W97559  35.321   0.966  11.497
32399W        W97560   6.868   6.738   1.324
32400W        W97561  41.875  20.811   3.705
32401W        W97562  22.103  24.205  13.840
32402W        W97563  12.238   4.655  12.518
32403W        W97564  19.186  39.824   5.068
32404W        W97565  43.665  21.715   0.289
32405W        W97566  25.870   1.829   0.712
32406W        W97567  31.382   5.314   4.498
32407W        W97568  11.586  15.044   2.348
32408W        W97569  32.876  44.455  14.435
32409W        W97570  31.524   1.026   1.978
32410W        W97571  21.696  42.479   4.834
32411W        W97572  43.256  21.762   4.562
32412W        W97573  31.899  14.069  14.875
32413W        W97574  28.399   9.177   4.003
32414W        W97575  11.712  17.732  14.907
32415W        W97576  22.634  30.934  13.017
32416W        W97577  29.154  14.645   3.738
32417W        W97578  22.043   6.431   1.638
32418W        W97579  11.062  39.357   4.188
32419W        W97580  23.345   1.776  13.464
32420W        W97581   8.903  25.184   1.750
32421W        W97582  26.150  13.612   4.607
32422W        W97583  37.422   5.937   1.422
32423W        W97584  26.593  41.695   1.817
32424W        W97585  23.708  16.728   1.402
32425W        W97586  31.872   8.223  13.516
32426W        W97587  42.422   5.334  12.346
32427W        W97588  25.089  32.883  14.282
32428W        W97589   2.154   3.968  11.112
32429W        W97590  21.178  31.073   4.177
32430W        W97591  40.186   0.837   3.615
32431W        W97592  13.202  22.683  14.773
32432W        W97593  36.569  22.170   4.308
32433W        W97594  10.881   6.853   2.827
32434W        W97595  38.973   8.582   0.282
32435W        W97596  36.133  22.063   1.439
32436W        W97597  22.762  40.877  12.645
32437W        W97598  25.710  11.568   4.034
32438W        W97599  10.294   6.272  11.412
32439W        W97600  21.553  19.233   0.056
32440W        W97601  38.904  33.470   1.675
32441W        W97602  18.982  29.086   3.959
32442W        W97603  35.213  28.048  14.589
32443W        W97604  14.230  10.305   1.610
32444W        W97605  10.344  12.347   0.502
32445W        W97606  25.053  22.857   1.318
32446W        W97607  38.307  23.245   1.745
32447W        W97608  31.133  40.693  10.230
32448W        W97609   0.727  33.506  12.855
32449W        W97610  12.204  43.247   3.523
32450W        W97611   9.879  39.867  12.150
32451W        W97612  18.932  44.063   2.420
32452W        W97613  36.784  24.896   2.810
32453W        W97614   4.560  37.597  14.015
32454W        W97615  34.389   5.869   2.606
32455W        W97616  27.349  30.953   2.691
32456W        W97617  19.594  25.425  12.110
32457W        W97618  38.107  30.625  13.483
32458W        W97619  27.619  16.565   1.938
32459W        W97620  41.550   8.426  14.082
32460W        W97621  37.901   6.759  14.824
32461W        W97622  38.390   8.062  13.564
32462W        W97623  12.735  30.715   2.473
32463W        W97624  41.940  38.753   4.463
32464W        W97625  13.308  43.950   1.101
32465W        W97626  22.278   2.821   0.368
32466W        W97627  21.168  25.837   1.409
32467W        W97628  43.991   9.084   0.417
32468W        W97629  44.253  16.656   2.554
32469W        W97630  36.126  20.079  10.721
32470W        W97631   1.840   5.378  14.320
32471W        W97632  10.205  13.783   2.387
32472W        W97633   7.642  13.204   3.699
32473W        W97634  42.739   6.734   0.848
32474W        W97635  16.119  36.173  13.268
32475W        W97636   7.486   6.125   2.202
32476W        W97637  16.695  39.586   1.875
32477W        W97638  19.746   8.771   3.863
32478W        W97639  37.185  15.633  14.964
32479W        W97640  25.937  32.132  12.937
32480W        W97641  21.273  25.485  14.492
32481W        W97642   0.717  35.412   0.414
32482W        W97643  43.403  27.676  11.476
32483W        W97644  10.691   1.271   0.987
32484W        W97645  12.705  41.883   1.698
32485W        W97646  29.587  10.968  14.905
32486W        W97647  32.375  20.047   1.816
32487W        W97648  24.145   1.385   3.932
32488W        W97649  20.780   7.331   3.667
32489W        W97650  15.906  11.798   4.690
32490W        W97651  20.094   6.841   1.430
32491W        W97652  32.609   9.886  13.710
32492W        W97653  21.318  39.509  13.301
32493W        W97654   2.319   8.879  13.952
32494W        W97655  29.196   5.867   2.866
32495W        W97656  27.178  38.019   4.537
32496W        W97657  44.365  29.520   4.618
32497W        W97658  13.973  41.797  13.826
32498W        W97659  13.726  16.686   0.257
32499W        W97660  40.473  24.486  12.536
32500W        W97661  30.344   7.622   2.859
32501W        W97662  31.584  14.653   4.885
32502W        W97663  36.189  44.396  14.323
32503W        W97664  25.226   1.378  10.759
32504W        W97665  30.090  28.231  12.649
32505W        W97666  12.207  13.719   0.353
32506W        W97667  32.528  12.212  10.568
32507W        W97668  23.113  39.314   2.924
32508W        W97669  32.605  43.122   1.403
32509W        W97670  22.975  44.845  14.893
32510W        W97671  37.946  44.435   2.381
32511W        W97672  13.078  37.630   1.930
32512W        W97673  23.667   7.729   1.551
32513W        W97674  37.098  12.871  11.581
32514W        W97675  36.110  42.510  14.380
32515W        W97676   4.458  14.700  12.949
32516W        W97677  24.633  30.429  14.479
32517W        W97678   6.661   0.912   2.310
32518W        W97679  29.919  14.130   3.426
32519W        W97680   4.429  42.802   1.330
32520W        W97681  42.326  33.835  10.962
32521W        W97682  10.797  16.159   0.441
32522W        W97683   3.382   1.871   4.197
32523W        W97684  33.557  11.816  14.014
32524W        W97685  31.383  39.052  14.461
32525W        W97686  14.023  19.607   1.923
32526W        W97687  22.235  15.269   1.408
32527W        W97688  18.790  44.976   3.336
32528W        W97689   5.372   3.855   3.915
32529W        W97690  32.143  33.994  11.967
32530W        W97691  31.510  32.820  11.252
32531W        W97692  13.650  31.636   4.216
32532W        W97693  18.774  44.327  10.983
32533W        W97694   3.042  23.620   1.854
32534W        W97695  26.934  22.761   1.304
32535W        W97696  43.275  10.286  10.607
32536W        W97697  32.942  10.385   4.486
32537W        W97698  43.988  40.421  11.659
32538W        W97699  23.332   2.961  12.023
32539W        W97700  37.191   8.715   0.412
32540W        W97701  17.189  23.861   2.013
32541W        W97702   9.684  36.443   1.758
32542W        W97703  21.515  42.586  10.683
32543W        W97704  33.392  27.183   3.683
32544W        W97705  35.475  14.450   3.280
32545W        W97706  31.638  19.998  14.118
32546W        W97707  15.602  18.850   1.977
32547W        W97708  19.697   4.230   3.635
32548W        W97709  43.177  21.598   1.231
32549W        W97710  11.639  30.646  10.409
32550W        W97711  14.874  11.295   2.808
32551W        W97712  42.168  40.310   4.885
32552W        W97713  44.749  34.288  13.466
32553W        W97714  10.935  26.630   0.675
32554W        W97715   9.660  18.492  11.281
32555W        W97716  26.109  31.039   3.732
32556W        W97717  23.186  28.964  13.860
32557W        W97718   1.969  34.507  13.362
32558W        W97719  38.967  18.611   1.860
32559W        W97720   3.563   3.885  14.767
32560W        W97721  39.596  10.371   2.754
32561W        W97722  41.899  12.611   4.736
32562W        W97723   6.464  27.552  14.925
32563W        W97724  41.397  11.328  14.534
32564W        W97725  38.849  21.655   0.888
32565W        W97726  17.511   8.794  10.735
32566W        W97727  21.345   7.594   4.708
32567W        W97728  36.933  35.685   0.341
32568W        W97729  42.707  20.271   0.943
32569W        W97730   5.887   9.704   2.639
32570W        W97731  33.351  29.212  12.063
32571W        W97732  16.227   4.415   0.829
32572W        W97733  27.177  13.865   1.480
32573W        W97734   1.677   2.435   0.391
32574W        W97735   9.287  12.223   2.437
32575W        W97736  15.825  15.338   1.137
32576W        W97737   4.730  27.110   1.218
32577W        W97738   1.855  39.473   1.787
32578W        W97739  26.851  14.775   3.285
32579W        W97740  29.469  29.182   3.351
32580W        W97741  35.111  19.125   4.127
32581W        W97742  40.425  38.753   2.320
32582W        W97743   1.306   1.508  11.078
32583W        W97744  28.169  36.155  11.433
32584W        W97745  20.031  41.957   0.522
32585W        W97746  42.174   6.453   1.923
32586W        W97747   3.625   2.171  14.737
32587W        W97748  22.186  20.054   1.933
32588W        W97749  22.666   6.071   4.866
32589W        W97750  27.561  19.851   3.895
32590W        W97751  23.414  23.702  14.329
32591W        W97752  34.036  15.077  12.783
32592W        W97753   2.035  21.180   4.076
32593W        W97754  40.561  26.131   4.647
32594W        W97755   3.054  32.462  12.504
32595W        W97756  26.005  42.597  13.573
32596W        W97757  31.035   7.282   3.644
32597W        W97758  15.541   8.886   3.680
32598W        W97759  37.844  17.321  10.653
32599W        W97760  43.030  41.452  10.166
32600W        W97761  13.889  41.786  11.577
32601W        W97762   9.431   8.910  10.730
32602W        W97763  22.487   2.867   3.789
32603W        W97764  11.315  40.133  14.857
32604W        W97765  12.290  35.892   0.436
32605W        W97766  30.382  30.849   3.148
32606W        W97767   6.446  29.770   9.809
32607W        W97768  11.284   7.101  11.232
32608W        W97769  17.852   5.847   4.075
32609W        W97770  24.372   7.208   0.791
32610W        W97771   2.783  33.423  14.746
32611W        W97772  30.172  24.127  14.935
32612W        W97773   9.750   0.880   3.931
32613W        W97774  37.382  16.642  12.167
32614W        W97775  20.579  39.376  12.131
32615W        W97776  25.979  39.800  11.537
32616W        W97777  21.192  15.438  10.487
32617W        W97778  10.840  29.717   2.499
32618W        W97779  22.862  44.937  13.338
32619W        W97780  16.865  37.390   0.799
32620W        W97781   9.357  14.105   5.284
32621W        W97782  42.321  21.646  14.815
32622W        W97783  21.809  12.720   4.900
32623W        W97784   9.169  15.854   2.807
32624W        W97785  13.012  20.059   0.329
32625W        W97786   4.979  12.987  14.297
32626W        W97787   8.242  37.898  10.753
32627W        W97788   1.285  11.687  12.027
32628W        W97789  18.287  22.413   0.320
32629W        W97790  42.302  33.463   2.229
32630W        W97791  41.584  12.558   4.225
32631W        W97792   4.793  30.939  13.470
32632W        W97793  24.503  17.811   1.631
32633W        W97794  13.785  44.310   4.036
32634W        W97795  20.566  44.799  14.147
32635W        W97796  11.097  11.040  12.863
32636W        W97797   9.973  23.255  12.808
32637W        W97798  27.915  42.407   1.784
32638W        W97799  24.837  21.462   3.186
32639W        W97800  41.529  12.255  13.086
32640W        W97801  14.104   4.232  13.817
32641W        W97802  40.522   0.380   1.427
32642W        W97803  32.487  10.270  10.891
32643W        W97804   1.462   5.177   0.260
32644W        W97805   3.961  36.630  14.580
32645W        W97806   0.957   9.266  12.569
32646W        W97807  17.080  34.299   3.307
32647W        W97808  20.277  16.073   2.489
32648W        W97809  14.039   6.281  13.815
32649W        W97810  32.529  29.251   1.647
32650W        W97811  39.359  30.682   4.541
32651W        W97812  20.347  21.553  12.879
32652W        W97813   2.303  34.479   0.442
32653W        W97814  13.339  19.204  12.114
32654W        W97815  36.100   5.855  14.948
32655W        W97816  13.148  20.027   3.724
32656W        W97817  29.997  42.445   4.663
32657W        W97818  30.883  17.257   4.038
32658W        W97819  32.455   0.136  10.162
32659W        W97820  24.183  16.404  11.161
32660W        W97821  39.592  40.551  14.040
32661W        W97822  39.687  34.659   3.315
32662W        W97823  41.526  37.377   0.988
32663W        W97824  11.565  33.119  11.971
32664W        W97825  23.629  14.620  10.229
32665W        W97826  26.809  13.741  12.393
32666W        W97827  15.379   7.621  11.148
32667W        W97828  19.056   3.277  11.674
32668W        W97829   0.984  33.925   3.754
32669W        W97830  16.220  32.610  14.737
32670W        W97831  21.056  12.068  13.556
32671W        W97832  21.977  28.947   3.608
32672W        W97833  42.464  19.458   1.398
32673W        W97834  24.063  34.141   0.740
32674W        W97835   0.391  29.707  11.162
32675W        W97836  18.647  31.473  11.466
32676W        W97837  35.423   0.915  11.009
32677W        W97838  33.999  22.538  11.386
32678W        W97839  16.154   2.168  12.459
32679W        W97840  11.207   9.651  11.627
32680W        W97841  19.083  26.952  11.608
32681W        W97842  17.049  32.404   0.418
32682W        W97843  40.012  33.719  13.595
32683W        W97844  44.431  29.624  10.571
32684W        W97845  42.519  39.730   3.833
32685W        W97846  23.214  34.470  12.855
32686W        W97847  42.995  27.519   3.190
32687W        W97848  30.118  29.888   4.481
32688W        W97849  27.453  24.630  11.336
32689W        W97850   0.783  11.640   3.141
32690W        W97851  40.383   0.127  10.737
32691W        W97852  33.424  18.172   0.464
32692W        W97853  32.704  13.840   4.570
32693W        W97854  35.402   1.936   4.572
32694W        W97855  16.372  37.989   0.483
32695W        W97856   8.043  19.140  12.546
32696W        W97857  21.714  27.368   0.488
32697W        W97858  28.499   8.869   0.512
32698W        W97859  40.743  16.777  14.354
32699W        W97860  35.420  37.291  11.238
32700W        W97861  34.816  19.448  14.814
32701W        W97862   8.026  12.862   5.080
32702W        W97863   1.860  19.448   0.348
32703W        W97864  36.577  27.930  12.416
32704W        W97865  36.365   6.311  14.987
32705W        W97866   6.377  10.809   3.829
32706W        W97867  32.530   9.250   1.720
32707W        W97868  42.535   6.773   4.203
32708W        W97869   9.461  17.901  14.630
32709W        W97870   1.271  39.905   0.230
32710W        W97871  35.954  16.579   2.200
32711W        W97872  44.405  10.165  14.918
32712W        W97873  33.485  30.914  14.438
32713W        W97874   5.746   0.870   0.026
32714W        W97875  12.726  24.376  13.513
32715W        W97876  19.613   7.838  14.304
32716W        W97877  14.044  38.859   4.355
32717W        W97878   8.142  10.203   2.030
32718W        W97879   0.016  12.712  13.668
32719W        W97880  38.937  30.116  14.835
32720W        W97881  22.198  35.886   1.381
32721W        W97882  17.036   7.969   2.719
32722W        W97883  19.548  18.637  10.603
32723W        W97884   8.108  23.454  12.133
32724W        W97885  26.028  12.018  11.553
32725W        W97886  34.874  30.982   2.204
32726W        W97887   1.391  40.839   0.407
32727W        W97888  32.671  11.035  14.672
32728W        W97889  29.103  41.462  11.282
32729W        W97890  44.700  34.652  12.173
32730W        W97891  34.606  33.309   0.047
32731W        W97892  23.014  41.089  11.266
32732W        W97893  25.551  32.611  12.545
32733W        W97894  25.447  14.900  14.869
32734W        W97895  43.761  11.195  12.841
32735W        W97896  31.898   7.779   0.824
32736W        W97897  13.992  37.164  11.624
32737W        W97898   7.236  10.365   2.396
32738W        W97899  22.533  36.747  12.540
32739W        W97900  19.201  17.605  11.149
32740W        W97901  23.900  33.862  14.953
32741W        W97902   8.459   4.892  13.235
32742W        W97903  21.112  36.413   2.324
32743W        W97904  29.439   5.613   0.043
32744W        W97905  41.403  32.600   1.390
32745W        W97906  43.774  34.930  14.402
32746W        W97907   6.342  31.599   4.457
32747W        W97908  10.876   0.848   3.369
32748W        W97909  21.072   3.402  13.118
32749W        W97910  36.137  29.569  12.985
32750W        W97911   9.420   4.871   0.239
32751W        W97912  24.523  28.325  12.429
32752W        W97913   5.068  37.882   5.041
32753W        W97914  37.094  26.602  10.509
32754W        W97915  29.183   1.487   4.065
32755W        W97916  10.442  42.360  11.612
32756W        W97917  16.125  18.763   1.918
32757W        W97918   6.294  22.085  12.871
32758W        W97919  38.593   5.742  11.226
32759W        W97920   5.403  19.841  14.634
32760W        W97921  22.959  12.056  14.509
32761W        W97922   6.890  17.588  12.494
32762W        W97923  44.291  31.548  14.878
32763W        W97924  15.793  29.756  13.099
32764W        W97925  40.504   2.408   3.722
32765W        W97926  42.902   0.318  14.299
32766W        W97927  25.590  41.420   0.514
32767W        W97928   6.001   3.041   2.947
32768W        W97929   7.624  22.263   0.877
32769W        W97930  36.943  43.905   4.208
32770W        W97931  39.035   1.962   0.835
32771W        W97932  17.733  26.975   4.482
32772W        W97933  32.009  25.680  14.862
32773W        W97934  18.501  35.689   2.866
32774W        W97935  32.155  17.219  13.431
32775W        W97936   0.428  19.571   1.904
32776W        W97937  24.108  23.132  10.735
32777W        W97938  23.363  44.974  14.436
32778W        W97939  14.762  18.290   4.281
32779W        W97940   1.857  16.298  14.307
32780W        W97941  16.024   9.109   3.726
32781W        W97942  31.686  34.860   3.570
32782W        W97943  29.888  25.607   4.508
32783W        W97944  33.563  24.123   0.140
32784W        W97945  24.009  26.617   2.264
32785W        W97946  34.307  20.511  11.643
32786W        W97947   7.600  30.897  14.729
32787W        W97948  40.712   7.219   3.055
32788W        W97949   8.375  35.768   3.664
32789W        W97950   5.900  43.209  11.869
32790W        W97951  17.510   2.045   4.395
32791W        W97952  28.396  17.238  14.258
32792W        W97953  23.279  41.336   3.722
32793W        W97954  34.091  38.833  11.245
32794W        W97955   9.450  36.635  10.875
32795W        W97956  24.913  41.806  14.890
32796W        W97957  13.907  25.551   4.780
32797W        W97958  14.363   9.639  14.557
32798W        W97959  17.098  25.860   1.331
32799W        W97960  23.723  12.074   1.863
32800W        W97961  20.822  11.569   1.369
32801W        W97962  25.670   4.651  14.410
32802W        W97963   0.595  19.678  13.356
32803W        W97964  40.348   6.778  11.116
32804W        W97965  31.739   8.501  11.811
32805W        W97966  23.248  40.601   4.118
32806W        W97967   6.644  11.308  10.363
32807W        W97968   2.954  30.481  12.024
32808W        W97969   4.005  43.401  11.944
32809W        W97970  44.454  21.531  11.637
32810W        W97971  21.211  44.403  13.300
32811W        W97972  37.354   3.326  13.895
32812W        W97973  25.126   8.226   3.971
32813W        W97974  16.022   6.892  10.590
32814W        W97975  29.964  41.058   0.306
32815W        W97976  41.750  18.936   3.725
32816W        W97977   2.808  27.054   0.761
32817W        W97978  18.310   6.438  10.452
32818W        W97979   6.660  41.333   1.883
32819W        W97980  29.711   8.634  10.981
32820W        W97981  29.189  30.287   1.349
32821W        W97982   5.931  29.657   3.623
32822W        W97983  35.430  27.044   0.555
32823W        W97984  21.289   7.355   3.836
32824W        W97985  29.597  16.314  13.522
32825W        W97986  40.558  27.773  11.182
32826W        W97987  38.924  29.831  14.360
32827W        W97988  14.373  40.172  10.203
32828W        W97989  41.418  22.692  13.536
32829W        W97990   3.857  23.774  11.408
32830W        W97991  41.536   4.822   0.705
32831W        W97992  10.814  38.831  11.451
32832W        W97993   8.929  19.946  12.459
32833W        W97994  17.198  16.591  14.812
32834W        W97995   7.939  12.333   4.491
32835W        W97996  17.244  24.955  13.972
32836W        W97997   2.996  27.954  12.455
32837W        W97998   0.937  16.878  13.757
32838W        W97999   7.113   7.321  13.346
32839W        W98000   3.996  16.135  11.069
32840W        W98001  14.423   0.554  14.853
32841W        W98002   0.253  32.632   5.508
32842W        W98003   0.997  43.842  14.762
32843W        W98004   9.324  19.789  14.976
32844W        W98005  26.539  34.486  13.642
32845W        W98006  29.844  33.898   0.597
32846W        W98007  18.141  43.583  12.677
32847W        W98008   2.949   6.269   1.732
32848W        W98009  14.565  29.048  10.828
32849W        W98010  31.395  12.687  12.636
32850W        W98011  28.372  23.182   1.221
32851W        W98012  35.610  20.695  12.831
32852W        W98013  21.046  18.492  12.983
32853W        W98014   5.286  21.823   1.419
32854W        W98015  24.263   3.718   3.705
32855W        W98016  21.086  30.735   4.633
32856W        W98017  16.032  44.921   3.525
32857W        W98018  24.908  17.569  13.053
32858W        W98019  27.307  14.195  12.975
32859W        W98020   6.712  44.795  14.065
32860W        W98021  24.110   0.733  12.148
32861W        W98022  29.726  39.091   4.964
32862W        W98023  20.060  32.398   4.040
32863W        W98024  14.025  10.700  11.488
32864W        W98025  30.513  32.581  12.837
32865W        W98026  18.395  24.716   1.252
32866W        W98027  14.635  19.559  14.391
32867W        W98028  31.465  34.313  13.041
32868W        W98029  16.405  26.980  10.486
32869W        W98030  43.894  13.913  12.882
32870W        W98031  26.569  36.050  13.391
32871W        W98032  29.902   1.671   4.820
32872W        W98033  30.410  36.870   2.296
32873W        W98034  34.830  39.898  11.076
32874W        W98035  41.951  30.242   4.351
32875W        W98036  15.452  24.527  11.446
32876W        W98037   0.300   7.739  13.876
32877W        W98038   7.445  33.525  12.028
32878W        W98039   4.917   0.268   1.471
32879W        W98040  21.995  18.884  12.719
32880W        W98041  39.872  16.847   3.050
32881W        W98042   0.952  30.747  11.929
32882W        W98043  26.628  16.711  13.774
32883W        W98044  20.019  23.797  12.910
32884W        W98045  33.877  26.487   2.694
32885W        W98046   9.358  11.714   2.314
32886W        W98047  32.885   5.931  14.289
32887W        W98048  15.140  29.099  14.353
32888W        W98049  17.055   3.066  11.715
32889W        W98050   4.921   5.745   0.652
32890W        W98051   5.310  25.182   4.983
32891W        W98052   7.381  32.007  14.920
32892W        W98053  32.946  41.062   2.614
32893W        W98054   2.384  34.218  10.579
32894W        W98055  21.639   7.694  10.781
32895W        W98056  23.535  30.167  14.053
32896W        W98057  18.630  36.207   3.137
32897W        W98058  40.001  43.766   3.285
32898W        W98059  34.985  34.612   4.521
32899W        W98060   8.752  26.643   3.708
32900W        W98061  12.604  38.947   0.244
32901W        W98062  36.573   7.897  12.985
32902W        W98063  28.657  21.282  14.849
32903W        W98064   5.972  19.555  13.590
32904W        W98065  14.813   9.132   0.183
32905W        W98066  20.072  15.168  13.949
32906W        W98067  10.300  28.436   2.275
32907W        W98068   8.839  17.156  10.483
32908W        W98069  37.579  12.213   2.803
32909W        W98070  41.575  32.835  11.921
32910W        W98071  22.070  34.888   2.471
32911W        W98072  13.807  35.531  11.008
32912W        W98073   3.257  24.451  11.768
32913W        W98074  14.748   5.268  13.513
32914W        W98075  13.134   4.738  12.698
32915W        W98076  42.292   4.805  11.934
32916W        W98077   2.042  20.615  14.952
32917W        W98078  10.668   2.789   1.974
32918W        W98079  13.704  13.594   4.226
32919W        W98080  30.867  19.458   1.591
32920W        W98081  16.539  20.585  14.800
32921W        W98082   4.775  19.269  11.647
32922W        W98083  37.111  29.665  12.814
32923W        W98084   5.632   9.891   2.254
32924W        W98085  23.124  41.959   0.269
32925W        W98086   3.988  30.573  11.130
32926W        W98087  12.129  14.701  11.257
32927W        W98088  44.558  39.354   4.156
32928W        W98089  34.420   7.154   2.219
32929W        W98090  35.080  37.247  13.857
32930W        W98091  26.188  15.281  11.263
32931W        W98092  26.752   3.957  11.581
32932W        W98093  23.755  10.431  11.979
32933W        W98094  32.567  22.789  13.429
32934W        W98095  16.277   6.705   0.947
32935W        W98096   3.764  27.564   0.017
32936W        W98097  10.361   0.684   3.513
32937W        W98098  22.361  14.106  11.834
32938W        W98099   3.961   3.957  13.744
32939W        W98100   2.915  28.241   1.199
32940W        W98101  18.216   5.367   3.675
32941W        W98102  17.486  30.121   1.606
32942W        W98103  23.723  38.557   2.810
32943W        W98104  21.620  23.962  13.821
32944W        W98105  36.117   6.680  11.165
32945W        W98106  35.953  26.451  13.934
32946W        W98107  36.136  24.141   3.322
32947W        W98108   7.971  28.565  11.123
32948W        W98109  11.163  42.456  12.668
32949W        W98110  20.629  30.692   2.943
32950W        W98111  14.409  38.124  12.352
32951W        W98112   7.257   9.172   2.808
32952W        W98113   1.824  16.590  11.999
32953W        W98114  18.744   2.259   3.613
32954W        W98115  16.761  43.129   3.122
32955W        W98116  11.847  44.134  14.095
32956W        W98117  19.708  23.271  11.029
32957W        W98118  12.161  19.002  12.478
32958W        W98119  42.803   4.803   1.875
32959W        W98120  23.117  25.568   0.283
32960W        W98121  37.426  42.792   2.450
32961W        W98122   3.420   8.237   1.897
32962W        W98123  20.170  31.815  13.169
32963W        W98124  29.012  29.713  11.019
32964W        W98125   0.384  35.011  12.830
32965W        W98126  42.134  25.290  13.042
32966W        W98127  39.311  23.455  12.346
32967W        W98128  24.289  12.314   1.657
32968W        W98129  26.493   5.445   3.666
32969W        W98130  19.125  36.281   2.829
32970W        W98131  20.818  25.604  13.589
32971W        W98132  38.529  28.744  11.059
32972W        W98133  32.106  39.429  14.555
32973W        W98134  43.425  28.572   1.974
32974W        W98135   4.182   0.364   3.978
32975W        W98136  39.954   5.848   1.175
32976W        W98137   0.083  37.131   0.768
32977W        W98138  10.198   9.778  14.729
32978W        W98139  19.254  30.683  14.578
32979W        W98140   0.426  36.651  14.284
32980W        W98141  33.578  12.216  11.035
32981W        W98142   1.400  41.327   1.066
32982W        W98143   4.190   1.357  13.589
32983W        W98144  40.499  35.453   4.190
32984W        W98145   4.620  15.763   5.117
32985W        W98146   8.430  32.596  12.265
32986W        W98147  22.708  37.615  14.067
32987W        W98148   2.873  43.951   3.547
32988W        W98149   9.689  40.878  14.590
32989W        W98150  10.912  39.031  10.988
32990W        W98151  14.881  31.477  11.143
32991W        W98152   5.782  15.993   3.425
32992W        W98153  11.866  38.401  10.689
32993W        W98154   3.346  29.182  12.941
32994W        W98155  15.483   1.183  13.434
32995W        W98156  10.152  22.572   2.260
32996W        W98157  31.352   4.911   1.197
32997W        W98158   5.371  35.518   4.455
32998W        W98159  29.161  41.717  13.844
32999W        W98160  42.811   3.912  11.180
33000W        W98161  21.232  24.745   3.381
33001W        W98162  10.935  12.720  13.758
33002W        W98163  26.924  39.542  10.388
33003W        W98164  13.783  41.868   3.156
33004W        W98165  33.528  33.834  13.564
33005W        W98166  44.209  35.307  11.564
33006W        W98167   1.652  42.244  12.493
33007W        W98168   2.042   1.831  12.115
33008W        W98169  23.770  18.075   4.262
33009W        W98170  20.610  43.562  11.394
33010W        W98171   8.171  40.516   1.282
33011W        W98172   4.713  44.431  12.876
33012W        W98173  24.257  25.725   3.717
33013W        W98174  19.558  33.191   0.420
33014W        W98175   3.186   7.509  14.846
33015W        W98176  42.367   1.194  11.566
33016W        W98177  27.907  39.423   4.166
33017W        W98178   2.857  21.670  13.280
33018W        W98179  36.721  13.623   3.602
33019W        W98180  19.440  16.867   2.343
33020W        W98181  26.662  41.680  12.522
33021W        W98182  28.348   4.240  13.948
33022W        W98183  19.707  19.007   3.580
33023W        W98184  19.128   0.193  11.889
33024W        W98185  17.158  12.113  11.648
33025W        W98186  27.107  24.183   3.067
33026W        W98187  18.933  29.586   3.217
33027W        W98188  21.265   7.453  10.352
33028W        W98189  20.508  17.441  14.580
33029W        W98190  42.232   5.068  11.097
33030W        W98191  36.564  35.936  10.324
33031W        W98192  36.472  12.963   4.539
33032W        W98193  29.123  10.634  12.285
33033W        W98194  31.878  10.773   1.318
33034W        W98195  23.710  33.454   1.219
33035W        W98196  21.051  42.888  14.961
33036W        W98197  43.525  16.596  13.852
33037W        W98198  32.040   6.720   3.399
33038W        W98199  11.852   5.490   4.032
33039W        W98200  13.013  41.291  12.646
33040W        W98201  15.532  22.511   1.922
33041W        W98202  44.548  26.373  12.131
33042W        W98203   7.574   9.167   0.886
33043W        W98204  15.209   9.744   4.571
33044W        W98205  12.360  25.236  14.516
33045W        W98206   9.645   7.154   3.140
33046W        W98207  13.897   5.639  14.935
33047W        W98208  30.598  38.335  14.388
33048W        W98209   9.829  39.726   4.137
33049W        W98210  28.446  39.036   1.880
33050W        W98211  26.689  20.772  11.152
33051W        W98212  20.289  38.232   4.620
33052W        W98213   5.808   5.213  10.427
33053W        W98214  34.979   5.282   0.525
33054W        W98215  18.548  40.573   1.328
33055W        W98216   3.928  41.100   4.677
33056W        W98217  42.061  17.664   1.283
33057W        W98218  13.795  40.623  10.789
33058W        W98219  31.628  28.589  12.940
33059W        W98220  20.633  36.022   0.770
33060W        W98221  26.466  40.136   3.154
33061W        W98222  24.082  10.874   2.165
33062W        W98223  37.830  41.900   1.404
33063W        W98224   9.789   7.596  12.025
33064W        W98225   2.968  38.223   1.106
33065W        W98226  15.538  18.523   3.753
33066W        W98227   4.468   4.595  14.774
33067W        W98228  28.627   5.978   3.266
33068W        W98229  13.150  39.513  13.596
33069W        W98230   6.959  10.975   4.049
33070W        W98231  40.054  21.036   2.827
33071W        W98232  38.285  33.072   4.142
33072W        W98233  16.204  32.914  13.902
33073W        W98234   7.330  24.735  13.910
33074W        W98235   8.391  30.130  10.620
33075W        W98236  13.311  42.495  13.566
33076W        W98237  35.377  24.647  10.655
33077W        W98238  10.281  27.326  12.905
33078W        W98239  22.579   9.104  14.370
33079W        W98240   2.600  17.440   2.345
33080W        W98241  34.745  16.243  12.118
33081W        W98242  10.789   5.322  11.944
33082W        W98243  18.327  11.198  13.997
33083W        W98244  37.515  44.739  12.480
33084W        W98245  27.644  22.569   0.995
33085W        W98246  38.837   7.800  13.476
33086W        W98247  14.212  11.176  11.599
33087W        W98248  34.144  39.841   0.275
33088W        W98249  42.399  41.947  12.078
33089W        W98250   4.799  12.609  11.777
33090W        W98251  36.145  42.936  11.202
33091W        W98252  21.446  21.377   5.066
33092W        W98253   2.351  22.513  14.953
33093W        W98254   6.331   9.088  13.490
33094W        W98255  30.520  11.392  11.134
33095W        W98256  19.691  27.964  12.020
33096W        W98257  14.331   7.910   1.325
33097W        W98258   2.725  23.723   4.422
33098W        W98259  26.737  12.685  12.907
33099W        W98260  36.398   5.284  11.269
33100W        W98261  34.390  19.468  12.901
33101W        W98262   0.861   8.618  11.083
33102W        W98263  31.337  44.874  12.041
33103W        W98264  26.368   7.593   1.262
33104W        W98265  14.805   8.186   2.191
33105W        W98266  30.629  29.386   0.826
33106W        W98267  37.887   4.310  13.444
33107W        W98268  28.527   3.090   0.221
33108W        W98269  14.264  22.467  11.107
33109W        W98270  16.297  36.615  11.206
33110W        W98271  25.018  19.067  11.897
33111W        W98272  14.618  13.383   0.178
33112W        W98273   3.804  15.284  12.508
33113W        W98274  44.412  42.720   9.557
33114W        W98275  14.604   9.416   1.590
33115W        W98276  34.037  13.086   1.357
33116W        W98277  24.451  29.137   1.162
33117W        W98278  26.636  33.889  14.715
33118W        W98279  18.186  37.284   4.832
33119W        W98280  23.318  13.229  11.679
33120W        W98281  29.147   4.899  13.600
33121W        W98282  17.965  31.609   2.647
33122W        W98283  27.126  35.483   4.649
33123W        W98284  25.180  27.612  11.510
33124W        W98285  11.954   7.232  13.839
33125W        W98286  21.787  28.408  11.893
33126W        W98287  22.619  35.500   2.798
33127W        W98288  18.961  28.442   0.848
33128W        W98289   8.260   0.349   0.179
33129W        W98290   2.841   0.777   4.389
33130W        W98291  30.506  20.279  14.776
33131W        W98292   8.762  27.968  10.720
33132W        W98293  25.666  37.867   3.752
33133W        W98294  25.493  44.750   4.066
33134W        W98295  41.866  38.358   3.657
33135W        W98296  42.800   2.242  13.489
33136W        W98297  15.414  18.617   4.584
33137W        W98298  19.945  24.579   0.761
33138W        W98299  12.746  38.850  11.632
33139W        W98300   3.032  32.858  13.019
33140W        W98301  15.718  26.927   2.212
33141W        W98302  40.445  37.939  11.067
33142W        W98303  22.342   1.576  13.988
33143W        W98304  12.540  30.395   3.701
33144W        W98305  23.494  19.044   1.765
33145W        W98306  10.659  25.623   1.468
33146W        W98307  25.714  17.165  11.461
33147W        W98308   4.995  17.820   4.556
33148W        W98309   2.333  39.872  11.597
33149W        W98310  37.315  30.055  10.773
33150W        W98311  37.345  21.807   4.217
33151W        W98312  18.353  12.213  12.979
33152W        W98313  27.517  43.048  11.552
33153W        W98314  40.419  34.477   4.622
33154W        W98315   6.115   0.516  11.139
33155W        W98316  13.131  23.846  12.010
33156W        W98317  26.408   5.509  11.473
33157W        W98318  14.527  16.360  14.883
33158W        W98319  21.575  29.067  14.284
33159W        W98320  18.019   1.732  13.096
33160W        W98321   2.810   1.362  14.760
33161W        W98322  12.183  29.512  10.439
33162W        W98323  36.118  32.893   0.894
33163W        W98324  34.941   7.462   3.541
33164W        W98325  33.597  21.483   2.995
33165W        W98326  15.206   1.013  11.635
33166W        W98327  27.818  42.551  14.872
33167W        W98328  44.139  28.701  10.768
33168W        W98329   1.037  25.689  11.015
33169W        W98330   0.088  35.186   4.386
33170W        W98331  24.650  25.046   2.895
33171W        W98332  21.561  38.588   3.144
33172W        W98333  40.083  24.322   2.491
33173W        W98334  36.327  33.219  14.532
33174W        W98335  10.536  25.142  11.621
33175W        W98336  43.444  39.307   0.733
33176W        W98337  43.799  15.552  12.329
33177W        W98338   1.437   6.333   0.381
33178W        W98339  23.978  11.857   2.640
33179W        W98340  29.949  12.650  11.596
33180W        W98341  12.250  10.772   4.307
33181W        W98342  44.080  32.922  13.007
33182W        W98343   2.809  32.988  10.457
33183W        W98344  19.987  30.552  13.862
33184W        W98345  12.903  27.971  13.374
33185W        W98346   9.009   0.242  14.421
33186W        W98347  25.088  32.713  14.780
33187W        W98348  20.960  16.195   1.746
33188W        W98349  12.586  10.109   1.430
33189W        W98350  23.044  23.404   4.092
33190W        W98351   0.069  10.119   0.517
33191W        W98352  14.230  44.979   4.176
33192W        W98353  41.543   7.604  14.968
33193W        W98354  18.647  11.480   1.725
33194W        W98355   5.620  24.098   2.951
33195W        W98356  12.179  39.794   3.634
33196W        W98357  41.662  37.457   1.476
33197W        W98358  24.943  41.757  10.689
33198W        W98359  44.842   2.224  12.525
33199W        W98360   0.472  16.499   4.466
33200W        W98361  44.299  40.760  11.052
33201W        W98362  12.799  21.244  13.744
33202W        W98363  33.924  21.599  11.834
33203W        W98364   3.154  33.325  11.533
33204W        W98365  34.055  16.137  13.631
33205W        W98366   3.909  24.093   3.169
33206W        W98367  41.890  14.152   1.354
33207W        W98368  11.707   5.487  12.538
33208W        W98369  43.523  13.322  10.757
33209W        W98370  24.341  18.226   2.156
33210W        W98371   2.133  20.440  14.464
33211W        W98372   8.286  16.169  10.599
33212W        W98373   7.388  35.425  12.024
33213W        W98374   8.433  14.743   1.831
33214W        W98375  38.002   3.964  11.545
33215W        W98376   0.640  10.668   4.556
33216W        W98377  14.255  32.850   0.396
33217W        W98378  22.253  16.295   1.327
33218W        W98379  22.725  21.229  10.632
33219W        W98380  37.625  24.393   0.238
33220W        W98381   4.542   2.813   1.479
33221W        W98382   2.924   1.669   2.895
33222W        W98383  27.407  41.011   1.454
33223W        W98384   8.779  35.605   2.317
33224W        W98385  28.636  39.363   2.486
33225W        W98386   2.623  43.322  12.433
33226W        W98387  34.691  42.529  13.420
33227W        W98388  16.409  40.561   2.833
33228W        W98389   0.637   4.707   1.227
33229W        W98390  16.359  18.475  12.437
33230W        W98391  11.773  30.780  13.444
33231W        W98392  19.395  43.376   3.537
33232W        W98393   6.837  32.117  14.501
33233W        W98394  25.098   9.610  14.780
33234W        W98395   1.010  34.900  11.613
33235W        W98396   5.035  32.401  11.544
33236W        W98397  14.025  38.798  14.040
33237W        W98398  17.878  30.205   1.176
33238W        W98399   4.818  28.605   2.306
33239W        W98400  30.728   5.891  12.510
33240W        W98401   1.447  10.918   0.805
33241W        W98402  37.513  26.369  14.130
33242W        W98403  11.484  29.003   4.104
33243W        W98404  31.127  28.002  11.841
33244W        W98405  36.542  15.284  11.645
33245W        W98406   4.242  18.394   0.336
33246W        W98407  21.522  21.556  14.519
33247W        W98408  42.038  16.286  11.061
33248W        W98409  35.011   3.952  13.505
33249W        W98410   6.866   8.701   3.616
33250W        W98411   8.748   0.860  11.598
33251W        W98412  29.761  39.566   1.464
33252W        W98413  21.582  31.115  13.535
33253W        W98414  18.080  33.108  14.394
33254W        W98415   5.501   2.400  12.821
33255W        W98416  33.423  39.084  12.184
33256W        W98417  34.457  25.112   0.139
33257W        W98418  18.271  11.833   1.695
33258W        W98419  34.031   1.703  14.828
33259W        W98420  15.910  38.622   4.071
33260W        W98421   4.477  38.390   3.083
33261W        W98422  20.903  16.443  12.052
33262W        W98423  31.140  33.001  11.612
33263W        W98424   9.097  20.757  14.789
33264W        W98425  22.483  20.488   0.798
33265W        W98426  25.562  36.388  13.336
33266W        W98427  21.977  10.116   2.404
33267W        W98428  11.204   5.149   4.730
33268W        W98429   2.953  24.222  12.099
33269W        W98430  15.598  27.731   3.414
33270W        W98431  21.604   3.852  11.458
33271W        W98432  36.369  34.227  11.996
33272W        W98433  11.273  27.110   0.730
33273W        W98434  16.063  31.366   0.431
33274W        W98435  28.008  42.456   4.377
33275W        W98436   8.716  32.379  14.794
33276W        W98437  12.289  17.035   4.549
33277W        W98438  26.791  36.301   2.016
33278W        W98439  23.738  27.783  13.059
33279W        W98440  22.251  38.588   2.792
33280W        W98441  25.627  19.417   4.073
33281W        W98442  38.872   6.737   0.860
33282W        W98443   0.823  13.027  14.839
33283W        W98444  26.765  43.445   0.852
33284W        W98445  30.200  13.962   1.414
33285W        W98446  11.358  43.762   1.654
33286W        W98447  26.987  37.904  12.477
33287W        W98448  18.066  10.825   3.183
33288W        W98449  11.411  25.059   3.067
33289W        W98450   6.709  15.641  11.586
33290W        W98451  13.216   8.285  10.756
33291W        W98452  20.726   5.807   1.250
33292W        W98453  27.176  26.642   0.942
33293W        W98454   5.219   2.859  12.114
33294W        W98455  37.448  27.522  13.341
33295W        W98456  18.112  21.688   0.805
33296W        W98457  22.482  16.219   5.842
33297W        W98458   7.651  35.426  13.391
33298W        W98459  22.429  15.804  10.255
33299W        W98460   1.995  28.593   3.768
33300W        W98461   4.124  33.951  14.759
33301W        W98462   7.943  37.446  10.641
33302W        W98463  10.872   1.557  13.403
33303W        W98464  35.641  44.202  13.423
33304W        W98465  33.043  21.251  10.731
33305W        W98466  19.078  12.269   1.254
33306W        W98467  34.894  43.491   4.290
33307W        W98468  12.687   4.352   3.542
33308W        W98469   7.763   1.047   0.771
33309W        W98470  35.396  29.551  14.266
33310W        W98471  37.534  36.219  11.299
33311W        W98472  32.626  14.308  11.041
33312W        W98473  26.054  16.408   1.873
33313W        W98474  17.121  37.566  13.111
33314W        W98475   9.094  12.807   1.238
33315W        W98476  34.247  31.363  11.478
33316W        W98477  30.705  19.785  14.372
33317W        W98478  43.409   5.437  13.162
33318W        W98479  23.133  38.347   3.827
33319W        W98480  12.862  37.471   3.645
33320W        W98481  23.273  22.647   3.135
33321W        W98482   9.760  41.919   3.859
33322W        W98483  11.078   2.474   3.273
33323W        W98484  42.783  20.150   4.578
33324W        W98485   7.507   7.001   0.466
33325W        W98486  28.619  12.020  14.015
33326W        W98487   9.633  37.006  13.337
33327W        W98488  17.341  44.971  13.417
33328W        W98489   1.621  33.506   4.149
33329W        W98490   7.788  15.334  11.523
33330W        W98491   9.348   5.197   3.150
33331W        W98492  37.088   4.048   1.305
33332W        W98493  29.554  29.374   1.861
33333W        W98494   3.902  16.749   3.371
33334W        W98495  44.327  28.612   3.651
33335W        W98496  13.229  39.962   3.728
33336W        W98497  26.348  13.849   5.224
33337W        W98498  43.940  23.157   1.448
33338W        W98499  34.948   7.904   2.252
33339W        W98500   3.762  24.649   3.333
33340W        W98501  33.580  39.429   1.660
33341W        W98502  21.018  23.452   2.721
33342W        W98503  38.117  31.621  13.333
33343W        W98504   1.912  14.234  13.032
33344W        W98505  18.198   5.287  12.951
33345W        W98506  20.989   2.223   0.075
33346W        W98507  14.783  21.525  13.292
33347W        W98508   5.728   0.821   1.419
33348W        W98509  44.431  23.574  12.397
33349W        W98510  20.924   7.248  12.439
33350W        W98511   3.994   9.340   0.031
33351W        W98512  36.367  22.983   4.810
33352W        W98513  18.961  31.095  13.342
33353W        W98514  12.937   6.837  11.993
33354W        W98515  31.663  39.155  11.486
33355W        W98516   8.501   4.555   1.695
33356W        W98517   4.980  14.539   1.888
33357W        W98518  23.065  13.084   3.694
33358W        W98519  32.509  39.562  12.950
33359W        W98520  30.934   3.220  13.043
33360W        W98521  25.485  13.178  13.086
33361W        W98522  29.062  38.813  12.441
33362W        W98523   5.037  40.913   1.363
33363W        W98524   6.840   7.228   2.913
33364W        W98525   2.830   8.082  11.070
33365W        W98526  33.076  28.246   0.975
33366W        W98527  12.727   8.212  12.839
33367W        W98528  24.086   7.439  13.972
33368W        W98529  23.240  13.301  12.196
33369W        W98530   8.654  31.105  13.807
33370W        W98531  33.109  42.727  11.092
33371W        W98532   5.176  27.915   0.794
33372W        W98533   7.301  23.519   3.354
33373W        W98534   6.296  17.953   0.864
33374W        W98535  23.199  43.484  14.869
33375W        W98536  20.505   5.512  12.572
33376W        W98537  29.133   1.983   4.170
33377W        W98538   2.394  40.416   0.797
33378W        W98539  35.500  11.985   0.440
33379W        W98540  44.842   0.733  12.511
33380W        W98541  39.910  18.482  13.501
33381W        W98542  40.060  38.736   1.155
33382W        W98543  10.280  43.313  11.814
33383W        W98544  22.031  12.679  11.020
33384W        W98545  16.587   5.678  13.701
33385W        W98546  21.316  35.771   2.364
33386W        W98547   1.524   7.158   2.269
33387W        W98548   0.208  42.782   3.631
33388W        W98549  39.396  35.116   3.291
33389W        W98550   5.688  18.806   3.911
33390W        W98551  35.932  22.479  13.878
33391W        W98552  42.253  19.967  13.261
33392W        W98553  22.724  32.460  14.396
33393W        W98554  42.101  16.121   2.917
33394W        W98555  35.314  20.794  13.930
33395W        W98556   4.218  37.480  14.835
33396W        W98557  13.243  30.049  11.106
33397W        W98558  29.076  27.960   3.027
33398W        W98559  44.196  41.983  11.493
33399W        W98560  30.597  15.066  14.805
33400W        W98561   9.587  13.102   3.968
33401W        W98562   6.427  29.691  12.954
33402W        W98563   9.050   0.536  12.995
33403W        W98564  25.116  43.326  11.613
33404W        W98565  38.229   0.981   1.446
33405W        W98566  41.870  40.061   2.202
33406W        W98567  27.162  22.760  11.143
33407W        W98568  44.047   9.455  14.499
33408W        W98569  28.635   0.068  12.008
33409W        W98570  11.275  17.513  10.451
33410W        W98571  27.258  20.327  11.236
33411W        W98572  29.079  44.230  11.953
33412W        W98573  10.222   2.855   3.639
33413W        W98574   5.178  31.021  11.458
33414W        W98575  18.645   8.933   2.376
33415W        W98576  18.975  24.055   3.717
33416W        W98577  28.506  36.605   2.367
33417W        W98578   2.793  26.111  10.760
33418W        W98579   2.026   5.846   2.225
33419W        W98580  20.731  12.187   2.141
33420W        W98581   3.295  21.065  10.656
33421W        W98582  18.566  18.713   0.426
33422W        W98583   8.710  11.368   0.912
33423W        W98584   7.737   1.527   1.043
33424W        W98585  36.074  44.723  12.462
33425W        W98586  19.093  42.413   2.145
33426W        W98587  34.037  20.688  11.165
33427W        W98588  12.678   0.515  12.884
33428W        W98589   7.154   8.771   4.111
33429W        W98590   8.951   9.628   1.759
33430W        W98591  23.094  41.958  14.714
33431W        W98592   4.192  28.083   4.106
33432W        W98593  31.348  35.316  13.076
33433W        W98594   0.540  10.851   3.851
33434W        W98595  11.806   6.367   2.784
33435W        W98596   9.308  30.570  14.313
33436W        W98597  36.066   2.474   1.903
33437W        W98598  40.944  22.376   3.470
33438W        W98599  27.417  22.517  10.719
33439W        W98600   4.890  15.351  11.511
33440W        W98601  29.795   2.050   0.818
33441W        W98602  32.208  11.698  12.504
33442W        W98603  39.984  39.541  12.983
33443W        W98604  28.572   7.428  12.477
33444W        W98605  42.974  34.534   4.359
33445W        W98606   3.472  14.177   4.217
33446W        W98607  21.649  23.590  10.523
33447W        W98608   1.010  23.664   3.298
33448W        W98609  36.612  19.759   1.210
33449W        W98610  29.855  18.000   4.272
33450W        W98611  41.305  35.540  14.458
33451W        W98612  43.036  33.689   3.332
33452W        W98613  30.362  10.493  12.833
33453W        W98614  30.331  38.007  13.260
33454W        W98615  20.128  36.507  13.706
33455W        W98616  23.011   3.232  11.758
33456W        W98617  15.305  12.649   1.965
33457W        W98618  36.941   6.219   4.054
33458W        W98619  39.539  27.916   4.065
33459W        W98620   7.860  13.316   2.443
33460W        W98621  39.035   3.524   0.666
33461W        W98622  44.983  23.040   0.078
33462W        W98623   9.685  14.799  12.495
33463W        W98624  38.711  15.988   3.573
33464W        W98625  34.454  18.520  13.830
33465W        W98626  34.913  14.038   0.019
33466W        W98627   2.314  30.361  13.791
33467W        W98628  44.917  43.930   3.155
33468W        W98629  39.044  44.167   4.123
33469W        W98630  11.712   2.156   2.326
33470W        W98631  28.064   0.991   0.389
33471W        W98632  19.103  11.681   2.473
33472W        W98633  38.554  33.845   1.759
33473W        W98634   2.703  34.902  14.787
33474W        W98635  23.573  35.517   4.038
33475W        W98636  12.246  21.661   2.468
33476W        W98637  35.940  36.806   4.663
33477W        W98638  23.958  33.821   3.854
33478W        W98639   2.990  24.566  11.343
33479W        W98640  27.440  27.126   4.675
33480W        W98641  12.045  34.354  11.908
33481W        W98642  44.351  40.937  12.281
33482W        W98643  37.255  16.766   2.688
33483W        W98644  11.665  39.884   1.265
33484W        W98645  21.503  28.630   0.820
33485W        W98646  21.563  24.459   0.307
33486W        W98647  14.413  16.729   0.744
33487W        W98648  31.661  28.110  14.898
33488W        W98649  14.536  10.321   5.087
33489W        W98650  40.894   4.124  14.959
33490W        W98651  18.735   2.830  11.673
33491W        W98652   0.470   6.816  14.694
33492W        W98653  29.388  12.864   9.849
33493W        W98654  14.571   6.317   3.668
33494W        W98655  14.447  21.201   2.354
33495W        W98656   5.122  15.434   5.005
33496W        W98657   5.046   1.742   3.257
33497W        W98658  35.476  38.854  14.082
33498W        W98659  26.280  11.614   1.792
33499W        W98660  24.390  36.452  11.254
33500W        W98661  44.591  32.201  12.622
33501W        W98662  36.443  33.398  12.941
33502W        W98663  24.982  42.897   3.734
33503W        W98664   7.421  40.040  13.489
33504W        W98665  40.104  25.073  11.540
33505W        W98666  37.454  12.774  14.977
33506W        W98667  19.049   4.057   1.395
33507W        W98668  43.441  34.403   4.554
33508W        W98669   3.977  39.279   0.438
33509W        W98670  28.997   0.655   4.639
33510W        W98671  11.483  22.326   3.725
33511W        W98672  43.211  36.139  14.040
33512W        W98673  28.699  42.431   1.271
33513W        W98674   2.945   7.234   0.806
33514W        W98675  34.472  15.805  11.673
33515W        W98676  40.239  23.103  10.738
33516W        W98677   8.171   7.333   2.612
33517W        W98678  21.117  30.694   2.765
33518W        W98679  43.930  20.686   4.591
33519W        W98680  14.411  38.804  12.701
33520W        W98681   9.907  27.846  11.224
33521W        W98682  19.764  12.673  10.747
33522W        W98683  24.460  31.122  11.561
33523W        W98684  12.765  41.057   3.277
33524W        W98685   4.086  38.874  14.951
33525W        W98686  12.430  27.076   4.552
33526W        W98687  24.572  30.032   1.228
33527W        W98688   5.769  16.055  14.559
33528W        W98689  11.236  36.964  10.634
33529W        W98690   4.078  11.597  12.833
33530W        W98691  17.959  14.917  14.267
33531W        W98692  20.374  19.600  12.317
33532W        W98693  15.643   6.615  13.493
33533W        W98694  42.238  32.713  14.777
33534W        W98695   9.225   1.356  14.882
33535W        W98696  10.254  23.490   1.284
33536W        W98697  22.759  36.925   0.940
33537W        W98698  20.531  41.386   4.696
33538W        W98699  33.041   9.366   1.763
33539W        W98700   0.215  14.685   4.080
33540W        W98701  15.183  36.933  10.967
33541W        W98702  27.178  42.982   2.178
33542W        W98703   2.980  41.320   0.884
33543W        W98704   5.883  28.776   1.454
33544W        W98705  12.135  20.343  12.573
33545W        W98706  22.076   3.481   0.874
33546W        W98707   3.361   5.388   0.778
33547W        W98708  25.523  43.896  11.863
33548W        W98709  30.425  34.394  14.349
33549W        W98710  41.966  25.148   3.363
33550W        W98711   6.551  27.026  12.993
33551W        W98712   0.136  18.043   3.190
33552W        W98713   6.320  26.586  11.116
33553W        W98714  37.035  15.778  14.374
33554W        W98715  39.103   7.892  12.526
33555W        W98716  17.020  21.434   3.267
33556W        W98717   9.118  27.226  14.872
33557W        W98718  29.477   1.898  11.065
33558W        W98719  14.786  16.175  11.159
33559W        W98720  17.211   9.346  12.078
33560W        W98721  34.319  42.947  13.413
33561W        W98722  18.247   5.737  13.170
33562W        W98723  18.630   0.519  14.978
33563W        W98724  37.061  16.361  13.354
33564W        W98725  28.159  28.689   0.559
33565W        W98726  22.066   0.670   1.249
33566W        W98727  22.541  42.280  11.552
33567W        W98728  12.091  19.857  14.500
33568W        W98729  12.232  28.077  11.016
33569W        W98730  35.663  32.359  13.045
33570W        W98731  37.368  14.211  12.089
33571W        W98732  34.120  20.453  12.974
33572W        W98733  26.481  31.497  12.052
33573W        W98734  27.141  19.739   4.603
33574W        W98735  39.738  39.660   2.608
33575W        W98736  19.775   1.309   4.045
33576W        W98737  17.038  14.364  11.639
33577W        W98738  23.514   3.524  12.345
33578W        W98739  40.748  10.754  13.784
33579W        W98740  26.577  29.126   1.392
33580W        W98741  43.284  41.499   3.183
33581W        W98742  13.684  33.632  12.584
33582W        W98743  10.709  34.677  12.479
33583W        W98744  34.651  44.303   0.254
33584W        W98745   9.208  19.230  11.389
33585W        W98746   9.565  26.548   4.148
33586W        W98747  22.211  34.649  12.027
33587W        W98748   8.909  36.183  14.378
33588W        W98749  36.472   6.097   4.837
33589W        W98750  14.013  17.092   4.044
33590W        W98751   9.201  31.289   2.806
33591W        W98752  24.570  19.475  14.962
33592W        W98753  11.296  43.777  10.728
33593W        W98754  12.771  17.361   4.512
33594W        W98755  27.497  12.237  14.481
33595W        W98756   9.808  25.405  14.951
33596W        W98757  38.338   1.187  12.423
33597W        W98758  36.556  31.451   0.542
33598W        W98759  43.474  27.641   4.999
33599W        W98760  14.423   2.400  13.229
33600W        W98761  28.562  17.706   1.460
33601W        W98762  25.600  44.843  11.274
33602W        W98763  10.512  25.110  14.387
33603W        W98764  34.536  27.475  14.260
33604W        W98765   1.834  44.706  13.972
33605W        W98766  15.283  41.754   4.589
33606W        W98767  41.832  30.016  12.482
33607W        W98768  37.338  40.298  10.748
33608W        W98769  37.914  43.334   2.883
33609W        W98770  15.381   5.748  14.680
33610W        W98771   7.459  33.463   2.675
33611W        W98772  13.995  41.824   3.632
33612W        W98773  20.288  35.701  12.283
33613W        W98774  35.070  19.713   4.573
33614W        W98775  23.667  20.710   3.684
33615W        W98776  15.687  12.103  14.666
33616W        W98777  39.929  13.984   0.106
33617W        W98778  37.173  39.506   0.740
33618W        W98779  21.266   2.728  13.828
33619W        W98780  39.714  17.097  12.740
33620W        W98781  14.339   5.540   4.562
33621W        W98782   5.906  43.879   2.252
33622W        W98783  19.141  30.266   3.714
33623W        W98784   6.170  33.892   2.819
33624W        W98785  29.576   0.759   0.850
33625W        W98786  28.102  41.328  13.472
33626W        W98787  44.310  41.469  14.093
33627W        W98788  34.835   9.361  11.970
33628W        W98789  16.299  26.232   3.188
33629W        W98790  10.880  32.481  14.319
33630W        W98791   4.467  35.947  10.763
33631W        W98792  24.974  36.069  14.495
33632W        W98793  23.234  41.441   5.039
33633W        W98794  25.470  29.874  11.461
33634W        W98795  19.335  11.301  13.699
33635W        W98796  36.390  21.143   1.013
33636W        W98797   8.231  28.782  10.714
33637W        W98798   9.373  41.937  11.012
33638W        W98799  36.118  24.107   0.260
33639W        W98800   6.975   5.323   4.712
33640W        W98801   7.583  27.313   5.028
33641W        W98802  40.963  13.371   3.801
33642W        W98803  30.450  15.607  11.677
33643W        W98804   3.127  25.297  10.709
33644W        W98805  30.897  18.639   4.535
33645W        W98806  19.704   9.662   4.413
33646W        W98807  24.464  35.279  13.851
33647W        W98808  38.116  41.020   2.396
33648W        W98809  13.236  26.492   3.971
33649W        W98810   8.972  35.359   2.748
33650W        W98811  27.220   5.620   0.801
33651W        W98812  18.661  44.816  13.861
33652W        W98813  23.202   5.948   0.556
33653W        W98814  11.687  30.930   3.660
33654W        W98815  31.570  13.732  12.989
33655W        W98816  11.147  32.682   1.925
33656W        W98817  18.038  34.334   1.403
33657W        W98818  35.563  25.709   3.235
33658W        W98819   5.314  31.448   1.240
33659W        W98820   8.530  15.609  11.686
33660W        W98821  37.717   4.756   0.294
33661W        W98822  43.964  44.269  12.915
33662W        W98823  16.774  16.473  14.294
33663W        W98824  23.670  22.492  11.655
33664W        W98825   9.890  23.928  12.022
33665W        W98826  34.592   4.692   2.387
33666W        W98827  10.827  17.643  13.513
33667W        W98828  18.042  38.007  13.999
33668W        W98829  42.376  44.185   2.517
33669W        W98830  22.756  27.406   4.344
33670W        W98831  13.156   1.128   2.652
33671W        W98832  10.676  20.060  14.910
33672W        W98833  30.438  22.127  14.226
33673W        W98834  43.027   9.829  13.486
33674W        W98835  38.330   1.423   3.756
33675W        W98836  35.942  13.043   1.258
33676W        W98837  20.615  44.282  13.339
33677W        W98838   9.673   6.915   3.705
33678W        W98839  40.593   1.706  13.301
33679W        W98840  32.135   8.897  12.925
33680W        W98841  44.417   2.659  13.780
33681W        W98842   6.494   0.465  12.881
33682W        W98843  25.592   1.528  11.933
33683W        W98844  26.351  31.858   4.128
33684W        W98845  42.270  18.791  12.575
33685W        W98846  30.133   7.849  10.709
33686W        W98847  27.694  34.492  12.515
33687W        W98848  40.275   8.658  14.396
33688W        W98849   7.152  30.534  12.545
33689W        W98850  31.265  29.513  11.796
33690W        W98851  19.016  25.974   1.000
33691W        W98852  37.135  36.393  13.895
33692W        W98853  23.470  18.135  12.038
33693W        W98854  39.545  35.988  13.567
33694W        W98855  36.780   0.737   0.392
33695W        W98856  32.627  33.097  11.959
33696W        W98857  25.872  23.418   0.394
33697W        W98858  44.593  19.512   1.971
33698W        W98859  39.945   3.133   2.263
33699W        W98860  16.135   7.312  13.754
33700W        W98861  37.160   5.191   0.909
33701W        W98862  38.137  25.580   1.829
33702W        W98863  33.812  18.639   4.515
33703W        W98864   3.001  14.868   2.268
33704W        W98865  25.437   9.803  11.598
33705W        W98866  11.982  34.696  14.524
33706W        W98867   7.798  29.402  11.966
33707W        W98868  27.418  36.772  14.956
33708W        W98869  37.421  11.369  13.934
33709W        W98870  23.506  11.428  11.828
33710W        W98871  24.247  29.639  11.608
33711W        W98872   2.452   2.960   4.138
33712W        W98873  19.048  19.805   0.254
33713W        W98874  44.238  28.624  13.382
33714W        W98875   6.253  43.087  12.486
33715W        W98876  25.393  17.539  13.868
33716W        W98877  11.603  31.027   2.719
33717W        W98878  36.057  23.571   1.698
33718W        W98879  17.542  16.065   1.156
33719W        W98880   7.323   5.980  11.290
33720W        W98881  23.989  30.016   0.421
33721W        W98882  30.923  28.139   1.238
33722W        W98883  26.676   4.378  13.053
33723W        W98884  23.588  11.904   1.112
33724W        W98885   5.744  22.034   0.980
33725W        W98886  26.487  38.984   2.167
33726W        W98887  30.079   5.382   2.191
33727W        W98888  20.619  17.273   1.743
33728W        W98889  39.569  38.930   1.289
33729W        W98890  21.625  12.013   0.318
33730W        W98891  31.625  28.960   3.513
33731W        W98892   9.858  10.701  12.128
33732W        W98893  20.569  34.857  10.921
33733W        W98894   0.884  14.153  14.072
33734W        W98895  16.764  43.615   4.052
33735W        W98896   1.281  20.626  10.771
33736W        W98897   5.261   3.699   0.417
33737W        W98898  28.863  19.863   4.163
33738W        W98899  41.587   7.686  11.252
33739W        W98900   6.434  34.357   2.645
33740W        W98901  37.194  38.133  11.407
33741W        W98902  26.075  31.560   1.453
33742W        W98903  18.491  17.121   2.242
33743W        W98904   0.997  11.610   3.617
33744W        W98905  28.177  16.183   1.323
33745W        W98906   0.428  27.192   2.437
33746W        W98907   0.903  22.338  10.977
33747W        W98908   3.912   5.977  12.974
33748W        W98909   1.195  10.124   2.461
33749W        W98910  24.687   8.163  12.007
33750W        W98911   7.506  37.357   2.668
33751W        W98912  22.747  11.150  11.280
33752W        W98913  40.376  44.988   2.679
33753W        W98914   1.279  14.453   4.893
33754W        W98915  28.027  39.876  10.692
33755W        W98916  42.377  33.568  10.512
33756W        W98917  30.392  23.677  14.814
33757W        W98918   8.918  30.522  10.768
33758W        W98919  31.175   0.895   1.345
33759W        W98920  35.097  43.555  14.447
33760W        W98921  21.711  27.161   4.670
33761W        W98922  33.380  12.859   0.567
33762W        W98923  12.506   5.403   4.672
33763W        W98924  13.157  30.520   0.950
33764W        W98925  12.153  25.450   4.091
33765W        W98926  33.675  14.819   9.797
33766W        W98927  43.358  27.253  12.590
33767W        W98928  16.213  38.334  14.469
33768W        W98929  27.528  34.446  13.840
33769W        W98930  16.256  31.673   3.657
33770W        W98931  23.642  44.843  14.018
33771W        W98932   7.916   7.606   3.700
33772W        W98933  23.047  16.383   4.989
33773W        W98934  40.724  34.915  14.799
33774W        W98935   3.368   9.151   0.277
33775W        W98936  27.623   6.267   3.964
33776W        W98937  28.431  35.658   3.924
33777W        W98938   3.835  37.642  14.549
33778W        W98939  36.591  29.393   1.192
33779W        W98940  42.771   4.390  10.320
33780W        W98941  33.085  43.751   4.152
33781W        W98942  12.893  15.370  12.100
33782W        W98943   5.697  32.584  14.464
33783W        W98944  24.113  10.451  12.975
33784W        W98945   6.729   7.242  10.736
33785W        W98946  19.902  38.758  10.567
33786W        W98947   6.164  29.712   2.114
33787W        W98948   3.393   1.886  11.135
33788W        W98949  11.212  18.879  14.478
33789W        W98950  16.270  24.432  12.919
33790W        W98951  10.929  18.069  11.960
33791W        W98952  22.025  35.873  14.873
33792W        W98953  21.548  13.161  14.873
33793W        W98954  22.735  22.582  13.448
33794W        W98955  20.198   2.429   3.420
33795W        W98956  10.215  15.580  12.414
33796W        W98957  40.877  17.758  11.789
33797W        W98958  30.941  17.309   2.288
33798W        W98959  32.083  19.054  13.139
33799W        W98960  12.220  39.926  12.878
33800W        W98961  25.032  26.355   0.944
33801W        W98962  43.667  10.980  10.068
33802W        W98963  14.295  37.565  11.690
33803W        W98964   2.856  18.873   2.286
33804W        W98965  35.420  43.108  12.591
33805W        W98966  38.756  43.737   4.166
33806W        W98967  13.657   5.293   3.793
33807W        W98968  15.962  23.733  11.524
33808W        W98969  18.183   0.229   1.921
33809W        W98970  22.458  29.438  14.264
33810W        W98971  12.708   0.809   3.810
33811W        W98972   3.718  29.679   3.299
33812W        W98973  20.715  32.814  12.522
33813W        W98974   5.190  31.621  10.178
33814W        W98975  18.557  37.573   3.125
33815W        W98976  42.888  10.826  12.411
33816W        W98977  15.828   0.056  10.445
33817W        W98978   5.684  15.679  13.758
33818W        W98979   5.910  27.249   4.148
33819W        W98980   4.947  25.678  12.455
33820W        W98981  44.089  44.133   3.391
33821W        W98982  31.987  32.989   2.856
33822W        W98983  38.010   5.051  11.227
33823W        W98984   6.749  15.123  10.710
33824W        W98985   0.149  41.372   4.462
33825W        W98986  33.646  31.627  14.246
33826W        W98987  22.702  17.556   2.640
33827W        W98988  34.699   7.920  13.953
33828W        W98989  37.559  16.350   2.641
33829W        W98990  26.925  16.068  12.155
33830W        W98991  20.294  30.619   0.857
33831W        W98992  41.100  22.070   4.280
33832W        W98993  20.927  23.109  11.686
33833W        W98994  20.382   6.522  12.577
33834W        W98995   1.562   4.909   3.714
33835W        W98996  15.682  31.734  13.947
33836W        W98997   3.516  30.259  11.192
33837W        W98998  28.524  26.904  11.957
33838W        W98999  25.582   1.955   3.112
33839W        W99000   5.964  12.051   2.800
33840W        W99001  44.122  16.654   1.659
33841W        W99002   1.940  34.897   0.483
33842W        W99003   8.734  24.717  14.328
33843W        W99004  18.644  13.487  11.951
33844W        W99005  40.016  30.114  11.720
33845W        W99006  29.231  16.225   2.322
33846W        W99007  30.618  15.898  12.074
33847W        W99008  42.739  12.620   0.768
33848W        W99009  11.982  43.069  11.200
33849W        W99010  16.517   8.704   4.593
33850W        W99011  24.517  36.543  14.701
33851W        W99012  12.849  43.279  13.355
33852W        W99013  26.305  28.960   2.782
33853W        W99014   2.308  33.379  14.921
33854W        W99015  28.230  38.776   3.755
33855W        W99016   0.248  13.700  12.118
33856W        W99017  30.052   1.289  12.594
33857W        W99018   1.131  13.218  14.395
33858W        W99019  17.243  35.865   4.126
33859W        W99020   5.753  26.553  13.919
33860W        W99021   5.058  10.621   0.760
33861W        W99022   8.633  35.222  14.215
33862W        W99023  23.701  28.970   2.487
33863W        W99024  37.575   8.375   3.883
33864W        W99025  13.988  31.441  13.030
33865W        W99026  20.261  13.439   2.936
33866W        W99027   5.985  22.014  12.118
33867W        W99028  13.212  28.108   2.611
33868W        W99029  18.389  26.716   2.764
33869W        W99030  22.086  35.974   4.665
33870W        W99031   1.494  10.573   0.354
33871W        W99032  34.000  12.015  14.847
33872W        W99033  39.730   2.288   3.235
33873W        W99034  13.100  37.820  14.379
33874W        W99035  25.926  13.642  12.942
33875W        W99036   0.634   3.554  11.245
33876W        W99037   6.545  10.277  10.961
33877W        W99038   0.531  36.974  12.615
33878W        W99039  31.274  14.098  13.585
33879W        W99040  41.381  18.564  12.190
33880W        W99041  24.432  28.608   0.970
33881W        W99042   8.633   4.389  13.309
33882W        W99043  27.699   5.464   0.272
33883W        W99044  17.793  16.105   2.348
33884W        W99045   7.452  21.269   2.865
33885W        W99046  40.881  13.847   0.930
33886W        W99047  26.033   6.210  10.493
33887W        W99048  25.259  41.213  11.495
33888W        W99049   6.770  21.576  11.465
33889W        W99050  17.809   0.032   2.374
33890W        W99051  39.878   8.726  13.753
33891W        W99052  40.774  28.931   0.442
33892W        W99053  31.532  39.009  10.642
33893W        W99054  10.394  19.462  12.208
33894W        W99055   2.942  10.348   2.796
33895W        W99056  23.686  16.771  14.200
33896W        W99057  37.546  31.085   3.006
33897W        W99058  29.540   3.020  13.847
33898W        W99059  10.211  30.029   3.895
33899W        W99060  32.241   1.698  11.728
33900W        W99061  10.194  42.945  11.478
33901W        W99062  37.365  37.036   4.234
33902W        W99063  20.739  20.383   4.510
33903W        W99064  12.247   6.876  14.728
33904W        W99065  14.665  17.779   4.163
33905W        W99066   9.341  14.198  14.121
33906W        W99067  30.154  23.681   2.197
33907W        W99068  30.303  21.481   4.639
33908W        W99069  41.043  31.165   0.858
33909W        W99070  38.465  32.976   2.867
33910W        W99071  32.432  21.290   1.732
33911W        W99072  14.696  26.665  10.746
33912W        W99073  27.976  29.487  14.322
33913W        W99074  36.032   7.311   2.451
33914W        W99075  31.015  34.598   5.072
33915W        W99076  31.561  37.358   2.339
33916W        W99077   7.858  33.582  14.439
33917W        W99078   2.370  29.151  11.628
33918W        W99079  37.156   7.277   2.883
33919W        W99080   3.644  41.999  12.948
33920W        W99081  37.850  26.402   1.371
33921W        W99082  28.428  40.450  12.172
33922W        W99083  25.637   0.234   0.806
33923W        W99084  13.871  18.136   3.171
33924W        W99085  43.152  38.064  12.410
33925W        W99086  40.735  42.511  10.734
33926W        W99087  41.015  38.767  11.286
33927W        W99088  15.989  33.542  11.084
33928W        W99089  29.166   9.654   0.311
33929W        W99090  27.920  42.046  13.931
33930W        W99091  32.811  13.651  14.369
33931W        W99092  23.154  23.279  13.096
33932W        W99093  33.017  20.664  10.305
33933W        W99094  17.103  20.182  12.032
33934W        W99095   8.707  27.610   3.050
33935W        W99096  40.414  31.157   1.438
33936W        W99097  36.150  32.638  10.754
33937W        W99098  32.347   2.387   2.302
33938W        W99099  14.888  27.105  10.585
33939W        W99100  32.883  11.660  14.398
33940W        W99101  18.648  35.422  10.442
33941W        W99102   6.738   5.648   1.393
33942W        W99103   1.915   2.322  12.080
33943W        W99104  21.651  15.667   4.647
33944W        W99105  10.953  23.976  13.287
33945W        W99106   9.328  30.528   4.490
33946W        W99107  11.219  34.985  14.468
33947W        W99108  29.635  30.159   3.275
33948W        W99109  15.520  17.400   2.603
33949W        W99110  43.365  31.485  12.573
33950W        W99111  33.906  44.771  12.481
33951W        W99112  43.199  30.036   4.620
33952W        W99113   3.181  10.024   1.455
33953W        W99114  14.268  23.008  11.128
33954W        W99115  32.974  35.427  14.897
33955W        W99116   4.611  21.653   2.939
33956W        W99117  28.535  43.360   3.538
33957W        W99118  42.487  11.747   2.837
33958W        W99119  40.066   6.222  14.564
33959W        W99120  15.096  42.947   1.229
33960W        W99121  39.738  14.768   2.751
33961W        W99122  24.660  17.702   3.662
33962W        W99123   6.769  28.384   0.489
33963W        W99124  25.273  23.110  11.638
33964W        W99125  12.430  44.711  11.049
33965W        W99126  24.421   6.925   1.427
33966W        W99127   5.945   1.682   3.413
33967W        W99128   3.832  13.851  14.369
33968W        W99129  38.888  20.054   2.659
33969W        W99130  30.508   6.185  10.501
33970W        W99131  15.277  20.523  10.311
33971W        W99132   9.341  35.836   4.616
33972W        W99133  12.108  14.841   2.653
33973W        W99134  35.817  13.519  13.994
33974W        W99135  25.879  37.056  11.830
33975W        W99136  15.786  28.200  13.394
33976W        W99137  32.159  41.964   3.062
33977W        W99138  42.757  33.719   2.083
33978W        W99139  22.201   4.807   1.185
33979W        W99140  28.088  41.298  12.680
33980W        W99141  17.819  40.899  14.491
33981W        W99142  20.636   7.115   2.231
33982W        W99143  30.880  33.999   1.222
33983W        W99144  10.453   9.968  11.010
33984W        W99145   7.521  44.944   3.753
33985W        W99146  35.364   5.284   4.606
33986W        W99147  11.375  13.586   4.323
33987W        W99148   4.439   2.176  14.951
33988W        W99149  28.517  32.543   0.943
33989W        W99150  30.809  18.166   2.803
33990W        W99151  10.422   8.129  11.576
33991W        W99152  25.776  28.579   0.736
33992W        W99153  13.829  38.876   3.272
33993W        W99154   8.188  27.889  12.044
33994W        W99155  42.401  34.329   0.856
33995W        W99156  34.822   7.489  14.599
33996W        W99157  31.929  38.565  13.970
33997W        W99158  30.394  38.786  11.043
33998W        W99159  26.886  30.590  11.825
33999W        W99160  42.150  14.284  11.882
34000W        W99161   8.091  22.633  12.873
34001W        W99162  37.947  34.047  10.930
34002W        W99163   0.088  41.921   4.134
34003W        W99164  32.578  36.465   1.232
34004W        W99165  33.379  44.419   4.508
34005W        W99166  44.966  39.071   4.339
34006W        W99167   7.276  12.794  11.649
34007W        W99168   5.120  27.539  13.994
34008W        W99169   6.362  35.314   4.497
34009W        W99170   3.045  22.273  11.590
34010W        W99171  13.179  43.786   1.965
34011W        W99172  16.093   4.249  10.512
34012W        W99173   5.929  25.034   1.254
34013W        W99174  43.704  33.721   0.640
34014W        W99175   9.410  13.669  14.802
34015W        W99176  18.807  44.106   3.336
34016W        W99177   8.050  34.003   3.127
34017W        W99178  40.557  22.698  10.807
34018W        W99179  21.089  28.577  11.098
34019W        W99180  15.891  29.915   4.984
34020W        W99181   4.589  26.556   1.298
34021W        W99182   8.294  25.891  11.132
34022W        W99183  36.381  24.005  13.829
34023W        W99184  31.508  19.373   3.028
34024W        W99185  32.072  29.508  14.898
34025W        W99186   3.303  29.067   1.243
34026W        W99187  20.115  13.198  11.192
34027W        W99188  14.077   2.339  12.854
34028W        W99189  34.437  42.405   4.302
34029W        W99190   9.317  31.083  14.427
34030W        W99191   8.258  14.574   3.296
34031W        W99192  11.960   7.346   0.952
34032W        W99193  43.497  33.955  12.520
34033W        W99194  41.358  17.110   2.365
34034W        W99195  19.615  36.394   2.731
34035W        W99196  41.058  35.920  13.335
34036W        W99197  30.476  40.379   2.834
34037W        W99198   1.439  39.292   2.040
34038W        W99199  43.052  10.819  11.918
34039W        W99200  20.097  21.651   4.176
34040W        W99201  21.484  36.626   3.711
34041W        W99202  18.999  44.816  11.138
34042W        W99203  24.648  25.111  13.449
34043W        W99204  42.396  25.407  13.776
34044W        W99205   4.512  15.735  14.360
34045W        W99206  16.693  44.513  13.335
34046W        W99207  22.476  43.918  14.967
34047W        W99208   0.199  43.303   3.595
34048W        W99209  29.927  38.367   4.353
34049W        W99210  41.779  34.574  12.168
34050W        W99211  27.744  38.534  12.271
34051W        W99212  40.992  24.478  14.370
34052W        W99213  21.980  21.118   4.937
34053W        W99214   2.636  24.195   0.422
34054W        W99215  17.176  26.976  14.059
34055W        W99216  30.489  40.908   5.077
34056W        W99217  30.168  14.081  11.920
34057W        W99218  12.209  20.684  12.964
34058W        W99219  44.018  34.811  14.895
34059W        W99220  14.268   2.988  12.296
34060W        W99221  13.372  28.190  13.341
34061W        W99222   7.846   0.028   0.924
34062W        W99223   8.412   2.862  13.056
34063W        W99224  15.230   8.319  12.485
34064W        W99225  35.547  30.083  13.677
34065W        W99226   7.054  40.429  13.531
34066W        W99227  26.672  44.270   4.685
34067W        W99228  17.784   9.018  11.627
34068W        W99229   7.601   4.235   0.714
34069W        W99230  34.350   0.915  11.169
34070W        W99231  42.080  21.702  12.035
34071W        W99232  11.133  41.279   0.864
34072W        W99233  30.705   5.825  11.630
34073W        W99234  39.433   6.149  14.334
34074W        W99235  10.748   7.686   2.175
34075W        W99236   1.053   8.317  12.923
34076W        W99237   0.505   9.846   4.933
34077W        W99238  14.887  35.110  14.286
34078W        W99239  12.938  29.432   1.856
34079W        W99240  29.623   6.272  12.022
34080W        W99241  25.080   3.416  13.322
34081W        W99242  31.594  25.170   3.161
34082W        W99243  12.064  32.017   4.564
34083W        W99244  27.544  22.174   2.403
34084W        W99245  32.013  18.629  12.854
34085W        W99246  30.639  25.213   0.940
34086W        W99247  37.061  44.746   1.746
34087W        W99248  19.554  35.190  10.670
34088W        W99249   1.018   9.442   4.129
34089W        W99250  43.443  34.670  13.848
34090W        W99251   0.582   6.795  12.422
34091W        W99252   8.893  13.351  10.724
34092W        W99253   3.889  25.073   3.592
34093W        W99254   6.715  13.199   1.154
34094W        W99255  38.930  26.530   4.622
34095W        W99256  23.505  34.779   0.262
34096W        W99257  12.340   0.281   1.295
34097W        W99258  36.952  32.624   0.296
34098W        W99259  28.385  31.913   1.851
34099W        W99260  40.820  42.581   2.633
34100W        W99261  12.000  17.011   3.585
34101W        W99262   3.381  37.066  14.912
34102W        W99263  41.968  22.209   4.360
34103W        W99264  15.993  13.817  10.533
34104W        W99265  19.076  34.809   4.687
34105W        W99266   3.744  24.087  10.999
34106W        W99267  43.750  37.958  13.947
34107W        W99268  41.842  29.134  10.731
34108W        W99269  12.600   2.294  10.750
34109W        W99270   5.838   2.721  11.535
34110W        W99271   7.392  29.070  12.117
34111W        W99272   0.741  44.848   0.837
34112W        W99273  18.507   8.384   0.786
34113W        W99274  25.231  34.055   2.830
34114W        W99275  19.649  14.684   3.800
34115W        W99276   7.774  39.426  10.627
34116W        W99277  15.189  27.557  13.737
34117W        W99278  27.021   7.160   0.270
34118W        W99279   2.820  16.019   4.481
34119W        W99280   0.769  24.074  13.376
34120W        W99281  33.078  10.371   2.670
34121W        W99282   2.894  12.739   2.345
34122W        W99283  10.838  36.604   3.197
34123W        W99284  20.002  18.686   3.296
34124W        W99285  25.695  34.899  10.548
34125W        W99286  32.869  24.638   3.684
34126W        W99287  22.568  15.188   2.800
34127W        W99288   3.976  42.997  11.417
34128W        W99289   2.559   9.508  12.377
34129W        W99290  34.017  23.939   9.684
34130W        W99291  28.124  31.700  14.481
34131W        W99292  41.256  33.391   1.999
34132W        W99293  40.356  31.942  14.375
34133W        W99294  18.196  20.070  13.460
34134W        W99295  33.355  10.045   4.553
34135W        W99296   3.152  40.922   3.770
34136W        W99297  39.858  25.430   0.705
34137W        W99298  36.446  33.444  12.404
34138W        W99299  15.229  39.231   1.878
34139W        W99300   6.942  16.173  10.675
34140W        W99301  31.921  15.729  13.405
34141W        W99302  16.214  31.237   0.902
34142W        W99303  17.650  36.575   4.355
34143W        W99304  23.673  21.116   1.666
34144W        W99305  14.932  34.966   4.575
34145W        W99306  35.428   4.350   3.916
34146W        W99307  33.801  11.132  11.507
34147W        W99308  10.252  39.995  13.694
34148W        W99309  33.527  44.164  13.255
34149W        W99310  10.152  10.368  12.938
34150W        W99311  20.005  24.174   1.635
34151W        W99312  28.783   3.183   4.950
34152W        W99313  43.928  40.029  12.568
34153W        W99314  12.695   4.065   4.661
34154W        W99315  31.980  15.182  10.414
34155W        W99316  23.767   3.040  12.315
34156W        W99317  20.192  11.037   1.776
34157W        W99318  39.526  43.518  13.425
34158W        W99319  16.005  33.926  12.657
34159W        W99320   7.007   8.387   4.665
34160W        W99321   5.854  18.133  11.017
34161W        W99322   3.698  31.395   0.755
34162W        W99323  41.509  41.509   3.477
34163W        W99324  34.474  19.022   0.147
34164W        W99325  21.166  24.116   0.162
34165W        W99326  18.203  14.229  12.257
34166W        W99327   0.240  33.329   3.845
34167W        W99328  27.532  13.913  14.525
34168W        W99329  22.125   9.344  14.305
34169W        W99330  38.922  27.839   2.172
34170W        W99331  21.998  42.337   2.251
34171W        W99332  23.512  22.134  12.847
34172W        W99333  22.665  29.817  10.074
34173W        W99334   3.216  30.993  11.596
34174W        W99335  32.826  37.397   1.651
34175W        W99336  15.121  11.759   0.915
34176W        W99337  36.095  14.284  11.237
34177W        W99338  26.772  34.186   1.118
34178W        W99339  21.959  28.777  11.564
34179W        W99340  34.591  21.011  10.803
34180W        W99341   7.426   9.439  11.226
34181W        W99342   4.208  24.043   1.312
34182W        W99343   7.346  15.780  12.962
34183W        W99344  15.454   3.231   2.355
34184W        W99345  12.366  11.769  14.846
34185W        W99346   5.333  13.291  13.542
34186W        W99347  43.260  44.520  12.954
34187W        W99348  31.180  38.935  13.018
34188W        W99349  27.996   4.911  10.941
34189W        W99350  14.327  25.267  11.285
34190W        W99351   3.727  36.286   1.351
34191W        W99352  43.791  41.448  14.914
34192W        W99353  43.711  38.946  14.780
34193W        W99354  44.223   2.767  10.633
34194W        W99355  20.449  20.559  10.226
34195W        W99356  35.795  42.047  12.058
34196W        W99357   4.649   8.384  13.088
34197W        W99358   3.337   1.424  10.379
34198W        W99359   8.822  30.877   3.328
34199W        W99360  10.262  19.663   4.105
34200W        W99361  28.392   6.101  11.420
34201W        W99362  14.276  18.597   2.216
34202W        W99363  22.265  23.072   1.785
34203W        W99364  40.273  41.317   4.186
34204W        W99365   7.825  30.569   0.558
34205W        W99366  26.565  13.802   2.933
34206W        W99367  14.577  27.450  14.899
34207W        W99368   4.384  11.308   0.067
34208W        W99369  28.612  27.585   2.212
34209W        W99370  43.474  35.029  12.609
34210W        W99371  14.162  43.272  13.928
34211W        W99372  37.934  30.865  13.894
34212W        W99373  23.647  22.226  14.448
34213W        W99374  29.888   5.864  12.985
34214W        W99375   4.029  27.473   0.451
34215W        W99376  43.055   3.587  12.102
34216W        W99377  35.966  11.725  12.890
34217W        W99378  41.984  40.882   3.671
34218W        W99379   4.700  22.019   0.192
34219W        W99380  42.332   0.541  10.730
34220W        W99381  22.515  34.484   0.306
34221W        W99382   0.436  20.598   3.896
34222W        W99383  12.165  42.215   4.969
34223W        W99384  25.660  31.239   3.393
34224W        W99385  34.444  20.538  13.828
34225W        W99386  14.171   0.015   1.444
34226W        W99387  24.417  30.392   4.603
34227W        W99388   4.179  10.127  12.306
34228W        W99389  11.230   7.869   0.736
34229W        W99390  41.391  25.043   0.420
34230W        W99391  21.216  14.844  13.300
34231W        W99392  41.524  34.585   0.887
34232W        W99393   7.089  21.594  13.680
34233W        W99394  11.867  31.127  14.825
34234W        W99395  30.146  33.985  10.748
34235W        W99396  13.903  28.191  14.185
34236W        W99397  44.409   4.611   4.125
34237W        W99398  22.431  13.156  12.510
34238W        W99399  37.380   4.720  12.962
34239W        W99400   1.924  41.138  14.741
34240W        W99401   3.512   7.891  14.749
34241W        W99402  26.693  41.030   2.782
34242W        W99403  15.068  11.074  11.094
34243W        W99404  43.328   3.739  11.371
34244W        W99405  13.868  44.100   5.061
34245W        W99406  35.543  30.471   1.408
34246W        W99407   7.405  21.326  12.944
34247W        W99408  27.631  21.867   2.824
34248W        W99409  43.323  30.621   2.134
34249W        W99410   2.427   6.918  13.357
34250W        W99411  32.323  27.128   4.532
34251W        W99412  41.348  14.359   4.526
34252W        W99413  15.612  23.030   1.748
34253W        W99414  16.354   2.746  13.396
34254W        W99415  21.098  38.408   3.232
34255W        W99416   1.372  31.142  10.661
34256W        W99417  26.965  28.170  11.167
34257W        W99418  36.983  14.070  12.912
34258W        W99419  14.010   2.855  14.533
34259W        W99420  44.518   2.465  11.104
34260W        W99421  32.859  26.719   0.203
34261W        W99422  13.819   4.757   4.721
34262W        W99423  15.799  10.290   2.717
34263W        W99424  32.647  34.924   1.688
34264W        W99425   2.276  28.219  12.014
34265W        W99426  42.515  33.834  13.771
34266W        W99427  32.487  38.894   1.383
34267W        W99428  32.176  31.311  13.614
34268W        W99429  11.687  10.166   1.196
34269W        W99430  41.274  34.456   4.073
34270W        W99431   2.541  15.881  10.660
34271W        W99432  20.670  37.418  14.747
34272W        W99433  11.864  18.728   1.605
34273W        W99434  28.435  18.740  10.775
34274W        W99435  16.679  19.535  14.372
34275W        W99436  39.584  29.675  11.117
34276W        W99437  30.016   6.785  12.537
34277W        W99438  14.071  23.570  13.850
34278W        W99439  12.718   0.212  14.015
34279W        W99440  30.957  40.172   2.347
34280W        W99441  14.172  24.573   3.915
34281W        W99442   7.680   1.214   3.780
34282W        W99443  31.208  16.024   3.491
34283W        W99444  10.773   1.188  13.956
34284W        W99445  29.958  18.908   2.095
34285W        W99446  15.313  11.580  11.993
34286W        W99447  38.952  12.862   2.913
34287W        W99448  13.014  35.750   4.766
34288W        W99449  44.722  12.060   3.752
34289W        W99450  19.394  15.400  10.017
34290W        W99451  20.733  36.823   4.894
34291W        W99452  22.499   1.399  13.506
34292W        W99453  21.329  21.349  12.985
34293W        W99454   6.855  23.746   4.115
34294W        W99455  14.427  23.671  10.569
34295W        W99456  43.643  33.832   1.574
34296W        W99457  29.217  43.407  10.660
34297W        W99458   9.913  29.050   4.786
34298W        W99459   7.743   0.248  12.041
34299W        W99460  36.353   7.254  13.438
34300W        W99461  28.892  20.282   0.391
34301W        W99462  13.758  27.915  14.853
34302W        W99463   2.433  25.229   2.283
34303W        W99464   3.365  20.049  10.660
34304W        W99465   4.010   1.963  12.913
34305W        W99466  33.526  33.388   4.131
34306W        W99467  22.676  27.631  12.684
34307W        W99468  16.751   4.149   0.419
34308W        W99469  15.146  17.885  12.240
34309W        W99470  37.486  40.702   1.249
34310W        W99471   6.779  21.135  11.208
34311W        W99472   3.368   0.323  10.225
34312W        W99473  18.692   3.448   3.830
34313W        W99474  25.585  39.074   1.013
34314W        W99475   6.722  41.960  13.472
34315W        W99476  41.366  15.491   3.253
34316W        W99477  22.152  36.379   1.484
34317W        W99478  32.795   5.656  12.802
34318W        W99479  16.373  13.764  14.570
34319W        W99480  36.091  44.299   3.178
34320W        W99481  35.504  15.845   0.036
34321W        W99482  34.876   5.276   3.240
34322W        W99483  19.804  29.451   0.340
34323W        W99484  44.457  19.457   4.648
34324W        W99485  38.885  17.305  14.330
34325W        W99486  30.993   5.878  11.201
34326W        W99487  19.572  22.021   3.173
34327W        W99488  29.952  14.704   3.045
34328W        W99489  25.469  10.280  14.994
34329W        W99490  38.178   5.086  12.390
34330W        W99491  15.553  14.717  13.476
34331W        W99492  36.207  15.789   1.658
34332W        W99493  18.164  23.941  14.573
34333W        W99494  39.226   2.259  14.943
34334W        W99495  11.284  20.684  13.084
34335W        W99496  24.312   4.825  11.211
34336W        W99497  14.236  44.205   3.569
34337W        W99498  30.956  23.044  14.314
34338W        W99499  23.126  23.200   2.319
34339W        W99500  11.066  25.219   0.246
34340W        W99501   1.756   9.200   3.704
34341W        W99502  26.723  20.135  12.484
34342W        W99503   9.338  34.403  10.857
34343W        W99504  15.282  13.345  12.457
34344W        W99505   6.668   4.826   0.426
34345W        W99506   0.744   3.207   2.298
34346W        W99507  17.755  33.552   4.842
34347W        W99508  23.640  29.654  13.338
34348W        W99509  19.604  38.900   3.669
34349W        W99510  10.419   4.356   4.128
34350W        W99511   3.471  24.205  13.943
34351W        W99512   0.385  24.027   1.264
34352W        W99513  40.986  14.197  12.333
34353W        W99514   0.986   2.918   2.749
34354W        W99515  12.966   5.806   0.280
34355W        W99516  37.288  42.506  12.517
34356W        W99517   6.634   2.420   4.494
34357W        W99518  20.088   3.500   4.660
34358W        W99519  13.392  15.688  14.969
34359W        W99520  16.104   1.536  11.205
34360W        W99521  31.153   5.845  13.881
34361W        W99522  26.668  24.472  10.657
34362W        W99523  12.211  41.326  11.576
34363W        W99524  33.421  15.315   0.439
34364W        W99525  44.682   9.481  11.456
34365W        W99526  31.833   9.663  13.858
34366W        W99527   1.857   2.239  13.847
34367W        W99528  13.789  29.442  11.505
34368W        W99529  32.129  33.579   3.604
34369W        W99530  18.542   0.334   2.310
34370W        W99531   6.657  21.795   1.373
34371W        W99532   2.527   7.823   4.806
34372W        W99533  22.049  25.066   3.124
34373W        W99534  40.283   7.622  14.436
34374W        W99535  14.235  35.807   2.108
34375W        W99536  30.593   7.882  14.422
34376W        W99537  24.124  31.158   4.334
34377W        W99538  43.032  17.910  11.232
34378W        W99539  32.545  29.750  12.116
34379W        W99540  35.571   5.804   3.395
34380W        W99541  35.415   9.855  11.661
34381W        W99542  41.555  17.303   4.201
34382W        W99543   5.328  29.186  10.619
34383W        W99544  42.291  18.496   1.058
34384W        W99545  40.107  18.017  13.119
34385W        W99546  25.134  15.217  12.302
34386W        W99547   1.542  18.507   2.857
34387W        W99548  28.473  21.833  13.883
34388W        W99549  43.785  35.502  14.373
34389W        W99550  29.960  22.070  14.534
34390W        W99551  15.408  36.941  14.538
34391W        W99552   8.938  41.801  10.766
34392W        W99553   3.064  28.610   4.558
34393W        W99554   9.257  36.020  14.766
34394W        W99555  43.780   2.692  12.839
34395W        W99556  31.623  18.990   0.893
34396W        W99557  27.690  43.590  12.879
34397W        W99558  13.731   2.252  12.482
34398W        W99559  10.801  23.037  14.883
34399W        W99560  21.004  39.978   4.630
34400W        W99561  21.769  19.571   3.970
34401W        W99562  36.525   8.131   4.084
34402W        W99563  39.414  32.413   3.647
34403W        W99564  12.239  40.825   0.253
34404W        W99565   5.281   8.713  13.415
34405W        W99566  27.646  26.196   0.263
34406W        W99567  18.784  10.615   1.774
34407W        W99568   0.739  39.360  11.137
34408W        W99569   9.806  44.701  13.513
34409W        W99570  22.375   1.974   4.683
34410W        W99571  12.156  42.078   4.476
34411W        W99572  18.183  14.132   3.325
34412W        W99573  28.255  44.399  13.217
34413W        W99574  41.059  15.354  13.801
34414W        W99575  25.779  40.938   2.302
34415W        W99576  40.519  20.705  13.863
34416W        W99577  40.390  25.776  11.071
34417W        W99578   4.292  11.825   3.197
34418W        W99579  42.206  21.946   1.203
34419W        W99580  34.552  15.349   3.154
34420W        W99581  40.481   9.159   1.672
34421W        W99582  32.380  26.540   0.238
34422W        W99583   9.880  10.812   2.825
34423W        W99584  16.145  27.355   1.187
34424W        W99585   0.695  33.837  14.868
34425W        W99586  32.488   9.484   3.448
34426W        W99587  24.119  18.707   2.238
34427W        W99588  13.602  12.599   1.470
34428W        W99589  29.568   8.863   0.084
34429W        W99590  44.612  21.892  12.543
34430W        W99591  12.113  28.231  12.797
34431W        W99592  27.136  34.973  14.772
34432W        W99593   7.607  27.491   0.275
34433W        W99594  14.736   2.069  11.067
34434W        W99595  18.648  12.753   0.941
34435W        W99596  34.217  11.240   1.244
34436W        W99597  18.804  16.805   0.804
34437W        W99598  33.488  43.244   0.331
34438W        W99599  33.506  35.291  11.620
34439W        W99600   6.452  27.045   3.310
34440W        W99601  34.246  36.983  13.783
34441W        W99602  27.941  24.934   4.302
34442W        W99603  41.053  37.610  13.110
34443W        W99604  36.084   6.498   3.646
34444W        W99605  25.144  27.318  13.792
34445W        W99606  39.473  10.752  14.294
34446W        W99607  29.125   8.219   2.661
34447W        W99608  40.826  32.062   2.739
34448W        W99609   2.890  23.201  10.732
34449W        W99610  42.081  16.844  13.965
34450W        W99611  38.250  25.245   1.112
34451W        W99612   3.446  11.389  13.190
34452W        W99613  34.085  19.543   3.670
34453W        W99614  18.338  39.284   0.850
34454W        W99615  33.357  12.618  14.584
34455W        W99616  26.215  37.567   2.548
34456W        W99617  33.050  42.564  11.963
34457W        W99618  30.601   7.558   3.741
34458W        W99619  10.223  11.883  12.995
34459W        W99620  16.006  19.008  14.769
34460W        W99621  12.871  16.885  11.144
34461W        W99622  22.316  37.946  12.954
34462W        W99623  29.134   0.722  12.959
34463W        W99624   9.397  32.138   0.183
34464W        W99625  22.615  31.886   2.675
34465W        W99626  20.391  32.309   1.819
34466W        W99627  12.205   5.379   1.408
34467W        W99628  41.753  16.253  14.062
34468W        W99629  22.126  15.830  13.349
34469W        W99630  33.509  28.265  11.259
34470W        W99631  33.771  14.057  14.080
34471W        W99632  35.623  29.542   1.569
34472W        W99633   8.182  10.625  14.875
34473W        W99634  42.944  35.418   4.064
34474W        W99635   3.978   0.558  12.861
34475W        W99636   1.993  29.114  12.026
34476W        W99637  29.891  42.931   3.530
34477W        W99638  10.791  22.876  14.386
34478W        W99639  13.674  35.606  12.976
34479W        W99640  38.365  14.936   3.353
34480W        W99641  25.480  18.281  10.660
34481W        W99642  27.471   7.637   2.990
34482W        W99643  41.386  11.191   1.990
34483W        W99644  27.777  17.174   4.735
34484W        W99645  17.628   4.257   0.073
34485W        W99646  10.375  35.467   2.306
34486W        W99647  43.300  13.587  11.126
34487W        W99648  22.517  19.141  13.395
34488W        W99649  33.556   7.149   0.851
34489W        W99650  23.697   9.602   3.249
34490W        W99651  35.121   7.870  12.731
34491W        W99652   9.106  10.143  11.724
34492W        W99653  10.188  16.530  14.403
34493W        W99654  15.629   3.790   4.983
34494W        W99655  19.066  37.993   1.938
34495W        W99656  36.348  33.892   4.098
34496W        W99657  24.120   4.724   2.896
34497W        W99658  18.490   5.081  14.331
34498W        W99659  21.143  23.495  14.977
34499W        W99660   7.710  27.900  14.889
34500W        W99661  41.833  28.606   4.755
34501W        W99662  22.050  40.340  14.846
34502W        W99663  17.076  22.705   0.848
34503W        W99664   8.293  43.810  13.036
34504W        W99665  27.662  30.294   4.401
34505W        W99666  37.837  24.221   1.646
34506W        W99667  21.708  14.319  12.519
34507W        W99668  29.432  17.875  14.477
34508W        W99669  14.142  27.941  12.954
34509W        W99670  38.059  15.025   2.967
34510W        W99671  29.785  33.392   1.156
34511W        W99672  41.261  32.700  13.870
34512W        W99673  22.051   0.797   3.561
34513W        W99674  19.203  27.014  13.797
34514W        W99675  21.461  31.521   3.381
34515W        W99676  44.052  29.408  14.068
34516W        W99677  14.872  13.729  10.741
34517W        W99678  18.344  17.711  12.551
34518W        W99679  32.331   7.726  13.549
34519W        W99680  12.868  18.083  14.386
34520W        W99681   6.722  27.070  10.582
34521W        W99682   5.758  29.034  14.438
34522W        W99683  43.727   0.532  14.174
34523W        W99684  39.992  29.126   3.639
34524W        W99685   9.399  27.931   2.291
34525W        W99686  40.576  25.388  10.789
34526W        W99687  16.525  39.926  12.519
34527W        W99688  12.989  40.055   0.801
34528W        W99689  38.472   4.825  14.746
34529W        W99690  17.560  26.359   3.711
34530W        W99691  17.738  12.431   1.172
34531W        W99692  30.686  38.235  14.887
34532W        W99693   1.694  22.611   4.674
34533W        W99694  44.861  26.086   2.294
34534W        W99695  34.256   3.773  12.866
34535W        W99696  13.742  22.519   1.454
34536W        W99697  18.758   0.852   4.990
34537W        W99698  43.070  18.703  14.731
34538W        W99699  17.631  25.293   2.217
34539W        W99700  32.979  17.481   3.914
34540W        W99701  18.167   4.010  12.125
34541W        W99702  40.247  44.960  14.953
34542W        W99703  28.808  31.446   4.647
34543W        W99704  44.345   2.839   2.218
34544W        W99705  10.938   5.963   4.411
34545W        W99706  14.850  28.285   3.483
34546W        W99707  20.753   1.969   2.733
34547W        W99708   9.298  18.696   2.151
34548W        W99709  22.021  19.903  11.406
34549W        W99710  42.051   1.898  12.498
34550W        W99711  20.948  29.092  12.462
34551W        W99712  27.109   5.691  11.245
34552W        W99713  27.593   5.316  12.790
34553W        W99714  25.847  15.594   2.130
34554W        W99715  25.448  36.447  10.604
34555W        W99716  10.602   3.150   2.341
34556W        W99717  39.961   5.189   0.800
34557W        W99718   0.906  34.433  11.806
34558W        W99719  37.208  42.948   4.001
34559W        W99720   8.915  24.295  12.042
34560W        W99721  10.227  11.166  12.512
34561W        W99722   8.370   8.329  13.078
34562W        W99723  14.360  24.284  14.570
34563W        W99724  12.540   1.386  12.960
34564W        W99725  11.892  17.537   0.962
34565W        W99726  33.493  14.176   1.836
34566W        W99727  19.285  43.843  11.592
34567W        W99728  16.951  37.989  12.877
34568W        W99729   8.328  39.572  11.554
34569W        W99730  27.324  28.974   2.696
34570W        W99731   0.704  40.316  13.305
34571W        W99732  12.273  16.968   3.123
34572W        W99733  16.008  35.755  12.490
34573W        W99734  19.768  14.703   2.817
34574W        W99735  42.323  28.697  11.413
34575W        W99736  14.798  12.496   1.139
34576W        W99737   6.810  14.884  11.172
34577W        W99738  41.510  26.996  14.876
34578W        W99739  23.726   4.780  10.068
34579W        W99740  44.445  38.055  14.300
34580W        W99741  10.125  14.512   0.986
34581W        W99742   8.072  23.123   3.729
34582W        W99743   7.429   5.763  13.206
34583W        W99744  12.756   5.852   2.316
34584W        W99745   2.903  10.807  14.403
34585W        W99746  17.829  14.104  14.574
34586W        W99747  42.863  11.130   2.216
34587W        W99748   6.624  37.571   2.386
34588W        W99749  20.423  41.586  10.328
34589W        W99750   6.429   2.816  14.573
34590W        W99751  13.774  11.104   4.155
34591W        W99752  25.263  19.750   4.237
34592W        W99753  11.603   8.092   1.808
34593W        W99754  13.384  37.751  13.433
34594W        W99755  20.207   2.693   1.437
34595W        W99756  22.093  15.709   2.143
34596W        W99757  25.623  12.349  12.327
34597W        W99758  35.771  10.959   2.653
34598W        W99759  24.690   4.339  13.334
34599W        W99760   5.456  35.532  11.912
34600W        W99761  37.383  11.861   4.574
34601W        W99762  10.898   7.628   4.370
34602W        W99763  32.909  30.138  11.928
34603W        W99764  24.125  24.651  13.929
34604W        W99765  20.676  21.193  13.372
34605W        W99766   3.762   6.984   0.853
34606W        W99767  35.489  10.813  11.001
34607W        W99768  27.734  30.367   3.830
34608W        W99769  44.063  37.369  14.673
34609W        W99770  41.570  40.603  11.022
34610W        W99771  30.386  24.192   3.241
34611W        W99772  19.099  15.275   2.853
34612W        W99773  17.562  13.645   2.452
34613W        W99774  34.306  38.982   2.752
34614W        W99775  35.062  10.209   1.669
34615W        W99776   8.215  44.436   1.315
34616W        W99777   2.314  21.032  12.836
34617W        W99778  24.041  19.643   3.348
34618W        W99779  42.825   9.312   1.668
34619W        W99780  28.965  32.813  11.562
34620W        W99781  29.643  28.376  10.042
34621W        W99782  15.639   8.224   0.528
34622W        W99783  22.522   6.375   1.407
34623W        W99784  23.636  17.741   0.124
34624W        W99785  40.787  37.447  10.663
34625W        W99786  40.282  27.540   1.300
34626W        W99787  34.936  14.983   1.602
34627W        W99788   3.881  29.152  11.465
34628W        W99789   7.165   8.216   0.028
34629W        W99790   7.830  18.581  14.079
34630W        W99791   4.833   9.072  12.576
34631W        W99792   8.401  28.127   2.378
34632W        W99793  10.129  26.990  13.619
34633W        W99794   9.899  18.601   1.650
34634W        W99795  36.056  39.242  13.099
34635W        W99796  21.996  26.799   4.305
34636W        W99797  35.940  28.521   2.810
34637W        W99798  14.868  42.945  13.408
34638W        W99799  36.283  13.776  13.228
34639W        W99800   4.226  20.494   2.613
34640W        W99801  37.356  12.282  11.945
34641W        W99802  13.732  44.241   0.000
34642W        W99803  31.719  21.524   2.379
34643W        W99804  12.520  21.241   3.396
34644W        W99805  10.848  26.011  14.779
34645W        W99806   6.985  30.495   3.220
34646W        W99807  29.477  29.551  10.863
34647W        W99808  41.837  33.682   4.649
34648W        W99809   9.673  21.680  13.983
34649W        W99810   3.807  42.988   3.215
34650W        W99811  33.240  25.942  14.929
34651W        W99812  14.246  13.741   3.662
34652W        W99813  13.151  31.495   3.334
34653W        W99814  41.219  11.119   2.943
34654W        W99815  23.019   1.352  13.436
34655W        W99816  28.418  23.503  12.006
34656W        W99817  24.731   1.834   3.797
34657W        W99818  41.467   8.799  13.750
34658W        W99819  19.291  44.917   2.474
34659W        W99820   2.907  34.924   3.536
34660W        W99821   0.016  44.369  12.940
34661W        W99822  44.751   8.056   0.317
34662W        W99823  37.952  24.489  12.973
34663W        W99824  24.748  10.085  11.999
34664W        W99825  20.620  13.776  13.312
34665W        W99826  34.629   4.341  11.750
34666W        W99827  34.853   9.815   3.041
34667W        W99828  32.716  33.108   4.529
34668W        W99829  25.655  42.026  13.083
34669W        W99830   9.019   7.430  11.640
34670W        W99831  30.589  26.925  14.957
34671W        W99832  32.525  25.782   3.234
34672W        W99833  30.113  11.713  14.878
34673W        W99834  31.105  17.802  12.119
34674W        W99835  36.825  44.339  11.312
34675W        W99836  30.500   8.189   4.948
34676W        W99837   6.444  15.685   4.228
34677W        W99838  39.808  11.514   3.848
34678W        W99839  20.112  26.294   2.382
34679W        W99840  20.205   2.481   3.937
34680W        W99841  10.570  25.558   0.966
34681W        W99842   0.800  17.271  10.293
34682W        W99843  12.444  24.404   4.377
34683W        W99844  30.170  10.761  11.966
34684W        W99845   5.689  44.022   0.099
34685W        W99846   7.231  43.764  13.967
34686W        W99847  23.119  44.532  13.548
34687W        W99848  35.878   2.491   0.269
34688W        W99849  29.178  34.506   2.203
34689W        W99850  36.408  27.446  11.237
34690W        W99851   8.391  13.633   0.867
34691W        W99852  24.451  21.244  14.442
34692W        W99853  21.939  29.532   0.864
34693W        W99854  18.718  25.154   5.096
34694W        W99855  41.231  37.882  13.574
34695W        W99856  20.357  43.378   0.505
34696W        W99857  44.891  29.420  14.992
34697W        W99858  22.955  42.843   2.783
34698W        W99859   2.575   0.497   0.925
34699W        W99860  31.337  26.919   3.795
34700W        W99861  13.855  32.614  13.524
34701W        W99862   7.723  43.228  13.349
34702W        W99863   4.763  18.758  12.508
34703W        W99864  40.956  29.665  14.268
34704W        W99865   0.548  29.270  12.031
34705W        W99866  32.582  24.045   1.614
34706W        W99867  36.622  10.830   3.448
34707W        W99868   9.880  22.976   4.189
34708W        W99869  32.978  38.921   2.383
34709W        W99870  31.825   6.854   1.805
34710W        W99871  25.631  12.828   0.487
34711W        W99872  19.099  42.900   4.686
34712W        W99873  26.577  14.053   3.596
34713W        W99874  25.261  32.949  12.073
34714W        W99875   1.972  30.983   0.458
34715W        W99876  40.810  22.506   1.913
34716W        W99877  39.390  30.540   0.599
34717W        W99878  29.868   1.677  13.822
34718W        W99879   2.368  31.217  14.132
34719W        W99880  11.622  14.902   1.363
34720W        W99881  28.211  18.976  11.572
34721W        W99882  20.578   1.720  12.972
34722W        W99883  42.908  33.174  12.150
34723W        W99884  44.228   8.397  11.529
34724W        W99885  30.387  34.368   4.613
34725W        W99886  37.405   5.254  12.018
34726W        W99887  20.208  18.751   0.490
34727W        W99888  35.806  32.238   5.003
34728W        W99889  18.988  13.623  14.157
34729W        W99890  25.039  34.476  11.176
34730W        W99891  42.313  39.342   4.120
34731W        W99892  12.711  11.105   4.169
34732W        W99893  17.644  42.924   0.513
34733W        W99894  14.812  34.682  11.169
34734W        W99895   0.354   0.931   1.112
34735W        W99896  12.866  25.130   2.290
34736W        W99897   8.915  27.681  11.136
34737W        W99898  44.192   5.446  11.546
34738W        W99899  36.883  38.938   2.729
34739W        W99900  16.847  17.109   0.877
34740W        W99901  21.077  43.019   1.449
34741W        W99902  15.356  41.026   2.191
34742W        W99903   9.007   5.531  11.462
34743W        W99904  19.096  31.210  14.356
34744W        W99905  32.216  37.184   4.381
34745W        W99906  35.601   4.630  10.585
34746W        W99907  14.542   8.510   4.907
34747W        W99908  17.685  34.412  10.734
34748W        W99909  26.103  28.208  12.806
34749W        W99910   4.532  24.155   1.710
34750W        W99911  39.986  32.923   4.669
34751W        W99912   7.059  16.101  14.978
34752W        W99913  16.630   8.774  10.759
34753W        W99914  38.735  31.128  14.597
34754W        W99915  16.157  13.884  11.658
34755W        W99916  36.421   1.826  11.105
34756W        W99917  15.055   5.920  12.516
34757W        W99918  20.153  40.397  10.242
34758W        W99919   3.164   0.424  13.284
34759W        W99920  22.409  43.332   0.953
34760W        W99921  39.637  30.693  12.544
34761W        W99922  22.271  24.322   4.399
34762W        W99923   5.663  42.315  14.301
34763W        W99924  38.087  41.714   0.450
34764W        W99925  39.370  28.964   2.383
34765W        W99926  11.604  30.665  14.825
34766W        W99927   8.393  38.972   1.139
34767W        W99928   3.714   4.991   9.915
34768W        W99929   1.915  35.393   4.094
34769W        W99930  34.128  22.568  10.875
34770W        W99931   4.974  39.035   0.450
34771W        W99932  16.483  13.882   1.463
34772W        W99933  23.768   5.686   1.253
34773W        W99934  38.977  16.062  11.530
34774W        W99935  28.924   1.891   3.701
34775W        W99936  10.087  18.156   2.435
34776W        W99937  36.363  41.947   3.211
34777W        W99938  21.593  21.118   1.475
34778W        W99939  26.978  40.464   4.156
34779W        W99940  13.165   3.190  12.356
34780W        W99941  11.513  43.682  14.930
34781W        W99942  42.892   1.438  11.496
34782W        W99943   0.278   8.962   2.383
34783W        W99944  19.998  37.021  13.021
34784W        W99945  15.333  37.078  14.058
34785W        W99946  22.106  32.674  10.857
34786W        W99947   3.224  19.890  12.578
34787W        W99948  15.777  33.710   3.710
34788W        W99949   7.990  41.605  12.912
34789W        W99950  16.227  29.860   2.697
34790W        W99951  29.455  26.723   3.721
34791W        W99952  24.993   7.433  13.916
34792W        W99953  35.663   3.958  10.669
34793W        W99954  44.251  31.623  13.427
34794W        W99955  19.253  14.713   0.715
34795W        W99956  21.317  26.070   1.869
34796W        W99957  28.004  21.598  13.870
34797W        W99958  23.970  19.183   1.991
34798W        W99959  33.237  23.803   5.404
34799W        W99960   2.216  16.097   1.775
34800W        W99961  39.956  20.720   1.271
34801W        W99962  37.469  14.066   3.519
34802W        W99963  41.541  22.867  14.896
34803W        W99964  13.290  37.960   2.312
34804W        W99965  42.542  26.229   2.319
34805W        W99966  26.230  26.807  14.581
34806W        W99967   3.556  24.746   2.724
34807W        W99968  42.943  44.767  11.302
34808W        W99969  41.340  36.946   3.736
34809W        W99970  34.774   2.463   4.094
34810W        W99971   7.805  32.455  10.566
34811W        W99972  33.922  28.147   4.709
34812W        W99973  13.236  30.663  13.650
34813W        W99974   9.880   2.475   3.636
34814W        W99975  26.149  15.764   3.105
34815W        W99976  10.713  29.586   0.577
34816W        W99977  11.399   5.894   4.138
34817W        W99978  35.456  34.299  13.884
34818W        W99979  32.036  34.560   1.805
34819W        W99980  16.715  36.352   4.638
34820W        W99981  23.560  14.883   2.766
34821W        W99982  43.822  37.170   3.836
34822W        W99983   2.511  28.940  10.737
34823W        W99984  29.114  18.762   2.892
34824W        W99985  34.425  19.169   2.489
34825W        W99986  13.807  23.261  11.041
34826W        W99987  44.158  39.905   4.303
34827W        W99988  15.836   2.295   2.890
34828W        W99989  12.724  34.587  12.934
34829W        W99990  12.948  38.832  14.264
34830W        W99991  15.349   5.197  11.381
34831W        W99992  32.047   9.316   4.250
34832W        W99993   7.984   1.220  10.913
34833W        W99994  19.499   9.087  13.512
34834W        W99995  27.660  18.583  12.911
34835W        W99996  16.911  11.279  10.799
34836W        W99997  12.869  29.532  13.458
34837W        W99998   7.329  28.228  11.467
34838W        W99999  43.756  33.378   2.435
34839W        W    0   8.430  13.305  12.438
34840W        W    1  20.968  13.098   1.329
34841W        W    2  20.590  31.662   0.327
34842W        W    3  44.759   6.629   1.087
34843W        W    4  14.222  25.700  11.051
34844W        W    5  12.384  16.280  13.874
34845W        W    6  42.337  21.133  13.939
34846W        W    7  17.026  35.072   2.875
34847W        W    8  29.050  38.437  14.724
34848W        W    9   1.690   0.416   2.650
34849W        W   10  44.603  37.983  11.218
34850W        W   11  39.699  18.093   4.155
34851W        W   12  17.129  40.760   9.984
34852W        W   13  38.497  42.263  13.427
34853W        W   14  34.901  22.443   4.103
34854W        W   15  21.989  18.603  13.769
34855W        W   16  34.612  39.024   0.238
34856W        W   17   7.652  17.760   4.490
34857W        W   18  22.689  25.802  12.923
34858W        W   19  42.282  10.740  13.076
34859W        W   20   9.975   9.607  12.959
34860W        W   21  22.638  34.752   0.752
34861W        W   22  26.639   8.699  14.936
34862W        W   23   9.058  19.908   5.066
34863W        W   24   6.551  10.756  11.733
34864W        W   25  13.046   5.186  13.865
34865W        W   26   8.280  16.782  14.764
34866W        W   27   9.858  39.025  13.545
34867W        W   28  16.616   2.943   0.856
34868W        W   29  17.340  25.787   4.132
34869W        W   30  20.772  41.477  10.784
34870W        W   31  41.798  41.070   1.073
34871W        W   32  41.435  35.950  14.738
34872W        W   33  39.970  15.906  11.019
34873W        W   34   3.362  24.127  14.955
34874W        W   35  23.083  10.854  12.474
34875W        W   36  15.064  25.969   3.628
34876W        W   37  11.294  26.137   2.706
34877W        W   38   4.829   6.872  12.476
34878W        W   39  23.038   9.264  13.052
34879W        W   40  38.885  38.825   5.432
34880W        W   41   0.453  40.500   2.318
34881W        W   42  24.535  19.662   3.178
34882W        W   43   2.446   7.420   2.262
34883W        W   44  17.516  26.880   3.710
34884W        W   45  34.656  34.817   0.379
34885W        W   46  16.772  39.997  10.737
34886W        W   47  17.341  34.896   1.899
34887W        W   48  34.152  12.199  12.936
34888W        W   49  42.829  21.689   0.867
34889W        W   50  40.011   8.832   3.353
34890W        W   51   8.177  39.341   2.277
34891W        W   52  27.083  15.547   1.802
34892W        W   53  20.974  28.853   2.798
34893W        W   54  41.692  42.874  13.463
34894W        W   55  10.616  24.496  14.029
34895W        W   56  12.916  25.972   1.874
34896W        W   57  11.768  43.621  10.526
34897W        W   58  16.138  25.472  13.998
34898W        W   59  39.937  17.174  10.431
34899W        W   60   1.815   4.502  11.194
34900W        W   61  14.252  10.769   3.283
34901W        W   62  38.312  44.781  13.005
34902W        W   63  23.802  19.116  14.396
34903W        W   64  41.943  28.966   1.872
34904W        W   65  44.113   5.872   4.848
34905W        W   66  40.659  31.103   1.898
34906W        W   67  42.768  18.798  12.489
34907W        W   68  43.879   7.883  11.207
34908W        W   69  33.660  21.214  11.540
34909W        W   70  35.416  30.219  14.149
34910W        W   71  31.525  17.120  10.660
34911W        W   72  20.781  37.012  12.102
34912W        W   73   0.019   3.972  14.229
34913W        W   74  30.033   8.491  14.278
34914W        W   75   4.953  42.722  12.429
34915W        W   76  26.458  31.012  12.492
34916W        W   77  34.095   5.949  12.574
34917W        W   78  35.947   1.724   3.736
34918W        W   79  19.186  38.378  13.589
34919W        W   80  26.056   2.687   0.268
34920W        W   81  43.051  42.684  12.971
34921W        W   82  37.073  40.827   1.578
34922W        W   83  38.667  10.227  10.276
34923W        W   84  33.585  43.716  11.993
34924W        W   85   2.795  39.609  14.963
34925W        W   86  11.091  24.986  11.628
34926W        W   87  30.465  37.382   2.217
34927W        W   88  33.214  18.348   3.751
34928W        W   89  21.578  28.625  14.969
34929W        W   90  28.553  17.302  13.497
34930W        W   91  31.322  31.437   5.049
34931W        W   92  29.384   8.796   4.584
34932W        W   93  14.522  13.194  13.810
34933W        W   94  30.480  32.890   4.203
34934W        W   95  29.026  12.588  12.443
34935W        W   96  37.542  12.056  11.515
34936W        W   97  11.287  25.223  13.837
34937W        W   98  44.890  23.959  11.721
34938W        W   99   4.699  30.867  11.583
34939W        W  100   6.323  19.272   3.161
34940W        W  101   9.747  35.991   0.717
34941W        W  102  17.590  44.525  12.379
34942W        W  103  44.050  13.353  13.745
34943W        W  104   7.334  37.925   1.724
34944W        W  105  43.007  13.827  14.396
34945W        W  106   3.254  23.964   2.178
34946W        W  107  15.834  40.136   0.308
34947W        W  108  13.665   1.720  12.536
34948W        W  109  44.038   9.372  11.992
34949W        W  110  31.766   3.409  10.267
34950W        W  111  41.518  15.219  13.527
34951W        W  112  37.462  15.403   2.389
34952W        W  113   0.423  37.919  11.894
34953W        W  114  24.132  41.299  13.938
34954W        W  115   5.185  44.357   3.577
34955W        W  116  36.556   2.023  14.918
34956W        W  117  29.936   3.709  11.187
34957W        W  118  22.406  32.984  13.014
34958W        W  119  13.183  14.430  13.450
34959W        W  120  44.861  31.354   0.520
34960W        W  121  20.288   8.703   2.400
34961W        W  122   9.890  13.802  14.587
34962W        W  123  32.822   8.918   0.904
34963W        W  124  28.628  43.362   0.702
34964W        W  125  21.122  14.096  14.854
34965W        W  126  39.442  22.693   4.625
34966W        W  127  27.602  14.536   1.813
34967W        W  128   8.608  20.206  14.385
34968W        W  129   3.554  32.377  12.381
34969W        W  130  20.588  28.626  11.254
34970W        W  131  31.993  37.459   2.931
34971W        W  132  24.606  29.515  11.271
34972W        W  133  43.298   7.991  13.742
34973W        W  134  21.750  37.591   1.197
34974W        W  135  26.058  33.495   0.873
34975W        W  136  35.028  38.600  14.071
34976W        W  137  17.706   4.669   3.066
34977W        W  138  24.052  42.287  11.195
34978W        W  139   2.782  41.318   3.641
34979W        W  140   5.113   8.151   1.313
34980W        W  141  21.676  34.008  12.538
34981W        W  142   3.726  20.122  13.471
34982W        W  143  40.106  24.532   3.153
34983W        W  144  36.458   3.922  11.108
34984W        W  145  39.703  20.226   3.682
34985W        W  146  41.297  35.567   0.998
34986W        W  147  12.534  18.528  14.311
34987W        W  148   0.545   2.857   3.759
34988W        W  149  33.130  13.542  13.998
34989W        W  150  12.578  30.538  12.951
34990W        W  151  10.174  13.467   5.156
34991W        W  152  42.829  27.013  10.732
34992W        W  153  40.362  15.035  13.153
34993W        W  154   7.834   7.118   1.424
34994W        W  155  37.511  11.717  11.128
34995W        W  156   0.518   2.932  14.828
34996W        W  157  17.144  18.823   4.119
34997W        W  158  38.892  12.047  10.622
34998W        W  159  37.287   2.833   3.298
34999W        W  160  37.821  15.202   3.882
35000W        W  161  40.757  34.045  11.658
35001W        W  162  22.512  19.692  13.468
35002W        W  163  16.021  25.670  14.508
35003W        W  164  15.116  16.094   1.829
35004W        W  165  37.514  37.573   1.757
35005W        W  166  44.145   4.993  13.510
35006W        W  167  27.448  18.754   0.284
35007W        W  168   5.781  15.343   4.236
35008W        W  169   4.566  11.244  11.080
35009W        W  170  14.902   4.680   1.851
35010W        W  171  15.034  39.489   2.299
35011W        W  172   2.580  39.652  11.184
35012W        W  173  24.224  35.697  12.011
35013W        W  174  28.370  33.836   0.401
35014W        W  175  24.449  19.130   0.402
35015W        W  176  35.855  20.508  11.625
35016W        W  177  26.592  43.127  12.842
35017W        W  178   3.395  16.624  14.194
35018W        W  179  43.166   2.217   0.921
35019W        W  180  16.357  24.853  10.996
35020W        W  181  13.551  17.225  14.354
35021W        W  182  30.548  12.608  14.884
35022W        W  183  27.140  38.013   0.780
35023W        W  184  13.340   3.890  13.582
35024W        W  185  36.957  21.596   2.356
35025W        W  186  23.141  11.180  12.064
35026W        W  187   9.735  12.398   0.784
35027W        W  188  39.639  15.692   1.939
35028W        W  189  41.118   0.527  11.208
35029W        W  190  18.702  19.845   1.973
35030W        W  191  40.363  33.519   2.041
35031W        W  192  37.684  31.630   2.820
35032W        W  193  38.028  43.830   2.748
35033W        W  194  15.165  41.682   1.832
35034W        W  195   5.605   6.536  11.623
35035W        W  196  39.564   5.935  10.231
35036W        W  197  44.584  19.103  11.065
35037W        W  198  33.067  42.208  11.030
35038W        W  199  39.845   6.156   2.417
35039W        W  200   0.190  41.849  10.686
35040W        W  201  12.629   9.855  11.983
35041W        W  202  32.286  30.913   4.834
35042W        W  203  41.080   8.314  13.932
35043W        W  204  37.398  19.803   2.009
35044W        W  205  39.963  37.957   4.090
35045W        W  206   2.941  36.077   4.386
35046W        W  207  38.691  31.057   3.632
35047W        W  208  21.569   4.959   4.184
35048W        W  209  12.861  39.213   3.723
35049W        W  210   2.272  43.564  14.823
35050W        W  211  13.390  33.848   1.854
35051W        W  212  42.331   2.098   1.450
35052W        W  213  28.191   0.299  12.927
35053W        W  214  30.151   6.543   4.229
35054W        W  215  30.850   5.015   1.333
35055W        W  216  27.331   4.322  11.945
35056W        W  217  13.760  18.654  13.130
35057W        W  218  26.690  28.655  11.526
35058W        W  219  26.268  32.703  13.980
35059W        W  220  11.395  27.136  10.651
35060W        W  221  16.648  17.890   5.135
35061W        W  222  21.649  31.970  11.712
35062W        W  223   1.000  27.489   2.776
35063W        W  224  10.806  17.502  14.011
35064W        W  225   9.933  38.935  11.945
35065W        W  226  35.997  42.324  11.580
35066W        W  227  11.362  18.549   1.589
35067W        W  228  14.594  15.150  12.355
35068W        W  229   5.653  16.869   2.792
35069W        W  230  21.461   6.765   3.356
35070W        W  231   9.909  17.141   3.115
35071W        W  232  36.550   5.914   1.798
35072W        W  233  43.986  28.087   2.290
35073W        W  234   2.283   9.817  14.718
35074W        W  235  24.304  38.455   1.803
35075W        W  236  28.353  12.257  12.099
35076W        W  237  30.936  25.741   0.404
35077W        W  238  20.681  31.006  14.086
35078W        W  239  10.841   9.775   1.903
35079W        W  240  42.260   8.886   4.062
35080W        W  241  23.292   9.824   0.441
35081W        W  242   3.764  18.732   0.887
35082W        W  243   1.522   4.159   2.151
35083W        W  244   5.704   8.372  11.881
35084W        W  245  43.918  34.695   0.420
35085W        W  246  41.282  21.037   0.298
35086W        W  247  24.070   3.364  11.974
35087W        W  248  23.979  36.895  12.637
35088W        W  249   1.809   0.724  13.968
35089W        W  250   7.413  40.484   3.058
35090W        W  251   7.287  15.133   2.886
35091W        W  252  37.714  13.210   3.602
35092W        W  253  39.999   1.763   3.178
35093W        W  254  33.790  26.181   2.276
35094W        W  255   1.880  10.613   0.967
35095W        W  256  29.023   7.071   1.914
35096W        W  257  40.227   3.574   2.824
35097W        W  258  12.963  38.490  13.843
35098W        W  259   1.703   2.237  11.621
35099W        W  260  10.905  32.996  14.254
35100W        W  261  14.665  19.786  12.475
35101W        W  262  23.948  39.741  10.813
35102W        W  263  36.592  17.253  12.874
35103W        W  264   2.864  43.297   3.398
35104W        W  265  21.948   7.021  13.560
35105W        W  266  11.123  13.779   0.957
35106W        W  267   6.921  42.212   0.352
35107W        W  268   0.980  34.449   1.813
35108W        W  269  20.228  22.623  14.170
35109W        W  270   9.928  41.464   4.580
35110W        W  271  12.455  35.549  11.153
35111W        W  272  42.005   2.325   2.320
35112W        W  273   3.976  28.077  14.321
35113W        W  274  38.914   7.107   2.149
35114W        W  275  16.655  23.057  11.986
35115W        W  276  33.064   4.756  14.995
35116W        W  277  12.000  30.007  12.022
35117W        W  278  13.817  27.379   2.175
35118W        W  279  35.670   9.324   1.724
35119W        W  280  36.589  14.888  13.415
35120W        W  281  34.521  40.018  10.656
35121W        W  282  28.113  13.826   2.713
35122W        W  283  34.870  21.117  13.781
35123W        W  284  25.995  35.408  12.525
35124W        W  285  21.962  38.084   0.774
35125W        W  286   4.064  29.408   1.588
35126W        W  287  17.058   5.206   2.305
35127W        W  288  15.750  41.802  13.282
35128W        W  289  40.127  38.561  10.691
35129W        W  290  37.429  43.071  14.569
35130W        W  291  27.496  30.090   1.323
35131W        W  292  24.090  27.456  14.957
35132W        W  293   6.195  15.279  14.587
35133W        W  294   1.731   3.436  12.543
35134W        W  295   5.839  21.552   4.893
35135W        W  296   1.328  40.139   2.775
35136W        W  297  30.865  38.727  14.915
35137W        W  298   0.198  40.420  11.993
35138W        W  299  36.942   0.314  13.301
35139W        W  300   5.406  22.235   3.253
35140W        W  301  28.574  24.081   1.351
35141W        W  302  20.700  15.113  10.737
35142W        W  303  11.252   5.231  11.255
35143W        W  304  20.179  31.516  11.093
35144W        W  305   7.820   1.559   1.550
35145W        W  306  42.310   1.662   1.738
35146W        W  307  15.631  25.871  13.567
35147W        W  308  37.548  17.531   4.719
35148W        W  309  16.448  32.095  14.406
35149W        W  310  41.949  31.438  13.931
35150W        W  311  10.050   7.187   3.974
35151W        W  312  41.913  34.469  13.055
35152W        W  313  16.027   8.461  12.847
35153W        W  314  21.593   1.158  12.966
35154W        W  315   3.330   6.384   0.660
35155W        W  316  40.522   6.807   2.095
35156W        W  317   7.773   4.769   5.165
35157W        W  318  22.276  24.377  14.331
35158W        W  319  17.045  12.912   1.944
35159W        W  320  21.064  21.195   4.766
35160W        W  321  41.828   4.432  13.982
35161W        W  322   7.809  29.879   2.923
35162W        W  323  33.695  10.354  13.414
35163W        W  324   6.072   6.381  13.401
35164W        W  325  44.083  12.983   5.086
35165W        W  326  38.511  42.916   3.919
35166W        W  327  25.082  23.705   4.975
35167W        W  328  25.216  26.151  10.800
35168W        W  329  19.677  31.109  12.890
35169W        W  330  38.445   9.992  13.553
35170W        W  331  14.787  16.046   4.554
35171W        W  332   3.748  27.020   0.082
35172W        W  333  22.819  18.682  12.513
35173W        W  334  44.476   7.658  12.567
35174W        W  335  20.439  19.166   0.773
35175W        W  336   8.695  26.347  14.380
35176W        W  337   3.043   2.642  11.727
35177W        W  338  23.826  21.091  14.786
35178W        W  339   4.563  12.480   1.434
35179W        W  340  19.188   4.186   2.293
35180W        W  341  23.473  37.396  13.492
35181W        W  342  26.651  38.969   0.795
35182W        W  343  12.928  33.889  13.561
35183W        W  344  44.402  13.010   1.380
35184W        W  345  42.100  12.105  11.168
35185W        W  346  41.214  23.808   2.868
35186W        W  347  14.181   0.489   1.642
35187W        W  348   9.707  13.160  13.461
35188W        W  349  12.163  30.171  12.480
35189W        W  350  41.345  19.747   0.783
35190W        W  351  26.707  28.949  11.940
35191W        W  352  17.850  10.948   1.813
35192W        W  353  29.824  34.399   0.488
35193W        W  354  17.117  32.380  13.396
35194W        W  355  34.381  24.667  12.463
35195W        W  356  24.450  26.163   4.505
35196W        W  357   4.547  33.012   0.063
35197W        W  358  16.013  38.443  11.181
35198W        W  359  39.395  28.059   1.388
35199W        W  360  21.016  24.280  14.694
35200W        W  361  35.624   4.312   0.354
35201W        W  362  41.180  21.913  11.716
35202W        W  363  17.932   1.469  14.522
35203W        W  364  25.300  43.889   0.388
35204W        W  365  30.877  15.706  10.796
35205W        W  366   0.821  32.985  14.826
35206W        W  367   4.681  32.456   3.173
35207W        W  368   4.305  40.066   4.148
35208W        W  369  11.418  41.574   4.026
35209W        W  370  12.222  20.291   3.680
35210W        W  371   8.823  11.368  13.404
35211W        W  372   4.312   2.396   2.378
35212W        W  373  10.317   8.655   1.961
35213W        W  374  29.187  44.866   4.657
35214W        W  375   6.253  23.759   1.763
35215W        W  376  19.881  37.008  11.085
35216W        W  377  26.422  37.431  13.817
35217W        W  378   4.813  43.968   0.993
35218W        W  379  43.246   8.802  11.611
35219W        W  380   2.823   5.180  11.079
35220W        W  381   3.774  18.972  11.150
35221W        W  382  43.954  29.900  14.828
35222W        W  383  18.392   4.535  11.540
35223W        W  384  31.672  29.165   1.268
35224W        W  385  24.042  43.003  10.312
35225W        W  386  13.817   8.265   2.396
35226W        W  387  15.603   4.710   1.363
35227W        W  388  15.787  32.479   0.029
35228W        W  389   5.276  44.810   0.884
35229W        W  390  18.066  12.696   4.491
35230W        W  391  11.364   9.220   3.418
35231W        W  392  14.557  21.746  14.292
35232W        W  393  30.095  39.268  11.419
35233W        W  394  16.149  22.092  12.101
35234W        W  395  41.862  40.909  12.073
35235W        W  396  32.565  25.479  14.007
35236W        W  397  32.341   6.948   1.684
35237W        W  398  31.012  37.850  14.978
35238W        W  399   6.913  32.638  12.467
35239W        W  400  27.731  36.094  10.745
35240W        W  401  29.205  31.684   4.340
35241W        W  402  37.647  13.748  13.451
35242W        W  403  15.090   8.210  12.999
35243W        W  404  20.627  18.235   0.714
35244W        W  405  21.168   3.640  12.273
35245W        W  406  11.123  11.795  12.046
35246W        W  407  32.463   3.941   0.828
35247W        W  408   4.643  21.334  14.329
35248W        W  409  12.056  23.158  14.475
35249W        W  410   0.980  20.716   1.191
35250W        W  411  25.498  16.566   2.894
35251W        W  412   8.395  10.135  14.508
35252W        W  413  16.130  43.322   0.851
35253W        W  414  24.156  19.476  10.537
35254W        W  415  23.680  18.574  12.190
35255W        W  416  34.490   9.884   1.189
35256W        W  417  39.448  17.637   0.191
35257W        W  418   5.432  11.239   4.338
35258W        W  419   2.733   3.869   2.650
35259W        W  420  35.829   1.130   2.530
35260W        W  421   5.964   5.467  13.578
35261W        W  422  40.147   6.184  14.062
35262W        W  423  11.696  14.388  14.802
35263W        W  424  15.346  14.266   2.880
35264W        W  425  10.223   9.659   3.675
35265W        W  426  28.942   7.931   0.727
35266W        W  427   8.328  15.661   2.576
35267W        W  428  20.639  12.897   1.673
35268W        W  429  19.113  44.548   4.205
35269W        W  430  31.496  39.202   3.276
35270W        W  431  10.193   2.169  12.086
35271W        W  432  23.688   6.293  13.381
35272W        W  433  36.015  40.152   2.381
35273W        W  434  28.623  37.658   0.277
35274W        W  435  16.921  28.598  12.951
35275W        W  436  41.885  44.507   1.165
35276W        W  437  41.744  27.641   3.275
35277W        W  438  41.866  22.568   3.600
35278W        W  439   9.446  38.110   4.147
35279W        W  440   8.872   5.017  11.564
35280W        W  441  44.632  30.519   1.260
35281W        W  442   2.389  42.515  12.910
35282W        W  443  27.529   4.950   0.253
35283W        W  444  32.905  40.297   0.233
35284W        W  445  14.802  21.810   3.669
35285W        W  446  23.292  41.040   1.931
35286W        W  447  25.161   8.111  10.936
35287W        W  448  29.980  25.943   0.233
35288W        W  449  14.781  20.895   1.835
35289W        W  450  13.232  39.154   4.077
35290W        W  451   8.025  37.287  10.137
35291W        W  452  33.038  25.543   1.134
35292W        W  453  32.333   7.398  11.253
35293W        W  454  32.840   6.973   4.915
35294W        W  455  42.382  12.252   4.171
35295W        W  456   3.464  31.835  14.419
35296W        W  457  43.288  27.200   4.791
35297W        W  458  11.269  43.008   1.237
35298W        W  459  23.449  31.871   2.524
35299W        W  460  10.379   9.597   0.318
35300W        W  461  25.202   9.245  11.616
35301W        W  462  10.818   9.471   2.864
35302W        W  463  36.308  26.558  13.501
35303W        W  464  17.864  12.074   4.923
35304W        W  465  24.406  21.201   0.855
35305W        W  466   8.889  24.238   1.415
35306W        W  467  43.420  23.103  13.497
35307W        W  468  13.239  16.833  14.912
35308W        W  469  19.281  26.960   3.603
35309W        W  470  22.964  20.670   4.824
35310W        W  471  15.260  10.664  12.255
35311W        W  472  25.743  41.977   1.300
35312W        W  473  18.356  29.125  14.874
35313W        W  474  17.850  34.243   4.615
35314W        W  475  27.599  35.596  10.754
35315W        W  476  25.361  37.511  14.053
35316W        W  477  10.388   1.695  14.519
35317W        W  478  12.210  31.366  14.013
35318W        W  479  28.396   9.313   1.813
35319W        W  480  34.042   0.225   0.956
35320W        W  481  27.801  32.038  14.847
35321W        W  482   4.871   7.654   0.737
35322W        W  483  33.955  38.119   2.871
35323W        W  484   0.720  21.467  14.075
35324W        W  485  29.282   0.666  12.092
35325W        W  486   6.172  24.444  11.086
35326W        W  487   5.327  16.599  11.761
35327W        W  488  16.681  36.895  14.790
35328W        W  489   6.263  15.222  12.587
35329W        W  490  15.150  25.389   2.825
35330W        W  491  38.851   5.344   1.941
35331W        W  492   9.578   1.262   3.195
35332W        W  493  32.164  36.671   0.305
35333W        W  494  26.696  21.614   4.525
35334W        W  495  23.074  17.418   5.704
35335W        W  496  36.582  22.600  10.764
35336W        W  497  21.560  41.423   2.203
35337W        W  498  22.205  29.331   3.362
35338W        W  499  22.722  40.058   0.928
35339W        W  500  32.174   4.285   1.749
35340W        W  501  38.104  24.786   0.808
35341W        W  502  31.511  31.020   2.837
35342W        W  503  16.620  12.700   2.634
35343W        W  504  15.149   3.726  11.765
35344W        W  505  44.532   3.164   0.160
35345W        W  506  40.065  11.152   2.116
35346W        W  507  31.359  36.939  10.776
35347W        W  508   1.004  41.353   1.442
35348W        W  509   7.233   1.767   4.182
35349W        W  510  33.461   0.648   1.357
35350W        W  511  42.124   3.271   0.503
35351W        W  512  16.826  20.747   4.136
35352W        W  513  15.524  12.559  14.394
35353W        W  514  35.775  20.329   1.450
35354W        W  515  21.531  12.805   4.201
35355W        W  516   8.201  22.125   3.851
35356W        W  517  32.191   3.480   1.385
35357W        W  518  43.492  41.076   0.425
35358W        W  519  17.173  20.036  10.217
35359W        W  520   3.885  34.545   4.717
35360W        W  521  30.707  31.541   4.454
35361W        W  522   9.553  43.435   3.902
35362W        W  523  25.210  44.952   3.227
35363W        W  524  18.145  42.741   0.532
35364W        W  525  26.115  42.541   4.477
35365W        W  526  35.677  40.771   1.196
35366W        W  527  33.465   2.479   3.698
35367W        W  528  32.103  23.464   0.452
35368W        W  529  22.114  21.233  12.349
35369W        W  530  26.932  22.995  13.906
35370W        W  531   9.920  12.637  13.464
35371W        W  532  38.944  10.600  11.989
35372W        W  533  43.908  12.864   1.239
35373W        W  534  41.784  12.192  12.594
35374W        W  535  31.635  18.075   2.277
35375W        W  536  40.485  22.491  11.639
35376W        W  537   7.913  41.326  13.330
35377W        W  538  43.412  17.184   2.739
35378W        W  539  36.325   4.479   1.746
35379W        W  540  39.140  17.887   0.533
35380W        W  541  20.704  26.128   1.238
35381W        W  542   8.547  24.225  14.334
35382W        W  543  16.171   5.935   4.593
35383W        W  544  43.000  27.155  13.977
35384W        W  545  16.417  18.761   4.554
35385W        W  546  19.177  19.844  10.273
35386W        W  547  28.869  29.139   2.689
35387W        W  548   0.227  41.938   0.687
35388W        W  549   4.938  38.626   3.766
35389W        W  550   5.374   0.004   0.432
35390W        W  551  39.576   0.984  12.411
35391W        W  552  12.834  38.121   2.791
35392W        W  553   0.627  14.596  12.980
35393W        W  554  41.815  29.036  13.394
35394W        W  555  44.172  44.307  12.436
35395W        W  556   2.395  25.488  14.267
35396W        W  557  31.428   4.819   0.301
35397W        W  558  21.444  40.378  10.602
35398W        W  559  25.167  21.585   3.562
35399W        W  560   1.210   1.249   0.886
35400W        W  561  37.876  33.906  13.830
35401W        W  562  25.059  11.216   3.456
35402W        W  563  36.162  14.767   4.586
35403W        W  564  31.617  17.154   4.322
35404W        W  565  31.419  20.666   2.597
35405W        W  566  13.413   2.722  12.283
35406W        W  567  13.051  37.329  11.144
35407W        W  568   3.543  21.167   3.065
35408W        W  569  37.598  41.532  12.529
35409W        W  570  40.920  15.106  11.629
35410W        W  571  17.306  44.996   4.062
35411W        W  572  12.156  12.879   3.191
35412W        W  573  20.819   2.590  14.068
35413W        W  574  43.358   6.149  14.322
35414W        W  575  16.468  15.063   3.663
35415W        W  576  20.933  26.576  13.981
35416W        W  577   5.523   1.892   0.689
35417W        W  578  34.462  11.815   0.547
35418W        W  579  24.522   3.083   0.396
35419W        W  580  15.100  30.456   1.690
35420W        W  581  34.793   4.350   0.948
35421W        W  582  44.469   4.127  10.737
35422W        W  583   6.382  20.762  14.639
35423W        W  584  35.873   8.435   2.340
35424W        W  585  36.938   1.707   2.617
35425W        W  586   8.140  24.099   4.627
35426W        W  587  32.181  29.471   0.807
35427W        W  588  24.225   6.058  10.597
35428W        W  589  30.494   9.597   2.828
35429W        W  590  37.836  22.128   1.164
35430W        W  591  24.625  10.449   3.722
35431W        W  592  15.065  27.673  14.746
35432W        W  593  33.407  28.642   1.381
35433W        W  594   2.349  43.301  11.145
35434W        W  595  33.181  18.785   2.203
35435W        W  596  15.173  12.429   4.222
35436W        W  597   6.073  39.287   1.727
35437W        W  598  20.966  35.603   0.367
35438W        W  599  24.681  39.265  12.503
35439W        W  600  17.313  20.128   4.563
35440W        W  601  43.894  16.575  14.677
35441W        W  602  34.859  24.422  11.571
35442W        W  603  12.270  13.212   1.694
35443W        W  604  43.816  16.808   3.843
35444W        W  605  36.943  23.067   2.385
35445W        W  606  44.371  34.420   4.631
35446W        W  607  12.604  12.935  10.754
35447W        W  608  12.934   4.782   3.672
35448W        W  609  29.552  12.549  12.482
35449W        W  610  28.542  11.656   2.223
35450W        W  611  37.066   7.403  14.631
35451W        W  612  38.793   6.370  11.513
35452W        W  613  10.235  30.659  10.867
35453W        W  614  43.916  43.721   2.556
35454W        W  615   3.470   5.128  11.902
35455W        W  616  33.744  38.044   4.591
35456W        W  617  10.641   1.901   2.721
35457W        W  618  38.424  22.656  14.693
35458W        W  619  22.247   3.997  14.892
35459W        W  620   8.540  20.795   1.645
35460W        W  621   8.825  33.031   0.903
35461W        W  622   4.803   6.312   2.023
35462W        W  623  23.832  27.565  10.712
35463W        W  624  26.610   4.942   3.629
35464W        W  625  16.791   3.424   3.630
35465W        W  626  24.109  33.641  14.511
35466W        W  627  11.571  25.728  13.981
35467W        W  628  16.709   3.192   4.783
35468W        W  629  25.783  22.044   2.715
35469W        W  630  35.444  28.487  12.186
35470W        W  631  29.678   7.338   2.633
35471W        W  632  12.742   6.773  14.903
35472W        W  633   4.647  26.793   0.765
35473W        W  634  34.054   5.928  13.886
35474W        W  635  15.352  33.896  13.241
35475W        W  636  38.315  23.727  12.541
35476W        W  637  10.283  25.665   4.616
35477W        W  638   5.954  13.511  11.934
35478W        W  639  35.087  36.600  14.250
35479W        W  640   1.950  29.157  13.435
35480W        W  641  24.972  14.174  12.531
35481W        W  642  13.198  27.762  13.972
35482W        W  643  15.157  19.199  12.613
35483W        W  644  15.709  19.074  12.646
35484W        W  645  17.288  39.850   2.276
35485W        W  646   7.324   7.786  10.833
35486W        W  647  24.844  15.201   4.129
35487W        W  648   7.915   8.436  13.939
35488W        W  649  19.035  13.342  14.955
35489W        W  650   2.476  30.184   4.233
35490W        W  651  35.655  24.149   0.944
35491W        W  652   0.058  44.308  13.841
35492W        W  653  11.397  36.268  13.888
35493W        W  654  38.571  28.119   4.324
35494W        W  655  18.025  25.545   0.516
35495W        W  656  33.557  42.706   1.796
35496W        W  657  14.443  16.300   3.116
35497W        W  658  17.358  44.277  12.984
35498W        W  659   6.192  16.677  11.970
35499W        W  660   0.899  44.187   0.298
35500W        W  661  29.118  35.489  13.799
35501W        W  662  39.385  13.661   1.681
35502W        W  663  22.505   7.834   3.832
35503W        W  664   5.776  12.899  14.398
35504W        W  665   1.263   6.074   1.527
35505W        W  666  25.199  17.025  11.553
35506W        W  667   5.282  33.522   2.000
35507W        W  668  40.698  10.377  10.481
35508W        W  669   4.285  39.211  12.126
35509W        W  670   7.740   2.746  13.854
35510W        W  671  36.372  17.040   0.412
35511W        W  672  26.323  33.895   0.143
35512W        W  673  25.087  35.002  12.562
35513W        W  674  10.297   5.210   3.737
35514W        W  675  14.354   4.775   2.826
35515W        W  676  19.572  19.498  10.255
35516W        W  677  19.273  14.190   1.473
35517W        W  678  34.046  16.638  11.644
35518W        W  679  41.732  16.332   0.896
35519W        W  680  31.007   7.858  10.697
35520W        W  681  12.138   5.096  14.674
35521W        W  682  42.310  14.771   2.646
35522W        W  683   8.092  23.096   0.439
35523W        W  684  22.193  31.175  10.628
35524W        W  685  30.756   7.251   9.836
35525W        W  686  29.368   6.938  11.729
35526W        W  687  36.535  44.097   1.945
35527W        W  688  40.519  13.153  11.632
35528W        W  689   3.528  30.524   4.577
35529W        W  690  29.068  39.240   3.857
35530W        W  691  10.363  44.470   2.661
35531W        W  692  43.207  44.186  13.402
35532W        W  693  21.915  15.379  11.019
35533W        W  694  15.974  13.404   2.732
35534W        W  695  27.523   1.887  14.536
35535W        W  696  10.354  42.261  10.763
35536W        W  697  38.768  37.174  14.034
35537W        W  698   6.835   0.892   0.051
35538W        W  699  23.624  30.516   1.369
35539W        W  700  30.708  16.728  13.326
35540W        W  701  24.224   9.742   3.400
35541W        W  702  35.747  15.797   2.833
35542W        W  703  39.451  12.936   2.326
35543W        W  704   1.138   9.154  11.527
35544W        W  705  33.119  14.292  10.888
35545W        W  706  17.823  34.872  13.008
35546W        W  707  38.482  32.824  14.410
35547W        W  708  40.429  34.837  11.596
35548W        W  709  14.309  22.114  13.887
35549W        W  710  11.631  37.542  11.889
35550W        W  711   0.698  38.421  14.281
35551W        W  712   2.935  40.799  14.493
35552W        W  713  26.900   6.133  12.732
35553W        W  714  18.834  41.873  10.997
35554W        W  715  43.021  42.033   1.451
35555W        W  716   3.262  21.356  14.333
35556W        W  717   5.364  24.839   3.722
35557W        W  718   1.009  34.102   0.247
35558W        W  719  13.923  37.097  14.416
35559W        W  720  42.482  29.487  11.494
35560W        W  721  40.916   2.409   1.423
35561W        W  722  34.437  31.316  14.338
35562W        W  723  40.326   8.056  10.889
35563W        W  724  10.133  26.235   0.895
35564W        W  725  42.899  29.358  12.584
35565W        W  726   8.202   6.907  12.315
35566W        W  727  42.950  15.301  14.434
35567W        W  728  22.345  19.595  11.644
35568W        W  729   5.798   8.980   4.184
35569W        W  730   8.135  20.699   3.118
35570W        W  731  12.664   8.230  14.862
35571W        W  732  26.255   2.870  14.043
35572W        W  733  15.369  13.770  14.364
35573W        W  734  30.478  25.693   5.012
35574W        W  735  22.427  28.952  11.444
35575W        W  736  16.039  42.465   4.058
35576W        W  737  33.199  16.757   0.398
35577W        W  738   7.819  22.772   0.132
35578W        W  739   4.912  37.909  12.856
35579W        W  740   3.167  31.036   1.805
35580W        W  741  14.752  34.959  10.730
35581W        W  742   3.851   1.832   3.955
35582W        W  743  11.881  35.421  14.925
35583W        W  744  18.504   7.880  11.624
35584W        W  745  44.848   5.368   1.154
35585W        W  746  24.475  40.380   1.847
35586W        W  747   3.525  43.670   4.128
35587W        W  748   7.338   1.833   1.737
35588W        W  749  24.178   3.466   2.660
35589W        W  750   6.424  42.768  14.389
35590W        W  751   9.788  31.515  12.186
35591W        W  752   4.709   5.265   2.251
35592W        W  753  19.505  16.628  14.970
35593W        W  754  19.112  15.791   1.995
35594W        W  755   2.030   5.163   3.718
35595W        W  756  33.991  21.600  12.339
35596W        W  757  27.451   2.806  14.349
35597W        W  758  13.552   4.328  10.454
35598W        W  759  38.990  42.148   4.976
35599W        W  760   1.942  19.863  11.119
35600W        W  761  35.166  23.694  12.010
35601W        W  762   6.418  20.133  13.925
35602W        W  763   9.960  15.636   4.192
35603W        W  764  25.760  31.241   1.144
35604W        W  765  26.910  19.154   0.747
35605W        W  766  25.509  35.612   3.739
35606W        W  767  31.492   1.248   2.867
35607W        W  768  43.805  41.423  11.628
35608W        W  769  14.063  43.020   2.709
35609W        W  770  22.877   9.105   3.269
35610W        W  771  44.182  40.914   2.247
35611W        W  772  10.137   8.275   2.766
35612W        W  773  39.342  30.878   0.207
35613W        W  774  27.030  41.964   1.944
35614W        W  775  34.936  14.141   5.221
35615W        W  776  29.026   1.194  10.690
35616W        W  777  29.254   8.128   0.333
35617W        W  778  43.070  20.662  11.701
35618W        W  779  14.304  40.726  14.993
35619W        W  780   3.192   2.258  13.635
35620W        W  781  32.487   6.895  14.409
35621W        W  782  36.676  27.241  13.940
35622W        W  783  10.753  12.757   0.969
35623W        W  784  25.171  41.011   5.496
35624W        W  785   8.388   7.724   0.052
35625W        W  786  12.147  10.160  10.489
35626W        W  787   2.093   4.764  10.807
35627W        W  788  41.972  17.520  13.422
35628W        W  789  16.040  44.534  14.316
35629W        W  790  28.136   5.287   0.049
35630W        W  791  40.317  17.709   1.472
35631W        W  792  18.593  35.320   4.729
35632W        W  793   8.212  31.954   2.788
35633W        W  794  40.347  35.868   3.571
35634W        W  795  29.583  13.892   2.799
35635W        W  796  19.730  12.060   1.798
35636W        W  797  43.753   4.907   4.511
35637W        W  798  24.592   1.362   3.630
35638W        W  799   8.429  42.011  14.501
35639W        W  800  32.813  31.847   0.777
35640W        W  801  26.586  20.633  11.657
35641W        W  802   6.266   9.113   0.284
35642W        W  803  25.286   6.842   1.202
35643W        W  804  20.226  22.399   1.455
35644W        W  805  40.902  33.286   3.148
35645W        W  806  26.904  18.699   2.130
35646W        W  807  31.429  25.957   1.746
35647W        W  808  26.305  37.545  10.742
35648W        W  809  30.978  43.684   2.117
35649W        W  810  14.787  22.161  10.697
35650W        W  811   9.610  36.435  13.956
35651W        W  812  36.846  40.749   4.625
35652W        W  813  31.563  34.225   1.861
35653W        W  814  10.615  21.998  13.545
35654W        W  815  15.183   0.378  11.674
35655W        W  816  36.635   6.649  11.163
35656W        W  817   7.961  25.724  10.523
35657W        W  818  37.474  37.065   2.554
35658W        W  819  30.145  40.571   4.129
35659W        W  820  26.620  30.757  10.741
35660W        W  821  37.469  12.444  10.673
35661W        W  822  29.569  16.759   1.226
35662W        W  823  38.432  10.869   3.397
35663W        W  824  33.819  42.699  14.299
35664W        W  825  18.059  25.114  14.724
35665W        W  826  13.314  44.022   4.412
35666W        W  827  36.385   4.082  12.868
35667W        W  828  31.487  17.624   4.702
35668W        W  829  42.808  29.182   0.439
35669W        W  830  39.566  20.984   2.653
35670W        W  831  44.883   9.094   0.502
35671W        W  832   2.051  14.368   4.423
35672W        W  833  26.939   8.812   3.114
35673W        W  834  33.489  21.705  12.580
35674W        W  835  13.332   5.471  14.775
35675W        W  836  31.631  38.921   2.886
35676W        W  837   0.953   3.194   3.190
35677W        W  838   6.071  38.431  14.585
35678W        W  839  19.263  18.691  14.469
35679W        W  840  29.926  26.645   0.850
35680W        W  841  37.072   2.823   4.903
35681W        W  842  15.849  13.632   3.177
35682W        W  843  34.030   0.013   1.828
35683W        W  844  12.730   4.866   0.956
35684W        W  845  28.639   9.933  10.546
35685W        W  846  31.529  27.286  13.862
35686W        W  847  25.578  10.584   2.273
35687W        W  848   8.253   9.133   4.269
35688W        W  849  19.200  43.386   1.299
35689W        W  850  22.752   0.970   0.825
35690W        W  851  11.448  28.997  11.976
35691W        W  852  17.315  34.483  12.456
35692W        W  853  41.265  36.703  10.571
35693W        W  854  10.784  25.769  12.573
35694W        W  855  10.233  31.030   5.072
35695W        W  856  26.596  41.422   4.091
35696W        W  857  36.939  19.308  13.294
35697W        W  858  32.137  28.938  10.657
35698W        W  859   3.808  30.899  14.836
35699W        W  860  14.640  17.529  12.007
35700W        W  861   7.127  11.911  13.820
35701W        W  862  10.770   9.182   4.243
35702W        W  863  24.066  44.975  11.189
35703W        W  864  32.799  36.394   4.484
35704W        W  865  44.818  18.053  13.658
35705W        W  866  26.718   1.434  12.937
35706W        W  867  18.775  33.297   1.012
35707W        W  868  44.560  31.143   0.159
35708W        W  869  11.186  29.496  11.932
35709W        W  870   5.788  32.402   4.057
35710W        W  871   5.430  19.520  10.895
35711W        W  872  27.397  25.119   2.310
35712W        W  873  39.845  12.997   4.009
35713W        W  874  30.602  17.901   3.699
35714W        W  875  24.982  24.721   1.396
35715W        W  876   4.983  35.957   3.121
35716W        W  877  27.150  18.261   3.243
35717W        W  878  40.816   2.918   3.203
35718W        W  879  39.720   6.691  11.826
35719W        W  880   7.252   5.943  10.790
35720W        W  881   5.890  37.701  14.997
35721W        W  882   6.982  24.634   0.884
35722W        W  883  35.566  11.196   4.651
35723W        W  884  13.937  17.204  11.654
35724W        W  885  40.221  20.813  11.577
35725W        W  886  21.277  27.210  13.302
35726W        W  887  30.454  17.678  13.560
35727W        W  888   8.819  42.986  14.798
35728W        W  889   7.257  38.839   1.730
35729W        W  890   0.201  37.233  11.226
35730W        W  891  30.475  15.796   2.012
35731W        W  892  31.540   5.232   3.231
35732W        W  893  23.739  25.000   3.713
35733W        W  894  41.880   9.403  13.130
35734W        W  895  25.165  26.153  12.631
35735W        W  896  41.317  10.215  12.946
35736W        W  897   1.346  43.172   1.229
35737W        W  898  37.660   8.227   0.662
35738W        W  899  32.498   9.087  12.443
35739W        W  900   8.707   2.803   1.698
35740W        W  901   5.820  18.549  10.542
35741W        W  902  20.468  28.677   0.835
35742W        W  903  16.647  11.798   2.551
35743W        W  904  25.914  42.665  14.921
35744W        W  905   4.912  36.192  12.052
35745W        W  906  42.560  40.192  12.000
35746W        W  907  17.057  41.049   0.576
35747W        W  908  38.321  41.510  10.560
35748W        W  909  27.963   0.323   2.827
35749W        W  910  39.966  31.429   1.419
35750W        W  911  18.461  34.791  14.912
35751W        W  912  35.590  31.830   3.925
35752W        W  913   1.941  41.093  11.768
35753W        W  914  30.114   7.676  14.447
35754W        W  915  31.096  20.227   1.258
35755W        W  916  38.101  18.656  13.424
35756W        W  917  12.058   3.822   3.743
35757W        W  918  44.063   5.144   0.331
35758W        W  919   1.542  38.519  13.006
35759W        W  920   5.413  17.040   2.330
35760W        W  921  38.603  31.621   2.698
35761W        W  922  38.850   7.444  12.492
35762W        W  923  28.184  31.088   0.896
35763W        W  924  19.258  17.024  11.567
35764W        W  925  12.337  40.136   1.695
35765W        W  926  22.053  29.861   1.677
35766W        W  927  30.502   5.586  11.219
35767W        W  928   6.468   3.408  11.944
35768W        W  929  13.328  26.897   0.983
35769W        W  930  37.971  29.396  14.353
35770W        W  931  42.884  18.383  11.360
35771W        W  932  30.090  27.603  11.673
35772W        W  933  13.108  34.458   1.785
35773W        W  934  43.953  24.711   3.833
35774W        W  935  23.303  26.797  10.757
35775W        W  936   2.902  32.950   0.817
35776W        W  937  41.833  38.135  10.721
35777W        W  938   1.474   5.998  12.786
35778W        W  939  22.630   7.341   3.607
35779W        W  940   5.218  24.609   2.323
35780W        W  941  14.122  27.722  14.319
35781W        W  942  18.949  35.925  13.916
35782W        W  943  27.476  27.991  13.837
35783W        W  944  35.989   9.885   4.168
35784W        W  945   2.913  10.219  10.113
35785W        W  946   1.901   1.559   4.524
35786W        W  947   9.797  41.759   0.210
35787W        W  948   9.826   2.529   0.286
35788W        W  949  34.351  43.400   3.149
35789W        W  950  31.563  25.701   0.802
35790W        W  951  37.092   4.263   4.651
35791W        W  952   6.967  15.055  13.012
35792W        W  953   7.433   9.832   4.653
35793W        W  954  14.192  26.465   3.372
35794W        W  955  31.952  20.970   0.599
35795W        W  956  18.041  32.052   1.799
35796W        W  957  17.521  36.585   3.831
35797W        W  958  36.485  14.407  12.026
35798W        W  959  22.329  20.320   2.363
35799W        W  960  31.975   5.672   1.179
35800W        W  961  35.310  38.544  14.490
35801W        W  962  31.642  19.240   2.569
35802W        W  963   8.178  12.283  14.306
35803W        W  964  44.673  43.345   4.131
35804W        W  965  33.411  16.127   2.732
35805W        W  966  34.351  30.520   1.690
35806W        W  967   2.141  20.853   3.250
35807W        W  968  13.114  34.131   2.264
35808W        W  969  38.802   6.884  11.563
35809W        W  970  17.026   6.340   1.353
35810W        W  971  17.483  17.711  14.345
35811W        W  972  15.257  41.547   0.427
35812W        W  973  39.588  36.690  12.553
35813W        W  974  12.969  19.750   0.763
35814W        W  975  34.643  10.729  11.963
35815W        W  976   6.709  34.153   0.468
35816W        W  977  19.566  14.807   0.151
35817W        W  978  26.431  23.572  13.966
35818W        W  979   5.421  32.927  10.923
35819W        W  980  33.232  13.233   1.048
35820W        W  981   6.397  24.231  12.927
35821W        W  982  11.598  27.175   2.285
35822W        W  983  14.191  29.738  13.558
35823W        W  984  17.822  12.917   4.095
35824W        W  985   0.754  23.480   0.946
35825W        W  986  33.264  30.590  12.347
35826W        W  987  43.509  30.431  13.401
35827W        W  988   6.182  37.903  13.360
35828W        W  989   1.907  43.587  11.142
35829W        W  990  25.993  24.506  12.465
35830W        W  991  15.774  33.175  10.227
35831W        W  992  32.911  44.343   0.361
35832W        W  993  31.005  37.951   1.509
35833W        W  994  12.912   1.351   0.395
35834W        W  995  13.785  26.987  14.793
35835W        W  996  31.192  38.510  13.344
35836W        W  997  24.200   1.641  12.427
35837W        W  998  29.901  22.187   1.516
35838W        W  999  26.566  40.641   3.083
35839W        W 1000  16.789  17.678   1.746
35840W        W 1001   5.094  30.018  12.878
35841W        W 1002  23.821  11.746   3.642
35842W        W 1003  11.118  19.578   2.313
35843W        W 1004  29.489  33.546  10.406
35844W        W 1005   2.097  44.467   0.270
35845W        W 1006  20.615  20.478  11.973
35846W        W 1007   6.609  25.667   1.414
35847W        W 1008  24.778   8.937  13.363
35848W        W 1009   4.828   8.225  14.493
35849W        W 1010  31.979  14.125   1.194
35850W        W 1011   3.791  29.601  13.587
35851W        W 1012  25.193   3.050   2.496
35852W        W 1013  24.111  36.993   4.334
35853W        W 1014  29.979   3.242  14.593
35854W        W 1015  30.870  33.661   2.361
35855W        W 1016  26.559  36.924  13.929
35856W        W 1017  21.660  19.190   2.477
35857W        W 1018  11.710  20.840   2.631
35858W        W 1019  31.543  24.734  12.013
35859W        W 1020  44.090  42.325   4.780
35860W        W 1021  30.955  16.305  13.996
35861W        W 1022  20.550  34.451   3.157
35862W        W 1023   7.490  29.055   2.661
35863W        W 1024  41.573  28.223  13.137
35864W        W 1025  10.267  11.416  11.644
35865W        W 1026   9.754   9.145  11.979
35866W        W 1027  24.465  20.153  12.937
35867W        W 1028  14.272   2.909   1.758
35868W        W 1029  43.909   5.880   2.434
35869W        W 1030  10.659  11.342   2.773
35870W        W 1031  37.769  18.850   2.166
35871W        W 1032  24.184  31.996  11.757
35872W        W 1033  40.812   0.251   2.835
35873W        W 1034  33.316  17.251  13.375
35874W        W 1035  44.705  35.436   3.223
35875W        W 1036  22.294  27.098   4.025
35876W        W 1037   6.847  14.197  13.002
35877W        W 1038  20.745  15.634  10.642
35878W        W 1039   1.831  19.798  13.132
35879W        W 1040  20.693  41.892  12.920
35880W        W 1041   8.928  10.851   4.035
35881W        W 1042  36.620  19.647  11.598
35882W        W 1043  33.741  10.475  14.771
35883W        W 1044  28.699  19.059   4.306
35884W        W 1045   3.254  10.342  12.740
35885W        W 1046  23.446  41.284  12.010
35886W        W 1047  44.172  36.989  12.122
35887W        W 1048  17.749  26.100   4.123
35888W        W 1049   8.896  31.613   0.452
35889W        W 1050   8.667  33.910  13.011
35890W        W 1051  40.544  38.668  10.386
35891W        W 1052  10.351   5.397   0.984
35892W        W 1053  40.765   0.311   1.957
35893W        W 1054   7.367   1.318   1.765
35894W        W 1055  25.687  37.716  11.159
35895W        W 1056   3.259  29.985  11.623
35896W        W 1057  12.830  21.795   4.176
35897W        W 1058   3.503  29.154  13.526
35898W        W 1059   6.692   6.426  12.902
35899W        W 1060  25.207  16.576  13.009
35900W        W 1061  20.056   6.834  11.636
35901W        W 1062  28.773   8.909   2.286
35902W        W 1063   9.120  30.941   4.751
35903W        W 1064  29.056  14.784  14.108
35904W        W 1065  32.054   9.782  12.052
35905W        W 1066   2.895  22.049  14.062
35906W        W 1067  14.081  44.353  10.721
35907W        W 1068  17.640  35.110   0.414
35908W        W 1069  44.843  41.962   1.796
35909W        W 1070   4.643  11.549  13.166
35910W        W 1071  26.792  21.464  13.057
35911W        W 1072  15.930  38.719   5.528
35912W        W 1073  38.611  27.568   5.005
35913W        W 1074  10.400  15.134   0.383
35914W        W 1075  20.018   3.995   4.816
35915W        W 1076  23.552  10.035   1.455
35916W        W 1077  29.642  19.108   3.555
35917W        W 1078  26.038   1.383  14.971
35918W        W 1079  22.658  33.577   3.386
35919W        W 1080  15.211  29.929  10.678
35920W        W 1081  41.315  38.354   4.395
35921W        W 1082   8.792  40.943  11.269
35922W        W 1083  18.150   6.945   4.637
35923W        W 1084  44.016   7.009  10.956
35924W        W 1085  42.359  31.135   1.370
35925W        W 1086  29.686  33.284  12.504
35926W        W 1087  38.818  44.481   3.159
35927W        W 1088  23.450  42.806   3.663
35928W        W 1089  26.973  25.939  11.615
35929W        W 1090   1.998  41.089   1.661
35930W        W 1091   1.119  42.468  14.910
35931W        W 1092  36.423  38.731   1.460
35932W        W 1093   3.843   0.286  10.743
35933W        W 1094  30.723   1.393  12.577
35934W        W 1095   3.314  13.084   3.089
35935W        W 1096  40.486  43.047   5.226
35936W        W 1097  31.169  17.342   5.037
35937W        W 1098  30.922   2.568   4.147
35938W        W 1099  17.789  40.483   2.788
35939W        W 1100  33.339   8.642   1.808
35940W        W 1101  27.607  41.586   3.646
35941W        W 1102  23.068  21.223   1.020
35942W        W 1103  29.410  10.529   4.126
35943W        W 1104  26.280  37.107   2.139
35944W        W 1105  35.647  22.275   3.023
35945W        W 1106  44.551  38.648  11.638
35946W        W 1107   6.882   6.386  11.293
35947W        W 1108  37.463  33.922  14.131
35948W        W 1109  31.751  15.137  14.530
35949W        W 1110  20.961  29.035  14.810
35950W        W 1111  14.173   8.729   1.717
35951W        W 1112  26.616   9.649   1.983
35952W        W 1113   1.326  41.688  11.221
35953W        W 1114  13.408  16.149  11.169
35954W        W 1115  24.975   6.493   0.923
35955W        W 1116  35.743  21.342   3.370
35956W        W 1117  42.161   7.011  12.368
35957W        W 1118  20.698  34.190   0.291
35958W        W 1119  22.620  11.684  14.563
35959W        W 1120  29.885  20.741  12.402
35960W        W 1121  19.205   7.901   4.104
35961W        W 1122  13.566  38.671  11.111
35962W        W 1123  37.290  22.618   4.629
35963W        W 1124  30.606  28.701  14.542
35964W        W 1125  28.937  36.051  12.934
35965W        W 1126  18.936  12.866  14.489
35966W        W 1127  32.911  36.236  14.468
35967W        W 1128  10.235  38.073  13.405
35968W        W 1129   3.795  40.091  14.888
35969W        W 1130  29.514  42.043   1.411
35970W        W 1131  35.479  19.291  10.692
35971W        W 1132   9.810  16.797   2.322
35972W        W 1133  10.607  28.196  12.569
35973W        W 1134  34.001  41.635   3.664
35974W        W 1135  28.412  13.235   4.601
35975W        W 1136  20.473  20.206   1.200
35976W        W 1137  19.053  15.507   4.586
35977W        W 1138   2.073  14.148  11.983
35978W        W 1139  24.435  25.622   2.366
35979W        W 1140  32.025  20.585  12.899
35980W        W 1141  41.111   0.925  12.508
35981W        W 1142  36.831  20.962  12.994
35982W        W 1143  39.858   6.442   1.993
35983W        W 1144  33.968  35.438  10.856
35984W        W 1145  44.212   0.692   3.910
35985W        W 1146  42.295   2.325  13.421
35986W        W 1147  19.490  30.122  11.488
35987W        W 1148  14.555  37.145  11.205
35988W        W 1149   9.861  44.844   2.329
35989W        W 1150  32.502   3.678   4.217
35990W        W 1151  21.774  30.545   4.170
35991W        W 1152  40.877  42.986   1.741
35992W        W 1153  40.927  19.103  13.944
35993W        W 1154   7.179  41.507   2.160
35994W        W 1155  40.757  41.850  12.100
35995W        W 1156  30.340  33.464  14.761
35996W        W 1157  41.967  15.725   1.705
35997W        W 1158  22.118  10.697   3.109
35998W        W 1159  25.751   3.377  12.105
35999W        W 1160   9.061  39.478  11.020
36000W        W 1161  13.781  26.004  11.134
36001W        W 1162   9.308  11.115  11.543
36002W        W 1163   8.407  24.279   4.224
36003W        W 1164  11.187   8.306   3.251
36004W        W 1165  41.353  13.316   2.655
36005W        W 1166  29.536  42.218   4.842
36006W        W 1167   7.781  26.581   0.237
36007W        W 1168  25.152   0.266  13.611
36008W        W 1169  10.347  44.654  14.369
36009W        W 1170  34.458  30.410  13.000
36010W        W 1171   9.148  35.435   1.878
36011W        W 1172  39.093  30.441  10.964
36012W        W 1173  10.486  29.965   0.303
36013W        W 1174  35.343  35.472   0.780
36014W        W 1175  34.210  13.429  11.569
36015W        W 1176   2.387  34.074   2.290
36016W        W 1177  35.404  41.527   1.955
36017W        W 1178  27.423  37.939  12.229
36018W        W 1179  21.706  39.107  10.231
36019W        W 1180  24.552  32.926  12.663
36020W        W 1181  10.757  19.594   3.950
36021W        W 1182  26.185  29.022   4.726
36022W        W 1183  31.965  12.481  10.708
36023W        W 1184  39.903  14.532  13.738
36024W        W 1185  24.379  19.623  12.498
36025W        W 1186  20.776  23.576   1.777
36026W        W 1187   8.300  28.320   3.643
36027W        W 1188  31.131  29.067   3.387
36028W        W 1189  22.780  36.831  13.463
36029W        W 1190  18.270  39.878   2.215
36030W        W 1191  36.144  16.061   3.835
36031W        W 1192  33.639  32.663  10.626
36032W        W 1193  38.532  44.855  14.390
36033W        W 1194  33.003  16.560   4.644
36034W        W 1195  41.212  39.595  13.404
36035W        W 1196  43.099  42.985  14.432
36036W        W 1197  29.428   2.485   1.311
36037W        W 1198  39.787   9.633   2.230
36038W        W 1199   5.785  43.313  10.521
36039W        W 1200   0.525  28.111   2.253
36040W        W 1201  44.353  42.111   4.382
36041W        W 1202   8.496   1.651   4.024
36042W        W 1203  30.760  25.145  12.617
36043W        W 1204  36.515  28.052   2.476
36044W        W 1205  44.559  41.457   2.812
36045W        W 1206   9.158  31.446  11.562
36046W        W 1207  35.221  22.520   2.758
36047W        W 1208  29.181  40.859   4.757
36048W        W 1209  22.718  37.622   2.302
36049W        W 1210   5.381  42.513   1.637
36050W        W 1211  17.297   9.375   0.697
36051W        W 1212  29.192  21.609  11.549
36052W        W 1213  23.694  34.282  12.896
36053W        W 1214  25.027  31.922   1.562
36054W        W 1215  21.963   1.983   4.348
36055W        W 1216  19.271   8.373   1.911
36056W        W 1217  27.957  35.346   2.260
36057W        W 1218  34.623  42.317  11.539
36058W        W 1219  34.097  40.385  14.353
36059W        W 1220  28.918   0.016  12.483
36060W        W 1221  26.194  27.648   3.187
36061W        W 1222  13.826   2.833  13.543
36062W        W 1223  40.642  38.367   3.756
36063W        W 1224   3.447  10.806   3.051
36064W        W 1225  40.639  12.127  11.070
36065W        W 1226  13.059   1.376  12.076
36066W        W 1227   6.479  23.780   2.324
36067W        W 1228   6.678   6.744   2.288
36068W        W 1229  30.165  22.928  12.134
36069W        W 1230  26.576  16.272   2.469
36070W        W 1231  31.451  11.628  14.022
36071W        W 1232  38.680  42.006  11.102
36072W        W 1233  19.797   1.153  12.438
36073W        W 1234  26.490  30.886  13.549
36074W        W 1235  37.330  20.823  13.003
36075W        W 1236  21.105   0.983  13.057
36076W        W 1237  41.572  26.917   4.216
36077W        W 1238   9.820  16.643   0.641
36078W        W 1239  10.426  34.193   0.314
36079W        W 1240  44.350   3.824  12.097
36080W        W 1241  31.188   5.398   1.308
36081W        W 1242   0.823  25.509  11.969
36082W        W 1243  44.537   1.931   2.686
36083W        W 1244  15.950  42.480   2.789
36084W        W 1245  17.743   8.338  10.626
36085W        W 1246  25.367  29.022  13.793
36086W        W 1247  14.023  12.293   3.107
36087W        W 1248  35.878  35.050  14.766
36088W        W 1249  17.211  32.661  12.350
36089W        W 1250  19.562  33.999   0.801
36090W        W 1251   1.213  41.404   1.930
36091W        W 1252  33.884  40.010   2.793
36092W        W 1253   6.976  24.894   1.769
36093W        W 1254  17.287  22.969  12.462
36094W        W 1255  10.506  41.457   3.819
36095W        W 1256  36.493  28.906  11.516
36096W        W 1257  24.288   2.785   3.364
36097W        W 1258  15.661  33.894   2.456
36098W        W 1259   2.075   8.792  14.399
36099W        W 1260  16.127  16.260  13.441
36100W        W 1261  42.225  12.289   3.049
36101W        W 1262  38.312  38.065   3.404
36102W        W 1263   1.499  40.331   1.738
36103W        W 1264  19.566  28.132   1.379
36104W        W 1265  28.018  35.903  14.313
36105W        W 1266  13.949  28.622   4.602
36106W        W 1267   1.310  39.396   3.852
36107W        W 1268  40.612  35.930  10.594
36108W        W 1269  32.267  39.019   2.983
36109W        W 1270   9.610   5.940   0.312
36110W        W 1271  34.883  33.903   1.900
36111W        W 1272   5.484   2.972   2.824
36112W        W 1273  32.029  16.914  12.865
36113W        W 1274  14.790  28.976   0.695
36114W        W 1275  18.323   6.490  10.967
36115W        W 1276  29.517  40.524  10.207
36116W        W 1277   9.890   9.412  11.572
36117W        W 1278  32.934  10.701   1.417
36118W        W 1279  41.138  12.517  14.009
36119W        W 1280   2.935   3.839   1.652
36120W        W 1281  15.585  15.241  12.590
36121W        W 1282  23.100   3.796   2.936
36122W        W 1283  16.243   5.212  13.565
36123W        W 1284  36.535   7.351  12.958
36124W        W 1285  28.684  18.959   1.910
36125W        W 1286  21.627  29.531   1.873
36126W        W 1287   4.494  18.496   2.781
36127W        W 1288  23.132  20.129   0.224
36128W        W 1289   8.669  41.258   4.623
36129W        W 1290  36.497  20.579   2.139
36130W        W 1291  21.937  21.188   2.293
36131W        W 1292   1.175  29.872  11.613
36132W        W 1293  37.369   4.339   2.264
36133W        W 1294  10.183  38.408  14.795
36134W        W 1295  16.105  12.886   2.438
36135W        W 1296  17.588  30.602   1.879
36136W        W 1297  26.515  40.458   3.560
36137W        W 1298   4.423  29.225  12.256
36138W        W 1299  39.152   5.439   3.771
36139W        W 1300  24.581  10.402  11.618
36140W        W 1301   0.634  16.160  11.574
36141W        W 1302  29.185   4.879  10.780
36142W        W 1303  23.961  24.829   9.898
36143W        W 1304  40.779  18.660   0.766
36144W        W 1305  15.327  12.788  11.335
36145W        W 1306  10.271  20.523   1.178
36146W        W 1307   3.900  29.553   2.839
36147W        W 1308  44.374  40.847   0.240
36148W        W 1309   2.729  36.831  13.505
36149W        W 1310   0.893  15.116   0.022
36150W        W 1311  38.896  29.915   0.317
36151W        W 1312  18.620  34.397  11.327
36152W        W 1313  22.978   5.121  11.841
36153W        W 1314  22.337  13.775  11.350
36154W        W 1315  26.682  38.610   0.387
36155W        W 1316  35.813   8.948   3.828
36156W        W 1317   0.194  41.011   3.218
36157W        W 1318  43.442  12.180  10.931
36158W        W 1319  43.341  14.537   3.449
36159W        W 1320  41.395   4.453   3.623
36160W        W 1321   5.028   1.628  14.315
36161W        W 1322  32.986  44.715  12.495
36162W        W 1323  11.709  19.853  10.597
36163W        W 1324  13.691  24.259   0.317
36164W        W 1325  35.558  27.136  11.740
36165W        W 1326  10.341  31.170  11.049
36166W        W 1327   3.911  18.435  14.681
36167W        W 1328   6.398  21.407  12.564
36168W        W 1329  18.108  19.947  12.167
36169W        W 1330  28.058  35.754   0.270
36170W        W 1331  43.391   6.245   1.267
36171W        W 1332  39.971   4.567  12.471
36172W        W 1333  24.413  27.031   1.364
36173W        W 1334  27.406   9.568   2.454
36174W        W 1335   3.435  14.063   1.303
36175W        W 1336  32.562  18.743   1.498
36176W        W 1337  10.785  12.755   1.775
36177W        W 1338   9.427  38.879  11.030
36178W        W 1339   6.774  43.987  13.863
36179W        W 1340   7.857  19.089   0.017
36180W        W 1341  25.107  43.822  14.891
36181W        W 1342  21.249   3.316   3.410
36182W        W 1343  31.188  35.854   1.349
36183W        W 1344  14.036  28.987  10.762
36184W        W 1345  33.398   1.716  14.387
36185W        W 1346  12.491   9.382  11.105
36186W        W 1347  14.113  19.667   3.788
36187W        W 1348  29.031  42.544   2.146
36188W        W 1349  23.549   1.451   4.694
36189W        W 1350  40.861   5.547  11.161
36190W        W 1351   1.272   6.810   0.311
36191W        W 1352  34.238  44.900   4.553
36192W        W 1353  24.852  24.915   0.461
36193W        W 1354  28.392  15.178   3.331
36194W        W 1355  16.656  41.673   4.141
36195W        W 1356   3.154  40.628   1.365
36196W        W 1357  32.545  18.322   4.872
36197W        W 1358  34.754  30.069  12.061
36198W        W 1359  35.209  39.409  12.854
36199W        W 1360   2.840  44.924   4.947
36200W        W 1361  21.621  44.073  12.030
36201W        W 1362  13.895  24.982   2.290
36202W        W 1363  10.027  26.004   1.594
36203W        W 1364  38.857  27.999   1.664
36204W        W 1365   7.596  40.065   1.748
36205W        W 1366   3.451  27.379   3.515
36206W        W 1367  16.102  24.611   2.263
36207W        W 1368  12.689  19.833  10.634
36208W        W 1369  30.978  23.175   3.750
36209W        W 1370  37.784  40.393  14.323
36210W        W 1371  16.336  15.901   3.900
36211W        W 1372  39.894   5.849  13.266
36212W        W 1373  25.056  21.555   2.682
36213W        W 1374   4.924  32.753   1.441
36214W        W 1375  33.196  25.047   0.260
36215W        W 1376   4.791  37.857   0.881
36216W        W 1377   0.304  31.163   4.651
36217W        W 1378   7.790   1.760  13.047
36218W        W 1379  23.670  29.508   2.182
36219W        W 1380   1.190  29.255  11.011
36220W        W 1381  15.312  35.895   0.402
36221W        W 1382  42.219  15.730   1.252
36222W        W 1383  33.655  36.973   0.391
36223W        W 1384  28.519  43.632  13.203
36224W        W 1385  21.656  34.991   4.594
36225W        W 1386   3.681  39.988  12.131
36226W        W 1387  32.450  43.201   4.530
36227W        W 1388  26.508   0.247  11.579
36228W        W 1389  28.107  19.121   2.723
36229W        W 1390   1.451  26.714   4.556
36230W        W 1391  33.008   9.115  12.270
36231W        W 1392  44.591  12.169  14.095
36232W        W 1393   3.927  13.295   5.416
36233W        W 1394  43.110  19.637   3.521
36234W        W 1395  28.575  40.039   4.099
36235W        W 1396  38.497  10.931  12.923
36236W        W 1397  24.669  21.210  13.961
36237W        W 1398  10.203  22.085   9.737
36238W        W 1399  33.475  35.563  10.084
36239W        W 1400  12.914  19.170   0.804
36240W        W 1401  38.346   6.347   4.465
36241W        W 1402  28.970  40.095   5.583
36242W        W 1403  11.912   5.553  12.046
36243W        W 1404  20.315  29.499  11.601
36244W        W 1405  18.987  39.316   2.127
36245W        W 1406  12.695  20.432   2.765
36246W        W 1407  35.847  22.473  14.798
36247W        W 1408   0.133  20.815  12.986
36248W        W 1409  18.742  23.641   4.516
36249W        W 1410  14.403  40.392   0.366
36250W        W 1411   2.317  15.893  10.153
36251W        W 1412  24.170  39.899  12.128
36252W        W 1413  41.656   6.299   2.839
36253W        W 1414  38.553  36.375   2.617
36254W        W 1415   8.680  33.506   1.642
36255W        W 1416  28.510  29.512  14.306
36256W        W 1417  41.000  21.244  12.433
36257W        W 1418  12.397  33.790   0.167
36258W        W 1419  44.485  24.618  13.744
36259W        W 1420   5.130  13.310   4.669
36260W        W 1421  41.726  37.445   1.985
36261W        W 1422  23.574  11.630   3.199
36262W        W 1423  12.272  30.677  12.530
36263W        W 1424  40.250  12.128  12.008
36264W        W 1425  26.023  12.535   3.248
36265W        W 1426  17.342  17.667  13.819
36266W        W 1427  34.070  29.722  14.368
36267W        W 1428  42.724  15.820   1.242
36268W        W 1429   1.701  16.188  12.883
36269W        W 1430  11.764   5.648   1.350
36270W        W 1431  31.017  42.676  14.356
36271W        W 1432  39.893  10.146   3.096
36272W        W 1433  14.769  37.381  10.754
36273W        W 1434  20.898   5.253  13.196
36274W        W 1435   9.515  27.991   3.341
36275W        W 1436  43.428   8.995  12.038
36276W        W 1437  30.941  17.199  13.297
36277W        W 1438  36.337  18.745   3.689
36278W        W 1439   1.419  13.723  14.408
36279W        W 1440  36.316   2.840  12.496
36280W        W 1441   6.183  42.010   1.289
36281W        W 1442  29.610  26.436  12.039
36282W        W 1443  39.967  23.557   0.995
36283W        W 1444  15.985   4.217  12.237
36284W        W 1445  43.014  24.391   4.278
36285W        W 1446  25.391  17.702   1.007
36286W        W 1447  25.276  24.494  11.946
36287W        W 1448  32.607   6.677   2.231
36288W        W 1449  15.032  30.069  12.369
36289W        W 1450  18.456  16.579  11.797
36290W        W 1451  32.703  30.087   0.350
36291W        W 1452   8.279  22.814   4.094
36292W        W 1453  32.219  37.424   1.459
36293W        W 1454  37.628  12.851  14.487
36294W        W 1455  11.205  11.539   1.998
36295W        W 1456  20.831  32.159   3.283
36296W        W 1457   3.461   9.908   4.331
36297W        W 1458  10.757  24.032   0.893
36298W        W 1459  24.211  16.743   1.493
36299W        W 1460   2.665  35.876   3.851
36300W        W 1461  13.198  31.333  12.451
36301W        W 1462  25.267   5.658  12.076
36302W        W 1463  34.550   8.135   0.827
36303W        W 1464  42.282  24.450   3.820
36304W        W 1465   3.976  19.222  12.036
36305W        W 1466  42.308  27.651  12.943
36306W        W 1467   8.831  35.876   1.839
36307W        W 1468   4.126  36.983  11.611
36308W        W 1469   8.003   2.054  11.535
36309W        W 1470  26.472  35.095  12.043
36310W        W 1471  15.785  32.478   4.249
36311W        W 1472  23.043  36.007   1.626
36312W        W 1473  37.017  28.501   3.760
36313W        W 1474   6.290  38.829   3.915
36314W        W 1475  40.232  40.238  11.740
36315W        W 1476  32.671  13.113   2.355
36316W        W 1477  39.996  38.823   0.641
36317W        W 1478  27.726  19.351   4.081
36318W        W 1479  12.927  30.432  11.264
36319W        W 1480  32.681  29.606   2.893
36320W        W 1481  37.803  27.497   0.350
36321W        W 1482  25.006   2.512  13.512
36322W        W 1483  44.718  21.581  12.947
36323W        W 1484   7.513  44.381   4.000
36324W        W 1485  37.313  15.814  11.580
36325W        W 1486   1.014   8.901   4.139
36326W        W 1487   5.194   5.706  11.185
36327W        W 1488  29.968  32.739   4.368
36328W        W 1489  26.085  36.901  14.249
36329W        W 1490  42.768  37.793  12.148
36330W        W 1491  19.284   6.735  12.895
36331W        W 1492   6.073  10.832   2.338
36332W        W 1493   8.937  13.500  14.967
36333W        W 1494   9.663   6.941   2.324
36334W        W 1495  32.100   4.003  11.915
36335W        W 1496   9.664  13.642   1.282
36336W        W 1497  16.293  24.710   4.153
36337W        W 1498  27.673  23.479  13.382
36338W        W 1499  39.025   1.107   2.076
36339W        W 1500  20.533  24.974  13.436
36340W        W 1501  40.213  41.256  13.604
36341W        W 1502  31.149   3.153   2.115
36342W        W 1503  31.879  38.645  10.469
36343W        W 1504  21.516  27.059   0.987
36344W        W 1505  38.593   4.269   2.427
36345W        W 1506  13.647   4.468  13.760
36346W        W 1507  31.516  31.772   1.464
36347W        W 1508  19.995   3.942   1.206
36348W        W 1509  43.529  25.923   1.407
36349W        W 1510   9.096  44.416   3.237
36350W        W 1511   1.916  23.241   4.290
36351W        W 1512  43.254  25.450   2.305
36352W        W 1513  30.055  35.100   4.615
36353W        W 1514  44.367   2.798  12.006
36354W        W 1515   4.656  41.423   4.157
36355W        W 1516  38.293  44.684  14.832
36356W        W 1517  29.144  15.462   4.929
36357W        W 1518  26.430  38.840   1.235
36358W        W 1519  11.222   4.227  14.314
36359W        W 1520  38.279  16.362  14.024
36360W        W 1521  37.443  41.233   1.184
36361W        W 1522   9.529  15.024   3.819
36362W        W 1523   4.737  25.796   2.531
36363W        W 1524  20.973  26.296   4.206
36364W        W 1525  17.184  13.431  11.210
36365W        W 1526   9.834  29.278   0.160
36366W        W 1527  17.849  20.809   4.107
36367W        W 1528   2.496  42.889  13.252
36368W        W 1529   7.744  24.541   1.378
36369W        W 1530   8.440  12.114  14.736
36370W        W 1531   8.041   4.092  11.074
36371W        W 1532  29.913  21.970  11.166
36372W        W 1533  29.580  31.200   1.368
36373W        W 1534  25.218  30.719  10.257
36374W        W 1535  31.610   6.402   2.325
36375W        W 1536  30.594  35.888  14.087
36376W        W 1537   1.709  38.905  14.992
36377W        W 1538  13.289  39.980  13.804
36378W        W 1539  29.841   7.210  11.679
36379W        W 1540  35.960   6.477  11.612
36380W        W 1541  31.994  38.972  10.884
36381W        W 1542  44.530  26.848   1.941
36382W        W 1543   2.481   6.138   1.915
36383W        W 1544  41.700  19.128   0.981
36384W        W 1545  38.050   6.926  11.996
36385W        W 1546  31.894  27.457   1.895
36386W        W 1547  12.429   2.298   4.727
36387W        W 1548  19.609  12.343  14.911
36388W        W 1549  25.653   6.667   2.807
36389W        W 1550   9.674  22.495   4.174
36390W        W 1551  23.894  18.456   0.378
36391W        W 1552  39.932   0.999   0.434
36392W        W 1553  23.042  39.298  10.334
36393W        W 1554  26.653  22.322  13.391
36394W        W 1555  40.280  34.175  11.033
36395W        W 1556   3.910  31.178   2.445
36396W        W 1557  11.199  41.037   2.209
36397W        W 1558  11.805  26.272  10.285
36398W        W 1559  11.757  10.205   2.747
36399W        W 1560   8.856  18.952  12.552
36400W        W 1561  37.418  11.081   1.360
36401W        W 1562  19.456  16.176   1.788
36402W        W 1563  40.679  27.614   3.280
36403W        W 1564  26.413   1.783  13.462
36404W        W 1565  12.796  27.580   0.750
36405W        W 1566  16.573  22.140   4.047
36406W        W 1567  29.070  26.830   4.844
36407W        W 1568  41.929   4.012  11.342
36408W        W 1569  28.214  32.372  11.251
36409W        W 1570  11.671   9.360  14.797
36410W        W 1571  12.309  22.323  13.430
36411W        W 1572  23.216  21.195   2.676
36412W        W 1573  11.189   4.750  10.066
36413W        W 1574  21.854  42.763   0.250
36414W        W 1575  15.638   0.851   4.160
36415W        W 1576  32.610  38.597   2.205
36416W        W 1577   1.388  38.521   3.490
36417W        W 1578  27.526  32.901   1.728
36418W        W 1579  37.795  37.898  13.566
36419W        W 1580  13.683   1.506   0.803
36420W        W 1581  29.359  12.082  12.451
36421W        W 1582   7.041  10.101   0.164
36422W        W 1583  35.628   7.687  14.878
36423W        W 1584  16.569   5.668  10.642
36424W        W 1585  34.397  24.585   0.361
36425W        W 1586  22.864  35.399   0.085
36426W        W 1587   3.931  26.157  12.587
36427W        W 1588  35.612  14.603   4.935
36428W        W 1589  25.766  44.489   1.282
36429W        W 1590  40.006  40.002   2.898
36430W        W 1591  37.352  18.098   4.906
36431W        W 1592  35.074  25.229   3.746
36432W        W 1593   5.807  25.453   4.234
36433W        W 1594  43.766  12.731   3.415
36434W        W 1595  31.452   1.518   1.860
36435W        W 1596  23.228  42.813  14.332
36436W        W 1597  39.898  30.300  14.750
36437W        W 1598  27.114  32.636  14.650
36438W        W 1599  38.999   7.054  14.600
36439W        W 1600   0.264  39.602  14.292
36440W        W 1601  24.653  23.130   3.180
36441W        W 1602   7.156   1.130   5.015
36442W        W 1603  32.928   2.730   4.458
36443W        W 1604   7.968  10.837   0.914
36444W        W 1605  17.337   1.186  11.898
36445W        W 1606  18.680  18.527  11.999
36446W        W 1607  17.186  43.344   1.932
36447W        W 1608  15.825  26.451   3.988
36448W        W 1609  35.498  23.162   3.902
36449W        W 1610  18.854  34.381   4.490
36450W        W 1611  35.832  18.271  14.000
36451W        W 1612  44.413  12.792  12.397
36452W        W 1613  37.837  41.153  11.339
36453W        W 1614   2.644   6.877  10.753
36454W        W 1615  31.931  19.790   0.721
36455W        W 1616   0.567  10.781   0.450
36456W        W 1617  32.170   5.726   4.717
36457W        W 1618  13.203  39.685   0.317
36458W        W 1619  30.214  29.457  13.486
36459W        W 1620  39.347  21.842  14.767
36460W        W 1621  21.914   3.291  13.954
36461W        W 1622  20.608   3.435   0.346
36462W        W 1623  18.207   6.955   3.705
36463W        W 1624  20.822  27.874   3.789
36464W        W 1625  40.996  31.674   0.876
36465W        W 1626   5.994  24.078  12.654
36466W        W 1627   2.267  36.473  12.702
36467W        W 1628  26.031  10.023   4.055
36468W        W 1629   7.579  22.443   2.254
36469W        W 1630  13.778  21.137  14.740
36470W        W 1631  13.845  37.492  12.625
36471W        W 1632  19.641  19.547   2.860
36472W        W 1633  28.076   7.228  10.382
36473W        W 1634  41.246   8.705  14.865
36474W        W 1635   2.250  42.472   0.649
36475W        W 1636   9.974  13.355  13.052
36476W        W 1637  26.514   7.287   0.217
36477W        W 1638  39.378  43.191  13.055
36478W        W 1639  15.793  27.856   5.184
36479W        W 1640   6.490   5.189   0.749
36480W        W 1641  28.068  15.167   0.352
36481W        W 1642  15.398  43.805   0.779
36482W        W 1643  22.228  22.697  14.246
36483W        W 1644  43.969   7.715   3.824
36484W        W 1645  14.693  20.779  13.923
36485W        W 1646  29.217  20.181  13.487
36486W        W 1647   0.926  29.456  12.898
36487W        W 1648  35.464  33.306  14.763
36488W        W 1649  13.004   4.874  13.186
36489W        W 1650  42.887   0.916   1.823
36490W        W 1651   1.914  32.985   4.750
36491W        W 1652  37.538  21.628   3.213
36492W        W 1653  27.318  43.820   1.269
36493W        W 1654  31.929  34.551  13.112
36494W        W 1655  12.593   2.521  14.395
36495W        W 1656  22.203   1.838  10.863
36496W        W 1657  44.386  26.960  13.766
36497W        W 1658  20.356  14.963  12.185
36498W        W 1659  33.439  20.259   3.678
36499W        W 1660  42.617   6.218   4.963
36500W        W 1661  26.047  10.504  11.857
36501W        W 1662  35.904   2.939  10.699
36502W        W 1663  20.564  10.132   0.463
36503W        W 1664   3.681  27.692   0.790
36504W        W 1665  24.795  44.365   1.840
36505W        W 1666  18.651  11.364   2.730
36506W        W 1667  12.159  21.642   2.979
36507W        W 1668   4.636  26.496  12.253
36508W        W 1669  12.149  14.223  10.555
36509W        W 1670  25.746   3.187   2.884
36510W        W 1671   0.692  44.542  11.169
36511W        W 1672  43.276   5.910   3.747
36512W        W 1673  40.365  39.124   5.038
36513W        W 1674  19.745  23.696   9.731
36514W        W 1675  39.240  17.400  14.767
36515W        W 1676  26.257  10.448   2.771
36516W        W 1677  19.269  41.243   2.718
36517W        W 1678  13.234  22.044  12.493
36518W        W 1679  17.411  43.431  11.402
36519W        W 1680  27.908  27.098   0.825
36520W        W 1681  44.242  20.162   3.799
36521W        W 1682  33.135  44.082  12.098
36522W        W 1683  29.914  28.079  11.792
36523W        W 1684   9.588   7.445  13.272
36524W        W 1685  24.742   3.185  12.093
36525W        W 1686   9.177  44.041  10.962
36526W        W 1687   7.185   0.866   3.154
36527W        W 1688  28.941  27.709  14.443
36528W        W 1689  20.311  37.144  11.932
36529W        W 1690  31.553  12.769   4.638
36530W        W 1691  44.922  13.565  12.586
36531W        W 1692  13.876  39.014  14.487
36532W        W 1693   2.678  31.626   2.340
36533W        W 1694  43.046  26.975  11.615
36534W        W 1695  27.196   3.097  13.845
36535W        W 1696  21.734  22.694  13.459
36536W        W 1697  33.412   0.715  11.199
36537W        W 1698  38.558  10.176  14.906
36538W        W 1699  37.269  21.422   4.578
36539W        W 1700   4.114   9.897  11.579
36540W        W 1701   4.185  23.332  12.974
36541W        W 1702  18.078  14.861  11.159
36542W        W 1703  42.060  25.926   0.689
36543W        W 1704  30.415  29.690   4.029
36544W        W 1705  11.134   8.431  14.423
36545W        W 1706  20.317  19.284  11.890
36546W        W 1707  14.135  20.148   3.635
36547W        W 1708  22.431  11.559   5.451
36548W        W 1709  37.090  33.114  10.655
36549W        W 1710  43.254  10.363   2.324
36550W        W 1711  20.509  24.743  12.121
36551W        W 1712  13.089  24.690  12.356
36552W        W 1713  19.528   1.488  13.446
36553W        W 1714  19.424   9.193   4.549
36554W        W 1715  17.470  11.653   2.300
36555W        W 1716   6.291  31.018  13.857
36556W        W 1717  11.024  17.757  12.352
36557W        W 1718  41.059  35.054  10.580
36558W        W 1719  13.452  21.323  13.303
36559W        W 1720  25.013   4.988   3.748
36560W        W 1721  38.376  39.699  11.118
36561W        W 1722   8.634  26.022  13.960
36562W        W 1723  31.557  33.452  12.885
36563W        W 1724  17.589  12.892  11.514
36564W        W 1725   8.830  16.665  12.108
36565W        W 1726  22.218  12.790   1.061
36566W        W 1727   5.821   1.734   0.287
36567W        W 1728  26.515  23.003  10.675
36568W        W 1729  37.669   8.300  11.455
36569W        W 1730   1.806  25.912   4.755
36570W        W 1731  21.626  40.436   1.913
36571W        W 1732   4.047   9.726  12.620
36572W        W 1733  44.836  40.999   2.818
36573W        W 1734   9.388  43.874   4.157
36574W        W 1735  22.628   9.144  13.376
36575W        W 1736  12.874   3.983   0.751
36576W        W 1737   8.242   3.160   0.419
36577W        W 1738  37.477  24.643  10.751
36578W        W 1739   3.531  22.584   1.306
36579W        W 1740  20.974  23.129   1.566
36580W        W 1741  19.809  27.958   0.922
36581W        W 1742   5.397  13.878  14.776
36582W        W 1743  33.350  25.094  13.846
36583W        W 1744  16.174  40.481  13.528
36584W        W 1745  11.268  42.450   3.363
36585W        W 1746   3.992  10.646  10.248
36586W        W 1747  43.615  26.134   0.067
36587W        W 1748  22.883   3.009   4.634
36588W        W 1749  26.763  42.000   0.430
36589W        W 1750   5.515  21.279   4.350
36590W        W 1751  41.113  34.933   2.173
36591W        W 1752   5.419  14.137   1.031
36592W        W 1753   6.625   7.688  14.459
36593W        W 1754  10.450  31.549  13.009
36594W        W 1755  39.186   5.782   1.990
36595W        W 1756  21.808   2.280  14.313
36596W        W 1757  28.002  38.043  11.152
36597W        W 1758  13.860  20.638   0.018
36598W        W 1759  29.458  15.541  14.906
36599W        W 1760   0.038  28.269  14.292
36600W        W 1761   2.273   5.031  12.934
36601W        W 1762  40.253  22.654   0.842
36602W        W 1763  21.111   1.046   4.220
36603W        W 1764  39.322   2.517  14.102
36604W        W 1765  32.179  43.841  12.587
36605W        W 1766  25.604  38.690  10.814
36606W        W 1767  24.527   6.827  10.692
36607W        W 1768  35.870  12.633   1.557
36608W        W 1769  22.365  12.339  11.820
36609W        W 1770  41.766  40.007   4.980
36610W        W 1771  21.440  13.358  11.558
36611W        W 1772  35.116  33.293   4.060
36612W        W 1773   8.663  29.655   2.950
36613W        W 1774  10.195  43.343  14.820
36614W        W 1775  22.750  34.624  10.558
36615W        W 1776   4.195  15.782   3.017
36616W        W 1777   1.828  42.319   1.466
36617W        W 1778  25.749  11.907  12.027
36618W        W 1779  29.925  39.468  14.271
36619W        W 1780  14.267  33.353  11.112
36620W        W 1781  44.388   0.181  10.731
36621W        W 1782  20.116   6.529  14.207
36622W        W 1783  27.485  24.538   2.779
36623W        W 1784  20.446  32.413  11.439
36624W        W 1785  31.733  33.627  11.199
36625W        W 1786  40.957  42.267  11.138
36626W        W 1787  12.277   8.755  12.643
36627W        W 1788  18.820  16.988  11.812
36628W        W 1789  33.356   6.775  13.999
36629W        W 1790  14.681  20.813   3.658
36630W        W 1791  14.292   3.685   1.251
36631W        W 1792  12.811  37.093   2.714
36632W        W 1793  43.877  38.843   2.806
36633W        W 1794  42.265  30.762  14.071
36634W        W 1795  35.480  23.280   0.197
36635W        W 1796   7.229  43.507  10.733
36636W        W 1797  11.367  41.954   3.595
36637W        W 1798  15.040   0.021   3.893
36638W        W 1799  40.284  35.563   2.737
36639W        W 1800  20.501   5.276  10.618
36640W        W 1801   2.774  10.757   2.173
36641W        W 1802  31.366   9.185   0.904
36642W        W 1803   1.923   0.618   3.502
36643W        W 1804  27.587  43.785  13.488
36644W        W 1805  31.977  12.527  14.240
36645W        W 1806   7.362   0.426  13.157
36646W        W 1807  42.593  25.481   4.158
36647W        W 1808  29.098  36.084   2.913
36648W        W 1809  18.651  10.625   4.705
36649W        W 1810  33.349  37.425   2.571
36650W        W 1811  31.077  13.697  11.558
36651W        W 1812  14.145  24.659  12.364
36652W        W 1813  10.535  12.208   4.856
36653W        W 1814  11.875  27.651   3.242
36654W        W 1815  36.900  41.752  13.381
36655W        W 1816  12.936  23.155  11.164
36656W        W 1817  23.562  29.424   4.391
36657W        W 1818   5.666  33.588  12.321
36658W        W 1819   8.175  12.571  10.773
36659W        W 1820  32.167   4.989  10.973
36660W        W 1821  12.200  12.226   0.549
36661W        W 1822  16.873   5.564   3.675
36662W        W 1823  27.220  10.433   0.002
36663W        W 1824  34.611  23.041   3.132
36664W        W 1825  28.719   9.106   1.419
36665W        W 1826  21.317   6.843  12.064
36666W        W 1827   3.236   7.532  13.498
36667W        W 1828  21.490  32.912  13.111
36668W        W 1829   6.419  37.268   2.771
36669W        W 1830  26.203  43.247   2.274
36670W        W 1831  41.840  34.407   1.875
36671W        W 1832  31.465   7.011   3.779
36672W        W 1833  22.079  44.535  11.464
36673W        W 1834   8.093  32.642  13.148
36674W        W 1835  19.758  36.863  14.380
36675W        W 1836  10.649  28.166  10.729
36676W        W 1837   8.617   9.687  14.271
36677W        W 1838  41.876  26.973   1.774
36678W        W 1839  35.788  34.712  13.889
36679W        W 1840  20.053  17.941   2.591
36680W        W 1841  14.235  12.360   4.001
36681W        W 1842  42.006  10.289   2.388
36682W        W 1843  35.658  15.885  12.815
36683W        W 1844  37.099  34.246  14.033
36684W        W 1845  31.957  43.270   4.723
36685W        W 1846   8.545  13.713  14.045
36686W        W 1847   0.808   5.775  12.484
36687W        W 1848  37.673   3.331   2.809
36688W        W 1849   8.123  25.260   0.454
36689W        W 1850   2.208  28.542   3.302
36690W        W 1851  43.841  25.342   4.652
36691W        W 1852  14.879  20.660  13.450
36692W        W 1853  44.901   6.168  13.296
36693W        W 1854  44.266  44.688   1.044
36694W        W 1855  11.936   7.306   2.835
36695W        W 1856  29.956  28.624  14.809
36696W        W 1857  14.360   3.222  14.759
36697W        W 1858  33.645  42.382   0.164
36698W        W 1859  43.780  19.561  11.264
36699W        W 1860  14.570  29.111   3.925
36700W        W 1861  20.721  21.775   5.416
36701W        W 1862   8.322  30.612   4.604
36702W        W 1863  12.562  34.759  14.681
36703W        W 1864   6.980  40.775   0.955
36704W        W 1865  24.954  31.556  13.946
36705W        W 1866   5.414   8.004  10.781
36706W        W 1867  43.867  29.372   1.555
36707W        W 1868  32.398   8.961  13.795
36708W        W 1869  34.886   1.254  11.605
36709W        W 1870  44.492  22.623  13.075
36710W        W 1871  14.570  20.878  11.513
36711W        W 1872  23.640   2.331   1.370
36712W        W 1873  44.307   3.294   2.937
36713W        W 1874  43.942  41.107  11.235
36714W        W 1875   7.833   4.242  13.076
36715W        W 1876  41.226  32.786   0.000
36716W        W 1877   5.714  10.941  13.652
36717W        W 1878  41.228  10.344  10.667
36718W        W 1879   3.001  40.110   0.773
36719W        W 1880  31.074  27.476  12.426
36720W        W 1881  40.471  23.945  12.520
36721W        W 1882  10.232  40.044   4.086
36722W        W 1883  43.721  31.044   4.905
36723W        W 1884   4.241  42.291   4.551
36724W        W 1885  35.829   1.637   4.602
36725W        W 1886  19.710  24.967   2.269
36726W        W 1887  12.421  24.035  11.498
36727W        W 1888  37.084  11.246  14.928
36728W        W 1889  10.102   4.094   2.340
36729W        W 1890  35.997  35.658   1.435
36730W        W 1891   2.252   8.458   4.197
36731W        W 1892  42.743  42.857   0.859
36732W        W 1893  28.217   0.480  14.494
36733W        W 1894  41.759  20.569   1.725
36734W        W 1895  19.642   3.431  12.023
36735W        W 1896  20.884   0.382   0.385
36736W        W 1897  30.162  16.757  10.716
36737W        W 1898  11.530  27.266  10.173
36738W        W 1899   7.164  31.551  14.020
36739W        W 1900  31.106  33.584   0.954
36740W        W 1901   4.767  18.410   0.635
36741W        W 1902   0.885  20.620   4.672
36742W        W 1903   8.680   8.781  14.213
36743W        W 1904  24.919  24.175  11.132
36744W        W 1905  10.292  21.777   3.340
36745W        W 1906   8.145  14.317   3.743
36746W        W 1907  43.528   4.216   2.870
36747W        W 1908  42.035   0.068  12.892
36748W        W 1909  14.788  25.600   0.366
36749W        W 1910  17.118  31.339   2.763
36750W        W 1911  25.255  19.541   3.738
36751W        W 1912  17.795   4.708   1.666
36752W        W 1913  21.497  25.803  14.825
36753W        W 1914  26.679  24.374   3.721
36754W        W 1915   6.487  40.914   2.218
36755W        W 1916  11.783   5.283  10.545
36756W        W 1917  31.347  43.467  12.773
36757W        W 1918   0.912  41.050  13.964
36758W        W 1919   8.618  40.562  10.525
36759W        W 1920  18.075  12.462   4.019
36760W        W 1921  12.696   1.090  14.985
36761W        W 1922   7.529  12.783   1.420
36762W        W 1923  22.341   2.599   2.914
36763W        W 1924   8.297  22.778  11.548
36764W        W 1925  37.472  16.493   0.318
36765W        W 1926   3.144   7.232   4.536
36766W        W 1927  31.922  28.397   4.174
36767W        W 1928  11.268  20.633  11.638
36768W        W 1929  35.148  22.017   1.889
36769W        W 1930  24.163   0.435  14.451
36770W        W 1931  19.339   8.230   0.558
36771W        W 1932   3.422  19.502  12.872
36772W        W 1933  30.075  17.531   4.357
36773W        W 1934  36.656  36.850   1.243
36774W        W 1935  26.594   5.166   2.776
36775W        W 1936   2.769  28.414  14.827
36776W        W 1937  15.945  16.967   0.782
36777W        W 1938  24.720   2.387   0.438
36778W        W 1939  11.670  44.657  14.009
36779W        W 1940   7.218  34.509   3.175
36780W        W 1941  10.400  36.280  11.380
36781W        W 1942  13.072  35.981  11.897
36782W        W 1943  21.340  13.768   1.155
36783W        W 1944  41.850  21.158  10.342
36784W        W 1945  30.073  24.714  13.027
36785W        W 1946  19.916   1.073  11.870
36786W        W 1947  41.744   8.172  14.465
36787W        W 1948  23.453  25.715   2.307
36788W        W 1949   6.116  31.008  11.689
36789W        W 1950  43.425  18.743   0.717
36790W        W 1951  19.620   2.279   4.589
36791W        W 1952   0.875  30.889  13.484
36792W        W 1953   4.732  16.504   2.647
36793W        W 1954  40.441  17.268  11.055
36794W        W 1955  10.880  27.611  11.590
36795W        W 1956  43.906  31.910   3.231
36796W        W 1957   7.298   1.494  14.245
36797W        W 1958  38.364  40.476  12.909
36798W        W 1959  35.525   2.134  13.983
36799W        W 1960  38.106  44.079  11.461
36800W        W 1961  17.792  25.616  10.741
36801W        W 1962  27.834  33.715  14.276
36802W        W 1963  31.541   0.721   2.931
36803W        W 1964  21.186   8.586   4.708
36804W        W 1965  33.829  37.513   0.406
36805W        W 1966  10.344  36.514  10.937
36806W        W 1967   8.654  36.463  13.850
36807W        W 1968  10.941  10.632   2.188
36808W        W 1969   8.828  36.825   2.695
36809W        W 1970  18.756   1.349   2.632
36810W        W 1971  21.227  17.987   3.897
36811W        W 1972  39.316  18.637   4.643
36812W        W 1973  40.705  41.001   4.602
36813W        W 1974  28.528   0.988  10.549
36814W        W 1975   9.600  25.526   4.045
36815W        W 1976   2.396  11.135   3.561
36816W        W 1977   8.873   3.415  13.627
36817W        W 1978  29.134  14.010   2.182
36818W        W 1979  32.915   5.521   3.688
36819W        W 1980   8.894   0.084  13.944
36820W        W 1981  29.955  10.690  13.093
36821W        W 1982  44.413  17.889  14.442
36822W        W 1983   1.677  31.439   0.395
36823W        W 1984  22.511  19.897  11.227
36824W        W 1985  17.706   5.866  11.564
36825W        W 1986  18.638  23.025   3.159
36826W        W 1987  23.061  18.793   4.457
36827W        W 1988   5.617  37.249  13.138
36828W        W 1989  38.355  16.521   2.215
36829W        W 1990   5.481  20.656   1.801
36830W        W 1991  33.637   4.396  12.682
36831W        W 1992   7.668   4.918   4.178
36832W        W 1993  33.119  15.132  14.471
36833W        W 1994  26.144  27.450  13.975
36834W        W 1995  34.429  43.274   4.114
36835W        W 1996  17.823  19.586  14.490
36836W        W 1997  37.127  44.626   3.672
36837W        W 1998  32.441  44.967   2.294
36838W        W 1999   1.048  20.343  13.000
36839W        W 2000  27.749   3.225   4.995
36840W        W 2001  28.673  22.086  12.030
36841W        W 2002  11.329  24.681   4.739
36842W        W 2003  22.932  29.664  11.992
36843W        W 2004   5.844  17.626  12.565
36844W        W 2005   5.869   6.680   4.608
36845W        W 2006  14.477  19.798   4.152
36846W        W 2007  12.258  28.673  13.367
36847W        W 2008  31.104  44.000  13.625
36848W        W 2009  17.149  33.646  14.720
36849W        W 2010   0.243  41.860   1.479
36850W        W 2011  23.282  44.332   4.570
36851W        W 2012  19.256  13.246   1.469
36852W        W 2013  37.938   6.416   0.801
36853W        W 2014  32.479   6.742   3.142
36854W        W 2015  26.233  23.067   3.175
36855W        W 2016  24.500  39.396   1.529
36856W        W 2017  35.566   8.273  10.742
36857W        W 2018  37.215  24.065  12.690
36858W        W 2019   6.025  30.167  11.709
36859W        W 2020  38.555  37.768  11.825
36860W        W 2021  28.499  25.139   3.056
36861W        W 2022  29.186  40.621   1.440
36862W        W 2023   5.988  40.430   4.593
36863W        W 2024  44.261  29.176  12.418
36864W        W 2025  11.436  14.349  13.227
36865W        W 2026  14.036  32.380  11.453
36866W        W 2027  22.831  33.289   3.794
36867W        W 2028  11.377  39.806   0.856
36868W        W 2029  44.531  40.462   3.617
36869W        W 2030  40.897  31.405   1.346
36870W        W 2031  24.791  21.127   4.183
36871W        W 2032  36.189  32.116  10.766
36872W        W 2033  13.258  38.391   4.889
36873W        W 2034  32.743  10.219   3.970
36874W        W 2035  40.374   4.252  12.314
36875W        W 2036  15.561  27.027  12.137
36876W        W 2037  23.668  16.267   1.689
36877W        W 2038   4.805  14.094   1.695
36878W        W 2039  44.249   3.245   3.815
36879W        W 2040   0.494  10.980   4.961
36880W        W 2041  28.037  42.332   3.861
36881W        W 2042  22.900  13.309  14.505
36882W        W 2043   3.311  33.607  13.896
36883W        W 2044   6.842   8.669   2.087
36884W        W 2045   2.608   7.345  13.054
36885W        W 2046  35.273  29.231  12.374
36886W        W 2047  17.572  34.717  13.465
36887W        W 2048  36.403  16.160   3.344
36888W        W 2049   5.672  38.819   0.991
36889W        W 2050  32.499  42.936   0.546
36890W        W 2051  40.341  25.366  13.138
36891W        W 2052  32.977  43.401   0.323
36892W        W 2053  39.503  28.629  11.069
36893W        W 2054   3.017  29.029  10.852
36894W        W 2055  14.124   9.694  10.786
36895W        W 2056  37.246  21.112   2.077
36896W        W 2057  22.985  41.374  12.716
36897W        W 2058  26.181  28.017  10.670
36898W        W 2059  20.790  40.900  13.044
36899W        W 2060  36.493  43.596   2.148
36900W        W 2061  26.567  24.908  10.907
36901W        W 2062  33.432  37.271  10.492
36902W        W 2063  16.819  30.803   3.970
36903W        W 2064  25.966  14.122  14.960
36904W        W 2065  37.084  38.913  13.592
36905W        W 2066   4.671  28.561   0.941
36906W        W 2067  43.541  40.498  14.340
36907W        W 2068   5.332  32.450   0.398
36908W        W 2069  25.174  26.669   0.554
36909W        W 2070  14.211  23.462   4.069
36910W        W 2071  18.750  17.548  10.869
36911W        W 2072   8.307  25.627   1.292
36912W        W 2073  10.719  38.421  14.790
36913W        W 2074  43.313  21.772  12.685
36914W        W 2075  24.544  18.066   2.670
36915W        W 2076  22.689   8.368   3.706
36916W        W 2077  34.563  12.267   4.782
36917W        W 2078  40.515  35.537   3.216
36918W        W 2079   5.231  25.050  13.395
36919W        W 2080   2.536   0.517   2.272
36920W        W 2081   7.310  29.721   4.589
36921W        W 2082  35.107  37.913  11.559
36922W        W 2083  44.303  11.578  13.504
36923W        W 2084  28.737  32.187  10.335
36924W        W 2085  30.207  19.558  11.625
36925W        W 2086   0.236   1.318  12.980
36926W        W 2087  33.331   4.225   1.168
36927W        W 2088  14.499  40.137   2.587
36928W        W 2089  41.914  36.356  10.123
36929W        W 2090  25.196  18.288  12.336
36930W        W 2091   8.152  22.551   1.622
36931W        W 2092  42.400  36.015   2.349
36932W        W 2093   9.319  42.271   4.866
36933W        W 2094  40.231  38.408  11.156
36934W        W 2095   7.726  37.815  13.456
36935W        W 2096  33.535   8.505  14.869
36936W        W 2097  35.654  18.997  14.550
36937W        W 2098  33.047  31.473   1.222
36938W        W 2099  19.022  12.775  13.114
36939W        W 2100  35.011  11.557   1.869
36940W        W 2101   9.613  37.583   2.226
36941W        W 2102  25.342  30.202  11.065
36942W        W 2103  38.449  29.673   0.386
36943W        W 2104  18.632   8.283  13.908
36944W        W 2105  17.243   2.918   4.117
36945W        W 2106  31.629   3.001   2.007
36946W        W 2107  26.106  24.734  12.945
36947W        W 2108  25.689  23.581  12.828
36948W        W 2109  38.128  34.012   3.767
36949W        W 2110  19.635  19.179   0.021
36950W        W 2111  38.590  38.452  10.512
36951W        W 2112  23.689  20.730  11.610
36952W        W 2113   4.651  39.251  11.461
36953W        W 2114  39.848  16.287  10.697
36954W        W 2115  16.746  13.391  11.459
36955W        W 2116  33.417  18.292  11.146
36956W        W 2117   8.903   5.942  14.024
36957W        W 2118  22.578  25.711   3.575
36958W        W 2119  41.819  40.389   1.684
36959W        W 2120  23.636   5.603  13.049
36960W        W 2121  26.162  22.983   0.317
36961W        W 2122  31.214  16.815  13.546
36962W        W 2123   8.925   4.235   0.685
36963W        W 2124  41.134  26.315   1.555
36964W        W 2125   8.175  40.931  10.439
36965W        W 2126  34.129  35.525   1.728
36966W        W 2127  40.394  20.430   1.214
36967W        W 2128  13.717  22.034  11.646
36968W        W 2129   2.692  22.051  13.581
36969W        W 2130   9.614  27.645   3.719
36970W        W 2131  25.754  19.641   2.225
36971W        W 2132  22.301   4.489  10.842
36972W        W 2133  13.535  40.431  14.684
36973W        W 2134  31.354  25.422   0.392
36974W        W 2135  11.856  38.758  11.594
36975W        W 2136  23.290  13.468  13.754
36976W        W 2137  25.316  39.270  12.053
36977W        W 2138  13.095   6.947   0.716
36978W        W 2139  17.023   2.855   1.782
36979W        W 2140   9.497  24.211   1.428
36980W        W 2141  10.845  16.280   1.378
36981W        W 2142  41.003  43.956   3.260
36982W        W 2143   9.418  39.868   3.863
36983W        W 2144  22.099   6.243   0.640
36984W        W 2145  43.029  12.903   0.429
36985W        W 2146  16.138  18.990   1.144
36986W        W 2147  32.166  39.792  12.527
36987W        W 2148  29.075  30.898  14.264
36988W        W 2149  24.015  27.961  10.266
36989W        W 2150  10.114  18.019  10.994
36990W        W 2151   5.668  23.155   4.200
36991W        W 2152  39.902  15.857   2.381
36992W        W 2153  13.418  14.219   3.606
36993W        W 2154  13.333  35.984   4.029
36994W        W 2155  27.382  15.322  12.528
36995W        W 2156   4.281  31.740  12.315
36996W        W 2157  33.641   6.666   1.760
36997W        W 2158  42.507  24.599  11.675
36998W        W 2159   6.217  16.137  14.303
36999W        W 2160  35.599  42.975  13.046
37000W        W 2161  37.878  37.769   0.827
37001W        W 2162  28.854  44.932  11.244
37002W        W 2163  10.125  29.609  10.603
37003W        W 2164  40.547   0.391   0.009
37004W        W 2165  14.898   6.838  14.482
37005W        W 2166  22.511   0.075   0.742
37006W        W 2167  40.422  11.274   4.217
37007W        W 2168  42.658  13.980   0.746
37008W        W 2169  22.514  22.555  12.954
37009W        W 2170  12.788  11.393   4.595
37010W        W 2171  23.239  40.508   2.603
37011W        W 2172   4.031  11.497  14.589
37012W        W 2173  40.320  32.455  14.244
37013W        W 2174  26.254   2.346  14.305
37014W        W 2175   8.129  31.098   4.596
37015W        W 2176  13.796  12.401  12.537
37016W        W 2177  12.951   7.450  13.935
37017W        W 2178   7.261  17.518  14.380
37018W        W 2179  42.188  28.517   2.274
37019W        W 2180   4.663  20.255   2.754
37020W        W 2181  25.949  33.573  10.514
37021W        W 2182   5.267  41.289   2.167
37022W        W 2183  10.959  37.411   2.821
37023W        W 2184  28.899  13.632  10.780
37024W        W 2185  16.829  41.798  14.948
37025W        W 2186  31.584  35.313  12.607
37026W        W 2187   3.463  31.522  12.453
37027W        W 2188  12.096  39.455  14.929
37028W        W 2189  42.525   7.918  12.608
37029W        W 2190  38.456   9.933   0.373
37030W        W 2191  36.919   5.503   3.284
37031W        W 2192  10.194  24.810   1.673
37032W        W 2193  43.009   8.873  13.262
37033W        W 2194  31.142  37.091   1.794
37034W        W 2195  33.173  20.086   0.451
37035W        W 2196  24.455  32.054  13.065
37036W        W 2197  32.615  27.181   3.229
37037W        W 2198  28.946  40.503  12.122
37038W        W 2199  43.452   3.414   0.940
37039W        W 2200  27.990  39.596   0.778
37040W        W 2201  30.313  39.940   4.655
37041W        W 2202   2.431  36.609  14.270
37042W        W 2203  28.900   9.263   1.926
37043W        W 2204  36.484   5.860   2.637
37044W        W 2205  30.968  41.576   4.541
37045W        W 2206   2.675   5.314  13.077
37046W        W 2207  42.277  30.157  12.708
37047W        W 2208  23.415   7.761   2.440
37048W        W 2209  24.754  12.421  12.901
37049W        W 2210  43.923  28.458  14.816
37050W        W 2211  35.558  24.682   2.209
37051W        W 2212  18.249  24.175   1.463
37052W        W 2213  29.319  20.778   2.246
37053W        W 2214  36.380  31.245   2.421
37054W        W 2215  13.792  37.333  14.849
37055W        W 2216  31.952  27.653  11.559
37056W        W 2217  15.324  27.403   4.630
37057W        W 2218   4.956   9.570  12.497
37058W        W 2219  34.678  33.217  14.014
37059W        W 2220  31.298  32.587   1.333
37060W        W 2221  17.308  25.024   4.857
37061W        W 2222  31.469   2.809  12.036
37062W        W 2223   7.194  26.334  12.491
37063W        W 2224   5.489   3.414  10.696
37064W        W 2225  13.074   7.085  14.332
37065W        W 2226   6.688  28.543   2.942
37066W        W 2227  33.389  35.526   2.706
37067W        W 2228  29.777  33.472  11.066
37068W        W 2229  29.177  16.891  14.613
37069W        W 2230  26.120   4.746  14.151
37070W        W 2231   1.707  35.955  14.086
37071W        W 2232  19.966  33.992   2.739
37072W        W 2233  39.517   5.340  12.608
37073W        W 2234  14.178  22.087  12.388
37074W        W 2235   6.177   9.940   2.279
37075W        W 2236  37.083  31.176   1.741
37076W        W 2237  38.523  27.115   3.122
37077W        W 2238  29.575  35.309   4.844
37078W        W 2239  37.710  23.801   4.308
37079W        W 2240   0.996  43.805   3.813
37080W        W 2241  12.589  31.112   2.198
37081W        W 2242   1.320  16.558   3.344
37082W        W 2243  22.113  44.338   0.225
37083W        W 2244  37.856   3.161   4.871
37084W        W 2245  29.950  17.896  14.492
37085W        W 2246   2.947  31.575  12.688
37086W        W 2247  36.199  41.594   1.960
37087W        W 2248  16.304  30.396  11.534
37088W        W 2249  37.305   9.342  13.336
37089W        W 2250  39.264   6.293  14.888
37090W        W 2251  20.589   2.803  13.617
37091W        W 2252   4.835  16.842   2.254
37092W        W 2253   0.467  16.638   2.095
37093W        W 2254   4.365  39.113  13.796
37094W        W 2255  16.475  43.867   4.536
37095W        W 2256  43.105   0.248   0.819
37096W        W 2257  42.811   7.263   0.851
37097W        W 2258  20.340  40.602   0.221
37098W        W 2259  18.307  35.512  13.549
37099W        W 2260  20.652  10.816   1.595
37100W        W 2261  32.003  41.831   2.099
37101W        W 2262  36.693  15.400  12.162
37102W        W 2263  34.586  16.280  12.628
37103W        W 2264  27.561  34.015   3.415
37104W        W 2265  12.645  28.168  12.905
37105W        W 2266  10.839  16.695   0.250
37106W        W 2267  38.986  29.040   3.209
37107W        W 2268  11.820   9.669   2.820
37108W        W 2269  15.823  34.055   0.477
37109W        W 2270  16.120   0.298   1.296
37110W        W 2271  22.359  43.001  10.753
37111W        W 2272  42.632   0.923  13.521
37112W        W 2273  32.551  21.149   2.215
37113W        W 2274  15.247   0.454  13.099
37114W        W 2275  13.250   5.822  12.933
37115W        W 2276  21.482  24.196   4.232
37116W        W 2277  29.529  26.913  12.848
37117W        W 2278  15.269   1.067   1.198
37118W        W 2279  11.724  32.108   9.830
37119W        W 2280   4.018   4.453   3.139
37120W        W 2281  23.797   3.254   5.005
37121W        W 2282   6.610  37.886  10.642
37122W        W 2283  34.645  40.369  13.774
37123W        W 2284  13.742  34.020  11.472
37124W        W 2285  32.110   8.320   1.733
37125W        W 2286  36.530  41.708  11.610
37126W        W 2287  44.553  18.863  13.146
37127W        W 2288  42.296  41.809   3.887
37128W        W 2289  25.650  27.905   3.670
37129W        W 2290  10.171  44.388   3.185
37130W        W 2291  18.018  19.304  14.919
37131W        W 2292  20.267  22.086  13.750
37132W        W 2293  25.228  41.349   4.039
37133W        W 2294   0.545   5.416  11.201
37134W        W 2295  44.406  25.914  11.937
37135W        W 2296   7.773  40.539   2.678
37136W        W 2297  25.011   5.416  12.553
37137W        W 2298   8.296   2.200   3.188
37138W        W 2299   7.999  12.199  10.446
37139W        W 2300  39.633   1.229  14.311
37140W        W 2301  18.727  41.891   4.107
37141W        W 2302  42.469  14.427  12.483
37142W        W 2303  32.173  41.273  11.588
37143W        W 2304  14.083  23.246   4.563
37144W        W 2305  19.275   3.176   0.483
37145W        W 2306  23.237   9.366   1.802
37146W        W 2307  11.730  30.746   2.232
37147W        W 2308   4.783  41.484   2.150
37148W        W 2309  10.089  34.952   4.359
37149W        W 2310  25.715  17.679  13.473
37150W        W 2311  34.410  40.509   1.203
37151W        W 2312  42.216  35.106   1.276
37152W        W 2313  40.625  35.952   3.990
37153W        W 2314  25.589  44.131   0.039
37154W        W 2315  27.738  38.030  12.635
37155W        W 2316  30.949  42.515  12.401
37156W        W 2317  41.516  25.500   1.061
37157W        W 2318  23.196   5.468  14.396
37158W        W 2319  36.827   0.487   9.992
37159W        W 2320  36.864  10.572  14.058
37160W        W 2321  39.777  16.096   0.868
37161W        W 2322  25.083   2.430   1.833
37162W        W 2323  23.890   0.267  13.258
37163W        W 2324  13.744   7.914   2.944
37164W        W 2325  37.404  22.984  14.752
37165W        W 2326  44.520  16.042  12.433
37166W        W 2327  28.928   7.418  14.441
37167W        W 2328  19.131   2.997  12.601
37168W        W 2329  43.846  23.665  14.287
37169W        W 2330  18.577   0.533   3.977
37170W        W 2331  14.733  30.200  12.765
37171W        W 2332  10.304  36.958   2.603
37172W        W 2333  32.677  18.028  11.596
37173W        W 2334  34.864  14.657  13.886
37174W        W 2335  35.124  35.512  14.841
37175W        W 2336   5.434  38.430  13.048
37176W        W 2337  26.255  10.208  14.570
37177W        W 2338   2.660  43.328  11.566
37178W        W 2339  27.634  34.456   2.494
37179W        W 2340  38.344  28.244  11.101
37180W        W 2341  13.886   8.941  11.445
37181W        W 2342  25.389  33.854   2.372
37182W        W 2343  18.616  10.261  11.691
37183W        W 2344  27.113  16.235  13.529
37184W        W 2345  37.467  19.122   0.802
37185W        W 2346  22.560   0.097  11.605
37186W        W 2347  18.074  30.377  11.124
37187W        W 2348  35.376  28.675   4.136
37188W        W 2349  13.212  38.385   0.354
37189W        W 2350   6.771  44.931  12.027
37190W        W 2351  15.210  39.033   3.264
37191W        W 2352   4.268  42.755   3.167
37192W        W 2353   2.305  23.300   4.648
37193W        W 2354  42.557  16.326  10.974
37194W        W 2355  40.901   6.322  12.958
37195W        W 2356  43.785  33.311   4.201
37196W        W 2357  10.697  22.496  13.535
37197W        W 2358  24.999   5.760  10.741
37198W        W 2359  12.209   4.376  14.315
37199W        W 2360  12.882  44.893  14.425
37200W        W 2361  13.221   4.532  14.461
37201W        W 2362  29.071  12.778  12.961
37202W        W 2363  34.533  17.082  12.058
37203W        W 2364  19.202  10.358   4.971
37204W        W 2365  32.088  38.366   4.526
37205W        W 2366   4.309  19.204  11.163
37206W        W 2367  13.266  14.034   4.076
37207W        W 2368  13.769   3.365  10.683
37208W        W 2369  39.642   5.435   1.186
37209W        W 2370  13.118  20.258  12.235
37210W        W 2371  13.993  37.421   0.473
37211W        W 2372  24.458  25.545  13.853
37212W        W 2373  31.388   0.078  10.637
37213W        W 2374  18.666  25.015  13.385
37214W        W 2375  27.676  23.569  10.628
37215W        W 2376  19.166  26.747   3.129
37216W        W 2377  36.121  44.364   2.149
37217W        W 2378  32.069   2.570   2.682
37218W        W 2379  23.267  26.670  14.314
37219W        W 2380  43.366  22.729  14.406
37220W        W 2381   8.106  16.882  11.166
37221W        W 2382   6.808   8.992   1.667
37222W        W 2383  33.400  16.244   3.698
37223W        W 2384  26.677  17.577  13.366
37224W        W 2385  28.655   8.077   1.441
37225W        W 2386   6.445  24.601   0.903
37226W        W 2387  39.905   7.824   4.273
37227W        W 2388  20.765  34.016   3.401
37228W        W 2389  33.638  16.283   1.759
37229W        W 2390   3.483  33.163  13.095
37230W        W 2391   2.997  35.370   5.116
37231W        W 2392  26.583  32.788  13.549
37232W        W 2393  11.396  21.959  12.591
37233W        W 2394  13.770  23.399  14.309
37234W        W 2395  23.006   7.933  11.254
37235W        W 2396  42.408  17.655   4.713
37236W        W 2397  23.247  30.450   1.736
37237W        W 2398  36.931  15.263   4.266
37238W        W 2399  21.157   7.235  13.902
37239W        W 2400  10.268   4.298  11.381
37240W        W 2401  22.643  35.233   4.526
37241W        W 2402  33.363  26.291   0.885
37242W        W 2403  40.520  14.197   9.802
37243W        W 2404  25.804  42.934  13.240
37244W        W 2405  16.379   7.317   3.601
37245W        W 2406  18.634   0.278  12.053
37246W        W 2407  27.044  30.528   1.652
37247W        W 2408   4.907  12.787   3.126
37248W        W 2409  34.558  15.597   2.209
37249W        W 2410   8.406  12.790  14.381
37250W        W 2411  25.559  20.044  11.252
37251W        W 2412  22.023  16.262   9.742
37252W        W 2413  41.048   2.349  14.055
37253W        W 2414  15.668   1.695  13.569
37254W        W 2415   0.792   2.495   4.658
37255W        W 2416  32.766   8.787  10.969
37256W        W 2417  15.597  44.033   1.793
37257W        W 2418  22.481  26.794   2.772
37258W        W 2419  35.734   9.989   2.156
37259W        W 2420   2.439  21.517   4.180
37260W        W 2421  39.973  19.119  12.487
37261W        W 2422   7.313   5.867   3.087
37262W        W 2423  15.114   3.167   0.069
37263W        W 2424  21.278  28.698   2.387
37264W        W 2425  11.371  31.501  14.101
37265W        W 2426  38.919  37.517   1.920
37266W        W 2427  35.067  32.875  14.055
37267W        W 2428  25.231   4.281  10.773
37268W        W 2429  37.084  17.464  12.992
37269W        W 2430  29.457  16.526   3.807
37270W        W 2431  11.590  24.590   3.858
37271W        W 2432  31.312  23.466  12.357
37272W        W 2433  24.529   8.875  14.494
37273W        W 2434   8.673  44.525  12.014
37274W        W 2435  12.177  29.884  11.166
37275W        W 2436   3.558  11.374   4.239
37276W        W 2437  28.610  23.149  12.404
37277W        W 2438  42.491  17.196   0.967
37278W        W 2439  33.363  26.041  14.041
37279W        W 2440  40.559   7.257  11.182
37280W        W 2441  10.280  23.677  12.698
37281W        W 2442   2.430  20.774   0.296
37282W        W 2443  30.683   7.407   3.249
37283W        W 2444   5.815   9.811   4.451
37284W        W 2445   8.154  29.978  13.282
37285W        W 2446  10.366  23.254  12.420
37286W        W 2447  10.338  27.234   0.886
37287W        W 2448  13.907  17.108   2.322
37288W        W 2449  33.049  10.606  12.413
37289W        W 2450  18.604  32.426  12.174
37290W        W 2451  11.265  23.103   4.064
37291W        W 2452  11.648   1.932  13.368
37292W        W 2453  31.187   3.029  10.439
37293W        W 2454   1.414  44.390   0.468
37294W        W 2455  41.931  32.887   1.836
37295W        W 2456   8.841  32.221   1.633
37296W        W 2457  12.268  12.663   4.373
37297W        W 2458  33.577  20.834   5.108
37298W        W 2459  22.235  44.388  14.220
37299W        W 2460  35.384  30.488  12.853
37300W        W 2461   7.694  12.713   3.807
37301W        W 2462  24.217   0.971  14.381
37302W        W 2463  40.325  34.135   4.233
37303W        W 2464   3.423  30.398  11.908
37304W        W 2465  19.991  12.864  14.294
37305W        W 2466  13.161   3.097   3.157
37306W        W 2467  34.181  28.009  10.074
37307W        W 2468  43.404  24.261   1.704
37308W        W 2469  28.717  42.778  14.956
37309W        W 2470  26.629  31.900  14.491
37310W        W 2471  32.886  27.721   1.792
37311W        W 2472  20.515  41.246  11.198
37312W        W 2473   8.700  43.867   4.409
37313W        W 2474  35.957  41.527  13.824
37314W        W 2475  38.954  31.594   1.262
37315W        W 2476  22.045  13.278  14.828
37316W        W 2477   4.004  39.342  14.546
37317W        W 2478  35.685  37.234   1.230
37318W        W 2479  44.334  32.524   2.927
37319W        W 2480  29.124   3.989   3.830
37320W        W 2481   0.237  23.564  11.638
37321W        W 2482  34.541  18.466   4.297
37322W        W 2483  33.489  26.273  13.602
37323W        W 2484  29.428  28.334   2.824
37324W        W 2485  24.216  18.180  11.094
37325W        W 2486  26.927   0.910  11.918
37326W        W 2487  31.599  33.236  11.567
37327W        W 2488  23.198  15.679  11.560
37328W        W 2489  21.503  43.324  11.650
37329W        W 2490  41.522  26.267   1.870
37330W        W 2491  14.179   9.825  13.095
37331W        W 2492  30.120  20.859   4.758
37332W        W 2493  31.504  12.307   1.394
37333W        W 2494  18.837  38.495   2.773
37334W        W 2495   0.775  32.107  13.478
37335W        W 2496  16.227  12.728  14.861
37336W        W 2497  21.178  11.156  13.577
37337W        W 2498   0.643  36.276  13.012
37338W        W 2499  27.466  11.354  12.558
37339W        W 2500  36.062  43.890   4.503
37340W        W 2501  19.060   5.804  12.123
37341W        W 2502  15.166  11.933   1.450
37342W        W 2503  44.855  31.903   3.346
37343W        W 2504  40.480   3.629   4.271
37344W        W 2505  27.083  37.277  10.603
37345W        W 2506   2.387  38.113   3.788
37346W        W 2507  26.973   8.626   4.996
37347W        W 2508  35.002   0.894  12.447
37348W        W 2509  20.119  38.452   4.182
37349W        W 2510  37.576  29.779   3.658
37350W        W 2511  24.087  27.655   2.197
37351W        W 2512   8.974   3.143  14.054
37352W        W 2513  31.799   8.331  14.218
37353W        W 2514  20.358  30.718   1.708
37354W        W 2515  42.464  13.609  14.438
37355W        W 2516   4.762  42.411   2.287
37356W        W 2517   1.090  20.849  12.944
37357W        W 2518  19.247  36.108  14.316
37358W        W 2519  44.295  36.604  14.473
37359W        W 2520  36.521  17.517  14.035
37360W        W 2521   0.412   5.661   0.463
37361W        W 2522   0.465   8.906  12.039
37362W        W 2523  34.642  29.701   2.272
37363W        W 2524  38.929  16.352   4.339
37364W        W 2525  18.683   2.486  11.033
37365W        W 2526  24.964   0.036   2.273
37366W        W 2527  19.535  10.844   2.241
37367W        W 2528  33.320   9.783  14.335
37368W        W 2529   4.945  27.408   1.635
37369W        W 2530  33.970  29.836   3.691
37370W        W 2531  11.864  10.734   2.629
37371W        W 2532   6.909  29.612  14.695
37372W        W 2533  38.371  32.460   2.099
37373W        W 2534  34.044   8.714  14.790
37374W        W 2535  19.211  22.087   0.265
37375W        W 2536  44.179  19.840  14.564
37376W        W 2537  13.985  28.457   0.032
37377W        W 2538  30.305  43.416  14.926
37378W        W 2539  10.788  21.832  11.137
37379W        W 2540  28.918  44.373  11.171
37380W        W 2541  22.237  31.189   2.394
37381W        W 2542   7.720  44.506  11.533
37382W        W 2543   8.286   6.640  13.788
37383W        W 2544  36.941  21.854   1.834
37384W        W 2545   9.376  12.982  11.195
37385W        W 2546  21.211  22.066  14.949
37386W        W 2547  30.130   2.396  13.416
37387W        W 2548  13.817   7.037  11.872
37388W        W 2549  16.121  41.412  12.430
37389W        W 2550  42.423  36.069  12.337
37390W        W 2551  31.882  12.089   1.092
37391W        W 2552  43.304  44.326  14.939
37392W        W 2553  44.743  24.498  10.504
37393W        W 2554  39.197   4.351  12.349
37394W        W 2555  17.558  43.421  10.705
37395W        W 2556  23.778  43.846   2.237
37396W        W 2557  36.075  43.872   1.883
37397W        W 2558  34.329  11.784   1.058
37398W        W 2559  11.879   7.725  13.039
37399W        W 2560  35.190  36.873   2.448
37400W        W 2561   1.691  26.542   4.102
37401W        W 2562  31.437  17.819  13.402
37402W        W 2563  39.103  13.628   1.003
37403W        W 2564   5.175   1.933   3.709
37404W        W 2565  11.927  10.634  11.936
37405W        W 2566   8.566  28.651   0.390
37406W        W 2567  31.395  34.938   3.159
37407W        W 2568  14.591  32.152   2.369
37408W        W 2569  37.029   9.404  11.201
37409W        W 2570  33.860  44.751   0.417
37410W        W 2571  17.524   1.774  14.880
37411W        W 2572  42.091   7.640  12.589
37412W        W 2573  27.938  16.682  10.739
37413W        W 2574  37.795  44.980  10.658
37414W        W 2575  36.133  32.316  12.012
37415W        W 2576  28.497  31.516  13.009
37416W        W 2577  38.336  40.015  11.528
37417W        W 2578  44.766  10.775  13.726
37418W        W 2579  19.651   2.622  11.634
37419W        W 2580  28.541  29.476  12.108
37420W        W 2581  12.150   6.171  12.435
37421W        W 2582  30.420  13.875   2.783
37422W        W 2583   1.456  43.891  10.448
37423W        W 2584  15.362   6.600  11.104
37424W        W 2585  25.561  34.951   5.044
37425W        W 2586  39.579  15.753  10.035
37426W        W 2587  41.948  24.530  10.398
37427W        W 2588   0.398  38.352   3.713
37428W        W 2589  19.405  39.297   4.988
37429W        W 2590  20.597  34.691   0.282
37430W        W 2591  21.129   2.507   4.118
37431W        W 2592  29.992  26.503  13.520
37432W        W 2593  11.362  39.584  12.158
37433W        W 2594  23.200   8.767  12.143
37434W        W 2595  22.145  13.881   2.669
37435W        W 2596  28.234  37.906  10.116
37436W        W 2597  42.802  22.269   3.193
37437W        W 2598   7.799  37.315  13.390
37438W        W 2599  36.545  38.548  11.106
37439W        W 2600  22.824   8.697   2.959
37440W        W 2601  26.573   1.846   4.083
37441W        W 2602  41.506  25.937   1.443
37442W        W 2603  35.347   8.447   2.671
37443W        W 2604  25.399  29.474   4.492
37444W        W 2605  37.416  10.796   0.915
37445W        W 2606  21.486   8.240   1.776
37446W        W 2607  38.429  20.616   4.627
37447W        W 2608  26.760  33.019  14.843
37448W        W 2609  24.229   8.137  10.747
37449W        W 2610  15.138  12.913  14.415
37450W        W 2611  23.699  38.442   0.747
37451W        W 2612  24.366  23.457   1.364
37452W        W 2613  28.910   1.062  12.104
37453W        W 2614  35.573   6.408  12.008
37454W        W 2615   5.615  28.144  11.493
37455W        W 2616  26.542  24.493   0.916
37456W        W 2617  17.279  24.572   3.784
37457W        W 2618  40.740   9.888   0.429
37458W        W 2619  21.036  38.575   1.932
37459W        W 2620  22.229  25.547   4.912
37460W        W 2621   8.624  16.065  14.384
37461W        W 2622  44.340   7.381   1.800
37462W        W 2623   3.453  25.107  12.994
37463W        W 2624  19.560  14.123  10.636
37464W        W 2625   5.712   0.517   2.337
37465W        W 2626  41.914  16.803  11.082
37466W        W 2627   5.909  29.663  11.673
37467W        W 2628  29.294  17.637  12.211
37468W        W 2629  42.055  42.721  11.355
37469W        W 2630   6.223  21.199   0.862
37470W        W 2631  13.682  22.273  13.472
37471W        W 2632  20.764   2.130  11.186
37472W        W 2633   1.373  16.499   4.692
37473W        W 2634  29.692  10.618   0.364
37474W        W 2635   8.255  40.534   2.883
37475W        W 2636  42.907  28.567   1.815
37476W        W 2637  30.132  17.299  13.954
37477W        W 2638   7.637   7.326  13.306
37478W        W 2639   0.367   9.686  14.816
37479W        W 2640  41.315   5.264   0.282
37480W        W 2641  12.409  19.249   0.933
37481W        W 2642  31.491  30.854   1.481
37482W        W 2643   2.353  36.043  13.900
37483W        W 2644  28.527  39.988   0.193
37484W        W 2645   0.359   9.728   3.147
37485W        W 2646  10.894  28.636  12.441
37486W        W 2647  38.866  29.003   5.154
37487W        W 2648  15.316  43.030   1.896
37488W        W 2649  18.471  30.403   3.354
37489W        W 2650   0.267   7.896   3.640
37490W        W 2651  14.409  30.980   3.189
37491W        W 2652  31.566  10.640  13.067
37492W        W 2653  12.202  42.733   5.015
37493W        W 2654   0.744  24.447   4.103
37494W        W 2655  34.334  20.859   4.042
37495W        W 2656   0.309  11.926   2.252
37496W        W 2657  32.006  29.278   2.359
37497W        W 2658  32.418   6.920  12.125
37498W        W 2659  26.701  42.369   3.138
37499W        W 2660   2.239   6.992   4.454
37500W        W 2661  36.692  24.596  13.271
37501W        W 2662  36.550  27.497  12.140
37502W        W 2663   3.238  29.446   0.398
37503W        W 2664  27.161  37.758   0.344
37504W        W 2665   9.801  27.735  13.298
37505W        W 2666  31.983   3.511   3.705
37506W        W 2667  33.207  20.675   0.896
37507W        W 2668  39.621  37.178   0.920
37508W        W 2669  31.186   2.889  11.464
37509W        W 2670  40.570  21.205  14.796
37510W        W 2671   5.854  39.840   2.353
37511W        W 2672  39.917   0.555   4.861
37512W        W 2673  43.635   2.267   3.648
37513W        W 2674  24.069  35.955   3.689
37514W        W 2675   9.367  25.829   4.837
37515W        W 2676  26.995  36.569   2.793
37516W        W 2677  26.544  17.831   3.627
37517W        W 2678  11.933  30.462  11.249
37518W        W 2679  43.209  44.806  12.506
37519W        W 2680  24.647  32.895  13.617
37520W        W 2681  33.898  20.144   4.251
37521W        W 2682  36.630  36.413  13.817
37522W        W 2683  40.381   9.407  12.947
37523W        W 2684  28.181  40.911   4.461
37524W        W 2685  34.857  21.971  11.640
37525W        W 2686  35.137  40.335  13.004
37526W        W 2687  42.311   8.458   0.336
37527W        W 2688  28.446  39.926   2.128
37528W        W 2689  13.703  15.577   4.386
37529W        W 2690  30.439  43.900   3.795
37530W        W 2691  11.879  15.241   3.631
37531W        W 2692  23.064  24.217  14.000
37532W        W 2693  31.915  42.935   3.757
37533W        W 2694  24.420  14.266  11.068
37534W        W 2695   5.356  24.542  10.863
37535W        W 2696   2.156  18.198  14.359
37536W        W 2697  23.743  15.791   1.169
37537W        W 2698  13.483   6.315  13.055
37538W        W 2699   2.727  21.704  10.917
37539W        W 2700  15.272  43.907   2.152
37540W        W 2701   7.376  39.551  13.756
37541W        W 2702   6.718  34.821   3.644
37542W        W 2703  17.203  19.529   1.507
37543W        W 2704   4.267  19.546  12.655
37544W        W 2705  10.891  11.757  10.700
37545W        W 2706   8.783   9.230   3.170
37546W        W 2707  19.171   6.200  14.048
37547W        W 2708  40.527  23.216  14.801
37548W        W 2709  27.920  11.240  11.986
37549W        W 2710  33.013  37.419   0.749
37550W        W 2711  16.284  13.256  14.733
37551W        W 2712   3.549  29.659  12.862
37552W        W 2713  34.812  35.975   3.266
37553W        W 2714  13.380  42.429  10.438
37554W        W 2715  40.236   2.678  12.558
37555W        W 2716  24.079  15.837  13.507
37556W        W 2717  33.410  34.467  14.778
37557W        W 2718   2.349  26.579   4.559
37558W        W 2719  11.987  27.037   1.941
37559W        W 2720  34.507  41.758   3.035
37560W        W 2721  33.958   8.473   1.475
37561W        W 2722  10.790  28.653   2.279
37562W        W 2723   1.870  44.227  13.819
37563W        W 2724  32.153   8.103  13.928
37564W        W 2725   3.209   7.210   3.581
37565W        W 2726  24.714   6.381  11.811
37566W        W 2727  15.596   1.011   5.026
37567W        W 2728   4.316  26.572  12.664
37568W        W 2729  36.444  23.526   2.209
37569W        W 2730  19.330   5.536  10.860
37570W        W 2731   4.245   4.298  14.363
37571W        W 2732  42.140   7.369  13.497
37572W        W 2733  31.090  39.419  11.561
37573W        W 2734   5.249  12.178   3.364
37574W        W 2735   9.009   7.894   3.203
37575W        W 2736  38.816   5.461   4.188
37576W        W 2737   3.405  27.159  11.910
37577W        W 2738  15.629   0.044   2.713
37578W        W 2739  28.240  42.455  12.541
37579W        W 2740  11.860   7.714  13.676
37580W        W 2741  37.197  28.508   2.269
37581W        W 2742  18.581  24.314  12.913
37582W        W 2743  14.254  43.799   1.870
37583W        W 2744   9.091   5.217   0.436
37584W        W 2745   8.416  28.367   0.804
37585W        W 2746  19.154  30.600   1.993
37586W        W 2747  17.078  24.542   1.963
37587W        W 2748   4.207   1.364  14.113
37588W        W 2749   7.982  30.734   3.215
37589W        W 2750  25.947   4.835   3.183
37590W        W 2751   2.241  18.784  11.211
37591W        W 2752  14.302   2.239  14.834
37592W        W 2753  11.841  36.258   4.419
37593W        W 2754  25.750  40.324   2.785
37594W        W 2755  37.823  15.761   2.352
37595W        W 2756   7.906   0.653  13.779
37596W        W 2757  44.020  15.694  14.085
37597W        W 2758  42.942  17.761   2.439
37598W        W 2759  13.679  41.806  13.178
37599W        W 2760  27.756  16.845   4.327
37600W        W 2761  43.691   5.379  11.525
37601W        W 2762   4.230  25.422  13.690
37602W        W 2763  23.819  10.734  12.665
37603W        W 2764  14.317  38.732   0.845
37604W        W 2765  31.090  15.205   1.669
37605W        W 2766  22.122  44.872   4.537
37606W        W 2767   1.786  18.282  14.876
37607W        W 2768  25.172  10.447   2.596
37608W        W 2769  20.884  13.554  13.990
37609W        W 2770  10.825   6.856   4.901
37610W        W 2771  14.644  34.442   2.876
37611W        W 2772  11.199   6.366  12.495
37612W        W 2773  34.035  40.915   4.033
37613W        W 2774  31.624  30.779   1.957
37614W        W 2775  11.309  12.214   4.167
37615W        W 2776  23.585  42.085  10.385
37616W        W 2777  43.470   5.410  10.678
37617W        W 2778  13.922  14.298   3.789
37618W        W 2779  12.789  27.376   2.755
37619W        W 2780  14.870  29.985   0.495
37620W        W 2781  41.811   4.975   3.235
37621W        W 2782  43.419  15.211   2.260
37622W        W 2783   7.216  22.198   4.952
37623W        W 2784  25.066  30.822   3.891
37624W        W 2785  33.297   2.723  14.503
37625W        W 2786   2.588  10.808  12.552
37626W        W 2787   5.025  19.892   3.252
37627W        W 2788  32.730  11.128   1.236
37628W        W 2789   2.893   6.993   4.134
37629W        W 2790  10.827  44.406   1.723
37630W        W 2791  29.514  27.609   1.732
37631W        W 2792  14.199   2.031   4.573
37632W        W 2793  19.758  24.386  10.220
37633W        W 2794   3.254  32.166   0.908
37634W        W 2795  44.667  19.801  14.398
37635W        W 2796  29.050   8.442   2.196
37636W        W 2797  40.647   0.408   4.319
37637W        W 2798  32.644  44.916   4.593
37638W        W 2799  37.076   0.758  14.475
37639W        W 2800   2.380  35.986   5.223
37640W        W 2801  22.613  18.560  13.385
37641W        W 2802   4.841   4.541   5.038
37642W        W 2803  40.586   0.761  12.545
37643W        W 2804   1.322  29.906  12.109
37644W        W 2805   0.878  40.930   0.510
37645W        W 2806  26.113  22.470   0.267
37646W        W 2807  38.772  40.234   3.068
37647W        W 2808  27.277  21.323   3.600
37648W        W 2809   6.663  10.234  14.840
37649W        W 2810  20.485  43.507   1.002
37650W        W 2811  29.997   0.056   3.607
37651W        W 2812   4.261  36.907  10.650
37652W        W 2813  31.046  12.031   4.591
37653W        W 2814  34.813   8.371  14.959
37654W        W 2815  33.848  28.584   2.161
37655W        W 2816   8.376   3.349  13.563
37656W        W 2817  31.413  14.532   3.785
37657W        W 2818   5.786  25.893   3.204
37658W        W 2819  22.572   6.345   0.881
37659W        W 2820  13.791  18.146   1.432
37660W        W 2821   7.098  18.664   0.625
37661W        W 2822  10.817  16.167  10.567
37662W        W 2823  10.749  32.957   3.980
37663W        W 2824   3.415  31.495  11.467
37664W        W 2825   9.866  29.926  10.952
37665W        W 2826   5.521  38.194   0.872
37666W        W 2827  18.131   3.666  13.070
37667W        W 2828  35.622   0.573   0.930
37668W        W 2829  27.882   0.824   2.673
37669W        W 2830  16.867   2.319  14.461
37670W        W 2831  16.218  32.614   4.502
37671W        W 2832  24.558  16.183  13.017
37672W        W 2833  24.966  15.661  13.902
37673W        W 2834   4.341  35.184  14.044
37674W        W 2835  40.735  15.825   2.853
37675W        W 2836   1.784  10.576   5.158
37676W        W 2837  21.234  19.606   0.443
37677W        W 2838  43.670   1.422   2.647
37678W        W 2839  21.562  36.056  14.712
37679W        W 2840  31.687   2.537   1.763
37680W        W 2841  24.042   6.569  12.531
37681W        W 2842  39.569   9.228   4.260
37682W        W 2843  33.997  13.815  14.494
37683W        W 2844  28.073  14.567   0.062
37684W        W 2845  26.021  32.733  11.625
37685W        W 2846  34.131  37.136   1.893
37686W        W 2847  36.828  11.801  13.353
37687W        W 2848   1.197  25.129   2.930
37688W        W 2849  26.094  26.450   4.478
37689W        W 2850  41.591  30.568   0.443
37690W        W 2851  28.975  11.141   3.672
37691W        W 2852   2.323  37.888  12.882
37692W        W 2853   4.425   9.904   0.582
37693W        W 2854   3.252  20.460  12.763
37694W        W 2855   2.653  34.913  13.991
37695W        W 2856  23.665  43.510  12.090
37696W        W 2857  23.592   0.838   2.929
37697W        W 2858  26.214   6.019   0.538
37698W        W 2859  29.753  44.267   3.693
37699W        W 2860   6.504  10.821   0.708
37700W        W 2861   5.231   7.411   1.383
37701W        W 2862  44.162  23.643   4.645
37702W        W 2863  12.905  16.140  13.790
37703W        W 2864  41.500  39.258   2.282
37704W        W 2865  18.271  13.851   3.750
37705W        W 2866  15.287  40.795   0.846
37706W        W 2867  18.392   4.263   1.943
37707W        W 2868  34.847   7.685   0.882
37708W        W 2869  26.025  29.025   3.709
37709W        W 2870  41.319  14.079   4.074
37710W        W 2871  10.188   4.789   4.972
37711W        W 2872  11.929  26.032  11.122
37712W        W 2873   3.540   0.474   0.790
37713W        W 2874   1.882  10.267   0.168
37714W        W 2875   7.392  19.291   1.949
37715W        W 2876  37.995  28.157   2.397
37716W        W 2877   6.332  43.963   4.569
37717W        W 2878  28.644  38.288  12.187
37718W        W 2879  10.823  18.483  13.331
37719W        W 2880  14.885   5.914  11.469
37720W        W 2881  41.229  23.250  12.957
37721W        W 2882  34.583  26.958   2.008
37722W        W 2883  19.574  22.903   0.770
37723W        W 2884  39.324  36.675  10.775
37724W        W 2885   7.428   5.258  13.058
37725W        W 2886  19.356  42.884   2.716
37726W        W 2887  31.061  28.139  10.526
37727W        W 2888  31.079   2.930   0.269
37728W        W 2889  11.110  38.526   2.706
37729W        W 2890  44.777  32.445   4.018
37730W        W 2891  41.641  21.957  11.969
37731W        W 2892   8.770  38.693  10.403
37732W        W 2893  43.565  37.429   2.635
37733W        W 2894  15.103   6.820   0.372
37734W        W 2895   9.358  36.507   0.477
37735W        W 2896  17.600  42.386  13.913
37736W        W 2897   6.239  28.399   1.803
37737W        W 2898   8.448   1.720  11.585
37738W        W 2899  30.440  30.458  12.032
37739W        W 2900  28.978  15.449  14.742
37740W        W 2901  27.423  40.584  13.536
37741W        W 2902  18.578   6.892  13.514
37742W        W 2903  13.300  26.593   1.937
37743W        W 2904  12.122  33.494  13.281
37744W        W 2905  28.993  40.347   3.725
37745W        W 2906   3.285   4.893   4.167
37746W        W 2907  44.437   7.351  10.975
37747W        W 2908  41.497  39.485   0.581
37748W        W 2909  31.612   7.382   2.932
37749W        W 2910  18.989   8.912   3.206
37750W        W 2911   1.416  26.121  14.043
37751W        W 2912  21.675   4.187  10.601
37752W        W 2913  39.323  36.565   2.250
37753W        W 2914  14.629  21.143  12.106
37754W        W 2915  19.319  15.797  12.662
37755W        W 2916  10.310  39.733   4.490
37756W        W 2917   1.709   1.404   2.817
37757W        W 2918   4.427  32.344   2.717
37758W        W 2919  38.526   8.391  12.890
37759W        W 2920  24.075  23.706  13.862
37760W        W 2921  22.479   1.100   2.736
37761W        W 2922   7.839  17.489   4.099
37762W        W 2923  12.792   9.571   1.771
37763W        W 2924  31.694  30.115   0.481
37764W        W 2925  26.222   5.370   0.724
37765W        W 2926   7.707   0.183  12.865
37766W        W 2927  27.245  36.940   4.360
37767W        W 2928  41.553  28.854   0.772
37768W        W 2929   2.103  19.235   4.122
37769W        W 2930   5.439  13.456   1.837
37770W        W 2931  14.197  23.268   1.247
37771W        W 2932  33.922  16.824   2.261
37772W        W 2933  32.913  23.573   0.046
37773W        W 2934  26.493  26.650  13.771
37774W        W 2935  44.972  38.821   0.823
37775W        W 2936  30.774   4.888  10.779
37776W        W 2937  40.443  26.041   3.645
37777W        W 2938  42.790   3.844   3.949
37778W        W 2939  17.732   2.743  12.372
37779W        W 2940  20.030  28.651  12.574
37780W        W 2941  29.634  12.800   3.805
37781W        W 2942  42.810  28.121   4.035
37782W        W 2943  30.489   1.459   1.065
37783W        W 2944   4.521  22.601   0.493
37784W        W 2945  20.633   4.874   3.401
37785W        W 2946   1.496  15.063   4.280
37786W        W 2947  23.414  28.154  13.214
37787W        W 2948   1.917  22.145   4.499
37788W        W 2949  42.109  16.181   3.744
37789W        W 2950  26.251  43.506   9.697
37790W        W 2951  41.983  37.131  14.878
37791W        W 2952  10.719   4.766   1.850
37792W        W 2953   2.072   6.275   2.837
37793W        W 2954  29.903  29.013   1.722
37794W        W 2955  22.454  36.459  13.510
37795W        W 2956   9.117  31.879  10.728
37796W        W 2957  18.983  37.088   3.151
37797W        W 2958   1.260  21.481  12.403
37798W        W 2959  39.787  32.746   0.902
37799W        W 2960  25.184  19.058   1.460
37800W        W 2961  26.184  40.482  13.082
37801W        W 2962  36.239  38.353  14.553
37802W        W 2963   8.390  44.244  11.695
37803W        W 2964  11.560  33.505   0.572
37804W        W 2965  32.012  37.328  12.058
37805W        W 2966  26.914   9.509   3.765
37806W        W 2967  42.997  18.392   0.627
37807W        W 2968   7.646  36.520  13.993
37808W        W 2969  41.831  21.660   0.955
37809W        W 2970  10.268  15.072  14.529
37810W        W 2971  14.631   9.554  13.158
37811W        W 2972   6.889  12.303   3.759
37812W        W 2973  42.552  31.077   0.343
37813W        W 2974  17.648  19.623   1.223
37814W        W 2975  12.145  42.669   1.279
37815W        W 2976  21.842   0.317  11.039
37816W        W 2977  11.323  22.543   3.171
37817W        W 2978  43.257  30.150   3.601
37818W        W 2979  44.004  27.892   1.299
37819W        W 2980  34.301   9.156   0.495
37820W        W 2981  42.490  16.770   0.217
37821W        W 2982  21.295  32.768   0.859
37822W        W 2983  23.428   3.515  11.065
37823W        W 2984  30.806  11.664  14.526
37824W        W 2985  41.484  37.492  12.327
37825W        W 2986  19.647  20.985   4.847
37826W        W 2987  28.471  41.979   1.054
37827W        W 2988  13.550  33.361   1.887
37828W        W 2989  37.460  32.481   0.185
37829W        W 2990   1.453   0.473   3.678
37830W        W 2991   1.283   9.936  11.916
37831W        W 2992   7.902  29.544  11.487
37832W        W 2993  18.533  21.600  13.571
37833W        W 2994  41.760  22.257   0.385
37834W        W 2995   0.887  15.854  12.522
37835W        W 2996  36.359   9.624  14.696
37836W        W 2997  40.409  35.520  13.837
37837W        W 2998  22.258  27.395   3.084
37838W        W 2999  30.175  28.621   4.018
37839W        W 3000  34.004  33.927  12.819
37840W        W 3001  40.920  28.122  11.288
37841W        W 3002   6.814  13.073   4.095
37842W        W 3003  16.095  25.518   2.422
37843W        W 3004  30.072  13.339   0.259
37844W        W 3005  42.580  24.560   2.662
37845W        W 3006  29.492  19.606   1.653
37846W        W 3007   1.702  30.826   0.035
37847W        W 3008   4.705  36.599  10.635
37848W        W 3009  20.502  15.577  13.133
37849W        W 3010  13.177  11.246   3.355
37850W        W 3011  30.838  12.825  13.329
37851W        W 3012  41.839  19.482  12.033
37852W        W 3013  19.447   6.914   3.114
37853W        W 3014  25.918   3.515   4.603
37854W        W 3015  28.920  23.457  12.093
37855W        W 3016  26.010  23.666   2.179
37856W        W 3017  34.790  28.752  12.325
37857W        W 3018  19.831  31.057  13.854
37858W        W 3019  28.698   3.923   0.571
37859W        W 3020  24.494  41.084   0.864
37860W        W 3021  12.263  34.977  11.552
37861W        W 3022   1.094   6.663  12.333
37862W        W 3023  11.688  40.475  14.903
37863W        W 3024   3.817   4.692   2.331
37864W        W 3025  35.283  15.560   0.438
37865W        W 3026   4.771  27.069   2.452
37866W        W 3027  10.226  35.323   1.124
37867W        W 3028  23.721  35.825  11.964
37868W        W 3029   5.089  34.541   2.393
37869W        W 3030  34.109   3.658  11.131
37870W        W 3031  36.003  40.917   2.655
37871W        W 3032  23.494  18.683   3.182
37872W        W 3033  22.703  18.200  12.581
37873W        W 3034   9.603  12.680   1.228
37874W        W 3035  33.589   1.216   0.385
37875W        W 3036  35.915   7.590   4.554
37876W        W 3037   0.195  29.984  12.449
37877W        W 3038  31.177  25.211   1.853
37878W        W 3039  11.742  34.612   2.807
37879W        W 3040  18.139  24.597   4.626
37880W        W 3041  14.172  39.039  13.614
37881W        W 3042  41.954  25.729  13.838
37882W        W 3043  42.545  29.406   4.227
37883W        W 3044  28.210  28.168   0.532
37884W        W 3045  35.431  27.780  13.756
37885W        W 3046  26.362  40.427   1.787
37886W        W 3047  28.595  33.683   2.699
37887W        W 3048  12.724  23.208   1.150
37888W        W 3049  40.168  15.098  12.690
37889W        W 3050   7.288  21.215   4.014
37890W        W 3051  11.223  27.267  12.932
37891W        W 3052  34.290  16.058  12.124
37892W        W 3053  24.543  24.990  14.501
37893W        W 3054  39.344   7.744  13.354
37894W        W 3055  31.714  25.257   4.945
37895W        W 3056  19.713  39.831   2.227
37896W        W 3057  44.702  35.175   2.760
37897W        W 3058  24.591  43.937   0.859
37898W        W 3059  41.324   6.594   3.153
37899W        W 3060  28.731  42.371  12.378
37900W        W 3061   9.788  28.670   1.384
37901W        W 3062  14.877  24.737   0.251
37902W        W 3063  35.103  39.027  14.420
37903W        W 3064  13.925   8.436  11.266
37904W        W 3065  35.463  22.293  13.818
37905W        W 3066  39.119  31.125   1.486
37906W        W 3067  13.591   5.849  12.414
37907W        W 3068  15.233  12.249   1.031
37908W        W 3069   9.421  11.693  12.423
37909W        W 3070  37.668   0.963   3.284
37910W        W 3071   3.041  27.993  10.723
37911W        W 3072  31.509  39.604  13.112
37912W        W 3073  17.638  44.757   3.716
37913W        W 3074   0.502   0.382   3.742
37914W        W 3075  16.585  22.716   1.875
37915W        W 3076  16.080  10.147  13.242
37916W        W 3077  44.266  43.696   0.813
37917W        W 3078  14.500   1.525   0.927
37918W        W 3079  42.132  29.321   5.338
37919W        W 3080   8.909  21.012   4.228
37920W        W 3081  19.253   7.369   0.385
37921W        W 3082  22.823  33.578  13.947
37922W        W 3083  16.583  16.008  10.659
37923W        W 3084  36.353  16.550   1.809
37924W        W 3085  16.433  18.130  10.514
37925W        W 3086  36.640  20.707   0.264
37926W        W 3087  27.293  11.774  14.481
37927W        W 3088  20.883  44.448   4.919
37928W        W 3089  22.457  17.653   4.468
37929W        W 3090  28.798  35.503  12.034
37930W        W 3091  42.393  24.590  14.042
37931W        W 3092  19.956  11.246   1.359
37932W        W 3093  17.344  19.859   4.126
37933W        W 3094   1.735  44.494   4.811
37934W        W 3095  36.505   0.159   1.369
37935W        W 3096  21.729  38.370  14.879
37936W        W 3097   2.471  35.814   1.616
37937W        W 3098  36.977   0.398   3.206
37938W        W 3099  16.248  44.398   3.690
37939W        W 3100  12.380  10.342  11.998
37940W        W 3101  13.279  34.430  12.827
37941W        W 3102   8.392  16.862   3.914
37942W        W 3103   0.943  33.898   2.327
37943W        W 3104   4.215  39.561  11.171
37944W        W 3105  23.673   1.448   2.618
37945W        W 3106  10.748  26.638  14.191
37946W        W 3107  15.664  18.207  13.016
37947W        W 3108   0.940  23.084   1.222
37948W        W 3109  21.665  12.294   4.129
37949W        W 3110  26.062   7.405   4.604
37950W        W 3111  38.636  23.260  11.248
37951W        W 3112   3.705  18.672  13.716
37952W        W 3113  20.349  17.030   0.792
37953W        W 3114  40.574   4.233  11.454
37954W        W 3115  12.362  40.735   4.481
37955W        W 3116  14.081  39.705  13.195
37956W        W 3117  32.880   8.421   1.083
37957W        W 3118  12.838   5.442  14.924
37958W        W 3119  26.573  38.539   1.745
37959W        W 3120  27.112  32.149  14.370
37960W        W 3121   1.990   9.968  12.561
37961W        W 3122  21.242  31.209   4.775
37962W        W 3123  14.570  31.177  12.524
37963W        W 3124  43.763  32.405  14.768
37964W        W 3125  13.370  34.900   3.680
37965W        W 3126  20.714  12.174   0.391
37966W        W 3127  40.838  22.256   2.358
37967W        W 3128   3.463  24.313   0.860
37968W        W 3129  30.191  43.680   2.077
37969W        W 3130   8.883  24.736   2.016
37970W        W 3131  25.976  12.878  14.174
37971W        W 3132  39.671  24.635  10.908
37972W        W 3133  17.255  30.949   4.279
37973W        W 3134  13.044  24.113   4.237
37974W        W 3135  26.451  22.973   1.206
37975W        W 3136  27.510  25.135  11.564
37976W        W 3137   5.237   3.384  14.910
37977W        W 3138  41.392   3.985   4.588
37978W        W 3139   9.290  39.836   0.906
37979W        W 3140  42.449  38.309  13.857
37980W        W 3141   9.496   9.899   0.718
37981W        W 3142  32.425  29.753  13.889
37982W        W 3143  16.338   7.456  12.807
37983W        W 3144   3.138  13.654   1.371
37984W        W 3145  25.593  33.130  12.439
37985W        W 3146  13.375   4.798  14.034
37986W        W 3147  22.762  22.727   3.296
37987W        W 3148  33.365   9.725   3.629
37988W        W 3149  42.424  17.315  10.741
37989W        W 3150  18.581  21.560   2.375
37990W        W 3151  24.219  15.382  14.419
37991W        W 3152  24.953  15.948   5.055
37992W        W 3153  14.285  40.799   9.602
37993W        W 3154   9.295  44.359  13.535
37994W        W 3155  43.247  13.622   1.352
37995W        W 3156  16.086  33.894   4.094
37996W        W 3157   9.684  14.613  10.736
37997W        W 3158  24.440   0.297  12.078
37998W        W 3159  26.671  41.963   2.822
37999W        W 3160  20.798   5.242   3.757
38000W        W 3161  20.311  26.391  14.788
38001W        W 3162  17.324  24.994   0.808
38002W        W 3163  22.877  23.982   2.714
38003W        W 3164  25.606  15.597   4.682
38004W        W 3165  18.565  21.726   1.700
38005W        W 3166  23.237  12.151  13.050
38006W        W 3167   5.139   7.992   5.023
38007W        W 3168  19.612  12.202  13.511
38008W        W 3169  17.475  42.016   1.743
38009W        W 3170  33.532   3.005  14.868
38010W        W 3171  40.982  30.094   0.837
38011W        W 3172  42.839  14.668   2.704
38012W        W 3173   4.349  38.320  10.441
38013W        W 3174   6.103  42.892   0.366
38014W        W 3175  41.006  28.378   1.179
38015W        W 3176  36.350   3.240  10.601
38016W        W 3177  26.656   8.276  10.710
38017W        W 3178  25.370  17.627   1.812
38018W        W 3179   7.607  15.686  12.505
38019W        W 3180  15.370   9.241   4.824
38020W        W 3181  22.603  27.496  11.112
38021W        W 3182   2.940   9.787   4.388
38022W        W 3183   6.184   7.126   4.524
38023W        W 3184  10.797  44.172   0.645
38024W        W 3185   8.824   3.309   1.731
38025W        W 3186  30.007  14.200   2.910
38026W        W 3187  12.236  41.705   4.831
38027W        W 3188  17.536  21.422  11.234
38028W        W 3189   4.665  37.061  12.826
38029W        W 3190  25.697  33.416   2.344
38030W        W 3191  11.052  10.276  14.875
38031W        W 3192   0.088  40.996  10.010
38032W        W 3193  35.145  40.763   1.274
38033W        W 3194  21.637  16.610  12.213
38034W        W 3195  10.932  30.010   4.190
38035W        W 3196   1.528  37.339   1.124
38036W        W 3197  38.083   7.700  13.852
38037W        W 3198  22.481  24.083  11.551
38038W        W 3199   3.270   9.316   3.709
38039W        W 3200  19.679  11.148  10.662
38040W        W 3201   5.649  17.329   1.185
38041W        W 3202  16.782  29.798  13.832
38042W        W 3203  30.445  40.301  14.689
38043W        W 3204   1.333  32.248  12.408
38044W        W 3205   5.255  29.004  11.470
38045W        W 3206  16.809   7.671   1.367
38046W        W 3207  19.267  32.075   0.494
38047W        W 3208  25.827  24.053  14.085
38048W        W 3209  32.045   3.154  13.094
38049W        W 3210  39.179   2.946  14.379
38050W        W 3211  12.319  15.775  13.323
38051W        W 3212   5.269  37.880  11.183
38052W        W 3213  29.356   4.852   2.829
38053W        W 3214  21.336   2.440   1.125
38054W        W 3215  37.322  36.087  14.931
38055W        W 3216  41.138   5.177  13.333
38056W        W 3217  36.912   9.915  12.098
38057W        W 3218  34.554  26.462   1.914
38058W        W 3219  22.708  11.228   5.117
38059W        W 3220  37.370  17.183  12.491
38060W        W 3221  17.472  11.289   4.812
38061W        W 3222  41.846  36.598   1.737
38062W        W 3223  41.514   1.802  12.494
38063W        W 3224  42.719  18.889  14.373
38064W        W 3225   9.874   7.513  14.238
38065W        W 3226  40.826  33.337   2.277
38066W        W 3227   4.752  32.611  12.013
38067W        W 3228   1.310  39.695  12.320
38068W        W 3229   3.818  39.445  12.039
38069W        W 3230  31.980  12.917  13.866
38070W        W 3231  30.116  39.011  14.019
38071W        W 3232  15.151  41.400  11.567
38072W        W 3233  19.345  14.064   2.362
38073W        W 3234  17.262  43.903  10.252
38074W        W 3235   0.680  26.851  14.195
38075W        W 3236   5.817  42.079  13.454
38076W        W 3237  17.970  30.513   3.238
38077W        W 3238  24.967   8.094  14.925
38078W        W 3239   4.252  38.226  13.409
38079W        W 3240   0.821  24.266  12.597
38080W        W 3241  11.840  44.487   1.705
38081W        W 3242  12.380   0.197  11.183
38082W        W 3243  10.192  23.680  11.132
38083W        W 3244   9.331  21.290   4.354
38084W        W 3245  30.914  33.465  11.531
38085W        W 3246  39.631   0.498  12.588
38086W        W 3247  28.676   2.115  13.438
38087W        W 3248  14.810  15.714  10.912
38088W        W 3249  15.063  26.496   3.590
38089W        W 3250  39.293   5.241  14.576
38090W        W 3251  11.289   1.840  14.374
38091W        W 3252  25.697  43.535   1.319
38092W        W 3253  16.983  36.327   2.303
38093W        W 3254  42.481  39.134  14.340
38094W        W 3255  42.593  18.342  13.935
38095W        W 3256   7.283  25.183  10.276
38096W        W 3257  22.937  23.123  14.848
38097W        W 3258   4.304  32.727   1.596
38098W        W 3259  39.098  23.273   2.446
38099W        W 3260  32.009  37.894  13.371
38100W        W 3261  36.400  35.481   1.168
38101W        W 3262  25.238  29.508   2.856
38102W        W 3263  16.604  16.409  14.765
38103W        W 3264  40.242  36.724  14.535
38104W        W 3265   0.416  19.749   2.829
38105W        W 3266  44.025   8.850   0.908
38106W        W 3267  40.432  28.051   1.326
38107W        W 3268   1.991  30.058  11.419
38108W        W 3269  26.549   0.384   3.099
38109W        W 3270  33.470  24.821  10.789
38110W        W 3271  25.699  18.109  12.448
38111W        W 3272  37.876  36.930   2.895
38112W        W 3273  32.008  33.413   0.764
38113W        W 3274  34.027  12.526   3.643
38114W        W 3275  25.105  35.483  13.475
38115W        W 3276  33.970  24.417   0.139
38116W        W 3277   4.662  23.258  11.638
38117W        W 3278  22.424  39.451   1.273
38118W        W 3279  39.918   7.585   4.741
38119W        W 3280  18.620  31.623  10.480
38120W        W 3281  19.832  38.324  10.823
38121W        W 3282  33.267   9.408  11.168
38122W        W 3283  32.128  16.834   2.275
38123W        W 3284  31.247  24.607   3.102
38124W        W 3285  19.262  22.456  14.460
38125W        W 3286  17.622  38.553  11.603
38126W        W 3287  28.169  13.348  11.159
38127W        W 3288  13.243  33.545  12.320
38128W        W 3289  12.815   6.796   1.896
38129W        W 3290  17.831   4.818  13.924
38130W        W 3291  16.681   7.359   0.921
38131W        W 3292  34.572  35.007  14.458
38132W        W 3293  37.297  34.120  12.108
38133W        W 3294  27.796  27.602   3.075
38134W        W 3295  20.657  23.453  14.776
38135W        W 3296  31.361  41.882  11.205
38136W        W 3297  19.297  40.430  12.288
38137W        W 3298  39.822  28.673   3.370
38138W        W 3299  21.836   6.913  11.476
38139W        W 3300  23.644  36.853  13.007
38140W        W 3301  39.246   4.409  13.326
38141W        W 3302   9.760  29.426   4.342
38142W        W 3303  30.865  36.050   0.419
38143W        W 3304  41.558  25.191   3.725
38144W        W 3305  23.809  20.270   2.903
38145W        W 3306  18.530   0.661  14.403
38146W        W 3307  33.822   0.168  14.740
38147W        W 3308  10.357   1.972  13.993
38148W        W 3309  34.081  15.635  10.935
38149W        W 3310  28.147  28.039  10.690
38150W        W 3311  29.010  40.759   3.390
38151W        W 3312  20.714  42.859  12.769
38152W        W 3313   0.973  42.339   3.314
38153W        W 3314  41.361  18.055  13.471
38154W        W 3315   9.505  20.487   1.833
38155W        W 3316  28.450  16.641  10.678
38156W        W 3317  41.053   3.156  10.899
38157W        W 3318   8.703   7.385  12.134
38158W        W 3319  29.958  29.541  10.673
38159W        W 3320  25.321  43.449   9.753
38160W        W 3321   4.387  42.888  14.863
38161W        W 3322  21.168  15.356  14.683
38162W        W 3323  29.228  32.499   2.718
38163W        W 3324  44.529   7.501   4.485
38164W        W 3325  11.096  38.392  13.371
38165W        W 3326  42.275  44.819   3.229
38166W        W 3327  21.209   6.286   0.282
38167W        W 3328  23.153  33.939   0.678
38168W        W 3329  14.609  37.491  12.950
38169W        W 3330  11.174  41.155  12.529
38170W        W 3331  40.100   2.430  10.992
38171W        W 3332  37.958  24.261  14.806
38172W        W 3333   4.839  18.351  14.832
38173W        W 3334  24.731   2.746   2.423
38174W        W 3335  18.661  28.182  13.874
38175W        W 3336  26.995   0.074  11.029
38176W        W 3337  25.326  10.290  13.468
38177W        W 3338   2.936  27.027  14.442
38178W        W 3339  39.950  21.718   4.679
38179W        W 3340  12.917  14.312  13.947
38180W        W 3341  10.746  15.146  11.579
38181W        W 3342   0.903  38.030   1.110
38182W        W 3343   2.278  28.763  13.498
38183W        W 3344  27.707  19.611   1.788
38184W        W 3345   4.028  21.495  13.775
38185W        W 3346   6.845   1.669  14.441
38186W        W 3347   3.896  23.798   1.670
38187W        W 3348  27.160  12.368   1.332
38188W        W 3349   5.896  33.194   0.374
38189W        W 3350   3.308  21.512   1.701
38190W        W 3351  40.040  27.139   2.858
38191W        W 3352  39.797  17.766   2.210
38192W        W 3353   5.018  23.401   2.381
38193W        W 3354  39.028  44.193   2.770
38194W        W 3355  34.356  35.035   3.729
38195W        W 3356  14.964  36.163  13.896
38196W        W 3357  14.702   4.665   4.067
38197W        W 3358  44.288  39.088  11.612
38198W        W 3359  28.175   9.277  12.114
38199W        W 3360  27.617   8.188  14.566
38200W        W 3361  32.193  26.583  11.173
38201W        W 3362  16.497  36.324   3.790
38202W        W 3363  34.334  15.160   2.711
38203W        W 3364  33.005  19.544   3.513
38204W        W 3365   5.109   8.355   3.749
38205W        W 3366   7.861  37.997   3.239
38206W        W 3367   7.809  41.269  11.940
38207W        W 3368  40.921  43.555  13.030
38208W        W 3369   3.773   1.376   3.720
38209W        W 3370  22.730  31.608  11.533
38210W        W 3371  37.161  32.402   4.160
38211W        W 3372  31.054  10.197  14.344
38212W        W 3373  42.388  35.610   1.299
38213W        W 3374  42.381   7.787   1.574
38214W        W 3375  23.235  13.972  13.860
38215W        W 3376  11.889  44.441   4.161
38216W        W 3377  23.190  11.044  11.557
38217W        W 3378  34.960   9.185  13.338
38218W        W 3379  32.540   3.684   3.195
38219W        W 3380  33.152  39.388   2.635
38220W        W 3381  42.432   0.702   2.056
38221W        W 3382   6.726   3.103  13.495
38222W        W 3383   5.821  33.539  10.789
38223W        W 3384  43.559  38.897   3.361
38224W        W 3385  14.351  32.298   0.351
38225W        W 3386  32.477  29.889   0.825
38226W        W 3387   1.838  25.660  13.348
38227W        W 3388  11.261  12.741  10.716
38228W        W 3389  27.856  23.234   0.356
38229W        W 3390  38.994  12.534   3.329
38230W        W 3391  22.186  19.101   5.056
38231W        W 3392   0.373   8.688  14.526
38232W        W 3393  13.870  22.554   2.897
38233W        W 3394  27.504  20.114  10.732
38234W        W 3395   2.248  29.120   0.379
38235W        W 3396  35.862   1.279   3.511
38236W        W 3397  36.053   5.017   3.063
38237W        W 3398  37.118   5.253  13.987
38238W        W 3399   4.461  17.015  11.637
38239W        W 3400  43.239  25.700  11.543
38240W        W 3401  18.545  25.368  12.054
38241W        W 3402  31.586  16.121   4.729
38242W        W 3403  19.385   5.794   1.795
38243W        W 3404  40.763   4.348   0.397
38244W        W 3405  20.917  42.707   3.276
38245W        W 3406   3.241   0.470  11.349
38246W        W 3407   4.840  11.123  12.942
38247W        W 3408   7.764  41.006  11.430
38248W        W 3409   1.880  35.405  11.418
38249W        W 3410  29.496  42.091  10.694
38250W        W 3411  39.786  35.453   2.790
38251W        W 3412  17.069   0.336   0.855
38252W        W 3413  19.730  16.193   0.741
38253W        W 3414  21.476  13.688  10.620
38254W        W 3415  18.261  17.724  10.627
38255W        W 3416  25.283  27.603  14.209
38256W        W 3417  26.219  44.260   1.463
38257W        W 3418  19.066  10.825  12.921
38258W        W 3419  19.689  37.798  10.711
38259W        W 3420   5.841   4.134  13.939
38260W        W 3421  34.361  28.089  14.813
38261W        W 3422   7.088  21.629   4.597
38262W        W 3423  28.146  14.919   1.449
38263W        W 3424   6.004  22.671  14.941
38264W        W 3425  20.469  42.414   3.197
38265W        W 3426  25.958  33.577  14.939
38266W        W 3427   2.179   1.364  12.890
38267W        W 3428  43.671  13.349   1.133
38268W        W 3429  31.086  20.995   0.268
38269W        W 3430  11.496   1.865  10.026
38270W        W 3431  10.200  24.472  13.714
38271W        W 3432   7.743  18.265   4.591
38272W        W 3433  28.536  20.000   2.788
38273W        W 3434  10.780  31.507   1.180
38274W        W 3435   9.913  15.880   0.843
38275W        W 3436  37.375  43.015  11.585
38276W        W 3437  26.669   9.690   4.187
38277W        W 3438  25.661  21.220   0.264
38278W        W 3439  41.858  18.624  11.957
38279W        W 3440  13.679  31.446   3.283
38280W        W 3441  38.147  38.670   1.798
38281W        W 3442  40.757  39.740  13.821
38282W        W 3443  17.683  31.740  12.410
38283W        W 3444  33.507   2.596  10.403
38284W        W 3445  33.489  20.574   2.747
38285W        W 3446  38.036  29.641  11.180
38286W        W 3447   5.215  11.068   4.793
38287W        W 3448  25.642  13.885  12.548
38288W        W 3449  27.719  36.357  11.188
38289W        W 3450   0.641  24.745   4.541
38290W        W 3451  13.114   0.812  11.595
38291W        W 3452  19.590  44.308  12.550
38292W        W 3453  10.698  21.084   4.743
38293W        W 3454   1.475  17.309   0.888
38294W        W 3455   1.678  39.286  12.319
38295W        W 3456  22.016  18.764   3.760
38296W        W 3457  18.103  22.070   4.052
38297W        W 3458  32.967  21.739  14.406
38298W        W 3459  27.868  44.737  10.980
38299W        W 3460  15.968  30.311   2.790
38300W        W 3461   8.949  19.558  10.294
38301W        W 3462   8.858   9.973  11.252
38302W        W 3463  15.050  33.473  12.332
38303W        W 3464   0.285  15.247  13.868
38304W        W 3465  43.949  37.923  13.436
38305W        W 3466   6.975  12.309   2.813
38306W        W 3467  25.332   9.859   9.831
38307W        W 3468  25.131  22.412  14.242
38308W        W 3469  13.322  37.337   3.771
38309W        W 3470  36.554  36.675  13.363
38310W        W 3471  33.902  30.933  12.596
38311W        W 3472  20.861  15.434  11.107
38312W        W 3473  35.352   8.035  11.148
38313W        W 3474   4.869   4.774  10.803
38314W        W 3475  34.364   7.374  11.172
38315W        W 3476  28.094   7.214  10.917
38316W        W 3477  38.643  25.629  13.777
38317W        W 3478   7.691  41.196   2.285
38318W        W 3479  40.811  29.172  10.623
38319W        W 3480  10.798   3.371  10.714
38320W        W 3481  11.250  13.785   3.643
38321W        W 3482  27.059   1.225   4.369
38322W        W 3483   1.537  17.311   3.118
38323W        W 3484  44.110  21.717  14.988
38324W        W 3485  37.163  28.209   4.159
38325W        W 3486  31.209   2.659   2.214
38326W        W 3487  28.391  27.014   2.668
38327W        W 3488  35.832   2.211  11.208
38328W        W 3489   5.944  19.229  14.885
38329W        W 3490  43.519   5.899  10.569
38330W        W 3491  32.778  43.287   2.250
38331W        W 3492  33.761   7.419   4.540
38332W        W 3493  25.061  44.906  11.147
38333W        W 3494  41.313  13.318  13.489
38334W        W 3495  24.432   4.251  11.579
38335W        W 3496  22.791  10.658   3.820
38336W        W 3497  39.144   8.864  11.519
38337W        W 3498   7.315  18.062  13.739
38338W        W 3499  44.741  23.072  13.310
38339W        W 3500  32.078  24.477   0.016
38340W        W 3501  38.364  27.529  11.880
38341W        W 3502  20.276  42.439  14.776
38342W        W 3503  36.912  42.869   3.603
38343W        W 3504   3.262  22.037  12.137
38344W        W 3505  19.989  22.176   0.992
38345W        W 3506  25.678  25.834   0.668
38346W        W 3507  43.430   0.027  11.122
38347W        W 3508   9.513  36.085  12.846
38348W        W 3509  18.865  10.943  11.203
38349W        W 3510   7.899  25.802  14.082
38350W        W 3511  22.276  35.956   3.280
38351W        W 3512  29.865   4.187   2.735
38352W        W 3513  41.981   9.301   4.818
38353W        W 3514   8.012  34.428   0.318
38354W        W 3515  36.288  15.830  11.668
38355W        W 3516  14.802  41.925   2.298
38356W        W 3517  15.493   9.865   1.413
38357W        W 3518   7.746  42.318  12.064
38358W        W 3519  10.355  22.458   4.601
38359W        W 3520  39.336  20.085   1.678
38360W        W 3521   1.265  42.790  11.268
38361W        W 3522   0.379  15.726  14.536
38362W        W 3523  41.443  32.529   2.414
38363W        W 3524  32.122  12.967   0.698
38364W        W 3525  15.328  35.424  14.309
38365W        W 3526   7.658  40.382  12.363
38366W        W 3527  27.556  27.588   3.575
38367W        W 3528  37.348  18.562   3.728
38368W        W 3529   8.263  23.774   3.285
38369W        W 3530  23.030   5.005  12.883
38370W        W 3531  25.378  15.242   3.252
38371W        W 3532  38.537  34.140   4.664
38372W        W 3533   2.433  32.210  10.708
38373W        W 3534  34.435  21.661  11.600
38374W        W 3535  28.057  28.385   9.953
38375W        W 3536  13.807  21.432   3.719
38376W        W 3537   0.397  37.448   0.531
38377W        W 3538  15.568  37.540   0.349
38378W        W 3539  39.613   9.609   1.726
38379W        W 3540  36.600  20.249   1.176
38380W        W 3541   9.252  14.296   1.808
38381W        W 3542  21.548   2.851   4.543
38382W        W 3543   9.907   0.794  11.873
38383W        W 3544  23.795  34.191  13.841
38384W        W 3545  22.233  37.785  13.960
38385W        W 3546   7.883  41.270   3.159
38386W        W 3547  20.809  42.246  11.126
38387W        W 3548   4.766  41.582   5.053
38388W        W 3549  30.160   1.902   1.217
38389W        W 3550  20.566   3.489  10.498
38390W        W 3551  42.535  31.114  14.502
38391W        W 3552  33.443   4.876   0.374
38392W        W 3553  22.764  26.642  14.934
38393W        W 3554   6.228   6.879   3.203
38394W        W 3555  29.194  27.845  12.825
38395W        W 3556   2.491  39.954   4.550
38396W        W 3557  30.691  12.072  10.697
38397W        W 3558  36.668  24.610  11.017
38398W        W 3559  36.506  29.464   3.188
38399W        W 3560  21.167  21.388   2.551
38400W        W 3561  13.194  32.871  14.027
38401W        W 3562  25.051  36.078  10.619
38402W        W 3563   5.202  25.866  12.860
38403W        W 3564   3.272  17.947   2.441
38404W        W 3565   9.799  24.657   1.365
38405W        W 3566  18.807   5.348  11.966
38406W        W 3567  36.842  10.701  10.854
38407W        W 3568  13.666  32.663  14.010
38408W        W 3569  19.803  34.000   1.319
38409W        W 3570   7.752  25.685  12.076
38410W        W 3571  34.555  22.525  10.567
38411W        W 3572  11.655   6.890   2.847
38412W        W 3573  42.459  39.231  11.867
38413W        W 3574  30.259   9.723   1.714
38414W        W 3575  42.255  11.008   1.770
38415W        W 3576  21.586  42.915  13.757
38416W        W 3577  40.220  35.362  12.518
38417W        W 3578   6.223  23.641   4.588
38418W        W 3579   1.057  17.068  10.710
38419W        W 3580  36.681  16.094   3.775
38420W        W 3581   9.633   4.853   0.722
38421W        W 3582  25.456  21.125   4.776
38422W        W 3583  14.365  34.404  11.085
38423W        W 3584   4.397  35.451   4.611
38424W        W 3585  14.448   3.441   2.819
38425W        W 3586  40.403  44.245   0.478
38426W        W 3587  37.303   1.290  13.061
38427W        W 3588   7.371  14.639  14.791
38428W        W 3589  31.096  15.171  14.749
38429W        W 3590  10.125  42.322   3.283
38430W        W 3591  38.528  40.756   0.535
38431W        W 3592   4.664   4.354   1.912
38432W        W 3593  16.169  15.212   0.714
38433W        W 3594   2.793  30.717  12.447
38434W        W 3595   9.907  44.342  14.395
38435W        W 3596  38.755  36.464  13.452
38436W        W 3597   2.256  17.783   3.161
38437W        W 3598  39.634  44.802  11.064
38438W        W 3599  37.546  11.418   4.285
38439W        W 3600  28.091  14.601  13.905
38440W        W 3601   6.667  30.995   0.869
38441W        W 3602  35.473  12.149   3.714
38442W        W 3603   9.182  29.730   2.730
38443W        W 3604   8.572  27.387  10.120
38444W        W 3605   6.328   5.285  10.569
38445W        W 3606  18.474  11.552   3.702
38446W        W 3607   4.209   5.309   2.138
38447W        W 3608  34.311  41.312   1.264
38448W        W 3609   4.169   6.905   2.364
38449W        W 3610  18.804   3.353  14.379
38450W        W 3611  13.668  32.092  11.954
38451W        W 3612  43.966  35.451  13.614
38452W        W 3613   2.957   5.643   3.817
38453W        W 3614  27.243  28.058   2.714
38454W        W 3615  25.423  26.833   2.214
38455W        W 3616   5.426   4.173   0.247
38456W        W 3617  43.514  32.935   5.437
38457W        W 3618  25.690  27.555  11.627
38458W        W 3619  28.039  15.540   4.173
38459W        W 3620   1.764   7.854   1.834
38460W        W 3621  31.465  36.053  12.022
38461W        W 3622  40.819  11.830   0.274
38462W        W 3623   6.815   9.298   3.149
38463W        W 3624  10.479  23.015   2.236
38464W        W 3625  34.094  43.447  12.108
38465W        W 3626  19.600  43.522   3.087
38466W        W 3627  14.566  30.504  13.172
38467W        W 3628   4.919  22.516   2.412
38468W        W 3629   5.085  37.672  10.732
38469W        W 3630  19.732  25.271   0.195
38470W        W 3631   9.491  12.886  14.320
38471W        W 3632  44.790  35.389  14.597
38472W        W 3633   2.879  32.504  14.753
38473W        W 3634  42.272  20.052   0.723
38474W        W 3635  17.078  28.862  14.472
38475W        W 3636  16.265  27.119  10.966
38476W        W 3637  40.420  19.686   3.707
38477W        W 3638   1.275  23.666  12.069
38478W        W 3639   2.315  37.849  11.429
38479W        W 3640  23.636   8.394  11.298
38480W        W 3641   9.086  29.431  13.995
38481W        W 3642  35.374  36.316  12.887
38482W        W 3643  11.824  25.125  12.355
38483W        W 3644  18.537   3.309  11.535
38484W        W 3645  40.994  43.355  14.049
38485W        W 3646  34.459  10.360  13.041
38486W        W 3647  33.727  27.102   4.298
38487W        W 3648  43.758  29.861  12.591
38488W        W 3649  19.749  23.003   4.257
38489W        W 3650  37.892  12.199   3.969
38490W        W 3651  32.991   2.707   5.008
38491W        W 3652  23.700   0.321  14.719
38492W        W 3653  42.442   2.959  12.159
38493W        W 3654   7.667  43.439  11.774
38494W        W 3655   3.987   1.772   1.146
38495W        W 3656  20.586  38.032  10.660
38496W        W 3657   5.553  44.555  12.356
38497W        W 3658  43.834  34.882   4.221
38498W        W 3659  41.335  31.220   3.557
38499W        W 3660  41.733  14.412  10.342
38500W        W 3661  15.299  23.732   1.865
38501W        W 3662  22.648  37.426   1.831
38502W        W 3663  16.031  12.470  12.972
38503W        W 3664  30.933   0.996   0.440
38504W        W 3665   4.747  17.819  11.554
38505W        W 3666  29.986  18.773   1.579
38506W        W 3667  32.809  42.994  10.769
38507W        W 3668  40.495  36.826   3.299
38508W        W 3669  34.821  38.042  12.473
38509W        W 3670  20.872  39.524  11.289
38510W        W 3671   3.724  10.736  10.693
38511W        W 3672  19.438  44.366   0.259
38512W        W 3673  28.726  22.589  10.179
38513W        W 3674  11.376  10.132  10.829
38514W        W 3675  11.761   8.652  11.008
38515W        W 3676  41.036  19.589  13.767
38516W        W 3677  24.091  27.163  12.404
38517W        W 3678   4.865  16.518   0.370
38518W        W 3679  11.218   4.707  13.092
38519W        W 3680  30.122  28.838  13.469
38520W        W 3681  39.941  32.346   1.212
38521W        W 3682  40.983  10.994  12.035
38522W        W 3683  26.173  23.092  11.289
38523W        W 3684  17.688   1.675  11.462
38524W        W 3685  26.040  12.328  14.283
38525W        W 3686   3.036  32.692   1.326
38526W        W 3687   5.915  14.883  11.480
38527W        W 3688  25.680   7.346  10.787
38528W        W 3689  10.186  16.106  12.529
38529W        W 3690  42.691  21.541   1.349
38530W        W 3691   3.998   9.624  14.571
38531W        W 3692  12.682  27.437  13.847
38532W        W 3693   1.254  27.770  10.594
38533W        W 3694  31.144  42.422  10.230
38534W        W 3695  32.593  33.404  12.652
38535W        W 3696  43.425  23.963  11.053
38536W        W 3697   0.280  37.431   0.053
38537W        W 3698  40.746  43.809  14.000
38538W        W 3699  10.810  22.993   1.833
38539W        W 3700  21.993  32.985  12.148
38540W        W 3701   1.675  21.304  11.495
38541W        W 3702  23.127  11.349  10.521
38542W        W 3703  16.180  18.248   2.602
38543W        W 3704  14.701   8.425   0.891
38544W        W 3705   8.577   4.061  11.564
38545W        W 3706  30.070  34.456  14.735
38546W        W 3707  38.290  44.332   1.430
38547W        W 3708  39.100  11.713   3.653
38548W        W 3709  24.671  10.247   1.242
38549W        W 3710  24.960  10.695   1.223
38550W        W 3711  32.973  31.073   0.423
38551W        W 3712  39.885  40.103   4.250
38552W        W 3713  33.773  33.972   0.490
38553W        W 3714  17.754  41.508   2.792
38554W        W 3715  38.090  15.290  13.389
38555W        W 3716  34.245  33.705   4.682
38556W        W 3717  25.650   6.313   4.266
38557W        W 3718  27.700   1.902   0.040
38558W        W 3719  21.676   9.405  14.583
38559W        W 3720   1.509  28.219  13.459
38560W        W 3721   5.296   1.820  11.985
38561W        W 3722  26.056   4.595  10.605
38562W        W 3723  22.523   2.336  11.512
38563W        W 3724  26.685  37.485   1.792
38564W        W 3725  32.838  13.133  13.855
38565W        W 3726   9.764   3.673  12.538
38566W        W 3727  23.125   9.851  11.688
38567W        W 3728  31.075   9.268  12.397
38568W        W 3729  11.370  36.648  14.533
38569W        W 3730  36.482  25.623  10.913
38570W        W 3731  16.088  22.626  14.961
38571W        W 3732  18.666   9.728   4.067
38572W        W 3733  27.709  18.166   4.630
38573W        W 3734  28.444  27.822  14.603
38574W        W 3735  18.835  32.109  13.135
38575W        W 3736  43.983  18.426   1.559
38576W        W 3737  16.109  18.860   0.621
38577W        W 3738  35.929  15.710  14.348
38578W        W 3739  15.830   9.046  14.800
38579W        W 3740  29.259  18.265   2.815
38580W        W 3741  32.321  33.096  14.847
38581W        W 3742  33.575  18.958  13.497
38582W        W 3743  19.622  19.518  13.057
38583W        W 3744  43.991   8.363   4.681
38584W        W 3745  18.465  11.666  14.355
38585W        W 3746  41.441   8.343   4.695
38586W        W 3747   4.373  21.927  13.833
38587W        W 3748  26.633  44.203  10.997
38588W        W 3749  29.303  17.510   9.962
38589W        W 3750   6.528   3.305  10.639
38590W        W 3751  13.721   3.262  12.975
38591W        W 3752   0.726   6.426  14.288
38592W        W 3753  20.834  36.314   4.926
38593W        W 3754   9.468   1.900   2.211
38594W        W 3755  44.199  31.086  11.579
38595W        W 3756  34.872   0.976  11.152
38596W        W 3757  30.029  37.445  11.175
38597W        W 3758   9.386   9.212  14.508
38598W        W 3759  23.491  37.381   3.901
38599W        W 3760  31.332  11.568   3.987
38600W        W 3761  21.740   8.877   1.878
38601W        W 3762  23.745  28.775  14.985
38602W        W 3763   5.434  32.541   3.671
38603W        W 3764   9.192  38.058  10.447
38604W        W 3765  39.429  25.132   0.646
38605W        W 3766   4.639  30.045  10.683
38606W        W 3767  35.313  24.561   4.231
38607W        W 3768  28.859  17.686  11.400
38608W        W 3769  18.299  20.916   0.691
38609W        W 3770  24.324  30.113   1.700
38610W        W 3771   4.835  24.964  10.358
38611W        W 3772  29.095  20.012  14.968
38612W        W 3773  36.991   8.171  14.522
38613W        W 3774   6.341  22.265   4.781
38614W        W 3775  36.481   2.680   0.351
38615W        W 3776   8.339  24.596  12.954
38616W        W 3777  16.850  34.899   0.889
38617W        W 3778  16.375   5.933   3.689
38618W        W 3779   5.273   7.179   4.343
38619W        W 3780   9.201  29.886   0.783
38620W        W 3781  23.809   8.838   3.526
38621W        W 3782  27.162   0.233   3.818
38622W        W 3783  27.945   2.667   3.245
38623W        W 3784  36.990  39.597   0.255
38624W        W 3785  42.019  41.521   0.932
38625W        W 3786   1.860   7.637  13.476
38626W        W 3787   9.508  41.510   3.560
38627W        W 3788  34.295  11.115  11.673
38628W        W 3789  18.683  32.634   4.678
38629W        W 3790  40.520  44.739   4.494
38630W        W 3791   6.790  34.697  12.067
38631W        W 3792   9.751  18.320  14.799
38632W        W 3793  28.513  24.128   4.687
38633W        W 3794  29.649   9.698   1.392
38634W        W 3795  43.568   8.733  12.470
38635W        W 3796  10.922  33.865  14.356
38636W        W 3797  41.912   8.805  14.066
38637W        W 3798  19.601  18.206  13.318
38638W        W 3799   1.433   6.868  11.023
38639W        W 3800   4.362  11.814  13.781
38640W        W 3801  44.837   8.117   3.906
38641W        W 3802  36.564   8.037  10.901
38642W        W 3803   6.825  43.933  13.342
38643W        W 3804  16.662  36.604   1.308
38644W        W 3805  13.608   9.713   1.303
38645W        W 3806  40.893  29.678  13.388
38646W        W 3807   0.834  31.991   2.370
38647W        W 3808  39.349  13.176  12.477
38648W        W 3809  26.156  21.744   3.608
38649W        W 3810  11.684  25.487  11.126
38650W        W 3811  22.322   1.940  12.639
38651W        W 3812  23.067  20.724   2.853
38652W        W 3813   2.418  24.725  12.082
38653W        W 3814  35.860  21.687   0.478
38654W        W 3815  13.546  10.551  13.318
38655W        W 3816  38.420  34.407  14.359
38656W        W 3817  17.859   5.487  14.924
38657W        W 3818  25.139  30.611   0.265
38658W        W 3819  12.308   1.315   2.398
38659W        W 3820  32.430  41.359  12.932
38660W        W 3821  31.133  30.054   1.391
38661W        W 3822  29.095   9.791  11.228
38662W        W 3823   2.802  32.417  14.247
38663W        W 3824   3.917  33.799   0.229
38664W        W 3825  43.401  34.164  11.584
38665W        W 3826  25.884   7.314   1.647
38666W        W 3827  30.682  23.679   2.181
38667W        W 3828  20.102  41.531   2.352
38668W        W 3829   6.529   1.799   2.775
38669W        W 3830  13.750  37.176  10.725
38670W        W 3831  13.657  19.942   3.656
38671W        W 3832  27.160  12.101   0.464
38672W        W 3833  24.128   0.435   0.471
38673W        W 3834  28.704   3.513  14.818
38674W        W 3835  36.110  28.205  12.438
38675W        W 3836   0.715   7.080  11.275
38676W        W 3837  31.263   0.374   1.312
38677W        W 3838  31.481  20.599   3.791
38678W        W 3839  41.010   3.638  14.846
38679W        W 3840  36.366  10.720  13.932
38680W        W 3841   6.872  14.643  11.656
38681W        W 3842   3.039  12.905   0.437
38682W        W 3843  34.180  28.977   0.548
38683W        W 3844   5.983  41.703   0.330
38684W        W 3845  29.402   1.489  14.000
38685W        W 3846   7.715   1.597   2.050
38686W        W 3847  39.756  11.826   0.863
38687W        W 3848  43.352   7.111  11.545
38688W        W 3849  36.909  16.187   3.308
38689W        W 3850  18.480   9.361   2.713
38690W        W 3851  28.642  25.320  13.737
38691W        W 3852  29.147  23.341   0.430
38692W        W 3853   9.494  10.753  10.649
38693W        W 3854  40.543  15.970  13.225
38694W        W 3855  25.679  19.581  11.532
38695W        W 3856  23.489  15.907   2.039
38696W        W 3857   9.600  27.136   1.619
38697W        W 3858   1.019  37.608   2.362
38698W        W 3859  20.284  15.145   3.125
38699W        W 3860  27.919  12.831  14.255
38700W        W 3861  34.481  33.357  14.529
38701W        W 3862  32.859  36.300   4.981
38702W        W 3863  10.791  29.628  14.597
38703W        W 3864  17.366  33.011  13.139
38704W        W 3865  12.656  28.584  10.399
38705W        W 3866   0.315   2.267   4.422
38706W        W 3867   2.955   8.918   3.818
38707W        W 3868   8.775  16.249   1.514
38708W        W 3869  43.442  30.152  14.923
38709W        W 3870  27.677  12.380  13.455
38710W        W 3871  27.991  42.089   4.746
38711W        W 3872  32.634   2.739   1.694
38712W        W 3873   7.411  33.295  14.481
38713W        W 3874   3.284   2.310  11.394
38714W        W 3875  40.517   6.304  13.462
38715W        W 3876  33.055  43.463  13.452
38716W        W 3877  17.089   5.884   0.573
38717W        W 3878   1.461   7.745   2.909
38718W        W 3879  12.747  20.397   3.737
38719W        W 3880  10.752  43.923   4.246
38720W        W 3881  37.524  12.557  11.490
38721W        W 3882  28.228   8.301  11.212
38722W        W 3883   1.307   7.817  14.196
38723W        W 3884  20.760   4.970   1.867
38724W        W 3885  22.629   2.014  14.889
38725W        W 3886  35.991   6.249   4.107
38726W        W 3887  13.483  42.313   4.453
38727W        W 3888   7.656  41.558  14.718
38728W        W 3889  31.184   7.713  11.768
38729W        W 3890  10.301  12.585   1.877
38730W        W 3891   4.183  25.010  11.161
38731W        W 3892  29.690  22.508  14.272
38732W        W 3893  34.840   7.181  11.190
38733W        W 3894  33.042  19.885  11.561
38734W        W 3895  10.147  28.556  11.945
38735W        W 3896  40.827  41.332   2.843
38736W        W 3897  30.834   3.369  14.841
38737W        W 3898  17.219  23.524   0.502
38738W        W 3899  32.225  26.377   0.747
38739W        W 3900  28.899  14.912   1.720
38740W        W 3901  12.507  16.011   4.654
38741W        W 3902   6.392  21.173  13.022
38742W        W 3903   9.791  33.783   3.966
38743W        W 3904  41.762  41.850  13.461
38744W        W 3905  38.413   9.141  13.883
38745W        W 3906  43.839   7.823   4.702
38746W        W 3907  36.570  39.940  12.587
38747W        W 3908  10.172  22.165   0.945
38748W        W 3909  41.177   7.540   2.317
38749W        W 3910  23.990  11.140   0.906
38750W        W 3911  18.621   8.783  14.777
38751W        W 3912  44.453  17.786  10.762
38752W        W 3913  40.593  30.699   2.239
38753W        W 3914  24.231   8.860   0.472
38754W        W 3915  29.958  11.718  10.911
38755W        W 3916   7.759  30.397   2.877
38756W        W 3917  19.234  18.415   1.292
38757W        W 3918  29.680  31.594   4.639
38758W        W 3919  40.615  13.486   2.735
38759W        W 3920  42.328  33.449   3.865
38760W        W 3921  10.602  31.124   2.912
38761W        W 3922  44.555   2.963  13.363
38762W        W 3923  40.174   5.806   0.368
38763W        W 3924  10.355  39.386  14.418
38764W        W 3925  17.794  14.374   1.271
38765W        W 3926   7.415  24.967  12.060
38766W        W 3927  17.592   1.907  12.888
38767W        W 3928   3.816  26.791  14.305
38768W        W 3929  40.823  34.163   4.114
38769W        W 3930  43.500   1.812  10.708
38770W        W 3931  35.305  21.756   1.372
38771W        W 3932  32.940  36.637   4.038
38772W        W 3933   7.810  14.400  11.906
38773W        W 3934  14.251  31.979   3.564
38774W        W 3935  15.060  43.758   4.153
38775W        W 3936  30.952  17.772   4.241
38776W        W 3937  19.946  43.633   0.573
38777W        W 3938  26.738  15.294   2.120
38778W        W 3939  30.629  30.516   4.590
38779W        W 3940   5.908  20.573  14.487
38780W        W 3941  33.606  26.763  11.924
38781W        W 3942   0.946  34.941   3.284
38782W        W 3943  29.509   8.183  11.712
38783W        W 3944  26.310  37.881  14.051
38784W        W 3945  19.761  12.589  12.862
38785W        W 3946   4.836  28.516  14.379
38786W        W 3947  20.660  43.102   0.222
38787W        W 3948  42.781  35.502  11.045
38788W        W 3949  17.294  33.669  12.123
38789W        W 3950  17.342  44.328   3.679
38790W        W 3951   0.408  16.181  14.303
38791W        W 3952  37.519   5.281  14.551
38792W        W 3953  38.369  26.052  12.877
38793W        W 3954   9.064  24.843  11.418
38794W        W 3955   4.779  10.271   4.713
38795W        W 3956  15.475  17.862   0.995
38796W        W 3957  31.945   0.299   2.412
38797W        W 3958  20.069   5.247   0.953
38798W        W 3959  12.907   2.854  13.867
38799W        W 3960  21.213  29.845   0.462
38800W        W 3961   0.358   2.152   0.316
38801W        W 3962   1.180  25.124   0.504
38802W        W 3963  39.401  17.524   3.121
38803W        W 3964  11.898  40.929  10.813
38804W        W 3965  15.239  27.503   0.213
38805W        W 3966  16.551  20.182   0.123
38806W        W 3967   8.883   1.756  14.910
38807W        W 3968  10.765   6.433  13.498
38808W        W 3969  35.398  24.254  14.549
38809W        W 3970  15.628  38.570  13.571
38810W        W 3971  39.843  26.855   4.639
38811W        W 3972  43.741  33.345   0.246
38812W        W 3973  10.682  35.972  14.443
38813W        W 3974  37.820   3.399   3.687
38814W        W 3975  30.220   6.645   0.468
38815W        W 3976   7.697   7.823   1.842
38816W        W 3977  39.551  18.796  13.341
38817W        W 3978  36.606  43.728   3.698
38818W        W 3979   0.891  14.827  12.555
38819W        W 3980  40.047  30.680  13.356
38820W        W 3981  30.362  32.511   1.448
38821W        W 3982   9.630  19.228   1.002
38822W        W 3983  33.567  42.960  11.074
38823W        W 3984  42.798  13.576   2.743
38824W        W 3985   8.227   3.802   2.348
38825W        W 3986  28.379  39.318  11.073
38826W        W 3987  25.631  30.088  10.661
38827W        W 3988   4.904   1.901  10.806
38828W        W 3989  16.670   3.827   3.328
38829W        W 3990  28.015  20.044   3.640
38830W        W 3991  32.894  34.495   3.241
38831W        W 3992  15.891  34.453  14.986
38832W        W 3993  36.485  19.160  12.999
38833W        W 3994  40.283  43.302   3.301
38834W        W 3995  16.705  37.550  12.796
38835W        W 3996  19.361  22.616   1.437
38836W        W 3997  10.909  24.730   2.791
38837W        W 3998  22.076   0.811  14.800
38838W        W 3999   2.920  39.447   4.663
38839W        W 4000  22.950  25.588  10.702
38840W        W 4001   2.754  24.200  11.082
38841W        W 4002  26.933  39.524  12.514
38842W        W 4003   2.694  12.144   4.084
38843W        W 4004  27.666  43.075  10.723
38844W        W 4005   2.468  24.500   2.745
38845W        W 4006  24.871  10.876   2.714
38846W        W 4007   0.718  44.741  12.503
38847W        W 4008  18.805  34.385  13.944
38848W        W 4009   8.896   5.430   3.133
38849W        W 4010  18.233  39.582  14.530
38850W        W 4011  40.953  43.229  14.569
38851W        W 4012  18.567  13.862  10.431
38852W        W 4013  11.749  30.479   0.978
38853W        W 4014  12.844  34.415   1.304
38854W        W 4015  37.936   4.424  10.601
38855W        W 4016  34.102  43.547  10.653
38856W        W 4017   1.150  38.781   2.666
38857W        W 4018  30.381  35.432  14.369
38858W        W 4019  21.306  36.870   2.547
38859W        W 4020  18.632  32.998  14.933
38860W        W 4021  13.800  20.437   3.367
38861W        W 4022   7.401  38.592  14.829
38862W        W 4023  42.600  35.546  14.788
38863W        W 4024  27.989  44.222   2.765
38864W        W 4025   4.412  28.182  12.140
38865W        W 4026  31.571  27.703  10.731
38866W        W 4027  23.597  21.703   0.324
38867W        W 4028   4.929  17.623   2.845
38868W        W 4029  10.941  11.376   4.595
38869W        W 4030  25.448  23.632   0.184
38870W        W 4031  31.193  36.038  12.470
38871W        W 4032  11.895  30.788  11.655
38872W        W 4033  28.546  40.056   3.590
38873W        W 4034  11.704  25.730  14.511
38874W        W 4035  42.725  34.807  13.583
38875W        W 4036  32.083  17.984  11.114
38876W        W 4037  33.510   9.320  10.701
38877W        W 4038  40.775  42.989   2.925
38878W        W 4039  18.542  16.189   2.731
38879W        W 4040  34.858  15.781  14.385
38880W        W 4041  38.505  37.097   0.252
38881W        W 4042  25.277  38.121  12.467
38882W        W 4043  39.603  14.683  14.943
38883W        W 4044  39.785  25.556  13.967
38884W        W 4045  36.853  41.933   9.698
38885W        W 4046  22.457  36.204   3.690
38886W        W 4047  14.729  36.063   4.134
38887W        W 4048  26.067   0.623  14.434
38888W        W 4049  36.617  36.826   2.211
38889W        W 4050  13.674  34.855   4.598
38890W        W 4051  25.248   1.402   0.237
38891W        W 4052   0.060  23.529   3.255
38892W        W 4053  40.518  16.782   3.913
38893W        W 4054  41.407   6.701   0.900
38894W        W 4055  24.244  32.016   2.661
38895W        W 4056  32.909  14.815   2.351
38896W        W 4057  11.983  15.722  10.344
38897W        W 4058  23.420  30.045   1.464
38898W        W 4059  12.872   4.781  11.544
38899W        W 4060  38.310  17.125   4.366
38900W        W 4061  10.768  24.987  12.070
38901W        W 4062  35.846  42.567   4.364
38902W        W 4063  24.202  21.000   2.745
38903W        W 4064  21.148  38.536  14.204
38904W        W 4065  29.564  12.375  13.773
38905W        W 4066  35.406  18.938   3.711
38906W        W 4067  10.331   3.354   3.632
38907W        W 4068  30.407   0.685  14.456
38908W        W 4069  20.246  27.127   4.303
38909W        W 4070  11.533  13.668  10.911
38910W        W 4071  31.500  42.814  11.100
38911W        W 4072  30.031  14.640  10.699
38912W        W 4073  36.410   3.540   4.746
38913W        W 4074  21.813   1.964  12.619
38914W        W 4075  24.066  15.097   1.419
38915W        W 4076   0.846  19.518   1.603
38916W        W 4077   4.667   7.263  12.192
38917W        W 4078  15.383  16.843  14.433
38918W        W 4079  22.504  28.724   4.818
38919W        W 4080  17.272  44.136  13.925
38920W        W 4081  13.947  25.658  11.481
38921W        W 4082  35.357  13.424   3.195
38922W        W 4083  41.279  39.601  14.742
38923W        W 4084  44.435  38.632  12.473
38924W        W 4085  40.422  28.953   3.886
38925W        W 4086  17.751  18.169  14.328
38926W        W 4087  14.193  11.777  12.813
38927W        W 4088  41.728   0.912  14.720
38928W        W 4089  29.154  21.915   3.733
38929W        W 4090  42.714  12.187   3.237
38930W        W 4091  29.964  31.866   0.523
38931W        W 4092  11.907  21.606   0.380
38932W        W 4093  31.996  35.520   2.860
38933W        W 4094  19.223   5.945   4.489
38934W        W 4095  24.601  18.118   0.321
38935W        W 4096  27.186   0.646  14.769
38936W        W 4097  14.825  27.503  11.243
38937W        W 4098   3.722   8.790  12.607
38938W        W 4099   1.927  27.190   1.278
38939W        W 4100  21.829  30.601  12.955
38940W        W 4101  33.541  35.075   2.852
38941W        W 4102  21.537  40.056   4.123
38942W        W 4103  10.317  22.076  11.925
38943W        W 4104  12.329  11.930  11.637
38944W        W 4105  11.855  32.660  14.221
38945W        W 4106  26.919  33.542  14.000
38946W        W 4107   5.805  35.338  11.479
38947W        W 4108  18.398   8.517   3.754
38948W        W 4109  41.355  21.435   3.446
38949W        W 4110  35.493  10.189   2.604
38950W        W 4111  30.479   5.336  11.655
38951W        W 4112   2.704   3.677   3.606
38952W        W 4113  34.606  32.066   4.049
38953W        W 4114  39.007   2.008  14.512
38954W        W 4115  16.175  26.531  14.010
38955W        W 4116  16.591  42.934   2.655
38956W        W 4117  43.321  31.445   0.801
38957W        W 4118  43.779  22.060  12.626
38958W        W 4119  10.680   4.376  13.451
38959W        W 4120  10.262  11.367   3.081
38960W        W 4121   6.012  38.041  12.142
38961W        W 4122  35.799  43.783   0.620
38962W        W 4123  12.804   4.816   1.835
38963W        W 4124  20.619   5.483   3.254
38964W        W 4125  39.922   3.980   3.989
38965W        W 4126  31.104   7.955   0.330
38966W        W 4127  16.781  38.417   3.629
38967W        W 4128  24.971   4.565   2.150
38968W        W 4129   6.841  18.422  10.451
38969W        W 4130  38.325  38.841   4.246
38970W        W 4131  33.547  12.624   5.289
38971W        W 4132  43.080  23.188   3.476
38972W        W 4133  17.784  38.441   3.694
38973W        W 4134  20.723  18.645   2.893
38974W        W 4135   4.504  14.541  10.720
38975W        W 4136  31.658  38.202   4.767
38976W        W 4137  19.119  36.556  13.412
38977W        W 4138   7.385  18.257   0.756
38978W        W 4139  15.075   7.636  11.967
38979W        W 4140   9.291  35.987  10.351
38980W        W 4141  16.593  20.580   4.585
38981W        W 4142  34.203  39.084   1.897
38982W        W 4143   9.805  42.021   1.963
38983W        W 4144  36.176  23.683   3.651
38984W        W 4145  24.060   9.414  12.900
38985W        W 4146  14.001  25.129  12.108
38986W        W 4147  34.789  35.126  11.670
38987W        W 4148  44.323   9.837  11.209
38988W        W 4149  21.988   8.290  12.822
38989W        W 4150  19.872  43.410   1.811
38990W        W 4151   6.333  10.714  11.263
38991W        W 4152   7.760  15.690   3.707
38992W        W 4153  38.063  11.861   0.505
38993W        W 4154  25.447  15.214  11.889
38994W        W 4155  37.112  30.883   4.346
38995W        W 4156   1.335  16.091  14.355
38996W        W 4157  41.839  10.559  14.541
38997W        W 4158  43.109  42.188  11.337
38998W        W 4159  37.980  33.555  10.138
38999W        W 4160  11.654  11.190   0.440
39000W        W 4161  17.394  13.181  10.817
39001W        W 4162  29.539  32.048   3.745
39002W        W 4163  20.152  32.874  13.075
39003W        W 4164  44.716  13.895  12.956
39004W        W 4165   7.794  28.420   2.833
39005W        W 4166   3.500  18.125  14.802
39006W        W 4167  20.509  31.212  14.513
39007W        W 4168  25.892  29.924   2.820
39008W        W 4169  40.726  11.146   4.740
39009W        W 4170   2.651  43.910  14.846
39010W        W 4171  27.222   2.888   2.697
39011W        W 4172  20.717  37.386   2.218
39012W        W 4173  43.484  28.064   2.139
39013W        W 4174  32.643  34.817  13.252
39014W        W 4175   6.511  28.586  11.228
39015W        W 4176  40.169  37.781  14.847
39016W        W 4177  39.554  40.159   2.624
39017W        W 4178   4.392  11.093   4.590
39018W        W 4179   9.485  41.797  10.537
39019W        W 4180   6.402  27.590   1.957
39020W        W 4181  19.269  12.404   0.350
39021W        W 4182  30.260  13.917   4.639
39022W        W 4183  18.551  10.733  13.917
39023W        W 4184   5.169   8.813  11.665
39024W        W 4185  12.195  39.858   1.295
39025W        W 4186  18.763  20.050  12.549
39026W        W 4187  32.872   6.885   4.353
39027W        W 4188  28.115  10.956   4.688
39028W        W 4189   1.962   4.714   0.907
39029W        W 4190   1.368  12.571   2.344
39030W        W 4191  30.920  27.159   1.864
39031W        W 4192  38.892  16.599   0.059
39032W        W 4193  23.178  42.357   2.780
39033W        W 4194   1.884  28.552  14.672
39034W        W 4195  25.338   9.686  12.536
39035W        W 4196  34.665  27.254   4.234
39036W        W 4197  33.821  10.328   1.218
39037W        W 4198  43.316  35.562   1.758
39038W        W 4199  35.992  28.084  11.670
39039W        W 4200   5.358   1.035   1.757
39040W        W 4201  44.796  13.342   0.435
39041W        W 4202  28.497   9.268  14.197
39042W        W 4203  31.044  16.571  11.074
39043W        W 4204   5.778  31.324   3.222
39044W        W 4205  35.512  14.029   0.813
39045W        W 4206  22.251  18.176  10.086
39046W        W 4207   0.233  30.571   2.150
39047W        W 4208  38.827  17.098  11.605
39048W        W 4209  37.974  17.853   3.404
39049W        W 4210  29.147  19.189  13.423
39050W        W 4211  38.987  22.984  10.675
39051W        W 4212  16.345  33.153  12.023
39052W        W 4213  27.132  12.217  14.127
39053W        W 4214  24.604   1.447   2.653
39054W        W 4215  31.635  14.686  11.125
39055W        W 4216   4.520   9.200   4.184
39056W        W 4217   7.139   3.168  11.493
39057W        W 4218  14.920  41.877  14.774
39058W        W 4219   0.988  29.637   9.997
39059W        W 4220  22.094  30.081  14.957
39060W        W 4221  36.223   6.976   1.850
39061W        W 4222  16.676  40.828   5.655
39062W        W 4223   6.247  36.538   3.067
39063W        W 4224  23.258  19.528  13.738
39064W        W 4225  44.342   4.059  11.651
39065W        W 4226  24.765  31.673   0.272
39066W        W 4227  23.415  38.614  13.733
39067W        W 4228  41.867  38.594  11.660
39068W        W 4229  40.974  23.043  11.481
39069W        W 4230  19.409  22.227   5.319
39070W        W 4231   5.502  31.260  10.590
39071W        W 4232  26.507  26.260   4.681
39072W        W 4233   2.879  44.436  13.108
39073W        W 4234  16.092  15.939   2.898
39074W        W 4235  12.241  38.563   0.748
39075W        W 4236  26.016  39.959   0.920
39076W        W 4237  43.034  16.168  11.031
39077W        W 4238  42.775  38.324   1.409
39078W        W 4239   0.701  24.463   2.041
39079W        W 4240  25.460   2.255  11.172
39080W        W 4241  18.359  19.105  13.594
39081W        W 4242  40.862  38.806  10.780
39082W        W 4243   0.346   2.349   2.480
39083W        W 4244   8.915  25.083   4.991
39084W        W 4245  19.583  35.664   4.045
39085W        W 4246  21.005  13.048  14.001
39086W        W 4247  10.594  30.657  13.969
39087W        W 4248  37.415  38.877   2.764
39088W        W 4249  16.969  42.184   5.408
39089W        W 4250  38.564  42.993   4.921
39090W        W 4251   4.121   6.993  13.995
39091W        W 4252  21.591  40.797   0.624
39092W        W 4253   6.439  26.232  11.767
39093W        W 4254  25.403  43.672   3.612
39094W        W 4255   4.029  11.176  10.350
39095W        W 4256  17.040  33.918   3.674
39096W        W 4257  33.321  18.673   4.395
39097W        W 4258   6.428  30.015  11.993
39098W        W 4259   6.385  18.587   4.609
39099W        W 4260   2.642   9.914  13.871
39100W        W 4261  23.976  17.247   2.722
39101W        W 4262   4.764  22.444   0.919
39102W        W 4263  34.781   3.854  12.658
39103W        W 4264  42.416   5.386   2.841
39104W        W 4265   7.123  15.592   3.061
39105W        W 4266  27.421  15.156  12.000
39106W        W 4267  33.511  35.548  11.101
39107W        W 4268  34.896  18.555   2.946
39108W        W 4269  37.735   9.689  13.070
39109W        W 4270  12.866  14.787   1.325
39110W        W 4271  11.408  38.951   1.805
39111W        W 4272   5.910  15.720   2.526
39112W        W 4273  16.230  31.057  13.903
39113W        W 4274   7.723  23.705  10.033
39114W        W 4275  14.688  10.064   3.279
39115W        W 4276  21.423  35.949  12.806
39116W        W 4277  32.333  15.776   1.776
39117W        W 4278   9.975  19.686  12.433
39118W        W 4279  27.661   3.548  12.915
39119W        W 4280  18.953   5.573  13.581
39120W        W 4281   6.822   5.852   2.859
39121W        W 4282  32.088  24.689  12.923
39122W        W 4283  43.654  40.751   4.946
39123W        W 4284   4.917   1.420  12.614
39124W        W 4285   5.359  25.675   4.065
39125W        W 4286  13.369  39.453  12.671
39126W        W 4287  18.338  26.532  13.562
39127W        W 4288  12.248   7.694   2.729
39128W        W 4289   6.227  41.955   2.155
39129W        W 4290   0.700  24.172   2.950
39130W        W 4291  17.320  42.797  13.665
39131W        W 4292   3.306  42.146  13.822
39132W        W 4293  29.164  31.844  11.550
39133W        W 4294  44.772  27.958   4.669
39134W        W 4295  23.430  25.725  14.888
39135W        W 4296  43.964  16.574  12.437
39136W        W 4297  34.161  40.580  13.859
39137W        W 4298   3.395  14.400   5.073
39138W        W 4299  38.913  18.837   0.189
39139W        W 4300  35.780  17.786   1.827
39140W        W 4301  41.902  17.373   2.447
39141W        W 4302   9.371   8.326   0.310
39142W        W 4303  11.602   6.164   3.243
39143W        W 4304  38.282  24.734  13.370
39144W        W 4305  21.565  43.375   4.844
39145W        W 4306   3.368   6.462  13.467
39146W        W 4307  39.593  26.624   1.160
39147W        W 4308  39.092  37.103   0.953
39148W        W 4309  29.509  39.320   3.210
39149W        W 4310  33.907  40.294   2.345
39150W        W 4311  31.998   4.742  10.545
39151W        W 4312  14.167  44.666   0.605
39152W        W 4313   9.780  18.131  12.918
39153W        W 4314  37.243  43.382   1.799
39154W        W 4315  30.902   4.702   4.099
39155W        W 4316  14.039  41.619   4.113
39156W        W 4317  18.717   7.892   0.916
39157W        W 4318   0.871   3.527   4.885
39158W        W 4319  12.331  33.898   4.572
39159W        W 4320   8.403  17.142   1.593
39160W        W 4321  40.961  36.056   4.330
39161W        W 4322   4.322  13.391  14.738
39162W        W 4323  35.814   2.875  12.584
39163W        W 4324  12.840   9.107   2.743
39164W        W 4325  22.686  24.666   4.347
39165W        W 4326  30.149  23.639   1.287
39166W        W 4327  34.606  24.474  11.134
39167W        W 4328  18.808  10.592   3.826
39168W        W 4329  44.844  14.597  10.686
39169W        W 4330  14.598  28.484  10.721
39170W        W 4331  16.626  26.867   2.115
39171W        W 4332  18.408  39.813  12.500
39172W        W 4333  30.752   3.894   4.484
39173W        W 4334  29.944  33.184   0.025
39174W        W 4335   5.333  11.232  14.983
39175W        W 4336  10.881   2.933  12.854
39176W        W 4337   6.431  42.077   3.010
39177W        W 4338  14.127  17.315  14.050
39178W        W 4339  14.627  43.807  13.149
39179W        W 4340  24.218  36.036  11.554
39180W        W 4341   2.805   9.116  12.976
39181W        W 4342  12.281  16.897   4.018
39182W        W 4343  40.134  29.920   2.681
39183W        W 4344  21.147  39.939   2.268
39184W        W 4345  27.785  37.518   3.123
39185W        W 4346  42.891  21.912   2.831
39186W        W 4347  10.692  16.685  10.569
39187W        W 4348  23.025   8.786  10.306
39188W        W 4349  27.011  33.467  10.248
39189W        W 4350  31.059  15.083  13.368
39190W        W 4351  10.604  15.744   3.136
39191W        W 4352  41.424  33.638   2.414
39192W        W 4353  15.622  32.583   1.468
39193W        W 4354  43.556  20.470   4.271
39194W        W 4355   1.273  37.578   3.488
39195W        W 4356  37.171   8.343   0.818
39196W        W 4357   6.306   9.493  10.687
39197W        W 4358   1.208  25.143   2.391
39198W        W 4359  34.543  26.944  13.619
39199W        W 4360  34.099  34.096  11.938
39200W        W 4361  42.524  42.320   4.568
39201W        W 4362  29.565  17.050  14.897
39202W        W 4363  14.109  31.448  11.525
39203W        W 4364  19.489  44.938  11.092
39204W        W 4365  13.760  42.216   1.318
39205W        W 4366  18.211  10.212  12.841
39206W        W 4367  11.136   1.434   0.008
39207W        W 4368  15.618  11.944   1.781
39208W        W 4369  22.617  25.735  11.973
39209W        W 4370  24.620  18.861   4.614
39210W        W 4371  34.437  28.397  13.102
39211W        W 4372  11.476   7.857  10.872
39212W        W 4373  20.911  12.554  13.399
39213W        W 4374  42.447   8.260  11.292
39214W        W 4375  29.415  43.644  11.104
39215W        W 4376  30.012  40.245  14.958
39216W        W 4377   1.227   7.908   1.827
39217W        W 4378   5.021  34.553   1.017
39218W        W 4379  11.797  20.666   0.447
39219W        W 4380  23.023   9.697   4.090
39220W        W 4381  39.854  12.744   4.462
39221W        W 4382  13.797  42.024   0.410
39222W        W 4383   4.820  36.275   4.581
39223W        W 4384   8.814  19.500  14.872
39224W        W 4385   3.889  19.279  13.083
39225W        W 4386  38.566  22.044  13.958
39226W        W 4387  33.904   4.830  13.206
39227W        W 4388  13.580   7.730   4.206
39228W        W 4389  43.280   6.617  14.188
39229W        W 4390   0.166   0.538   1.816
39230W        W 4391  37.563  44.872   3.594
39231W        W 4392   0.790  24.377   0.238
39232W        W 4393  41.516   2.770  12.878
39233W        W 4394  14.636  10.657   4.705
39234W        W 4395  44.292  44.393   3.814
39235W        W 4396  10.202   8.945  14.554
39236W        W 4397   5.764  38.617  14.207
39237W        W 4398  34.115  22.647   4.545
39238W        W 4399  24.595   8.442  14.793
39239W        W 4400  32.253  19.118  13.969
39240W        W 4401  28.527  16.537   4.933
39241W        W 4402   0.737   1.561   0.736
39242W        W 4403  35.486  25.582   2.708
39243W        W 4404  38.954   9.762   0.516
39244W        W 4405  29.777  13.341   3.459
39245W        W 4406  11.882  39.935  14.990
39246W        W 4407  15.161  18.821  11.979
39247W        W 4408   7.316  37.507  11.540
39248W        W 4409  31.112  31.813   1.803
39249W        W 4410  41.787  44.994   2.000
39250W        W 4411   1.699  29.489   4.146
39251W        W 4412  12.175  18.763   4.503
39252W        W 4413  27.190  23.930   2.245
39253W        W 4414  37.014   1.816  13.499
39254W        W 4415   4.968  20.750  13.370
39255W        W 4416  18.723   5.463  14.062
39256W        W 4417  24.221  20.136   1.253
39257W        W 4418  39.248  16.468   2.331
39258W        W 4419  31.933   9.097  11.516
39259W        W 4420  10.654  33.100   1.208
39260W        W 4421  35.986  30.367  11.000
39261W        W 4422   4.195  43.064   2.746
39262W        W 4423  27.911   2.496   1.417
39263W        W 4424   4.694   3.369   0.730
39264W        W 4425  11.357  20.035   2.402
39265W        W 4426  22.339  14.163   0.292
39266W        W 4427  18.419  32.561   0.130
39267W        W 4428   9.837  10.194   1.470
39268W        W 4429  19.656  37.410   3.552
39269W        W 4430  21.968  16.762   4.620
39270W        W 4431   7.933  43.408  14.240
39271W        W 4432   6.942  39.946  12.014
39272W        W 4433  22.266  41.556   4.233
39273W        W 4434   3.053  36.520   1.106
39274W        W 4435   7.470  23.443   2.225
39275W        W 4436  14.563  12.595   0.685
39276W        W 4437  27.081  13.147  13.778
39277W        W 4438  36.009  17.730  10.542
39278W        W 4439   1.639  44.578  11.137
39279W        W 4440  42.325  22.601   3.874
39280W        W 4441   6.308  18.165  13.996
39281W        W 4442  39.346  20.304  11.570
39282W        W 4443  23.268  23.058  10.961
39283W        W 4444  38.400   6.859  14.949
39284W        W 4445  12.629   8.903   4.717
39285W        W 4446  20.107  44.932   2.886
39286W        W 4447  17.523  36.461  14.319
39287W        W 4448  15.689  42.412  14.432
39288W        W 4449  20.025   7.683  14.982
39289W        W 4450  22.167  21.699  12.032
39290W        W 4451  31.981  14.863   1.332
39291W        W 4452  30.785  40.854   5.490
39292W        W 4453  40.796  35.511   2.774
39293W        W 4454  14.896  39.300  11.550
39294W        W 4455  27.089  21.198  14.292
39295W        W 4456  26.409  12.125   2.362
39296W        W 4457  38.612  38.998  13.469
39297W        W 4458   7.637   3.331  10.512
39298W        W 4459  10.806  14.619  12.347
39299W        W 4460   4.412  12.853   3.219
39300W        W 4461  33.730  26.510  11.024
39301W        W 4462  34.381   5.468  11.663
39302W        W 4463  11.652  38.794  13.824
39303W        W 4464  40.281  10.925  14.988
39304W        W 4465   6.839  41.424   5.036
39305W        W 4466  13.778  37.629  11.696
39306W        W 4467   2.849  14.327   5.037
39307W        W 4468   9.694  24.413   2.367
39308W        W 4469  11.138  15.592   4.735
39309W        W 4470  32.466  15.331   2.150
39310W        W 4471  35.364  21.355  11.245
39311W        W 4472  14.478  13.013  11.092
39312W        W 4473  25.662  26.448  10.694
39313W        W 4474  35.142  14.527  14.906
39314W        W 4475   2.400  19.726   3.366
39315W        W 4476  42.445   3.902  14.287
39316W        W 4477  17.523   2.386   1.288
39317W        W 4478  37.668  36.851   1.502
39318W        W 4479  13.724  41.038   0.235
39319W        W 4480   7.781  42.253  14.371
39320W        W 4481   2.318  34.685  10.391
39321W        W 4482   8.712  41.382  11.544
39322W        W 4483  37.796   8.109   3.023
39323W        W 4484   4.433   8.046   1.278
39324W        W 4485  33.531  19.038  14.377
39325W        W 4486  44.902  36.263   2.787
39326W        W 4487  11.500  39.259   2.837
39327W        W 4488  21.560  17.245  13.862
39328W        W 4489  21.677   6.065   0.324
39329W        W 4490  40.431  12.582  11.758
39330W        W 4491  44.403  36.560  11.931
39331W        W 4492  31.833  26.187  11.888
39332W        W 4493  37.972  16.802  14.021
39333W        W 4494   9.180   2.802   4.794
39334W        W 4495  44.735  11.880   1.173
39335W        W 4496  14.657  26.654   2.235
39336W        W 4497  44.243   8.440   3.696
39337W        W 4498  39.661  15.021  10.774
39338W        W 4499  26.442   5.963   3.718
39339W        W 4500   3.465  37.337   4.348
39340W        W 4501   0.016  15.910   1.268
39341W        W 4502  22.250   2.891  13.961
39342W        W 4503  35.656  22.151   0.621
39343W        W 4504  16.749  35.576   3.303
39344W        W 4505  37.584   3.369   0.203
39345W        W 4506  19.723  35.831  14.355
39346W        W 4507   1.378  30.500  12.415
39347W        W 4508  41.397  15.933   4.605
39348W        W 4509  10.601  42.520  13.515
39349W        W 4510  27.984  31.310  11.097
39350W        W 4511  24.065  38.378  13.987
39351W        W 4512  30.683  18.284  12.824
39352W        W 4513   5.170  29.400   3.335
39353W        W 4514  12.187   4.896   4.609
39354W        W 4515  37.618  17.316   0.795
39355W        W 4516   9.001  21.302   5.114
39356W        W 4517  37.911  32.368  14.009
39357W        W 4518  36.484  18.990  12.097
39358W        W 4519  19.134  40.272   2.611
39359W        W 4520  33.850  36.245  11.986
39360W        W 4521  30.363   2.221   4.102
39361W        W 4522  39.399   4.301   4.266
39362W        W 4523  31.039  33.203   3.172
39363W        W 4524  36.873  32.677   2.198
39364W        W 4525   0.955  33.027   1.146
39365W        W 4526  18.102  13.096  14.893
39366W        W 4527  16.553  35.484   2.037
39367W        W 4528  19.422  16.372  10.459
39368W        W 4529   8.321  42.470   0.263
39369W        W 4530  20.245  13.709  14.784
39370W        W 4531   0.281  37.860   2.928
39371W        W 4532  29.630  43.422   1.300
39372W        W 4533  32.668  43.831  11.788
39373W        W 4534  33.542  11.823  14.974
39374W        W 4535  10.818  25.417   3.723
39375W        W 4536  17.621  31.104  11.133
39376W        W 4537   2.057  11.652   4.438
39377W        W 4538   9.698  33.230   2.704
39378W        W 4539  41.399  36.863  13.044
39379W        W 4540  23.975   5.831  11.707
39380W        W 4541  15.052   9.846  11.625
39381W        W 4542  32.334  36.809  12.893
39382W        W 4543  30.877  17.067   0.261
39383W        W 4544  43.414  10.781  13.463
39384W        W 4545   9.581  43.130  10.208
39385W        W 4546  23.005   2.590  14.225
39386W        W 4547  28.966  18.052   2.369
39387W        W 4548  44.506   7.762  14.424
39388W        W 4549   0.528   2.354  11.977
39389W        W 4550  10.759  14.906   2.640
39390W        W 4551  14.258   5.814  13.889
39391W        W 4552  11.605  21.700  12.206
39392W        W 4553  27.224   9.439   1.259
39393W        W 4554   9.092  40.801   2.913
39394W        W 4555  36.978  41.359   0.836
39395W        W 4556   6.450  12.213  12.479
39396W        W 4557  33.641   8.954  11.105
39397W        W 4558  24.570  31.790  12.627
39398W        W 4559  23.501  31.509   1.225
39399W        W 4560  11.342  11.118   1.749
39400W        W 4561  28.524  19.082   0.962
39401W        W 4562  38.726   7.822   5.042
39402W        W 4563  28.691  28.196   4.009
39403W        W 4564  18.089  24.645   0.267
39404W        W 4565  24.459  44.918   4.419
39405W        W 4566  26.496  44.980  11.150
39406W        W 4567  15.288  13.847  10.441
39407W        W 4568  29.811   2.700  14.787
39408W        W 4569  30.314   8.863   1.809
39409W        W 4570  10.912  35.152   4.576
39410W        W 4571  43.644  31.570  12.110
39411W        W 4572  22.451  33.015   3.536
39412W        W 4573  43.059  23.290   1.732
39413W        W 4574  12.573  12.586   2.306
39414W        W 4575  12.836  33.378  13.520
39415W        W 4576   5.324  29.087   4.282
39416W        W 4577  16.429  33.981  13.194
39417W        W 4578  10.921  15.834   4.107
39418W        W 4579  26.772   6.206   4.053
39419W        W 4580  32.898   1.260   1.723
39420W        W 4581  31.596  20.714   1.726
39421W        W 4582   3.115  15.375  14.579
39422W        W 4583  37.867   6.117  11.611
39423W        W 4584  23.988  14.450   2.170
39424W        W 4585   0.048  19.384   3.559
39425W        W 4586  20.586  22.717  13.384
39426W        W 4587  42.496   2.923   3.359
39427W        W 4588   4.231   0.994   4.613
39428W        W 4589  14.586   6.817  12.497
39429W        W 4590  42.933   8.677  10.648
39430W        W 4591  43.912  11.837  13.959
39431W        W 4592  33.455   4.719   2.464
39432W        W 4593  12.913   4.479   4.920
39433W        W 4594  24.890  27.677   2.692
39434W        W 4595   6.928  34.809  12.625
39435W        W 4596  35.679  33.571   1.551
39436W        W 4597   0.350  17.606  12.106
39437W        W 4598  39.931  28.383   0.161
39438W        W 4599  36.547  15.027  12.547
39439W        W 4600  29.837  28.935  13.043
39440W        W 4601  15.456  13.402   2.880
39441W        W 4602  32.169  17.267   0.877
39442W        W 4603  34.555   1.899  12.749
39443W        W 4604   0.099  16.998   2.310
39444W        W 4605  10.799  26.224  13.875
39445W        W 4606   5.608   8.318   0.237
39446W        W 4607  38.347  26.268   1.386
39447W        W 4608  43.397  12.383  10.466
39448W        W 4609  32.007  32.920   3.345
39449W        W 4610   5.621  36.385   1.918
39450W        W 4611  11.300  29.177   3.646
39451W        W 4612  10.776  38.421   0.965
39452W        W 4613  36.373  10.187   4.554
39453W        W 4614  16.532   4.827   4.071
39454W        W 4615   2.692  19.280   1.349
39455W        W 4616  27.703  34.068   2.904
39456W        W 4617  26.917  26.229   0.699
39457W        W 4618  20.089   7.762  11.532
39458W        W 4619  31.852   0.958   4.181
39459W        W 4620  33.504  25.736   4.136
39460W        W 4621  44.442   8.661  12.635
39461W        W 4622   9.067  39.077  10.658
39462W        W 4623  17.557  29.806   4.431
39463W        W 4624  11.311  37.558   1.304
39464W        W 4625   3.908  35.510  13.965
39465W        W 4626   6.398  11.370  14.824
39466W        W 4627  31.088  12.083  11.013
39467W        W 4628  40.310  29.878   4.829
39468W        W 4629  16.118  28.416   1.601
39469W        W 4630  22.988  16.936  11.169
39470W        W 4631  22.190  40.062  14.407
39471W        W 4632  15.855  33.412   2.340
39472W        W 4633  37.880  32.812   0.316
39473W        W 4634  31.049  13.106  12.600
39474W        W 4635  29.305  27.749   4.895
39475W        W 4636  38.270   8.119  14.072
39476W        W 4637   3.854  40.375  12.436
39477W        W 4638  18.358   9.298   0.769
39478W        W 4639  28.200   3.266  14.072
39479W        W 4640  21.490  24.202   9.480
39480W        W 4641  18.592  40.248  12.735
39481W        W 4642   1.872  16.159   4.507
39482W        W 4643   2.838  11.294   3.239
39483W        W 4644   0.012  16.348   2.166
39484W        W 4645   0.263   2.341   1.964
39485W        W 4646  43.181  32.182  11.493
39486W        W 4647  42.346  28.445   4.662
39487W        W 4648  38.402  24.524  14.363
39488W        W 4649  34.811  18.155  13.852
39489W        W 4650  34.917  17.500  12.545
39490W        W 4651   2.851  41.445   4.139
39491W        W 4652  23.773   2.541   0.907
39492W        W 4653  26.425  28.895   1.867
39493W        W 4654   6.589  15.746   0.382
39494W        W 4655  27.199   4.484   1.836
39495W        W 4656   1.035  11.710  13.965
39496W        W 4657  21.997  29.198   2.774
39497W        W 4658   3.222  34.087   1.431
39498W        W 4659  38.313  25.051  13.819
39499W        W 4660  16.773  36.603   2.728
39500W        W 4661  29.157  41.623   3.675
39501W        W 4662  38.899  15.297  10.276
39502W        W 4663  43.485  26.662  14.974
39503W        W 4664   6.405  23.678   0.741
39504W        W 4665  33.125  24.513  12.046
39505W        W 4666  37.163  17.372   0.544
39506W        W 4667   9.185  16.529   1.431
39507W        W 4668  13.783   1.201  12.554
39508W        W 4669  34.269   6.770   3.566
39509W        W 4670  42.862  44.313  11.530
39510W        W 4671  16.014  30.616  12.953
39511W        W 4672  42.737  38.972  14.960
39512W        W 4673  18.841  39.593  12.341
39513W        W 4674  20.054   0.013   1.331
39514W        W 4675   4.342  30.712  14.814
39515W        W 4676  37.424  15.997  13.283
39516W        W 4677  22.837  41.721   9.785
39517W        W 4678   7.280   3.704  13.803
39518W        W 4679   9.889   3.305   1.708
39519W        W 4680  30.933  10.670   1.355
39520W        W 4681  37.430  22.066   0.808
39521W        W 4682   2.935   0.841   2.297
39522W        W 4683  31.862  39.448   1.427
39523W        W 4684  41.888  14.089   3.399
39524W        W 4685  34.823  19.801   3.199
39525W        W 4686  24.630  34.317   1.928
39526W        W 4687  14.785  39.722   0.370
39527W        W 4688  21.741  44.515   3.741
39528W        W 4689  35.465   5.814   2.327
39529W        W 4690   2.972  34.169   0.140
39530W        W 4691  12.174  37.922   3.333
39531W        W 4692  42.590  26.006   2.809
39532W        W 4693  12.188   5.671  12.458
39533W        W 4694  35.352  10.253  12.007
39534W        W 4695  30.865  40.021   0.514
39535W        W 4696  29.849   5.789   0.353
39536W        W 4697  40.069  29.463  11.105
39537W        W 4698  28.677  25.388  12.082
39538W        W 4699   9.234  23.865  11.708
39539W        W 4700  30.752  29.384  11.697
39540W        W 4701   8.716  17.181   3.680
39541W        W 4702  26.626  37.987   1.958
39542W        W 4703  24.271  13.332  11.417
39543W        W 4704  25.324  10.561   4.018
39544W        W 4705  33.169  12.091  14.233
39545W        W 4706   3.444  32.127  13.091
39546W        W 4707   0.849  34.174  10.576
39547W        W 4708   1.942  11.319   0.240
39548W        W 4709  44.963  21.529  14.781
39549W        W 4710  29.187   1.196   2.865
39550W        W 4711  15.526  26.817  12.920
39551W        W 4712  32.423  34.486   3.437
39552W        W 4713  14.585  34.000   4.624
39553W        W 4714   1.588  30.431   1.300
39554W        W 4715   9.862  25.085   1.982
39555W        W 4716  41.843  25.780  10.764
39556W        W 4717  34.892   0.749   4.351
39557W        W 4718  19.979  13.381   0.756
39558W        W 4719  44.257  44.423   0.231
39559W        W 4720  25.729   0.323  11.102
39560W        W 4721   3.401  22.552   2.183
39561W        W 4722  18.073  39.621   1.223
39562W        W 4723  12.826  26.174   0.894
39563W        W 4724  34.651  29.181   2.292
39564W        W 4725  32.202  32.936   4.666
39565W        W 4726  21.779  27.858  12.642
39566W        W 4727   9.918  32.562  13.533
39567W        W 4728  33.526  24.834  14.284
39568W        W 4729  37.243  44.986  12.125
39569W        W 4730  20.724  12.080   1.260
39570W        W 4731   1.048  44.500  12.895
39571W        W 4732  20.342   0.833   2.228
39572W        W 4733  28.163   3.806   2.673
39573W        W 4734   7.450  38.063  14.884
39574W        W 4735  17.252  43.484   4.169
39575W        W 4736  41.440  29.072  14.294
39576W        W 4737  13.422  38.729  14.492
39577W        W 4738   6.733   7.521   1.926
39578W        W 4739  27.056   4.719   0.727
39579W        W 4740  14.427  14.795  14.344
39580W        W 4741   6.840  29.416  10.687
39581W        W 4742  32.876   1.036   2.656
39582W        W 4743  43.253   7.819   2.239
39583W        W 4744  21.125  31.657  13.926
39584W        W 4745   1.920  35.225   3.216
39585W        W 4746  11.520  33.606   3.631
39586W        W 4747  34.311  26.618   4.527
39587W        W 4748  28.566  16.800   3.944
39588W        W 4749  13.724  44.234  11.625
39589W        W 4750   3.948  13.150  10.504
39590W        W 4751  24.360  11.694  12.227
39591W        W 4752  16.257  13.331   2.247
39592W        W 4753  28.652  42.422   0.347
39593W        W 4754   0.861  20.065  12.593
39594W        W 4755  31.576  29.012  14.311
39595W        W 4756   1.006  11.186  13.939
39596W        W 4757  26.985   7.276  13.430
39597W        W 4758   8.735   9.253  14.914
39598W        W 4759  16.717  29.917   2.868
39599W        W 4760  23.253  10.221  12.037
39600W        W 4761  18.422  41.088   9.561
39601W        W 4762  15.702   9.188  10.588
39602W        W 4763  10.853  16.793   4.075
39603W        W 4764  31.156  29.140   1.272
39604W        W 4765  34.877  25.048  12.036
39605W        W 4766   9.651   7.354   0.817
39606W        W 4767   6.793  32.329  13.446
39607W        W 4768   2.841   2.677   2.886
39608W        W 4769  12.436  43.051  12.567
39609W        W 4770  41.476  22.599   1.249
39610W        W 4771   5.957  18.536  13.400
39611W        W 4772  18.144   9.062  12.051
39612W        W 4773  30.414  23.421   0.907
39613W        W 4774  32.354  27.286  14.366
39614W        W 4775  36.820  40.459   0.875
39615W        W 4776  33.329  34.147   1.430
39616W        W 4777   7.624  38.254  11.933
39617W        W 4778  41.927  16.766  12.479
39618W        W 4779  32.158  41.936  13.571
39619W        W 4780   9.123  27.081  13.831
39620W        W 4781  35.415  31.467   4.710
39621W        W 4782  18.126  16.948   1.248
39622W        W 4783  23.480  44.881   0.374
39623W        W 4784  22.955  11.315   1.130
39624W        W 4785  21.486  17.083  12.341
39625W        W 4786   2.304  40.323  10.624
39626W        W 4787  40.949  26.790  12.455
39627W        W 4788   2.308  16.121  11.684
39628W        W 4789  23.017  31.234   1.845
39629W        W 4790  27.501  38.479  13.018
39630W        W 4791  30.723  19.588  11.698
39631W        W 4792  13.106  44.148  10.963
39632W        W 4793  21.303   5.916   1.872
39633W        W 4794  25.758  26.798  13.755
39634W        W 4795  16.604  31.709  13.678
39635W        W 4796  11.827  17.513   3.702
39636W        W 4797  28.929  19.392   1.015
39637W        W 4798  27.030  18.315  11.589
39638W        W 4799   3.246  16.185  12.849
39639W        W 4800  23.588  26.833  13.344
39640W        W 4801   6.384  32.054  14.875
39641W        W 4802  29.088  13.383   4.224
39642W        W 4803  43.776  23.716   1.720
39643W        W 4804  18.890  44.314   1.462
39644W        W 4805  36.447   5.676   4.522
39645W        W 4806  40.592   5.586   0.060
39646W        W 4807  39.695  19.274   2.079
39647W        W 4808   4.399  11.654  10.789
39648W        W 4809  38.740  34.907  11.660
39649W        W 4810   7.398   9.309  11.735
39650W        W 4811  20.627  24.436   3.312
39651W        W 4812  16.738   0.825  13.702
39652W        W 4813   0.764  13.528  14.781
39653W        W 4814  17.167  26.357   1.375
39654W        W 4815  43.793   7.632  12.159
39655W        W 4816  36.545   0.849  13.594
39656W        W 4817  43.650  26.998   2.783
39657W        W 4818  44.492  31.298   4.209
39658W        W 4819   3.803  24.728  12.423
39659W        W 4820   4.720  12.136   0.022
39660W        W 4821  37.082   5.666   1.713
39661W        W 4822  10.424  42.608   1.039
39662W        W 4823   5.819  12.735  13.913
39663W        W 4824   2.347  39.250   3.112
39664W        W 4825  31.642  43.137  14.703
39665W        W 4826   0.844   1.687   2.422
39666W        W 4827   8.274   2.737   4.448
39667W        W 4828  32.862   7.311  12.378
39668W        W 4829  12.836  43.482   1.348
39669W        W 4830  44.093   9.366   0.840
39670W        W 4831  22.707  27.173  14.022
39671W        W 4832   5.717   6.998  11.398
39672W        W 4833  31.997  23.006   2.144
39673W        W 4834   4.242  37.343  14.346
39674W        W 4835   3.342  29.106  13.997
39675W        W 4836  22.945  42.815   3.645
39676W        W 4837  21.222  35.031  14.346
39677W        W 4838  26.525  44.689  14.405
39678W        W 4839  29.186  37.075  11.073
39679W        W 4840   9.402  10.741   3.115
39680W        W 4841  38.896  11.207  12.609
39681W        W 4842  14.550  10.147  14.431
39682W        W 4843   1.187  18.859  14.987
39683W        W 4844  35.087  12.790  11.580
39684W        W 4845   2.413  41.390  14.744
39685W        W 4846  15.128  36.651  13.834
39686W        W 4847  19.957  21.076  12.839
39687W        W 4848   4.604  23.835   9.579
39688W        W 4849  42.731   5.318   3.291
39689W        W 4850  43.012  20.949  10.444
39690W        W 4851  13.927   2.819   0.868
39691W        W 4852  33.076  20.941   5.145
39692W        W 4853  22.783   6.536  14.981
39693W        W 4854  10.962  31.552  14.427
39694W        W 4855  14.548   2.936   2.704
39695W        W 4856  24.974  23.502   0.475
39696W        W 4857   3.006   4.955  13.319
39697W        W 4858  24.498   1.646   1.825
39698W        W 4859   8.177  21.657   3.120
39699W        W 4860  42.982   2.071   2.277
39700W        W 4861   4.267   9.668  12.055
39701W        W 4862  13.330  35.827  10.531
39702W        W 4863  35.518  12.146   0.953
39703W        W 4864  26.014  31.575   3.823
39704W        W 4865   6.626  16.146   4.063
39705W        W 4866  34.287   3.085   1.172
39706W        W 4867  14.277  25.091   0.960
39707W        W 4868   3.919  37.014  12.649
39708W        W 4869  12.704  38.270  11.294
39709W        W 4870   4.621  32.919   0.580
39710W        W 4871  18.173  33.662  10.594
39711W        W 4872  36.899  35.588   4.542
39712W        W 4873   4.735  43.659   4.681
39713W        W 4874  28.945  13.224  11.735
39714W        W 4875   8.710  36.012  14.841
39715W        W 4876  26.021   5.197   0.277
39716W        W 4877   5.707  36.155   2.416
39717W        W 4878  36.277   2.277  12.982
39718W        W 4879  40.881  14.305   0.686
39719W        W 4880  17.865  31.171  11.593
39720W        W 4881   6.012  28.743  11.182
39721W        W 4882  41.826  44.039   1.988
39722W        W 4883  17.627   9.741  13.881
39723W        W 4884  14.224   1.450   1.909
39724W        W 4885  31.602  20.053  11.920
39725W        W 4886   9.728  14.311  13.297
39726W        W 4887  30.229  31.586  14.860
39727W        W 4888   7.759  25.747   2.484
39728W        W 4889   6.722  24.158   0.959
39729W        W 4890  34.352  43.258  13.996
39730W        W 4891  38.288  40.386   1.868
39731W        W 4892  29.073  26.980   1.851
39732W        W 4893   3.341  37.928  10.521
39733W        W 4894  21.785  30.638  13.475
39734W        W 4895  20.836  12.348  12.066
39735W        W 4896  31.381  39.347   0.342
39736W        W 4897  30.544   9.425   3.321
39737W        W 4898  26.050  24.701  14.370
39738W        W 4899  42.477  34.858  14.081
39739W        W 4900  38.709   7.269   0.909
39740W        W 4901  12.699  26.441   0.183
39741W        W 4902  22.991  11.748   2.738
39742W        W 4903  32.234  36.832  11.105
39743W        W 4904   7.770  36.467   1.277
39744W        W 4905  37.472   3.797  10.314
39745W        W 4906  18.222  42.446  11.513
39746W        W 4907  14.012  27.958   2.342
39747W        W 4908  10.963  39.450   2.685
39748W        W 4909  22.949  39.306   3.422
39749W        W 4910   5.303  15.032   0.909
39750W        W 4911  29.002  11.935   9.983
39751W        W 4912  23.677  25.518   0.338
39752W        W 4913  23.805   7.138   2.786
39753W        W 4914  40.957  20.120  13.094
39754W        W 4915  15.826   5.984   2.722
39755W        W 4916  28.107  10.836  14.501
39756W        W 4917  16.215   3.003  13.910
39757W        W 4918  10.344   5.618   9.952
39758W        W 4919   9.309  11.359   0.571
39759W        W 4920  21.917  42.957  13.354
39760W        W 4921  40.055  35.003  12.890
39761W        W 4922  41.586   1.379  11.128
39762W        W 4923  29.188  38.836   1.858
39763W        W 4924  42.004  29.976   3.457
39764W        W 4925  39.142  26.206   0.449
39765W        W 4926  24.142  36.370   1.163
39766W        W 4927  39.283  37.434  14.786
39767W        W 4928   2.531  20.434  13.408
39768W        W 4929  12.574   6.990   0.750
39769W        W 4930  35.644   1.805  14.862
39770W        W 4931  11.611   5.323   3.567
39771W        W 4932  31.836  38.941   5.407
39772W        W 4933   5.732  11.092   2.643
39773W        W 4934  37.436   8.844  14.936
39774W        W 4935  16.052   2.455   1.128
39775W        W 4936  11.479  37.839   0.054
39776W        W 4937  16.022   4.441   3.760
39777W        W 4938   6.404   0.911  11.998
39778W        W 4939  11.837   4.692   5.005
39779W        W 4940  39.350  10.786   2.569
39780W        W 4941   3.831  23.130  11.179
39781W        W 4942  22.614  16.741  11.901
39782W        W 4943  28.729  15.235   2.923
39783W        W 4944   0.900  41.764  11.494
39784W        W 4945  23.104  41.496  13.718
39785W        W 4946  17.055  27.526  10.722
39786W        W 4947  22.705  33.086  12.563
39787W        W 4948  29.180  22.716   3.150
39788W        W 4949   3.522   4.704   5.162
39789W        W 4950  43.356  31.643   1.381
39790W        W 4951   1.436  21.201  13.155
39791W        W 4952   8.902  27.904  12.887
39792W        W 4953   4.094  37.470  10.752
39793W        W 4954   6.571  38.388   4.115
39794W        W 4955  40.987  43.534  13.544
39795W        W 4956   3.306  16.875   3.623
39796W        W 4957  39.600  36.075   0.067
39797W        W 4958  22.710  33.600  12.609
39798W        W 4959  18.723   0.372  13.062
39799W        W 4960  22.111  42.984  14.838
39800W        W 4961  22.750  27.967  14.495
39801W        W 4962  19.221   5.941   2.303
39802W        W 4963  35.157  12.770  13.551
39803W        W 4964  42.149  12.066   2.595
39804W        W 4965  23.201  23.474  13.591
39805W        W 4966  25.208   3.287   3.550
39806W        W 4967   6.729  33.137   0.485
39807W        W 4968  29.013   9.407   3.388
39808W        W 4969  34.220  13.760   1.883
39809W        W 4970  35.378   6.768   1.176
39810W        W 4971  40.585   5.577   1.806
39811W        W 4972  23.709   0.562   0.748
39812W        W 4973   2.691   1.483  13.436
39813W        W 4974  17.261   7.295   0.246
39814W        W 4975  38.786  39.472  13.358
39815W        W 4976  36.460  22.071   0.049
39816W        W 4977  27.154  31.524   4.597
39817W        W 4978   9.201  44.779  14.282
39818W        W 4979  16.606  37.180  13.739
39819W        W 4980   0.986  28.710   3.748
39820W        W 4981  39.510   6.615   4.359
39821W        W 4982  31.098  26.865  13.014
39822W        W 4983  41.792  11.087  14.302
39823W        W 4984  29.653  39.816  12.456
39824W        W 4985  32.170  30.656  12.977
39825W        W 4986  19.844  22.687   1.272
39826W        W 4987  32.500  11.075  11.357
39827W        W 4988  15.581   7.900   5.321
39828W        W 4989  42.264   3.566  11.553
39829W        W 4990  24.994   4.484   3.741
39830W        W 4991  44.795  34.422   1.019
39831W        W 4992  15.537   2.509  10.589
39832W        W 4993  17.562   0.180   1.927
39833W        W 4994  32.929  14.750  14.768
39834W        W 4995   8.358   2.202   4.588
39835W        W 4996  42.720  28.464   2.312
39836W        W 4997  22.362  34.566  10.177
39837W        W 4998  34.522  26.473  12.931
39838W        W 4999  37.248  31.594   3.117
39839W        W 5000  43.934  20.939  10.384
39840W        W 5001  31.718   2.244   3.884
39841W        W 5002  26.416   1.689  12.483
39842W        W 5003  31.354   8.276  13.995
39843W        W 5004   1.248  17.317  12.444
39844W        W 5005   6.185   8.845  13.942
39845W        W 5006  30.587  24.976  12.126
39846W        W 5007  15.868  28.858  11.067
39847W        W 5008  23.235  43.766   0.730
39848W        W 5009  32.584  42.754   1.043
39849W        W 5010  20.811  42.753   1.131
39850W        W 5011  35.810  33.342  10.097
39851W        W 5012  20.296  12.338   2.450
39852W        W 5013   3.278   6.291   4.564
39853W        W 5014   8.355  34.873  11.092
39854W        W 5015  41.376  44.273   4.253
39855W        W 5016  19.204  11.469   4.075
39856W        W 5017  15.578  31.110   3.726
39857W        W 5018  38.017  22.237   0.702
39858W        W 5019  22.678  41.246   4.248
39859W        W 5020   3.922   4.790  11.098
39860W        W 5021  17.335  12.602  13.495
39861W        W 5022  30.415  35.241  12.347
39862W        W 5023  35.528  36.448  14.835
39863W        W 5024  43.547   2.648   2.870
39864W        W 5025  15.615  15.237   2.090
39865W        W 5026  18.713  27.062   3.033
39866W        W 5027  30.146  42.825  13.998
39867W        W 5028  31.957  33.397   3.161
39868W        W 5029  10.075  29.091  12.458
39869W        W 5030  28.085  17.102   0.127
39870W        W 5031   1.509  28.236  14.844
39871W        W 5032  42.234  40.903  12.482
39872W        W 5033  36.341  29.586  12.114
39873W        W 5034  43.900  44.021  13.725
39874W        W 5035  10.359  34.327  12.649
39875W        W 5036  13.422  13.810  10.733
39876W        W 5037   2.347  33.540   0.434
39877W        W 5038  41.386  10.696   2.682
39878W        W 5039   1.046  33.384  14.207
39879W        W 5040  34.878   2.802   1.844
39880W        W 5041  40.267  10.740   4.107
39881W        W 5042  30.667  26.292   4.177
39882W        W 5043  31.361  28.592  10.580
39883W        W 5044  11.597  21.008  12.692
39884W        W 5045   9.376  35.800  11.207
39885W        W 5046  18.681  18.141   0.997
39886W        W 5047  12.901  15.790  14.846
39887W        W 5048   7.157   9.012  13.910
39888W        W 5049  27.188  38.205  11.467
39889W        W 5050  19.850  38.635   2.739
39890W        W 5051  38.971  43.766   0.084
39891W        W 5052  36.362  43.452  12.999
39892W        W 5053   4.463   0.500  13.582
39893W        W 5054  24.664  15.655  11.033
39894W        W 5055  31.935  24.260  14.561
39895W        W 5056   1.833  42.848   2.749
39896W        W 5057  12.211  37.572   0.610
39897W        W 5058  16.242   6.706  11.917
39898W        W 5059  26.271  19.667   2.234
39899W        W 5060  40.661  18.206  11.985
39900W        W 5061  44.465  14.504   1.191
39901W        W 5062   2.406  11.547   3.072
39902W        W 5063  36.076  29.749   3.280
39903W        W 5064   7.282   7.389   3.157
39904W        W 5065   5.868  41.907   4.154
39905W        W 5066  35.491  25.065  13.534
39906W        W 5067  23.406  12.352  11.346
39907W        W 5068  43.359  42.611   0.409
39908W        W 5069  10.867  20.058   1.704
39909W        W 5070  21.643  35.266  12.059
39910W        W 5071  33.858  34.798   4.576
39911W        W 5072  44.893  42.797   2.274
39912W        W 5073  14.109   9.772   4.600
39913W        W 5074  16.459  36.452  14.989
39914W        W 5075  43.786  39.870   9.516
39915W        W 5076  37.356  19.737   2.512
39916W        W 5077  35.428  14.916  14.714
39917W        W 5078  32.050  43.040   1.379
39918W        W 5079  29.577  26.613  14.845
39919W        W 5080  19.099  17.938  11.530
39920W        W 5081   2.916  33.178   2.130
39921W        W 5082  22.465  17.018  12.317
39922W        W 5083   1.721   5.533   0.527
39923W        W 5084  20.597  12.051   2.755
39924W        W 5085   5.011   6.206   4.649
39925W        W 5086  16.070  24.969   1.253
39926W        W 5087  38.585   7.196   4.611
39927W        W 5088  33.457  19.774   0.105
39928W        W 5089  19.969  30.853  13.364
39929W        W 5090  33.522   9.411  14.723
39930W        W 5091  30.419   9.593  10.691
39931W        W 5092  39.730   4.980  10.725
39932W        W 5093  14.069  16.646  12.935
39933W        W 5094  18.185   8.680  14.360
39934W        W 5095   6.863  24.412  13.070
39935W        W 5096  28.431  37.089  10.690
39936W        W 5097  31.940  32.082   1.384
39937W        W 5098  23.070  30.943   4.934
39938W        W 5099  30.875  15.804  13.926
39939W        W 5100  35.282  40.010   5.503
39940W        W 5101  41.474   8.373  11.577
39941W        W 5102   7.477  27.666   4.587
39942W        W 5103  20.805  22.897   3.179
39943W        W 5104  10.132  34.225   1.207
39944W        W 5105   4.815  16.349  12.493
39945W        W 5106  22.722   1.720  14.365
39946W        W 5107   7.433   8.581  13.725
39947W        W 5108  15.247  19.699   4.130
39948W        W 5109  39.874  23.742  11.290
39949W        W 5110  25.171  41.042   1.845
39950W        W 5111  19.839  12.763  14.768
39951W        W 5112  20.985   0.216  13.488
39952W        W 5113  32.548  25.505  11.877
39953W        W 5114   8.594   4.216   1.335
39954W        W 5115  11.176  16.967  10.256
39955W        W 5116  12.766  19.048   1.343
39956W        W 5117  42.514  23.813   2.233
39957W        W 5118  20.265  23.678  13.379
39958W        W 5119  38.847  34.594   4.149
39959W        W 5120  41.207  27.635   3.277
39960W        W 5121  28.961  27.703  11.980
39961W        W 5122   3.906  34.835  11.110
39962W        W 5123  22.597   3.552  11.117
39963W        W 5124  28.237  26.333  12.998
39964W        W 5125  12.344   2.651  14.831
39965W        W 5126  32.608  13.281  12.173
39966W        W 5127  22.946  27.966  11.106
39967W        W 5128  42.070  12.816   2.881
39968W        W 5129  24.413   9.298  12.277
39969W        W 5130  30.287  39.779   1.686
39970W        W 5131   8.771  37.522  10.973
39971W        W 5132  31.035  10.172   3.471
39972W        W 5133   9.146  13.701  13.175
39973W        W 5134  13.087   1.458  12.989
39974W        W 5135  21.544  30.697  12.081
39975W        W 5136  44.772  35.336  13.350
39976W        W 5137  27.976  16.580  13.603
39977W        W 5138  35.008  24.012   3.167
39978W        W 5139  23.818  24.664   3.290
39979W        W 5140  23.985   0.286  12.339
39980W        W 5141  13.403  29.415   4.029
39981W        W 5142   1.554  23.134   2.900
39982W        W 5143  30.360  16.898  12.022
39983W        W 5144  38.081   4.716   1.927
39984W        W 5145   0.027  40.350  14.379
39985W        W 5146   7.491  17.604  13.920
39986W        W 5147  10.733  38.941   4.451
39987W        W 5148  40.911  17.304  11.287
39988W        W 5149  25.106  21.651  14.881
39989W        W 5150  43.512   1.213   1.280
39990W        W 5151  41.058   5.800  12.945
39991W        W 5152  44.937  27.092   2.245
39992W        W 5153  11.766  21.325   2.783
39993W        W 5154  36.840  12.733  11.148
39994W        W 5155  14.062  19.334  14.720
39995W        W 5156  34.205  37.825   3.318
39996W        W 5157  21.003  43.489   4.205
39997W        W 5158  43.062  11.230   1.302
39998W        W 5159  43.241   4.613  13.511
39999W        W 5160  35.839  38.907   2.839
40000W        W 5161  43.890  42.980   3.245
40001W        W 5162  23.707  31.103   3.661
40002W        W 5163  13.687  42.161  12.793
40003W        W 5164  15.147  17.987  12.975
40004W        W 5165  27.828   3.306  13.681
40005W        W 5166  19.931   4.936  12.966
40006W        W 5167  20.546  14.175   2.919
40007W        W 5168  18.724  22.196  11.336
40008W        W 5169  36.191  29.109  12.036
40009W        W 5170  37.994   2.711  13.630
40010W        W 5171   8.403  33.950   0.615
40011W        W 5172  43.826  15.508   4.479
40012W        W 5173  25.074  33.072  12.574
40013W        W 5174   6.647   1.399  11.179
40014W        W 5175  18.522  25.071   3.133
40015W        W 5176   0.399  14.974   1.258
40016W        W 5177  10.097  23.712  14.918
40017W        W 5178  14.871   9.791   1.855
40018W        W 5179  22.188   7.387   4.404
40019W        W 5180  14.943  30.722   0.344
40020W        W 5181  34.914  13.679  13.072
40021W        W 5182  39.480   9.916   2.526
40022W        W 5183   5.314  28.685   2.141
40023W        W 5184  26.079  15.204   1.311
40024W        W 5185   1.391  24.408  12.492
40025W        W 5186  15.046  41.072   0.387
40026W        W 5187  23.754   9.598   4.155
40027W        W 5188   8.719  16.957   2.271
40028W        W 5189   2.899  21.767   0.866
40029W        W 5190  37.243  34.565   1.885
40030W        W 5191  21.322  22.534  14.781
40031W        W 5192  19.320   1.468   1.359
40032W        W 5193  28.244  37.921   5.033
40033W        W 5194  30.056   5.380  12.902
40034W        W 5195  37.385  31.995   3.430
40035W        W 5196   1.271  26.618  13.958
40036W        W 5197  15.392  26.414   2.683
40037W        W 5198  25.281   5.503   3.163
40038W        W 5199  41.039  41.643  13.214
40039W        W 5200   8.897  11.197   3.225
40040W        W 5201  26.239   9.035   2.751
40041W        W 5202   3.683  31.562  13.997
40042W        W 5203  16.684  17.484   0.482
40043W        W 5204  35.483  33.926   3.032
40044W        W 5205  38.590  33.402  13.603
40045W        W 5206   2.351  20.141  10.966
40046W        W 5207  42.983   7.214   2.772
40047W        W 5208   9.600  34.831  10.689
40048W        W 5209  44.929   4.769   3.889
40049W        W 5210  29.508   7.183   1.718
40050W        W 5211  10.411  32.723  13.482
40051W        W 5212  11.748   5.271  13.563
40052W        W 5213  14.411  21.070  14.253
40053W        W 5214  16.790  25.087   4.892
40054W        W 5215   4.746  28.983   0.259
40055W        W 5216  34.182  37.025   3.034
40056W        W 5217  32.335  38.328   4.029
40057W        W 5218   3.325   2.586   1.255
40058W        W 5219  33.524  19.693   4.543
40059W        W 5220  28.904  37.998   5.659
40060W        W 5221  19.248  33.336  12.853
40061W        W 5222  28.697  43.159  11.487
40062W        W 5223  43.132  28.486  14.274
40063W        W 5224   7.755  10.416  10.306
40064W        W 5225  18.092  40.094   0.285
40065W        W 5226  28.908  24.975   3.847
40066W        W 5227  10.296  22.398  11.113
40067W        W 5228  30.979   7.896   4.426
40068W        W 5229  32.908  40.529  13.827
40069W        W 5230  15.411  43.489   2.422
40070W        W 5231  12.321  24.150  14.425
40071W        W 5232  19.395  25.694  11.711
40072W        W 5233  31.622   8.357  10.447
40073W        W 5234  21.666  39.500   3.207
40074W        W 5235  28.372  33.315  13.301
40075W        W 5236  40.344   0.048   1.802
40076W        W 5237  15.609  10.365  13.549
40077W        W 5238  10.335  39.768  14.938
40078W        W 5239  22.693  20.194   2.023
40079W        W 5240   8.600  23.452  14.821
40080W        W 5241  39.918   7.069   4.714
40081W        W 5242  24.549  23.633  14.091
40082W        W 5243  24.862  22.087  13.932
40083W        W 5244  18.287  33.916   0.490
40084W        W 5245  43.242  28.457  13.616
40085W        W 5246  36.065  22.710  10.757
40086W        W 5247  30.980  12.592  12.348
40087W        W 5248  24.808  17.385   4.920
40088W        W 5249  26.974  26.884  13.790
40089W        W 5250  12.626  15.262  12.546
40090W        W 5251   6.814  28.264  11.501
40091W        W 5252  37.496  11.417   4.807
40092W        W 5253  39.776  11.406   1.734
40093W        W 5254  24.723  13.128  14.475
40094W        W 5255  29.210  11.424   1.341
40095W        W 5256  31.551  21.687   1.195
40096W        W 5257  43.922  29.386   2.088
40097W        W 5258  15.658   8.215  14.997
40098W        W 5259  22.995  33.567  11.895
40099W        W 5260  43.455  19.944  12.958
40100W        W 5261  29.438   7.657   3.596
40101W        W 5262  22.112  20.319   4.513
40102W        W 5263  37.843   7.898   0.267
40103W        W 5264  25.519   1.286   4.618
40104W        W 5265  16.877   8.379   3.844
40105W        W 5266  23.293   3.858   4.678
40106W        W 5267   1.111  44.161   2.592
40107W        W 5268  20.024  21.658   2.782
40108W        W 5269   2.140  36.992   5.379
40109W        W 5270  18.589   5.373  11.471
40110W        W 5271   3.872  15.256   1.469
40111W        W 5272  38.834  31.797  11.607
40112W        W 5273  20.725  13.743   0.744
40113W        W 5274  38.497  18.517   3.185
40114W        W 5275  23.342   7.829  12.928
40115W        W 5276  33.191  32.372  13.083
40116W        W 5277  35.710   7.401  11.847
40117W        W 5278  22.337  10.846   1.444
40118W        W 5279  41.892  39.920  10.946
40119W        W 5280  16.547  23.548  12.100
40120W        W 5281  42.965  12.639   3.217
40121W        W 5282  23.606   7.459   2.031
40122W        W 5283  16.666  24.735   0.019
40123W        W 5284  30.442  36.821   0.736
40124W        W 5285  19.833  38.045   0.533
40125W        W 5286   6.761  10.358  12.428
40126W        W 5287   2.505  44.036  13.360
40127W        W 5288  12.666  40.814  12.980
40128W        W 5289  35.068  42.431  12.594
40129W        W 5290  10.114   0.450  12.822
40130W        W 5291  10.305  32.576  11.747
40131W        W 5292   3.014  26.617  12.986
40132W        W 5293  19.123  26.027  13.452
40133W        W 5294   1.826  40.081  11.602
40134W        W 5295   4.601   3.314  13.810
40135W        W 5296  34.413  30.661   3.850
40136W        W 5297   7.695  34.392   3.637
40137W        W 5298  26.032  27.154  14.984
40138W        W 5299  16.097  35.507   2.847
40139W        W 5300  11.036  37.861   2.576
40140W        W 5301  17.793  10.388   1.297
40141W        W 5302  34.631  40.730   2.254
40142W        W 5303  38.011  41.870  12.527
40143W        W 5304  42.764  41.988  14.425
40144W        W 5305  17.783  33.087   2.823
40145W        W 5306  44.573  38.973  11.205
40146W        W 5307  22.497   5.299   0.987
40147W        W 5308  17.549  32.393  14.849
40148W        W 5309   6.866  37.142  10.431
40149W        W 5310  29.897   1.314  12.088
40150W        W 5311  30.251  27.590  14.006
40151W        W 5312  35.495  15.879  14.066
40152W        W 5313   7.919   5.170   1.974
40153W        W 5314  22.978  37.869   0.783
40154W        W 5315  36.176  40.082   0.329
40155W        W 5316  43.477  27.166  14.973
40156W        W 5317   0.369  20.014  11.918
40157W        W 5318   6.687  29.214   1.472
40158W        W 5319  37.638  34.147   3.717
40159W        W 5320  21.997  19.227  14.258
40160W        W 5321  37.682  29.109   0.301
40161W        W 5322  12.371  16.653  12.131
40162W        W 5323  18.059  44.184  11.486
40163W        W 5324   8.181  29.594   3.124
40164W        W 5325  25.031  44.817  10.649
40165W        W 5326  10.972  11.650   0.051
40166W        W 5327  44.942  26.579   2.871
40167W        W 5328  23.076  37.332  12.837
40168W        W 5329   0.746  15.301  11.639
40169W        W 5330  21.697   0.897  13.445
40170W        W 5331  17.021  12.707   1.435
40171W        W 5332  24.700  39.983  11.966
40172W        W 5333  19.482  13.095  14.906
40173W        W 5334  20.297  14.582  13.829
40174W        W 5335  27.828  36.491   3.169
40175W        W 5336  26.184  30.993   0.907
40176W        W 5337  30.206  38.067  12.764
40177W        W 5338  18.259  14.731  13.864
40178W        W 5339  29.468   6.309   0.083
40179W        W 5340   7.653   8.953   2.586
40180W        W 5341   4.253  11.556  11.313
40181W        W 5342  20.738  11.348  13.397
40182W        W 5343   1.711  44.521  14.452
40183W        W 5344  12.104  38.254  12.417
40184W        W 5345   9.622  27.743  12.381
40185W        W 5346  16.653  42.413  10.243
40186W        W 5347  23.303  30.489   3.102
40187W        W 5348  16.316  40.929  13.307
40188W        W 5349  41.793  13.259  12.141
40189W        W 5350  40.486  12.116  11.550
40190W        W 5351  20.752  28.852   3.324
40191W        W 5352  12.445  17.516  12.660
40192W        W 5353   6.446   7.573  12.613
40193W        W 5354   4.983  12.219  10.493
40194W        W 5355   2.282  31.324  13.449
40195W        W 5356   4.338  27.575   4.469
40196W        W 5357  12.889   4.392  13.016
40197W        W 5358  20.753  25.498   3.247
40198W        W 5359   8.889  22.526  10.746
40199W        W 5360   5.886   1.915  11.228
40200W        W 5361  24.270   2.298   3.139
40201W        W 5362  39.952  27.646  12.505
40202W        W 5363  27.039  34.311  10.582
40203W        W 5364  17.904  36.370  13.373
40204W        W 5365  38.782  40.475   0.210
40205W        W 5366  12.806  37.603  14.791
40206W        W 5367   5.615   0.556   4.133
40207W        W 5368  39.426  44.762  14.532
40208W        W 5369   4.797  27.859  12.002
40209W        W 5370  44.015  37.159   0.288
40210W        W 5371  17.179  16.804  14.349
40211W        W 5372  22.093  23.606  12.229
40212W        W 5373  43.305   8.674   2.108
40213W        W 5374   1.666   2.284   4.059
40214W        W 5375  27.937  15.088  10.685
40215W        W 5376  21.993  14.143  13.305
40216W        W 5377  27.328  38.330  12.538
40217W        W 5378  23.651  31.247   4.559
40218W        W 5379  16.824  11.219   4.019
40219W        W 5380  42.030  11.864  12.972
40220W        W 5381  22.245  19.451  11.108
40221W        W 5382  30.217  32.641   2.922
40222W        W 5383  42.547  14.238   4.766
40223W        W 5384  44.060  18.787  13.077
40224W        W 5385  26.622  17.292   3.709
40225W        W 5386  39.804  36.072  12.082
40226W        W 5387  18.715  13.396  14.541
40227W        W 5388  18.508   1.323  10.980
40228W        W 5389  28.649  38.864   0.939
40229W        W 5390  34.469  38.154   3.049
40230W        W 5391  26.462  11.610   2.283
40231W        W 5392  10.095  44.183  12.008
40232W        W 5393  41.610  28.475   4.292
40233W        W 5394   7.209  20.765   4.306
40234W        W 5395   5.473  27.540   0.025
40235W        W 5396  21.641  36.406  11.120
40236W        W 5397  36.542  43.451   0.413
40237W        W 5398  17.422  11.328  13.071
40238W        W 5399  38.513  24.050   3.932
40239W        W 5400   3.730  13.731   2.434
40240W        W 5401   5.899  43.023  13.076
40241W        W 5402  42.942  20.492   1.410
40242W        W 5403   9.655  21.214   2.210
40243W        W 5404   3.239   7.385  11.283
40244W        W 5405  30.177  32.911   2.356
40245W        W 5406  16.712  31.853  12.323
40246W        W 5407  15.012   3.283   1.556
40247W        W 5408  32.943   7.489   4.839
40248W        W 5409  36.047  40.007   5.055
40249W        W 5410  42.280  28.235  14.404
40250W        W 5411   7.878  35.048   3.206
40251W        W 5412  21.670  20.242   3.920
40252W        W 5413   7.012  23.182   2.323
40253W        W 5414  37.561  38.635   5.432
40254W        W 5415   2.903  36.115   2.387
40255W        W 5416   2.639  11.922   2.747
40256W        W 5417  16.317  26.705  14.479
40257W        W 5418  22.164  35.033   4.444
40258W        W 5419  25.990  21.486   4.025
40259W        W 5420  15.040  13.445   4.416
40260W        W 5421  29.934  35.918   1.602
40261W        W 5422   2.909  30.734   3.819
40262W        W 5423  24.590   6.161   0.756
40263W        W 5424  10.236  10.257  14.278
40264W        W 5425  21.973  42.529  14.635
40265W        W 5426  26.714  42.292  13.860
40266W        W 5427   1.439  43.461   3.293
40267W        W 5428  28.919   0.843  13.444
40268W        W 5429  19.106  27.415  14.112
40269W        W 5430  11.465  12.286  12.532
40270W        W 5431  10.760   9.935  13.587
40271W        W 5432  44.726  40.282   0.796
40272W        W 5433  19.754   6.599   5.038
40273W        W 5434  43.504   7.870   3.165
40274W        W 5435  12.766  11.209   2.724
40275W        W 5436  30.724   3.904   0.290
40276W        W 5437   2.300  24.954  12.513
40277W        W 5438  32.993  34.793  14.043
40278W        W 5439  39.750  43.406   4.097
40279W        W 5440  42.272  10.334   0.236
40280W        W 5441  24.647   3.749  12.814
40281W        W 5442  12.170  10.341  14.354
40282W        W 5443  34.768  14.278  10.786
40283W        W 5444   4.861  19.605   0.380
40284W        W 5445   5.303  21.707  13.200
40285W        W 5446   4.448  42.780  10.690
40286W        W 5447   8.932   8.267  12.136
40287W        W 5448  33.499  26.661   4.406
40288W        W 5449  34.586  28.549   3.684
40289W        W 5450  33.666  33.898   3.318
40290W        W 5451  28.610   6.913  12.410
40291W        W 5452  44.887  30.532   1.750
40292W        W 5453  42.284  24.508  10.818
40293W        W 5454  43.901  38.520   3.211
40294W        W 5455  10.852  34.579   1.177
40295W        W 5456  20.961  21.277   5.289
40296W        W 5457   2.123   1.732   2.736
40297W        W 5458  33.918  10.548  13.864
40298W        W 5459  19.871   0.365   2.698
40299W        W 5460  21.459  29.850  11.206
40300W        W 5461   3.404   1.410   3.359
40301W        W 5462  27.663  21.808   4.694
40302W        W 5463   6.196  38.352   1.797
40303W        W 5464  22.545  25.903  14.396
40304W        W 5465   8.783  23.032  10.734
40305W        W 5466   5.163  39.451  12.073
40306W        W 5467   3.327  40.366  14.961
40307W        W 5468   6.681  24.767  10.979
40308W        W 5469  39.922  21.251   2.338
40309W        W 5470  44.935  43.055   0.873
40310W        W 5471   6.226   5.072   2.909
40311W        W 5472   8.852  10.604   2.117
40312W        W 5473  33.494  30.657   3.630
40313W        W 5474   9.564  23.351   4.047
40314W        W 5475  24.850  40.854  11.482
40315W        W 5476  10.922  43.290  11.549
40316W        W 5477  19.352  36.023  12.025
40317W        W 5478  33.941   9.658  14.989
40318W        W 5479  27.658  41.365  12.397
40319W        W 5480  38.321   1.476   2.346
40320W        W 5481  30.054  17.743   3.839
40321W        W 5482  24.503  30.054  13.211
40322W        W 5483  11.206  19.881  12.694
40323W        W 5484  14.669  22.745   2.366
40324W        W 5485  12.194   9.248  10.703
40325W        W 5486   2.879  38.821   3.825
40326W        W 5487  28.155  29.943  11.243
40327W        W 5488  40.947  35.907  12.407
40328W        W 5489  27.948  30.997  11.494
40329W        W 5490   2.403   7.487  12.592
40330W        W 5491  22.533  29.006  11.932
40331W        W 5492  36.818   3.180   3.669
40332W        W 5493   8.680  15.024  14.906
40333W        W 5494  10.897   4.738   0.989
40334W        W 5495   8.334  16.091  12.569
40335W        W 5496  25.180  27.157   0.767
40336W        W 5497  10.831  36.189   4.333
40337W        W 5498  23.165   1.703   3.199
40338W        W 5499  26.006  30.778  14.352
40339W        W 5500  12.067   6.340   1.792
40340W        W 5501  29.786  21.520  10.302
40341W        W 5502  27.858  23.533  10.162
40342W        W 5503  26.583  19.256   2.412
40343W        W 5504   2.907  38.932   1.721
40344W        W 5505  12.821  18.922  11.054
40345W        W 5506  35.359  41.042   1.668
40346W        W 5507  30.909  11.256   0.793
40347W        W 5508  26.246   8.996  12.071
40348W        W 5509  21.289  34.418   1.286
40349W        W 5510   0.058   1.679  10.743
40350W        W 5511  31.054  12.907   3.333
40351W        W 5512   3.257  17.353   3.802
40352W        W 5513   5.340  23.241   2.811
40353W        W 5514  38.963  33.805   4.562
40354W        W 5515   5.246  36.838   0.046
40355W        W 5516   6.193   5.878  11.244
40356W        W 5517  12.350  23.523   1.360
40357W        W 5518   9.241   7.698  12.676
40358W        W 5519  19.685  29.876   3.667
40359W        W 5520  38.387  43.570  13.842
40360W        W 5521  30.909  24.219   3.275
40361W        W 5522  39.726   4.938   1.186
40362W        W 5523  21.151  11.498  12.438
40363W        W 5524  41.279  25.616   3.623
40364W        W 5525  23.052  17.204   2.214
40365W        W 5526  23.462   5.148   0.195
40366W        W 5527  22.556   0.814   3.477
40367W        W 5528  29.380  33.141   1.930
40368W        W 5529  10.776   7.323  12.331
40369W        W 5530   5.828  22.438   3.551
40370W        W 5531  30.192   3.443  12.282
40371W        W 5532  44.958  36.607  13.477
40372W        W 5533   7.365  14.630   4.387
40373W        W 5534  18.751   4.406  10.340
40374W        W 5535  29.206  33.391   3.193
40375W        W 5536  21.094  41.172  14.825
40376W        W 5537   3.552  29.720  11.928
40377W        W 5538  21.698  28.406  13.274
40378W        W 5539  38.294  37.481  10.964
40379W        W 5540  28.241  19.228  13.257
40380W        W 5541  15.096  20.904  11.858
40381W        W 5542  44.015  23.390   4.219
40382W        W 5543  36.465   0.847   3.682
40383W        W 5544  24.907   8.231  11.528
40384W        W 5545  14.030   7.853  10.698
40385W        W 5546  37.997  23.294   0.893
40386W        W 5547  19.552  15.203  13.902
40387W        W 5548   2.257  21.383  14.415
40388W        W 5549  34.257  42.745  12.540
40389W        W 5550  33.505  11.465   2.401
40390W        W 5551  36.889   4.966  10.703
40391W        W 5552   0.338  24.178  14.391
40392W        W 5553  34.974  37.575   4.139
40393W        W 5554  21.075  40.875  13.510
40394W        W 5555  34.818  30.621   2.992
40395W        W 5556   1.311  40.814   3.969
40396W        W 5557  17.072   8.770  10.998
40397W        W 5558  13.614  39.083  14.929
40398W        W 5559  17.883  31.125   1.759
40399W        W 5560  35.162  41.696  10.681
40400W        W 5561  28.864   8.877   3.929
40401W        W 5562  27.351  13.988  13.495
40402W        W 5563  37.142   4.721  11.138
40403W        W 5564   2.873  16.831   1.369
40404W        W 5565  19.803  38.409   3.680
40405W        W 5566  18.783  14.609   3.712
40406W        W 5567  38.296  23.593  14.314
40407W        W 5568  40.797  44.968  14.861
40408W        W 5569  40.251  22.749  11.237
40409W        W 5570   6.046  16.062   0.960
40410W        W 5571  37.111   1.865  12.933
40411W        W 5572  25.465  11.625   1.324
40412W        W 5573  39.507   3.935   2.258
40413W        W 5574  13.280  42.840  10.987
40414W        W 5575  16.562  25.545   2.178
40415W        W 5576   9.324  20.717   0.963
40416W        W 5577  39.057  43.234   1.200
40417W        W 5578  34.921   1.351   0.511
40418W        W 5579  14.857  21.743  11.444
40419W        W 5580  20.771  43.967   1.009
40420W        W 5581  42.960  32.938  12.610
40421W        W 5582  13.197  36.288   2.649
40422W        W 5583  31.165  21.281   1.149
40423W        W 5584  32.880  37.408  14.434
40424W        W 5585  12.775  43.809  14.982
40425W        W 5586  20.085  38.472   2.305
40426W        W 5587  33.086  28.665  13.428
40427W        W 5588  25.639   6.664   0.801
40428W        W 5589  35.436  33.599  11.942
40429W        W 5590   8.926   2.678  13.837
40430W        W 5591  20.512  34.823  13.877
40431W        W 5592   8.747  13.298  13.772
40432W        W 5593  20.914  29.527  14.087
40433W        W 5594  29.280  17.623   2.260
40434W        W 5595  16.867  21.624  14.191
40435W        W 5596  23.453   2.641   2.850
40436W        W 5597  24.607  44.460  12.370
40437W        W 5598   7.214  16.831  11.614
40438W        W 5599  34.189  24.595  13.800
40439W        W 5600   6.896  13.814   0.749
40440W        W 5601  17.212  29.162   1.860
40441W        W 5602  29.571  37.353  14.296
40442W        W 5603  28.056  19.177  14.214
40443W        W 5604   8.908  44.943   2.016
40444W        W 5605  12.363  10.690  13.571
40445W        W 5606  34.762  42.023  10.704
40446W        W 5607  30.262  19.136  12.351
40447W        W 5608   4.957  35.098  12.069
40448W        W 5609  22.749  30.730  14.866
40449W        W 5610  26.194  17.317  14.853
40450W        W 5611  36.038  43.051  13.869
40451W        W 5612   6.656  10.618   4.411
40452W        W 5613  42.992  32.105   3.207
40453W        W 5614  31.178  24.180   1.902
40454W        W 5615   3.428  15.316   1.881
40455W        W 5616   9.992  40.806  10.586
40456W        W 5617  27.273  21.170  10.649
40457W        W 5618  42.419   1.831  13.333
40458W        W 5619  36.060  42.836  14.799
40459W        W 5620  32.654  37.633   2.370
40460W        W 5621  29.183  34.869   0.888
40461W        W 5622  30.841  40.406  12.050
40462W        W 5623   4.877   1.607   2.191
40463W        W 5624  42.566  30.523  11.978
40464W        W 5625  43.808   5.149  12.908
40465W        W 5626   1.535  24.122  12.098
40466W        W 5627  23.426   4.281  11.597
40467W        W 5628  21.214  34.228  12.495
40468W        W 5629  43.591  15.056  11.061
40469W        W 5630  23.481   0.776  14.891
40470W        W 5631   1.634  40.350   3.652
40471W        W 5632   2.631  41.008  11.066
40472W        W 5633  34.305  25.917  11.083
40473W        W 5634  42.670  13.758  13.983
40474W        W 5635  18.688  42.186  13.025
40475W        W 5636  15.379  18.983  13.021
40476W        W 5637  43.460  23.423  13.075
40477W        W 5638  33.448  29.278   2.640
40478W        W 5639  25.510  11.128   3.139
40479W        W 5640  35.471   5.229  14.963
40480W        W 5641  35.393   1.139  13.792
40481W        W 5642  10.613  20.738   3.885
40482W        W 5643  31.371  44.039  11.164
40483W        W 5644   0.327  16.718  10.395
40484W        W 5645  28.062  25.911   0.078
40485W        W 5646  23.480  27.586  14.416
40486W        W 5647  21.500   6.273  13.855
40487W        W 5648  43.019  17.286   3.195
40488W        W 5649  33.137  22.262  11.004
40489W        W 5650  43.114   1.377  11.058
40490W        W 5651  18.053   4.613  13.430
40491W        W 5652  10.525  17.113  11.991
40492W        W 5653  42.891  28.688  12.051
40493W        W 5654  11.538  11.052  11.078
40494W        W 5655   5.680  31.700  12.040
40495W        W 5656   9.338  28.433   1.098
40496W        W 5657  17.542  33.980  12.467
40497W        W 5658  19.179  35.295  12.983
40498W        W 5659  19.618  29.540  14.343
40499W        W 5660   1.447   4.200   0.026
40500W        W 5661  26.455   3.100  10.865
40501W        W 5662   9.298  26.530   1.121
40502W        W 5663  19.142  29.186   3.485
40503W        W 5664  41.846   6.634   0.312
40504W        W 5665  10.430  13.653  13.812
40505W        W 5666  32.055  20.004   0.256
40506W        W 5667  16.332  37.244  14.948
40507W        W 5668  20.656  10.622  12.603
40508W        W 5669  20.895  16.942   1.447
40509W        W 5670  37.330  19.577  11.181
40510W        W 5671  36.352  35.189  14.595
40511W        W 5672  37.561  10.755  11.967
40512W        W 5673  13.296  23.307   0.866
40513W        W 5674  14.165  24.558   2.383
40514W        W 5675  27.865  26.847   1.785
40515W        W 5676  11.563  10.786  13.979
40516W        W 5677   1.478  35.478   0.881
40517W        W 5678  42.991  28.419  14.826
40518W        W 5679  13.614  12.394   4.584
40519W        W 5680  33.619   7.794  12.439
40520W        W 5681  42.871  17.142  14.454
40521W        W 5682  35.028  30.441  14.493
40522W        W 5683  14.599  43.870   2.813
40523W        W 5684  32.339  40.628   4.924
40524W        W 5685  34.113   7.205  12.986
40525W        W 5686  13.780   5.470   2.250
40526W        W 5687  18.258  33.330  12.078
40527W        W 5688  25.154  44.861  12.957
40528W        W 5689  35.384  37.679  14.506
40529W        W 5690  13.259  33.723  10.617
40530W        W 5691   4.554  40.604  12.819
40531W        W 5692   4.961  11.651  14.110
40532W        W 5693  35.132  15.092   2.075
40533W        W 5694  13.266  33.378  11.845
40534W        W 5695  35.540  36.214  14.302
40535W        W 5696  42.294  12.273   4.697
40536W        W 5697  41.860  19.928   3.494
40537W        W 5698   1.382  34.911   0.201
40538W        W 5699  28.761  16.096  11.517
40539W        W 5700  13.794  32.256   2.352
40540W        W 5701  42.017  29.423   4.204
40541W        W 5702  31.164  33.150   2.248
40542W        W 5703   6.305  35.293  13.825
40543W        W 5704  35.590  32.527   1.768
40544W        W 5705   2.422  36.905  10.026
40545W        W 5706   3.651  31.492   2.088
40546W        W 5707  29.655  11.842   4.531
40547W        W 5708  39.526   2.577  10.411
40548W        W 5709  25.286  44.309  10.671
40549W        W 5710  12.237   4.205   1.432
40550W        W 5711   8.852  11.238  11.205
40551W        W 5712  36.002  25.049   2.878
40552W        W 5713  34.396  40.030   9.781
40553W        W 5714  24.657  28.540   3.924
40554W        W 5715  33.560  23.723   3.287
40555W        W 5716  32.444  15.753   3.922
40556W        W 5717  11.828  32.031   3.796
40557W        W 5718   7.479   3.660  14.836
40558W        W 5719  34.242  37.983   4.730
40559W        W 5720  28.650  44.740   2.340
40560W        W 5721  40.630  39.743   1.981
40561W        W 5722   6.324   5.960   1.306
40562W        W 5723  41.598   1.560  14.252
40563W        W 5724  38.088  37.426  12.885
40564W        W 5725  27.507   3.339   2.334
40565W        W 5726  16.081  24.588  13.392
40566W        W 5727   1.332  16.379   1.899
40567W        W 5728   0.989   9.231   2.861
40568W        W 5729  40.588  24.909  11.691
40569W        W 5730   3.711  39.431   3.799
40570W        W 5731  40.047  18.700   4.750
40571W        W 5732  35.033  10.195   4.921
40572W        W 5733  33.295  27.389   1.827
40573W        W 5734  42.802  10.177  14.824
40574W        W 5735  23.066  36.366   1.246
40575W        W 5736   6.426  33.445   2.753
40576W        W 5737  23.633  41.468  14.010
40577W        W 5738  24.959  17.566   2.735
40578W        W 5739  12.246  22.676  14.330
40579W        W 5740  12.353   5.479  11.215
40580W        W 5741  20.062  21.952   3.746
40581W        W 5742  28.538  30.710   2.906
40582W        W 5743  13.110  38.878   0.456
40583W        W 5744   1.770  16.603  11.135
40584W        W 5745  16.454   7.584   0.482
40585W        W 5746  20.264  40.949  13.923
40586W        W 5747  20.833   7.324  10.649
40587W        W 5748  28.962  19.015   2.368
40588W        W 5749   3.651  26.971  13.830
40589W        W 5750  16.664  24.927  12.219
40590W        W 5751  17.907  23.541  12.017
40591W        W 5752   3.981  41.600  14.681
40592W        W 5753   1.448  41.864   3.354
40593W        W 5754  27.028  43.271   2.604
40594W        W 5755   1.018  36.499   0.355
40595W        W 5756  37.608  41.419   3.754
40596W        W 5757   6.933  42.347  11.191
40597W        W 5758  42.902   9.857  14.366
40598W        W 5759  33.666   7.516   0.009
40599W        W 5760  30.015  19.580  12.596
40600W        W 5761  30.587  15.816  11.198
40601W        W 5762  28.667  24.512  14.339
40602W        W 5763  32.744  31.624  14.433
40603W        W 5764  42.010   6.183   0.542
40604W        W 5765  15.474  13.815   1.256
40605W        W 5766  11.932   8.378   3.047
40606W        W 5767   0.771  10.896   5.426
40607W        W 5768  35.033  41.398   0.017
40608W        W 5769  43.578   7.548  11.434
40609W        W 5770  24.250  41.855  11.981
40610W        W 5771  38.503  18.405   3.939
40611W        W 5772  36.397  26.296   0.637
40612W        W 5773  15.836   6.832   4.720
40613W        W 5774  20.986  42.736  12.331
40614W        W 5775   9.261  22.166  13.291
40615W        W 5776  33.011  32.133  10.066
40616W        W 5777   6.090  44.974   2.637
40617W        W 5778  43.539  25.524  12.989
40618W        W 5779   5.310  11.399  12.811
40619W        W 5780  22.206  37.881   1.191
40620W        W 5781   2.146  31.402  11.640
40621W        W 5782  38.419  22.579   1.426
40622W        W 5783  26.331  14.619   3.376
40623W        W 5784  20.173  20.461  11.197
40624W        W 5785  35.911  23.784  14.689
40625W        W 5786  26.625  19.255   2.917
40626W        W 5787  19.263   3.459   4.601
40627W        W 5788  39.070  21.982  13.883
40628W        W 5789  40.553  16.736  10.982
40629W        W 5790  11.871   0.160  14.044
40630W        W 5791   9.800  43.044   4.131
40631W        W 5792   6.568  37.688  14.837
40632W        W 5793  41.282  14.830   0.665
40633W        W 5794  23.165  28.681   4.220
40634W        W 5795  22.938  44.019  12.288
40635W        W 5796  25.065  25.843  10.427
40636W        W 5797   4.714   4.338   0.843
40637W        W 5798  18.227  31.570   3.969
40638W        W 5799  19.561   8.713  14.479
40639W        W 5800   5.716  43.447   1.330
40640W        W 5801  39.346   5.373   0.758
40641W        W 5802  42.480  36.404  14.905
40642W        W 5803  23.220  33.496  12.936
40643W        W 5804  41.365   1.925  13.946
40644W        W 5805  35.887  17.569   2.301
40645W        W 5806  27.579   2.630   3.664
40646W        W 5807  25.659  20.178  12.584
40647W        W 5808  27.507  23.988  14.701
40648W        W 5809  30.127  44.240  12.794
40649W        W 5810  15.166  25.107  12.935
40650W        W 5811  20.577  25.955   4.078
40651W        W 5812  12.730  44.840   1.347
40652W        W 5813  42.323  21.176   1.862
40653W        W 5814  23.194  31.133  13.909
40654W        W 5815   4.232  13.584  11.610
40655W        W 5816   4.885  15.809   3.239
40656W        W 5817  44.739  42.832  13.514
40657W        W 5818  44.464  38.551   1.809
40658W        W 5819  15.151   9.140   2.464
40659W        W 5820   5.436  41.905   3.864
40660W        W 5821  13.765  17.053  13.811
40661W        W 5822   4.129  39.329   4.576
40662W        W 5823   6.720  37.178  14.911
40663W        W 5824  37.038  18.596   1.476
40664W        W 5825   5.506  28.089   3.723
40665W        W 5826  20.571   2.410   0.345
40666W        W 5827  14.386  44.983  14.126
40667W        W 5828  32.528  19.485   2.733
40668W        W 5829  35.380  16.227   1.197
40669W        W 5830  36.624  22.537  11.561
40670W        W 5831  32.016   0.373   1.812
40671W        W 5832   5.304  44.706   1.408
40672W        W 5833   3.975  41.781   3.711
40673W        W 5834  25.129  14.762  10.619
40674W        W 5835  19.259  28.693  14.987
40675W        W 5836   7.382   7.445   1.327
40676W        W 5837  43.025  12.106   2.412
40677W        W 5838  11.337  37.533  13.858
40678W        W 5839   9.790   0.647  14.016
40679W        W 5840  28.604  19.466   2.753
40680W        W 5841  12.779  36.609   2.513
40681W        W 5842   0.863  26.473   1.485
40682W        W 5843  39.514  31.480   2.777
40683W        W 5844  30.902  25.173   0.342
40684W        W 5845  34.933  30.594  13.079
40685W        W 5846  34.997   9.382  10.994
40686W        W 5847  44.906   0.434   0.486
40687W        W 5848  13.975  22.791  14.334
40688W        W 5849   3.332   6.234  12.992
40689W        W 5850  42.470  40.389  14.955
40690W        W 5851  34.809  15.129   0.829
40691W        W 5852   4.054  40.821   0.317
40692W        W 5853  40.074  31.001   0.971
40693W        W 5854   8.801  33.479  10.950
40694W        W 5855  27.182  37.906  13.447
40695W        W 5856  11.754  44.082   1.388
40696W        W 5857  28.709  40.464   1.375
40697W        W 5858   1.753  38.150   0.479
40698W        W 5859  28.551   8.588   1.474
40699W        W 5860   5.651  40.060   3.698
40700W        W 5861   5.646   1.469   2.680
40701W        W 5862   4.464  42.966  13.000
40702W        W 5863  40.950  34.846   3.094
40703W        W 5864  25.101   8.555   4.512
40704W        W 5865   2.710  25.107   1.385
40705W        W 5866  34.094  41.597  10.290
40706W        W 5867  27.174   6.833  14.283
40707W        W 5868  39.386   2.786  12.605
40708W        W 5869  42.784  32.383  10.732
40709W        W 5870   2.323  20.641  11.659
40710W        W 5871  24.703  16.579   0.393
40711W        W 5872  21.747   0.693   2.370
40712W        W 5873  18.051  33.977  13.519
40713W        W 5874  15.572   0.388   1.877
40714W        W 5875   3.811   9.664  13.090
40715W        W 5876  24.675   5.812   2.809
40716W        W 5877  15.596  12.012  12.008
40717W        W 5878   2.762  11.310  14.423
40718W        W 5879  17.752   7.987   3.125
40719W        W 5880  30.892   6.995   4.517
40720W        W 5881  34.356   5.276   4.520
40721W        W 5882   7.098  28.902  14.409
40722W        W 5883   2.009  17.524  10.594
40723W        W 5884  22.789  30.611   0.799
40724W        W 5885   6.955   4.843  12.588
40725W        W 5886  44.999   6.668  13.242
40726W        W 5887  43.875   7.208   1.643
40727W        W 5888  44.165  16.372  11.552
40728W        W 5889  42.652  14.774  12.099
40729W        W 5890  11.046  16.608  11.548
40730W        W 5891  16.178  43.014   9.885
40731W        W 5892  14.655  18.080  12.875
40732W        W 5893   3.860  44.773   1.330
40733W        W 5894  34.389   1.288  14.953
40734W        W 5895   5.516  44.388   0.523
40735W        W 5896  25.174  43.459  13.646
40736W        W 5897  36.905  41.884   0.928
40737W        W 5898  32.568  37.726  14.700
40738W        W 5899  11.259   9.220  11.374
40739W        W 5900  21.869   1.004   4.703
40740W        W 5901   7.654  26.166  14.402
40741W        W 5902   1.845   0.055  11.218
40742W        W 5903  20.677  20.680   1.364
40743W        W 5904  44.835  21.015  12.492
40744W        W 5905  26.478  36.350   3.293
40745W        W 5906  15.862  44.936  10.929
40746W        W 5907  39.815  32.077   3.649
40747W        W 5908  35.183  41.482  13.052
40748W        W 5909  27.704   8.794   1.280
40749W        W 5910  12.853   4.095   3.107
40750W        W 5911  40.447  10.360   2.325
40751W        W 5912  14.194  36.833  10.668
40752W        W 5913  40.306  42.385  13.537
40753W        W 5914  24.001  21.917  12.961
40754W        W 5915  33.495  37.097  11.963
40755W        W 5916  12.193  11.432  11.608
40756W        W 5917  21.299   7.213   4.345
40757W        W 5918  26.306  43.938   3.420
40758W        W 5919   3.980   3.230   3.092
40759W        W 5920   6.353  34.313   4.065
40760W        W 5921  31.856  28.213  12.672
40761W        W 5922  15.123  24.014   4.095
40762W        W 5923  32.071  29.426  10.755
40763W        W 5924   4.847  44.822   2.225
40764W        W 5925  40.942  36.284   4.785
40765W        W 5926  30.857  44.766   1.464
40766W        W 5927  32.676  41.391   3.892
40767W        W 5928  28.407  37.887   5.529
40768W        W 5929  25.111  25.159   3.702
40769W        W 5930  30.456   1.772  13.655
40770W        W 5931  38.279  41.213  13.410
40771W        W 5932   7.957  43.705   0.169
40772W        W 5933  35.410  10.980  13.367
40773W        W 5934  33.579   1.851  13.031
40774W        W 5935   1.237  14.893   0.768
40775W        W 5936  33.662  14.369   4.284
40776W        W 5937   7.044  33.217  11.947
40777W        W 5938  39.021  24.990  12.470
40778W        W 5939  20.306  19.621  13.951
40779W        W 5940  37.610   3.666  12.857
40780W        W 5941  34.175  15.111  11.495
40781W        W 5942  26.070   9.480  11.053
40782W        W 5943  22.723  26.493   3.147
40783W        W 5944  36.332  30.955  10.487
40784W        W 5945   3.921   5.334   4.282
40785W        W 5946  32.533   1.853  10.213
40786W        W 5947  26.946  37.826  14.292
40787W        W 5948   5.994  11.751   4.110
40788W        W 5949  11.702  15.021  11.083
40789W        W 5950  36.086   6.880  10.681
40790W        W 5951   8.542  24.759   3.471
40791W        W 5952  35.663  31.828   0.417
40792W        W 5953  30.918   7.188   0.336
40793W        W 5954  21.971  42.027   0.321
40794W        W 5955  37.424  17.737   4.107
40795W        W 5956  41.484  23.978   2.450
40796W        W 5957   4.378  28.255   0.036
40797W        W 5958  34.304  16.227  10.727
40798W        W 5959  32.544   4.970   0.220
40799W        W 5960   5.132   8.562   0.270
40800W        W 5961   8.943  17.347  14.924
40801W        W 5962  10.251  21.567   2.865
40802W        W 5963  44.860  30.866  12.515
40803W        W 5964  17.298   7.166  12.861
40804W        W 5965   6.155   5.112  12.765
40805W        W 5966  20.520  11.350   3.554
40806W        W 5967  16.874  43.498  14.740
40807W        W 5968   8.316  12.320   1.183
40808W        W 5969  23.455   6.692   4.469
40809W        W 5970   1.972  23.776  14.975
40810W        W 5971  10.826   9.907  12.626
40811W        W 5972  24.610  36.330  12.688
40812W        W 5973   2.761  34.045   2.657
40813W        W 5974  39.783  37.138   2.792
40814W        W 5975   5.211  21.153  14.974
40815W        W 5976  31.684  18.282  11.290
40816W        W 5977  26.702   7.726  13.475
40817W        W 5978   9.364  29.376   0.827
40818W        W 5979  31.778  35.897  11.076
40819W        W 5980  43.644   7.783  14.739
40820W        W 5981  24.018   1.835   2.605
40821W        W 5982  16.612  29.742   3.346
40822W        W 5983  22.959  42.541   2.343
40823W        W 5984  23.419  36.529   2.175
40824W        W 5985  42.289  37.887  11.944
40825W        W 5986  25.561  23.522   4.275
40826W        W 5987  27.830   3.079  14.557
40827W        W 5988   6.147  41.356  12.107
40828W        W 5989  10.643  41.507  14.961
40829W        W 5990  19.489  17.721   1.979
40830W        W 5991  13.565  26.867  12.112
40831W        W 5992  19.759   2.938   1.312
40832W        W 5993  19.767  12.568   3.164
40833W        W 5994  38.578  11.883   0.553
40834W        W 5995   5.682   4.805   4.087
40835W        W 5996  36.483  12.332  11.983
40836W        W 5997   9.441  28.513   4.067
40837W        W 5998  12.360  41.377   0.982
40838W        W 5999  13.360   3.423   0.002
40839W        W 6000  11.199  34.476  11.177
40840W        W 6001  42.332  20.587  14.832
40841W        W 6002   7.658  23.122  12.083
40842W        W 6003  43.320  30.679  10.684
40843W        W 6004   2.909  23.750  11.890
40844W        W 6005  32.010  44.666  12.535
40845W        W 6006  18.111  12.837  14.414
40846W        W 6007  20.000  12.132   3.309
40847W        W 6008  17.240   5.123  13.158
40848W        W 6009  18.481  15.391   1.874
40849W        W 6010  11.764  21.447   1.732
40850W        W 6011  13.339   4.966  11.445
40851W        W 6012   3.237  44.639  13.770
40852W        W 6013   6.206  34.451  14.194
40853W        W 6014  18.572  33.843   2.980
40854W        W 6015  12.646  31.571  14.235
40855W        W 6016  33.890  30.429   1.905
40856W        W 6017   0.797   8.678   3.697
40857W        W 6018   8.474  36.006   4.530
40858W        W 6019  40.077  21.974  14.097
40859W        W 6020  41.833  40.015  10.438
40860W        W 6021  33.186  10.454  13.368
40861W        W 6022  33.036   3.901  13.423
40862W        W 6023  30.567  41.247  14.873
40863W        W 6024  19.042   4.675   0.427
40864W        W 6025  40.932  11.989   5.000
40865W        W 6026   8.750  19.143   4.550
40866W        W 6027  38.123   8.186  11.653
40867W        W 6028   1.794  12.866   2.376
40868W        W 6029  24.604  22.304   3.530
40869W        W 6030  15.100  33.422  11.492
40870W        W 6031   9.305  21.536   0.485
40871W        W 6032  35.850  16.825  11.442
40872W        W 6033  19.669   3.399   2.216
40873W        W 6034  41.746  44.040  13.894
40874W        W 6035  21.972  21.061  14.511
40875W        W 6036  32.196   7.356  11.783
40876W        W 6037  17.186  35.201   4.923
40877W        W 6038  36.746  39.547   3.667
40878W        W 6039  35.016   7.749   4.269
40879W        W 6040  42.329  19.528   0.605
40880W        W 6041  34.710  44.826   1.294
40881W        W 6042  38.942  32.355   4.645
40882W        W 6043  19.004  36.936   0.249
40883W        W 6044  42.613  41.746   5.150
40884W        W 6045  21.646  44.866  13.969
40885W        W 6046  20.596  10.579   2.421
40886W        W 6047  16.561  22.827  11.141
40887W        W 6048   4.270  19.449  11.617
40888W        W 6049  36.793  35.893  11.530
40889W        W 6050  12.189  31.014   3.515
40890W        W 6051   2.670  14.117   0.767
40891W        W 6052  12.957  13.789   4.504
40892W        W 6053  33.481  16.423   1.310
40893W        W 6054   3.961  36.344   3.736
40894W        W 6055  39.291  34.785   2.742
40895W        W 6056  19.060  32.053   1.415
40896W        W 6057   4.371  36.179  12.063
40897W        W 6058  32.896  39.396   0.273
40898W        W 6059  44.956   5.995   0.369
40899W        W 6060  25.644  36.309   2.546
40900W        W 6061  42.587  15.626   4.127
40901W        W 6062  37.152   8.910  12.068
40902W        W 6063  29.443  23.408  12.158
40903W        W 6064  14.539  20.150  12.127
40904W        W 6065  39.637  40.429  13.546
40905W        W 6066  29.110   4.833  14.996
40906W        W 6067  36.624   8.510  14.530
40907W        W 6068  18.652   0.488   1.826
40908W        W 6069   1.597  30.497   3.284
40909W        W 6070  41.820  36.061   9.700
40910W        W 6071  21.161  17.875   4.422
40911W        W 6072  29.242  36.411  13.173
40912W        W 6073  20.930  10.380   4.578
40913W        W 6074   5.939   8.873  11.153
40914W        W 6075  19.856  16.629   3.579
40915W        W 6076   0.836  34.931   1.989
40916W        W 6077   2.291   8.595  10.563
40917W        W 6078  43.392   0.555   2.972
40918W        W 6079  23.184  20.961  11.525
40919W        W 6080  30.554  14.340   3.744
40920W        W 6081   0.239  18.554  12.473
40921W        W 6082  41.120  10.011  13.409
40922W        W 6083  17.817  13.318  10.518
40923W        W 6084  30.040  38.514   0.446
40924W        W 6085  11.618   6.411  12.135
40925W        W 6086  17.290  19.040  14.460
40926W        W 6087   3.480  17.672  14.527
40927W        W 6088  15.344  43.559   3.682
40928W        W 6089   6.653   2.944  11.451
40929W        W 6090   8.126  40.017  10.924
40930W        W 6091   2.964  17.585   0.995
40931W        W 6092  37.752  20.223  13.848
40932W        W 6093  16.881  23.833   1.173
40933W        W 6094  44.673  38.140  14.761
40934W        W 6095  36.429  30.837   3.834
40935W        W 6096  32.954   2.275   4.718
40936W        W 6097  25.234   0.190  14.465
40937W        W 6098  30.513  10.875  11.132
40938W        W 6099  26.827   9.037   4.633
40939W        W 6100  37.198  11.003   4.142
40940W        W 6101  38.579  38.415   1.768
40941W        W 6102   5.245  28.049   1.335
40942W        W 6103  20.241  43.074  13.479
40943W        W 6104   3.042  18.693  12.919
40944W        W 6105   3.390   9.036  13.301
40945W        W 6106  12.766  37.817  11.792
40946W        W 6107  33.984   4.525   4.203
40947W        W 6108  28.999  31.676   0.893
40948W        W 6109  41.008  30.398   2.089
40949W        W 6110  25.647  15.754   3.854
40950W        W 6111   0.017  15.626   1.711
40951W        W 6112  43.815  27.934   4.683
40952W        W 6113  17.827  17.260  11.685
40953W        W 6114   8.017  44.124  13.400
40954W        W 6115  41.505  27.004  10.377
40955W        W 6116  21.799  17.507   3.349
40956W        W 6117  11.134  22.993   0.525
40957W        W 6118  44.907   9.463  10.629
40958W        W 6119  16.691   8.569  14.429
40959W        W 6120  32.431  40.877   4.053
40960W        W 6121   8.812  19.212  13.037
40961W        W 6122   2.135  32.558   3.344
40962W        W 6123  37.248   3.646   1.021
40963W        W 6124  38.435  41.824  12.837
40964W        W 6125  37.933  18.669   0.271
40965W        W 6126  36.425  35.959   1.512
40966W        W 6127  33.276  26.099   2.253
40967W        W 6128  20.238  37.354   4.243
40968W        W 6129   6.722  23.682  13.588
40969W        W 6130  37.798  25.197   0.882
40970W        W 6131  16.300  43.088  14.333
40971W        W 6132  10.789  13.168   2.382
40972W        W 6133  17.015  15.158  13.842
40973W        W 6134  40.505   3.899   4.701
40974W        W 6135  24.783  17.826   4.597
40975W        W 6136  19.744  18.445  14.295
40976W        W 6137  24.563   9.543  10.796
40977W        W 6138  10.927  33.858   4.276
40978W        W 6139  15.697  18.791  11.185
40979W        W 6140  16.139  11.735   0.732
40980W        W 6141  38.600  44.529   0.240
40981W        W 6142   4.270  41.000   1.637
40982W        W 6143  41.007   8.262   0.021
40983W        W 6144  29.530  24.890  12.178
40984W        W 6145  30.038  29.159  14.771
40985W        W 6146  28.106  22.659   4.769
40986W        W 6147  37.147  40.861   2.789
40987W        W 6148  40.499  25.101   4.561
40988W        W 6149  12.924  41.098   4.804
40989W        W 6150  35.579  30.597  13.812
40990W        W 6151  42.502  22.109   4.051
40991W        W 6152  16.311   4.530  13.751
40992W        W 6153   9.968  35.813   5.242
40993W        W 6154  43.878  22.133   2.119
40994W        W 6155   8.528  28.057  14.036
40995W        W 6156   7.952  34.390   2.718
40996W        W 6157  32.553  16.394  10.810
40997W        W 6158   4.345  13.273  12.894
40998W        W 6159   0.930  40.901  11.113
40999W        W 6160   1.738  20.331  11.179
41000W        W 6161  27.878  18.091  12.937
41001W        W 6162  22.195  14.427   9.799
41002W        W 6163  26.048  16.806  12.566
41003W        W 6164  16.683  37.598  14.017
41004W        W 6165  37.406  30.995  11.674
41005W        W 6166   0.203  17.081   0.323
41006W        W 6167  19.669  11.154  12.676
41007W        W 6168   8.606  33.922  14.849
41008W        W 6169  27.556  44.552   1.634
41009W        W 6170   4.792  37.110   3.714
41010W        W 6171  40.476  11.848   1.381
41011W        W 6172  30.491  36.043  11.509
41012W        W 6173  41.965  15.254   3.768
41013W        W 6174  18.516  26.537   0.841
41014W        W 6175  39.348  20.490   4.431
41015W        W 6176  18.522   8.642  10.594
41016W        W 6177  30.980  30.156  14.825
41017W        W 6178  20.987  24.067   1.349
41018W        W 6179  28.376  24.256   2.372
41019W        W 6180  22.138  22.580  12.567
41020W        W 6181  12.281  40.627  14.311
41021W        W 6182  39.807  26.220   2.615
41022W        W 6183  16.449   2.724  12.060
41023W        W 6184  29.079  24.451  13.046
41024W        W 6185  31.499   1.422   4.141
41025W        W 6186  17.719  22.698   2.895
41026W        W 6187  37.898   2.824   0.383
41027W        W 6188  15.766   3.232  13.933
41028W        W 6189  22.613   3.468  12.012
41029W        W 6190  42.085   5.522  13.415
41030W        W 6191  14.875  33.599   3.704
41031W        W 6192   5.761  27.607  14.453
41032W        W 6193  29.455  39.256  14.469
41033W        W 6194  11.955  35.544  14.412
41034W        W 6195  32.110  24.056  13.579
41035W        W 6196  40.771  31.608   1.843
41036W        W 6197   7.635   3.795  11.110
41037W        W 6198  37.112  25.235  12.566
41038W        W 6199  43.075  21.345  14.520
41039W        W 6200  12.356  33.189  10.818
41040W        W 6201  15.298  40.085   1.335
41041W        W 6202  26.437  36.363  14.936
41042W        W 6203  11.837   1.086   0.811
41043W        W 6204  13.599  39.543   4.696
41044W        W 6205  27.321  19.606   0.802
41045W        W 6206  19.203  42.872   1.245
41046W        W 6207  44.806   6.285   2.333
41047W        W 6208  35.910   2.981   3.163
41048W        W 6209   4.259  40.354  10.684
41049W        W 6210  21.636  36.357   4.244
41050W        W 6211  15.305   0.792   3.204
41051W        W 6212  30.791  36.293   2.197
41052W        W 6213  23.236  43.314   2.777
41053W        W 6214   2.804  43.584  12.020
41054W        W 6215  14.079   6.796  12.652
41055W        W 6216  32.211  41.339   1.949
41056W        W 6217   0.861   3.443   0.115
41057W        W 6218  20.295  23.510   1.489
41058W        W 6219  29.713  13.938  12.825
41059W        W 6220   6.639  40.768  11.603
41060W        W 6221  10.989  29.043   4.025
41061W        W 6222  29.567  32.519   0.690
41062W        W 6223   0.437  15.292  14.856
41063W        W 6224  37.363  34.076   4.179
41064W        W 6225  29.027  28.982  11.502
41065W        W 6226   3.000  33.957   0.621
41066W        W 6227  42.357   9.167   0.877
41067W        W 6228  38.447   8.422   3.481
41068W        W 6229  43.540  12.333  12.577
41069W        W 6230   5.889  23.270  10.263
41070W        W 6231  31.645   6.918   2.300
41071W        W 6232  22.516  35.518  11.558
41072W        W 6233  43.755  39.357  13.396
41073W        W 6234  22.117  29.718  14.529
41074W        W 6235   9.136  21.831  14.433
41075W        W 6236  11.124  23.682   2.217
41076W        W 6237  18.702  22.638  11.635
41077W        W 6238   2.181  30.882  13.775
41078W        W 6239  34.244  39.115  14.833
41079W        W 6240  44.543  23.452   3.254
41080W        W 6241   1.746  35.751  13.304
41081W        W 6242  14.765  31.641   4.149
41082W        W 6243   0.834  12.131   2.274
41083W        W 6244  37.808   2.236   3.391
41084W        W 6245  19.672   7.368  13.289
41085W        W 6246  34.327  11.610   3.341
41086W        W 6247  20.196  41.869  14.067
41087W        W 6248  20.494  12.692  14.207
41088W        W 6249  39.516  27.103  13.817
41089W        W 6250  35.000  35.310  14.299
41090W        W 6251  40.913   6.276   3.099
41091W        W 6252  44.967  20.615  14.731
41092W        W 6253   2.255  13.825   1.087
41093W        W 6254  40.908  15.162   1.232
41094W        W 6255  40.935  32.421   1.229
41095W        W 6256  15.813   7.898   1.392
41096W        W 6257   1.540   4.989   0.745
41097W        W 6258   2.339  36.330   3.124
41098W        W 6259  29.768   7.319  14.020
41099W        W 6260  14.808   8.102   3.486
41100W        W 6261  14.792  27.797   3.672
41101W        W 6262  37.147   8.677   1.379
41102W        W 6263  10.299   1.814  13.139
41103W        W 6264  44.858  30.074  14.195
41104W        W 6265  37.479  34.579  13.925
41105W        W 6266  40.129  44.325   2.179
41106W        W 6267  17.275  36.397   0.540
41107W        W 6268   7.517   8.249   4.754
41108W        W 6269  36.225  10.533  13.468
41109W        W 6270  33.918  22.248  13.468
41110W        W 6271   8.684  34.905  10.705
41111W        W 6272  23.043  11.927   1.845
41112W        W 6273   5.074   6.350  13.458
41113W        W 6274  26.106  30.752  12.772
41114W        W 6275  34.629  36.064   1.950
41115W        W 6276  36.494  23.711  10.724
41116W        W 6277  44.570  44.511   0.659
41117W        W 6278  13.588  19.420  10.406
41118W        W 6279  40.060  15.565   1.646
41119W        W 6280  14.864  23.478   3.332
41120W        W 6281  13.146  27.596  11.615
41121W        W 6282   6.280  11.915  12.903
41122W        W 6283  41.811  19.210   4.979
41123W        W 6284  28.914   4.951   1.427
41124W        W 6285  24.727   2.701   3.775
41125W        W 6286  33.485   4.683   1.392
41126W        W 6287  37.088  37.995  10.529
41127W        W 6288  39.541  22.095  12.403
41128W        W 6289  39.690   8.655   1.590
41129W        W 6290   8.742  40.236   2.270
41130W        W 6291  25.715   2.002   1.241
41131W        W 6292   8.640  35.927  13.986
41132W        W 6293  16.877  19.159   1.691
41133W        W 6294  13.766  22.365   0.317
41134W        W 6295  13.746   3.757   0.929
41135W        W 6296  12.582  28.124   2.172
41136W        W 6297  25.300  29.096   2.514
41137W        W 6298  44.470  32.391  13.792
41138W        W 6299  35.256  15.098   0.195
41139W        W 6300  35.619   0.235   3.282
41140W        W 6301  17.714  44.031  14.710
41141W        W 6302  13.045  41.915  11.079
41142W        W 6303  34.164  24.889   1.346
41143W        W 6304   1.467  21.057  12.640
41144W        W 6305   8.921  25.716   3.632
41145W        W 6306   8.279  34.675  14.936
41146W        W 6307  29.409  22.464  13.332
41147W        W 6308  28.632  39.194  14.279
41148W        W 6309   2.857   3.603  11.556
41149W        W 6310   3.772  37.866  10.927
41150W        W 6311  26.094  25.457  11.174
41151W        W 6312  41.847  42.422   1.009
41152W        W 6313   8.368   7.917  11.614
41153W        W 6314  37.391  12.323  13.567
41154W        W 6315  24.875  15.567   2.782
41155W        W 6316  35.524  12.839  14.435
41156W        W 6317  15.131  33.447   0.226
41157W        W 6318  22.594  28.997  13.013
41158W        W 6319  41.023  16.795   0.793
41159W        W 6320  19.852   6.741  11.160
41160W        W 6321  29.682  41.552   1.443
41161W        W 6322  30.639  44.550  14.956
41162W        W 6323  30.936  26.051  10.798
41163W        W 6324  33.547  22.728   2.399
41164W        W 6325  20.533  42.106   0.397
41165W        W 6326   8.223  24.866  10.307
41166W        W 6327  24.682  34.439   4.107
41167W        W 6328  35.551  35.072   3.534
41168W        W 6329   0.041   9.414   1.484
41169W        W 6330   2.421  41.473  13.891
41170W        W 6331  33.007  27.408   4.905
41171W        W 6332  11.228  31.751   4.562
41172W        W 6333  22.149  37.423  10.309
41173W        W 6334  32.908  33.820   3.799
41174W        W 6335   0.552  14.837  11.693
41175W        W 6336   0.805   5.668  14.505
41176W        W 6337  34.367   6.211   3.475
41177W        W 6338  12.585  21.295  10.639
41178W        W 6339  44.343   7.230   0.734
41179W        W 6340  43.264  37.518  13.913
41180W        W 6341  25.658  42.986  11.942
41181W        W 6342   6.668   1.270   1.300
41182W        W 6343   4.878  13.005  13.598
41183W        W 6344   3.216  41.400  13.439
41184W        W 6345  24.896  34.469   1.485
41185W        W 6346  24.911  23.106  12.038
41186W        W 6347  23.329  27.385  11.635
41187W        W 6348   5.256  36.819   1.201
41188W        W 6349  33.660  32.395  12.847
41189W        W 6350  43.438  16.036  11.988
41190W        W 6351  28.977  36.836   2.199
41191W        W 6352  25.452  33.207   1.814
41192W        W 6353  41.756  37.026  12.345
41193W        W 6354   9.204   4.133  12.183
41194W        W 6355  28.756  28.075   5.007
41195W        W 6356  39.481  40.865   3.184
41196W        W 6357  32.661  12.780   1.928
41197W        W 6358  15.371  30.008   0.285
41198W        W 6359  23.140  27.536   3.578
41199W        W 6360  18.081  37.877  12.194
41200W        W 6361   6.839  22.735   3.277
41201W        W 6362  35.455  25.769  12.343
41202W        W 6363  23.156  18.577  12.018
41203W        W 6364  37.948  26.648  14.045
41204W        W 6365  40.810  23.234   1.495
41205W        W 6366  38.798  43.247  10.768
41206W        W 6367  24.615   8.679   5.299
41207W        W 6368   9.794  42.938   4.624
41208W        W 6369  28.369   7.766   2.779
41209W        W 6370  30.977  33.706   3.135
41210W        W 6371  13.725   8.865  10.431
41211W        W 6372  11.344  28.958  10.627
41212W        W 6373  43.893  43.316   0.790
41213W        W 6374  35.942  38.978   1.468
41214W        W 6375  41.119  36.761   4.689
41215W        W 6376  11.350  15.290  10.673
41216W        W 6377  31.529  21.538   3.711
41217W        W 6378  13.260  20.596  13.049
41218W        W 6379   7.367  21.307  10.612
41219W        W 6380  25.762  12.302   3.645
41220W        W 6381  27.073  39.748  12.069
41221W        W 6382  33.401  16.388   2.247
41222W        W 6383  18.181  32.820   4.535
41223W        W 6384  39.021   8.149   4.555
41224W        W 6385  20.126  35.529  12.730
41225W        W 6386   0.017  24.673  13.472
41226W        W 6387  44.637  12.766   5.652
41227W        W 6388  19.624   0.205  12.070
41228W        W 6389  30.502   2.641   1.809
41229W        W 6390  19.580  28.510   0.408
41230W        W 6391  13.060   4.020  14.409
41231W        W 6392   6.557  34.842  13.869
41232W        W 6393   7.815  15.776   2.556
41233W        W 6394  31.625  16.228   1.640
41234W        W 6395  33.560  17.826  10.244
41235W        W 6396  17.805  21.152  11.590
41236W        W 6397  27.304  10.651  12.439
41237W        W 6398  43.927  37.454  12.679
41238W        W 6399   8.380  34.391   4.996
41239W        W 6400   0.489   9.150   1.544
41240W        W 6401  23.991  10.852  12.182
41241W        W 6402  14.239   1.536  11.522
41242W        W 6403  38.242  43.312  14.304
41243W        W 6404  14.732   7.262  12.714
41244W        W 6405  32.566  40.567  10.886
41245W        W 6406  18.681  16.657  14.006
41246W        W 6407  35.163   7.452   0.029
41247W        W 6408  21.466  10.329  12.926
41248W        W 6409  25.070  35.337   3.665
41249W        W 6410  30.384  31.418  13.857
41250W        W 6411  30.592  40.168  11.658
41251W        W 6412   5.378  14.720   4.569
41252W        W 6413  35.897  21.770   4.705
41253W        W 6414  33.967   4.922  14.682
41254W        W 6415   0.382  25.023  13.566
41255W        W 6416  34.515   1.427  12.485
41256W        W 6417  13.335  24.988  14.880
41257W        W 6418  25.504  18.181  12.932
41258W        W 6419  12.115  31.938   2.625
41259W        W 6420  33.189  31.472   0.730
41260W        W 6421  22.840  35.856  12.439
41261W        W 6422  44.213   3.373  14.273
41262W        W 6423  44.094  31.537   4.412
41263W        W 6424  41.255  13.039  14.752
41264W        W 6425   6.125  22.760   2.500
41265W        W 6426  13.554  42.974  13.023
41266W        W 6427  31.466  32.232   1.677
41267W        W 6428   9.381  15.840  11.709
41268W        W 6429   7.179  40.044   3.778
41269W        W 6430  37.380   5.276   1.442
41270W        W 6431  12.162   4.219  11.584
41271W        W 6432   4.743  21.207   1.851
41272W        W 6433  16.315  30.600   2.265
41273W        W 6434   3.465  14.667   3.164
41274W        W 6435   0.244  21.759   1.428
41275W        W 6436  29.500  28.912   0.956
41276W        W 6437  24.785   4.908   1.185
41277W        W 6438   9.152  29.436  13.029
41278W        W 6439  41.574  39.478  11.536
41279W        W 6440  30.912   2.829   5.207
41280W        W 6441  34.794  28.433  10.993
41281W        W 6442  44.342   5.907  11.706
41282W        W 6443  42.509  27.504  11.077
41283W        W 6444  42.280   6.888   1.103
41284W        W 6445  23.418  20.997   0.710
41285W        W 6446  30.514  25.580  10.731
41286W        W 6447  19.062   3.800  14.216
41287W        W 6448  41.217  15.228  10.872
41288W        W 6449  43.343  35.817   0.272
41289W        W 6450  37.694  12.226  11.059
41290W        W 6451   4.423  29.848   0.438
41291W        W 6452  42.470   2.785   4.740
41292W        W 6453  25.914   5.632  11.520
41293W        W 6454   3.666  13.560   1.383
41294W        W 6455  17.250   8.320   2.309
41295W        W 6456   2.390  14.052   0.243
41296W        W 6457   9.100   3.635  13.009
41297W        W 6458  34.175  34.595   0.303
41298W        W 6459  40.922   6.064  11.172
41299W        W 6460  42.487  31.987   2.005
41300W        W 6461  25.711   9.366  11.558
41301W        W 6462  38.964  20.912  13.161
41302W        W 6463   3.817  16.110  13.616
41303W        W 6464  43.042  36.878  14.960
41304W        W 6465  25.884  15.225  10.819
41305W        W 6466  33.002  23.239   1.722
41306W        W 6467  33.559  28.461   0.929
41307W        W 6468  23.044  17.056   1.723
41308W        W 6469  21.028  23.198  12.182
41309W        W 6470  19.719  39.119  14.330
41310W        W 6471  17.611  33.929  10.297
41311W        W 6472   0.298   4.237  12.592
41312W        W 6473  41.803  37.693   0.660
41313W        W 6474   5.491   0.321  12.810
41314W        W 6475   2.689  39.816  12.664
41315W        W 6476  14.319  32.003  12.241
41316W        W 6477  42.630  37.100   1.304
41317W        W 6478  44.496  21.141  11.135
41318W        W 6479  27.254  14.295  13.998
41319W        W 6480  44.625  34.031   2.620
41320W        W 6481  20.340   8.070  11.866
41321W        W 6482  26.770  23.823   3.636
41322W        W 6483  22.768   4.627   3.356
41323W        W 6484  18.768  27.728  13.006
41324W        W 6485   2.177  25.964   2.757
41325W        W 6486  37.354  23.405   4.317
41326W        W 6487  42.115  13.844  11.524
41327W        W 6488   1.086  17.220   2.168
41328W        W 6489  44.185  13.347  10.226
41329W        W 6490  39.839  35.078   3.633
41330W        W 6491  21.810  24.253   0.790
41331W        W 6492  29.186  43.166   0.835
41332W        W 6493   7.294  27.915   0.238
41333W        W 6494  22.547  27.426  14.475
41334W        W 6495  31.009   5.472  14.874
41335W        W 6496  21.546  24.560  12.090
41336W        W 6497   5.243  36.002   2.222
41337W        W 6498   2.731  41.122   2.297
41338W        W 6499  14.816   5.391  12.157
41339W        W 6500   1.537  10.413  11.047
41340W        W 6501  23.570  43.439  11.223
41341W        W 6502  26.491   4.870  10.668
41342W        W 6503   6.249  37.968  14.399
41343W        W 6504  17.237   1.833   5.155
41344W        W 6505  40.296  42.929  13.895
41345W        W 6506   0.654   6.710   1.164
41346W        W 6507  36.014  36.579   0.560
41347W        W 6508  32.427  19.183   3.176
41348W        W 6509  20.246  43.097  10.168
41349W        W 6510  44.240  34.013  11.412
41350W        W 6511   9.631  11.929   2.703
41351W        W 6512  28.411  31.307   3.750
41352W        W 6513  28.790  22.956   0.423
41353W        W 6514   8.293  19.231  12.988
41354W        W 6515   3.188   7.741  10.914
41355W        W 6516  16.992   1.640  14.915
41356W        W 6517  33.371  25.083  12.926
41357W        W 6518  42.327   6.933  14.422
41358W        W 6519  13.913  26.965   3.339
41359W        W 6520  39.780   3.303   1.792
41360W        W 6521  31.169  42.830   2.117
41361W        W 6522  17.841  41.250  12.988
41362W        W 6523  34.607  25.646   3.147
41363W        W 6524  43.383  22.694   0.754
41364W        W 6525   4.834  20.121   0.293
41365W        W 6526  34.552   4.977  11.496
41366W        W 6527  20.153  23.414   4.912
41367W        W 6528   0.526  40.302   2.781
41368W        W 6529  28.049  36.580  12.971
41369W        W 6530   7.873  15.204   0.275
41370W        W 6531  28.909  33.325  13.923
41371W        W 6532  40.336  22.015   2.288
41372W        W 6533   9.331  42.219   4.358
41373W        W 6534  10.585  34.865   4.288
41374W        W 6535  22.897  32.810  12.985
41375W        W 6536  26.120  29.594   0.826
41376W        W 6537  35.478  21.255   1.272
41377W        W 6538  40.054   6.676   4.407
41378W        W 6539  43.849   3.747   4.958
41379W        W 6540  34.922   5.885   1.730
41380W        W 6541  12.117  42.716   0.030
41381W        W 6542   7.350  21.219  13.947
41382W        W 6543   1.953  37.968   1.950
41383W        W 6544  37.715   0.960  10.861
41384W        W 6545   8.502  12.706  14.890
41385W        W 6546  27.747  14.450  11.552
41386W        W 6547  17.159  24.010   3.103
41387W        W 6548  21.166  26.343   1.364
41388W        W 6549  19.221  16.557   0.489
41389W        W 6550  16.111  32.993   1.941
41390W        W 6551  40.457   4.508  11.882
41391W        W 6552  16.506  42.251   1.959
41392W        W 6553  28.700  21.155   3.845
41393W        W 6554   8.735  26.980  11.626
41394W        W 6555  41.882  32.931   0.080
41395W        W 6556  44.565  12.207  14.881
41396W        W 6557  12.048  35.208   3.316
41397W        W 6558  19.400  38.961  10.566
41398W        W 6559   7.368  21.011   0.423
41399W        W 6560  44.059  34.358   5.067
41400W        W 6561  11.836  42.946   1.933
41401W        W 6562  43.952  34.100   4.621
41402W        W 6563   2.713  29.611   0.372
41403W        W 6564  12.129  13.947   0.861
41404W        W 6565  11.275  24.177   2.110
41405W        W 6566   4.179  30.909   1.463
41406W        W 6567  26.960   8.958  12.885
41407W        W 6568  36.808  36.973   0.766
41408W        W 6569   1.911   5.418  13.820
41409W        W 6570   6.769  21.998  10.553
41410W        W 6571   3.760  11.880   4.689
41411W        W 6572  39.228   8.686   9.894
41412W        W 6573  37.944   8.744   4.261
41413W        W 6574  43.753  22.540  12.826
41414W        W 6575  15.607   6.585   0.180
41415W        W 6576  19.951   2.230  11.479
41416W        W 6577   4.857  35.631  10.615
41417W        W 6578   3.426  44.506   3.744
41418W        W 6579  16.862  11.721   4.959
41419W        W 6580  32.517  18.629   0.999
41420W        W 6581  36.498  32.563   0.831
41421W        W 6582  30.574   8.114  10.802
41422W        W 6583  14.260   0.459   1.129
41423W        W 6584  32.914  20.084   1.817
41424W        W 6585   2.945  24.613  10.817
41425W        W 6586   3.846  32.202  14.373
41426W        W 6587  26.081  17.032   1.304
41427W        W 6588  34.448  44.400  14.784
41428W        W 6589   6.944  30.104   0.438
41429W        W 6590  24.476  12.662  11.949
41430W        W 6591  30.414  35.837   3.698
41431W        W 6592  32.935  28.523   0.309
41432W        W 6593  27.142  25.056  13.863
41433W        W 6594  26.138  23.233  10.322
41434W        W 6595  43.891  12.320  12.137
41435W        W 6596  30.484  24.643  14.241
41436W        W 6597   7.490  35.069   0.780
41437W        W 6598  17.700  28.326   1.454
41438W        W 6599  21.811   0.167   0.285
41439W        W 6600  30.708  10.964  12.025
41440W        W 6601  26.143   3.259   5.005
41441W        W 6602  15.319  43.932   4.601
41442W        W 6603  30.346  31.004  14.149
41443W        W 6604  29.155  23.479  14.026
41444W        W 6605  26.992  27.402   1.215
41445W        W 6606  11.264  23.252   1.840
41446W        W 6607  16.041  25.685   0.839
41447W        W 6608  42.853   1.196  10.658
41448W        W 6609   9.202   2.459  10.662
41449W        W 6610  23.989  37.135  10.722
41450W        W 6611   6.512  25.719  13.442
41451W        W 6612  22.985  23.446  14.465
41452W        W 6613  20.075   7.304  12.985
41453W        W 6614  15.097   4.665   1.352
41454W        W 6615  31.405  13.298   1.899
41455W        W 6616  17.330  27.580  12.943
41456W        W 6617   5.457  35.541   2.156
41457W        W 6618  28.007   4.227   1.373
41458W        W 6619  40.783  29.691  10.688
41459W        W 6620  35.865  11.743   0.833
41460W        W 6621  38.884  33.839   2.826
41461W        W 6622  15.136  12.594  14.828
41462W        W 6623  39.140  42.407   4.528
41463W        W 6624  44.433   8.194  14.784
41464W        W 6625  23.076  26.045   0.057
41465W        W 6626  25.022   1.169  11.185
41466W        W 6627  42.661  19.696  13.384
41467W        W 6628  26.365  18.771   2.221
41468W        W 6629  11.006  41.131  14.841
41469W        W 6630  13.304  32.145  11.494
41470W        W 6631  24.658  33.496  14.727
41471W        W 6632  29.131  10.467   1.337
41472W        W 6633  22.547  44.744  14.619
41473W        W 6634  12.761   1.576   0.846
41474W        W 6635   2.536  28.613   4.592
41475W        W 6636  40.252  24.719   3.629
41476W        W 6637   3.404   8.924   4.044
41477W        W 6638  25.030   5.445  14.327
41478W        W 6639  38.995  37.007   0.028
41479W        W 6640   5.992  31.141  10.317
41480W        W 6641  33.144   7.836   1.707
41481W        W 6642   3.676  24.141   0.412
41482W        W 6643  42.197  20.747  12.983
41483W        W 6644  43.071   6.395  11.910
41484W        W 6645   1.167  27.648  12.867
41485W        W 6646  38.127  28.340   4.175
41486W        W 6647  38.375  19.679  12.008
41487W        W 6648  41.577  19.100   2.807
41488W        W 6649  18.216  39.201   2.669
41489W        W 6650   0.421  11.492   5.109
41490W        W 6651  42.295  16.120  11.496
41491W        W 6652   9.229  18.865   0.317
41492W        W 6653  22.160   7.999   0.873
41493W        W 6654  30.412  22.659  12.638
41494W        W 6655   7.078  24.512  11.217
41495W        W 6656  24.141  26.432   1.782
41496W        W 6657  43.095  16.667   4.561
41497W        W 6658  33.438  30.070  13.872
41498W        W 6659  32.956  21.111  12.902
41499W        W 6660   2.574  11.585  11.593
41500W        W 6661  41.901   5.740   4.130
41501W        W 6662  30.507  19.560   4.734
41502W        W 6663  28.185  43.645   1.392
41503W        W 6664  25.204   0.379  11.864
41504W        W 6665  36.056  29.708   1.810
41505W        W 6666  36.557  24.407   2.772
41506W        W 6667  30.973  25.907  12.113
41507W        W 6668   1.636  12.775   4.352
41508W        W 6669  41.773  27.860   0.756
41509W        W 6670  24.601  36.040  11.924
41510W        W 6671   9.776  35.021   4.763
41511W        W 6672   8.639  31.967  10.934
41512W        W 6673  34.414   1.973   3.570
41513W        W 6674  27.219   0.433  14.289
41514W        W 6675  41.819  28.662  13.033
41515W        W 6676   3.002  25.239  13.182
41516W        W 6677  18.404  44.427  10.172
41517W        W 6678   2.517  38.014   1.280
41518W        W 6679  32.225   0.028   2.780
41519W        W 6680   6.289   7.861   1.853
41520W        W 6681   6.155  18.647  13.871
41521W        W 6682  38.450  29.427   1.386
41522W        W 6683   6.941   5.908  11.637
41523W        W 6684  14.179  24.206  14.071
41524W        W 6685   0.800  24.689  11.383
41525W        W 6686  11.957  18.709   0.055
41526W        W 6687  44.938  10.848  13.261
41527W        W 6688   7.866  24.634  11.978
41528W        W 6689  19.290  14.580  10.261
41529W        W 6690  35.347  41.950  13.257
41530W        W 6691  39.983  39.073  12.006
41531W        W 6692  34.016  40.706   0.927
41532W        W 6693   8.360  15.223  10.388
41533W        W 6694  20.958  29.031   2.107
41534W        W 6695   8.878  20.766   3.776
41535W        W 6696  13.161  35.418   2.685
41536W        W 6697  27.446   5.820   3.612
41537W        W 6698  20.040  24.974   3.987
41538W        W 6699  25.604   8.339  12.703
41539W        W 6700  38.574   8.224  11.441
41540W        W 6701  17.051  23.714  14.657
41541W        W 6702  12.107  35.637   4.311
41542W        W 6703  42.421  39.139  12.394
41543W        W 6704  31.000  11.279  14.820
41544W        W 6705   8.133  27.468   1.253
41545W        W 6706  15.809  36.070   0.387
41546W        W 6707   8.787  19.458  12.570
41547W        W 6708  36.508   0.594   3.109
41548W        W 6709  27.765  29.890  11.578
41549W        W 6710  26.498  34.968  12.880
41550W        W 6711   7.402  13.734   2.647
41551W        W 6712   1.878  21.286  12.845
41552W        W 6713  41.201  27.755  11.073
41553W        W 6714  27.225   7.901   1.786
41554W        W 6715  33.217  31.374  11.602
41555W        W 6716   6.119  24.109   3.148
41556W        W 6717  32.187  41.840  11.694
41557W        W 6718  43.300  29.529   4.628
41558W        W 6719   1.751  30.169   2.281
41559W        W 6720   5.966  37.095   3.510
41560W        W 6721   5.189   9.270   0.858
41561W        W 6722  28.546  34.511  12.680
41562W        W 6723  14.166  23.185  13.495
41563W        W 6724   1.403   9.514   4.470
41564W        W 6725  17.301   1.709   0.736
41565W        W 6726  25.314   4.380   1.812
41566W        W 6727  15.333   8.369   2.184
41567W        W 6728   0.509  28.751   3.955
41568W        W 6729  12.939  26.632   0.628
41569W        W 6730   4.284  40.108  13.854
41570W        W 6731  40.249  38.117  11.571
41571W        W 6732  32.950  38.705  12.786
41572W        W 6733  44.279  11.782  14.934
41573W        W 6734   9.641  38.737   4.945
41574W        W 6735  30.951  24.180  11.922
41575W        W 6736  40.873  12.307  13.215
41576W        W 6737  16.684   9.175   3.425
41577W        W 6738  34.896  31.460   4.809
41578W        W 6739  20.145  11.011   0.899
41579W        W 6740  10.958  17.273  12.553
41580W        W 6741  44.431   6.358  14.497
41581W        W 6742  39.044  17.761   4.524
41582W        W 6743  25.272  24.042  11.496
41583W        W 6744  28.905  36.595   0.301
41584W        W 6745  28.630   8.110  10.913
41585W        W 6746  35.380  32.027  13.341
41586W        W 6747   2.308  33.691  11.016
41587W        W 6748  40.425  33.978   1.751
41588W        W 6749  31.446  32.450   4.798
41589W        W 6750   5.452   6.925  13.680
41590W        W 6751  38.341  35.798  14.808
41591W        W 6752  13.122  38.527   0.873
41592W        W 6753   9.200  21.715   4.077
41593W        W 6754   4.378  17.042   0.059
41594W        W 6755   7.652  31.077   4.789
41595W        W 6756  21.321   2.424  14.228
41596W        W 6757  37.606  37.390  12.525
41597W        W 6758  37.792  36.127  10.062
41598W        W 6759  33.595  14.667   0.843
41599W        W 6760   8.711   2.592  10.687
41600W        W 6761  12.509  29.490  11.234
41601W        W 6762  16.479  23.679  11.614
41602W        W 6763  17.631  20.203  12.151
41603W        W 6764  24.230   1.148  10.661
41604W        W 6765   6.799  28.065  11.997
41605W        W 6766   7.305  41.249  14.934
41606W        W 6767  43.875  44.991  12.423
41607W        W 6768   3.867   1.227  11.135
41608W        W 6769   7.255  38.580   2.760
41609W        W 6770  23.510  14.735  13.792
41610W        W 6771  29.481   2.655  12.099
41611W        W 6772   6.248  19.431  12.444
41612W        W 6773  43.736  33.856   0.116
41613W        W 6774  11.308  17.595   3.680
41614W        W 6775  16.133  21.996   4.286
41615W        W 6776   8.485   5.998   3.697
41616W        W 6777   4.749  41.820   1.475
41617W        W 6778  42.483  35.659  11.448
41618W        W 6779  26.215  25.688  13.006
41619W        W 6780   2.261  18.297  10.974
41620W        W 6781  14.664  12.625   3.187
41621W        W 6782  27.519  26.034  11.250
41622W        W 6783  36.028   9.350   3.379
41623W        W 6784  30.348  23.151   1.381
41624W        W 6785  23.904  42.351  14.180
41625W        W 6786  12.985  21.806   2.590
41626W        W 6787  12.796  44.027  11.363
41627W        W 6788  14.924  36.414  11.981
41628W        W 6789  37.035  43.240  11.941
41629W        W 6790  24.983  32.538   1.173
41630W        W 6791  18.507   2.411  13.469
41631W        W 6792  11.226   6.126  11.524
41632W        W 6793  30.084  12.555   1.949
41633W        W 6794   1.943   0.829   0.012
41634W        W 6795   0.914  16.389   2.687
41635W        W 6796  42.442  22.432   1.151
41636W        W 6797  24.066  19.576   2.831
41637W        W 6798   1.403  40.263  12.429
41638W        W 6799  25.363  32.172   4.201
41639W        W 6800  22.100  38.778   3.285
41640W        W 6801   9.799  29.588  12.042
41641W        W 6802   6.807  16.110   1.789
41642W        W 6803  43.063  32.905  11.726
41643W        W 6804  32.488  22.975  14.247
41644W        W 6805  33.997  29.146  10.435
41645W        W 6806   9.794  16.033   3.874
41646W        W 6807  20.889  41.983   4.008
41647W        W 6808   9.854  33.945  11.817
41648W        W 6809  42.427  17.197  12.133
41649W        W 6810   7.679  33.594   2.224
41650W        W 6811   7.143   6.893   3.183
41651W        W 6812  43.043  15.143  13.549
41652W        W 6813  14.321  37.354   0.896
41653W        W 6814  24.264   5.835  13.765
41654W        W 6815  33.798  43.429  11.083
41655W        W 6816  38.925  43.654   2.894
41656W        W 6817   0.165  14.834  13.018
41657W        W 6818   9.640   7.891  12.422
41658W        W 6819  16.300  26.494  12.120
41659W        W 6820  17.532  15.935  10.315
41660W        W 6821  35.340  21.054   1.740
41661W        W 6822  36.992  32.127  14.786
41662W        W 6823  37.119   7.774   1.308
41663W        W 6824  19.672  28.420  14.826
41664W        W 6825  21.708  16.929  11.817
41665W        W 6826  10.113   7.513  10.808
41666W        W 6827  28.216  37.212  11.180
41667W        W 6828  27.087   6.648  12.615
41668W        W 6829   0.292   5.885  12.495
41669W        W 6830  40.033  24.300  13.083
41670W        W 6831  12.565  33.540   3.640
41671W        W 6832   7.764   6.986   0.930
41672W        W 6833  28.158  41.606   4.562
41673W        W 6834  39.480  43.780   3.207
41674W        W 6835  40.791   6.398   4.895
41675W        W 6836  32.379  14.881  10.540
41676W        W 6837  17.085  12.245   5.192
41677W        W 6838  27.945  28.617   3.736
41678W        W 6839  43.967  39.454  13.862
41679W        W 6840  26.961  31.022  13.807
41680W        W 6841  43.932  32.444  11.679
41681W        W 6842  13.261  33.921   0.531
41682W        W 6843  41.936  30.130  10.460
41683W        W 6844  44.594  34.059   1.726
41684W        W 6845  36.949  37.303   4.097
41685W        W 6846  14.654   0.355   2.404
41686W        W 6847  18.759   3.311   0.462
41687W        W 6848  35.848  31.893   0.977
41688W        W 6849  27.547  36.943   0.422
41689W        W 6850   5.398  44.557  11.065
41690W        W 6851  26.893  27.733  13.396
41691W        W 6852  16.883  17.349  11.731
41692W        W 6853  40.070   9.312   4.130
41693W        W 6854  24.627  12.241  13.785
41694W        W 6855  41.503  31.453  12.248
41695W        W 6856  22.197  37.035   2.688
41696W        W 6857  13.916  16.839  14.273
41697W        W 6858  14.466  26.055   2.471
41698W        W 6859  16.708  29.680   0.617
41699W        W 6860   9.380  21.486  13.587
41700W        W 6861   6.691  32.992   2.700
41701W        W 6862   7.894   9.341   4.578
41702W        W 6863   4.840  31.243  10.207
41703W        W 6864  31.981  32.017   3.276
41704W        W 6865   7.603  19.265   2.725
41705W        W 6866  41.287   8.718   4.363
41706W        W 6867  31.351  16.194   1.216
41707W        W 6868  27.102  12.469   4.953
41708W        W 6869  22.410  28.927  12.428
41709W        W 6870  11.651  34.460  10.653
41710W        W 6871   8.416   7.030   1.835
41711W        W 6872   8.707  42.904  14.284
41712W        W 6873  32.446  43.041  11.143
41713W        W 6874  25.407  40.579   0.815
41714W        W 6875  20.015  41.774  13.532
41715W        W 6876  22.695  14.077  14.022
41716W        W 6877  12.690  19.274  12.447
41717W        W 6878  36.081  13.399   1.938
41718W        W 6879  20.222  24.523   0.310
41719W        W 6880  37.352  33.996  11.617
41720W        W 6881  17.097  38.390   2.639
41721W        W 6882  42.780  23.236   3.040
41722W        W 6883   0.369  29.487  14.809
41723W        W 6884  13.283  12.179  14.226
41724W        W 6885  15.269  31.822   2.788
41725W        W 6886  26.874  11.185   2.208
41726W        W 6887  32.511  12.723  10.767
41727W        W 6888  21.223   3.076   5.326
41728W        W 6889  24.197  41.962   2.320
41729W        W 6890  42.556  24.604   4.248
41730W        W 6891  22.254  16.010   5.320
41731W        W 6892  36.434  13.062  11.090
41732W        W 6893  24.909   9.346   4.884
41733W        W 6894  12.066  44.342   0.892
41734W        W 6895  40.453   6.929  14.869
41735W        W 6896  27.470   0.488   2.682
41736W        W 6897  22.965  37.300  13.388
41737W        W 6898   6.403  12.432   3.656
41738W        W 6899  32.415  25.965   3.733
41739W        W 6900  42.655  28.103  11.622
41740W        W 6901  11.464  39.972  13.591
41741W        W 6902  35.600  44.575   4.108
41742W        W 6903   8.449  20.053  12.317
41743W        W 6904  33.244  36.901  10.868
41744W        W 6905  24.509   1.545   3.171
41745W        W 6906  37.988  11.205   3.567
41746W        W 6907  42.124   3.884   2.829
41747W        W 6908  25.221  28.576  13.539
41748W        W 6909   3.202  35.903  11.483
41749W        W 6910   5.670  43.956   2.713
41750W        W 6911  13.734   1.813   4.423
41751W        W 6912  36.168  28.953   3.758
41752W        W 6913  25.247  21.946  11.172
41753W        W 6914   7.929  33.665  13.358
41754W        W 6915  34.931  34.024  13.423
41755W        W 6916  30.313  34.543   0.717
41756W        W 6917  42.449  26.471   1.415
41757W        W 6918   7.050  27.819  11.611
41758W        W 6919  14.031   7.882   0.450
41759W        W 6920  43.684  32.349   3.352
41760W        W 6921  23.129  15.152  10.576
41761W        W 6922  31.065   4.264   1.847
41762W        W 6923  20.609  10.706   3.942
41763W        W 6924  13.064   3.114   0.926
41764W        W 6925  31.621  20.391   1.321
41765W        W 6926  39.956  44.470   0.781
41766W        W 6927  29.395   1.069  14.841
41767W        W 6928  14.783  20.178   2.706
41768W        W 6929   3.305  16.887  10.125
41769W        W 6930  13.741  35.588  12.444
41770W        W 6931  43.510  14.238  10.729
41771W        W 6932  29.295  18.618   0.046
41772W        W 6933  28.541  25.962  14.350
41773W        W 6934  37.892   5.958   0.500
41774W        W 6935  28.476   7.975  12.519
41775W        W 6936  18.179  13.655  10.731
41776W        W 6937   1.705  33.498  13.205
41777W        W 6938  18.517  37.884  13.847
41778W        W 6939  29.990  28.208  10.755
41779W        W 6940  29.234  36.487  14.068
41780W        W 6941   7.949  35.954  10.578
41781W        W 6942  18.274   0.106  12.389
41782W        W 6943  16.762  14.608   4.533
41783W        W 6944   6.738  36.192   1.278
41784W        W 6945  15.112  16.832  10.059
41785W        W 6946  15.189  32.650   2.318
41786W        W 6947  15.018  22.419   1.920
41787W        W 6948  26.747  34.080   2.780
41788W        W 6949  42.332  40.214   0.416
41789W        W 6950   4.883  21.159  11.982
41790W        W 6951  21.050  33.200  13.317
41791W        W 6952  28.003  31.258   4.080
41792W        W 6953  18.545  13.935  14.902
41793W        W 6954  34.388  12.366   3.984
41794W        W 6955  42.431  16.250  11.994
41795W        W 6956  37.965  29.377   0.691
41796W        W 6957   5.346  18.979   3.029
41797W        W 6958  43.498  42.493  12.651
41798W        W 6959  35.078  26.268   0.280
41799W        W 6960  42.410  36.473   2.575
41800W        W 6961  27.037  28.783   4.198
41801W        W 6962  44.476   7.233   2.282
41802W        W 6963   6.455  19.093   4.462
41803W        W 6964  17.961  23.161  10.674
41804W        W 6965  13.568  25.378  12.302
41805W        W 6966  43.058  14.263   4.734
41806W        W 6967   6.711   3.435   2.040
41807W        W 6968   7.216  12.221   2.254
41808W        W 6969  42.620  10.654   0.025
41809W        W 6970   7.785  36.448   3.649
41810W        W 6971  18.619  24.322  11.985
41811W        W 6972  24.053   0.223   3.747
41812W        W 6973  27.224  39.941  10.633
41813W        W 6974   6.813   8.405   0.402
41814W        W 6975  25.791   3.422   0.947
41815W        W 6976  28.158  12.383  14.775
41816W        W 6977  13.333  44.934   0.030
41817W        W 6978  22.369  18.949   4.145
41818W        W 6979   9.508  24.952  13.325
41819W        W 6980  22.265   1.952  14.395
41820W        W 6981  23.746  44.877   1.271
41821W        W 6982  37.821  20.168   4.265
41822W        W 6983  34.393  28.417   1.238
41823W        W 6984  22.176  26.754  12.926
41824W        W 6985  29.561   3.360   4.628
41825W        W 6986  25.281  16.571  11.948
41826W        W 6987  27.606  24.599  10.859
41827W        W 6988   6.144  13.068   2.828
41828W        W 6989  40.445  19.620   1.796
41829W        W 6990   8.569  35.294   3.874
41830W        W 6991  43.346   6.544   4.630
41831W        W 6992  32.977  18.143  12.555
41832W        W 6993   5.351  43.854   2.186
41833W        W 6994  35.509  32.057  13.851
41834W        W 6995  43.169  15.554   4.947
41835W        W 6996  38.063   1.824  13.501
41836W        W 6997   7.851   2.479   3.190
41837W        W 6998   1.001   8.215   2.197
41838W        W 6999  40.105  24.458  10.713
41839W        W 7000  42.319  26.589   4.576
41840W        W 7001  41.775  27.440  10.232
41841W        W 7002  26.188  42.995   3.601
41842W        W 7003  11.237  40.761   0.650
41843W        W 7004  39.522  31.068   0.676
41844W        W 7005  30.026   5.968   4.347
41845W        W 7006   6.385  25.779  12.595
41846W        W 7007  17.150   4.272  14.861
41847W        W 7008  40.092  20.184  12.017
41848W        W 7009  36.910  37.045  10.433
41849W        W 7010  31.094  21.772   0.979
41850W        W 7011  43.005   4.296   3.838
41851W        W 7012   9.075  32.081  14.204
41852W        W 7013  36.077  42.769   2.987
41853W        W 7014   0.596  13.292  14.351
41854W        W 7015  15.353  38.980  12.449
41855W        W 7016  23.075  17.150   4.209
41856W        W 7017  33.934  15.030   3.742
41857W        W 7018   3.741   2.303   5.155
41858W        W 7019  27.676  44.230  12.013
41859W        W 7020  31.394  44.770  13.930
41860W        W 7021  28.977  24.917   2.766
41861W        W 7022  35.621  37.518   1.929
41862W        W 7023  39.508  20.495   0.381
41863W        W 7024  17.318  23.398   1.832
41864W        W 7025  34.334  37.769   4.272
41865W        W 7026  26.419  33.610  10.727
41866W        W 7027  16.194  37.528   1.260
41867W        W 7028  43.688   6.328  13.368
41868W        W 7029   9.703  15.660   4.634
41869W        W 7030  40.021  18.824   1.159
41870W        W 7031  30.440   4.403   4.519
41871W        W 7032   2.483  16.149   4.082
41872W        W 7033   4.191   8.187  13.259
41873W        W 7034  20.683   5.123   4.259
41874W        W 7035  18.634  32.453  11.648
41875W        W 7036  43.393   6.773   1.696
41876W        W 7037  19.742   4.600  11.551
41877W        W 7038  39.438  34.203   3.238
41878W        W 7039  42.293  14.665  10.981
41879W        W 7040  24.747   8.928   3.791
41880W        W 7041  39.853   3.026  12.535
41881W        W 7042   9.860  10.967   4.103
41882W        W 7043   3.781  35.647  14.472
41883W        W 7044   8.021  39.894  10.444
41884W        W 7045  44.830   2.398   2.728
41885W        W 7046  17.155   8.875   9.935
41886W        W 7047  22.243  11.307  14.720
41887W        W 7048  39.871  44.148   1.366
41888W        W 7049  36.870  25.020   3.665
41889W        W 7050  41.032  24.373  13.604
41890W        W 7051  35.632  41.011   0.173
41891W        W 7052  25.006   8.828   4.975
41892W        W 7053   1.983  43.046  14.176
41893W        W 7054  26.570   0.700  10.634
41894W        W 7055  21.330   3.520  10.259
41895W        W 7056  35.102  44.265   0.734
41896W        W 7057  36.490  13.941  12.777
41897W        W 7058  36.823  43.102  12.411
41898W        W 7059  27.012  16.296  10.342
41899W        W 7060  24.583  21.155  10.181
41900W        W 7061  22.510  32.454  10.562
41901W        W 7062  19.097  18.882  11.964
41902W        W 7063  13.130  36.870  11.427
41903W        W 7064  23.597  22.023  11.967
41904W        W 7065  42.343  21.216   3.692
41905W        W 7066   0.942  10.677  14.440
41906W        W 7067  40.496  29.803  11.228
41907W        W 7068  27.278  38.523   2.234
41908W        W 7069  17.654  10.578   0.396
41909W        W 7070  17.519  15.357   1.891
41910W        W 7071  27.482  11.050   2.158
41911W        W 7072  26.664  37.088   0.490
41912W        W 7073  37.849  30.189  13.409
41913W        W 7074  41.072  34.423   0.651
41914W        W 7075  22.630   1.947  11.200
41915W        W 7076  43.073  18.237  14.925
41916W        W 7077  23.166  13.913   2.820
41917W        W 7078   1.243  43.849   4.653
41918W        W 7079   1.020   4.235   4.162
41919W        W 7080   2.109  24.984   0.487
41920W        W 7081  44.246  33.565   4.294
41921W        W 7082  36.642  34.078   0.962
41922W        W 7083  30.139  10.095   3.320
41923W        W 7084  15.732   1.460   4.786
41924W        W 7085  25.604  21.584  11.123
41925W        W 7086  15.106  26.585  14.830
41926W        W 7087   0.270  28.561  12.424
41927W        W 7088   7.637  41.816  11.170
41928W        W 7089  42.896  34.484   0.911
41929W        W 7090  27.210   8.259   4.275
41930W        W 7091   1.719  17.711  11.592
41931W        W 7092  41.640  32.973  11.082
41932W        W 7093  28.132   5.208   3.232
41933W        W 7094   2.370  15.609  11.636
41934W        W 7095   4.115  26.481   3.068
41935W        W 7096  18.286  24.559  14.395
41936W        W 7097  39.924   9.137   2.305
41937W        W 7098  23.232  39.252  14.751
41938W        W 7099  14.188  19.499  12.581
41939W        W 7100   4.413  19.170   3.740
41940W        W 7101  28.970  13.749   1.757
41941W        W 7102   4.950  30.648  11.191
41942W        W 7103  25.585  31.650  10.275
41943W        W 7104  43.839  36.762   1.606
41944W        W 7105  12.129  36.597   4.120
41945W        W 7106  27.701  36.094  12.502
41946W        W 7107  22.962   5.394  13.894
41947W        W 7108  12.316  16.190  11.202
41948W        W 7109  41.218   0.816  14.711
41949W        W 7110  41.980  31.986   1.886
41950W        W 7111  41.280  27.003   4.650
41951W        W 7112   3.912  11.727   1.233
41952W        W 7113   2.506  31.134   2.334
41953W        W 7114   1.769  37.233  11.112
41954W        W 7115  40.782  39.853  13.313
41955W        W 7116  37.596  23.770   1.671
41956W        W 7117  13.313  27.522   4.348
41957W        W 7118  18.630  30.817  10.610
41958W        W 7119  26.656   7.237  14.735
41959W        W 7120  44.407   2.177   4.673
41960W        W 7121  29.000   3.484  13.351
41961W        W 7122  37.784   3.850   0.454
41962W        W 7123   8.800  27.491  13.933
41963W        W 7124   4.298   2.291  14.003
41964W        W 7125  14.373  30.923   4.288
41965W        W 7126  44.258   6.724   0.906
41966W        W 7127  10.403   3.349  13.303
41967W        W 7128  21.303   7.746   3.400
41968W        W 7129  12.087  27.537   1.862
41969W        W 7130  20.262  25.609  14.403
41970W        W 7131  26.610  36.272   1.503
41971W        W 7132  15.090  27.795   4.107
41972W        W 7133  29.562   2.231  14.887
41973W        W 7134  34.590  40.599  14.225
41974W        W 7135  21.146   1.295  14.838
41975W        W 7136   9.743  17.622  11.110
41976W        W 7137  19.742  41.145   2.423
41977W        W 7138  17.659  38.858  14.808
41978W        W 7139  16.653  38.360  12.246
41979W        W 7140  44.858  20.707  10.417
41980W        W 7141  38.772  12.175   3.637
41981W        W 7142  42.125  44.424   1.648
41982W        W 7143  22.013   9.568  11.274
41983W        W 7144   5.047  31.497  13.400
41984W        W 7145   7.573  21.627   4.814
41985W        W 7146  37.227  10.580   1.389
41986W        W 7147  15.518   0.661   4.625
41987W        W 7148  27.471   4.167  11.128
41988W        W 7149  30.235  23.523  13.348
41989W        W 7150  32.577   3.796   3.709
41990W        W 7151   8.745   1.315  11.382
41991W        W 7152  34.509  10.276  11.237
41992W        W 7153   8.795  37.054  10.760
41993W        W 7154  32.479  14.408   0.441
41994W        W 7155  18.752  36.923  13.403
41995W        W 7156  30.541  26.706  12.851
41996W        W 7157  24.775  44.478  10.968
41997W        W 7158   3.469  29.652  14.978
41998W        W 7159  33.121  26.971  11.089
41999W        W 7160  27.508  41.783   0.052
42000W        W 7161  38.952  26.621  13.489
42001W        W 7162  44.772  12.517  11.464
42002W        W 7163   5.466  14.444   5.049
42003W        W 7164  25.060  33.364  14.439
42004W        W 7165   2.832  19.446  14.569
42005W        W 7166   0.983  14.332  12.574
42006W        W 7167  13.150   3.506  11.932
42007W        W 7168  18.766   6.438  10.713
42008W        W 7169   5.598  11.436  14.387
42009W        W 7170  37.874  25.964  13.021
42010W        W 7171  33.074  36.727  14.529
42011W        W 7172  16.092   2.781   4.614
42012W        W 7173  27.590  21.520  14.367
42013W        W 7174  39.409  30.401   4.114
42014W        W 7175   9.809  30.146  10.484
42015W        W 7176  35.331  14.658  13.658
42016W        W 7177  42.072   0.047   2.792
42017W        W 7178  43.497   0.928  14.439
42018W        W 7179  24.026  24.540   0.452
42019W        W 7180  10.384  26.531   2.858
42020W        W 7181  14.237  41.973   4.455
42021W        W 7182  42.217   7.692  10.659
42022W        W 7183   0.275  26.705  13.861
42023W        W 7184  37.299  29.897  14.877
42024W        W 7185   1.820  11.132  10.566
42025W        W 7186  38.165  19.099   0.494
42026W        W 7187  14.688  34.913   0.730
42027W        W 7188  42.271  40.073   4.142
42028W        W 7189  15.669  31.864  10.861
42029W        W 7190  26.967  29.800   2.408
42030W        W 7191  44.905   3.163   0.938
42031W        W 7192  16.173  23.227  13.519
42032W        W 7193  13.603   3.218  11.147
42033W        W 7194   1.387  33.322  11.101
42034W        W 7195  12.765   9.435  14.613
42035W        W 7196  39.493  16.130   0.390
42036W        W 7197  13.102  22.997   2.676
42037W        W 7198   4.033   7.140  14.491
42038W        W 7199  14.785  32.383  10.785
42039W        W 7200   2.889   0.546   0.263
42040W        W 7201  25.921  17.238  14.376
42041W        W 7202  37.896  28.455   4.990
42042W        W 7203  33.765  24.692   4.093
42043W        W 7204   5.614  34.852  12.848
42044W        W 7205  20.509  10.706   2.968
42045W        W 7206  41.265  22.039  10.649
42046W        W 7207  10.388  10.745  13.442
42047W        W 7208  29.481  35.916   1.883
42048W        W 7209  20.502  28.818   1.994
42049W        W 7210   9.370  30.938  12.622
42050W        W 7211  43.285  32.537   2.302
42051W        W 7212  12.262  16.701   1.250
42052W        W 7213   9.166  14.567  13.791
42053W        W 7214  38.359  41.207  11.972
42054W        W 7215  23.648  34.070   5.053
42055W        W 7216   3.131  26.136   4.957
42056W        W 7217  11.859  22.908   1.683
42057W        W 7218  32.839  35.453  13.971
42058W        W 7219  19.499  15.086   2.574
42059W        W 7220  26.982  13.878   3.261
42060W        W 7221  19.532  25.774  13.819
42061W        W 7222   5.800  33.704   0.287
42062W        W 7223   9.695  23.613  13.386
42063W        W 7224   3.802  40.775   1.733
42064W        W 7225  13.699  17.977   3.616
42065W        W 7226   3.251   2.759   3.268
42066W        W 7227  23.994  34.154   1.801
42067W        W 7228  14.060  23.630  14.814
42068W        W 7229   8.230   2.960   1.925
42069W        W 7230  20.957  10.851   4.322
42070W        W 7231  12.353  25.243   1.917
42071W        W 7232   5.172  12.645   3.547
42072W        W 7233  44.658  33.724   5.176
42073W        W 7234  29.177   6.273  12.874
42074W        W 7235  29.020  16.647   4.120
42075W        W 7236  28.992  22.714   1.617
42076W        W 7237  39.588  34.886  12.174
42077W        W 7238  24.520  18.023  13.936
42078W        W 7239  30.148   2.765  11.491
42079W        W 7240  19.570  23.472   3.242
42080W        W 7241   1.982  34.177  13.747
42081W        W 7242  33.223  35.514  12.817
42082W        W 7243  14.111  16.336  13.516
42083W        W 7244  36.360  11.139   4.220
42084W        W 7245  12.384  19.021   2.294
42085W        W 7246  42.472  24.484   0.019
42086W        W 7247  38.968  24.920   4.086
42087W        W 7248  19.024   8.172   2.791
42088W        W 7249   4.217  41.361   5.034
42089W        W 7250  40.247  34.187  13.496
42090W        W 7251  18.775  16.283   0.846
42091W        W 7252  35.142   6.550   3.653
42092W        W 7253   1.188  15.652  10.820
42093W        W 7254  27.453  26.961  11.305
42094W        W 7255  24.637  41.051  10.991
42095W        W 7256   6.300  31.890   1.292
42096W        W 7257   8.716  26.954   9.840
42097W        W 7258  13.173  11.355  14.322
42098W        W 7259  41.848  32.493   4.608
42099W        W 7260  40.065  43.024  14.381
42100W        W 7261  28.464  32.434   3.754
42101W        W 7262  21.769  31.907   2.204
42102W        W 7263  15.566  15.322   1.572
42103W        W 7264  12.486  18.045  11.269
42104W        W 7265  23.016   9.186   9.970
42105W        W 7266   5.360  37.409  11.428
42106W        W 7267   7.643  43.758   2.275
42107W        W 7268  15.423  24.378  10.953
42108W        W 7269  10.564   2.823   2.770
42109W        W 7270   7.316  28.124  11.970
42110W        W 7271  24.759  35.444   5.433
42111W        W 7272  18.087  38.740  12.440
42112W        W 7273   1.226  34.619   4.070
42113W        W 7274  18.785  32.257  12.640
42114W        W 7275  31.871   2.770   3.163
42115W        W 7276  41.511  19.522   1.917
42116W        W 7277  21.788  33.877   3.452
42117W        W 7278  21.974  37.481  12.489
42118W        W 7279  27.538   9.621  13.378
42119W        W 7280   3.157  33.291   5.010
42120W        W 7281  20.012  12.628   1.191
42121W        W 7282  12.000  13.577  14.883
42122W        W 7283   5.474  30.125   0.027
42123W        W 7284  44.504   1.870   3.239
42124W        W 7285  15.657  16.060  11.572
42125W        W 7286  23.152  12.249   2.637
42126W        W 7287  25.092  17.098  12.943
42127W        W 7288  34.838  38.517   0.884
42128W        W 7289  26.434  35.788  11.174
42129W        W 7290   2.253  26.066   1.032
42130W        W 7291   2.432  25.378   0.297
42131W        W 7292  43.042  22.835  14.801
42132W        W 7293  14.719  18.297   5.084
42133W        W 7294  39.912  12.318   0.888
42134W        W 7295  11.426  19.335  12.017
42135W        W 7296   3.845  37.700   1.211
42136W        W 7297   9.510  10.277   4.682
42137W        W 7298   2.504  26.587   2.806
42138W        W 7299  26.613  32.036  11.289
42139W        W 7300  41.730  32.666   3.186
42140W        W 7301   0.565  33.538  14.364
42141W        W 7302  34.801  12.794  11.983
42142W        W 7303  26.193  42.947   3.066
42143W        W 7304   0.633   0.278   1.760
42144W        W 7305  14.689   2.908  11.973
42145W        W 7306  27.598  36.496   4.578
42146W        W 7307   2.057  31.641  12.079
42147W        W 7308  44.333  18.121   1.797
42148W        W 7309  23.761  10.421  10.268
42149W        W 7310  18.704  26.641   1.305
42150W        W 7311  18.590  29.519  10.944
42151W        W 7312  11.682  44.358   2.197
42152W        W 7313  35.356  38.511   3.616
42153W        W 7314  34.732  36.992  10.565
42154W        W 7315   2.395  16.979   1.162
42155W        W 7316  20.055  31.541   4.237
42156W        W 7317  24.274  33.575   2.461
42157W        W 7318   3.666  35.044   4.571
42158W        W 7319  34.200  43.846  11.490
42159W        W 7320  31.774   7.379  14.922
42160W        W 7321  25.199  20.079   1.143
42161W        W 7322  13.157  37.057   3.355
42162W        W 7323  12.747  27.454  14.770
42163W        W 7324   5.711  11.205  10.253
42164W        W 7325  13.701  18.291   2.323
42165W        W 7326  11.823  33.577   3.056
42166W        W 7327   7.213   9.201  12.536
42167W        W 7328  18.031  12.114   0.892
42168W        W 7329   8.195   9.002  11.153
42169W        W 7330  31.979   4.323   1.228
42170W        W 7331   1.971   4.191  13.044
42171W        W 7332  17.336  26.249   5.027
42172W        W 7333  41.053   8.385  13.420
42173W        W 7334  14.868  26.117  14.838
42174W        W 7335  18.591  37.940   3.944
42175W        W 7336  33.679   7.471  12.048
42176W        W 7337  23.130   6.880   0.350
42177W        W 7338  38.849  21.195   4.004
42178W        W 7339  17.642  29.405  11.008
42179W        W 7340  33.597  29.081  14.055
42180W        W 7341  16.606  31.134   3.618
42181W        W 7342  14.688  27.272   3.787
42182W        W 7343  16.940  19.696   0.377
42183W        W 7344  26.513  23.722  12.528
42184W        W 7345   5.696  25.055  14.291
42185W        W 7346  14.045  41.802  14.971
42186W        W 7347  30.541  20.139   2.294
42187W        W 7348  27.015  44.159  14.803
42188W        W 7349   1.822  25.001   4.623
42189W        W 7350  20.866  39.545   3.599
42190W        W 7351  24.631  11.192   0.348
42191W        W 7352  37.243  41.903  12.049
42192W        W 7353  26.208   7.247   2.067
42193W        W 7354   4.245  41.671  11.947
42194W        W 7355  39.972  31.988   1.612
42195W        W 7356   3.708  20.165  14.923
42196W        W 7357   4.665   1.763   3.580
42197W        W 7358  39.266  13.833   4.541
42198W        W 7359   4.881  41.770  13.542
42199W        W 7360  33.367  41.291  12.092
42200W        W 7361   4.713  11.190  10.597
42201W        W 7362  18.057  44.395  14.830
42202W        W 7363  27.932  10.338   1.720
42203W        W 7364  14.349  22.173   3.585
42204W        W 7365  24.021  38.801   0.982
42205W        W 7366  22.700  22.019   2.544
42206W        W 7367  28.661   1.968   2.178
42207W        W 7368  20.775  21.792   0.011
42208W        W 7369   4.351  14.013   4.968
42209W        W 7370  14.616  35.988  13.099
42210W        W 7371  24.071   8.328   3.094
42211W        W 7372  23.933  29.222   1.378
42212W        W 7373  25.124  36.286  13.040
42213W        W 7374  11.297  43.432  11.979
42214W        W 7375   7.784  37.433  12.583
42215W        W 7376  35.807  40.542   3.670
42216W        W 7377  37.604  43.993  11.442
42217W        W 7378  20.837  18.260   4.146
42218W        W 7379   7.499  42.030  13.068
42219W        W 7380  25.741   8.376   4.784
42220W        W 7381  38.811   7.253  13.783
42221W        W 7382  21.289  30.525   1.611
42222W        W 7383   6.425  37.569   0.847
42223W        W 7384  33.601  41.517  11.201
42224W        W 7385  39.417  33.940  13.813
42225W        W 7386   0.796  14.741  11.227
42226W        W 7387  38.936  17.031   1.826
42227W        W 7388  10.240  18.485  13.551
42228W        W 7389  15.606  29.654   3.214
42229W        W 7390  30.829  19.592   3.668
42230W        W 7391  29.022  24.263  13.528
42231W        W 7392   4.317   0.712   2.232
42232W        W 7393   8.303  43.570   1.627
42233W        W 7394  16.192   9.931   0.589
42234W        W 7395  39.514   9.790   3.016
42235W        W 7396  17.231  24.394  11.211
42236W        W 7397  27.158  10.219  10.509
42237W        W 7398  21.644  26.615   3.086
42238W        W 7399   5.068  11.796   1.255
42239W        W 7400   8.286  32.388  13.535
42240W        W 7401  37.406  11.012  11.504
42241W        W 7402  31.781  41.243  13.888
42242W        W 7403  41.868  12.858  13.953
42243W        W 7404  13.093   5.661  12.460
42244W        W 7405   6.784  24.546  13.989
42245W        W 7406  17.700  35.098   3.217
42246W        W 7407  13.436   1.239   1.267
42247W        W 7408  31.826  40.082   1.772
42248W        W 7409   3.881  32.935   3.132
42249W        W 7410  23.120  24.493  11.966
42250W        W 7411  26.539  18.219   0.688
42251W        W 7412  36.499  42.213  11.631
42252W        W 7413  30.258  19.925   1.501
42253W        W 7414   7.178   8.320  11.589
42254W        W 7415  28.887  23.918   2.636
42255W        W 7416  36.503  23.800  12.126
42256W        W 7417  18.439  10.574   3.416
42257W        W 7418  37.811   2.606  11.620
42258W        W 7419  19.623  38.572   0.191
42259W        W 7420  31.450  11.816   0.380
42260W        W 7421  20.537   4.943  13.979
42261W        W 7422  15.807   8.422  11.313
42262W        W 7423  17.684  22.099  12.864
42263W        W 7424  36.039  35.137   2.298
42264W        W 7425  34.090  23.266  10.652
42265W        W 7426  29.887  21.749   4.464
42266W        W 7427  24.648  44.205   3.166
42267W        W 7428  16.284  25.518   1.275
42268W        W 7429  34.002   4.229   2.002
42269W        W 7430  34.867  42.934   0.503
42270W        W 7431  33.818  27.634   0.528
42271W        W 7432  28.701  43.813   1.299
42272W        W 7433  18.852  22.530   1.397
42273W        W 7434   0.103  40.012   9.929
42274W        W 7435  19.176  42.848  14.264
42275W        W 7436  44.769  27.669   3.247
42276W        W 7437  41.527  15.000   3.247
42277W        W 7438  14.195  40.304   3.586
42278W        W 7439  26.090  19.635   4.047
42279W        W 7440  23.935   3.915   2.725
42280W        W 7441  28.594  20.794  13.926
42281W        W 7442  19.850   0.765   3.387
42282W        W 7443   1.803  38.033  10.745
42283W        W 7444  34.538  30.486   4.859
42284W        W 7445   0.841  42.882   4.790
42285W        W 7446  14.590  36.378  10.711
42286W        W 7447  24.406  29.410  12.049
42287W        W 7448  28.020  32.189  14.339
42288W        W 7449  26.101  13.612   0.196
42289W        W 7450  31.888  37.881  12.442
42290W        W 7451  13.752   4.684  13.305
42291W        W 7452   5.077  44.312   2.243
42292W        W 7453  32.396  19.606  13.780
42293W        W 7454   6.187  32.504   4.393
42294W        W 7455   4.901  21.973  13.903
42295W        W 7456  42.898  42.385   0.300
42296W        W 7457  10.411  31.725  11.128
42297W        W 7458  44.246  19.245  12.911
42298W        W 7459  20.240  10.309   3.195
42299W        W 7460   9.135  26.247  11.427
42300W        W 7461  28.506   3.611  11.716
42301W        W 7462  40.568  26.261  11.056
42302W        W 7463  24.038  39.746  14.934
42303W        W 7464   2.410  33.705  10.488
42304W        W 7465  41.777  20.436   3.342
42305W        W 7466  44.095  21.315  13.693
42306W        W 7467  34.837  42.948   2.638
42307W        W 7468   9.412   7.906   4.317
42308W        W 7469  36.334  18.112  11.633
42309W        W 7470  31.491   0.414   0.836
42310W        W 7471   6.972   7.459  13.892
42311W        W 7472   9.101  10.386  11.055
42312W        W 7473  44.691  41.910  11.526
42313W        W 7474  42.646  39.365   1.420
42314W        W 7475   8.101  17.211   0.197
42315W        W 7476  15.072   6.777   4.236
42316W        W 7477  23.762  11.292   0.014
42317W        W 7478  43.329  34.415  13.381
42318W        W 7479  22.793  21.165  14.876
42319W        W 7480  31.024  11.433   0.324
42320W        W 7481  22.077  30.989   4.395
42321W        W 7482  33.207  32.952  11.654
42322W        W 7483  37.982  27.387  10.607
42323W        W 7484   1.844  42.537   0.311
42324W        W 7485  42.034  31.045  12.614
42325W        W 7486  15.156  13.157   4.844
42326W        W 7487   8.226   8.177  13.581
42327W        W 7488  39.877  44.031   0.465
42328W        W 7489   2.666  12.347   1.275
42329W        W 7490  26.386  19.346   3.604
42330W        W 7491  31.922  18.297  14.413
42331W        W 7492  34.841  28.204  14.935
42332W        W 7493   7.458  43.838   0.041
42333W        W 7494  21.688   4.950  11.632
42334W        W 7495  33.365  12.169  10.579
42335W        W 7496   6.425   4.365   2.273
42336W        W 7497  24.635  34.378  14.879
42337W        W 7498  17.756   0.016  12.410
42338W        W 7499  26.008   0.940  11.472
42339W        W 7500  40.759  24.711   3.722
42340W        W 7501  12.763   5.162   0.513
42341W        W 7502   6.887   1.842  11.196
42342W        W 7503  39.238   2.146   1.272
42343W        W 7504  35.770  34.990  11.518
42344W        W 7505  20.375  30.484  11.604
42345W        W 7506  29.845  17.226   0.307
42346W        W 7507  39.504  30.480   2.923
42347W        W 7508  17.080  40.571  13.830
42348W        W 7509  42.975  38.702   2.731
42349W        W 7510  28.621   6.514   2.370
42350W        W 7511   3.754  27.928  13.366
42351W        W 7512   9.304  30.427  13.406
42352W        W 7513   4.341  16.156  13.458
42353W        W 7514  22.452  13.577   4.111
42354W        W 7515   4.770  37.619   1.348
42355W        W 7516  38.070  19.201   3.400
42356W        W 7517  42.439   5.065   1.606
42357W        W 7518   2.121  26.568  11.338
42358W        W 7519  24.418   9.207   4.120
42359W        W 7520   6.724  17.728   3.546
42360W        W 7521  31.420  24.129   3.242
42361W        W 7522  14.088  16.247   2.125
42362W        W 7523  37.962  29.460   4.167
42363W        W 7524   6.843  32.723   3.667
42364W        W 7525  43.932   1.878   4.348
42365W        W 7526  27.159   6.917  14.786
42366W        W 7527  18.761  21.363   4.049
42367W        W 7528  27.120  41.211   3.765
42368W        W 7529  37.597   0.260   4.398
42369W        W 7530  22.014   9.861   4.095
42370W        W 7531   5.893  35.192  11.956
42371W        W 7532  16.007  44.293  12.584
42372W        W 7533  14.620  20.629  14.448
42373W        W 7534  41.463  24.259   2.892
42374W        W 7535  34.330  30.487   2.860
42375W        W 7536  37.981  30.762   4.875
42376W        W 7537  43.208  23.527  14.025
42377W        W 7538  38.388  14.131  12.018
42378W        W 7539  37.824  37.686   1.346
42379W        W 7540  23.167  28.683  11.981
42380W        W 7541  16.588   1.730  11.152
42381W        W 7542  19.200  12.367  14.487
42382W        W 7543   6.602  43.041   0.422
42383W        W 7544  32.267   4.825   1.646
42384W        W 7545  13.329   2.849   2.728
42385W        W 7546  13.201  11.865  11.831
42386W        W 7547  24.871  41.568   4.316
42387W        W 7548  17.817  11.263   2.266
42388W        W 7549  29.621  10.104  14.547
42389W        W 7550  21.535   6.737   2.402
42390W        W 7551  41.277  32.535   3.404
42391W        W 7552  18.662  16.583  14.548
42392W        W 7553   9.396  28.960   2.800
42393W        W 7554   4.490  39.424   3.923
42394W        W 7555  33.976   8.210  13.517
42395W        W 7556  33.054  30.270   4.947
42396W        W 7557  35.637   8.583  14.495
42397W        W 7558  13.199  44.808  13.385
42398W        W 7559   9.909  40.456  10.991
42399W        W 7560   6.959  33.389   0.891
42400W        W 7561  18.224  21.243   1.071
42401W        W 7562   5.247  21.999   3.838
42402W        W 7563  39.833  37.141  12.396
42403W        W 7564  40.149  43.900  14.801
42404W        W 7565  43.923  34.950  10.670
42405W        W 7566  27.602  42.160   1.275
42406W        W 7567   8.983   2.122   2.194
42407W        W 7568  14.302  31.910   4.587
42408W        W 7569  14.355   1.914  13.018
42409W        W 7570  41.615  21.089  14.905
42410W        W 7571  31.694   8.935  14.630
42411W        W 7572  27.476   4.773  11.139
42412W        W 7573  18.501  34.819  11.556
42413W        W 7574  17.090   1.559   9.915
42414W        W 7575  34.453  25.475  14.302
42415W        W 7576  20.558  14.204   0.986
42416W        W 7577  26.044  38.012  12.074
42417W        W 7578   0.174  41.271  14.921
42418W        W 7579  33.859  23.557  12.467
42419W        W 7580  39.741   1.284   0.835
42420W        W 7581  38.398  24.890  10.798
42421W        W 7582  27.854  33.788   0.509
42422W        W 7583   9.811   9.454   1.793
42423W        W 7584  38.513  31.749   0.004
42424W        W 7585   9.160   1.431   5.054
42425W        W 7586  11.644  18.459  12.428
42426W        W 7587  10.210  43.901   1.421
42427W        W 7588  44.732  42.909   2.769
42428W        W 7589  24.160  27.530  12.807
42429W        W 7590   8.046  12.324   0.691
42430W        W 7591   8.323  36.464   1.217
42431W        W 7592  39.446  15.378   3.777
42432W        W 7593  30.872  17.645   0.852
42433W        W 7594   4.720  36.664  11.949
42434W        W 7595   8.922  27.011   5.775
42435W        W 7596   5.224  16.520   2.381
42436W        W 7597  36.036  25.489  10.644
42437W        W 7598  35.077  13.214  13.830
42438W        W 7599  26.512  39.634  14.536
42439W        W 7600  39.059  26.755  10.713
42440W        W 7601   4.250  13.829   2.364
42441W        W 7602  41.514  36.473   9.837
42442W        W 7603   9.763   8.408  13.274
42443W        W 7604  12.702  24.459  12.102
42444W        W 7605  41.122  36.274   2.236
42445W        W 7606  23.724  43.952   1.310
42446W        W 7607  35.393   5.691  14.128
42447W        W 7608  30.885  24.007  13.913
42448W        W 7609  42.942   1.275  13.289
42449W        W 7610  17.604  35.845  11.071
42450W        W 7611  15.147  15.837  11.979
42451W        W 7612  20.100   2.325  12.463
42452W        W 7613  21.438   5.467  10.925
42453W        W 7614  23.076   9.955  13.577
42454W        W 7615  14.838  11.334  10.724
42455W        W 7616   4.932  42.838  13.422
42456W        W 7617  22.419  22.738   2.904
42457W        W 7618  17.266  27.227   4.583
42458W        W 7619  35.283  42.764  13.412
42459W        W 7620  25.669  15.508   0.902
42460W        W 7621  22.028  38.944   1.832
42461W        W 7622  19.279  36.097   4.098
42462W        W 7623  30.106  15.534   3.283
42463W        W 7624   7.138  14.330  12.357
42464W        W 7625  15.405   3.442   2.858
42465W        W 7626  16.545  42.307  13.774
42466W        W 7627  31.649   4.184  11.509
42467W        W 7628   0.458   4.249  10.594
42468W        W 7629   3.769  28.198   0.876
42469W        W 7630   6.490  40.659   4.874
42470W        W 7631  36.935  30.169   0.212
42471W        W 7632  40.008  34.509  13.101
42472W        W 7633  43.247  21.589   2.670
42473W        W 7634  43.940   6.357   1.217
42474W        W 7635  11.705   5.361  14.567
42475W        W 7636  11.111  19.309  11.581
42476W        W 7637  41.757   2.503   1.885
42477W        W 7638  34.077  16.799  12.568
42478W        W 7639   7.298  40.456  14.646
42479W        W 7640   5.652  40.807   4.500
42480W        W 7641  15.374  35.337   0.765
42481W        W 7642  44.845  40.955   0.486
42482W        W 7643   8.017   3.864  14.350
42483W        W 7644  43.701  35.095   4.660
42484W        W 7645  40.114   4.979   4.148
42485W        W 7646  36.486  14.313  10.759
42486W        W 7647  19.047  30.639  13.585
42487W        W 7648  21.963  35.860  12.785
42488W        W 7649  19.143   1.386   4.839
42489W        W 7650   3.559  42.053  11.663
42490W        W 7651  16.888   7.723   3.196
42491W        W 7652  17.074   5.936   4.834
42492W        W 7653   6.651   8.235  10.764
42493W        W 7654  37.421   5.944   2.343
42494W        W 7655  13.564  26.172   0.383
42495W        W 7656  21.332   5.295  12.300
42496W        W 7657   0.210  22.478  12.587
42497W        W 7658   6.692  17.619   4.043
42498W        W 7659  23.258  18.047   4.278
42499W        W 7660  29.045  15.716  13.805
42500W        W 7661  30.432  22.800  11.113
42501W        W 7662  11.323  25.608   0.458
42502W        W 7663   9.381  40.463   4.442
42503W        W 7664  20.094  33.672  13.405
42504W        W 7665   9.356  11.263  14.079
42505W        W 7666  33.501   4.765  13.498
42506W        W 7667  41.536  31.875  11.954
42507W        W 7668   2.105  34.562   2.262
42508W        W 7669  16.368  10.699   3.016
42509W        W 7670  22.131  29.278  11.722
42510W        W 7671  29.789  12.581   2.850
42511W        W 7672  43.848  29.853  12.060
42512W        W 7673  37.143   0.469   4.172
42513W        W 7674   5.016   9.383   0.349
42514W        W 7675   3.550   6.408   4.997
42515W        W 7676  39.608  40.914  11.939
42516W        W 7677  28.306  20.606   1.701
42517W        W 7678   8.681  16.690   3.000
42518W        W 7679  17.038  24.463  14.068
42519W        W 7680  33.211  41.926  11.482
42520W        W 7681   1.839  11.048  13.518
42521W        W 7682  24.129  11.751  12.924
42522W        W 7683  43.531  11.300  12.396
42523W        W 7684   3.667  26.765   2.275
42524W        W 7685  43.343  31.586   3.866
42525W        W 7686  29.388  19.833   4.235
42526W        W 7687  33.430  38.011   2.810
42527W        W 7688  34.163   9.650  13.812
42528W        W 7689  37.862  17.088   3.756
42529W        W 7690  18.552  36.725   3.218
42530W        W 7691  39.403  44.205   4.670
42531W        W 7692  11.676  11.419  10.735
42532W        W 7693  39.584  17.943  13.024
42533W        W 7694  35.503  34.125  12.037
42534W        W 7695  34.162  15.377  13.786
42535W        W 7696  32.413  15.249   0.663
42536W        W 7697  38.972  27.005   3.349
42537W        W 7698  13.216  28.565   2.898
42538W        W 7699  17.761  32.514   4.525
42539W        W 7700  25.491  20.724   2.077
42540W        W 7701  43.264   9.780   1.491
42541W        W 7702  27.174  36.867  11.403
42542W        W 7703  31.821  38.044  13.856
42543W        W 7704  20.735  11.838  11.163
42544W        W 7705  39.992  35.622   4.341
42545W        W 7706   6.421  44.806  12.446
42546W        W 7707  30.042  26.786  12.742
42547W        W 7708  15.781  35.749  14.013
42548W        W 7709  24.586   4.104   1.954
42549W        W 7710   7.426  20.256   4.746
42550W        W 7711   5.537  28.944  14.920
42551W        W 7712  12.619  19.946   2.583
42552W        W 7713  22.990  35.971   4.598
42553W        W 7714  21.928   8.747   0.548
42554W        W 7715  11.235   9.068  12.883
42555W        W 7716  40.019  21.228   4.863
42556W        W 7717  41.952  10.006   1.958
42557W        W 7718  21.835  13.132  11.318
42558W        W 7719  20.307  21.591   2.363
42559W        W 7720  13.165  44.948   3.554
42560W        W 7721   9.056  24.211  14.373
42561W        W 7722  39.905  38.616   2.336
42562W        W 7723  15.082  37.541  13.959
42563W        W 7724   9.669   1.289   0.781
42564W        W 7725  43.476   7.880  11.813
42565W        W 7726  32.097  42.032  11.191
42566W        W 7727   4.910  13.724   3.805
42567W        W 7728  19.755  37.154   0.781
42568W        W 7729  10.628  38.584   2.888
42569W        W 7730  40.724  11.379   2.753
42570W        W 7731  29.027  10.642   2.782
42571W        W 7732  43.470  12.208   0.737
42572W        W 7733  41.895  36.533   9.496
42573W        W 7734  34.570  26.919  12.636
42574W        W 7735  42.630  39.891   1.458
42575W        W 7736  30.363  17.158   0.284
42576W        W 7737  17.083  18.331   3.262
42577W        W 7738   0.185   8.210   2.636
42578W        W 7739  42.110   5.284  11.932
42579W        W 7740  10.185  28.941  14.949
42580W        W 7741  36.388  40.618   1.801
42581W        W 7742  23.396  12.067   0.117
42582W        W 7743   2.092  19.813   2.484
42583W        W 7744  35.601  28.116   1.400
42584W        W 7745  34.440  14.876  10.544
42585W        W 7746  24.526  44.302   1.402
42586W        W 7747   5.412  17.117  14.308
42587W        W 7748  37.955  44.503   4.734
42588W        W 7749  44.323   3.784   2.724
42589W        W 7750  39.048   7.396   3.863
42590W        W 7751   3.804  35.079   0.768
42591W        W 7752  44.479  27.533   4.554
42592W        W 7753  25.226  43.422   4.785
42593W        W 7754  31.241  19.983   3.002
42594W        W 7755  29.012   8.775   4.957
42595W        W 7756  18.180  41.396   1.048
42596W        W 7757  11.028   4.741  13.580
42597W        W 7758  16.775  18.790  13.902
42598W        W 7759   6.021  15.207   2.275
42599W        W 7760  33.963  30.691  13.495
42600W        W 7761  18.350  36.982  11.029
42601W        W 7762   4.848  17.901   0.751
42602W        W 7763  28.148  10.885  12.869
42603W        W 7764  26.705  33.047   1.286
42604W        W 7765  33.070  25.613   1.661
42605W        W 7766  33.947  38.562   2.598
42606W        W 7767  18.820  11.916  10.756
42607W        W 7768  43.822  40.852  14.596
42608W        W 7769  27.233  18.653   2.533
42609W        W 7770  21.639  28.856  11.103
42610W        W 7771  37.140  41.926   2.760
42611W        W 7772   9.900  36.633   1.342
42612W        W 7773  27.220   7.209  10.655
42613W        W 7774   7.810  41.751   1.290
42614W        W 7775  20.323   4.720  12.316
42615W        W 7776  35.943  43.361  11.429
42616W        W 7777   9.970  17.232  10.379
42617W        W 7778  34.481  31.166   4.120
42618W        W 7779   4.470   3.899   3.386
42619W        W 7780  43.961  11.638  10.950
42620W        W 7781  33.552   5.260  12.675
42621W        W 7782  16.366  26.974   1.465
42622W        W 7783  31.392  41.010  14.137
42623W        W 7784  41.496  44.761  11.164
42624W        W 7785  34.576  16.144   4.492
42625W        W 7786  31.203  22.173  14.927
42626W        W 7787  28.515   7.078  11.551
42627W        W 7788  23.195  16.676   1.393
42628W        W 7789   7.734  20.433  14.251
42629W        W 7790  12.212   6.425  11.134
42630W        W 7791  10.850  27.537  13.532
42631W        W 7792  39.868  29.054  10.607
42632W        W 7793  23.991   8.889  14.655
42633W        W 7794   8.797  33.256   4.045
42634W        W 7795  13.036   3.283   4.139
42635W        W 7796  31.366   6.415  14.949
42636W        W 7797   8.835   1.956  12.960
42637W        W 7798  41.351   7.900   0.367
42638W        W 7799   7.268  21.786  12.745
42639W        W 7800  19.282   8.518  12.443
42640W        W 7801   8.450  37.418  10.576
42641W        W 7802  36.468  21.097  11.159
42642W        W 7803   7.381   3.303   0.189
42643W        W 7804  32.887  40.526   2.584
42644W        W 7805  17.592  28.705  12.343
42645W        W 7806  11.752  17.706  10.754
42646W        W 7807  30.665   5.326   0.329
42647W        W 7808  18.444   2.454   3.238
42648W        W 7809  42.381  34.619  12.849
42649W        W 7810  42.375  16.140  12.996
42650W        W 7811   6.468   8.419   3.349
42651W        W 7812  11.594  37.047  12.915
42652W        W 7813  10.052  39.534   0.789
42653W        W 7814  20.784  23.221   0.257
42654W        W 7815  10.587  39.249  13.939
42655W        W 7816  10.823  35.832   3.938
42656W        W 7817  28.171   1.001  13.962
42657W        W 7818  35.382  43.304  11.531
42658W        W 7819  25.412  10.851   3.591
42659W        W 7820  25.929  25.227  12.119
42660W        W 7821  18.183   6.641   1.824
42661W        W 7822   7.723   6.316  11.246
42662W        W 7823   1.830  22.242   0.038
42663W        W 7824  35.515  34.624   0.221
42664W        W 7825  14.219  19.900  13.778
42665W        W 7826  11.323   3.723   2.406
42666W        W 7827   9.627  30.334  13.937
42667W        W 7828  34.540   2.931  12.007
42668W        W 7829   5.202  30.476   3.654
42669W        W 7830  28.712  28.038   0.515
42670W        W 7831  44.914  12.351   0.983
42671W        W 7832  27.100  11.674  13.371
42672W        W 7833  17.542   0.182   0.723
42673W        W 7834  32.913   2.266   4.180
42674W        W 7835  38.958  20.779  14.510
42675W        W 7836  18.056   3.136  11.479
42676W        W 7837  14.350  29.232  14.166
42677W        W 7838  31.420  27.412  13.373
42678W        W 7839  16.058  22.062   0.386
42679W        W 7840   1.455  30.904  12.048
42680W        W 7841  31.243   4.660  14.714
42681W        W 7842   2.889  25.212  14.198
42682W        W 7843  23.540   8.815  12.513
42683W        W 7844  31.405  14.546  12.450
42684W        W 7845  22.688   4.531   2.365
42685W        W 7846  31.192  14.033  12.773
42686W        W 7847  12.179   9.726  13.141
42687W        W 7848  38.918  25.460   3.230
42688W        W 7849   7.944   1.594  11.748
42689W        W 7850   7.695  40.771  10.535
42690W        W 7851   7.182  42.671  13.584
42691W        W 7852   5.896  39.801  13.078
42692W        W 7853  10.213  16.271  13.041
42693W        W 7854  40.885   4.282   4.305
42694W        W 7855  19.207  12.287   1.787
42695W        W 7856   0.843  40.144  10.602
42696W        W 7857  12.485   3.308   1.298
42697W        W 7858  16.353   0.633  11.159
42698W        W 7859  37.239  35.431   4.909
42699W        W 7860  34.042  16.623  13.442
42700W        W 7861  13.089  35.383   3.799
42701W        W 7862  23.706  34.538  10.732
42702W        W 7863   3.421  40.994  10.681
42703W        W 7864  10.371  15.806  11.985
42704W        W 7865   2.368   5.211  13.849
42705W        W 7866  19.149  24.523   3.793
42706W        W 7867  36.559  33.610   1.727
42707W        W 7868  33.006  27.691   0.888
42708W        W 7869  14.152   8.205  11.662
42709W        W 7870  26.175  11.794  12.385
42710W        W 7871   7.372  17.754  14.816
42711W        W 7872  29.630  18.009  14.936
42712W        W 7873   5.884   7.781  10.737
42713W        W 7874  27.394  34.351  12.055
42714W        W 7875   7.711  38.802  13.410
42715W        W 7876  36.672  37.750   1.229
42716W        W 7877  15.649  38.385   0.107
42717W        W 7878  35.888   5.204  11.204
42718W        W 7879  36.878   0.493   1.486
42719W        W 7880  25.277  43.371  14.560
42720W        W 7881  20.085   5.514  14.333
42721W        W 7882   1.447  17.834   1.869
42722W        W 7883  34.553  27.410  12.779
42723W        W 7884  11.596  11.780   4.116
42724W        W 7885  11.875  28.295  11.547
42725W        W 7886  34.224  33.306   3.652
42726W        W 7887  13.572  22.282  11.221
42727W        W 7888   9.263  18.492   3.580
42728W        W 7889   3.787  21.011   3.773
42729W        W 7890  11.188   9.190  11.875
42730W        W 7891  39.917  23.943   0.646
42731W        W 7892   7.992  32.396  14.481
42732W        W 7893  36.605  30.980   4.288
42733W        W 7894  44.424  28.972  12.882
42734W        W 7895  13.259   7.120   2.207
42735W        W 7896   4.819   4.803   1.104
42736W        W 7897   1.731  17.298   4.761
42737W        W 7898  25.470  39.412   0.414
42738W        W 7899  37.644  41.962   0.536
42739W        W 7900  24.255  18.868   2.770
42740W        W 7901  28.399  21.044   0.287
42741W        W 7902   9.674  34.493  13.679
42742W        W 7903  27.432  16.092   1.816
42743W        W 7904  29.719   5.672   1.372
42744W        W 7905   8.796  28.442   2.417
42745W        W 7906  42.158   9.776   1.497
42746W        W 7907  41.268  12.082   2.697
42747W        W 7908  22.279  36.915   4.077
42748W        W 7909  32.098  29.708   3.685
42749W        W 7910  30.062  29.457   1.927
42750W        W 7911  29.158  14.635   0.909
42751W        W 7912  35.736  15.104   0.396
42752W        W 7913  42.774  21.045  14.196
42753W        W 7914  27.154  23.267  11.269
42754W        W 7915  40.228  15.141   4.358
42755W        W 7916  39.758  19.974  11.534
42756W        W 7917  18.030  21.679  13.896
42757W        W 7918  23.777  33.402   0.220
42758W        W 7919  44.238  10.554  12.612
42759W        W 7920  31.077  29.007  14.021
42760W        W 7921  11.859   4.359  11.966
42761W        W 7922  25.152  16.596  10.575
42762W        W 7923  30.258  15.255   1.419
42763W        W 7924   1.660  43.884   0.835
42764W        W 7925  11.746  29.687  14.103
42765W        W 7926   6.548  33.885   0.051
42766W        W 7927  31.008  31.756  14.265
42767W        W 7928  18.162   5.521   0.355
42768W        W 7929  12.772  37.327   2.249
42769W        W 7930  21.302  32.456   4.203
42770W        W 7931  11.296  40.297  14.344
42771W        W 7932  37.820  31.120  14.633
42772W        W 7933  20.651  26.722  14.971
42773W        W 7934  33.184   8.952  12.738
42774W        W 7935  10.490  15.039   4.214
42775W        W 7936  35.572  35.077  12.521
42776W        W 7937  12.830   6.137  10.371
42777W        W 7938  32.355  10.734  14.949
42778W        W 7939  42.992  35.050  12.392
42779W        W 7940  10.032  15.840   0.094
42780W        W 7941   9.552  37.613   4.181
42781W        W 7942  13.696  24.184  12.957
42782W        W 7943  27.367  41.535   4.114
42783W        W 7944   9.302   2.100   4.077
42784W        W 7945  34.890  44.779   0.332
42785W        W 7946   3.409  13.356   3.538
42786W        W 7947  26.806  42.856  12.483
42787W        W 7948  30.542  11.618   1.446
42788W        W 7949   2.527  25.059  14.546
42789W        W 7950   5.781  37.001  14.967
42790W        W 7951   2.720  23.237   3.728
42791W        W 7952  37.459   7.996  10.649
42792W        W 7953   9.418  28.617   0.618
42793W        W 7954  12.707  34.600   0.177
42794W        W 7955  39.452  12.735  10.572
42795W        W 7956  22.157  40.702  13.065
42796W        W 7957  16.052  22.039   1.291
42797W        W 7958  18.613  35.986  14.351
42798W        W 7959   7.967  21.832   1.728
42799W        W 7960  23.192  22.038   2.712
42800W        W 7961  28.642  10.881  13.108
42801W        W 7962  22.970  27.625  10.715
42802W        W 7963   6.176  22.768  12.553
42803W        W 7964  27.937   8.431  13.412
42804W        W 7965   0.268  32.331   4.119
42805W        W 7966   0.319  23.921   2.704
42806W        W 7967  15.101  43.749  13.982
42807W        W 7968  21.695   4.874  14.879
42808W        W 7969  43.075  28.717  12.941
42809W        W 7970  24.327  10.871   3.571
42810W        W 7971  10.336  19.566   1.140
42811W        W 7972  36.512   2.332  12.469
42812W        W 7973  25.245  30.458   2.940
42813W        W 7974  14.329  15.479   1.792
42814W        W 7975  34.910  24.653  12.403
42815W        W 7976   4.559  13.803   9.960
42816W        W 7977  31.126  28.587  13.095
42817W        W 7978   1.400  11.032   4.195
42818W        W 7979  41.427  15.847  12.229
42819W        W 7980  44.552  44.324   2.805
42820W        W 7981  21.560  14.532   5.035
42821W        W 7982  26.347   6.988   3.789
42822W        W 7983   7.480  37.754   2.215
42823W        W 7984  43.882  12.057  11.694
42824W        W 7985   5.893   0.574  14.575
42825W        W 7986  20.829  22.043  11.475
42826W        W 7987  43.255  23.001   0.365
42827W        W 7988  35.670  10.636   3.045
42828W        W 7989   5.661  19.171   2.206
42829W        W 7990  35.319   5.449  12.098
42830W        W 7991   8.533   6.822  14.739
42831W        W 7992  15.426  13.367  11.977
42832W        W 7993  33.896   4.777   0.161
42833W        W 7994  36.386   7.103  11.164
42834W        W 7995  21.326  22.287  12.262
42835W        W 7996  39.276  40.165  13.269
42836W        W 7997  29.684  29.805   2.797
42837W        W 7998  23.881  15.524   3.239
42838W        W 7999  35.902  27.742  13.958
42839W        W 8000  38.049  35.129   0.896
42840W        W 8001  28.638  11.650  13.274
42841W        W 8002  17.759  24.019   1.315
42842W        W 8003  38.710  31.313  12.406
42843W        W 8004  27.872  30.549   0.079
42844W        W 8005  43.432  14.617  10.358
42845W        W 8006  29.530  30.003  11.118
42846W        W 8007   5.210  26.431  11.341
42847W        W 8008  34.981  15.717  10.494
42848W        W 8009  41.874  40.003   1.227
42849W        W 8010  37.325  22.104  12.111
42850W        W 8011  36.082  34.600  11.716
42851W        W 8012  40.837  18.643  12.860
42852W        W 8013  26.108  30.512   3.509
42853W        W 8014  24.257  44.943   3.273
42854W        W 8015  44.962  25.690   3.243
42855W        W 8016  42.827   2.417   3.433
42856W        W 8017   4.487  17.881   1.309
42857W        W 8018   7.316  18.362  10.670
42858W        W 8019  26.571  40.933  12.047
42859W        W 8020  43.893  11.573  10.439
42860W        W 8021   2.944  35.439  11.554
42861W        W 8022  25.959   5.085   4.542
42862W        W 8023   7.794  44.302   1.572
42863W        W 8024  13.624  40.114   2.755
42864W        W 8025  15.631  22.579   1.003
42865W        W 8026  38.666   2.539  12.468
42866W        W 8027  25.285  36.525   4.132
42867W        W 8028  13.327  35.137   4.170
42868W        W 8029  14.315  23.125   2.332
42869W        W 8030  27.465  32.423   0.529
42870W        W 8031  36.742  31.193  10.750
42871W        W 8032   8.697  23.255   1.184
42872W        W 8033  10.228  41.368   0.898
42873W        W 8034  26.521   2.951   2.078
42874W        W 8035   7.669  24.081  14.697
42875W        W 8036  33.389  19.226   3.683
42876W        W 8037  43.185  43.528  11.368
42877W        W 8038   1.747  30.121  11.928
42878W        W 8039   8.785  26.696  14.775
42879W        W 8040  18.611  31.407  12.468
42880W        W 8041  28.629  17.266  10.236
42881W        W 8042   3.718  35.504   3.372
42882W        W 8043   2.930  29.315   0.803
42883W        W 8044   4.043   9.365   4.120
42884W        W 8045   4.047  12.612   1.400
42885W        W 8046  43.871  32.563  10.844
42886W        W 8047   8.664  42.828  13.242
42887W        W 8048  35.284  34.417  11.364
42888W        W 8049   0.724  26.703   5.104
42889W        W 8050  37.491  26.666  13.225
42890W        W 8051  42.379  10.703  11.489
42891W        W 8052  18.071  32.760   1.295
42892W        W 8053  11.370  41.057   4.108
42893W        W 8054  22.056  37.526  13.543
42894W        W 8055  39.795  42.353   1.820
42895W        W 8056   5.382  29.279   0.748
42896W        W 8057  34.315  26.766  14.465
42897W        W 8058   2.268  28.006  11.140
42898W        W 8059  30.561  25.305  11.155
42899W        W 8060  43.997  18.810   1.910
42900W        W 8061   4.984  31.624   3.585
42901W        W 8062  14.417  11.056  10.377
42902W        W 8063   4.154   3.992  10.966
42903W        W 8064  22.984  17.386  10.205
42904W        W 8065   1.810  38.537  12.542
42905W        W 8066  44.812  16.835  10.965
42906W        W 8067  12.613  39.331  13.895
42907W        W 8068  36.787  36.255  12.107
42908W        W 8069   8.205  23.449  13.669
42909W        W 8070  33.389  33.863   4.282
42910W        W 8071   8.338  41.741  11.639
42911W        W 8072   9.498   8.866  13.193
42912W        W 8073  27.226  23.121  10.792
42913W        W 8074  12.340  42.459  13.065
42914W        W 8075  23.314  13.835  13.355
42915W        W 8076  14.288  21.520   4.152
42916W        W 8077   7.667   0.951   3.338
42917W        W 8078   7.254  39.990   4.323
42918W        W 8079  20.712  40.913   4.766
42919W        W 8080  20.632  27.721  14.002
42920W        W 8081   0.359  29.054  12.482
42921W        W 8082  41.111   9.455   2.819
42922W        W 8083  38.782  28.792   1.839
42923W        W 8084   9.670  39.458  12.409
42924W        W 8085  42.511   0.381   2.565
42925W        W 8086  18.763  34.214   3.331
42926W        W 8087   9.296  21.196   0.004
42927W        W 8088   5.724  14.277  14.430
42928W        W 8089   0.714  20.174   0.437
42929W        W 8090   4.701   7.259   4.573
42930W        W 8091  25.744  31.335   0.526
42931W        W 8092  27.994  34.013  13.096
42932W        W 8093  39.329  42.999  10.642
42933W        W 8094   5.936  30.096   0.306
42934W        W 8095   5.151  33.028   3.789
42935W        W 8096  35.183   5.206  11.666
42936W        W 8097  18.894  43.322   4.457
42937W        W 8098  32.182  23.137  12.945
42938W        W 8099  34.344  30.896  14.934
42939W        W 8100  25.895  43.828   3.709
42940W        W 8101  24.461  37.929   1.157
42941W        W 8102  44.696  36.133  12.433
42942W        W 8103  30.762   1.777   3.257
42943W        W 8104  31.942  16.571   0.019
42944W        W 8105   3.781   5.786  13.910
42945W        W 8106  12.865  29.177  11.775
42946W        W 8107   3.840  27.208   0.865
42947W        W 8108  32.730  31.411   2.746
42948W        W 8109  39.120  30.268  14.166
42949W        W 8110  37.197  11.572   3.132
42950W        W 8111   1.932   6.345  14.309
42951W        W 8112  32.625  43.439   4.096
42952W        W 8113  40.364   6.415  12.949
42953W        W 8114  20.051  34.151  13.492
42954W        W 8115  25.800  32.087   1.155
42955W        W 8116  42.797  35.420   1.693
42956W        W 8117   5.698  30.137  13.409
42957W        W 8118   4.418  11.595   1.274
42958W        W 8119  25.248   2.848   3.848
42959W        W 8120  43.777  15.061   3.203
42960W        W 8121   2.097  38.298   0.858
42961W        W 8122  26.592  44.857  13.563
42962W        W 8123  28.163   4.223  13.048
42963W        W 8124  36.294  36.869   2.663
42964W        W 8125   9.339  38.994   4.575
42965W        W 8126  29.960  18.070  11.085
42966W        W 8127  25.932  19.100   0.862
42967W        W 8128  24.172   5.205  11.576
42968W        W 8129  34.535  33.912   0.897
42969W        W 8130   0.281  21.513   0.175
42970W        W 8131  21.670   0.498   4.826
42971W        W 8132   8.443  27.512   0.775
42972W        W 8133  27.084  15.463   5.023
42973W        W 8134  30.158   7.846   3.840
42974W        W 8135   0.393  17.559   0.440
42975W        W 8136  40.049   0.127   3.173
42976W        W 8137   5.987   8.758  12.070
42977W        W 8138  29.877  15.999   3.243
42978W        W 8139  10.390   5.421  13.586
42979W        W 8140  35.901   3.970   0.097
42980W        W 8141  26.638  41.197  13.274
42981W        W 8142  29.138  41.191  14.077
42982W        W 8143   0.579  40.106   9.705
42983W        W 8144  19.360  23.887   0.565
42984W        W 8145  33.946  11.359  11.059
42985W        W 8146   0.224  13.369   3.142
42986W        W 8147  29.028  20.922  12.886
42987W        W 8148  20.726  15.931   3.205
42988W        W 8149   2.902  16.324   5.359
42989W        W 8150  18.074   3.150  14.336
42990W        W 8151  17.184  38.354  11.443
42991W        W 8152  19.307  20.815   4.479
42992W        W 8153  23.237   7.868  14.243
42993W        W 8154  11.168  44.820  13.430
42994W        W 8155  44.288  38.888   2.200
42995W        W 8156  40.547  16.297   2.746
42996W        W 8157   7.383   3.898  12.077
42997W        W 8158  12.078   9.837   3.263
42998W        W 8159   9.656  19.307  11.610
42999W        W 8160  29.998  17.305   3.445
43000W        W 8161  32.062  26.027  12.605
43001W        W 8162  25.506  43.765   1.749
43002W        W 8163   9.469  35.112  13.363
43003W        W 8164  32.877  43.046  11.994
43004W        W 8165  37.425  34.974  12.361
43005W        W 8166  24.401  40.077   2.777
43006W        W 8167  39.842  10.895   1.707
43007W        W 8168  35.621  38.341  12.693
43008W        W 8169   9.335  27.506   4.302
43009W        W 8170  33.493  37.910  11.567
43010W        W 8171   8.052  35.409   3.868
43011W        W 8172  42.354  40.775  11.536
43012W        W 8173  10.847   3.247   3.670
43013W        W 8174  16.549  27.472  10.552
43014W        W 8175  31.884  30.886  12.377
43015W        W 8176   0.355  39.888  11.354
43016W        W 8177  21.500  30.478  14.339
43017W        W 8178  35.377  30.067   3.731
43018W        W 8179   0.391  21.930  13.467
43019W        W 8180  39.052   3.712   3.669
43020W        W 8181  12.293  11.750   0.368
43021W        W 8182  21.554  29.469  10.278
43022W        W 8183  32.364  40.409   2.443
43023W        W 8184  36.932  14.545   1.876
43024W        W 8185  38.458  15.173   2.652
43025W        W 8186   6.387   2.797   2.693
43026W        W 8187  17.401  27.245   1.003
43027W        W 8188  13.510   6.265   3.763
43028W        W 8189   3.819   5.489  12.075
43029W        W 8190  41.891   7.938  12.982
43030W        W 8191  14.411  11.548  10.557
43031W        W 8192  16.146  43.090  11.256
43032W        W 8193  20.574  14.768  14.455
43033W        W 8194  18.638  27.513   3.266
43034W        W 8195  15.043   3.226  12.275
43035W        W 8196  36.480   0.404   2.260
43036W        W 8197  41.811  10.912  12.983
43037W        W 8198  38.486  40.868   4.217
43038W        W 8199  27.013  34.453  13.918
43039W        W 8200  35.132  39.263   2.647
43040W        W 8201   1.883   3.709   0.934
43041W        W 8202  40.139  36.013  13.444
43042W        W 8203  33.821  10.754   1.932
43043W        W 8204   9.448  31.712  11.228
43044W        W 8205  44.536  20.451  13.828
43045W        W 8206  21.103  37.921   4.109
43046W        W 8207  30.621  39.722   0.891
43047W        W 8208  35.059   4.759  10.748
43048W        W 8209   6.886  29.898  13.023
43049W        W 8210  31.899  43.778   3.549
43050W        W 8211  31.109   1.861  14.752
43051W        W 8212  40.435  23.583  10.995
43052W        W 8213  19.764  32.910   4.091
43053W        W 8214  22.716  23.513   2.362
43054W        W 8215  38.746  22.121  12.048
43055W        W 8216   6.895  17.371   2.383
43056W        W 8217  11.080  22.152   3.415
43057W        W 8218  29.616   8.542   0.490
43058W        W 8219  14.836   5.085   1.504
43059W        W 8220  42.985  21.212   4.152
43060W        W 8221  33.963  37.421  10.688
43061W        W 8222  24.152  13.218   0.218
43062W        W 8223  10.277  39.611   3.838
43063W        W 8224  24.520  35.485   4.596
43064W        W 8225   1.295  39.806   4.199
43065W        W 8226  17.487  17.116   2.385
43066W        W 8227  17.158  40.367   0.346
43067W        W 8228  13.870  30.232   1.621
43068W        W 8229  39.385  35.314   3.758
43069W        W 8230  17.282  40.929   4.994
43070W        W 8231   7.793   9.783   0.330
43071W        W 8232  16.155  12.181  14.894
43072W        W 8233  35.917  22.754   2.179
43073W        W 8234   4.760  40.058  10.843
43074W        W 8235  19.644  40.893   3.399
43075W        W 8236  17.079  14.128   4.265
43076W        W 8237  20.557   2.213  14.332
43077W        W 8238  41.028  15.087  12.362
43078W        W 8239  21.041  17.523   2.258
43079W        W 8240  39.492  35.938   2.291
43080W        W 8241  11.744  10.131  14.553
43081W        W 8242   9.378  20.943  13.590
43082W        W 8243  30.818  42.891  12.028
43083W        W 8244  44.740  30.037  10.581
43084W        W 8245   1.215  27.538  12.370
43085W        W 8246  37.389   1.878   2.774
43086W        W 8247   3.110   5.175  12.797
43087W        W 8248  15.651  43.006  11.379
43088W        W 8249  12.293   8.907  14.280
43089W        W 8250  18.097  44.631   0.667
43090W        W 8251  37.803  18.671  13.891
43091W        W 8252  32.480   7.972   3.694
43092W        W 8253  35.352  27.167   1.041
43093W        W 8254  19.628   5.622   2.223
43094W        W 8255  13.735  42.861   1.932
43095W        W 8256   4.445  43.154  11.079
43096W        W 8257   1.743  20.913   1.684
43097W        W 8258   4.741  13.892   0.400
43098W        W 8259  42.063  24.360  11.284
43099W        W 8260   8.642   2.205  14.927
43100W        W 8261  44.821  43.519  14.419
43101W        W 8262  15.257   2.389  13.349
43102W        W 8263  28.132  19.149   4.866
43103W        W 8264  23.644  29.197  14.184
43104W        W 8265  35.109  38.912   3.330
43105W        W 8266  13.338  24.629   4.946
43106W        W 8267  13.353  16.117  12.974
43107W        W 8268  17.555   4.872   1.242
43108W        W 8269  15.641  41.456   2.209
43109W        W 8270  42.477  26.143  14.321
43110W        W 8271  32.075  26.358   2.893
43111W        W 8272  33.950  21.302   4.156
43112W        W 8273  36.641  16.698  10.720
43113W        W 8274  35.453  13.829   0.327
43114W        W 8275   7.990  42.122  12.959
43115W        W 8276  33.109  24.431   0.959
43116W        W 8277  23.691  34.080  11.521
43117W        W 8278  14.158   7.022  13.400
43118W        W 8279  10.790  10.923  14.443
43119W        W 8280  25.625  17.199  12.951
43120W        W 8281  11.307   9.288   2.918
43121W        W 8282   9.879   4.527  14.378
43122W        W 8283  21.807  39.137   4.229
43123W        W 8284  15.913  36.326  14.956
43124W        W 8285  28.491  28.320  14.759
43125W        W 8286  38.770   0.788  12.084
43126W        W 8287  34.563   8.106  11.715
43127W        W 8288  23.933  30.897  13.459
43128W        W 8289  30.120  25.544  11.110
43129W        W 8290  22.735  18.558  11.174
43130W        W 8291  17.329  23.829   0.090
43131W        W 8292  18.172   8.759  13.481
43132W        W 8293  27.859  32.046   2.706
43133W        W 8294  41.507   6.906   4.590
43134W        W 8295  29.154  18.816   4.246
43135W        W 8296  15.239   1.700  13.920
43136W        W 8297  31.911  28.104  13.536
43137W        W 8298  19.504  25.263  14.702
43138W        W 8299   3.277  33.524   0.474
43139W        W 8300   9.759   9.890  13.368
43140W        W 8301  13.220  12.675  14.044
43141W        W 8302  33.560  30.369   3.137
43142W        W 8303  31.209  29.579  11.294
43143W        W 8304   3.760   8.489  11.187
43144W        W 8305  26.259  21.314   9.732
43145W        W 8306   2.728  26.572   2.075
43146W        W 8307  38.916  24.665   3.647
43147W        W 8308  21.681  16.071   4.983
43148W        W 8309  23.257   4.566   2.853
43149W        W 8310   0.375  40.540   4.210
43150W        W 8311  28.587   4.378   4.517
43151W        W 8312  24.257  10.952  13.067
43152W        W 8313  38.313  23.930  12.082
43153W        W 8314  21.272  41.046  13.050
43154W        W 8315  40.308  36.529   0.254
43155W        W 8316  11.251  24.524   4.254
43156W        W 8317  40.769  41.012  14.880
43157W        W 8318  34.019   0.472   4.347
43158W        W 8319  39.774  23.679  12.450
43159W        W 8320  27.596   1.298   1.246
43160W        W 8321   0.005  31.005   1.943
43161W        W 8322  18.217  29.502   4.203
43162W        W 8323  23.772  19.113   3.117
43163W        W 8324  12.250   5.906  12.909
43164W        W 8325  36.868   8.733  11.642
43165W        W 8326  40.318  15.183   3.850
43166W        W 8327  10.364  44.256   0.305
43167W        W 8328  34.025  39.319  14.371
43168W        W 8329  37.259  18.094   2.631
43169W        W 8330  13.817  39.672   2.941
43170W        W 8331  41.478   1.664  11.546
43171W        W 8332  11.189   9.806   4.697
43172W        W 8333  14.527  32.561   4.529
43173W        W 8334  15.911   4.455   2.852
43174W        W 8335  43.903  33.518   1.197
43175W        W 8336  37.278  30.116  11.451
43176W        W 8337  37.616  34.802   0.866
43177W        W 8338   0.913  35.869  11.563
43178W        W 8339   6.793  30.364  12.170
43179W        W 8340   0.464  40.111  14.256
43180W        W 8341   3.525  18.738  14.537
43181W        W 8342   4.483  13.686   2.847
43182W        W 8343  44.274   5.170   3.243
43183W        W 8344   3.615  32.498   3.156
43184W        W 8345  30.529  12.888  12.538
43185W        W 8346  37.995   8.335   1.423
43186W        W 8347   6.378   6.330  13.823
43187W        W 8348  16.123  24.838   5.093
43188W        W 8349   7.544   9.481  14.036
43189W        W 8350  24.218  26.966   2.725
43190W        W 8351  20.109  18.871  12.140
43191W        W 8352   8.274  27.709  10.724
43192W        W 8353  27.908  18.705   4.581
43193W        W 8354   3.515  44.211   4.163
43194W        W 8355  37.533  23.601   4.767
43195W        W 8356  28.365  10.078   2.915
43196W        W 8357  31.927  43.375   2.881
43197W        W 8358  15.622  43.509   4.620
43198W        W 8359  43.055  11.556   3.296
43199W        W 8360  43.686  41.077  13.411
43200W        W 8361  44.296  36.299  14.056
43201W        W 8362  22.137  38.891   4.514
43202W        W 8363  21.329  26.522   4.538
43203W        W 8364  12.429  39.841   0.006
43204W        W 8365  36.590  25.478  13.973
43205W        W 8366  38.573  43.005  12.037
43206W        W 8367   1.406  25.958   3.239
43207W        W 8368  14.358  14.185   0.963
43208W        W 8369  23.537  26.321  13.398
43209W        W 8370  18.884   4.166   0.595
43210W        W 8371  28.425  19.531  14.071
43211W        W 8372  23.253  24.116  11.609
43212W        W 8373  17.221  18.011   3.680
43213W        W 8374   9.015  37.898   1.423
43214W        W 8375   4.436  36.249  12.850
43215W        W 8376   9.530  32.471   1.053
43216W        W 8377  15.135  17.376  12.077
43217W        W 8378   9.964  38.553  14.351
43218W        W 8379  41.481  17.543   2.705
43219W        W 8380   6.455  25.276   0.286
43220W        W 8381   6.600   2.371   1.790
43221W        W 8382  23.748  32.088   2.889
43222W        W 8383  28.148  15.621   1.038
43223W        W 8384  12.734  39.192   4.243
43224W        W 8385  27.684   5.849  13.517
43225W        W 8386  36.912  20.054   3.758
43226W        W 8387  24.533  42.518  12.988
43227W        W 8388   3.444  38.382  13.007
43228W        W 8389  20.517  30.602   3.762
43229W        W 8390  13.313  40.308   3.307
43230W        W 8391  17.714  12.548   3.648
43231W        W 8392  28.920  25.473   3.746
43232W        W 8393  31.282   8.216  11.949
43233W        W 8394  19.145  18.760   4.544
43234W        W 8395  20.589  10.317  11.263
43235W        W 8396  17.186  32.351   2.338
43236W        W 8397  37.850   1.438  12.308
43237W        W 8398   3.839  34.666  10.622
43238W        W 8399  20.461   8.091   2.418
43239W        W 8400  19.152   9.769   3.144
43240W        W 8401  38.969  41.027  14.360
43241W        W 8402  15.876  32.984  12.760
43242W        W 8403  19.599  44.523   3.272
43243W        W 8404  15.064  25.214  11.242
43244W        W 8405   8.429   5.066   1.801
43245W        W 8406  42.665  30.078  13.562
43246W        W 8407  33.968   3.907   1.441
43247W        W 8408  31.861  41.340  12.029
43248W        W 8409   5.201  24.160   4.187
43249W        W 8410  29.340  42.578  14.954
43250W        W 8411   6.630  42.298  12.996
43251W        W 8412  30.257  36.941   0.239
43252W        W 8413  21.102  27.890   1.195
43253W        W 8414  31.703  36.766  11.148
43254W        W 8415  36.842  34.852   2.900
43255W        W 8416  41.740  41.527   2.483
43256W        W 8417   5.155  21.389   4.693
43257W        W 8418   2.305   2.429   1.239
43258W        W 8419  21.186  18.798  14.285
43259W        W 8420  25.466  43.082  12.390
43260W        W 8421   3.847  41.982   2.337
43261W        W 8422  22.792  34.211   4.636
43262W        W 8423  31.671   5.704  10.801
43263W        W 8424  37.963  20.460  14.291
43264W        W 8425  30.363   8.881  14.470
43265W        W 8426  16.494  35.801  12.184
43266W        W 8427   1.485  15.799  11.699
43267W        W 8428  14.180  32.799   4.169
43268W        W 8429  37.878  37.550   3.905
43269W        W 8430   1.779  32.081   4.169
43270W        W 8431   2.217  42.250  13.340
43271W        W 8432   6.736  28.036   3.142
43272W        W 8433  17.462  13.360  12.422
43273W        W 8434  17.406  20.480   4.937
43274W        W 8435  38.318  11.464   0.737
43275W        W 8436  41.009   1.549   3.318
43276W        W 8437  13.772  21.084   0.905
43277W        W 8438  41.947  43.819   2.911
43278W        W 8439  39.697  41.799  11.117
43279W        W 8440  12.759  25.888  11.160
43280W        W 8441  41.513   2.962   1.870
43281W        W 8442  14.052  28.047   0.582
43282W        W 8443  31.028  41.513  14.907
43283W        W 8444   4.151  10.197   0.254
43284W        W 8445  36.294   9.318  12.447
43285W        W 8446  17.193   6.057   1.913
43286W        W 8447  41.533  14.228  10.775
43287W        W 8448  21.658  29.136  13.797
43288W        W 8449  18.684  41.428   2.287
43289W        W 8450  42.701  14.761   0.510
43290W        W 8451  37.974   0.423   0.201
43291W        W 8452  40.530  37.058  12.497
43292W        W 8453  13.145  22.319  12.052
43293W        W 8454  17.658   8.484   3.227
43294W        W 8455   1.496   0.028  13.771
43295W        W 8456  26.037  33.599  14.414
43296W        W 8457   1.915  15.061   0.074
43297W        W 8458  34.024  33.943   0.984
43298W        W 8459  41.997   7.361   2.016
43299W        W 8460  40.768   8.543  14.272
43300W        W 8461  37.277  20.955  10.763
43301W        W 8462  37.105  41.551  13.942
43302W        W 8463   0.972  39.944  13.080
43303W        W 8464  27.994  17.477   0.909
43304W        W 8465  20.752  40.363   3.294
43305W        W 8466  22.608  22.071   2.023
43306W        W 8467  21.486   9.864  12.089
43307W        W 8468  17.672  30.986   3.685
43308W        W 8469  29.717  37.093   0.136
43309W        W 8470  35.697  43.528  12.438
43310W        W 8471  14.707  24.230   4.969
43311W        W 8472  23.203   4.885   3.261
43312W        W 8473  19.667   8.152  12.508
43313W        W 8474  10.656   3.391   4.994
43314W        W 8475  15.261  22.513  11.965
43315W        W 8476  12.317   7.407   3.182
43316W        W 8477   5.855   2.346   1.293
43317W        W 8478  40.195   2.418   0.298
43318W        W 8479  30.587   5.835  14.533
43319W        W 8480  27.363  26.131   4.677
43320W        W 8481   8.250  15.913   3.689
43321W        W 8482  14.853   6.462  11.094
43322W        W 8483  24.483  29.486   4.024
43323W        W 8484  32.881  21.927   0.429
43324W        W 8485  29.594  23.038   3.237
43325W        W 8486  34.904  14.970  12.668
43326W        W 8487   7.836  16.168   1.918
43327W        W 8488   0.240  31.457   0.883
43328W        W 8489  17.909   7.769   0.425
43329W        W 8490   5.653  30.354  12.035
43330W        W 8491  25.184  44.905  12.068
43331W        W 8492  42.349   3.701   3.710
43332W        W 8493   5.340   4.609   1.316
43333W        W 8494   2.666  21.538   1.387
43334W        W 8495  43.709  20.063   0.839
43335W        W 8496   8.202  18.835  10.579
43336W        W 8497  40.791  25.882  10.768
43337W        W 8498   4.933  16.745  13.703
43338W        W 8499  39.050  21.030   2.695
43339W        W 8500   3.809   9.468   1.886
43340W        W 8501   3.475  17.708   0.974
43341W        W 8502  10.603  18.439  11.049
43342W        W 8503  44.401   3.312  13.011
43343W        W 8504  16.342  32.626  12.000
43344W        W 8505  26.101  15.691   1.136
43345W        W 8506  28.204  12.738   4.481
43346W        W 8507  41.924   8.971   1.919
43347W        W 8508  31.939  18.923   3.218
43348W        W 8509  23.537  13.269   1.243
43349W        W 8510  37.584  25.468   3.516
43350W        W 8511  19.756   9.720   4.954
43351W        W 8512   1.907  20.897  14.520
43352W        W 8513  25.924  22.231  13.956
43353W        W 8514  31.647  21.651  11.903
43354W        W 8515   8.303  12.001  11.949
43355W        W 8516  10.689  30.885  11.282
43356W        W 8517  29.147  25.055  14.879
43357W        W 8518   7.858   8.754   0.800
43358W        W 8519  14.626  12.377  12.100
43359W        W 8520  42.478  19.710   0.087
43360W        W 8521  20.726  40.407   4.649
43361W        W 8522  21.029  10.419   3.682
43362W        W 8523  35.114  17.532  14.833
43363W        W 8524  26.768  10.388   0.270
43364W        W 8525  28.039  28.188  12.008
43365W        W 8526  31.579  20.444  13.194
43366W        W 8527   4.367  34.982   2.322
43367W        W 8528  42.922  27.689   4.256
43368W        W 8529  40.575  11.962  10.231
43369W        W 8530  34.622   9.253   1.826
43370W        W 8531  38.890  29.541   2.940
43371W        W 8532  37.118  12.746  13.530
43372W        W 8533  41.256  20.191   4.791
43373W        W 8534  28.709  26.167   2.758
43374W        W 8535   1.774   6.295  14.952
43375W        W 8536   9.233   4.860   1.158
43376W        W 8537  33.795  41.061   1.869
43377W        W 8538  39.964  20.743   2.377
43378W        W 8539  44.983   3.048  14.887
43379W        W 8540  38.366  17.391  11.655
43380W        W 8541  40.798   7.279   4.086
43381W        W 8542  12.382  21.690   4.417
43382W        W 8543  13.450  32.357   4.539
43383W        W 8544  29.033  41.900   4.662
43384W        W 8545  44.390  33.122   4.099
43385W        W 8546  33.112   4.213   1.984
43386W        W 8547  32.504  11.927   1.923
43387W        W 8548   3.860   1.824   4.458
43388W        W 8549  21.640  14.055   3.372
43389W        W 8550   8.635  40.316   1.432
43390W        W 8551  18.286   6.450   3.674
43391W        W 8552  17.163  39.322   0.341
43392W        W 8553  25.471  11.182   1.693
43393W        W 8554  44.954  35.364  10.256
43394W        W 8555  40.506  20.190  14.823
43395W        W 8556  39.645  14.636   1.850
43396W        W 8557   8.734   4.440  10.731
43397W        W 8558  20.276   1.929  14.684
43398W        W 8559   5.168   3.361  13.956
43399W        W 8560  12.638  17.922   4.920
43400W        W 8561  35.440  26.517  10.709
43401W        W 8562  15.261  15.493  11.589
43402W        W 8563  43.790  30.829  14.938
43403W        W 8564  26.130  16.479  13.059
43404W        W 8565  39.934  25.837   3.538
43405W        W 8566  36.423  22.653   4.088
43406W        W 8567   0.671  39.159  13.537
43407W        W 8568   4.588  37.532   0.177
43408W        W 8569   1.084  23.875  14.660
43409W        W 8570  22.630   7.304   0.949
43410W        W 8571  19.511   7.655  12.475
43411W        W 8572  19.748   9.685   3.896
43412W        W 8573  33.435  21.311  12.947
43413W        W 8574  43.731  30.154  10.701
43414W        W 8575  31.310  41.283  12.053
43415W        W 8576  11.294  23.919  12.457
43416W        W 8577  21.876  24.650   3.618
43417W        W 8578  43.468  41.924  11.053
43418W        W 8579  29.455  16.323   1.497
43419W        W 8580  39.826  36.670   0.392
43420W        W 8581   1.237   0.809   2.215
43421W        W 8582   6.410   3.823  10.566
43422W        W 8583   8.281  34.421   2.329
43423W        W 8584   7.783  11.059  12.843
43424W        W 8585  27.479  26.865  14.527
43425W        W 8586  17.686  43.826  11.584
43426W        W 8587   6.666  20.288  13.364
43427W        W 8588  28.307   5.750  14.410
43428W        W 8589  11.755   5.089  11.964
43429W        W 8590  36.144  32.164   2.349
43430W        W 8591  17.130  27.646   3.875
43431W        W 8592  17.552   3.307   4.820
43432W        W 8593  27.598  37.592  13.509
43433W        W 8594  36.069   4.979   3.625
43434W        W 8595  32.954   7.938  11.658
43435W        W 8596  23.031  32.998   1.235
43436W        W 8597   4.914   7.540   4.190
43437W        W 8598   5.518   6.248  11.155
43438W        W 8599  23.627   6.872  12.526
43439W        W 8600  36.261  30.013   1.410
43440W        W 8601  16.170  16.894   5.466
43441W        W 8602  26.630  27.643  14.012
43442W        W 8603  26.997  14.059   4.001
43443W        W 8604  12.134  36.151  10.776
43444W        W 8605  32.987  18.547  12.037
43445W        W 8606   9.130  36.926  13.270
43446W        W 8607  29.627   9.984  11.837
43447W        W 8608  34.064  22.091  11.116
43448W        W 8609  19.810   7.743  11.103
43449W        W 8610   9.880  33.540   0.616
43450W        W 8611  15.086  12.136  12.007
43451W        W 8612   3.943  17.411   0.812
43452W        W 8613  43.448   1.403  14.214
43453W        W 8614  32.101  22.903   0.489
43454W        W 8615   7.875   2.253  12.465
43455W        W 8616  37.495  11.928  10.661
43456W        W 8617  42.832   8.820   1.923
43457W        W 8618  42.823  29.166   1.442
43458W        W 8619   0.145  27.025   3.676
43459W        W 8620  42.515  22.178  12.342
43460W        W 8621  40.751   2.389   3.260
43461W        W 8622  30.014  19.204   3.188
43462W        W 8623  12.649  38.308   4.150
43463W        W 8624  14.703  38.042   2.049
43464W        W 8625  27.200  16.114  14.407
43465W        W 8626   7.252  30.171   5.878
43466W        W 8627  41.061  31.487  11.961
43467W        W 8628  19.018  23.429  11.252
43468W        W 8629  41.516  41.593  13.042
43469W        W 8630  33.959  44.282  11.614
43470W        W 8631  40.317  23.126   0.277
43471W        W 8632  37.416  24.774  10.265
43472W        W 8633  39.195  30.346  11.468
43473W        W 8634  44.306  43.712   4.246
43474W        W 8635  25.498  37.574  13.574
43475W        W 8636  40.560  18.523  11.589
43476W        W 8637  35.113   8.261   3.559
43477W        W 8638   7.206  17.865  11.525
43478W        W 8639  13.781  28.960  13.423
43479W        W 8640  10.759  20.613   1.000
43480W        W 8641  44.362  28.592   2.703
43481W        W 8642   5.811   3.906   2.549
43482W        W 8643  21.759  21.056  12.970
43483W        W 8644  30.402   7.250  12.354
43484W        W 8645  12.254  18.073  10.810
43485W        W 8646  18.261   3.448   3.100
43486W        W 8647  12.893  12.168   4.062
43487W        W 8648  12.228  35.534   0.802
43488W        W 8649  32.914  10.078  14.122
43489W        W 8650  34.164  32.559  13.066
43490W        W 8651  14.562  44.354   4.527
43491W        W 8652  34.997  17.606   4.165
43492W        W 8653  30.544  21.393   9.829
43493W        W 8654  19.708   1.257  13.868
43494W        W 8655  38.080  41.467   3.552
43495W        W 8656  16.715  40.983   9.729
43496W        W 8657  29.473  22.259  14.683
43497W        W 8658   2.236  19.772   2.005
43498W        W 8659  41.271  44.910  13.350
43499W        W 8660  10.207  32.986  10.951
43500W        W 8661  19.710   4.245  12.529
43501W        W 8662   3.335  23.649  11.517
43502W        W 8663  44.026  13.513  11.627
43503W        W 8664  41.520  14.323   3.676
43504W        W 8665  15.480   3.140  13.529
43505W        W 8666  41.373  16.117   2.426
43506W        W 8667   9.018   9.696   0.655
43507W        W 8668   1.975  32.192  14.010
43508W        W 8669  17.160   8.618  14.767
43509W        W 8670   5.340   2.398  12.297
43510W        W 8671  15.895  26.138  14.969
43511W        W 8672  21.428  11.184  13.021
43512W        W 8673   8.614  27.011  13.821
43513W        W 8674   9.124  25.228  10.591
43514W        W 8675  28.800  36.942   9.885
43515W        W 8676  36.222  18.839   5.116
43516W        W 8677  33.562  24.172   4.206
43517W        W 8678  20.707  18.740   0.644
43518W        W 8679  15.769  36.799   4.602
43519W        W 8680  41.470  33.048   4.698
43520W        W 8681  26.622   0.584   1.302
43521W        W 8682  16.718  39.787  13.012
43522W        W 8683  30.474  30.125  14.091
43523W        W 8684  42.472  13.148  12.909
43524W        W 8685   2.502  31.972   1.339
43525W        W 8686  42.077  35.866   0.436
43526W        W 8687  20.231  26.016  11.646
43527W        W 8688  13.531  31.669  13.158
43528W        W 8689  26.163  36.707   5.092
43529W        W 8690  16.820  27.168   0.530
43530W        W 8691  36.411  21.744  10.595
43531W        W 8692  16.544   2.786   0.236
43532W        W 8693  13.600  32.383  10.676
43533W        W 8694   5.148  14.879  12.917
43534W        W 8695   3.904  38.906   3.680
43535W        W 8696  11.068   0.438   4.984
43536W        W 8697  21.176   3.410  14.489
43537W        W 8698   3.253  15.489   1.405
43538W        W 8699  31.107  14.593  11.986
43539W        W 8700   3.150  43.291   1.400
43540W        W 8701  38.604  40.768  11.886
43541W        W 8702  29.711   0.873  12.289
43542W        W 8703   8.807  16.285  13.937
43543W        W 8704  19.852  23.034   4.781
43544W        W 8705  21.966  38.495   5.439
43545W        W 8706  20.673   2.702   3.909
43546W        W 8707  28.244  18.848   0.008
43547W        W 8708   1.386  25.435  12.629
43548W        W 8709  36.037  10.367   1.970
43549W        W 8710  39.876   8.182  13.078
43550W        W 8711  26.319  36.667   1.330
43551W        W 8712  31.637  17.279  12.163
43552W        W 8713  43.970  30.595   4.765
43553W        W 8714   7.611  14.747   0.274
43554W        W 8715  30.856  24.571  10.949
43555W        W 8716  43.494   5.334  14.025
43556W        W 8717  43.380  25.697   3.188
43557W        W 8718  15.587   0.836  11.078
43558W        W 8719  41.582   0.383   0.904
43559W        W 8720  29.502  20.715  12.034
43560W        W 8721  30.110  33.748   1.011
43561W        W 8722   6.475  23.411   4.196
43562W        W 8723  39.299  35.898  11.225
43563W        W 8724  32.589  22.363   2.721
43564W        W 8725  13.200  38.294  11.097
43565W        W 8726  33.357   3.233  14.425
43566W        W 8727  42.510  12.075  13.928
43567W        W 8728  28.377  42.782   2.697
43568W        W 8729   3.471   9.355  14.799
43569W        W 8730  44.346  28.163  14.833
43570W        W 8731  10.853  26.495  13.319
43571W        W 8732  37.060  40.606   3.268
43572W        W 8733  12.112  39.479   4.747
43573W        W 8734  34.468  40.794  13.004
43574W        W 8735   0.456  34.064   3.207
43575W        W 8736  33.576  42.473  14.679
43576W        W 8737   4.492  44.924  11.400
43577W        W 8738  30.966  36.930  10.404
43578W        W 8739   1.144   8.187  13.880
43579W        W 8740  32.968  44.485  10.584
43580W        W 8741   2.660  24.506  10.396
43581W        W 8742   6.607  13.321   3.592
43582W        W 8743  42.776  40.365  12.883
43583W        W 8744  12.366  37.960   0.969
43584W        W 8745  22.148  32.088   1.892
43585W        W 8746  11.309   6.932  14.303
43586W        W 8747   7.103   6.945  11.619
43587W        W 8748   2.982  16.714  13.513
43588W        W 8749  28.504  14.553  10.887
43589W        W 8750  28.048   6.399  12.002
43590W        W 8751  21.272  39.878  10.534
43591W        W 8752  18.519  33.633   3.909
43592W        W 8753  31.961  12.966   4.372
43593W        W 8754  31.055   1.899  13.723
43594W        W 8755  33.020   4.968  14.503
43595W        W 8756  44.471  15.221   0.809
43596W        W 8757  32.427   0.464  13.852
43597W        W 8758   2.909  40.311   3.662
43598W        W 8759  19.510  32.735  12.092
43599W        W 8760  41.304  14.587   2.380
43600W        W 8761  44.954   9.976  13.153
43601W        W 8762   0.548  10.421  13.372
43602W        W 8763  41.831  16.873   2.401
43603W        W 8764  29.922  27.795  10.426
43604W        W 8765   9.331  24.080   0.427
43605W        W 8766  40.895  34.894  11.432
43606W        W 8767  19.254  36.333  14.776
43607W        W 8768  40.439  36.973   1.712
43608W        W 8769  32.384  40.481  13.948
43609W        W 8770  42.919  15.229   3.799
43610W        W 8771   5.469   1.196  13.890
43611W        W 8772  41.164  21.769  14.904
43612W        W 8773  26.044   5.092   1.140
43613W        W 8774   8.642  14.106  12.532
43614W        W 8775  40.808  15.298  14.278
43615W        W 8776  28.468  19.949  14.467
43616W        W 8777   3.224  15.671  11.571
43617W        W 8778   2.745  38.318  14.374
43618W        W 8779  42.548  28.184  11.131
43619W        W 8780  37.112  17.252   1.577
43620W        W 8781  25.036  36.880   2.776
43621W        W 8782  36.586  43.937   4.628
43622W        W 8783  28.485  34.879  14.003
43623W        W 8784  30.062   3.749   2.966
43624W        W 8785   4.870  33.627  13.382
43625W        W 8786  28.024   0.570   3.914
43626W        W 8787  43.298   4.704   3.642
43627W        W 8788  25.656  31.394  13.315
43628W        W 8789  21.625  12.803   1.976
43629W        W 8790  27.641  34.977  14.567
43630W        W 8791  37.027  40.613  12.837
43631W        W 8792  15.234   5.761  10.627
43632W        W 8793  44.703   5.465  11.644
43633W        W 8794   8.455   4.988  12.502
43634W        W 8795  16.611  42.963  11.540
43635W        W 8796   3.997  18.713  11.976
43636W        W 8797  39.100  18.968  11.119
43637W        W 8798  37.644  38.242  11.911
43638W        W 8799  41.797   6.124  14.206
43639W        W 8800  11.168  26.294   3.904
43640W        W 8801  30.950  40.718   2.271
43641W        W 8802  10.321  26.447   2.372
43642W        W 8803  19.455  43.906  10.220
43643W        W 8804  36.437  24.940  11.401
43644W        W 8805  27.068  35.981   2.684
43645W        W 8806  44.973   6.698   1.921
43646W        W 8807  13.359  23.982   3.738
43647W        W 8808   7.853  22.675  10.646
43648W        W 8809   3.750  19.567  14.385
43649W        W 8810  16.315  20.307  11.078
43650W        W 8811   5.084   2.170  14.365
43651W        W 8812   7.944  33.686   0.716
43652W        W 8813  35.399  29.235  11.423
43653W        W 8814  29.670  16.270  11.154
43654W        W 8815  33.106  39.214  12.595
43655W        W 8816  18.274   6.347  13.884
43656W        W 8817  29.206  41.507   1.239
43657W        W 8818  29.161   1.763   5.089
43658W        W 8819  22.122  44.402  13.275
43659W        W 8820  41.975  18.634   1.455
43660W        W 8821  33.589   3.420  13.952
43661W        W 8822  10.115   2.065  13.541
43662W        W 8823   5.262  35.626  12.447
43663W        W 8824  11.688  29.728   1.534
43664W        W 8825  44.536  38.051  13.451
43665W        W 8826  33.592   7.562  10.689
43666W        W 8827  36.930  25.072  13.392
43667W        W 8828  29.065  34.138  11.927
43668W        W 8829  10.994  32.246   4.525
43669W        W 8830  27.545  15.831   4.162
43670W        W 8831  41.572   3.787   0.977
43671W        W 8832  29.357  26.226  13.296
43672W        W 8833  32.525  31.924   5.055
43673W        W 8834  22.644  22.663   0.325
43674W        W 8835  37.048  31.417   3.608
43675W        W 8836  33.502  16.644   0.817
43676W        W 8837  44.022  16.180   0.409
43677W        W 8838  16.272   5.410   1.946
43678W        W 8839  39.479  10.296  13.506
43679W        W 8840   2.013  15.666  14.424
43680W        W 8841  30.430   3.683   0.667
43681W        W 8842   8.855  15.115  10.587
43682W        W 8843   9.611   1.420  13.057
43683W        W 8844  35.418   9.774   1.783
43684W        W 8845  37.318   9.896  14.334
43685W        W 8846  24.714  23.560   2.818
43686W        W 8847  24.083   5.718  12.201
43687W        W 8848   4.352  36.647  13.803
43688W        W 8849  27.075  14.787  14.784
43689W        W 8850  39.408  38.551  14.916
43690W        W 8851  40.540   4.366  10.676
43691W        W 8852  19.066  31.066  14.868
43692W        W 8853  12.655  20.960   2.704
43693W        W 8854  12.591  22.188   1.216
43694W        W 8855   4.918   2.523   1.256
43695W        W 8856  15.323  41.740  12.590
43696W        W 8857  26.630  11.238   0.541
43697W        W 8858  14.307   1.421   3.811
43698W        W 8859   4.462  33.416  12.828
43699W        W 8860  30.240  14.468  11.149
43700W        W 8861  20.284  18.087   2.140
43701W        W 8862  13.829  42.259  14.059
43702W        W 8863  26.537   3.440   3.611
43703W        W 8864  40.273  24.029  14.245
43704W        W 8865   7.818  18.861   4.586
43705W        W 8866  24.206   0.229   1.517
43706W        W 8867  28.058  34.909   3.210
43707W        W 8868  30.447  36.978  11.544
43708W        W 8869  12.294  35.147  10.681
43709W        W 8870  12.372  22.607  10.742
43710W        W 8871   1.972  18.736   1.194
43711W        W 8872  19.224  33.528   2.793
43712W        W 8873  34.996  41.797  11.163
43713W        W 8874  36.460  15.698  14.462
43714W        W 8875  40.253  31.262   0.535
43715W        W 8876  14.608  21.094   0.747
43716W        W 8877  21.843  24.479   1.292
43717W        W 8878  16.308  44.356   4.770
43718W        W 8879  40.486   2.173   4.207
43719W        W 8880   4.674  42.426  14.454
43720W        W 8881  23.888  31.615   2.723
43721W        W 8882  41.810  39.870  12.345
43722W        W 8883  38.048  17.573  12.886
43723W        W 8884  27.741  32.422  12.952
43724W        W 8885  38.943   9.637   3.413
43725W        W 8886   1.438  21.238   1.404
43726W        W 8887  33.104  10.198  11.555
43727W        W 8888  31.648  22.126   1.809
43728W        W 8889  29.286  35.461  13.309
43729W        W 8890  39.883  11.104   4.139
43730W        W 8891   8.884  41.016   4.221
43731W        W 8892  28.375  11.227  13.369
43732W        W 8893   3.525  15.209   3.299
43733W        W 8894  17.927   4.933  14.998
43734W        W 8895  36.920  21.454  12.847
43735W        W 8896   8.180  31.365   4.172
43736W        W 8897  25.663   2.409   2.195
43737W        W 8898  33.037  27.175   0.328
43738W        W 8899  37.317   2.702  11.583
43739W        W 8900  20.040   6.464   2.206
43740W        W 8901   5.184  33.563   4.112
43741W        W 8902  39.491  27.138   1.508
43742W        W 8903  29.007  41.656  13.362
43743W        W 8904  14.590  27.626   4.146
43744W        W 8905   6.194  12.310   3.213
43745W        W 8906   5.236   0.537   0.247
43746W        W 8907  36.413  27.543   3.428
43747W        W 8908  23.817  10.866   3.670
43748W        W 8909  33.157  12.815   1.899
43749W        W 8910  24.237  29.548   0.444
43750W        W 8911  44.540  33.096  12.854
43751W        W 8912  43.431  21.461   3.273
43752W        W 8913  33.632   6.169  14.572
43753W        W 8914  28.202  29.586   1.760
43754W        W 8915  11.300  16.367   2.294
43755W        W 8916  15.354  43.391   0.113
43756W        W 8917  18.648  23.382   4.090
43757W        W 8918  25.699  15.397   4.205
43758W        W 8919  22.229   2.706   1.271
43759W        W 8920   9.782  27.298  12.005
43760W        W 8921  32.392  11.594  11.090
43761W        W 8922   7.720  21.835  14.391
43762W        W 8923  27.716  27.173  11.694
43763W        W 8924  20.054  22.303  10.960
43764W        W 8925  24.991  42.413   3.106
43765W        W 8926  34.403  44.252   2.614
43766W        W 8927  11.092  13.978   4.562
43767W        W 8928  10.232  12.809  12.566
43768W        W 8929  24.139  25.107  11.775
43769W        W 8930  42.754   4.689   3.657
43770W        W 8931  22.283  30.833  11.619
43771W        W 8932  23.244  25.512  12.002
43772W        W 8933  42.455   9.816  11.997
43773W        W 8934  23.855   8.964   0.141
43774W        W 8935  19.893  30.104  12.748
43775W        W 8936  15.526  18.685   9.729
43776W        W 8937  43.611  21.212  13.540
43777W        W 8938  21.558  27.476  10.907
43778W        W 8939  16.895   6.586   3.970
43779W        W 8940   6.131   1.722   5.005
43780W        W 8941  10.260  15.516  10.045
43781W        W 8942  27.630  27.166   4.184
43782W        W 8943   9.772   5.174   1.820
43783W        W 8944  16.046   9.139  14.155
43784W        W 8945  38.594  14.579  11.866
43785W        W 8946  30.503  18.066   0.993
43786W        W 8947  27.471   6.672  11.390
43787W        W 8948  20.020  42.718   3.198
43788W        W 8949  11.351  24.974  12.501
43789W        W 8950  41.732   1.279   2.280
43790W        W 8951   3.832  21.612   4.635
43791W        W 8952  15.869  25.908   2.141
43792W        W 8953  42.187  39.355   3.618
43793W        W 8954  15.283  11.866   3.356
43794W        W 8955  30.575  40.243   0.864
43795W        W 8956  11.100  19.517   1.803
43796W        W 8957  23.574  17.677  13.209
43797W        W 8958  39.818  43.454  12.891
43798W        W 8959  23.436  42.936  12.424
43799W        W 8960  29.633  43.582  13.113
43800W        W 8961  23.137  10.566   0.831
43801W        W 8962  16.397  44.660  13.924
43802W        W 8963  29.355  33.931   3.773
43803W        W 8964   6.128  40.705   0.651
43804W        W 8965  35.980  27.094   4.109
43805W        W 8966   8.707   6.808  10.495
43806W        W 8967  36.163   6.357  12.946
43807W        W 8968  36.577  35.974   2.904
43808W        W 8969  14.108  41.328  11.491
43809W        W 8970  33.884  13.337  10.586
43810W        W 8971   6.714  37.469   3.330
43811W        W 8972  42.317  38.052   1.304
43812W        W 8973   2.313  29.711  14.550
43813W        W 8974   2.286   7.919   2.277
43814W        W 8975  35.459  17.991   4.560
43815W        W 8976  18.217  37.381  14.902
43816W        W 8977  29.364  24.591  14.793
43817W        W 8978  30.022  37.965  10.463
43818W        W 8979  19.289  40.982   3.746
43819W        W 8980  40.550  34.589   3.318
43820W        W 8981  28.040  36.501   2.604
43821W        W 8982  42.813  21.062   2.753
43822W        W 8983  16.752  30.698  11.608
43823W        W 8984  10.900   8.520   1.429
43824W        W 8985   0.439   8.458  13.425
43825W        W 8986  39.809  18.479  10.572
43826W        W 8987  23.683  13.723  14.010
43827W        W 8988  11.994  28.764  11.477
43828W        W 8989  14.723  10.752  12.448
43829W        W 8990  13.685  12.531  10.759
43830W        W 8991  18.993  41.251  13.987
43831W        W 8992  30.629  27.423   3.764
43832W        W 8993   1.315  40.337  14.701
43833W        W 8994   9.363  38.471   0.920
43834W        W 8995   6.259   3.979   4.181
43835W        W 8996   9.556  11.385  12.831
43836W        W 8997  18.492  20.210  11.662
43837W        W 8998  41.353  15.300   0.951
43838W        W 8999  34.858  44.042   2.481
43839W        W 9000  28.518  36.356   4.728
43840W        W 9001  35.946  35.406  14.340
43841W        W 9002  39.596  28.609   2.876
43842W        W 9003  35.562   4.854   3.892
43843W        W 9004  27.225  11.933   1.896
43844W        W 9005  39.853  15.811  10.485
43845W        W 9006   7.741  29.084  13.583
43846W        W 9007   2.617   3.698   0.231
43847W        W 9008  26.108  39.253   3.318
43848W        W 9009  39.414  39.858   4.236
43849W        W 9010  24.663  24.505  11.659
43850W        W 9011  25.493   8.631   1.823
43851W        W 9012  15.464   5.995  13.353
43852W        W 9013   3.402  37.230  13.906
43853W        W 9014  21.476  40.434   2.791
43854W        W 9015  10.028  17.656   2.575
43855W        W 9016   2.143  44.863   2.636
43856W        W 9017  43.038  29.222  13.054
43857W        W 9018  13.277  11.407   2.871
43858W        W 9019  38.453  25.097   3.324
43859W        W 9020   6.682  17.732   0.620
43860W        W 9021  35.356  19.065   1.412
43861W        W 9022  44.926  32.538  10.663
43862W        W 9023   7.752  40.012  11.301
43863W        W 9024  16.602  24.990   1.213
43864W        W 9025   0.314  18.951   2.344
43865W        W 9026  16.606  37.403   0.348
43866W        W 9027   2.417   3.371  13.487
43867W        W 9028  34.087  32.551   0.132
43868W        W 9029   0.349   8.921   3.757
43869W        W 9030   8.188  24.964   0.036
43870W        W 9031  32.399  27.799  14.231
43871W        W 9032  20.641  30.168   0.844
43872W        W 9033  33.906  44.995  12.010
43873W        W 9034  16.037  14.618  14.398
43874W        W 9035  25.108  22.511  13.706
43875W        W 9036  17.551  34.162  14.326
43876W        W 9037  22.587  13.142  13.849
43877W        W 9038   1.516  44.096  12.367
43878W        W 9039  22.204  32.114   2.430
43879W        W 9040   1.113  25.203   4.880
43880W        W 9041   5.349   9.783   4.196
43881W        W 9042  25.727  22.678  10.132
43882W        W 9043  41.928  28.678  11.728
43883W        W 9044  42.812  27.727   3.671
43884W        W 9045  20.008  28.085  14.228
43885W        W 9046  24.574  30.591   0.937
43886W        W 9047  42.061  20.086   4.204
43887W        W 9048  32.546  43.789  10.468
43888W        W 9049  23.095  37.784  11.947
43889W        W 9050   2.116  27.369   1.790
43890W        W 9051  10.278  11.914  11.823
43891W        W 9052   2.173  41.332   0.578
43892W        W 9053  31.634  10.218  12.632
43893W        W 9054  43.481  11.726   2.543
43894W        W 9055  25.680  20.174   2.767
43895W        W 9056  17.935  11.798   1.286
43896W        W 9057  40.542  23.735  14.816
43897W        W 9058   5.412   2.112   1.530
43898W        W 9059  11.299   3.626   4.779
43899W        W 9060   9.903   5.049   0.272
43900W        W 9061  34.016  21.934   5.438
43901W        W 9062  20.579  25.293   4.547
43902W        W 9063   6.160  44.606  10.203
43903W        W 9064   7.118   1.741  12.515
43904W        W 9065  24.011  39.532  14.433
43905W        W 9066   9.210  35.633  10.739
43906W        W 9067   6.982  12.320  14.074
43907W        W 9068   4.430  24.610  13.937
43908W        W 9069  43.856  11.308  11.991
43909W        W 9070   0.869   8.443   3.230
43910W        W 9071  13.859  20.730  11.258
43911W        W 9072  37.473  29.617   4.201
43912W        W 9073  32.003  34.113   1.514
43913W        W 9074  30.898  12.189   0.842
43914W        W 9075  44.834  10.821  11.908
43915W        W 9076  31.168  44.451   1.713
43916W        W 9077  30.143  31.353  11.084
43917W        W 9078  23.930  20.989   0.857
43918W        W 9079  25.990  20.716   2.298
43919W        W 9080   3.112   7.221  13.074
43920W        W 9081  41.575  33.899   0.220
43921W        W 9082  14.645   7.395   2.691
43922W        W 9083  31.699  24.244  10.865
43923W        W 9084  34.391  31.515   4.671
43924W        W 9085  29.112  25.686  11.053
43925W        W 9086  36.012  21.526   4.262
43926W        W 9087  32.586  10.228   2.694
43927W        W 9088  42.479  30.544  13.400
43928W        W 9089  34.201  20.983  14.588
43929W        W 9090  12.363  38.555  12.074
43930W        W 9091  17.099  44.686  10.598
43931W        W 9092   7.297  15.685  10.247
43932W        W 9093   3.964  16.411   0.603
43933W        W 9094   4.422  12.910   1.160
43934W        W 9095   4.139   5.740  13.389
43935W        W 9096  42.349  28.449   0.276
43936W        W 9097  28.144   2.844   0.515
43937W        W 9098  30.402  19.550   2.887
43938W        W 9099  27.701  13.192  13.364
43939W        W 9100  36.791  25.634   0.390
43940W        W 9101  17.655  15.848   1.920
43941W        W 9102  22.964  35.963   0.821
43942W        W 9103  31.319  12.362  13.605
43943W        W 9104  15.183  28.519   2.906
43944W        W 9105   1.004  44.062  13.693
43945W        W 9106  10.348  27.780   1.757
43946W        W 9107  20.132  35.031  12.607
43947W        W 9108   3.856   6.468  10.585
43948W        W 9109  22.964  32.359  13.845
43949W        W 9110  25.249   8.096  12.423
43950W        W 9111   1.053   6.371   2.845
43951W        W 9112  10.429  36.644  13.544
43952W        W 9113  16.326  22.515   0.424
43953W        W 9114   2.524  16.307  12.115
43954W        W 9115   8.296   8.498  10.770
43955W        W 9116  35.396  40.444   1.881
43956W        W 9117   3.029  25.036  12.681
43957W        W 9118  25.569  43.958  11.000
43958W        W 9119   2.551  25.398   0.982
43959W        W 9120  21.194  33.623   2.353
43960W        W 9121  15.664   3.439   3.706
43961W        W 9122  30.658  12.239  13.064
43962W        W 9123  10.832  10.422   0.590
43963W        W 9124   1.026  23.199  12.015
43964W        W 9125  27.511  32.619  11.678
43965W        W 9126   0.231  42.290   2.822
43966W        W 9127  33.602  27.562  14.537
43967W        W 9128  36.786   8.529   4.929
43968W        W 9129  14.659  11.171   4.644
43969W        W 9130  33.913  36.576   1.664
43970W        W 9131  14.175  16.644   1.216
43971W        W 9132   4.980  22.482  13.803
43972W        W 9133  33.143  37.542  11.670
43973W        W 9134  25.499  24.983   1.841
43974W        W 9135  22.596  32.941  10.775
43975W        W 9136  22.151   4.517  14.832
43976W        W 9137  27.720  23.567  14.455
43977W        W 9138  33.910  30.040  12.091
43978W        W 9139  25.479  16.258   0.269
43979W        W 9140  23.162  20.617   3.822
43980W        W 9141  43.451  20.747  13.335
43981W        W 9142   2.165  21.688   3.204
43982W        W 9143   1.517  28.635  13.019
43983W        W 9144  19.667   3.473  10.780
43984W        W 9145   7.471  37.354   1.879
43985W        W 9146  11.167  19.839   1.306
43986W        W 9147  23.029  39.773   4.381
43987W        W 9148  39.628  29.741  12.041
43988W        W 9149   1.737  44.698   1.433
43989W        W 9150  18.613  25.450   4.642
43990W        W 9151  32.681  28.242   2.444
43991W        W 9152  37.306  32.066   1.684
43992W        W 9153   8.725  25.224  12.180
43993W        W 9154  38.821  16.793   1.375
43994W        W 9155   8.092   9.248   0.837
43995W        W 9156  23.143  35.701   1.233
43996W        W 9157  24.649  25.060   0.000
43997W        W 9158   9.807  32.144  10.642
43998W        W 9159   2.829  37.044   3.291
43999W        W 9160  22.595  44.494  13.489
44000W        W 9161  36.580  38.352  10.624
44001W        W 9162  19.407   7.903  13.823
44002W        W 9163  32.503   9.979   3.585
44003W        W 9164  41.912  11.729  13.465
44004W        W 9165  26.611   7.413  12.512
44005W        W 9166  13.632   7.751   3.438
44006W        W 9167  13.676   9.405   1.741
44007W        W 9168  18.564  10.678  13.385
44008W        W 9169  22.605  29.530   3.630
44009W        W 9170  40.637  44.494  13.060
44010W        W 9171  15.591  15.672  12.871
44011W        W 9172   8.856  24.645  12.898
44012W        W 9173   2.478   6.533  12.549
44013W        W 9174  34.035  18.720  12.457
44014W        W 9175   2.519  24.128   3.194
44015W        W 9176  22.126  27.146   2.629
44016W        W 9177  34.806  44.612   3.327
44017W        W 9178  22.659  35.412  11.082
44018W        W 9179  11.739   0.074   0.939
44019W        W 9180  42.093  22.725   2.810
44020W        W 9181   5.339  15.719   1.635
44021W        W 9182  39.549  12.169   4.301
44022W        W 9183  32.848   9.183   2.213
44023W        W 9184  29.587  26.257  13.770
44024W        W 9185   4.746  41.237  13.447
44025W        W 9186   0.574  25.564  10.206
44026W        W 9187   5.730  29.141  12.581
44027W        W 9188   9.444  10.731   2.568
44028W        W 9189  19.080  13.130  13.974
44029W        W 9190  19.685   3.391  13.042
44030W        W 9191  23.348  12.732  12.822
44031W        W 9192  20.921  42.444  13.791
44032W        W 9193  37.735   5.321  11.574
44033W        W 9194  19.707  39.718   9.618
44034W        W 9195  34.796  29.060   2.778
44035W        W 9196  21.731   7.061   3.702
44036W        W 9197  10.031   8.808   3.425
44037W        W 9198  11.550   6.248  11.114
44038W        W 9199  17.247  20.484  11.496
44039W        W 9200  44.836  10.490   0.839
44040W        W 9201  14.253  29.706   2.871
44041W        W 9202  29.259  36.537   2.655
44042W        W 9203  37.325  40.075  14.667
44043W        W 9204  32.393  11.581   2.506
44044W        W 9205  14.537   9.950  14.936
44045W        W 9206  39.489  26.058   3.723
44046W        W 9207  12.136  18.163  13.277
44047W        W 9208  13.529  22.943   0.119
44048W        W 9209   0.918  20.111  13.466
44049W        W 9210  28.085  41.719  11.973
44050W        W 9211  20.336  15.794  14.970
44051W        W 9212  23.216   7.547   1.728
44052W        W 9213   5.233  29.317   0.237
44053W        W 9214  31.378  29.899   0.852
44054W        W 9215  13.203   9.899  10.858
44055W        W 9216   9.256  33.595  13.755
44056W        W 9217  35.048  27.728   3.892
44057W        W 9218  37.623  38.047  14.473
44058W        W 9219   6.098  16.325  10.584
44059W        W 9220  23.953  35.723  11.184
44060W        W 9221  32.072  31.366   4.369
44061W        W 9222   9.686  22.873   2.919
44062W        W 9223  36.436  27.610  14.618
44063W        W 9224  15.831  33.150   2.836
44064W        W 9225  19.833  26.297  14.937
44065W        W 9226  19.053   4.670  13.583
44066W        W 9227  26.110  40.922   1.890
44067W        W 9228   1.127  43.017  12.635
44068W        W 9229  31.508  31.579   2.064
44069W        W 9230  12.666  34.192  13.891
44070W        W 9231  13.194  10.444  13.724
44071W        W 9232  20.521  24.297  12.414
44072W        W 9233  13.689  39.501   2.445
44073W        W 9234  31.502   8.042  14.532
44074W        W 9235  34.605  15.795   4.096
44075W        W 9236  20.066  42.728   1.875
44076W        W 9237   6.367  17.124  14.536
44077W        W 9238  35.687   5.251   2.764
44078W        W 9239  17.820  13.390   0.995
44079W        W 9240  12.662  28.575  14.050
44080W        W 9241  39.205  19.988   4.511
44081W        W 9242   8.578  29.518  14.022
44082W        W 9243  34.081  37.482  11.548
44083W        W 9244   3.704  16.314  10.199
44084W        W 9245   2.051  25.620   3.934
44085W        W 9246  41.423  12.086   4.154
44086W        W 9247  19.245   3.668   2.400
44087W        W 9248  14.946  40.364   2.647
44088W        W 9249  16.825  30.507  13.412
44089W        W 9250  25.657  30.983   2.600
44090W        W 9251  39.989  38.567  12.066
44091W        W 9252  23.691  23.961   3.695
44092W        W 9253  13.800  42.385  11.850
44093W        W 9254  26.689  36.861   4.199
44094W        W 9255  10.285  11.756   2.198
44095W        W 9256  21.826  17.611   1.007
44096W        W 9257  35.632  38.693   0.232
44097W        W 9258   9.933   7.014   0.382
44098W        W 9259  29.040  10.313  10.603
44099W        W 9260  15.998   3.445   4.921
44100W        W 9261  33.826  34.969   3.663
44101W        W 9262  30.261  10.394   2.451
44102W        W 9263  40.469   2.548   2.853
44103W        W 9264  43.896   0.273   0.470
44104W        W 9265  43.051  40.835  12.933
44105W        W 9266   5.995  15.446   1.318
44106W        W 9267  42.033   6.927  13.240
44107W        W 9268   5.245  28.010  11.136
44108W        W 9269  17.486  17.870  14.880
44109W        W 9270  18.675   2.804   0.598
44110W        W 9271  20.166  34.629  13.550
44111W        W 9272  33.312  21.282   3.839
44112W        W 9273  27.155  25.755  14.327
44113W        W 9274  16.227  23.066  10.817
44114W        W 9275  43.942   9.381  10.616
44115W        W 9276  37.967  44.550  10.208
44116W        W 9277  24.756  23.333  10.801
44117W        W 9278  27.912   0.688   4.499
44118W        W 9279  10.147  15.761  12.908
44119W        W 9280  27.759  37.579  12.366
44120W        W 9281  44.432  27.511   3.650
44121W        W 9282   5.755  41.608  12.571
44122W        W 9283  12.470  39.001  10.231
44123W        W 9284   3.829  25.575   3.505
44124W        W 9285  34.981  28.180  13.039
44125W        W 9286   5.432  40.536   3.721
44126W        W 9287  31.930  43.236  10.548
44127W        W 9288  28.054  26.026  10.472
44128W        W 9289  30.182  41.070   4.006
44129W        W 9290  38.736  39.570  10.328
44130W        W 9291  32.593  44.370   1.659
44131W        W 9292  35.934  35.308   2.773
44132W        W 9293  17.522   3.072   0.864
44133W        W 9294  22.989   9.438  14.407
44134W        W 9295  39.012  32.916  10.766
44135W        W 9296  40.949  42.038  14.838
44136W        W 9297  26.777   8.289  14.634
44137W        W 9298   5.818  41.815  12.084
44138W        W 9299   2.152  37.356  13.609
44139W        W 9300  25.843  10.387   0.936
44140W        W 9301  40.071  24.227   4.323
44141W        W 9302   4.301  14.364   2.354
44142W        W 9303  15.011  34.145  14.706
44143W        W 9304  28.165  10.108  10.671
44144W        W 9305  36.085  30.051  12.081
44145W        W 9306   4.808   1.860   0.185
44146W        W 9307  10.114  10.592  13.903
44147W        W 9308   6.986  17.647  13.957
44148W        W 9309  36.270  16.182  13.767
44149W        W 9310  43.472  24.996  13.031
44150W        W 9311  11.183   5.818   3.642
44151W        W 9312  13.641  27.647  12.981
44152W        W 9313  15.062  32.406   4.514
44153W        W 9314   0.853   0.907  12.627
44154W        W 9315  41.144  43.860   0.840
44155W        W 9316  39.427  15.791  11.590
44156W        W 9317   9.744  38.600   3.285
44157W        W 9318  21.177  35.153  13.392
44158W        W 9319  40.018   8.728  10.578
44159W        W 9320  39.957  34.691   0.247
44160W        W 9321  13.437  40.094   0.496
44161W        W 9322  19.054   3.805  11.477
44162W        W 9323  14.376  44.189   2.235
44163W        W 9324  26.680  22.281   2.969
44164W        W 9325  10.849  20.692  13.471
44165W        W 9326  34.914  18.630   0.745
44166W        W 9327  16.926  17.403  13.664
44167W        W 9328  36.853  27.290   3.085
44168W        W 9329  25.436  30.966  11.629
44169W        W 9330  36.373  12.581   2.704
44170W        W 9331   9.324  13.168  12.483
44171W        W 9332  21.407  21.553   2.970
44172W        W 9333   2.172  44.545   4.184
44173W        W 9334  34.206  42.838   2.306
44174W        W 9335  39.417   9.824   3.525
44175W        W 9336   4.467  13.052  10.544
44176W        W 9337  26.195   4.482  13.294
44177W        W 9338   6.404   9.595  13.406
44178W        W 9339  16.210  31.866  13.381
44179W        W 9340  43.534  19.594   0.715
44180W        W 9341  18.861  34.244   1.783
44181W        W 9342  34.880  39.847  12.890
44182W        W 9343  35.895  39.896  12.538
44183W        W 9344  36.047  29.029   1.167
44184W        W 9345  13.598  44.006  11.158
44185W        W 9346  34.396  40.297   0.209
44186W        W 9347  35.887   3.961   3.342
44187W        W 9348  31.769  25.585  12.557
44188W        W 9349  19.120  40.758   2.825
44189W        W 9350   2.829  30.692   2.435
44190W        W 9351  13.197  24.083  13.140
44191W        W 9352  28.827  23.943   4.063
44192W        W 9353  29.364  44.425  12.373
44193W        W 9354  24.625   5.087  12.446
44194W        W 9355  41.748   6.442  14.625
44195W        W 9356  38.957  15.563  11.535
44196W        W 9357   4.847   3.754  13.824
44197W        W 9358  36.181  25.025  10.450
44198W        W 9359  29.063   5.777  12.107
44199W        W 9360  30.068   5.048   3.044
44200W        W 9361  13.840   5.915   0.385
44201W        W 9362   3.638  16.123   0.887
44202W        W 9363  23.123   6.900  14.825
44203W        W 9364  38.871  27.559  11.586
44204W        W 9365  30.077  27.101  14.058
44205W        W 9366   9.117   9.722   4.081
44206W        W 9367  34.288  44.223   0.655
44207W        W 9368  12.317  39.602   1.758
44208W        W 9369   1.670  28.019  10.276
44209W        W 9370  15.798  20.648   4.187
44210W        W 9371  13.217  40.951   0.370
44211W        W 9372  18.675  39.604   2.394
44212W        W 9373  21.768  29.845  13.742
44213W        W 9374  42.161  28.215  11.536
44214W        W 9375  40.782  12.949   4.097
44215W        W 9376   8.617  10.633  13.900
44216W        W 9377   3.603   9.784  10.671
44217W        W 9378  18.269   4.695   0.902
44218W        W 9379  25.490   9.242   4.191
44219W        W 9380  17.580  25.723   1.459
44220W        W 9381  30.867  13.185   0.004
44221W        W 9382   5.319  23.654   1.248
44222W        W 9383   6.283   5.913   0.782
44223W        W 9384  39.836  28.142   2.149
44224W        W 9385  34.810  10.013   9.576
44225W        W 9386  11.591  16.759  12.964
44226W        W 9387  34.966  12.794   3.365
44227W        W 9388  21.310   0.845   4.650
44228W        W 9389  41.774  16.197   4.261
44229W        W 9390  15.105  35.872   2.769
44230W        W 9391  39.835  16.716   0.323
44231W        W 9392  24.144   4.691  11.685
44232W        W 9393  26.852  29.119  13.757
44233W        W 9394   4.807  35.167  14.319
44234W        W 9395  16.736  25.173  14.128
44235W        W 9396  23.131  30.611   2.606
44236W        W 9397  25.098  15.306   3.668
44237W        W 9398  44.759  40.458   0.301
44238W        W 9399  42.007   6.839  11.904
44239W        W 9400  40.649  24.210  14.934
44240W        W 9401  11.149  17.666  14.743
44241W        W 9402  34.352   5.710   1.675
44242W        W 9403  11.694  11.250  11.568
44243W        W 9404  34.009   1.434   2.998
44244W        W 9405  39.062  38.252   0.167
44245W        W 9406  23.680  28.012   2.146
44246W        W 9407  13.606  27.385  12.109
44247W        W 9408  38.992  39.968   0.888
44248W        W 9409  32.842  21.601   3.106
44249W        W 9410  25.006  10.690  13.407
44250W        W 9411  22.275  25.555   1.345
44251W        W 9412  34.376   2.589  11.152
44252W        W 9413  18.186  11.952  12.568
44253W        W 9414   4.376   7.965  12.838
44254W        W 9415  27.344  25.429  14.691
44255W        W 9416   5.982  22.722   3.113
44256W        W 9417  40.440  20.992   5.036
44257W        W 9418  34.907   3.874  14.860
44258W        W 9419  20.972  16.184  12.505
44259W        W 9420  34.852  14.106  13.842
44260W        W 9421  42.740  33.225  12.982
44261W        W 9422  16.305  17.489   1.655
44262W        W 9423   6.183  13.286   1.668
44263W        W 9424  26.853  36.677   3.325
44264W        W 9425  31.864  43.435   0.075
44265W        W 9426  10.322  41.898  12.256
44266W        W 9427  37.520  15.623  13.637
44267W        W 9428  28.671  21.556   2.558
44268W        W 9429  26.045  13.587   1.179
44269W        W 9430  34.896  31.420   0.346
44270W        W 9431  29.218   0.961  12.497
44271W        W 9432   4.292  28.070   1.487
44272W        W 9433   1.453  40.997  11.914
44273W        W 9434   8.178  30.104   2.176
44274W        W 9435  41.026  17.507   2.232
44275W        W 9436  35.882  16.360  14.953
44276W        W 9437  10.166  35.215   0.218
44277W        W 9438  37.724  30.968  12.656
44278W        W 9439   4.861  15.641  12.946
44279W        W 9440  13.684  33.409  10.655
44280W        W 9441   1.764   9.785  14.973
44281W        W 9442  13.052  18.575   3.918
44282W        W 9443   4.190  17.150  14.059
44283W        W 9444  34.625  30.259   4.205
44284W        W 9445  20.244  27.248   1.312
44285W        W 9446  31.952   9.224   1.528
44286W        W 9447  18.295  26.994   2.003
44287W        W 9448  36.075  32.622  12.807
44288W        W 9449  15.631  31.255   2.176
44289W        W 9450   5.482  32.924   0.317
44290W        W 9451  44.581  35.816  14.111
44291W        W 9452  35.352  20.150  14.574
44292W        W 9453  42.419  26.978   1.369
44293W        W 9454  38.972  44.477   4.531
44294W        W 9455   7.310  30.436  14.839
44295W        W 9456  40.092  16.907  11.189
44296W        W 9457  19.785   4.353  14.983
44297W        W 9458  18.200  30.075  14.440
44298W        W 9459   7.331  30.525  13.863
44299W        W 9460  25.017  16.176  13.839
44300W        W 9461  28.350  38.742   2.862
44301W        W 9462  24.504  16.983  13.819
44302W        W 9463  43.318  42.096   3.638
44303W        W 9464  30.493  42.030   1.324
44304W        W 9465  39.481   7.861   4.580
44305W        W 9466  23.524  31.005  13.087
44306W        W 9467   3.890  26.913   2.709
44307W        W 9468  29.924  38.033  13.576
44308W        W 9469  39.084  11.171   0.339
44309W        W 9470  26.713  26.171   5.128
44310W        W 9471   7.238   4.679   1.293
44311W        W 9472  42.360  28.926   1.324
44312W        W 9473  38.967  21.793   2.282
44313W        W 9474  33.412  10.880   3.627
44314W        W 9475  39.974  28.949  11.105
44315W        W 9476  35.718  38.357  10.407
44316W        W 9477   0.815  24.679  12.971
44317W        W 9478   9.924  41.637  14.485
44318W        W 9479  39.925   5.009  12.724
44319W        W 9480  32.673  22.269   0.016
44320W        W 9481  21.595  33.356   3.343
44321W        W 9482  33.813  25.548   2.766
44322W        W 9483   5.817  17.875   2.478
44323W        W 9484   6.846  37.599  12.212
44324W        W 9485  32.406  28.408   1.328
44325W        W 9486  38.448  41.924   4.743
44326W        W 9487  40.834   3.834  14.400
44327W        W 9488  30.610   0.496  11.574
44328W        W 9489  13.821   4.975  13.761
44329W        W 9490   6.101  29.960  12.638
44330W        W 9491  28.356  33.547  14.354
44331W        W 9492  13.253  34.907   4.896
44332W        W 9493  29.933  34.897   0.418
44333W        W 9494  22.823  22.696   4.214
44334W        W 9495  44.346  16.498   1.181
44335W        W 9496  13.649  16.741  11.627
44336W        W 9497   0.807  17.330   2.645
44337W        W 9498  37.535   5.326   0.583
44338W        W 9499  12.491   8.128   1.955
44339W        W 9500  18.150  37.926  14.940
44340W        W 9501  42.412  25.248   1.280
44341W        W 9502  19.743  44.634  11.794
44342W        W 9503  28.853  34.603   1.816
44343W        W 9504   7.234  43.182  13.549
44344W        W 9505  18.081  30.445  14.853
44345W        W 9506  13.609  15.746   3.348
44346W        W 9507   6.062  36.935  11.396
44347W        W 9508  13.762  42.322  14.977
44348W        W 9509  38.854   6.479  10.639
44349W        W 9510   5.235  36.594   4.580
44350W        W 9511  42.249  25.594  11.062
44351W        W 9512   8.281  25.223   4.147
44352W        W 9513  28.568  16.544   0.312
44353W        W 9514  37.945   6.970  13.035
44354W        W 9515  32.752  23.462   2.398
44355W        W 9516  32.510  34.003   2.188
44356W        W 9517  30.471  12.097  14.870
44357W        W 9518   0.179  29.787  13.301
44358W        W 9519   8.400  42.432  12.910
44359W        W 9520  35.550  35.882   4.487
44360W        W 9521  32.061  19.769   3.676
44361W        W 9522  16.678   1.330   0.931
44362W        W 9523  10.872  33.024   1.666
44363W        W 9524  24.454  31.902  14.082
44364W        W 9525  28.213   3.339  11.049
44365W        W 9526  30.743  25.043   2.093
44366W        W 9527  40.493  18.508   4.492
44367W        W 9528  19.274  26.109   2.284
44368W        W 9529  11.307  26.167  13.855
44369W        W 9530  14.310  15.503  12.593
44370W        W 9531  31.985   7.738   3.645
44371W        W 9532   6.793   2.185  11.615
44372W        W 9533  44.127  29.742   5.027
44373W        W 9534  22.176   4.290   2.233
44374W        W 9535  25.148  26.017   4.567
44375W        W 9536  11.725  16.874   1.918
44376W        W 9537  38.670  20.498  14.844
44377W        W 9538  41.950  39.553   2.221
44378W        W 9539  12.007  18.044  12.423
44379W        W 9540  36.056   8.341  14.865
44380W        W 9541  23.949  10.279  13.838
44381W        W 9542   7.686  30.515  12.825
44382W        W 9543   8.670   1.347   1.174
44383W        W 9544   3.098   9.882  10.621
44384W        W 9545  41.614  26.936  10.881
44385W        W 9546   8.198  11.365  12.907
44386W        W 9547  20.816  33.983  11.189
44387W        W 9548   8.355  10.859   4.040
44388W        W 9549  44.671   0.559   4.125
44389W        W 9550  11.100  37.083   1.353
44390W        W 9551  13.943  21.133   2.316
44391W        W 9552   7.821   0.978   2.730
44392W        W 9553   9.423  42.404   2.157
44393W        W 9554  28.148  28.821   2.940
44394W        W 9555   3.009  42.812  10.737
44395W        W 9556  37.741  38.062   3.364
44396W        W 9557  15.786  38.209  14.095
44397W        W 9558  12.400   4.847  14.268
44398W        W 9559  26.157  43.096  13.606
44399W        W 9560  26.168  30.745   2.539
44400W        W 9561  26.417   0.723   0.328
44401W        W 9562  15.690  12.402  13.375
44402W        W 9563  44.145  27.975   3.636
44403W        W 9564  40.904  24.532  12.984
44404W        W 9565  37.798  10.429   0.037
44405W        W 9566  42.023  39.395  13.588
44406W        W 9567  13.866  42.245   2.340
44407W        W 9568  32.120  31.449  11.713
44408W        W 9569  19.653  38.124   2.766
44409W        W 9570  35.575  26.992   0.038
44410W        W 9571   5.387  23.033   4.624
44411W        W 9572   1.550  17.170  10.667
44412W        W 9573  10.418  33.915  14.399
44413W        W 9574   5.244  36.972  14.059
44414W        W 9575  27.632  12.319   0.409
44415W        W 9576  18.522  38.972  13.850
44416W        W 9577   6.987  32.182   2.215
44417W        W 9578   2.387  26.942   3.739
44418W        W 9579  34.977  38.376   1.798
44419W        W 9580  38.770  37.222   3.925
44420W        W 9581  18.215   2.013  12.651
44421W        W 9582  32.395  20.985   2.686
44422W        W 9583  26.027   9.250   3.171
44423W        W 9584  37.332  39.913   4.257
44424W        W 9585  16.651  35.257   0.281
44425W        W 9586  27.383  30.601  14.892
44426W        W 9587   7.597  13.683   4.071
44427W        W 9588  11.614  24.052  11.723
44428W        W 9589   1.933   3.862  13.897
44429W        W 9590  17.117  18.824  13.325
44430W        W 9591  12.725  16.834   1.005
44431W        W 9592   4.184  30.564  13.895
44432W        W 9593  10.847  34.693  14.699
44433W        W 9594  35.867  44.912   0.246
44434W        W 9595  35.298  26.556  14.895
44435W        W 9596  31.974  29.814  10.422
44436W        W 9597  29.762   2.307  11.200
44437W        W 9598  12.161  38.578   1.686
44438W        W 9599  16.236  22.011  11.603
44439W        W 9600  30.635  12.713   4.011
44440W        W 9601   0.053  17.660   0.912
44441W        W 9602  41.400   4.919  10.688
44442W        W 9603  21.053   2.044   3.886
44443W        W 9604  33.425   5.849  11.950
44444W        W 9605  19.631  40.412   0.934
44445W        W 9606  13.265  43.134   4.186
44446W        W 9607  30.908  22.045  13.960
44447W        W 9608  34.397  38.449   3.506
44448W        W 9609  12.826  25.449  14.368
44449W        W 9610  22.665  29.889  13.960
44450W        W 9611  31.430  30.366   1.701
44451W        W 9612  43.441   4.158   3.644
44452W        W 9613  17.802  18.582  11.516
44453W        W 9614  36.825  26.497   2.822
44454W        W 9615  10.107  38.488  11.180
44455W        W 9616  34.908  36.262   3.707
44456W        W 9617  38.667  37.143   4.426
44457W        W 9618  23.234  37.611  12.441
44458W        W 9619  29.461   6.136   3.925
44459W        W 9620   0.766   0.928  10.466
44460W        W 9621  36.828  32.200   0.711
44461W        W 9622  25.259  41.955  14.494
44462W        W 9623  39.021  10.423  14.343
44463W        W 9624  27.775  29.836   3.391
44464W        W 9625   8.103  23.092   4.652
44465W        W 9626  24.454  32.756   0.384
44466W        W 9627  22.170  43.810   0.421
44467W        W 9628   4.572   6.212  13.464
44468W        W 9629  29.169   5.212   1.799
44469W        W 9630  19.312  30.131   1.449
44470W        W 9631  34.333   9.463  11.127
44471W        W 9632  43.904   1.489  14.939
44472W        W 9633  27.196  26.167   1.149
44473W        W 9634   4.701  24.175   2.506
44474W        W 9635  26.115   3.207  13.031
44475W        W 9636   4.397  38.171  12.874
44476W        W 9637   4.335  18.226  14.849
44477W        W 9638  42.095  35.373  12.793
44478W        W 9639   9.132   4.603   4.498
44479W        W 9640  15.815  19.297  13.121
44480W        W 9641  44.437  36.847  14.025
44481W        W 9642  22.272  28.904   2.047
44482W        W 9643  15.473  24.899  11.031
44483W        W 9644   8.462  22.705   4.557
44484W        W 9645  23.985  32.562  10.657
44485W        W 9646   4.471  25.054   2.124
44486W        W 9647   4.255  34.148  13.897
44487W        W 9648   3.983  32.685  12.432
44488W        W 9649  23.703  29.745   3.749
44489W        W 9650  14.171  37.325   2.657
44490W        W 9651  13.593   8.353   1.802
44491W        W 9652  24.176  27.591  11.465
44492W        W 9653  42.302  38.065   4.680
44493W        W 9654  22.929  21.595   2.860
44494W        W 9655  24.656  43.436   2.671
44495W        W 9656   1.698  41.588  10.566
44496W        W 9657  36.537  33.442  13.848
44497W        W 9658  36.183  16.533   2.672
44498W        W 9659  17.515  31.411   2.448
44499W        W 9660  19.644  23.008  13.302
44500W        W 9661  32.044  35.331   4.229
44501W        W 9662  30.409   4.931   3.607
44502W        W 9663  32.304  41.854  13.066
44503W        W 9664  10.710  16.869  13.078
44504W        W 9665   7.593  21.462  11.044
44505W        W 9666  24.801  40.359  13.288
44506W        W 9667  39.679  18.007   0.465
44507W        W 9668  37.297   1.372   3.419
44508W        W 9669  40.360  32.641   3.276
44509W        W 9670   6.206  27.143   2.082
44510W        W 9671  13.069  10.252   2.308
44511W        W 9672   9.807  44.950  12.231
44512W        W 9673  44.670  31.041  10.662
44513W        W 9674  32.944  29.992   3.610
44514W        W 9675  24.515   7.910  13.403
44515W        W 9676  24.639  33.743  10.977
44516W        W 9677   2.443   4.179   0.457
44517W        W 9678   2.647  30.100  12.148
44518W        W 9679  15.677  22.964   4.538
44519W        W 9680  28.950  21.138  11.631
44520W        W 9681  15.771  42.315   1.485
44521W        W 9682  21.268   3.822   3.606
44522W        W 9683  16.198  12.729   1.799
44523W        W 9684  38.490   0.635  10.759
44524W        W 9685  18.047  29.164   2.763
44525W        W 9686  26.171  15.980   2.338
44526W        W 9687  17.770  11.742  12.344
44527W        W 9688   0.811   0.055   1.321
44528W        W 9689  11.821   0.725  13.967
44529W        W 9690  37.096  33.112   2.307
44530W        W 9691  21.038  30.939  11.068
44531W        W 9692  25.734  25.377   2.053
44532W        W 9693   1.225   2.807   4.545
44533W        W 9694   5.631  14.242  13.925
44534W        W 9695  40.829  15.539   2.456
44535W        W 9696  25.982  19.767   2.683
44536W        W 9697  43.944  35.977   2.821
44537W        W 9698  42.359   4.908  14.270
44538W        W 9699  32.704  10.693  11.091
44539W        W 9700  41.658  35.312  11.549
44540W        W 9701   8.537  15.605   2.085
44541W        W 9702   2.712   1.655   3.933
44542W        W 9703   2.973  22.272   1.802
44543W        W 9704   8.534  40.142  12.335
44544W        W 9705  33.646  40.561   4.912
44545W        W 9706  43.828   7.294   4.698
44546W        W 9707   3.661  24.343  12.096
44547W        W 9708  21.609  23.385  12.310
44548W        W 9709   7.464   6.633   2.868
44549W        W 9710  22.193  39.770  10.429
44550W        W 9711  35.442   4.264   2.138
44551W        W 9712  35.432   2.805   3.321
44552W        W 9713  24.245  43.884   1.264
44553W        W 9714  36.921  10.618   2.305
44554W        W 9715  24.001  29.565   4.153
44555W        W 9716  33.971   8.253   0.079
44556W        W 9717   4.715  28.021   2.325
44557W        W 9718  12.627  31.033  14.256
44558W        W 9719  44.240  12.531  13.357
44559W        W 9720   7.897  36.262  11.001
44560W        W 9721  30.558   1.510  10.818
44561W        W 9722  31.476  27.118  14.375
44562W        W 9723   1.340  24.023   2.258
44563W        W 9724  25.788  19.287  14.457
44564W        W 9725   7.856  35.879   3.733
44565W        W 9726  10.719  24.600  10.941
44566W        W 9727  26.497  32.877  11.476
44567W        W 9728   8.923  40.308  13.677
44568W        W 9729   9.674  43.767   0.281
44569W        W 9730  27.360  44.741  10.946
44570W        W 9731  43.860  14.372  14.736
44571W        W 9732  32.075   7.264   0.866
44572W        W 9733  28.515  16.706  13.544
44573W        W 9734  10.298  10.771  14.362
44574W        W 9735  42.050  23.717  13.033
44575W        W 9736  44.739  20.349  12.137
44576W        W 9737   9.294  11.918   1.825
44577W        W 9738  32.620  27.312   4.119
44578W        W 9739  35.477  35.871  11.513
44579W        W 9740  42.240  19.321   1.851
44580W        W 9741  19.552  26.397  11.094
44581W        W 9742  23.647  15.412   2.218
44582W        W 9743  26.661  12.015  12.406
44583W        W 9744  20.052  21.085  13.763
44584W        W 9745  23.522  40.061   2.655
44585W        W 9746  28.133   2.968   3.635
44586W        W 9747  13.323  22.529  14.285
44587W        W 9748  25.462  23.094   3.631
44588W        W 9749  19.051  34.969   2.904
44589W        W 9750   2.309  24.065  14.089
44590W        W 9751  11.198   2.533   0.914
44591W        W 9752  36.005  38.859  11.867
44592W        W 9753  26.513   8.638  13.893
44593W        W 9754  21.686  42.239  11.490
44594W        W 9755  29.416  15.203  13.076
44595W        W 9756  20.658   1.780   4.162
44596W        W 9757   8.268  22.989   3.230
44597W        W 9758  15.352   2.049  14.320
44598W        W 9759  34.066  32.018   1.769
44599W        W 9760   7.609   1.013   4.796
44600W        W 9761  27.465  19.518   4.948
44601W        W 9762  38.474  42.820   1.795
44602W        W 9763  25.678  43.441  13.084
44603W        W 9764  23.729  14.191  12.474
44604W        W 9765  21.683  10.299  13.390
44605W        W 9766  12.109   9.012  11.179
44606W        W 9767  19.324  36.853   0.660
44607W        W 9768  18.147   6.752  12.538
44608W        W 9769  38.029  34.946  14.930
44609W        W 9770  30.879  35.541   1.661
44610W        W 9771  10.182  19.900  11.970
44611W        W 9772  22.684   2.255  14.446
44612W        W 9773   4.729  13.279   1.582
44613W        W 9774  12.316  40.444   2.696
44614W        W 9775  20.142  42.356   2.783
44615W        W 9776  23.474  29.731  14.326
44616W        W 9777  14.625  15.438   1.337
44617W        W 9778  26.240  26.243   2.814
44618W        W 9779  41.557  24.592  11.503
44619W        W 9780  10.165   3.152   2.627
44620W        W 9781  44.852  16.586   0.495
44621W        W 9782  16.556  11.266   4.464
44622W        W 9783  23.853  17.604  11.679
44623W        W 9784   3.762  14.476   0.423
44624W        W 9785  31.801  18.226  10.777
44625W        W 9786   1.258  19.652   4.648
44626W        W 9787  10.466  12.753   9.935
44627W        W 9788  43.972  21.593  14.453
44628W        W 9789  30.782   4.193  13.468
44629W        W 9790  23.582   6.210   0.331
44630W        W 9791  11.627  27.444   3.938
44631W        W 9792  18.606  17.065   1.746
44632W        W 9793  39.847  30.535   4.700
44633W        W 9794   0.251  26.175   3.139
44634W        W 9795  21.798  31.937   3.283
44635W        W 9796  28.205  24.737  14.292
44636W        W 9797   3.431  44.776   3.302
44637W        W 9798  31.314   4.736  11.698
44638W        W 9799  16.215  12.627  13.477
44639W        W 9800   5.793  20.198  14.014
44640W        W 9801  34.814  33.968   0.464
44641W        W 9802  19.581  17.547   1.507
44642W        W 9803  31.081  16.186  11.978
44643W        W 9804  20.048  29.409   1.305
44644W        W 9805   7.910  16.691  13.573
44645W        W 9806  32.384  10.731  14.348
44646W        W 9807   1.688   1.309  13.469
44647W        W 9808  14.616  14.224   1.450
44648W        W 9809   0.509  25.784   4.228
44649W        W 9810   7.898  39.453   2.695
44650W        W 9811  16.471  25.270  14.969
44651W        W 9812  38.477  13.138  12.809
44652W        W 9813  23.715   8.407   2.177
44653W        W 9814  31.838  25.598   0.367
44654W        W 9815  22.632  18.424   2.152
44655W        W 9816  40.846   0.028   2.380
44656W        W 9817  30.662  42.338   0.279
44657W        W 9818  33.169  42.194  14.512
44658W        W 9819  42.558   7.779   4.639
44659W        W 9820  20.273  37.563   1.459
44660W        W 9821  36.830   3.289   4.900
44661W        W 9822  30.585  39.409   2.423
44662W        W 9823  17.657  35.674   3.818
44663W        W 9824   7.147   1.449  12.012
44664W        W 9825  22.739  15.641  14.345
44665W        W 9826  14.788  26.615  11.687
44666W        W 9827  30.463  13.568  14.942
44667W        W 9828  23.922  43.461   1.323
44668W        W 9829  23.041  10.210  10.817
44669W        W 9830  39.886  44.247   3.415
44670W        W 9831  33.486  19.947  14.630
44671W        W 9832  33.484  24.312  10.779
44672W        W 9833  42.551  32.575   1.383
44673W        W 9834  19.109  34.026   0.019
44674W        W 9835  30.836  39.907   1.751
44675W        W 9836  19.931  11.019   4.582
44676W        W 9837  44.716  38.211   1.497
44677W        W 9838  29.858  20.813   0.501
44678W        W 9839   3.208  23.172  14.901
44679W        W 9840  15.114  22.542  13.784
44680W        W 9841  44.003  16.031  12.370
44681W        W 9842   3.710  12.103   3.338
44682W        W 9843   3.362  31.866   2.772
44683W        W 9844  33.113  17.770  11.543
44684W        W 9845   3.615  24.397  12.774
44685W        W 9846   1.297  24.003   0.463
44686W        W 9847   6.368  24.273   1.940
44687W        W 9848  38.311  43.416   4.801
44688W        W 9849  30.378  12.771  13.553
44689W        W 9850   3.339  18.048  13.908
44690W        W 9851  43.466  20.784  12.579
44691W        W 9852   0.232  34.152  13.241
44692W        W 9853   0.786  25.769  13.406
44693W        W 9854  20.146  30.896   1.268
44694W        W 9855  39.317   7.737  11.154
44695W        W 9856  15.131  34.502   1.412
44696W        W 9857  26.013  39.940   2.373
44697W        W 9858  43.526  23.545  12.578
44698W        W 9859  19.200  41.767   2.655
44699W        W 9860   7.365  34.989   3.268
44700W        W 9861  20.619   2.299   4.221
44701W        W 9862  24.746  35.995  14.967
44702W        W 9863  33.751  32.165   3.647
44703W        W 9864  10.171  33.551  11.705
44704W        W 9865  21.603  33.538   0.511
44705W        W 9866  11.687   1.845  11.575
44706W        W 9867  10.265  24.543   0.326
44707W        W 9868  32.255  24.464   3.225
44708W        W 9869   1.683  32.470  11.078
44709W        W 9870  15.006  21.080   4.099
44710W        W 9871  20.546  21.695  13.354
44711W        W 9872  22.268  25.987   2.257
44712W        W 9873  10.975  19.081  12.040
44713W        W 9874  17.042  25.546   3.720
44714W        W 9875  31.962  17.532   4.245
44715W        W 9876   4.870  37.860   1.801
44716W        W 9877  13.364  27.689  13.440
44717W        W 9878  26.824  20.970   0.038
44718W        W 9879   7.381  22.122   0.448
44719W        W 9880  23.772   1.598  13.740
44720W        W 9881  10.374  40.483   2.868
44721W        W 9882  29.294   4.965  12.681
44722W        W 9883  21.110  32.579   3.151
44723W        W 9884  40.912  15.613   0.994
44724W        W 9885  40.391  19.005  14.016
44725W        W 9886  21.379  38.603  13.487
44726W        W 9887  11.848  38.494   2.343
44727W        W 9888  11.692  28.984   0.988
44728W        W 9889  23.599  14.509  12.009
44729W        W 9890  24.569  13.097   4.994
44730W        W 9891  12.164  36.028   2.321
44731W        W 9892   8.679  13.493   1.914
44732W        W 9893  19.800  36.836  13.484
44733W        W 9894  18.991   1.177  12.240
44734W        W 9895   5.416  29.829   3.169
44735W        W 9896  22.697  39.416   4.241
44736W        W 9897  11.933  16.273   2.766
44737W        W 9898   0.422   2.205   3.836
44738W        W 9899   1.424  41.323   3.355
44739W        W 9900  18.177  24.752  11.735
44740W        W 9901  43.851  39.038  12.954
44741W        W 9902   9.636  38.999   0.346
44742W        W 9903  25.899  21.679   2.319
44743W        W 9904  40.785  14.701  13.173
44744W        W 9905  29.177   1.895   2.283
44745W        W 9906  34.118   4.480  12.434
44746W        W 9907  30.365  44.078  11.012
44747W        W 9908   8.332  21.146   1.275
44748W        W 9909   7.303  30.483   3.640
44749W        W 9910  27.170  33.498   4.401
44750W        W 9911   8.856  38.023  12.118
44751W        W 9912  37.534   9.317  12.044
44752W        W 9913  28.940   9.098  13.870
44753W        W 9914  11.814  12.456   5.081
44754W        W 9915  44.847  27.695  12.784
44755W        W 9916  42.914   9.842   3.131
44756W        W 9917  24.102   2.888  13.332
44757W        W 9918  25.017   1.468   4.636
44758W        W 9919   8.791  18.748   1.522
44759W        W 9920  15.477  15.977   2.243
44760W        W 9921   9.354   1.151   3.683
44761W        W 9922  16.479   5.189  13.028
44762W        W 9923  17.089  12.084   2.265
44763W        W 9924   5.033   7.866  11.121
44764W        W 9925  12.775  37.024   4.138
44765W        W 9926  11.851  14.166   1.918
44766W        W 9927  32.943  43.921   1.531
44767W        W 9928  41.366  12.655   0.520
44768W        W 9929  10.112  11.166   4.502
44769W        W 9930   2.440  31.190  12.119
44770W        W 9931  24.632  20.507  13.857
44771W        W 9932   4.694  32.112   3.696
44772W        W 9933  26.880  25.895   4.662
44773W        W 9934   3.421  36.841   2.205
44774W        W 9935  14.086  42.610   9.918
44775W        W 9936   2.152  39.477  12.426
44776W        W 9937  14.043   0.181   0.737
44777W        W 9938  37.861  23.400  12.530
44778W        W 9939  34.984  13.976   1.446
44779W        W 9940  39.463   1.157   1.844
44780W        W 9941  22.719  34.222   3.709
44781W        W 9942  13.907  28.002   3.728
44782W        W 9943  18.464   5.953   1.286
44783W        W 9944  27.459  17.883  14.891
44784W        W 9945   1.470  42.955   3.090
44785W        W 9946   6.623  16.287  13.296
44786W        W 9947  18.085  42.980   1.991
44787W        W 9948  31.891  21.947  11.414
44788W        W 9949   5.749  21.538  13.420
44789W        W 9950   5.411   6.571   0.273
44790W        W 9951  29.919  17.189   2.935
44791W        W 9952   5.933  18.955   0.341
44792W        W 9953  27.552  27.156  14.950
44793W        W 9954  40.437  37.130   3.716
44794W        W 9955  22.193  33.100   2.606
44795W        W 9956   5.797  13.137   0.819
44796W        W 9957  40.966   0.871  11.572
44797W        W 9958   7.776  25.555   2.977
44798W        W 9959  26.119  13.767  14.157
44799W        W 9960  31.557  14.920  13.432
44800W        W 9961  20.745  42.846   2.603
44801W        W 9962  18.530  35.607   4.324
44802W        W 9963  14.664  26.210  12.042
44803W        W 9964  19.642  19.575   4.307
44804W        W 9965   0.830  41.797   4.863
44805W        W 9966  33.146  32.498  10.441
44806W        W 9967   4.668  33.842  11.464
44807W        W 9968  32.317  43.550  13.039
44808W        W 9969   1.755  29.125  12.940
44809W        W 9970  43.871  28.380   3.759
44810W        W 9971   6.738  38.011   3.295
44811W        W 9972  27.535   5.149   0.737
44812W        W 9973  23.486  42.775   0.938
44813W        W 9974  39.371  28.665   0.157
44814W        W 9975  23.014  42.932   1.107
44815W        W 9976  43.557   1.003  13.876
44816W        W 9977  35.019  38.527  12.575
44817W        W 9978   5.007  15.613  14.405
44818W        W 9979   8.738  33.460  11.871
44819W        W 9980  20.850  39.559  13.524
44820W        W 9981   3.930  43.546   2.382
44821W        W 9982  24.520  43.767   3.629
44822W        W 9983  29.107  27.546   3.456
44823W        W 9984   7.253  13.322  11.725
44824W        W 9985  15.704  19.162   0.416
44825W        W 9986   5.517  18.971  13.298
44826W        W 9987  32.178  17.033   1.814
44827W        W 9988   7.870  34.844  10.907
44828W        W 9989  31.935  25.201   4.472
44829W        W 9990   8.725   3.811   1.626
44830W        W 9991   1.740   1.089   3.600
44831W        W 9992   5.660   4.443   0.648
44832W        W 9993  31.533  34.405  10.425
44833W        W 9994   2.408  34.392   1.455
44834W        W 9995  22.810  10.656  13.120
44835W        W 9996  24.042  16.683  13.834
44836W        W 9997   1.470  32.159  14.308
44837W        W 9998  12.648  31.936   0.272
44838W        W 9999  10.755  15.830  11.596
44839W        W10000  11.525  23.109   1.354
44840W        W10001  31.904  30.450   4.238
44841W        W10002  40.404   1.264  14.942
44842W        W10003  30.055   8.808   0.306
44843W        W10004  27.991  19.897   2.217
44844W        W10005  33.186  37.863   9.889
44845W        W10006  14.007   5.396  14.051
44846W        W10007  37.424  14.698  14.857
44847W        W10008  22.238  42.588   1.852
44848W        W10009  43.359  25.417   1.438
44849W        W10010  25.976  44.402   3.439
44850W        W10011  26.010  41.402   2.244
44851W        W10012  15.340   8.420   3.768
44852W        W10013  16.275  41.532   1.199
44853W        W10014   4.729   1.512   1.263
44854W        W10015  10.892  20.385   3.621
44855W        W10016  44.188   6.682   2.299
44856W        W10017   5.557  17.720  12.134
44857W        W10018  25.377  20.980  11.162
44858W        W10019  41.541   8.351   3.636
44859W        W10020  43.456   7.414   2.964
44860W        W10021   5.695  18.126  12.500
44861W        W10022  33.030  21.285   4.305
44862W        W10023  31.675  15.264   3.726
44863W        W10024   4.624  13.168  11.069
44864W        W10025   8.827   0.905   0.953
44865W        W10026   6.439   9.711   4.578
44866W        W10027  37.423  22.221  12.963
44867W        W10028  33.260  34.990  12.034
44868W        W10029  26.234  23.577  14.856
44869W        W10030  36.078  32.364  11.196
44870W        W10031  42.795   9.886   0.290
44871W        W10032  15.536  34.368  13.342
44872W        W10033  44.433  19.195   1.351
44873W        W10034   8.231   0.453   2.187
44874W        W10035  36.311  12.636  13.768
44875W        W10036  32.469   4.447   0.350
44876W        W10037   9.218  44.768   0.704
44877W        W10038   5.795  30.526  13.052
44878W        W10039  29.465  40.553   2.826
44879W        W10040  20.713  12.590   2.792
44880W        W10041  11.799  43.006   3.247
44881W        W10042  41.296  23.521   2.188
44882W        W10043  26.471  28.057   0.803
44883W        W10044  30.884  40.356  13.944
44884W        W10045   3.951  42.852  13.339
44885W        W10046  35.213   5.356  12.613
44886W        W10047   4.573  34.520   2.468
44887W        W10048   5.172  40.841  14.527
44888W        W10049   8.937  33.053   1.412
44889W        W10050  37.651  18.269  12.959
44890W        W10051  18.852  15.621   3.628
44891W        W10052  30.907  40.288   4.617
44892W        W10053   8.207  37.824   0.325
44893W        W10054   5.776  36.388   3.299
44894W        W10055   3.646  33.422   2.171
44895W        W10056  31.069   0.543  13.755
44896W        W10057  35.146   8.439  14.547
44897W        W10058  16.233   8.599  13.488
44898W        W10059  16.166  27.084   1.937
44899W        W10060  41.905  24.900   0.645
44900W        W10061  39.160  17.071   0.154
44901W        W10062  44.511  28.087   2.301
44902W        W10063  24.032   3.467   2.153
44903W        W10064  33.107  24.973  13.407
44904W        W10065  30.979  22.267   0.922
44905W        W10066   1.223  31.116   2.736
44906W        W10067  43.219  24.244  14.241
44907W        W10068  13.854   0.321   3.412
44908W        W10069   2.622  32.478  11.108
44909W        W10070  13.795  40.045   4.736
44910W        W10071   4.246  34.599   0.354
44911W        W10072  40.913   2.861  14.308
44912W        W10073   1.365  29.998   3.257
44913W        W10074  25.497   8.438   3.189
44914W        W10075  28.532  40.561   3.700
44915W        W10076  39.481   6.770  14.130
44916W        W10077  25.358   9.259   5.099
44917W        W10078   4.156  20.295  11.212
44918W        W10079  16.076  23.345   4.442
44919W        W10080  13.897  17.715  11.161
44920W        W10081  21.146   4.356  10.669
44921W        W10082  34.752  22.143   2.856
44922W        W10083  19.842  14.225   4.153
44923W        W10084  30.351   2.963   4.566
44924W        W10085  36.724  18.786  11.424
44925W        W10086  15.585   6.781   0.649
44926W        W10087  27.110  24.391  12.977
44927W        W10088  16.347  22.026   3.073
44928W        W10089   9.949  36.460  11.625
44929W        W10090  16.190  42.020   4.697
44930W        W10091  21.798  27.776   2.412
44931W        W10092  11.367  39.480   1.299
44932W        W10093  28.413  22.284  11.602
44933W        W10094  11.800  23.563   1.416
44934W        W10095  26.729  22.612   3.759
44935W        W10096  25.754  14.798  12.561
44936W        W10097  12.349  15.450  11.522
44937W        W10098  33.768   4.841   3.328
44938W        W10099  39.972  40.967   3.414
44939W        W10100  29.413   9.523   1.839
44940W        W10101  16.357  23.793   2.724
44941W        W10102   2.461  18.582  14.535
44942W        W10103   6.309  35.810   2.569
44943W        W10104  43.447  16.100   2.839
44944W        W10105  25.919  10.513  14.867
44945W        W10106  15.384  21.251  14.267
44946W        W10107  14.860  10.378   0.760
44947W        W10108  34.315  28.625   4.125
44948W        W10109   6.897  17.561  14.791
44949W        W10110  14.717  13.571   3.535
44950W        W10111  37.516  20.753  14.340
44951W        W10112  24.689  29.011  11.368
44952W        W10113  36.340  33.658  11.022
44953W        W10114  44.181  18.107   2.286
44954W        W10115  28.153  26.656  12.243
44955W        W10116  40.073  40.963   2.410
44956W        W10117  43.227  43.867   1.791
44957W        W10118  22.631  23.430   1.860
44958W        W10119  37.090  26.632  14.447
44959W        W10120  29.462   3.637  12.141
44960W        W10121  33.632  15.428  12.632
44961W        W10122  27.425  42.238   1.756
44962W        W10123   9.722  21.748   0.273
44963W        W10124  36.393  10.281  12.818
44964W        W10125  14.750  21.308   3.702
44965W        W10126  44.906  43.006  10.796
44966W        W10127  27.513  35.089  10.808
44967W        W10128  24.083   5.193   3.152
44968W        W10129  38.039   0.005   4.552
44969W        W10130  15.973   5.394  11.173
44970W        W10131  44.598  30.910  14.388
44971W        W10132  41.663  38.587   4.072
44972W        W10133  14.163  13.229   4.792
44973W        W10134  41.493  24.571  13.530
44974W        W10135  32.193  24.300  11.074
44975W        W10136  25.402  35.380  11.623
44976W        W10137  14.666  41.483  14.501
44977W        W10138   3.603  37.784  13.739
44978W        W10139  17.819   1.359   0.029
44979W        W10140  43.737  26.439  13.835
44980W        W10141   4.453  33.989  12.510
44981W        W10142  17.069  29.639   4.540
44982W        W10143   4.816  10.369  14.435
44983W        W10144  44.060  40.482  14.269
44984W        W10145  20.834  42.501  14.714
44985W        W10146  10.582  14.929  13.254
44986W        W10147  35.699   5.275   1.828
44987W        W10148  20.145  43.443   4.904
44988W        W10149   8.422  14.333  12.945
44989W        W10150  12.069  26.701   4.544
44990W        W10151  30.745  35.484  10.803
44991W        W10152  40.378  39.973  14.989
44992W        W10153  26.743  44.290   3.789
44993W        W10154  28.969   3.639  11.961
44994W        W10155  10.240  28.403  14.374
44995W        W10156  11.208  38.455   1.720
44996W        W10157  23.643  29.607   1.683
44997W        W10158  10.659   8.361  13.396
44998W        W10159  22.599  44.962  12.904
44999W        W10160  32.628  40.203   4.809
45000W        W10161  33.528  39.640  11.315
45001W        W10162  32.189   2.412   0.415
45002W        W10163  33.943  31.496  13.834
45003W        W10164  19.459  11.326   3.285
45004W        W10165   7.525  42.548  14.712
45005W        W10166  40.294  40.370   4.076
45006W        W10167  15.844  21.166  10.510
45007W        W10168  21.665   2.086  12.114
45008W        W10169  35.426  31.207   1.476
45009W        W10170   1.742  10.058  14.165
45010W        W10171  26.004  36.549   3.271
45011W        W10172  24.867  15.126  10.975
45012W        W10173  30.990  33.501   1.465
45013W        W10174  25.588  37.481   3.395
45014W        W10175  37.605  14.422  11.652
45015W        W10176  38.093  29.169   2.941
45016W        W10177  26.647   8.157  12.062
45017W        W10178  20.336  22.617  10.644
45018W        W10179  23.058   1.712  11.032
45019W        W10180  24.087  27.441   1.650
45020W        W10181  10.753  15.966  11.054
45021W        W10182  35.638  20.140  14.117
45022W        W10183  39.180  29.028  11.557
45023W        W10184  12.758  41.896  13.720
45024W        W10185   6.324   2.829   3.911
45025W        W10186  31.608   0.536   2.078
45026W        W10187   1.600   2.799   4.114
45027W        W10188  18.385  40.907   5.511
45028W        W10189  27.674  33.124   3.283
45029W        W10190  36.089  25.528  13.999
45030W        W10191  36.672  17.028  10.287
45031W        W10192  42.725  11.148   0.885
45032W        W10193   8.143   5.945  10.609
45033W        W10194  19.050  31.070  10.755
45034W        W10195  38.176  37.103   3.697
45035W        W10196  33.043  15.777   0.908
45036W        W10197  25.735  14.138  14.001
45037W        W10198  20.678  13.057   2.278
45038W        W10199  34.322  38.913  12.156
45039W        W10200  24.390   7.060   3.128
45040W        W10201   2.438  22.943  11.452
45041W        W10202  30.934  22.017   3.605
45042W        W10203  42.452   7.182  14.847
45043W        W10204  44.454   2.300   0.441
45044W        W10205  20.843  40.452   5.157
45045W        W10206   0.813   6.294   0.859
45046W        W10207   7.639  37.849   1.172
45047W        W10208   5.943  30.583  13.547
45048W        W10209  16.369  43.566  10.686
45049W        W10210  37.786  13.931  12.466
45050W        W10211   6.612  30.857   3.344
45051W        W10212  29.947  27.129  14.898
45052W        W10213  44.316  34.958   2.335
45053W        W10214  41.609   8.244  10.848
45054W        W10215   2.397  11.123   0.348
45055W        W10216  24.878  40.202   1.552
45056W        W10217   0.433   7.226   0.068
45057W        W10218  29.887  18.974   4.849
45058W        W10219  33.863  44.469   4.348
45059W        W10220   7.852  16.595   0.521
45060W        W10221  37.107  13.291   2.756
45061W        W10222  27.665  40.101   0.000
45062W        W10223  26.273  22.958  12.617
45063W        W10224  10.723  43.016   2.282
45064W        W10225  22.776   6.491   2.356
45065W        W10226  32.047  17.741   3.774
45066W        W10227   1.678  31.059   3.180
45067W        W10228  13.682  44.452   0.469
45068W        W10229  18.909  31.199   0.799
45069W        W10230  37.767  43.382   1.854
45070W        W10231  34.933   3.670   1.919
45071W        W10232   7.797  22.008   4.161
45072W        W10233  40.870  19.616  13.238
45073W        W10234   0.794  27.096   4.765
45074W        W10235   0.429  20.086  14.994
45075W        W10236   7.974  21.629  11.998
45076W        W10237   1.969  26.650   3.645
45077W        W10238  18.910  33.455   4.221
45078W        W10239  39.969  27.976  10.515
45079W        W10240  17.756  38.939   2.285
45080W        W10241   1.731  11.737  12.956
45081W        W10242  44.412  24.142  10.300
45082W        W10243  43.942   1.512  10.624
45083W        W10244  26.132  40.425   4.218
45084W        W10245   7.929  17.301   5.058
45085W        W10246  16.684   2.082  13.000
45086W        W10247   8.537  23.203   1.676
45087W        W10248  42.351  10.150   1.184
45088W        W10249  39.650  39.548   0.831
45089W        W10250  19.211  28.898  12.362
45090W        W10251  18.943  19.223  10.683
45091W        W10252  33.123  10.891   3.205
45092W        W10253  31.129  14.550  11.081
45093W        W10254  32.193  17.503   2.844
45094W        W10255  14.632  13.815  12.089
45095W        W10256   8.790   2.505   1.261
45096W        W10257   8.922  15.361   4.232
45097W        W10258  37.939   7.376   0.443
45098W        W10259  20.049   0.435   1.647
45099W        W10260   5.453  26.484   0.376
45100W        W10261  18.055  44.843   2.810
45101W        W10262  27.606  33.485   4.130
45102W        W10263  20.009  39.550   1.379
45103W        W10264  27.686  15.645  14.714
45104W        W10265  13.978  17.660  13.634
45105W        W10266  28.555  35.853  14.269
45106W        W10267  39.944  10.136   2.348
45107W        W10268  30.039  35.509  12.592
45108W        W10269  11.311  27.955   1.660
45109W        W10270  43.788  10.538   4.193
45110W        W10271  42.771  15.137  10.678
45111W        W10272   3.009   3.843   2.185
45112W        W10273  29.041   6.242   2.177
45113W        W10274   8.322  41.546   0.347
45114W        W10275   4.818  40.760  13.243
45115W        W10276   7.931  24.171   3.189
45116W        W10277  14.732  20.794  11.013
45117W        W10278  23.032  21.323  12.973
45118W        W10279  37.702   0.805   1.379
45119W        W10280  20.560  35.844  13.824
45120W        W10281  17.195  29.068  11.381
45121W        W10282   7.268  10.787   1.227
45122W        W10283  41.732  26.652  12.181
45123W        W10284  10.936  28.884   2.754
45124W        W10285  32.438  30.040  11.161
45125W        W10286  39.163  44.526  14.906
45126W        W10287   1.821  12.581  12.448
45127W        W10288  34.410  42.194   2.795
45128W        W10289  28.352   5.192   4.941
45129W        W10290  31.427  43.216   2.773
45130W        W10291   5.951  14.233  10.764
45131W        W10292  44.745  22.668   1.372
45132W        W10293   8.272  32.220   3.241
45133W        W10294   9.467  37.556  10.344
45134W        W10295  30.387   6.670   1.829
45135W        W10296  18.815   9.444   2.330
45136W        W10297  23.067  15.874  14.959
45137W        W10298  33.019  35.176  14.431
45138W        W10299   4.764  18.384  13.972
45139W        W10300  38.839  34.191  11.171
45140W        W10301  41.984  23.987  13.488
45141W        W10302  12.666  11.137  14.309
45142W        W10303  37.605  19.592   2.937
45143W        W10304  34.532   0.016   0.833
45144W        W10305  18.586  22.536  13.543
45145W        W10306  16.595   0.451   1.045
45146W        W10307  38.992  11.637   2.319
45147W        W10308   5.800  22.538  11.622
45148W        W10309  29.500  18.622  12.420
45149W        W10310  39.144  41.893   2.798
45150W        W10311  43.787  28.039   0.831
45151W        W10312   3.804  35.632   1.910
45152W        W10313   3.232  14.421  14.517
45153W        W10314  10.670  33.416  14.401
45154W        W10315  38.756  27.360   2.349
45155W        W10316  20.936  12.321   0.828
45156W        W10317  40.814  43.470   0.970
45157W        W10318  18.313  41.809  13.977
45158W        W10319  12.202   5.755   3.724
45159W        W10320  34.734  39.561  10.644
45160W        W10321  16.466   4.737   4.573
45161W        W10322  19.524  24.206  13.467
45162W        W10323   6.819  39.483   2.050
45163W        W10324  35.331  31.737  12.487
45164W        W10325  13.354   9.537  14.448
45165W        W10326  43.782  29.405  12.343
45166W        W10327  22.451  15.590  11.968
45167W        W10328  24.209  26.236  10.771
45168W        W10329   7.349  16.746  14.329
45169W        W10330  33.443  27.148   1.343
45170W        W10331  33.654   9.930  11.278
45171W        W10332  35.157  32.306   1.274
45172W        W10333  17.398   8.579   1.857
45173W        W10334  38.888  33.218   0.799
45174W        W10335  18.531  14.612   2.379
45175W        W10336  34.779   4.089  14.413
45176W        W10337  15.802  37.253  10.890
45177W        W10338  30.519  20.653  14.257
45178W        W10339  28.509  34.112  14.925
45179W        W10340  18.825  20.585  13.462
45180W        W10341  35.775  30.041   1.212
45181W        W10342   3.172  32.654  11.096
45182W        W10343  42.854  34.594  12.656
45183W        W10344   7.236  43.999  11.901
45184W        W10345   7.906  35.570  12.910
45185W        W10346  44.936  37.497   2.796
45186W        W10347  25.798  42.003   3.260
45187W        W10348  40.561  29.397  12.081
45188W        W10349  27.518  43.008   4.326
45189W        W10350  27.608  21.523  13.474
45190W        W10351   9.175  38.845   1.728
45191W        W10352  36.826   7.591   3.185
45192W        W10353   1.824  12.330   2.244
45193W        W10354  21.191   4.905  13.440
45194W        W10355  40.530  16.955  11.445
45195W        W10356   6.992  15.878  13.346
45196W        W10357  43.958  18.752   2.912
45197W        W10358  25.606  26.294  13.747
45198W        W10359  16.537  19.083   2.087
45199W        W10360  14.796  15.720   0.276
45200W        W10361   1.782   9.688   0.987
45201W        W10362  14.496  42.382   0.869
45202W        W10363  22.158  10.318  14.351
45203W        W10364  32.019  14.653   1.807
45204W        W10365  24.225  33.409  14.981
45205W        W10366   0.672   2.829   4.256
45206W        W10367   5.277  42.195  10.467
45207W        W10368  18.849   8.776   3.700
45208W        W10369  37.923  36.407   1.412
45209W        W10370  43.677  40.833   2.218
45210W        W10371  19.103  18.779  13.114
45211W        W10372   1.939  25.175  11.504
45212W        W10373  27.331  35.849  13.838
45213W        W10374  33.358  19.194   4.570
45214W        W10375   4.355  10.319  10.447
45215W        W10376  24.460  16.527  12.452
45216W        W10377  32.627  22.337   5.022
45217W        W10378  32.893  27.662  11.713
45218W        W10379  26.198  16.013   0.131
45219W        W10380  41.454  16.964   4.601
45220W        W10381  30.912  29.518   4.065
45221W        W10382   2.290  14.933   5.444
45222W        W10383  17.150  17.198   2.017
45223W        W10384   2.039  25.521  10.905
45224W        W10385   0.431  22.656  13.004
45225W        W10386  33.465   0.449  14.952
45226W        W10387  36.377   9.661   2.691
45227W        W10388   8.323  20.750   2.632
45228W        W10389  16.467   1.278  12.470
45229W        W10390  31.764  10.451   5.168
45230W        W10391   0.102  42.963   3.156
45231W        W10392  15.821   5.866  11.397
45232W        W10393  35.610  42.332  13.511
45233W        W10394  38.779  13.638  11.545
45234W        W10395   7.394  27.612   0.776
45235W        W10396  10.273  38.474   1.187
45236W        W10397  17.116  37.976   5.243
45237W        W10398  37.894  37.915  13.029
45238W        W10399   1.974  40.576   1.708
45239W        W10400  26.473   3.728  13.489
45240W        W10401  22.243   7.743   3.376
45241W        W10402  36.427  25.053  12.151
45242W        W10403  16.373  35.514  14.477
45243W        W10404  21.680   3.425   1.216
45244W        W10405  12.281  33.888   2.716
45245W        W10406   7.738  38.324   2.431
45246W        W10407  22.407   1.210   4.774
45247W        W10408  21.948  13.549  11.642
45248W        W10409  12.747  10.953  13.302
45249W        W10410  20.335  13.827   2.591
45250W        W10411  10.413  24.934  10.251
45251W        W10412  28.246  36.035   2.592
45252W        W10413  41.420   3.635  13.380
45253W        W10414   0.969  32.216  11.602
45254W        W10415  22.711  17.401   1.497
45255W        W10416  36.707  23.881  13.103
45256W        W10417   8.678  14.252  10.196
45257W        W10418  13.806  35.832   0.877
45258W        W10419  18.515  10.423  10.283
45259W        W10420  21.526  26.143   2.972
45260W        W10421  15.017  19.714   2.720
45261W        W10422  36.979   1.891   2.123
45262W        W10423   8.674  29.011   4.988
45263W        W10424   1.016  36.398   1.227
45264W        W10425   4.415  35.831   1.676
45265W        W10426  33.361  27.473  12.512
45266W        W10427  13.460   3.342   2.650
45267W        W10428  33.873  14.527   0.416
45268W        W10429  23.485  28.000  12.652
45269W        W10430  34.299  14.718   2.162
45270W        W10431  32.797   1.155  11.097
45271W        W10432   2.450  27.034   2.034
45272W        W10433  14.697   1.264  10.680
45273W        W10434  43.463  23.480  12.024
45274W        W10435  41.268   7.355  12.483
45275W        W10436  43.740  44.708   2.247
45276W        W10437  13.631  21.087   2.772
45277W        W10438  17.669  43.731  14.295
45278W        W10439  31.601  22.617   1.366
45279W        W10440  23.552  30.079  12.986
45280W        W10441  27.555  16.752  11.065
45281W        W10442   3.491  10.625   0.776
45282W        W10443  21.519  41.044   0.193
45283W        W10444  11.766  14.423   1.272
45284W        W10445  31.437  13.525   0.671
45285W        W10446  25.641  12.280   0.391
45286W        W10447   8.802  37.071   3.633
45287W        W10448  16.519  17.262   5.414
45288W        W10449  33.877  23.578  10.141
45289W        W10450  23.138  25.411   1.520
45290W        W10451  23.820   9.074   4.029
45291W        W10452  11.660  14.668  11.469
45292W        W10453  35.461  14.932  12.802
45293W        W10454  30.458  41.117  13.948
45294W        W10455  43.552  33.938   2.327
45295W        W10456  22.744  34.658  11.938
45296W        W10457  16.432  11.766   4.658
45297W        W10458  37.647   2.178  14.851
45298W        W10459   2.971   0.851   0.973
45299W        W10460  20.464  10.107   4.499
45300W        W10461   6.408  10.343  12.047
45301W        W10462  11.417  44.844   2.218
45302W        W10463  43.913  27.054   4.170
45303W        W10464   8.372  30.065   3.052
45304W        W10465   7.180  18.087   1.831
45305W        W10466  38.325  32.073  13.197
45306W        W10467  12.787  18.562   0.041
45307W        W10468  15.323  13.326   0.414
45308W        W10469  13.038  21.029  11.408
45309W        W10470   5.215  37.871   3.184
45310W        W10471  16.685  24.058   3.373
45311W        W10472   4.316  26.961  12.030
45312W        W10473   4.923  24.942   3.483
45313W        W10474   0.024  37.340  12.941
45314W        W10475  28.143  20.498  14.890
45315W        W10476   5.745   4.920  14.427
45316W        W10477  38.063  11.057  12.635
45317W        W10478  43.298   3.328  14.615
45318W        W10479  12.867  29.662   3.996
45319W        W10480  38.023  38.208   4.562
45320W        W10481  11.010  33.678   3.769
45321W        W10482  15.370   9.797  14.493
45322W        W10483  20.608  14.506  12.090
45323W        W10484  38.951  42.885   0.828
45324W        W10485   5.130   4.362   1.712
45325W        W10486  18.347   8.157  13.448
45326W        W10487  24.151  13.250  13.358
45327W        W10488  36.019  44.084  11.608
45328W        W10489  41.757  23.352  12.832
45329W        W10490  26.596  18.786  13.100
45330W        W10491   1.281   9.408  11.083
45331W        W10492  43.240  41.896   0.837
45332W        W10493  20.348  28.501   3.305
45333W        W10494   7.370   4.687  13.960
45334W        W10495   8.182  41.823  12.494
45335W        W10496   4.453  30.802  11.140
45336W        W10497   6.508  39.230   2.873
45337W        W10498  20.946  22.136  11.962
45338W        W10499  24.757  16.596   4.546
45339W        W10500  43.839  28.238   2.814
45340W        W10501  40.997  27.472   1.787
45341W        W10502   3.835  33.543  13.435
45342W        W10503  41.650  37.520   4.460
45343W        W10504  17.488  24.213   1.779
45344W        W10505  44.792  11.824  13.344
45345W        W10506  38.128  43.285   0.385
45346W        W10507  33.707  32.823  11.557
45347W        W10508  23.595  37.968  14.905
45348W        W10509   3.834  39.866  13.890
45349W        W10510  42.790  15.883  11.391
45350W        W10511   9.330  26.993  11.982
45351W        W10512  31.011  23.235   2.841
45352W        W10513  23.003  29.933   1.864
45353W        W10514  21.616  23.961   3.714
45354W        W10515  19.168   9.705  12.176
45355W        W10516  28.010   9.222   0.012
45356W        W10517   8.593  22.055   3.038
45357W        W10518  19.222   3.133   2.329
45358W        W10519   9.229  21.031   2.495
45359W        W10520  27.564  41.287  12.906
45360W        W10521  24.068   3.531  10.656
45361W        W10522  43.456  37.306  11.948
45362W        W10523  21.817  40.438   3.181
45363W        W10524  33.441  36.394  14.671
45364W        W10525   2.763  36.942  14.443
45365W        W10526  43.811  11.959   1.031
45366W        W10527   6.719   9.835   0.480
45367W        W10528  28.401  31.463   2.335
45368W        W10529  12.084  37.680  14.241
45369W        W10530  33.930  22.227   3.222
45370W        W10531  37.997  31.574   1.978
45371W        W10532  25.761  23.929   0.539
45372W        W10533  18.786  23.521  10.352
45373W        W10534  27.684  16.653  11.578
45374W        W10535  29.330  44.183   5.063
45375W        W10536  26.068  29.731   2.365
45376W        W10537  41.451  34.628   3.090
45377W        W10538  37.009  38.921   4.979
45378W        W10539  15.103  18.228   2.153
45379W        W10540  15.086  39.804   0.845
45380W        W10541  12.148  39.562  13.377
45381W        W10542   1.741   3.231  13.012
45382W        W10543  20.813  30.947   3.356
45383W        W10544  20.999  39.703   9.364
45384W        W10545  19.027  24.536  14.890
45385W        W10546   2.210  20.153  11.464
45386W        W10547  25.593  24.491  14.229
45387W        W10548  13.152   3.227  11.448
45388W        W10549  23.364   9.289  11.078
45389W        W10550   4.333   2.725  12.535
45390W        W10551  42.998  36.347  14.950
45391W        W10552  35.891  39.601   2.271
45392W        W10553   4.399  36.888   0.648
45393W        W10554   8.960  10.162   3.785
45394W        W10555  24.272  27.387  13.760
45395W        W10556  21.224  16.382  14.018
45396W        W10557  27.333  23.836  13.476
45397W        W10558   9.695  28.070   4.771
45398W        W10559   5.206  29.359  11.093
45399W        W10560  38.888  11.933   1.905
45400W        W10561  10.070   2.256   0.993
45401W        W10562  22.200  41.447  13.824
45402W        W10563  39.348  13.638  13.732
45403W        W10564  37.870  22.260  10.580
45404W        W10565  41.048  43.444   1.964
45405W        W10566  42.998  25.231   4.614
45406W        W10567   4.381  31.823   1.361
45407W        W10568  40.125  23.236  12.082
45408W        W10569  22.397  28.615   9.933
45409W        W10570   0.807   0.733   1.923
45410W        W10571  24.046   8.418   0.653
45411W        W10572   3.664  29.818   9.983
45412W        W10573  27.104   6.972   1.400
45413W        W10574  29.958  21.459  11.147
45414W        W10575  41.032  10.204   0.132
45415W        W10576  20.996  40.115  13.782
45416W        W10577  20.112  11.416  12.581
45417W        W10578  23.608  20.014   4.751
45418W        W10579  32.197  29.169   1.250
45419W        W10580  15.213  19.160   2.273
45420W        W10581  29.172  24.742  10.648
45421W        W10582  35.239   9.677   1.284
45422W        W10583  15.146  40.555   2.213
45423W        W10584  35.406  24.541  12.379
45424W        W10585   5.444  42.926  13.427
45425W        W10586  19.009   3.366   5.032
45426W        W10587  33.864  24.962  11.121
45427W        W10588  15.859  32.615  10.982
45428W        W10589  31.863  36.565  12.918
45429W        W10590  30.253  37.583   4.974
45430W        W10591  36.898  13.703   4.089
45431W        W10592   7.769   6.621   1.322
45432W        W10593  34.514  44.232   4.087
45433W        W10594  16.793   2.839   1.327
45434W        W10595  11.199  38.653  14.765
45435W        W10596  26.450  25.567  14.245
45436W        W10597   1.726  14.175   0.971
45437W        W10598  43.827  44.752   0.246
45438W        W10599  41.397  42.050  11.310
45439W        W10600  41.028  23.619  14.623
45440W        W10601   2.635  22.864   1.365
45441W        W10602  14.193  43.903   3.121
45442W        W10603  39.055  22.252   3.265
45443W        W10604  23.929   9.561   0.821
45444W        W10605  40.777   6.428   1.836
45445W        W10606  25.124  28.947   4.411
45446W        W10607   5.339  14.141  10.907
45447W        W10608  38.964   3.042   4.794
45448W        W10609  44.925   3.136  11.868
45449W        W10610  22.738  22.137  14.881
45450W        W10611  22.069  13.311   3.211
45451W        W10612  18.187  13.097  13.044
45452W        W10613  39.816   7.236  12.618
45453W        W10614  12.014   9.622  12.158
45454W        W10615  22.531  22.722   3.763
45455W        W10616   3.036   3.861  14.709
45456W        W10617  31.640  26.699  14.874
45457W        W10618  21.259   5.445  14.501
45458W        W10619  11.110  19.333   0.411
45459W        W10620  32.397   1.478  10.985
45460W        W10621  20.300  41.872   3.382
45461W        W10622  27.544  37.816   0.006
45462W        W10623  24.431  26.419  13.491
45463W        W10624  29.436   6.126   4.496
45464W        W10625  19.691  36.339  14.495
45465W        W10626  33.876  28.997  14.684
45466W        W10627  37.375   8.481  12.268
45467W        W10628  37.563   7.362  11.650
45468W        W10629  16.911   6.987  12.038
45469W        W10630  35.723  33.209   0.704
45470W        W10631  19.721   2.927   0.352
45471W        W10632   9.154  20.125   1.648
45472W        W10633  44.533  21.003  14.419
45473W        W10634  17.285   4.418  12.378
45474W        W10635  16.761  27.241  13.911
45475W        W10636   1.891  27.571  10.409
45476W        W10637  29.368   8.736   4.079
45477W        W10638  44.744   3.336   1.401
45478W        W10639  38.120  20.616   0.524
45479W        W10640   6.858  18.311  11.980
45480W        W10641   4.277   0.027  13.407
45481W        W10642  28.624  26.639   2.906
45482W        W10643   0.294  22.659  11.574
45483W        W10644  10.412  39.069   1.921
45484W        W10645  40.387  18.090   2.272
45485W        W10646   8.886  12.375  13.522
45486W        W10647  36.935  38.579   0.668
45487W        W10648  13.626  40.227   4.256
45488W        W10649  42.893   7.990   1.445
45489W        W10650   0.768  39.645  11.569
45490W        W10651  27.235  23.087   3.245
45491W        W10652   8.876   5.634   0.805
45492W        W10653   7.295  38.387   1.485
45493W        W10654  18.663  34.278   0.288
45494W        W10655   3.625   3.239  12.662
45495W        W10656  32.008  30.007  11.418
45496W        W10657  24.662  16.589   1.750
45497W        W10658  38.048  32.919  13.058
45498W        W10659  23.218  11.196   0.688
45499W        W10660  44.584  16.692  11.629
45500W        W10661   4.779   3.761  12.878
45501W        W10662  19.199   7.591  13.449
45502W        W10663  17.282  35.910  14.796
45503W        W10664   3.472  40.650   0.400
45504W        W10665  10.754  43.513  10.399
45505W        W10666   0.681  11.111   3.014
45506W        W10667  27.186  32.054  13.753
45507W        W10668  23.245  37.754   4.651
45508W        W10669  17.349  26.587   0.357
45509W        W10670  35.850  27.159   0.823
45510W        W10671  25.868  43.350  12.610
45511W        W10672   0.224  21.394   4.536
45512W        W10673   7.474  20.634  11.032
45513W        W10674  14.923  24.739  12.057
45514W        W10675  21.324  16.579   0.292
45515W        W10676  24.563  44.992   3.693
45516W        W10677  22.560   2.837  14.377
45517W        W10678  23.052  32.166  10.771
45518W        W10679  12.359  42.352   0.936
45519W        W10680  22.994  36.551  14.953
45520W        W10681  13.569  36.903  12.836
45521W        W10682  37.739  35.421   1.365
45522W        W10683  24.136  10.272   1.282
45523W        W10684  39.087  32.785   4.408
45524W        W10685  40.222  26.417   2.887
45525W        W10686  15.161  33.361   1.733
45526W        W10687  43.859  11.072  10.587
45527W        W10688  42.039  33.498  13.323
45528W        W10689   4.787  44.792   1.660
45529W        W10690  20.764  33.883   1.630
45530W        W10691  24.373   8.161  12.491
45531W        W10692  40.320   8.358  12.862
45532W        W10693  16.070  35.731   2.331
45533W        W10694   0.788   1.400   1.663
45534W        W10695  44.378  44.089   2.375
45535W        W10696  28.723  41.747   1.930
45536W        W10697  14.636  24.947  11.038
45537W        W10698  18.335  32.037  11.593
45538W        W10699  34.641   3.276  12.375
45539W        W10700   7.752  22.977   1.353
45540W        W10701   7.870   0.968  14.741
45541W        W10702  12.114  15.924  11.599
45542W        W10703  17.121   9.807   4.378
45543W        W10704  42.377  10.686  14.089
45544W        W10705  42.738  14.642   5.084
45545W        W10706  12.792  40.917  14.405
45546W        W10707  26.416   0.540   2.606
45547W        W10708  10.175   2.835   1.730
45548W        W10709  36.461  40.438  10.933
45549W        W10710   5.958   2.108  14.232
45550W        W10711  22.595  39.880  13.441
45551W        W10712  36.508   5.789  12.536
45552W        W10713  20.223  42.182   4.997
45553W        W10714  10.608  42.545  12.053
45554W        W10715  25.755  12.382  11.827
45555W        W10716  17.796   7.782  13.487
45556W        W10717  20.628   7.281  13.741
45557W        W10718   5.945   6.153  10.869
45558W        W10719  16.876  20.608   3.256
45559W        W10720  34.591  14.703  11.011
45560W        W10721  43.478  27.712   1.732
45561W        W10722  34.297  13.011  14.804
45562W        W10723  14.243  29.224  13.568
45563W        W10724   2.039  10.360  11.098
45564W        W10725  38.308  34.627   4.320
45565W        W10726  41.496  37.737  10.758
45566W        W10727  19.259  41.097  11.221
45567W        W10728  39.743  41.368  12.165
45568W        W10729   0.180   6.703   1.416
45569W        W10730  39.760  13.803   2.003
45570W        W10731  13.992  35.934  14.947
45571W        W10732  13.664   6.398   0.351
45572W        W10733  37.605  32.466   1.689
45573W        W10734  17.502   6.814  10.721
45574W        W10735  18.822  23.794   2.802
45575W        W10736   9.131   1.783   1.817
45576W        W10737  44.544  33.635   0.045
45577W        W10738  27.659  11.617  14.965
45578W        W10739  11.242  23.113   2.746
45579W        W10740  15.350  10.903   1.422
45580W        W10741  19.087  36.452  12.124
45581W        W10742  42.768  43.317   1.221
45582W        W10743   4.205  12.350   2.388
45583W        W10744  37.084  30.661   1.704
45584W        W10745  40.971  12.928   3.536
45585W        W10746   8.294  27.165  14.544
45586W        W10747  33.507  29.033   0.739
45587W        W10748  27.102   7.432  14.813
45588W        W10749  30.671  17.557   0.387
45589W        W10750  16.693  26.034   1.987
45590W        W10751  11.799  43.340  14.657
45591W        W10752  26.245  12.563  13.862
45592W        W10753  32.906  10.276  12.973
45593W        W10754   4.442  27.415  12.690
45594W        W10755  35.840  41.976   3.131
45595W        W10756  36.569  12.755  14.719
45596W        W10757  33.059  31.001   3.381
45597W        W10758  12.386   3.883  11.255
45598W        W10759   9.363   0.761   3.347
45599W        W10760  27.990   6.972   3.843
45600W        W10761  12.574  38.823  13.850
45601W        W10762  25.085  35.435   2.680
45602W        W10763  11.799  12.048  13.390
45603W        W10764   9.814  37.883  13.610
45604W        W10765   2.509  32.963  12.960
45605W        W10766  33.964  31.886  11.520
45606W        W10767  11.707  24.689  13.614
45607W        W10768  44.363  12.170  12.201
45608W        W10769   3.378  23.964  11.926
45609W        W10770  27.243  29.124   1.744
45610W        W10771  13.010  43.248   4.619
45611W        W10772  14.008   6.695   0.668
45612W        W10773  27.923  26.635  13.334
45613W        W10774  28.371  24.737   4.090
45614W        W10775  39.339  32.958   1.788
45615W        W10776  40.334  28.491  10.873
45616W        W10777  30.037  22.723   3.165
45617W        W10778  34.673  38.543   0.387
45618W        W10779  22.681  39.346  13.383
45619W        W10780  15.844  31.996  13.020
45620W        W10781  35.992  36.883  11.987
45621W        W10782  33.917   7.145   2.229
45622W        W10783  21.795   6.688  11.931
45623W        W10784  29.091  34.444   3.639
45624W        W10785   5.384  31.790   4.806
45625W        W10786  16.982  11.759   4.459
45626W        W10787  33.832   9.845  10.728
45627W        W10788   0.789  23.743   1.419
45628W        W10789  41.517   2.354   3.122
45629W        W10790  26.619  21.492   0.090
45630W        W10791   9.179  39.456  14.305
45631W        W10792  12.594   6.432  11.852
45632W        W10793  12.207  43.420  10.747
45633W        W10794  39.480   1.016  10.713
45634W        W10795  17.125  41.448  13.322
45635W        W10796  24.646  28.407   2.245
45636W        W10797  14.793  31.721   2.215
45637W        W10798  10.560  34.534  13.076
45638W        W10799   1.457   7.309  14.050
45639W        W10800  43.247  42.089  11.835
45640W        W10801   8.264   0.295   1.145
45641W        W10802  21.960  38.196   9.979
45642W        W10803  24.494  24.066  13.510
45643W        W10804  24.636  36.837  11.035
45644W        W10805   9.372  17.515   3.636
45645W        W10806   7.624   4.219   3.782
45646W        W10807  40.965   3.784  13.870
45647W        W10808  17.843  41.243   3.239
45648W        W10809  16.739  13.660  12.844
45649W        W10810  31.629  35.581  14.895
45650W        W10811  14.781   7.134   3.470
45651W        W10812  34.587  41.645   4.068
45652W        W10813  17.033  32.842  10.828
45653W        W10814  37.960   3.437   4.166
45654W        W10815   9.274  23.049  14.019
45655W        W10816  22.965  43.846   1.647
45656W        W10817  31.093   7.770  14.372
45657W        W10818  20.920   9.833  14.378
45658W        W10819  31.683  20.226   2.499
45659W        W10820   1.288   5.712   0.318
45660W        W10821   1.286  35.886  11.162
45661W        W10822  31.506  26.960   0.331
45662W        W10823  44.931  43.832  13.000
45663W        W10824  34.173  32.139  11.929
45664W        W10825  27.368  29.587   1.472
45665W        W10826  38.704  43.857   1.095
45666W        W10827  30.919  18.241  10.687
45667W        W10828  24.065  11.204  12.642
45668W        W10829  28.590  40.831  14.821
45669W        W10830  34.136  26.137  11.562
45670W        W10831   6.717  24.546   4.791
45671W        W10832  25.728  34.386  10.515
45672W        W10833  42.237   9.792  13.975
45673W        W10834  11.928  38.769  12.456
45674W        W10835  11.035  27.015   1.967
45675W        W10836  24.198   8.593   5.010
45676W        W10837  20.033  31.672  14.525
45677W        W10838  39.835  17.543   1.679
45678W        W10839  32.149   3.854   2.340
45679W        W10840  37.976  37.873  11.057
45680W        W10841  14.164  42.751  11.618
45681W        W10842  13.146   1.885  13.977
45682W        W10843   5.261  37.895   2.590
45683W        W10844  19.944   9.958  14.146
45684W        W10845  40.582  39.259   0.267
45685W        W10846   3.378  23.885  13.456
45686W        W10847  26.132   4.896  13.643
45687W        W10848  40.488  28.264   3.200
45688W        W10849  21.159  24.721  10.979
45689W        W10850   3.714   0.386  13.325
45690W        W10851   4.772  38.860  11.129
45691W        W10852  30.708   5.938   2.193
45692W        W10853  26.006  30.069   4.106
45693W        W10854   1.720   8.642  12.195
45694W        W10855  27.556  29.606  11.998
45695W        W10856   0.257  12.159   4.980
45696W        W10857  14.170  20.033  12.484
45697W        W10858  23.606  24.186   3.235
45698W        W10859  33.501  12.906   2.300
45699W        W10860  37.364  16.295  12.857
45700W        W10861  20.967  23.687   4.883
45701W        W10862  32.075  12.301  12.917
45702W        W10863  12.769  24.430   1.702
45703W        W10864   7.812  32.225  12.596
45704W        W10865  26.057  43.467  13.981
45705W        W10866  36.633   5.490  14.431
45706W        W10867  11.394  41.449   4.525
45707W        W10868  38.531   1.749  14.819
45708W        W10869  11.810  21.008   3.204
45709W        W10870  40.469   8.529   0.968
45710W        W10871  29.928  26.111  12.344
45711W        W10872  17.958   7.839  10.743
45712W        W10873  17.859  38.790   4.228
45713W        W10874  35.338  37.985   1.881
45714W        W10875  12.579   7.571   4.020
45715W        W10876  14.258   6.834   1.364
45716W        W10877   5.276  44.494  13.835
45717W        W10878  43.489  27.625   0.845
45718W        W10879   5.576  14.897   9.879
45719W        W10880  31.062  23.206  13.312
45720W        W10881  34.175  38.011   3.796
45721W        W10882   1.798  24.820   3.353
45722W        W10883  31.210   1.736  11.556
45723W        W10884   6.301  13.764  13.547
45724W        W10885  26.716  20.596   3.783
45725W        W10886   1.371  28.501   2.958
45726W        W10887   5.184  24.063   0.536
45727W        W10888  27.664  29.075   3.621
45728W        W10889  34.518  37.962   1.344
45729W        W10890   5.425   9.224  13.492
45730W        W10891   9.369   5.470   1.738
45731W        W10892   5.719   3.540   0.940
45732W        W10893   8.383  36.856  14.067
45733W        W10894  36.834  14.061  14.304
45734W        W10895  39.151   4.652   5.161
45735W        W10896  38.528   7.354  12.098
45736W        W10897  31.555   2.975  14.439
45737W        W10898  22.471  15.561   4.103
45738W        W10899  29.602  16.121  11.655
45739W        W10900  42.032  16.971  12.935
45740W        W10901  15.716  35.140   3.616
45741W        W10902  41.865  35.542   4.577
45742W        W10903  30.370   5.335   4.678
45743W        W10904  18.521  12.230   0.789
45744W        W10905  12.468  21.598  11.532
45745W        W10906  14.884   1.993  14.545
45746W        W10907  11.372  35.580   0.544
45747W        W10908   2.945   1.754  13.814
45748W        W10909   5.235  16.005   0.680
45749W        W10910   8.165  22.207  14.916
45750W        W10911  18.727  21.589   4.534
45751W        W10912  21.475  21.192   3.339
45752W        W10913  10.396   1.962  12.642
45753W        W10914  17.987  35.592   2.817
45754W        W10915  43.302  31.551   2.256
45755W        W10916  10.562  33.847   3.502
45756W        W10917  32.289  13.867  13.501
45757W        W10918  16.257  28.410   0.271
45758W        W10919  36.876  38.529  12.788
45759W        W10920  11.616  39.731  14.072
45760W        W10921  37.059  26.189  11.534
45761W        W10922  17.469   1.462  14.324
45762W        W10923  40.456  14.396   0.429
45763W        W10924  40.399  24.068   1.299
45764W        W10925   8.857  24.220   2.109
45765W        W10926  42.241   1.249   0.888
45766W        W10927  29.243  20.556  11.583
45767W        W10928  37.734  28.402   4.487
45768W        W10929  14.576  34.079  14.970
45769W        W10930  10.400  42.406  12.987
45770W        W10931  35.081  10.386   0.794
45771W        W10932   1.532   3.403   0.728
45772W        W10933  36.125  12.873   1.962
45773W        W10934  42.154   0.196  10.246
45774W        W10935  21.675  42.490   3.787
45775W        W10936  42.732  18.492  10.450
45776W        W10937  31.172   1.110  12.638
45777W        W10938  12.677  12.980  13.477
45778W        W10939  37.393  38.442   3.427
45779W        W10940  34.598  37.353  13.952
45780W        W10941  26.665  21.548  13.883
45781W        W10942  36.604   3.467   0.851
45782W        W10943  43.010  42.186  14.832
45783W        W10944  12.559   8.584   1.738
45784W        W10945   8.693  18.631   4.397
45785W        W10946  23.674  19.667  11.738
45786W        W10947  22.953  42.918  10.086
45787W        W10948  35.726  25.870   4.674
45788W        W10949  43.415  31.911   3.444
45789W        W10950   4.183  13.994  10.267
45790W        W10951  12.767  32.926  10.651
45791W        W10952  15.686  19.094   4.844
45792W        W10953  37.571   6.960  12.632
45793W        W10954  41.942   1.005   4.142
45794W        W10955  10.594  10.972   4.567
45795W        W10956  18.232  40.976   0.737
45796W        W10957  31.239  23.655   9.832
45797W        W10958  39.432  10.356  11.032
45798W        W10959  39.052  44.136  10.642
45799W        W10960  17.688  43.760   2.242
45800W        W10961  21.231  12.646  12.066
45801W        W10962   2.907  23.321  13.924
45802W        W10963  11.357  23.637   2.667
45803W        W10964   7.313  41.870   1.341
45804W        W10965  11.343  39.115  13.424
45805W        W10966  16.469  17.692  12.836
45806W        W10967  20.636   8.515  12.835
45807W        W10968   0.056   0.453   3.265
45808W        W10969   8.549  30.427   4.199
45809W        W10970  16.630  26.770  14.913
45810W        W10971  10.319  23.445   4.234
45811W        W10972  35.283  27.446   0.295
45812W        W10973  11.145  41.039  11.987
45813W        W10974   9.639  20.215   3.475
45814W        W10975  35.622  34.955   4.024
45815W        W10976  29.067   8.408   1.351
45816W        W10977  15.353  17.143   1.747
45817W        W10978   0.426  35.127  12.323
45818W        W10979  32.573  42.168  11.359
45819W        W10980  13.907  10.722  12.961
45820W        W10981  43.465  43.543  12.859
45821W        W10982   8.804  10.933   1.240
45822W        W10983  27.467  28.601  13.380
45823W        W10984  20.217  26.566   2.820
45824W        W10985  12.843  24.770   1.304
45825W        W10986   2.159  33.516   4.136
45826W        W10987  39.237   7.015  10.112
45827W        W10988  24.349   1.657  10.703
45828W        W10989   8.774  24.732   1.510
45829W        W10990  37.002  28.598  14.389
45830W        W10991  10.088  44.369   2.212
45831W        W10992   2.678   6.961   2.175
45832W        W10993  27.633  35.343  12.068
45833W        W10994  43.843  36.109   1.852
45834W        W10995  35.420  32.069  14.359
45835W        W10996  13.089   1.955   3.775
45836W        W10997   7.534  35.438   3.730
45837W        W10998  21.902   6.933   4.210
45838W        W10999  23.576  24.507   2.216
45839W        W11000  14.851   8.290  11.168
45840W        W11001  44.122  26.206   0.971
45841W        W11002  17.579   2.974  11.029
45842W        W11003  13.898  10.261   4.456
45843W        W11004  31.897  35.649   4.611
45844W        W11005  16.267   6.418   1.801
45845W        W11006  42.828  13.774   3.663
45846W        W11007  10.398  23.820  14.522
45847W        W11008  44.021  33.074   3.743
45848W        W11009  36.777  36.800  12.008
45849W        W11010  24.304  22.146   1.747
45850W        W11011   0.354  27.026   1.559
45851W        W11012  27.912   1.370  11.563
45852W        W11013  24.679   7.584   4.318
45853W        W11014  21.403  15.003   4.372
45854W        W11015  24.338  20.608  12.703
45855W        W11016  12.386  11.675  12.588
45856W        W11017  37.350  18.235  11.480
45857W        W11018  12.785   9.291   2.228
45858W        W11019  13.989  30.569  12.024
45859W        W11020  32.680   2.282   1.927
45860W        W11021  16.056  41.626  11.970
45861W        W11022  32.245   9.929   1.731
45862W        W11023   0.546   9.851  12.421
45863W        W11024  18.230   6.781  13.038
45864W        W11025   3.054  18.818  12.418
45865W        W11026  22.710  32.106  12.726
45866W        W11027   0.902  40.112   2.470
45867W        W11028   1.181  26.497   4.159
45868W        W11029   3.451  43.994  14.573
45869W        W11030   3.500   0.280   3.277
45870W        W11031  36.798   5.228   4.218
45871W        W11032  38.893  18.381   1.406
45872W        W11033  16.055  18.768  11.886
45873W        W11034  22.649  37.936  12.111
45874W        W11035  18.991  16.834  13.022
45875W        W11036  31.550  20.744   0.388
45876W        W11037  24.689  37.020  14.518
45877W        W11038  19.670   1.233   2.681
45878W        W11039  12.706  42.524   9.823
45879W        W11040  12.549  10.273   2.248
45880W        W11041  22.549  11.247  14.296
45881W        W11042  27.486   5.741   1.890
45882W        W11043  14.258  16.572   0.285
45883W        W11044  15.856  24.678  11.700
45884W        W11045  26.924  20.597   3.326
45885W        W11046  25.920  13.321  11.221
45886W        W11047  38.002  35.936   4.961
45887W        W11048  42.277  16.362   4.250
45888W        W11049  31.165  43.918  12.560
45889W        W11050   8.443  43.987  10.768
45890W        W11051  34.076  26.722   0.839
45891W        W11052  14.951  21.338   2.367
45892W        W11053  39.050   0.071   1.283
45893W        W11054  16.158  35.372  14.003
45894W        W11055  28.428  16.237   4.518
45895W        W11056  22.941  29.656   0.631
45896W        W11057   4.452   3.377   3.226
45897W        W11058   1.243  18.130  14.408
45898W        W11059  15.748  19.589  12.593
45899W        W11060  23.022  14.647  10.564
45900W        W11061  12.545  29.121   0.841
45901W        W11062  24.004  17.652  13.473
45902W        W11063   1.712   1.892   0.636
45903W        W11064  30.036  23.550  13.848
45904W        W11065  22.543  26.588   1.287
45905W        W11066   8.311  13.901  10.747
45906W        W11067  35.366   4.415  13.407
45907W        W11068  16.942  14.236  10.675
45908W        W11069  40.936  15.143   1.754
45909W        W11070  40.337  22.131  14.796
45910W        W11071  40.869   8.730   4.013
45911W        W11072  20.560  17.409  10.227
45912W        W11073  26.839  37.222   4.549
45913W        W11074  32.086  30.108  14.158
45914W        W11075  19.826  41.502   1.356
45915W        W11076  11.575   2.301  10.967
45916W        W11077  42.761   0.773   2.846
45917W        W11078  28.546  12.424  12.606
45918W        W11079  12.118   1.810  13.561
45919W        W11080  40.376  10.137  14.494
45920W        W11081  16.886  43.099   4.033
45921W        W11082  12.710  39.816   0.433
45922W        W11083  19.828   3.355   3.647
45923W        W11084  37.049  37.850   3.476
45924W        W11085  14.205  24.917  11.658
45925W        W11086  43.061   9.269  12.931
45926W        W11087  43.553  34.436  14.284
45927W        W11088  32.092  32.398  13.397
45928W        W11089   2.957   5.416  10.600
45929W        W11090  40.188  37.311  12.779
45930W        W11091  33.682  41.977   3.293
45931W        W11092  29.160  13.179  12.614
45932W        W11093  34.882   2.790   0.798
45933W        W11094  30.552  30.956   1.618
45934W        W11095  38.555  18.900   4.046
45935W        W11096  21.095   2.890  14.389
45936W        W11097   1.535  37.612  10.896
45937W        W11098  17.634  13.241   2.797
45938W        W11099  21.687  31.539   1.835
45939W        W11100  35.553  43.369   2.270
45940W        W11101  41.768   7.282  13.888
45941W        W11102  25.773   5.578  11.992
45942W        W11103  27.325  24.676  10.078
45943W        W11104  29.062   0.498   2.266
45944W        W11105  44.493  14.081   0.899
45945W        W11106  26.585   1.230   0.218
45946W        W11107  11.204   7.439  14.271
45947W        W11108  19.933  42.362  14.384
45948W        W11109  11.915  12.337   1.484
45949W        W11110  30.230  20.067   4.239
45950W        W11111   3.175  43.286  13.262
45951W        W11112  17.190   6.954  11.550
45952W        W11113  32.876  16.982  10.989
45953W        W11114   6.288   7.240  12.964
45954W        W11115   1.765  29.954   3.598
45955W        W11116  14.678  30.676   3.944
45956W        W11117  11.334  13.827  14.070
45957W        W11118  38.988  14.579   3.883
45958W        W11119  26.985  27.145  10.987
45959W        W11120  31.289  10.472  13.502
45960W        W11121  26.031   6.000   9.974
45961W        W11122  30.149  30.496   1.342
45962W        W11123   5.109   1.381  10.654
45963W        W11124  27.303  16.336   3.781
45964W        W11125  44.409   5.657  10.238
45965W        W11126  24.002  29.191  13.390
45966W        W11127  32.561  20.212   3.091
45967W        W11128   8.618  41.743  11.186
45968W        W11129  20.150  30.656  12.056
45969W        W11130   7.373  21.207   4.529
45970W        W11131   3.435   4.437   4.381
45971W        W11132  12.159  23.671  11.229
45972W        W11133  43.875  14.452  12.864
45973W        W11134  20.563   9.695  12.175
45974W        W11135   7.594  39.271   4.552
45975W        W11136  29.483  43.895  10.663
45976W        W11137  21.898  23.159  10.349
45977W        W11138   6.013  28.183   3.734
45978W        W11139  38.773  40.436   0.849
45979W        W11140  27.814  23.737   3.632
45980W        W11141  36.402  32.073   0.980
45981W        W11142  19.647  34.184   4.984
45982W        W11143  12.300  43.181  12.081
45983W        W11144   0.040   9.198  12.996
45984W        W11145  40.756  28.209  13.535
45985W        W11146  10.783  22.205   4.750
45986W        W11147  34.867  16.024   2.309
45987W        W11148  29.160  22.546  14.330
45988W        W11149   2.889  34.470   1.585
45989W        W11150  21.315  38.781   2.748
45990W        W11151  19.620  31.032   2.622
45991W        W11152   5.350  33.440  10.973
45992W        W11153   5.830  24.728   5.443
45993W        W11154  38.895  35.113   3.148
45994W        W11155  43.051   2.866  12.469
45995W        W11156  36.547  40.895  12.170
45996W        W11157  39.034  42.950  13.361
45997W        W11158   8.347  44.907   1.488
45998W        W11159  29.924  39.011  14.521
45999W        W11160   4.957  37.030  14.512
46000W        W11161   1.853  44.967  12.134
46001W        W11162   0.752  40.114   4.218
46002W        W11163   7.306  15.246  12.486
46003W        W11164  37.798  12.532  12.435
46004W        W11165  12.692  33.204   2.356
46005W        W11166  16.553  39.388   3.665
46006W        W11167  13.618  23.020   1.561
46007W        W11168  17.773  34.306  14.785
46008W        W11169  40.987  16.601   1.703
46009W        W11170   0.259   7.578   1.841
46010W        W11171  44.187  20.332   2.669
46011W        W11172  40.156  12.842  12.507
46012W        W11173   3.708  33.704   0.703
46013W        W11174  14.041  33.560   4.952
46014W        W11175  41.371   4.119  14.771
46015W        W11176  27.440   9.653  11.581
46016W        W11177   2.426   3.445   2.766
46017W        W11178   5.308  11.770  10.182
46018W        W11179   3.824  16.829  10.254
46019W        W11180  23.865  20.151   3.399
46020W        W11181  29.972  25.252  12.912
46021W        W11182  25.722  35.011  11.438
46022W        W11183  29.786   1.482  11.168
46023W        W11184  21.149  10.491  12.502
46024W        W11185  25.103  12.895  13.359
46025W        W11186  37.482  19.749   1.507
46026W        W11187  37.288  15.080  12.981
46027W        W11188   0.574  17.162   2.179
46028W        W11189   9.778  43.077  14.987
46029W        W11190  16.840  19.679   3.264
46030W        W11191  40.391   4.892   3.388
46031W        W11192  13.768  37.862   0.639
46032W        W11193  11.410  13.418   0.732
46033W        W11194  19.903  35.658   2.268
46034W        W11195  33.971  27.898  11.377
46035W        W11196  33.582  27.020  11.377
46036W        W11197  25.061  40.413  11.300
46037W        W11198  11.337  16.816   3.203
46038W        W11199  13.715  19.702  12.534
46039W        W11200  28.039  18.078  13.838
46040W        W11201   7.383  10.231   3.915
46041W        W11202  44.059  38.401  13.306
46042W        W11203  30.234   1.840   3.334
46043W        W11204  10.688  30.604  10.406
46044W        W11205  13.574  41.935  11.977
46045W        W11206  42.464  37.199  14.523
46046W        W11207  41.724   2.893  13.804
46047W        W11208  30.214  23.027  13.108
46048W        W11209  21.079   9.108  11.545
46049W        W11210   9.084  10.852  13.886
46050W        W11211  34.516  12.394   3.491
46051W        W11212  32.684  41.858   0.890
46052W        W11213  25.380  40.722  11.566
46053W        W11214  42.947  10.854   0.525
46054W        W11215  43.945  11.142  11.095
46055W        W11216  32.691  30.936  11.190
46056W        W11217  42.926   4.456  14.822
46057W        W11218  43.759  14.943  12.981
46058W        W11219  10.268  25.960   4.172
46059W        W11220   2.449  34.846   3.837
46060W        W11221  31.143  34.467  14.967
46061W        W11222   6.291  34.378   0.682
46062W        W11223   5.130  11.191  14.473
46063W        W11224  40.466  43.038   0.627
46064W        W11225   7.415  12.345  13.836
46065W        W11226   4.419   8.875  14.309
46066W        W11227  30.886  15.644  14.811
46067W        W11228  38.387  20.707  10.806
46068W        W11229  37.460  32.049   3.943
46069W        W11230  19.241  17.376  12.496
46070W        W11231  12.762  24.953   1.788
46071W        W11232  30.046  43.578  14.524
46072W        W11233  14.602  30.961  11.265
46073W        W11234  14.587  15.089  13.548
46074W        W11235   0.695   3.810  10.369
46075W        W11236   5.249   0.055  11.094
46076W        W11237   1.454  39.956  13.315
46077W        W11238  44.116  42.449   0.832
46078W        W11239   7.544  27.228   2.270
46079W        W11240  40.083  40.420  14.774
46080W        W11241  33.561  31.364  14.720
46081W        W11242  27.520  30.498   1.914
46082W        W11243  17.717  21.850  14.335
46083W        W11244   2.002  14.219   1.877
46084W        W11245   5.775   3.477  13.338
46085W        W11246  10.783  30.020  12.916
46086W        W11247  21.613  32.116   4.865
46087W        W11248  43.331  37.912  14.239
46088W        W11249  23.673   5.940  11.245
46089W        W11250  22.149  37.357   3.880
46090W        W11251  14.131  21.951  14.516
46091W        W11252   5.409  12.847   3.157
46092W        W11253   6.279  26.140   0.425
46093W        W11254   1.745  10.233   0.665
46094W        W11255  35.914  31.853   2.685
46095W        W11256   3.980  17.100   2.171
46096W        W11257  30.052  40.066  11.023
46097W        W11258  43.822  44.266   0.456
46098W        W11259  18.577  10.896   2.461
46099W        W11260  39.074  12.832  14.908
46100W        W11261   6.631  22.545   0.816
46101W        W11262  17.034  32.736   4.119
46102W        W11263   3.331  44.437   5.057
46103W        W11264  19.083   1.960  14.796
46104W        W11265   1.034  33.627  10.844
46105W        W11266  13.907   3.829  11.695
46106W        W11267  22.582  37.628  11.656
46107W        W11268  27.903  15.789  11.584
46108W        W11269   9.235  42.536  11.078
46109W        W11270  17.245   4.160  13.332
46110W        W11271   7.921  36.978   3.402
46111W        W11272   1.203  44.012   1.062
46112W        W11273  13.423   7.724  14.734
46113W        W11274  28.521  22.443  10.644
46114W        W11275  26.868   7.253  14.277
46115W        W11276  34.604  37.514  13.058
46116W        W11277   4.838  18.315   4.598
46117W        W11278  36.920   3.001  14.738
46118W        W11279  11.285  21.081  10.341
46119W        W11280  43.853  14.330  12.023
46120W        W11281   2.247  26.921  12.563
46121W        W11282  29.167   7.285   2.818
46122W        W11283  15.363  31.994   0.559
46123W        W11284  38.061  26.723  11.254
46124W        W11285  40.137  17.691   3.230
46125W        W11286   0.814  43.689   0.328
46126W        W11287  27.874  22.784  11.549
46127W        W11288   6.806  43.286   3.711
46128W        W11289  42.420  20.711   1.027
46129W        W11290  41.308  22.663   4.281
46130W        W11291   2.398   5.756  13.709
46131W        W11292  17.266   9.095   1.772
46132W        W11293   5.452  12.723   2.214
46133W        W11294  24.405  40.207  13.899
46134W        W11295  21.470  10.860   4.238
46135W        W11296  13.851  16.186  12.975
46136W        W11297  15.970   5.331   3.941
46137W        W11298   7.354  16.094   0.405
46138W        W11299   2.810  25.863  12.391
46139W        W11300  27.712  44.165  11.487
46140W        W11301  11.999  28.993   0.327
46141W        W11302   1.346  17.827   9.713
46142W        W11303  19.757  36.393  12.692
46143W        W11304  41.482  38.376  14.024
46144W        W11305   3.287  16.496  11.554
46145W        W11306  11.541  35.339   3.404
46146W        W11307  19.528  36.767  14.823
46147W        W11308   7.202  31.794  13.074
46148W        W11309   3.411   2.179   2.722
46149W        W11310  33.578  19.092   1.291
46150W        W11311  22.234  35.460   4.769
46151W        W11312   2.030  34.009   0.470
46152W        W11313  21.967  20.650  12.079
46153W        W11314  21.199   8.745   3.498
46154W        W11315   3.707   5.270  13.937
46155W        W11316  40.812   9.498   1.329
46156W        W11317  40.056  19.753   3.331
46157W        W11318  24.574   0.822  12.364
46158W        W11319   5.378  39.832   3.138
46159W        W11320  39.555  15.214   0.998
46160W        W11321   5.323  33.076  12.460
46161W        W11322   0.266  17.223   4.197
46162W        W11323  13.798  23.232  11.941
46163W        W11324  36.821   4.453  14.268
46164W        W11325  44.391   6.248   3.236
46165W        W11326  38.314   0.446   1.052
46166W        W11327  13.684  27.134   3.943
46167W        W11328  35.034  44.910  12.497
46168W        W11329   7.755  24.462   3.755
46169W        W11330  26.662  43.637  12.961
46170W        W11331  26.948   9.611  11.728
46171W        W11332  18.769   9.809   2.799
46172W        W11333  29.930   1.696  12.907
46173W        W11334  16.052   5.156   2.351
46174W        W11335  10.615  44.398   2.186
46175W        W11336  29.880  31.229  11.675
46176W        W11337  42.421  27.665  11.557
46177W        W11338   8.212   5.758   0.438
46178W        W11339  32.137  11.503   0.690
46179W        W11340   1.285  34.876   1.740
46180W        W11341  33.973  34.462  14.835
46181W        W11342  25.833  21.039  14.821
46182W        W11343   1.481  32.595  10.626
46183W        W11344  41.792  35.545  11.112
46184W        W11345  15.888  41.511   3.714
46185W        W11346  37.108  36.294  11.608
46186W        W11347  22.182  16.830   1.265
46187W        W11348  33.361  22.206  11.630
46188W        W11349  37.248   4.921   0.443
46189W        W11350  21.769  38.406   2.007
46190W        W11351  44.250   2.849   5.119
46191W        W11352   1.497  20.860  14.026
46192W        W11353  32.428  33.542   0.441
46193W        W11354   3.220   0.271   4.175
46194W        W11355  32.560   6.266   1.411
46195W        W11356  39.750  40.991  10.619
46196W        W11357  31.090  39.890  13.946
46197W        W11358   1.278  27.579   2.317
46198W        W11359  34.171  22.014  12.022
46199W        W11360   9.751  14.241   4.430
46200W        W11361  34.831  28.039   3.198
46201W        W11362  42.596  24.452   3.375
46202W        W11363  22.193   0.788   2.135
46203W        W11364   1.333   1.899   4.098
46204W        W11365   3.384   0.389  12.342
46205W        W11366  34.318  33.794   4.014
46206W        W11367  41.295  40.354   0.323
46207W        W11368   6.720  12.192   0.532
46208W        W11369  13.091   6.393   1.702
46209W        W11370   4.848  10.095  10.623
46210W        W11371  36.466  34.729  12.019
46211W        W11372  38.005   1.074   4.050
46212W        W11373  24.623  23.091  13.916
46213W        W11374  24.575   2.661   4.734
46214W        W11375  40.936  42.978   2.262
46215W        W11376  24.224  17.694  12.086
46216W        W11377  35.062  39.800   1.358
46217W        W11378   6.351  28.008  12.296
46218W        W11379  15.709   6.222  10.947
46219W        W11380   6.156  13.800   0.341
46220W        W11381  13.667  27.231   0.728
46221W        W11382  32.918  17.094   4.628
46222W        W11383  25.978  11.617   1.338
46223W        W11384  43.998  42.409  13.499
46224W        W11385   0.846   4.706   1.864
46225W        W11386  44.572  19.002   1.843
46226W        W11387  33.424  15.894   4.621
46227W        W11388   6.851  31.501   3.730
46228W        W11389  36.264  12.212   2.343
46229W        W11390   5.736  23.764  10.893
46230W        W11391   1.488   8.010  14.661
46231W        W11392  25.420  44.413  13.000
46232W        W11393  23.917  25.986   1.627
46233W        W11394  26.466  18.299   2.756
46234W        W11395  15.059   2.661   0.117
46235W        W11396   5.824  44.024   0.898
46236W        W11397   2.696  24.020   1.846
46237W        W11398  24.977  18.110   3.679
46238W        W11399   6.962  43.905  10.544
46239W        W11400  14.824  30.464   0.786
46240W        W11401  22.932  44.781   0.806
46241W        W11402  26.536  22.072  13.919
46242W        W11403  16.353  30.502  12.471
46243W        W11404   5.196   2.782   2.197
46244W        W11405  36.099   7.823   4.133
46245W        W11406  34.525   8.377  13.740
46246W        W11407  35.284  27.959   0.982
46247W        W11408  19.142  32.928   3.660
46248W        W11409  37.938  15.669   3.764
46249W        W11410   1.750   5.341   4.110
46250W        W11411  31.306  19.679   1.726
46251W        W11412  12.289   8.009  13.775
46252W        W11413  17.528  25.081  12.345
46253W        W11414   9.613  23.550  14.833
46254W        W11415  26.070  25.625   0.931
46255W        W11416  14.027  17.266  14.558
46256W        W11417  13.647   7.011   0.930
46257W        W11418  15.201  27.251  10.958
46258W        W11419  12.898   3.663   3.402
46259W        W11420  30.473  31.465   2.352
46260W        W11421   1.012  22.490   0.354
46261W        W11422  43.844   3.887   4.458
46262W        W11423  24.450  26.263  12.935
46263W        W11424  11.035  14.624  14.002
46264W        W11425   2.293  31.562   1.996
46265W        W11426  14.173   3.428   1.735
46266W        W11427  29.712  41.111  13.355
46267W        W11428  34.425  36.303  11.290
46268W        W11429  29.106  23.737   3.094
46269W        W11430  33.067  24.661   2.218
46270W        W11431  42.451   1.576  10.752
46271W        W11432  16.052  38.752   3.580
46272W        W11433  30.440   9.596   4.109
46273W        W11434  18.203  40.501   3.190
46274W        W11435   9.161  35.118  10.635
46275W        W11436  11.386  16.158  14.018
46276W        W11437  27.722  23.023  11.967
46277W        W11438  33.636  36.245  12.461
46278W        W11439  20.912  38.600  13.688
46279W        W11440  36.434  29.149   2.435
46280W        W11441   8.368   3.857  12.417
46281W        W11442  39.821  33.920  12.805
46282W        W11443  24.330  21.279  13.542
46283W        W11444   1.663  27.645  10.869
46284W        W11445  23.020  14.446   2.881
46285W        W11446  31.703  32.366   2.112
46286W        W11447  21.040   4.658   0.419
46287W        W11448  10.199   4.019  14.996
46288W        W11449  29.980  41.950   4.340
46289W        W11450  25.429  39.362   1.910
46290W        W11451  11.082  14.251  12.843
46291W        W11452  30.210  33.971  14.596
46292W        W11453  21.635  10.998  13.937
46293W        W11454  27.670  14.679  12.000
46294W        W11455  31.173  35.564  10.529
46295W        W11456  12.145  12.798   1.377
46296W        W11457  39.295  19.136   2.422
46297W        W11458  10.912  10.941  13.357
46298W        W11459  13.066  22.200  14.748
46299W        W11460  29.038  27.049  12.613
46300W        W11461  11.492  29.023   0.487
46301W        W11462   0.019  33.634  14.846
46302W        W11463   0.697  25.431   0.430
46303W        W11464   3.806  18.255   4.504
46304W        W11465   0.406  39.105  10.750
46305W        W11466   7.834   1.512   0.531
46306W        W11467   6.575  39.819  13.722
46307W        W11468  34.432  13.806  12.866
46308W        W11469   6.347  27.079  12.328
46309W        W11470  29.978  42.550   3.142
46310W        W11471   7.709  36.909  10.982
46311W        W11472  20.553  27.445   3.581
46312W        W11473  11.155  39.108  12.040
46313W        W11474  11.753  28.894   4.519
46314W        W11475  30.419  28.170   1.243
46315W        W11476  12.092  33.855   1.475
46316W        W11477  19.287  20.130  12.425
46317W        W11478   0.899  40.508   2.093
46318W        W11479  11.661  41.376  13.276
46319W        W11480  20.207  26.627   0.246
46320W        W11481  36.147  34.386   3.818
46321W        W11482  24.402  13.356  12.535
46322W        W11483  26.531  26.480  10.546
46323W        W11484  16.991  17.755  12.870
46324W        W11485  29.103  11.105  12.542
46325W        W11486   6.386  20.669   3.746
46326W        W11487  21.582  32.993  12.590
46327W        W11488   0.204  13.580   5.527
46328W        W11489  30.092   5.870   3.439
46329W        W11490  18.013  36.244   1.710
46330W        W11491  11.296  38.028  12.186
46331W        W11492  20.178  29.697   3.783
46332W        W11493  42.813  44.209  14.760
46333W        W11494   3.744   5.518  10.924
46334W        W11495  40.997   3.220  13.909
46335W        W11496  43.116  12.400   0.418
46336W        W11497  26.200  14.570   0.655
46337W        W11498  43.505  15.665  14.898
46338W        W11499  35.484  30.918  13.142
46339W        W11500   8.941  28.391   4.251
46340W        W11501  41.430   5.316   3.122
46341W        W11502   7.680  29.123   0.019
46342W        W11503  42.938  21.903  11.605
46343W        W11504   4.416   4.169  11.382
46344W        W11505  41.185   0.794   3.709
46345W        W11506  30.522  22.260  13.718
46346W        W11507  27.602  41.557  10.931
46347W        W11508  39.098  44.734   0.887
46348W        W11509   4.646   8.448   0.421
46349W        W11510   5.199  24.172   1.047
46350W        W11511   9.853  31.900   2.621
46351W        W11512  40.710  41.793  14.443
46352W        W11513   1.103  30.055   0.041
46353W        W11514  29.576  42.998  13.834
46354W        W11515  23.425  22.029  14.010
46355W        W11516  27.271  30.422  13.347
46356W        W11517  42.373  17.261   0.020
46357W        W11518  44.182  26.960   2.821
46358W        W11519  29.150  24.768  13.490
46359W        W11520  18.949  35.570   1.024
46360W        W11521  10.690  19.560   4.451
46361W        W11522  37.738   8.838  12.124
46362W        W11523  30.613  13.132   4.323
46363W        W11524   9.813  21.189  13.838
46364W        W11525  19.172  39.815   2.327
46365W        W11526  13.335  40.354  10.711
46366W        W11527  10.316  41.954  13.268
46367W        W11528   6.979   4.441   4.184
46368W        W11529  23.082  44.809   4.652
46369W        W11530  38.766  39.922   2.399
46370W        W11531  13.747  12.167   4.141
46371W        W11532  20.197  11.386  11.451
46372W        W11533  21.489  37.907  10.609
46373W        W11534  18.272  28.501   4.153
46374W        W11535   7.792  10.175  13.121
46375W        W11536  32.664   2.416  13.372
46376W        W11537   1.648  32.578   4.086
46377W        W11538   5.745  15.647   3.813
46378W        W11539  19.467   2.733   3.239
46379W        W11540  33.694  21.201  12.514
46380W        W11541  38.493  19.674  10.724
46381W        W11542  43.768  43.765  13.300
46382W        W11543  22.534  21.829   3.766
46383W        W11544  21.165  33.530  11.076
46384W        W11545  24.403  25.573  13.330
46385W        W11546  21.093  14.923  13.822
46386W        W11547  25.958  10.801  13.533
46387W        W11548  26.648  37.837   0.956
46388W        W11549   9.809   3.729  10.778
46389W        W11550  20.337  34.567   4.627
46390W        W11551  30.563  41.870  12.555
46391W        W11552  37.681   3.425  14.311
46392W        W11553  42.242  11.789   4.372
46393W        W11554  37.348   2.013   0.350
46394W        W11555  18.574  43.815  11.448
46395W        W11556  19.410  37.893   2.313
46396W        W11557  30.366  30.943  11.940
46397W        W11558  12.820  37.749  11.306
46398W        W11559  11.819  35.753   3.556
46399W        W11560   7.728  12.844   4.605
46400W        W11561  34.861  41.030  14.333
46401W        W11562  35.961  36.659  10.255
46402W        W11563  34.591  42.795  13.856
46403W        W11564  17.670  27.486   2.200
46404W        W11565  20.693  41.491  11.645
46405W        W11566  27.418  26.608  13.111
46406W        W11567  22.982  15.405  14.723
46407W        W11568  19.836  20.492  11.616
46408W        W11569  10.540  22.455   2.585
46409W        W11570   2.391  37.340   3.328
46410W        W11571   3.281  27.529  12.535
46411W        W11572  28.068  43.360   0.007
46412W        W11573  31.403  37.206  11.248
46413W        W11574  15.707  35.066  14.361
46414W        W11575   9.435  24.203  12.042
46415W        W11576  23.180  23.220   4.566
46416W        W11577  27.057  35.154   3.262
46417W        W11578   6.462  30.728   5.013
46418W        W11579  43.424   1.388  14.747
46419W        W11580  27.941  34.178   3.746
46420W        W11581  26.571  20.395   1.646
46421W        W11582  13.477   4.003  11.912
46422W        W11583  16.218   7.189   1.112
46423W        W11584  27.717   7.921  11.936
46424W        W11585  43.942   3.686  10.390
46425W        W11586  37.953  11.130   1.305
46426W        W11587  40.070  15.044  13.569
46427W        W11588  28.718  40.534   4.160
46428W        W11589  14.458  40.748   4.197
46429W        W11590  40.816  11.539  12.553
46430W        W11591  13.307  26.586  12.468
46431W        W11592   2.378  26.527   1.319
46432W        W11593   0.145  40.079   4.161
46433W        W11594   4.116  18.843  13.431
46434W        W11595  34.508  17.671   2.400
46435W        W11596   8.172  34.663  13.367
46436W        W11597   7.804   1.976   2.412
46437W        W11598   2.788  43.036  11.139
46438W        W11599  30.912  26.737   2.834
46439W        W11600  24.722  20.602  13.056
46440W        W11601  38.105  24.271   4.182
46441W        W11602  30.810  19.490   9.922
46442W        W11603  39.370  40.806   0.584
46443W        W11604  42.243   4.453   0.187
46444W        W11605  44.858  24.616   3.919
46445W        W11606   8.106  39.260   4.541
46446W        W11607  40.367   6.856  13.823
46447W        W11608  28.723  34.203   2.742
46448W        W11609   0.350   7.646  14.781
46449W        W11610  19.190  22.155  13.147
46450W        W11611  23.098   4.233   3.238
46451W        W11612  42.401  34.118   0.188
46452W        W11613  30.064   7.352  10.768
46453W        W11614  43.571   2.885   0.964
46454W        W11615  37.649  28.549   1.443
46455W        W11616  33.041   9.828   0.455
46456W        W11617  17.324  42.394  11.850
46457W        W11618   9.088  24.556   0.641
46458W        W11619  13.764  18.628   0.792
46459W        W11620  16.113  32.915   2.461
46460W        W11621  32.138  31.103  14.355
46461W        W11622   8.085  12.775   1.397
46462W        W11623  44.843  33.549   2.625
46463W        W11624   4.712   7.239   1.020
46464W        W11625  22.231  30.389  10.897
46465W        W11626  40.120  28.223  10.067
46466W        W11627  42.473  12.640   3.330
46467W        W11628  41.025  24.174  11.467
46468W        W11629  30.616  36.308  14.435
46469W        W11630   9.428   2.235   4.572
46470W        W11631  39.377  24.312  14.060
46471W        W11632  19.545   6.960   4.497
46472W        W11633  22.728  41.754   4.993
46473W        W11634  20.798  31.273  11.635
46474W        W11635  12.748  16.650  13.980
46475W        W11636   3.635  29.959  10.784
46476W        W11637  34.824  26.692  11.512
46477W        W11638  29.951  27.574   4.189
46478W        W11639  43.905  37.610   1.369
46479W        W11640  21.610   5.494   1.709
46480W        W11641  27.689  17.465   1.342
46481W        W11642  11.433  18.205   4.910
46482W        W11643  39.033  23.022   0.959
46483W        W11644   6.651  36.689  10.628
46484W        W11645   2.648   0.423   5.020
46485W        W11646  14.655  17.795  12.445
46486W        W11647  26.186  21.547   4.481
46487W        W11648  32.142   7.862   0.356
46488W        W11649  21.134  40.911   5.015
46489W        W11650   9.438  13.590   3.840
46490W        W11651  19.361  28.060  12.430
46491W        W11652  32.049   6.000  11.041
46492W        W11653  34.444  36.216   1.481
46493W        W11654  17.499   4.759   4.259
46494W        W11655   0.431  23.726  14.164
46495W        W11656  35.923   3.697  13.398
46496W        W11657  22.770  14.197  12.123
46497W        W11658  23.498  11.692  13.271
46498W        W11659  30.604  21.482  11.553
46499W        W11660  15.562   1.815   3.997
46500W        W11661  16.952   1.168   0.147
46501W        W11662  33.955  12.551  13.853
46502W        W11663  13.843  15.749  14.311
46503W        W11664  20.521  25.597   3.696
46504W        W11665  26.250  41.421  13.832
46505W        W11666  15.426   8.968  13.471
46506W        W11667   4.879   9.646  13.376
46507W        W11668  23.202  33.945   1.190
46508W        W11669  33.946  38.798   3.419
46509W        W11670  27.139  41.007   1.966
46510W        W11671   9.239  13.274   4.802
46511W        W11672  18.551  17.599  12.060
46512W        W11673  27.509  34.893  11.270
46513W        W11674  20.165  19.728   0.375
46514W        W11675   3.881  32.392  10.662
46515W        W11676  15.791  36.187  11.699
46516W        W11677  23.078  19.690  12.423
46517W        W11678   5.408  13.063  13.996
46518W        W11679  41.398  34.179  14.742
46519W        W11680  44.031   2.859   4.613
46520W        W11681  38.363  12.276  14.405
46521W        W11682  11.743  10.471  10.126
46522W        W11683  19.028  42.283  14.326
46523W        W11684  25.164  33.455   0.842
46524W        W11685  20.739  25.027  12.953
46525W        W11686  20.029  14.925  11.770
46526W        W11687   5.320   3.320   4.660
46527W        W11688  27.014  24.906  12.966
46528W        W11689  42.806  41.550   1.400
46529W        W11690  25.626   1.204   2.617
46530W        W11691  12.336  38.549  11.550
46531W        W11692  44.796   6.889  12.812
46532W        W11693   5.295  42.812   3.280
46533W        W11694   3.128  18.307  12.193
46534W        W11695  33.370  23.575  10.160
46535W        W11696  41.770  20.008   4.637
46536W        W11697  21.254  13.425  13.442
46537W        W11698  14.083  12.193   2.227
46538W        W11699  19.062  38.650  12.666
46539W        W11700  31.501   2.687  10.703
46540W        W11701   7.644   3.291   0.914
46541W        W11702  40.940  25.975   0.350
46542W        W11703  29.992  19.660   2.563
46543W        W11704  10.263  30.647   2.761
46544W        W11705  44.274  12.259   1.806
46545W        W11706  42.318   3.745   4.643
46546W        W11707   5.277  27.142   2.274
46547W        W11708  21.542  26.153   4.846
46548W        W11709  44.330  14.678   2.110
46549W        W11710  34.068  26.752   3.701
46550W        W11711  16.802   6.632   2.588
46551W        W11712  39.282  26.252   1.392
46552W        W11713   4.833  44.299   1.788
46553W        W11714   7.778  12.668   0.970
46554W        W11715  18.720  19.958   4.165
46555W        W11716  24.628  28.713  10.969
46556W        W11717   5.840  19.745  14.923
46557W        W11718  26.478   6.423   0.834
46558W        W11719  36.502  39.086   3.673
46559W        W11720   8.687  31.528  10.652
46560W        W11721  12.576  26.910   0.390
46561W        W11722  37.738  17.837  10.464
46562W        W11723  13.404  11.085   3.794
46563W        W11724   6.414  44.368  13.887
46564W        W11725  21.316  26.621   1.776
46565W        W11726   5.148  42.672   2.714
46566W        W11727   7.839  20.489   4.227
46567W        W11728  14.281  33.469  11.996
46568W        W11729   7.265  44.317  11.419
46569W        W11730  44.722   4.516   2.522
46570W        W11731  15.135  23.700  12.859
46571W        W11732  34.383  26.461  14.897
46572W        W11733   4.086   0.505   4.487
46573W        W11734  35.105   9.227   0.104
46574W        W11735  27.561  43.938   4.318
46575W        W11736  22.738  18.045   2.874
46576W        W11737  22.505  31.956   0.354
46577W        W11738  13.636  29.199   3.291
46578W        W11739  14.908   8.306  14.389
46579W        W11740  39.057  23.180   0.469
46580W        W11741  43.097  31.201   4.211
46581W        W11742  15.334  27.008   0.049
46582W        W11743  10.923  25.487  11.651
46583W        W11744  32.628  25.544   0.761
46584W        W11745  34.117  12.674   0.915
46585W        W11746  35.115  14.775   1.029
46586W        W11747   7.930  28.558  13.132
46587W        W11748  14.868  23.770  10.244
46588W        W11749   4.395  11.308   3.188
46589W        W11750   8.392  44.971  12.140
46590W        W11751  12.215  43.864  13.795
46591W        W11752   6.202  21.778   4.579
46592W        W11753   9.855   1.322   1.279
46593W        W11754  37.132   5.599  14.387
46594W        W11755  35.426  42.117  11.129
46595W        W11756   6.296   6.733  13.028
46596W        W11757   6.409   7.295   2.616
46597W        W11758  22.033   8.486   0.963
46598W        W11759  41.771   0.243  11.568
46599W        W11760   2.242  39.995  12.447
46600W        W11761   6.784  23.978  12.627
46601W        W11762  14.571  30.675  12.683
46602W        W11763  43.839  38.847  13.436
46603W        W11764   4.932  40.947   2.956
46604W        W11765  23.381  37.828  10.774
46605W        W11766   4.971  31.427   1.634
46606W        W11767  15.842  29.359  10.983
46607W        W11768  29.283  39.908   4.602
46608W        W11769  24.540  44.729   2.172
46609W        W11770  33.394   6.726   3.093
46610W        W11771  44.022  31.688  12.965
46611W        W11772  30.136  15.725  10.399
46612W        W11773  32.517   6.073  12.608
46613W        W11774  33.770   4.334  13.332
46614W        W11775  25.699   3.612   1.840
46615W        W11776  26.061   2.528   2.840
46616W        W11777   7.253  37.635  13.508
46617W        W11778  11.328  19.156  11.145
46618W        W11779  30.586  41.381  10.297
46619W        W11780  15.296  10.599  13.173
46620W        W11781  19.425  26.630  14.830
46621W        W11782  29.093  22.289   4.087
46622W        W11783  17.000  44.818   3.678
46623W        W11784  12.377  37.478  13.427
46624W        W11785  19.039  34.436  10.635
46625W        W11786   5.265  12.843  10.917
46626W        W11787  37.496  34.344  14.426
46627W        W11788  40.788  13.941  14.053
46628W        W11789  22.042  44.695   1.533
46629W        W11790  10.333  15.077  12.360
46630W        W11791  21.314  24.707  12.519
46631W        W11792  37.269  26.659   4.228
46632W        W11793  29.872   7.869  14.012
46633W        W11794  28.553  30.833  13.577
46634W        W11795  10.499  28.110   2.649
46635W        W11796  25.391   4.886   1.937
46636W        W11797  23.109  13.836   0.743
46637W        W11798  19.530  20.560   4.092
46638W        W11799  39.565  22.555  10.661
46639W        W11800  29.463   1.449   0.219
46640W        W11801   0.012  44.102  11.528
46641W        W11802   2.310  28.442  12.633
46642W        W11803   8.339  13.053  11.145
46643W        W11804  38.861  39.804  11.077
46644W        W11805  10.268  42.258   4.198
46645W        W11806   9.786  37.503  10.769
46646W        W11807  23.786  26.014   0.228
46647W        W11808  14.604  20.028   0.125
46648W        W11809  33.972  36.354   0.838
46649W        W11810  26.458  24.451   2.799
46650W        W11811  16.705  41.153  13.592
46651W        W11812  36.634  20.747   1.211
46652W        W11813  13.676   7.988   4.642
46653W        W11814   8.636  24.967  14.787
46654W        W11815  34.234   1.675   4.267
46655W        W11816  10.463  32.423   0.982
46656W        W11817  25.650   6.503   3.321
46657W        W11818  27.237  24.760   1.009
46658W        W11819  40.942  32.274   0.717
46659W        W11820  38.119  26.484  12.097
46660W        W11821   2.718  15.584  10.275
46661W        W11822  36.766  18.247  12.947
46662W        W11823  20.128   0.410   3.162
46663W        W11824  36.437  23.459  12.972
46664W        W11825  19.103  35.528   3.625
46665W        W11826   6.780   7.391  11.671
46666W        W11827   7.650  38.761   1.381
46667W        W11828   8.492  10.848  10.515
46668W        W11829  28.442  13.406  13.863
46669W        W11830  22.992   5.014  14.278
46670W        W11831  12.465  26.705  12.051
46671W        W11832  41.622   0.839  11.174
46672W        W11833  17.971   3.348   4.534
46673W        W11834  27.697  31.098  12.186
46674W        W11835   4.111  26.565   3.571
46675W        W11836  22.252  26.549   4.659
46676W        W11837  27.740  16.630   0.730
46677W        W11838  35.695  20.096  13.604
46678W        W11839  22.034  27.700  10.743
46679W        W11840   2.901   2.554  13.337
46680W        W11841  10.721  44.372  11.036
46681W        W11842  17.386   5.614  12.886
46682W        W11843  35.343  12.430   3.269
46683W        W11844  33.225  13.677   2.716
46684W        W11845  39.589  24.229  12.836
46685W        W11846  28.278  30.960   2.344
46686W        W11847   7.167   4.887   0.224
46687W        W11848  20.999  17.299   3.231
46688W        W11849   6.602  19.465   1.826
46689W        W11850  15.286  24.010  12.172
46690W        W11851  37.643   0.204  11.158
46691W        W11852  27.787  24.504   9.869
46692W        W11853  13.758   3.763  12.671
46693W        W11854  41.008   3.493  12.970
46694W        W11855  39.346  18.730  12.882
46695W        W11856  17.772   8.210   1.770
46696W        W11857  18.507  21.260   3.607
46697W        W11858  28.767  12.093  13.511
46698W        W11859  38.915  12.171   1.016
46699W        W11860  17.336  21.972  11.651
46700W        W11861   8.138  25.445   2.633
46701W        W11862  41.768  14.961   0.839
46702W        W11863  22.506   8.749   3.361
46703W        W11864  35.107  38.146   0.714
46704W        W11865   8.263   9.752   5.063
46705W        W11866  15.197  35.937  14.326
46706W        W11867  20.146   5.136  12.542
46707W        W11868  44.945  23.826   0.016
46708W        W11869  26.429  32.234   1.713
46709W        W11870   9.339  22.958  10.126
46710W        W11871  15.249  33.034  12.136
46711W        W11872  11.160  16.236  11.890
46712W        W11873  11.616  27.378   4.463
46713W        W11874  44.782  16.379  12.056
46714W        W11875   7.117  35.578  12.495
46715W        W11876  29.716  18.730  12.926
46716W        W11877   2.761   2.580  14.510
46717W        W11878  40.556  12.740   3.278
46718W        W11879  12.860  27.701   4.200
46719W        W11880   7.860  11.791  10.730
46720W        W11881  37.789  10.627  13.946
46721W        W11882  16.584  32.606   0.583
46722W        W11883  44.783  22.220   3.676
46723W        W11884  43.181  30.077  11.496
46724W        W11885  19.495  14.346  12.969
46725W        W11886  13.263  24.418   2.898
46726W        W11887  16.974  17.479   5.298
46727W        W11888  32.957   8.410   0.578
46728W        W11889  25.466  30.204  13.946
46729W        W11890  33.524  39.814  14.010
46730W        W11891  27.715  17.000  14.709
46731W        W11892  38.297  27.565  13.949
46732W        W11893  37.095   0.460  12.333
46733W        W11894  34.281  32.890   0.930
46734W        W11895   1.584  20.718  13.048
46735W        W11896  44.920  34.093  11.520
46736W        W11897  35.041   2.863  13.448
46737W        W11898  27.508   4.460  12.511
46738W        W11899  30.652  24.256   2.796
46739W        W11900   9.341  29.522  11.517
46740W        W11901  15.634  39.444  13.915
46741W        W11902  20.625  42.711  13.431
46742W        W11903  30.026  44.224  10.631
46743W        W11904   2.829  28.497  11.886
46744W        W11905   2.802  29.982  14.516
46745W        W11906   7.041  16.621  12.619
46746W        W11907   2.283  43.203   1.879
46747W        W11908   4.697  16.598   4.165
46748W        W11909  21.017  24.216   4.534
46749W        W11910  37.604  38.115   1.142
46750W        W11911  24.158   9.835  14.555
46751W        W11912   5.760  38.165  10.673
46752W        W11913  31.164  11.853   1.952
46753W        W11914  39.052  24.075  11.576
46754W        W11915  11.932  39.509  10.805
46755W        W11916  27.041   7.154  11.142
46756W        W11917  14.808   0.649   0.584
46757W        W11918  20.286   8.493  14.044
46758W        W11919   9.114  33.216  14.735
46759W        W11920  41.871  15.364   3.291
46760W        W11921   4.861  35.536   2.162
46761W        W11922  40.857  28.560  11.013
46762W        W11923  35.615  34.680  11.002
46763W        W11924   6.347   4.256  11.344
46764W        W11925  31.841  26.980   3.717
46765W        W11926  41.283  25.917  14.958
46766W        W11927  36.361  38.088   2.783
46767W        W11928  35.731  25.070  10.725
46768W        W11929  12.132  16.558  10.760
46769W        W11930  24.571  16.316   4.133
46770W        W11931  33.022  20.336   2.836
46771W        W11932  31.055  39.374  13.263
46772W        W11933   5.809  23.683   1.483
46773W        W11934   5.329   3.904  13.956
46774W        W11935  44.628   8.294  13.318
46775W        W11936  19.140  14.643   1.249
46776W        W11937  26.460   2.345   4.644
46777W        W11938   7.457   4.178  14.824
46778W        W11939  31.858  18.820  10.698
46779W        W11940  40.537  36.526  12.508
46780W        W11941  42.231  26.645   2.368
46781W        W11942  29.551   1.693  10.185
46782W        W11943  34.971  26.625  13.909
46783W        W11944  43.207  43.935  12.541
46784W        W11945  21.985   2.755  13.470
46785W        W11946  14.609  21.716   2.342
46786W        W11947  31.954  43.289   3.389
46787W        W11948   2.761  41.562  12.202
46788W        W11949  17.127  21.569  10.502
46789W        W11950  24.051   4.830  12.213
46790W        W11951  37.847   7.242  13.920
46791W        W11952  23.035   6.418   1.464
46792W        W11953   1.485  25.925  11.126
46793W        W11954   5.849   9.898   0.093
46794W        W11955  18.203  16.302  13.329
46795W        W11956  17.041  27.568   0.808
46796W        W11957  42.254   7.229   4.054
46797W        W11958  19.927  35.973  11.057
46798W        W11959  29.528  31.133   2.927
46799W        W11960  10.425  38.895  11.091
46800W        W11961  13.584   2.641  14.305
46801W        W11962  28.528   7.518   3.238
46802W        W11963  39.648  26.194   0.442
46803W        W11964  18.749   2.485   4.080
46804W        W11965   8.316  13.329   2.751
46805W        W11966  21.197   3.782  14.920
46806W        W11967   0.053  40.005  13.983
46807W        W11968  37.815  44.476  12.779
46808W        W11969  20.046  21.650   1.921
46809W        W11970  40.145  29.860  12.153
46810W        W11971  40.454   5.859  11.234
46811W        W11972   7.957   6.202  12.992
46812W        W11973  17.101   9.915   4.858
46813W        W11974   2.003  26.941   2.822
46814W        W11975  38.877  23.534  14.332
46815W        W11976  36.316  35.701  11.112
46816W        W11977  28.513  35.858  11.175
46817W        W11978  27.938  27.094  12.556
46818W        W11979  34.605  30.969   1.770
46819W        W11980   4.722   5.712  11.991
46820W        W11981  19.301  25.760   4.086
46821W        W11982  19.127  32.995   0.124
46822W        W11983  34.511  25.076  14.607
46823W        W11984  31.108  29.033   2.136
46824W        W11985   4.954  43.951   4.315
46825W        W11986   0.772  14.377  10.856
46826W        W11987  41.477  11.899  13.813
46827W        W11988  17.739   7.439  14.448
46828W        W11989  11.922   4.136  14.854
46829W        W11990  42.431  29.094  14.481
46830W        W11991  27.925   5.994   3.605
46831W        W11992   7.504  34.071   3.238
46832W        W11993  19.886  35.274  14.563
46833W        W11994  21.703  12.942   0.343
46834W        W11995  43.566  21.126  13.012
46835W        W11996  19.672  37.266  14.716
46836W        W11997  14.436   8.990   1.310
46837W        W11998  15.522  37.572  11.183
46838W        W11999   9.207   6.982  10.516
46839W        W12000  34.478  23.997   2.365
46840W        W12001  13.280  12.882  14.582
46841W        W12002  43.107  15.658   4.079
46842W        W12003   5.912  23.931  11.475
46843W        W12004  34.964   2.470  10.643
46844W        W12005   7.760  34.949   1.241
46845W        W12006  13.203  23.555  13.397
46846W        W12007  44.427   0.997   1.009
46847W        W12008   3.566  15.262  14.337
46848W        W12009  36.455   6.797   0.266
46849W        W12010  20.074  22.765   3.390
46850W        W12011  15.564  20.767  14.093
46851W        W12012  10.682  42.000   4.472
46852W        W12013   9.880  23.680  14.400
46853W        W12014   7.312   7.110  12.898
46854W        W12015  35.687  13.725   1.937
46855W        W12016  14.134  40.540   1.337
46856W        W12017  20.667   1.368   1.431
46857W        W12018  15.263  37.676   2.402
46858W        W12019  11.712  19.183   2.826
46859W        W12020  37.942   3.588  14.908
46860W        W12021   5.965  13.625   0.789
46861W        W12022  39.278  17.811  13.412
46862W        W12023  30.680  23.234  11.214
46863W        W12024  33.702  21.663  10.904
46864W        W12025  39.017  36.741   4.731
46865W        W12026  28.143  18.601  14.000
46866W        W12027  10.598  28.252  14.049
46867W        W12028   1.254  15.840  14.842
46868W        W12029  38.559  32.813  14.928
46869W        W12030  31.792  44.780   2.618
46870W        W12031  29.577  11.092  10.918
46871W        W12032   2.208  14.565   0.339
46872W        W12033  28.662  19.063   3.306
46873W        W12034  31.982  31.948   0.384
46874W        W12035  21.569  30.886   4.519
46875W        W12036  33.881  14.897   1.263
46876W        W12037   1.901  28.512   2.885
46877W        W12038   3.729   8.221   2.303
46878W        W12039  16.832   2.442  11.520
46879W        W12040  37.984  20.768   3.257
46880W        W12041  43.773  25.718   0.777
46881W        W12042   6.842  38.876  13.464
46882W        W12043  28.922  26.055   3.223
46883W        W12044   6.643  23.392   1.961
46884W        W12045  11.245  43.760  11.577
46885W        W12046   9.147  25.662  12.656
46886W        W12047  41.987  15.065  13.373
46887W        W12048  35.041  35.085  12.533
46888W        W12049  11.806  37.986   2.273
46889W        W12050  32.459  30.402   0.842
46890W        W12051  14.731  25.917  11.082
46891W        W12052  30.392  15.123  11.559
46892W        W12053  30.551  11.873   2.880
46893W        W12054  34.056  16.645   1.780
46894W        W12055  37.268  31.034  14.405
46895W        W12056   4.835  12.893   4.458
46896W        W12057  34.617  13.591   0.002
46897W        W12058  38.435  42.737   0.772
46898W        W12059  15.389  12.130   0.555
46899W        W12060  43.442  25.954  11.956
46900W        W12061  23.103  12.409   3.133
46901W        W12062  17.746  19.774   2.892
46902W        W12063  12.835   8.644   1.308
46903W        W12064  33.796  19.710   0.855
46904W        W12065   1.331  30.813   1.920
46905W        W12066  33.960  38.015   0.474
46906W        W12067  38.025  10.864  14.367
46907W        W12068  15.707  33.664  14.364
46908W        W12069  33.987  25.537   4.193
46909W        W12070  18.145   6.362  14.880
46910W        W12071  23.645   3.830  10.698
46911W        W12072  27.483  27.605   4.474
46912W        W12073  33.402  23.741  12.627
46913W        W12074  37.002  24.981   0.831
46914W        W12075  28.482   4.421  13.443
46915W        W12076   5.293  26.362  13.029
46916W        W12077  17.791  31.954  12.899
46917W        W12078  23.479  27.971   3.560
46918W        W12079  21.197  36.882  14.492
46919W        W12080  36.542  37.293  10.000
46920W        W12081  14.655  25.206   2.749
46921W        W12082   5.257  18.214   1.374
46922W        W12083   6.088  28.963  13.436
46923W        W12084  36.363  42.871   1.621
46924W        W12085   2.460  19.239   0.862
46925W        W12086  33.968  38.258  10.107
46926W        W12087  28.642  43.193  12.312
46927W        W12088   3.321  31.068  13.372
46928W        W12089   7.747  30.383  12.274
46929W        W12090  15.607  24.244   4.631
46930W        W12091   0.708   3.401   4.272
46931W        W12092  14.754  42.537  12.200
46932W        W12093  31.498  28.398  13.428
46933W        W12094  32.302  18.617  13.296
46934W        W12095  35.643  21.747  13.426
46935W        W12096  43.607  24.723  13.467
46936W        W12097  10.128  42.973   2.188
46937W        W12098   5.439  12.389   1.009
46938W        W12099  44.831  41.500  11.820
46939W        W12100  31.639  17.313   0.962
46940W        W12101  36.379   9.671   0.236
46941W        W12102  16.329  15.787  13.346
46942W        W12103   0.687  18.301  13.318
46943W        W12104  31.383  15.568   1.385
46944W        W12105   8.410  26.962   2.543
46945W        W12106   9.250   5.488  14.856
46946W        W12107  15.798   5.372  11.644
46947W        W12108  14.322   2.805  12.802
46948W        W12109  43.114  34.160  12.865
46949W        W12110  39.964  36.147   0.435
46950W        W12111  33.730  11.301   1.144
46951W        W12112  37.827  31.934  12.347
46952W        W12113  44.534  39.842  12.190
46953W        W12114  18.769  37.366   4.074
46954W        W12115  31.191   5.719  12.578
46955W        W12116  35.089   9.286   2.892
46956W        W12117  44.423   9.403   2.209
46957W        W12118  22.306  33.944   3.589
46958W        W12119   1.996  29.500   1.202
46959W        W12120  15.056  14.412  14.420
46960W        W12121  30.145   6.768  13.641
46961W        W12122  34.489   9.046   0.974
46962W        W12123   2.818  15.404  11.786
46963W        W12124  11.230  44.797  10.697
46964W        W12125   8.570   4.944  10.804
46965W        W12126  41.745  35.624   0.746
46966W        W12127  24.741  42.557  13.853
46967W        W12128  38.355   2.688   1.313
46968W        W12129  38.075  43.129  11.083
46969W        W12130  32.497  12.149  11.072
46970W        W12131  19.012  21.822   5.335
46971W        W12132  37.004   6.200   3.528
46972W        W12133  26.714   7.273  10.709
46973W        W12134   1.341  19.781   3.260
46974W        W12135  24.874  44.945  12.494
46975W        W12136  14.446  10.013  12.226
46976W        W12137   1.372  36.035   4.066
46977W        W12138  30.818  31.095  13.933
46978W        W12139  22.721  13.810   3.723
46979W        W12140  22.598   3.668   2.876
46980W        W12141  12.094   5.156  12.377
46981W        W12142  34.433  16.142  14.129
46982W        W12143  38.236  14.936  13.773
46983W        W12144   6.402  26.656  12.052
46984W        W12145  36.993  20.689   2.377
46985W        W12146   6.210  42.283  14.376
46986W        W12147  43.714  24.280  13.156
46987W        W12148   1.838  32.930  10.841
46988W        W12149  26.458  29.195  14.780
46989W        W12150  34.527  42.458   3.253
46990W        W12151  11.587  26.594  13.917
46991W        W12152  30.460   1.926   2.872
46992W        W12153  33.195   1.726  12.460
46993W        W12154  15.834   2.278   3.918
46994W        W12155  19.025   2.470  12.556
46995W        W12156   8.376  16.751  13.347
46996W        W12157  29.909  22.605  12.513
46997W        W12158  42.964  31.533  10.466
46998W        W12159  39.510  16.257   3.634
46999W        W12160  24.140  42.785  10.770
47000W        W12161   3.770  29.644  12.368
47001W        W12162  23.937  17.152   1.671
47002W        W12163   4.933   9.104  14.821
47003W        W12164  21.866  28.978   2.343
47004W        W12165   5.163  35.934   1.292
47005W        W12166  14.572  40.521   4.729
47006W        W12167  37.402  37.146   3.052
47007W        W12168   3.729  33.317  10.140
47008W        W12169   0.892  16.182   4.554
47009W        W12170  44.373   0.676  11.503
47010W        W12171  12.246  20.231   2.377
47011W        W12172  30.599   8.767  13.994
47012W        W12173  24.966  28.550  12.062
47013W        W12174  24.611  14.427   0.825
47014W        W12175  22.588   1.473  10.988
47015W        W12176  17.014  11.083   2.144
47016W        W12177   1.519  13.733  13.500
47017W        W12178  19.129  10.134  14.023
47018W        W12179  43.242  34.920  13.447
47019W        W12180  38.171  37.881  14.538
47020W        W12181  38.612  21.037  12.802
47021W        W12182  26.273   1.837   2.114
47022W        W12183  32.235  23.487   1.268
47023W        W12184  20.661  40.254   1.399
47024W        W12185  15.611   2.797  12.765
47025W        W12186   8.446  33.617   2.957
47026W        W12187  33.111  24.674   1.709
47027W        W12188  10.231  10.066   0.156
47028W        W12189  17.250  32.322  11.961
47029W        W12190  32.025  38.544  14.931
47030W        W12191  11.818  41.782   3.767
47031W        W12192  25.023   2.897  13.174
47032W        W12193  23.802  39.467   2.304
47033W        W12194   4.484  10.664   3.735
47034W        W12195   9.086   5.321   1.333
47035W        W12196   9.143   8.742  11.697
47036W        W12197  22.300  14.161  12.351
47037W        W12198  39.374  12.140  13.489
47038W        W12199  28.893  15.256  13.973
47039W        W12200  13.542   5.280   1.829
47040W        W12201  32.048   1.450   4.115
47041W        W12202  14.792  28.928   1.884
47042W        W12203   1.058  38.537  12.141
47043W        W12204   0.569  31.256  12.000
47044W        W12205  15.072   7.322   0.197
47045W        W12206  35.530  24.872   3.529
47046W        W12207   2.846  11.389   0.304
47047W        W12208  25.731  28.899   2.283
47048W        W12209  17.733  29.927  11.087
47049W        W12210  17.829   1.399   1.440
47050W        W12211  11.163  21.104  13.344
47051W        W12212   6.806  30.903   4.639
47052W        W12213  23.130  26.068  13.595
47053W        W12214  16.885  31.379  12.476
47054W        W12215  33.791  13.574   0.986
47055W        W12216  11.505   0.218  13.379
47056W        W12217  15.712  32.653  11.455
47057W        W12218  27.019  18.191  13.941
47058W        W12219   4.711   8.478   1.266
47059W        W12220  35.641   7.371   0.989
47060W        W12221   2.705  13.752  13.114
47061W        W12222  33.387  40.920   4.184
47062W        W12223  22.621  27.631   1.353
47063W        W12224   1.472  31.556   2.852
47064W        W12225  37.332   4.375  14.268
47065W        W12226  40.945  24.659  10.728
47066W        W12227  25.729  37.512   1.340
47067W        W12228   7.763  18.054  14.010
47068W        W12229  33.897  20.012   3.745
47069W        W12230  24.250  42.868   2.360
47070W        W12231  18.176  23.294   3.232
47071W        W12232  25.010  38.879  11.980
47072W        W12233  35.304   7.361   1.400
47073W        W12234  17.157   2.140  11.777
47074W        W12235  10.063   4.847   2.783
47075W        W12236  36.310   9.939   0.690
47076W        W12237   4.940  41.954  14.449
47077W        W12238   7.806   0.823  14.254
47078W        W12239  25.162   9.028  10.515
47079W        W12240  38.517  15.061   0.551
47080W        W12241  19.966   4.500   2.781
47081W        W12242   6.216  33.332  12.474
47082W        W12243  26.108  33.866   1.238
47083W        W12244  23.152   1.771   1.659
47084W        W12245  41.707  24.063  10.339
47085W        W12246   9.660  11.716   3.629
47086W        W12247  36.579  27.815   4.305
47087W        W12248   7.762  16.124  10.394
47088W        W12249  26.609  15.215  10.280
47089W        W12250  13.265  28.087  11.623
47090W        W12251  15.619   7.859   4.751
47091W        W12252  18.062  43.806   3.723
47092W        W12253  35.583  36.347   0.341
47093W        W12254  25.392  24.983   4.112
47094W        W12255  10.266   2.273   3.922
47095W        W12256   3.909  21.069  12.363
47096W        W12257  30.040   4.203  14.245
47097W        W12258  39.033   6.704   4.583
47098W        W12259  22.648   8.629  13.297
47099W        W12260  21.940  43.350   3.324
47100W        W12261  32.940  16.984  12.062
47101W        W12262  44.048  44.406   2.932
47102W        W12263  25.796  30.180  12.154
47103W        W12264  33.415  28.829  14.455
47104W        W12265  28.197  21.541  14.761
47105W        W12266  22.153  26.527  11.998
47106W        W12267  17.175  19.667  11.987
47107W        W12268  36.593  44.039   0.944
47108W        W12269   7.139   0.158  11.066
47109W        W12270  29.421   8.442  13.473
47110W        W12271  39.138   7.744   3.196
47111W        W12272   0.904  44.294   4.007
47112W        W12273  41.870   0.259  12.443
47113W        W12274  35.813  38.564   2.195
47114W        W12275   7.364   1.787   2.640
47115W        W12276  42.716  38.841   1.317
47116W        W12277   0.356  10.480   2.359
47117W        W12278  29.944   4.192   3.782
47118W        W12279   2.400  14.429   5.349
47119W        W12280  40.829  11.722  10.789
47120W        W12281  31.150  13.568   3.651
47121W        W12282  10.348  39.456   1.285
47122W        W12283  32.794  32.313   1.014
47123W        W12284   3.708   0.892   3.854
47124W        W12285  34.610   4.168  12.230
47125W        W12286  35.622  36.007  10.618
47126W        W12287  20.614  34.919  13.371
47127W        W12288  26.100   4.008   4.607
47128W        W12289  28.889   8.379  13.396
47129W        W12290  15.664  26.801   3.179
47130W        W12291  35.963  26.223   0.992
47131W        W12292   8.055  26.988  11.127
47132W        W12293   6.835  30.162   9.827
47133W        W12294   9.989  41.159  14.276
47134W        W12295  23.699  13.609   3.860
47135W        W12296   0.807   6.866   0.097
47136W        W12297  22.991  43.537   0.334
47137W        W12298  22.996  18.306   4.622
47138W        W12299   9.506   7.255  12.795
47139W        W12300   9.434  43.770  10.609
47140W        W12301   6.050  21.008   0.412
47141W        W12302  13.906  27.102  13.888
47142W        W12303  39.265  43.995   2.251
47143W        W12304  22.069  26.028   5.513
47144W        W12305  22.981  23.961  13.550
47145W        W12306  22.448  43.771  12.583
47146W        W12307  10.181   2.242   1.503
47147W        W12308  22.196  36.831  11.642
47148W        W12309  40.604  31.664   0.545
47149W        W12310  31.340  38.931   3.672
47150W        W12311  41.282  17.595  11.518
47151W        W12312  22.244  20.261  13.979
47152W        W12313  39.465  36.930   4.540
47153W        W12314  38.929  12.709  11.867
47154W        W12315  20.744  20.108   4.028
47155W        W12316   8.881  35.430  13.800
47156W        W12317  11.862  12.843   2.753
47157W        W12318  35.847  11.624  13.903
47158W        W12319  35.712  18.245  11.879
47159W        W12320  29.068  42.900  10.704
47160W        W12321  15.075  12.679   0.726
47161W        W12322  14.242  42.367  14.851
47162W        W12323  10.667  13.660   2.611
47163W        W12324  36.872   8.399  12.993
47164W        W12325  37.882  12.720   4.727
47165W        W12326  31.975   6.844  14.416
47166W        W12327  26.938   0.019  14.456
47167W        W12328   7.461  15.250  13.002
47168W        W12329  34.208  14.410   1.201
47169W        W12330  16.146  38.202   0.046
47170W        W12331  10.848  32.630   3.058
47171W        W12332  20.165  43.800  11.541
47172W        W12333  36.621  30.093   1.003
47173W        W12334   2.290  23.339   0.438
47174W        W12335  40.479  25.027   1.475
47175W        W12336   7.706   7.227  11.406
47176W        W12337  43.396  10.577   1.865
47177W        W12338   2.276  14.206   3.315
47178W        W12339  41.873  10.120   0.525
47179W        W12340  12.730  12.479  13.402
47180W        W12341  28.001  21.630   3.135
47181W        W12342  37.848  32.600  13.558
47182W        W12343  11.678  15.998  11.136
47183W        W12344   8.851  26.182  14.857
47184W        W12345  14.793  16.753   2.419
47185W        W12346  28.368  28.141   1.788
47186W        W12347   6.465  33.983   0.985
47187W        W12348   9.773  21.609  11.127
47188W        W12349   6.748  29.310  14.264
47189W        W12350  29.398  40.120  10.593
47190W        W12351  29.674  33.137   4.524
47191W        W12352   8.669  29.294  12.058
47192W        W12353  11.689  22.013   4.662
47193W        W12354  18.272  42.548   3.190
47194W        W12355  24.171  37.179  12.273
47195W        W12356  17.348   7.716   1.476
47196W        W12357  28.870  28.249   2.660
47197W        W12358  43.946  31.409   3.111
47198W        W12359  29.270  12.153  13.388
47199W        W12360  14.284  20.774  11.986
47200W        W12361  12.536   9.759   2.204
47201W        W12362  14.634   7.958  11.910
47202W        W12363   9.642  44.906   4.340
47203W        W12364  29.813  21.632   3.243
47204W        W12365  31.672  22.427  13.072
47205W        W12366  35.159  44.824   2.781
47206W        W12367   8.770  12.249   2.334
47207W        W12368   2.699  21.697  12.300
47208W        W12369  39.587  41.623   3.648
47209W        W12370   9.065  38.461   9.869
47210W        W12371   0.213   7.799  10.487
47211W        W12372  34.688   1.161  10.700
47212W        W12373   4.333  33.555  11.950
47213W        W12374  37.516   3.798   2.536
47214W        W12375  32.522  31.611   2.303
47215W        W12376  26.202  25.009  12.512
47216W        W12377  30.906  29.127   4.815
47217W        W12378  28.060  39.152   2.632
47218W        W12379  13.431  34.008  13.590
47219W        W12380  39.325  27.562  10.603
47220W        W12381  11.558  20.630   1.326
47221W        W12382  10.362  24.059   2.340
47222W        W12383  17.369  41.055   3.104
47223W        W12384  23.813  30.331   3.999
47224W        W12385  13.082  24.921  13.953
47225W        W12386  36.861  17.698  10.762
47226W        W12387  10.686  18.475  13.823
47227W        W12388  27.345  41.333   0.714
47228W        W12389   8.975   8.917  13.238
47229W        W12390  17.855   0.859   0.158
47230W        W12391   9.096  27.982   1.308
47231W        W12392   7.271  27.375   1.233
47232W        W12393  22.315  44.222  11.103
47233W        W12394  16.405   5.414  12.018
47234W        W12395  35.395  11.832  12.115
47235W        W12396  19.752   4.210   0.834
47236W        W12397  15.329  12.331  11.589
47237W        W12398  24.640  24.524  14.013
47238W        W12399  36.512  23.167   0.434
47239W        W12400  35.885   1.705  12.348
47240W        W12401   2.813   0.277  11.090
47241W        W12402  18.112  44.862   1.492
47242W        W12403  13.269  23.422   2.910
47243W        W12404  40.404  29.974  14.962
47244W        W12405  43.960  26.196   3.794
47245W        W12406  38.555  17.539  12.995
47246W        W12407  27.485  33.366  14.438
47247W        W12408  19.332   1.479   3.856
47248W        W12409  36.842  13.125  11.966
47249W        W12410  36.558  40.822   3.397
47250W        W12411  27.262  10.863  13.788
47251W        W12412   4.680  44.331  10.694
47252W        W12413  36.852  18.002   2.933
47253W        W12414  30.022  33.160   4.098
47254W        W12415  16.203  36.788   1.908
47255W        W12416   4.308  35.674   4.152
47256W        W12417  36.841  29.484  12.003
47257W        W12418  11.199  27.725   2.665
47258W        W12419  12.384   8.373   3.288
47259W        W12420  36.056  43.313  13.407
47260W        W12421   7.706  22.611  11.923
47261W        W12422  20.311  20.297   4.213
47262W        W12423  43.475   3.164   2.806
47263W        W12424   7.476   8.163  14.040
47264W        W12425  16.766  16.573  13.791
47265W        W12426  29.129   9.338  10.903
47266W        W12427  43.671  31.048  11.560
47267W        W12428  15.270   5.033   3.436
47268W        W12429  38.456  37.494   2.186
47269W        W12430  41.560  35.486  14.927
47270W        W12431  44.856   2.860   4.377
47271W        W12432   5.773  44.256   4.018
47272W        W12433  42.870  39.949   3.329
47273W        W12434   0.219  39.378  13.376
47274W        W12435  37.905   6.042   1.595
47275W        W12436  25.327  40.432  12.627
47276W        W12437  40.249  39.499   1.741
47277W        W12438  44.413   7.471   3.604
47278W        W12439  37.537  36.405  12.576
47279W        W12440   0.359  36.061   2.721
47280W        W12441  40.363  20.741   0.729
47281W        W12442  40.294  10.361   3.752
47282W        W12443  14.291  16.757  12.086
47283W        W12444  28.149  34.198  12.509
47284W        W12445   1.802  19.610  12.138
47285W        W12446  16.971   5.638  12.022
47286W        W12447  44.411  16.175   4.362
47287W        W12448  37.624  44.166  10.238
47288W        W12449  19.064   6.676  13.354
47289W        W12450  16.242   9.209  12.460
47290W        W12451   1.066  13.156  13.013
47291W        W12452  27.101  36.121  12.983
47292W        W12453  14.336  31.547   4.943
47293W        W12454   1.409   9.147  12.859
47294W        W12455  44.376  24.725   4.144
47295W        W12456  20.154  11.924  14.388
47296W        W12457  40.720   4.148   1.868
47297W        W12458  33.086   2.402  10.707
47298W        W12459   2.767  31.350   1.906
47299W        W12460  30.463  22.508  11.535
47300W        W12461  39.853  21.666   3.200
47301W        W12462  21.195  42.305   4.852
47302W        W12463  33.070  11.137  14.977
47303W        W12464  11.419  20.981  11.984
47304W        W12465  28.013  18.041  10.428
47305W        W12466  44.248  31.428   0.903
47306W        W12467  18.067  30.022  11.938
47307W        W12468   4.755   2.429   0.298
47308W        W12469  27.153  33.887  12.065
47309W        W12470  17.663   7.280  12.447
47310W        W12471  38.476  40.631   4.705
47311W        W12472  44.258  44.293  10.093
47312W        W12473   6.659  39.686  12.370
47313W        W12474  30.544  22.727   9.908
47314W        W12475  27.927  13.277  12.888
47315W        W12476   7.696  39.334  11.906
47316W        W12477  27.868  33.346  12.448
47317W        W12478  40.068   9.050  12.046
47318W        W12479  10.785  43.270  13.872
47319W        W12480  21.646  10.512  10.736
47320W        W12481   4.147  17.141  13.032
47321W        W12482  26.207  25.751   2.920
47322W        W12483  38.783  33.054   4.077
47323W        W12484  28.146  22.310   1.284
47324W        W12485  40.902   1.262  13.447
47325W        W12486  36.536  34.626  13.484
47326W        W12487  15.087   0.849   4.336
47327W        W12488  30.650   3.777  10.681
47328W        W12489  13.557  19.524  12.987
47329W        W12490   7.837  14.578  10.363
47330W        W12491  29.841  36.496   2.639
47331W        W12492  16.945  22.471  11.174
47332W        W12493   2.452  40.828   2.646
47333W        W12494  28.405  22.211  13.076
47334W        W12495   1.684   3.223   1.207
47335W        W12496   4.160  23.053   2.212
47336W        W12497  36.642  42.414  10.460
47337W        W12498  29.100   7.880   1.223
47338W        W12499  24.073  21.772   0.528
47339W        W12500  41.346   6.831  10.658
47340W        W12501  35.553  30.114  11.143
47341W        W12502  13.126   0.841  14.849
47342W        W12503  30.072  18.577   2.486
47343W        W12504   6.272  15.330  11.511
47344W        W12505  14.118  32.953  13.905
47345W        W12506  39.498   4.057   0.072
47346W        W12507  17.352  34.383   2.476
47347W        W12508  43.161  43.154  11.034
47348W        W12509  32.061   8.033   2.197
47349W        W12510  26.640  29.856   3.264
47350W        W12511  22.792   2.940   0.325
47351W        W12512   8.890   7.205  11.177
47352W        W12513  18.817  12.077  13.761
47353W        W12514  19.606  36.442  12.200
47354W        W12515  16.233   7.613  11.182
47355W        W12516  19.352  34.830  11.105
47356W        W12517  43.840   3.960   2.522
47357W        W12518  34.325  42.349  13.753
47358W        W12519   5.700  44.397   3.537
47359W        W12520  13.548  43.008   5.032
47360W        W12521  20.618  31.567  13.028
47361W        W12522  29.560  32.768  14.744
47362W        W12523   3.736   2.522  11.565
47363W        W12524  10.507  12.831   3.799
47364W        W12525   3.631  33.499  11.572
47365W        W12526  41.400  16.309   1.431
47366W        W12527  38.066  41.511   2.118
47367W        W12528  35.520  41.429  13.464
47368W        W12529  38.490  38.164  11.437
47369W        W12530   2.948   7.263  12.578
47370W        W12531  32.023  34.155  12.450
47371W        W12532  14.992  21.771  12.403
47372W        W12533  22.732  19.795   3.253
47373W        W12534   6.277   9.620   0.292
47374W        W12535   5.829  10.416   4.829
47375W        W12536  15.375   9.653  13.517
47376W        W12537  33.504  43.730   0.227
47377W        W12538  25.681   8.819  12.832
47378W        W12539  11.547  32.006  12.873
47379W        W12540  25.431  43.041  12.882
47380W        W12541  20.298  33.454   0.778
47381W        W12542  29.476  39.165   4.157
47382W        W12543  16.800  31.059   0.185
47383W        W12544  31.077  23.767  10.751
47384W        W12545  24.975  12.755  11.847
47385W        W12546  28.279  21.200   2.449
47386W        W12547   7.327  42.396   4.082
47387W        W12548  31.687  11.674   4.374
47388W        W12549  24.220  36.685  12.092
47389W        W12550   1.738  15.059   5.528
47390W        W12551  30.462  27.148   0.428
47391W        W12552  29.912   0.243   4.519
47392W        W12553  37.784  14.621   3.342
47393W        W12554  29.234  26.634  12.352
47394W        W12555   2.016  38.032   1.432
47395W        W12556  18.230  31.385  12.120
47396W        W12557  38.186  32.941  11.039
47397W        W12558  10.679  13.817   3.621
47398W        W12559   9.353   0.866  14.846
47399W        W12560   5.212  30.304   3.176
47400W        W12561  40.457  35.036   1.816
47401W        W12562  14.966   9.596  11.144
47402W        W12563  25.541  41.408   5.024
47403W        W12564  32.677  41.099   3.457
47404W        W12565  12.635   6.935   3.212
47405W        W12566  22.382  12.962   9.822
47406W        W12567  26.339  35.963   0.686
47407W        W12568  33.110  10.191  14.633
47408W        W12569   0.709  22.029   3.587
47409W        W12570  10.818  23.476  12.001
47410W        W12571  10.402  44.037   1.873
47411W        W12572  24.387  31.470  11.934
47412W        W12573   5.404   0.984  11.115
47413W        W12574   9.111  42.854   0.447
47414W        W12575   0.181  36.102  13.453
47415W        W12576   9.563  34.758  11.191
47416W        W12577  21.681  31.043   4.043
47417W        W12578  44.483  18.633  13.989
47418W        W12579  15.590  24.911   1.449
47419W        W12580  30.901   8.774   2.383
47420W        W12581   5.334  25.335  12.464
47421W        W12582   2.013  37.046  12.512
47422W        W12583  26.474  20.452  10.812
47423W        W12584  28.420  28.021  11.130
47424W        W12585   8.218  25.715  11.626
47425W        W12586  22.967  29.559  13.696
47426W        W12587  13.424  25.690  11.541
47427W        W12588  25.585  13.381  12.614
47428W        W12589  41.065   8.410   1.858
47429W        W12590   3.300   6.257  12.094
47430W        W12591  44.168  19.258   5.059
47431W        W12592  37.125  11.329  11.210
47432W        W12593  42.062  30.436  13.120
47433W        W12594  38.383  36.557  11.165
47434W        W12595  29.546   9.633  10.950
47435W        W12596   7.840   2.540  11.585
47436W        W12597  40.125  32.046  11.099
47437W        W12598   1.519  26.783  13.010
47438W        W12599  36.549  14.417   4.765
47439W        W12600   0.998  35.819  10.710
47440W        W12601  36.396  31.897  11.611
47441W        W12602  18.751  34.062  12.982
47442W        W12603  18.771  29.721  14.088
47443W        W12604   9.501  23.004   4.590
47444W        W12605   5.542  36.890   3.231
47445W        W12606  10.314   5.201  11.757
47446W        W12607   7.892   9.067   1.295
47447W        W12608  39.481  42.452   4.155
47448W        W12609   4.856  35.202   3.577
47449W        W12610  36.491  36.027   1.016
47450W        W12611  26.754  25.134   0.403
47451W        W12612  27.747   9.154  13.219
47452W        W12613  33.913  14.230  14.806
47453W        W12614  33.486  36.578   0.707
47454W        W12615   0.368  38.347  11.583
47455W        W12616  33.902  17.729   1.750
47456W        W12617  16.991   4.306   2.307
47457W        W12618  37.821  19.738   2.312
47458W        W12619  34.741  19.281  14.286
47459W        W12620  17.140   5.447  14.087
47460W        W12621  44.361  43.223   3.294
47461W        W12622  28.692  23.577   1.253
47462W        W12623  42.888  28.182  12.075
47463W        W12624  37.060  10.752  11.838
47464W        W12625   0.938  40.039  12.492
47465W        W12626  14.685  14.588   3.877
47466W        W12627  17.283  16.544  13.924
47467W        W12628  26.294  20.875   1.763
47468W        W12629  41.258  28.984   2.572
47469W        W12630  29.387  25.516   2.782
47470W        W12631  17.141  34.153  12.075
47471W        W12632  33.247  42.680  14.347
47472W        W12633  12.047  36.891  12.681
47473W        W12634   5.913  33.438   2.810
47474W        W12635  19.790  40.303   1.846
47475W        W12636  38.742  37.995  14.813
47476W        W12637  37.450  11.674   2.692
47477W        W12638  16.808  18.624   2.185
47478W        W12639   8.573  28.788  12.005
47479W        W12640   1.002  28.998   3.036
47480W        W12641  31.706  44.521  11.055
47481W        W12642  34.188  12.703   2.702
47482W        W12643  27.797  19.503  12.872
47483W        W12644  15.227  18.503  12.938
47484W        W12645   1.340  24.189   4.194
47485W        W12646   3.603  32.992  13.590
47486W        W12647  38.372  36.236  13.820
47487W        W12648  10.462  42.868   1.795
47488W        W12649  28.752  28.993  13.459
47489W        W12650  35.146   2.501   2.794
47490W        W12651  20.020  14.247   5.002
47491W        W12652  27.092  22.020  11.473
47492W        W12653  34.363  27.050   2.456
47493W        W12654  17.055  42.389  13.854
47494W        W12655   2.807  13.107   0.974
47495W        W12656  34.409  11.918  14.551
47496W        W12657  29.192  34.823  11.546
47497W        W12658  34.069  34.507  13.348
47498W        W12659   8.392  39.954  11.894
47499W        W12660   9.675   8.354  13.770
47500W        W12661  34.353   1.189   4.166
47501W        W12662  20.581   0.364  12.485
47502W        W12663  11.088  11.839  13.361
47503W        W12664  31.412  34.917  10.581
47504W        W12665  21.883   6.385  10.624
47505W        W12666  20.947  43.973  11.201
47506W        W12667  12.144  14.216   2.374
47507W        W12668  12.235   4.268  13.442
47508W        W12669  13.956  18.439   2.746
47509W        W12670  27.585  41.284   3.199
47510W        W12671  10.211  26.919   2.189
47511W        W12672   2.978  13.661  12.679
47512W        W12673  28.658  19.539   0.435
47513W        W12674   2.873  18.147   1.772
47514W        W12675  21.695  32.830   2.663
47515W        W12676  16.681  37.613   1.425
47516W        W12677   9.781  29.073  14.264
47517W        W12678  28.454  17.988   2.582
47518W        W12679  24.922  20.955   3.123
47519W        W12680  34.382  16.136   2.193
47520W        W12681  24.139  16.825  14.538
47521W        W12682   2.834  30.907   3.323
47522W        W12683  40.735  36.164  12.808
47523W        W12684  41.872  30.524  12.647
47524W        W12685   0.379  22.199   1.692
47525W        W12686  34.994  23.178   1.437
47526W        W12687  26.667  35.105  10.727
47527W        W12688  16.715  30.188   4.864
47528W        W12689  38.658  25.268   0.282
47529W        W12690  36.634  33.303   1.317
47530W        W12691  27.755  10.374  12.383
47531W        W12692  34.693  41.604  10.364
47532W        W12693   6.966  33.148  13.228
47533W        W12694  38.151  18.732  11.616
47534W        W12695  21.340  18.329   4.271
47535W        W12696  43.164   3.934   1.770
47536W        W12697  31.070  18.739   3.583
47537W        W12698  41.320   7.882   3.583
47538W        W12699  20.217   3.919   0.651
47539W        W12700  14.846   0.824   0.065
47540W        W12701  33.969   4.301  14.913
47541W        W12702  12.601  10.609   3.376
47542W        W12703  21.972  32.671  13.042
47543W        W12704   2.310  11.240  12.338
47544W        W12705  12.614   1.606  14.828
47545W        W12706  36.722  19.433   4.625
47546W        W12707  14.286  13.160  12.402
47547W        W12708   5.615   2.173  11.829
47548W        W12709   3.034  26.638   0.576
47549W        W12710  18.804  14.350  14.569
47550W        W12711   2.515  38.336  13.002
47551W        W12712  38.008  43.999   1.724
47552W        W12713  35.775   9.372   4.894
47553W        W12714   6.135  24.030  11.948
47554W        W12715  15.081  42.231  11.904
47555W        W12716  22.245  11.165  11.086
47556W        W12717  20.940  37.328   0.204
47557W        W12718  12.340   1.329   2.914
47558W        W12719   5.833  21.209  10.680
47559W        W12720  21.855  17.096  14.885
47560W        W12721  26.426  44.688   3.594
47561W        W12722  15.295  30.445  12.609
47562W        W12723  23.975  18.914   5.333
47563W        W12724  31.812   6.791  13.921
47564W        W12725  14.057  35.605   0.346
47565W        W12726  32.477  44.268  13.400
47566W        W12727   3.345  40.815   4.373
47567W        W12728  23.955  22.994   0.081
47568W        W12729  37.915  35.642   0.926
47569W        W12730  18.312  17.293   0.910
47570W        W12731  18.592  32.123  10.279
47571W        W12732  39.911  21.486   1.825
47572W        W12733   2.457  16.772   9.942
47573W        W12734  38.871  37.632   1.409
47574W        W12735   5.965  32.101   2.286
47575W        W12736   5.992  32.128  12.024
47576W        W12737   4.082   8.658  14.645
47577W        W12738  22.511  20.290  10.873
47578W        W12739   7.906  31.906   1.901
47579W        W12740  41.122  44.598  12.943
47580W        W12741  14.746  25.427   4.064
47581W        W12742  35.604  19.507   1.295
47582W        W12743  31.834  26.086  14.010
47583W        W12744  15.493  22.760  14.072
47584W        W12745   5.570   5.856  14.457
47585W        W12746  16.514  42.460   0.991
47586W        W12747  10.616  10.419   0.101
47587W        W12748  33.505   0.795  13.483
47588W        W12749  19.659  38.972  11.007
47589W        W12750  39.891  10.697   2.351
47590W        W12751   0.433  44.563   4.729
47591W        W12752   7.472   8.465   1.407
47592W        W12753  42.008   1.479  13.366
47593W        W12754  26.990   3.963  13.835
47594W        W12755   5.356  11.524  13.754
47595W        W12756   8.391  13.401  10.762
47596W        W12757  27.572  23.588   4.060
47597W        W12758  29.198  27.468  13.979
47598W        W12759  10.825  37.536   1.525
47599W        W12760  21.046  30.182   4.564
47600W        W12761   9.337  27.593  14.542
47601W        W12762  19.559  33.345  12.449
47602W        W12763  36.258  42.120   4.534
47603W        W12764   7.927   0.253   3.759
47604W        W12765  16.582  14.103   4.541
47605W        W12766   3.682  32.828  14.096
47606W        W12767  35.575  15.403  12.967
47607W        W12768  34.391  31.278   0.298
47608W        W12769   3.168   5.759  11.257
47609W        W12770  22.265   6.611  12.228
47610W        W12771  19.168  23.028   0.429
47611W        W12772  35.937  29.415  13.435
47612W        W12773  27.517  22.839  12.804
47613W        W12774  28.832  36.025   3.842
47614W        W12775   5.347  15.675   3.043
47615W        W12776  22.119  12.340  14.793
47616W        W12777  35.881   7.099   0.353
47617W        W12778  14.826  22.655   4.769
47618W        W12779   6.196   6.680  10.753
47619W        W12780   3.799  44.182   4.599
47620W        W12781  14.138   3.828  13.037
47621W        W12782  31.442  38.762  13.974
47622W        W12783  12.982  43.327   1.823
47623W        W12784   4.913  42.761   3.652
47624W        W12785  14.131  31.502  10.634
47625W        W12786   2.256  40.643  11.044
47626W        W12787  18.227  30.044   4.542
47627W        W12788  27.332  26.655   4.823
47628W        W12789   9.510   3.748   1.139
47629W        W12790  32.559   3.338  13.256
47630W        W12791   2.280   4.657   3.245
47631W        W12792   0.253  17.552   3.253
47632W        W12793  20.127  36.558  10.518
47633W        W12794  27.876  29.929   4.126
47634W        W12795  16.353   5.257   4.302
47635W        W12796  41.477   0.328  12.031
47636W        W12797   3.137  11.147  11.937
47637W        W12798  29.230  43.880   0.323
47638W        W12799   0.246  12.811   0.889
47639W        W12800  31.602   7.493   4.467
47640W        W12801  33.427  43.734   1.622
47641W        W12802  12.892  23.153   3.146
47642W        W12803  14.297  39.353  14.533
47643W        W12804  28.174  38.784   1.179
47644W        W12805   7.112   7.878   3.986
47645W        W12806  14.250   2.523  13.706
47646W        W12807  17.332  20.745   0.899
47647W        W12808  11.249  28.940   2.300
47648W        W12809  35.552  19.337   4.028
47649W        W12810   0.756  25.122   2.652
47650W        W12811  26.472  25.147  11.369
47651W        W12812  28.609  16.851  13.050
47652W        W12813   3.080  13.052  12.027
47653W        W12814   6.217  36.479   0.879
47654W        W12815   9.975  27.444   1.739
47655W        W12816  37.466  16.621   2.211
47656W        W12817  26.944  14.777  10.346
47657W        W12818  34.099   9.872  11.970
47658W        W12819  11.615  20.050   4.468
47659W        W12820  14.642   7.233  12.172
47660W        W12821  21.640   8.891   3.251
47661W        W12822   3.911  14.546   3.748
47662W        W12823   2.947  26.134  11.974
47663W        W12824  44.838   4.487  13.817
47664W        W12825  20.755  17.585  13.333
47665W        W12826  25.283  32.087   1.138
47666W        W12827  11.037  20.552   3.151
47667W        W12828  31.080  28.908  14.527
47668W        W12829   6.297   3.254  10.152
47669W        W12830  34.589   7.181   1.741
47670W        W12831  16.380  11.678  11.187
47671W        W12832  21.099  30.985  11.960
47672W        W12833  11.401   3.096   0.169
47673W        W12834  28.501  27.633   5.121
47674W        W12835  40.987  42.636   1.368
47675W        W12836  42.626  20.983  14.678
47676W        W12837  27.727   2.752  12.519
47677W        W12838  30.899  42.140   2.433
47678W        W12839  14.851  41.055   3.224
47679W        W12840  25.688  21.326  14.402
47680W        W12841  31.133  21.073   3.128
47681W        W12842  21.615  20.615  14.482
47682W        W12843  25.630   2.246   2.680
47683W        W12844   6.008  31.494   0.706
47684W        W12845  16.130  12.227   0.446
47685W        W12846  34.530  10.161  12.580
47686W        W12847  10.201  41.486  13.062
47687W        W12848  18.531  30.522   0.092
47688W        W12849  28.565  26.384  12.025
47689W        W12850  19.336   0.862  12.569
47690W        W12851  35.852  25.821   0.695
47691W        W12852  38.461  30.754   3.259
47692W        W12853  15.568  23.931   0.007
47693W        W12854  32.526  22.601  11.700
47694W        W12855   2.348  36.318   1.685
47695W        W12856  41.991  26.230   3.338
47696W        W12857  16.775  42.790  12.022
47697W        W12858  17.725  19.777  14.960
47698W        W12859  34.897  27.896   4.496
47699W        W12860  41.329  34.384   1.802
47700W        W12861   0.269  23.561  12.148
47701W        W12862  31.458  13.244   3.303
47702W        W12863  38.946  19.250  11.832
47703W        W12864   9.802  22.234   0.475
47704W        W12865   2.412  40.210  12.894
47705W        W12866  39.282  34.470  12.056
47706W        W12867  15.932   1.686   0.879
47707W        W12868  18.749  11.875  14.756
47708W        W12869  31.018   9.740   2.823
47709W        W12870  25.043  14.772   4.398
47710W        W12871  30.995  11.175  11.101
47711W        W12872  36.526  35.010   1.969
47712W        W12873  40.752   9.583   3.400
47713W        W12874  42.318  12.939   1.496
47714W        W12875  36.100  23.065  12.883
47715W        W12876  11.632  41.965   0.072
47716W        W12877  39.817   2.927  14.418
47717W        W12878  18.204  41.450   0.537
47718W        W12879  25.309  33.543  12.992
47719W        W12880   1.093  10.937   3.259
47720W        W12881   2.783  20.703   1.830
47721W        W12882  10.804  36.072  12.397
47722W        W12883   5.073   3.554   1.399
47723W        W12884   5.645  42.453   2.468
47724W        W12885   6.449   7.628   0.000
47725W        W12886   6.741  36.184  11.300
47726W        W12887  15.229  32.003  13.871
47727W        W12888  15.162  24.495   3.922
47728W        W12889  23.080  12.859  11.960
47729W        W12890   2.211  43.213   2.743
47730W        W12891  14.366  26.255   2.921
47731W        W12892  44.210   7.777  13.916
47732W        W12893   8.319  11.756  12.483
47733W        W12894  33.574  12.742  14.138
47734W        W12895  37.929  34.816   2.208
47735W        W12896  16.751  10.166  11.029
47736W        W12897  11.867  31.361   0.314
47737W        W12898  18.638  20.130   0.338
47738W        W12899  42.069  29.010  14.909
47739W        W12900  40.531  29.047  14.874
47740W        W12901   8.357   4.740  14.744
47741W        W12902  30.531   8.862  11.185
47742W        W12903  18.559  33.279  12.518
47743W        W12904  36.380  24.976   4.297
47744W        W12905   3.068  27.159  12.845
47745W        W12906  30.034  20.265   3.214
47746W        W12907   4.332  26.733   1.705
47747W        W12908  39.992  18.196   4.563
47748W        W12909  42.805   9.061  11.611
47749W        W12910   4.241  21.624   4.329
47750W        W12911  11.082  25.625   0.925
47751W        W12912  37.453  16.694  14.846
47752W        W12913  34.879   4.822   0.265
47753W        W12914   7.583  22.422  11.061
47754W        W12915  27.254  33.850  10.495
47755W        W12916  34.409  44.800  11.705
47756W        W12917   6.016  43.964   3.585
47757W        W12918  33.586   2.818   2.194
47758W        W12919  22.149  16.889  14.452
47759W        W12920  21.768  30.500  10.740
47760W        W12921  36.800   1.352  13.615
47761W        W12922  26.013  22.186   0.714
47762W        W12923  17.501  13.878   4.562
47763W        W12924  26.557  16.242  12.874
47764W        W12925  42.405  24.900   3.561
47765W        W12926  12.685  25.483  12.112
47766W        W12927  16.083  40.096  14.801
47767W        W12928   0.784  29.467  11.608
47768W        W12929  32.880  22.758   1.811
47769W        W12930  37.308  16.368   0.797
47770W        W12931  17.948  43.133  12.841
47771W        W12932   9.260  16.618  13.371
47772W        W12933  29.691  11.793   3.576
47773W        W12934  14.673  34.487   1.822
47774W        W12935  12.069  16.543   1.685
47775W        W12936  16.796  44.425   4.541
47776W        W12937  34.863  20.515  12.511
47777W        W12938  21.121  18.811  14.809
47778W        W12939  17.576  40.284  12.791
47779W        W12940  13.905  22.263   3.335
47780W        W12941  21.730  15.243  13.962
47781W        W12942  11.745   5.888  12.856
47782W        W12943  32.338  20.685   2.217
47783W        W12944  22.130  22.190  11.796
47784W        W12945  22.971   6.483  10.725
47785W        W12946  41.783   3.188  11.624
47786W        W12947  28.586   3.026  10.667
47787W        W12948   6.348   8.699   3.770
47788W        W12949   4.241  20.952   0.088
47789W        W12950  12.391  12.688  12.400
47790W        W12951   4.807  23.105  10.268
47791W        W12952   3.716  17.182  12.083
47792W        W12953  39.956  18.255   0.812
47793W        W12954  27.886  30.392  11.366
47794W        W12955  14.740  36.010  11.683
47795W        W12956  17.025  32.046   3.603
47796W        W12957  10.444  35.412  14.379
47797W        W12958  29.089  42.463  12.762
47798W        W12959  16.654  29.041   1.160
47799W        W12960  26.314  39.949  12.960
47800W        W12961  41.220  38.038   3.289
47801W        W12962   1.233  37.200  14.438
47802W        W12963  15.589   4.948   4.613
47803W        W12964  21.586  26.948  10.675
47804W        W12965  13.885   8.934  13.977
47805W        W12966  35.465   6.084  11.052
47806W        W12967   1.975  24.047  11.054
47807W        W12968   6.803   8.161   3.025
47808W        W12969   2.021  13.240  12.044
47809W        W12970   5.255  18.644   4.173
47810W        W12971  31.312  19.548  12.606
47811W        W12972  22.751  18.037   4.248
47812W        W12973  41.929  26.680  10.295
47813W        W12974  19.352  37.662  11.582
47814W        W12975   1.842   4.905   3.285
47815W        W12976   3.857  10.204   4.561
47816W        W12977  25.856  13.068  10.756
47817W        W12978  17.265  40.339  11.607
47818W        W12979  10.321  41.030  13.324
47819W        W12980   7.680  10.262   1.783
47820W        W12981  40.560   1.241  11.996
47821W        W12982  37.031  14.982   0.587
47822W        W12983  36.559  31.782   2.459
47823W        W12984  30.932   6.334  13.839
47824W        W12985  22.188  16.565  10.960
47825W        W12986   4.836  40.645  14.907
47826W        W12987  17.240  12.459  10.305
47827W        W12988  43.344   5.513   4.074
47828W        W12989   4.961  38.332   3.279
47829W        W12990  40.130  36.361   2.490
47830W        W12991  10.676  41.443   5.262
47831W        W12992  40.123  35.689   1.284
47832W        W12993  44.297  26.440   0.504
47833W        W12994  28.879  10.133  11.529
47834W        W12995  24.607   8.960   2.433
47835W        W12996  15.375  16.953  13.093
47836W        W12997  10.838  34.349  13.530
47837W        W12998  13.049   3.722   0.347
47838W        W12999  17.689  32.099  12.046
47839W        W13000  29.905  37.311  12.152
47840W        W13001  42.983  12.688   1.738
47841W        W13002  31.643  26.663   4.128
47842W        W13003  32.462  36.275  13.787
47843W        W13004  23.487  36.078   1.270
47844W        W13005  41.264  41.167   3.172
47845W        W13006  40.497  24.304   3.397
47846W        W13007  23.172  19.002  11.703
47847W        W13008  16.126  21.252   0.889
47848W        W13009   3.657   0.691  10.448
47849W        W13010  19.616  22.577   3.196
47850W        W13011  37.704  33.076  13.492
47851W        W13012  13.348  28.070   1.718
47852W        W13013  10.008  18.286   4.526
47853W        W13014  37.393  33.414  12.060
47854W        W13015  44.853  17.859  11.111
47855W        W13016   4.405   1.031   1.830
47856W        W13017  30.497   3.076   5.044
47857W        W13018  35.541  26.688   3.521
47858W        W13019  25.138   4.840   4.773
47859W        W13020  28.306   9.902   4.625
47860W        W13021   4.176  38.737  13.459
47861W        W13022   6.631  26.744  13.483
47862W        W13023   0.372  40.755   3.742
47863W        W13024   3.764  19.178  13.579
47864W        W13025  23.136  43.011   4.525
47865W        W13026  12.604  27.493   3.753
47866W        W13027  42.126  22.670  13.875
47867W        W13028  26.931  10.255  12.216
47868W        W13029  25.248  34.969   0.758
47869W        W13030  24.008   6.207  12.949
47870W        W13031  23.518   7.255   3.260
47871W        W13032  15.249  23.009  12.170
47872W        W13033   0.301   5.202  12.984
47873W        W13034  39.117   6.650   2.269
47874W        W13035  16.665  14.069  12.188
47875W        W13036  33.928   9.157  13.996
47876W        W13037  10.881  32.755   2.544
47877W        W13038  26.459  13.232   3.818
47878W        W13039  43.383  27.125   0.855
47879W        W13040  43.867  34.476   0.878
47880W        W13041  43.755  16.123  14.931
47881W        W13042  15.673  29.501   4.557
47882W        W13043  21.027  40.938   0.301
47883W        W13044  44.050  13.570   3.336
47884W        W13045  18.007   6.909  10.783
47885W        W13046  13.337  23.527   1.349
47886W        W13047  37.543  24.565  14.753
47887W        W13048   1.987  43.376   3.667
47888W        W13049  31.449  41.338   0.964
47889W        W13050  40.320   9.343   1.221
47890W        W13051  25.626   9.903  13.562
47891W        W13052   2.847   8.674   2.915
47892W        W13053  34.824  11.187  10.756
47893W        W13054   6.290  33.326  10.719
47894W        W13055   1.330  31.672  10.547
47895W        W13056  41.491  29.916   4.205
47896W        W13057  34.544   1.371   4.640
47897W        W13058   8.146  39.977   4.044
47898W        W13059  38.897  28.710   2.381
47899W        W13060  11.166  39.153   4.669
47900W        W13061  10.161   8.238  10.619
47901W        W13062  38.491  20.071  11.453
47902W        W13063  36.832  38.895  14.985
47903W        W13064   2.723   4.306   2.936
47904W        W13065   0.729  42.872   2.661
47905W        W13066  17.268   5.252   3.780
47906W        W13067  39.322  34.839  14.251
47907W        W13068  32.654  33.794  13.398
47908W        W13069  21.394  23.778  11.475
47909W        W13070   2.286   7.545  14.169
47910W        W13071  36.500  19.371   3.235
47911W        W13072  16.167   1.985  14.790
47912W        W13073  15.247  36.363   1.802
47913W        W13074  35.164  27.080  11.355
47914W        W13075  39.103  21.251   4.456
47915W        W13076  11.113  42.833   4.164
47916W        W13077  38.285  18.254   2.638
47917W        W13078  23.754  36.845   1.719
47918W        W13079  14.271  21.526   0.457
47919W        W13080  11.293  21.187   2.569
47920W        W13081   2.991  12.285  13.495
47921W        W13082  21.838  40.598   0.230
47922W        W13083  32.962  14.521  13.760
47923W        W13084  21.271  16.262   5.243
47924W        W13085   0.028  18.910  11.289
47925W        W13086  30.662  41.380  10.820
47926W        W13087   3.003   5.921   1.332
47927W        W13088  23.745   9.418   2.279
47928W        W13089   2.918  41.660   3.271
47929W        W13090  34.101  37.877  10.473
47930W        W13091  29.676  17.377   4.077
47931W        W13092  38.001   1.816  11.123
47932W        W13093   4.400  21.936  14.779
47933W        W13094  30.700  32.235  11.018
47934W        W13095   5.832  44.920  12.598
47935W        W13096  12.996  37.509   0.364
47936W        W13097  10.811  41.183   3.470
47937W        W13098  13.274   8.985   5.084
47938W        W13099   9.077  29.533   3.205
47939W        W13100  27.293  32.349   1.312
47940W        W13101  29.234  35.177  14.492
47941W        W13102  39.322  16.627   0.370
47942W        W13103   0.773   7.235  14.684
47943W        W13104   2.303  11.897   0.740
47944W        W13105  11.141  41.786   2.691
47945W        W13106  38.719  30.495   0.769
47946W        W13107  25.577  37.206  11.092
47947W        W13108  12.844  21.700   4.687
47948W        W13109  43.433  15.061   0.942
47949W        W13110  34.229  32.902  11.446
47950W        W13111  40.115  42.508  13.071
47951W        W13112  32.749  30.052   2.611
47952W        W13113   4.515  16.189  12.099
47953W        W13114  26.495  22.771  14.518
47954W        W13115  17.734   4.652   2.547
47955W        W13116  40.621   9.904  14.903
47956W        W13117  36.668  41.746   2.790
47957W        W13118   8.221  41.922   2.819
47958W        W13119   6.413   8.136   2.643
47959W        W13120  39.594   6.190   0.722
47960W        W13121  28.995   8.829  11.515
47961W        W13122  11.440   3.742  13.309
47962W        W13123  35.912   1.247  12.582
47963W        W13124   5.747  37.527   4.585
47964W        W13125  13.761  19.121   3.360
47965W        W13126  27.049  31.022   0.214
47966W        W13127  20.030  39.270   2.872
47967W        W13128   8.308  29.525   0.731
47968W        W13129  40.849  14.114   0.213
47969W        W13130   8.759  24.812   9.840
47970W        W13131  20.109   7.898  12.393
47971W        W13132  18.727  41.909   0.740
47972W        W13133   0.026   2.798   3.048
47973W        W13134   5.452  20.485  10.696
47974W        W13135  44.370  36.966  11.610
47975W        W13136  26.992  30.838   4.969
47976W        W13137  25.190  42.873   4.203
47977W        W13138   5.818   9.372   0.268
47978W        W13139  26.115   1.296  11.104
47979W        W13140  12.437   7.470  13.800
47980W        W13141  12.671   0.213  11.897
47981W        W13142   6.936   7.050   1.916
47982W        W13143  21.848  31.036  11.446
47983W        W13144  41.318  34.628   0.010
47984W        W13145  23.583  25.798  13.450
47985W        W13146  21.170  39.007  13.107
47986W        W13147  23.666  16.263   9.756
47987W        W13148  12.764  14.576  11.908
47988W        W13149   4.739  17.789  13.538
47989W        W13150   0.432  40.224   4.626
47990W        W13151  17.223  39.560  14.868
47991W        W13152  31.562  32.192   2.905
47992W        W13153  44.421  36.573  14.970
47993W        W13154   4.361  16.209  14.548
47994W        W13155  39.030   3.837  13.945
47995W        W13156   4.507  34.061   1.666
47996W        W13157  30.146  22.002   0.860
47997W        W13158  15.108  34.111  10.581
47998W        W13159  25.083  28.028  14.909
47999W        W13160  39.434  12.379   0.320
48000W        W13161  24.195  19.579   2.290
48001W        W13162   1.761  21.636   1.326
48002W        W13163   3.881   5.432  12.982
48003W        W13164  11.315   0.911  13.907
48004W        W13165  20.340  40.382  13.382
48005W        W13166  15.118  20.028   0.207
48006W        W13167  14.515  37.049   4.880
48007W        W13168  23.725  12.884   0.323
48008W        W13169  17.343  28.748  13.209
48009W        W13170   8.086  33.837  12.113
48010W        W13171  10.879   9.180   5.190
48011W        W13172  31.220  16.840  11.495
48012W        W13173  34.528  20.114  14.154
48013W        W13174  23.247  14.356  12.354
48014W        W13175  16.706  16.972  13.471
48015W        W13176  37.291  25.680  12.944
48016W        W13177   5.883  18.993   1.753
48017W        W13178  38.688   9.834   1.359
48018W        W13179  12.961  40.232   0.248
48019W        W13180  27.535  43.916  14.005
48020W        W13181   0.706   4.906  11.834
48021W        W13182  12.637  28.908  12.625
48022W        W13183  21.899  21.558  13.757
48023W        W13184  13.049  23.104   4.534
48024W        W13185   5.333  25.472  10.905
48025W        W13186   9.292   2.558   1.372
48026W        W13187  25.725  11.090  12.344
48027W        W13188  33.093  25.239  11.524
48028W        W13189  29.247   8.744   2.649
48029W        W13190   2.123  42.027   4.002
48030W        W13191  13.515  38.439   3.193
48031W        W13192  13.449  38.484   2.250
48032W        W13193  30.568  23.427   3.926
48033W        W13194   4.709  22.845  14.048
48034W        W13195  39.465  32.691   3.138
48035W        W13196   4.891  41.384   2.651
48036W        W13197   9.290  16.676  10.856
48037W        W13198   1.264   7.371   1.833
48038W        W13199  21.644  32.433  10.786
48039W        W13200  29.574   2.720  13.418
48040W        W13201  12.777  36.605  11.973
48041W        W13202  30.606  30.529  10.727
48042W        W13203   6.684   8.061   3.689
48043W        W13204  32.720   4.633   1.864
48044W        W13205  20.755  32.590   4.975
48045W        W13206  41.417  28.999   3.604
48046W        W13207  11.298  33.088   2.284
48047W        W13208   3.410  11.604  14.171
48048W        W13209  28.819   7.098  11.956
48049W        W13210  33.088  41.952  13.313
48050W        W13211  36.650  39.926  10.779
48051W        W13212  39.155  39.473   0.848
48052W        W13213  36.615  40.442  12.443
48053W        W13214   6.422   1.771   0.867
48054W        W13215  15.394  21.478  12.557
48055W        W13216  36.594  28.067   9.850
48056W        W13217   7.671  26.795   4.985
48057W        W13218   9.182  20.353  12.648
48058W        W13219  44.940  20.786  11.945
48059W        W13220  30.042  16.092  12.592
48060W        W13221  21.279  13.888   3.687
48061W        W13222  16.124  23.788   0.791
48062W        W13223  22.592  17.105   2.412
48063W        W13224  24.309   8.656  11.592
48064W        W13225   4.339   5.267   2.645
48065W        W13226  26.829  13.835  11.218
48066W        W13227   0.484  35.876   1.602
48067W        W13228  15.611  30.382  14.010
48068W        W13229  41.223  36.873  14.338
48069W        W13230  44.297  39.139   2.657
48070W        W13231  11.237  36.337  11.344
48071W        W13232  34.139   6.276   4.444
48072W        W13233  26.893  11.315  14.295
48073W        W13234  22.680  27.917   4.250
48074W        W13235  35.022  18.077  11.192
48075W        W13236  29.883  23.617   2.644
48076W        W13237  24.065  19.801  10.918
48077W        W13238  20.474   9.303  14.898
48078W        W13239   8.241   7.122  14.023
48079W        W13240  33.012  24.314   3.125
48080W        W13241   8.268  30.871   4.084
48081W        W13242  24.138  12.898   4.701
48082W        W13243  10.832  16.184   2.368
48083W        W13244   2.887  21.525   0.294
48084W        W13245  39.603   4.415   3.774
48085W        W13246  37.979  32.180  10.825
48086W        W13247  20.471  16.707   2.433
48087W        W13248  42.785  28.551  13.346
48088W        W13249  34.320  21.342  11.998
48089W        W13250  20.749  25.229   1.285
48090W        W13251  28.004  38.626  14.785
48091W        W13252  11.578   3.085   1.505
48092W        W13253  10.569  29.923  11.487
48093W        W13254  15.136  40.129  13.612
48094W        W13255  28.137  41.251  12.188
48095W        W13256  10.672   0.655  12.472
48096W        W13257  39.293   9.350  12.417
48097W        W13258  35.397  12.709   3.693
48098W        W13259  38.480  28.374   1.820
48099W        W13260  37.982  17.658  12.376
48100W        W13261  10.361   6.784  11.278
48101W        W13262  22.725   6.371  12.986
48102W        W13263  35.036  16.501  12.465
48103W        W13264   6.422  14.024  11.989
48104W        W13265  22.301   6.746  11.314
48105W        W13266  21.564   6.967  14.458
48106W        W13267  29.532   0.227   1.734
48107W        W13268  28.460   3.287   0.688
48108W        W13269  31.397   2.780  12.549
48109W        W13270  21.048  12.965  10.780
48110W        W13271  37.149   6.704  12.478
48111W        W13272  25.556  14.625  13.010
48112W        W13273   2.685  33.648   4.125
48113W        W13274  19.052  42.934  11.146
48114W        W13275  24.910   9.223  14.368
48115W        W13276  40.982  36.992   1.781
48116W        W13277  38.436  27.989  10.619
48117W        W13278  38.530  16.202   4.054
48118W        W13279   5.421   0.401   3.652
48119W        W13280   3.002  28.961   1.990
48120W        W13281  34.538  36.791   0.294
48121W        W13282  32.057  21.116  11.106
48122W        W13283  42.969  14.362  11.376
48123W        W13284   2.038   2.457   2.143
48124W        W13285  42.197  40.582   4.038
48125W        W13286  31.677   1.958   3.147
48126W        W13287  23.076  22.960   0.329
48127W        W13288  13.406  12.108   1.423
48128W        W13289   7.233   6.203  14.027
48129W        W13290  14.577  23.647  13.972
48130W        W13291  10.995  18.336   3.348
48131W        W13292  35.157  15.890   1.878
48132W        W13293  35.135  28.417  11.399
48133W        W13294  29.153  33.888   3.315
48134W        W13295  38.871  36.346  12.976
48135W        W13296  25.255  42.909   3.257
48136W        W13297  25.995  35.484   3.903
48137W        W13298  10.679  27.060   3.288
48138W        W13299  23.510  11.992   0.608
48139W        W13300  32.512  11.067   3.908
48140W        W13301  42.484  33.157   2.661
48141W        W13302  19.803  17.057   0.734
48142W        W13303  36.478  11.679   2.955
48143W        W13304  22.581  22.296  12.502
48144W        W13305  38.549   8.250  11.938
48145W        W13306  20.116  44.813   3.756
48146W        W13307  23.962  23.948   4.149
48147W        W13308   7.756  38.776  11.740
48148W        W13309   0.253  37.554   1.013
48149W        W13310  17.137  21.194  14.372
48150W        W13311  26.603   0.872   2.231
48151W        W13312  19.835  14.281   2.149
48152W        W13313  11.196  26.758  13.001
48153W        W13314  26.492   7.089  12.886
48154W        W13315  25.606  24.965   2.369
48155W        W13316  17.640  15.090   0.573
48156W        W13317   4.839  34.080   2.483
48157W        W13318  30.758  37.777   2.343
48158W        W13319   2.350  40.829   3.177
48159W        W13320  39.407  36.466   1.362
48160W        W13321  42.057  14.406   2.940
48161W        W13322   7.159  29.447   0.348
48162W        W13323  42.912  11.348  11.146
48163W        W13324  24.153  11.211  13.539
48164W        W13325   3.247  20.501   1.732
48165W        W13326  12.085  20.704  13.715
48166W        W13327  28.471  15.622   0.377
48167W        W13328  16.376  37.941  12.020
48168W        W13329  10.891   8.459   2.837
48169W        W13330  36.611  37.833  10.610
48170W        W13331  36.089   4.742   1.346
48171W        W13332  43.948  37.437   2.273
48172W        W13333  36.957  38.479  13.839
48173W        W13334   8.433   9.698  13.772
48174W        W13335  10.190   1.311  13.065
48175W        W13336  36.975  19.693  13.667
48176W        W13337  31.000  31.570   1.362
48177W        W13338  35.132   0.474  14.580
48178W        W13339  36.403  16.261   2.257
48179W        W13340  42.512  22.087   0.771
48180W        W13341   6.906  25.580   0.981
48181W        W13342  28.955   5.937   3.869
48182W        W13343  24.687  34.264  13.896
48183W        W13344   3.404  35.073   0.431
48184W        W13345   7.807  38.427  10.898
48185W        W13346  28.913  26.053   0.859
48186W        W13347  11.104   3.795   1.947
48187W        W13348  28.562  11.653   4.154
48188W        W13349  40.003   3.634   3.562
48189W        W13350  28.581  16.749   4.452
48190W        W13351  15.093  15.723  12.912
48191W        W13352  28.022   5.504   4.632
48192W        W13353   1.769  37.284  12.000
48193W        W13354   3.729  31.224   4.809
48194W        W13355  29.692  26.051  12.827
48195W        W13356  25.470   9.648   5.453
48196W        W13357   1.945  44.727   3.729
48197W        W13358  26.860  40.544  14.940
48198W        W13359  19.054  24.209  13.626
48199W        W13360  15.270  15.591   1.953
48200W        W13361  39.555  31.201   3.680
48201W        W13362  34.329  28.625  11.118
48202W        W13363  23.193  30.065  11.762
48203W        W13364  10.696  44.769  14.004
48204W        W13365  29.940  12.678  12.807
48205W        W13366  13.147  17.257   2.760
48206W        W13367  13.230   6.663  12.390
48207W        W13368   0.205  20.165   1.863
48208W        W13369   8.594   5.416  11.158
48209W        W13370  16.111   3.446  14.970
48210W        W13371  36.949  36.141   4.424
48211W        W13372  30.461  27.040   2.129
48212W        W13373  15.658  18.831   4.182
48213W        W13374  10.214  28.064  14.827
48214W        W13375  33.775  38.238  10.674
48215W        W13376  36.135  32.145  12.952
48216W        W13377  43.383   8.296   2.904
48217W        W13378   2.416   1.641   4.374
48218W        W13379   9.597  44.815   4.851
48219W        W13380  27.949  38.937  11.271
48220W        W13381  13.322   8.924  14.966
48221W        W13382  34.531  23.249  12.394
48222W        W13383  41.404  13.844   2.696
48223W        W13384  16.309  44.745   0.900
48224W        W13385  33.426  31.111   1.360
48225W        W13386   6.693   5.956   1.820
48226W        W13387   0.993  28.761  11.075
48227W        W13388  20.695  39.179   0.288
48228W        W13389  24.046  25.752  14.116
48229W        W13390   3.158  39.606  12.772
48230W        W13391   6.603   9.348   0.646
48231W        W13392   6.889  37.368  14.445
48232W        W13393  34.517  25.409  13.809
48233W        W13394  27.131  23.250   0.690
48234W        W13395  35.887   3.491   2.067
48235W        W13396  14.293  33.896   3.963
48236W        W13397   4.692  24.665   2.364
48237W        W13398  38.809  20.381  13.317
48238W        W13399  29.168  36.020   4.265
48239W        W13400   1.834   4.466  14.811
48240W        W13401  41.442  27.841  13.503
48241W        W13402  44.408   5.134   2.374
48242W        W13403  21.943  36.937   3.633
48243W        W13404  38.560  21.227  13.305
48244W        W13405  36.818  17.184  10.761
48245W        W13406  21.235  17.747  11.734
48246W        W13407   1.273  10.277   3.907
48247W        W13408  42.088   5.338   1.903
48248W        W13409  27.637   4.665  11.637
48249W        W13410  37.526  17.030   0.341
48250W        W13411  39.546   1.970   0.805
48251W        W13412   6.673  19.722   1.387
48252W        W13413  11.273  38.392   1.184
48253W        W13414  43.038  44.793   4.615
48254W        W13415  25.422  17.340  14.359
48255W        W13416  43.080  14.091   1.940
48256W        W13417  39.319  28.644   3.315
48257W        W13418  10.576   1.355   1.894
48258W        W13419  20.637  24.815   0.414
48259W        W13420  21.174  41.231   2.970
48260W        W13421  20.018  16.634  14.979
48261W        W13422  13.501  37.263  12.224
48262W        W13423  36.700  39.448   2.714
48263W        W13424   3.246   9.655  12.168
48264W        W13425   0.979  30.402  13.358
48265W        W13426   0.398  33.891   3.808
48266W        W13427  11.274  34.455   3.253
48267W        W13428   7.319  10.807  13.566
48268W        W13429   1.955   4.271  10.752
48269W        W13430  44.512  22.015   2.723
48270W        W13431  24.209   9.694   3.934
48271W        W13432   3.066  19.624  13.260
48272W        W13433  25.477  34.648   1.311
48273W        W13434  34.829   7.193  12.048
48274W        W13435  23.304  35.227   3.598
48275W        W13436  19.595   1.366   4.532
48276W        W13437  11.939   6.860  12.655
48277W        W13438  27.590  20.794  12.301
48278W        W13439  20.641  30.455  12.030
48279W        W13440   0.727   3.393  10.048
48280W        W13441  44.200  21.176  14.965
48281W        W13442  19.725   6.640   2.778
48282W        W13443  44.993  36.603   0.347
48283W        W13444  20.260  21.742  14.969
48284W        W13445   9.387  27.305   0.637
48285W        W13446   6.588  27.034  14.863
48286W        W13447   6.593  15.688  12.459
48287W        W13448  14.949  17.863   0.831
48288W        W13449  20.997  13.247   0.837
48289W        W13450   4.405  18.923   3.189
48290W        W13451  25.278  37.653  12.236
48291W        W13452  37.075  38.777   3.708
48292W        W13453  12.422  18.753   0.835
48293W        W13454   7.344   8.830   5.023
48294W        W13455   6.627  36.400   1.768
48295W        W13456  38.283   1.650   1.377
48296W        W13457   8.395   8.660  13.572
48297W        W13458  14.551  23.592   1.498
48298W        W13459  42.674  28.699  11.055
48299W        W13460  19.051  40.560  12.716
48300W        W13461  12.584  23.613  14.069
48301W        W13462  25.210  39.808   4.072
48302W        W13463  41.045  29.675   4.206
48303W        W13464  30.450  26.032   2.176
48304W        W13465   3.161   8.622  13.506
48305W        W13466  19.305  11.289   2.118
48306W        W13467  38.891  18.345   2.357
48307W        W13468  32.660   8.269   3.292
48308W        W13469  12.869   3.808   4.242
48309W        W13470  10.420  41.582   2.278
48310W        W13471   7.141  16.598   3.306
48311W        W13472  11.145  22.600   2.677
48312W        W13473  33.916  22.483  11.911
48313W        W13474   8.556  31.816   9.932
48314W        W13475  40.857  28.271  12.742
48315W        W13476  35.985  21.920  12.017
48316W        W13477   4.254  31.689  11.135
48317W        W13478   4.140  15.841  11.976
48318W        W13479  37.346  43.410   4.226
48319W        W13480  31.197   8.366   2.206
48320W        W13481   2.770  37.034  11.593
48321W        W13482  29.076  30.667   1.721
48322W        W13483  29.429  20.549   3.110
48323W        W13484  31.111  14.865  11.534
48324W        W13485  18.087  38.682  11.089
48325W        W13486  20.786  26.071   3.644
48326W        W13487  44.242  14.644  12.508
48327W        W13488  39.377  30.990  13.519
48328W        W13489  30.730   9.297  12.024
48329W        W13490  33.097  22.841   1.336
48330W        W13491  40.698  30.673  11.743
48331W        W13492  20.826  13.862   3.350
48332W        W13493  43.380  19.473  10.962
48333W        W13494  18.644  26.933  14.654
48334W        W13495  30.345  36.087   0.368
48335W        W13496  29.582  11.120   0.408
48336W        W13497  23.591  32.136  11.601
48337W        W13498   7.703  40.162  14.459
48338W        W13499  29.864  42.419   4.180
48339W        W13500  35.597  40.002   2.115
48340W        W13501   2.195  32.052   1.742
48341W        W13502  25.615  26.995  12.486
48342W        W13503  20.322   1.550   3.369
48343W        W13504   4.843  19.303   1.044
48344W        W13505  16.693  42.117  12.427
48345W        W13506  11.216  13.012  14.501
48346W        W13507  41.721  27.537   2.420
48347W        W13508   5.028  32.084  11.134
48348W        W13509  25.605  39.794   2.781
48349W        W13510  20.755  17.323   0.026
48350W        W13511   1.756  11.263   4.612
48351W        W13512  38.036  15.632   0.857
48352W        W13513  32.200  12.196   3.251
48353W        W13514  13.115  13.296   4.555
48354W        W13515  14.020  32.564   3.708
48355W        W13516   5.351  33.462  14.505
48356W        W13517  15.993  42.268  11.607
48357W        W13518  32.403  43.374   2.623
48358W        W13519  21.363   4.950  12.951
48359W        W13520  44.921  10.133   3.624
48360W        W13521  39.245  17.662   3.598
48361W        W13522  36.410  22.722  13.937
48362W        W13523   1.385  11.943  13.514
48363W        W13524   5.736  38.874   3.256
48364W        W13525  30.457  30.437   1.796
48365W        W13526  43.923   6.176  10.743
48366W        W13527  41.073   9.691   0.078
48367W        W13528   5.751  43.094  12.574
48368W        W13529   6.635  44.417   4.539
48369W        W13530   2.675  40.227  12.355
48370W        W13531   6.222  33.100  12.949
48371W        W13532  17.806  27.733   0.323
48372W        W13533  12.844  11.923  12.563
48373W        W13534  44.790   4.711   0.863
48374W        W13535  43.078   3.162  10.784
48375W        W13536  20.729   4.590   4.396
48376W        W13537  13.113   7.313  14.896
48377W        W13538  10.858  32.730   0.824
48378W        W13539  29.713  38.716   4.051
48379W        W13540  14.926   0.365  14.853
48380W        W13541  25.542   0.258   4.579
48381W        W13542  10.795  36.629   1.294
48382W        W13543  21.773  16.439   0.491
48383W        W13544  32.917  33.878  10.668
48384W        W13545  30.731  36.639   3.260
48385W        W13546   8.681   6.341   1.392
48386W        W13547  42.249  16.333  13.946
48387W        W13548  34.662  43.478  10.180
48388W        W13549  12.264  42.981   1.675
48389W        W13550  41.746  17.117   0.370
48390W        W13551   8.542  39.696  11.092
48391W        W13552  10.654  39.742  12.575
48392W        W13553  13.679  20.925  13.083
48393W        W13554   4.371  26.127   3.418
48394W        W13555  28.383  13.835   0.811
48395W        W13556  17.131  40.119  13.044
48396W        W13557   5.573  37.694  10.578
48397W        W13558  20.084  27.982  13.250
48398W        W13559  21.240  43.894   0.829
48399W        W13560  40.279  34.693  11.103
48400W        W13561  23.239  20.756   2.375
48401W        W13562  44.970  32.597   1.742
48402W        W13563  44.453   1.655  14.082
48403W        W13564  33.679  12.981   0.995
48404W        W13565  13.532  42.900   3.818
48405W        W13566  13.925  14.023  13.818
48406W        W13567  34.143   5.870  10.643
48407W        W13568  17.343  42.353  13.400
48408W        W13569   4.755  21.518   3.412
48409W        W13570  26.571  20.359   0.695
48410W        W13571  41.051  35.522   3.246
48411W        W13572  13.776  20.176   2.657
48412W        W13573  11.161  11.545  12.855
48413W        W13574  40.059  37.610   4.476
48414W        W13575   4.166  25.053   4.024
48415W        W13576  12.370  32.416   2.439
48416W        W13577   3.429  38.587   4.565
48417W        W13578  39.865  41.412   1.666
48418W        W13579  20.643  14.803   1.722
48419W        W13580   8.355  31.223   1.391
48420W        W13581  41.090  32.888   2.178
48421W        W13582  13.654  15.331   1.189
48422W        W13583  10.179   8.599  13.583
48423W        W13584   3.792  42.234   2.775
48424W        W13585  40.250  18.675   0.716
48425W        W13586  24.930  39.321   1.807
48426W        W13587  36.998  21.736   0.547
48427W        W13588   7.585  24.530  12.399
48428W        W13589  42.524  10.616   3.807
48429W        W13590  19.050  20.291  13.815
48430W        W13591   1.097  30.082   1.961
48431W        W13592  39.769  44.756  10.530
48432W        W13593  41.004  40.415  11.612
48433W        W13594  44.838  44.761   2.162
48434W        W13595  36.979  18.508   2.012
48435W        W13596  17.768  33.546   2.434
48436W        W13597  44.753   8.396  11.572
48437W        W13598   2.322   6.505  13.048
48438W        W13599  36.332  13.447   3.237
48439W        W13600  11.385  22.444  11.399
48440W        W13601  34.985  41.915   2.756
48441W        W13602   1.660  31.749  14.071
48442W        W13603  33.439  23.403   4.590
48443W        W13604  11.169   3.701  14.311
48444W        W13605  24.897  23.204   4.990
48445W        W13606  35.895  32.015  13.397
48446W        W13607  37.036  30.406  11.093
48447W        W13608  25.703  31.590  14.509
48448W        W13609  23.700  28.505   3.438
48449W        W13610  28.242  15.311   4.613
48450W        W13611  11.148   2.918   1.783
48451W        W13612  13.317   9.454   4.802
48452W        W13613  12.782   0.666   3.318
48453W        W13614  38.489  30.552   4.288
48454W        W13615  34.867  22.477  14.457
48455W        W13616  33.318   7.174   9.968
48456W        W13617   5.812  27.863   2.210
48457W        W13618  16.579  35.623  14.935
48458W        W13619  18.948   8.088   4.978
48459W        W13620  14.193   4.523  12.483
48460W        W13621  31.408   9.030  13.627
48461W        W13622  34.185  32.271   1.299
48462W        W13623  29.003   9.164  11.908
48463W        W13624  36.541  43.815  13.386
48464W        W13625  31.968  20.660   2.668
48465W        W13626   7.379  36.688  11.727
48466W        W13627  41.929  33.899   3.269
48467W        W13628  19.329   0.767   3.306
48468W        W13629   4.492  14.546  11.588
48469W        W13630  41.892  22.493  14.892
48470W        W13631  19.104  14.274   0.417
48471W        W13632   7.121  22.378   0.821
48472W        W13633   1.318  43.780   2.875
48473W        W13634  34.556  17.552   2.893
48474W        W13635  17.235  44.446  13.485
48475W        W13636   1.551  23.714   4.162
48476W        W13637  27.530  10.234   3.223
48477W        W13638  12.131  39.596   0.859
48478W        W13639  33.018  25.598  11.143
48479W        W13640  43.007   3.320   2.607
48480W        W13641   4.390  10.284  11.369
48481W        W13642  15.232  20.006  13.855
48482W        W13643  41.073  23.491   4.162
48483W        W13644  15.179  24.561   4.933
48484W        W13645  35.959  28.952  11.192
48485W        W13646  29.007  26.987   2.845
48486W        W13647  42.428  28.042   2.251
48487W        W13648  36.033  36.490   0.061
48488W        W13649  33.922  17.825  11.021
48489W        W13650  18.806  19.077  14.493
48490W        W13651  33.375   7.321  12.469
48491W        W13652  16.009  14.851   3.651
48492W        W13653  40.622  12.492  14.035
48493W        W13654  24.868   5.818   3.295
48494W        W13655  14.884  31.175   3.166
48495W        W13656  18.569  41.041   0.349
48496W        W13657  12.368  36.436   1.267
48497W        W13658  12.449  16.140   2.764
48498W        W13659  10.349   2.675   0.394
48499W        W13660   8.682  31.662  12.374
48500W        W13661   0.437  16.596  11.415
48501W        W13662  41.092  19.092   2.956
48502W        W13663   4.000  34.791  11.986
48503W        W13664  32.641   5.548  10.365
48504W        W13665   1.656  24.072   4.579
48505W        W13666  38.031  21.821   3.123
48506W        W13667  27.735  35.425  14.294
48507W        W13668  30.440  44.240  11.483
48508W        W13669  11.164   1.907   2.722
48509W        W13670   9.088  41.609  11.811
48510W        W13671  23.433   0.024  10.767
48511W        W13672  36.084   9.806  11.756
48512W        W13673  27.475  21.191   4.619
48513W        W13674   2.230  34.601  13.968
48514W        W13675  32.566  32.092   4.571
48515W        W13676  37.537  34.226   4.855
48516W        W13677   0.466  44.364   1.836
48517W        W13678   7.249  10.667   0.314
48518W        W13679  22.911  27.841   1.787
48519W        W13680  36.988  36.976   3.290
48520W        W13681  36.872  22.737   3.185
48521W        W13682  24.284  44.527  11.149
48522W        W13683  41.114  37.448  14.354
48523W        W13684   5.340  14.305  13.432
48524W        W13685   0.517   3.462   1.922
48525W        W13686  16.562   3.065  13.008
48526W        W13687   2.813  38.813   0.254
48527W        W13688  19.634   2.739  11.133
48528W        W13689  25.202  38.207   0.521
48529W        W13690   5.501   4.889  10.724
48530W        W13691  11.155  26.165   4.686
48531W        W13692  33.570  34.560  11.930
48532W        W13693   1.688  31.646  11.678
48533W        W13694  42.911  26.530  14.550
48534W        W13695   3.830  25.468   4.087
48535W        W13696  29.542  41.027  12.383
48536W        W13697  12.276  37.062  10.712
48537W        W13698  25.435  14.359  10.026
48538W        W13699   0.184  20.185   0.469
48539W        W13700  29.480  38.618   4.500
48540W        W13701  27.232  20.086  13.735
48541W        W13702  43.991  22.554  13.310
48542W        W13703  22.997  19.853  13.328
48543W        W13704  21.736  42.003  13.871
48544W        W13705  22.559  41.378   2.390
48545W        W13706  20.593   0.824   0.320
48546W        W13707  25.498  28.376   3.796
48547W        W13708  16.237  23.267  14.752
48548W        W13709  35.326  36.371   4.505
48549W        W13710  30.449  25.511  12.835
48550W        W13711  26.090   5.992   2.698
48551W        W13712  33.937  13.680   3.259
48552W        W13713  37.666  22.060  14.743
48553W        W13714  30.383  12.190   0.753
48554W        W13715  44.737  30.213   4.060
48555W        W13716  36.358   7.904   0.822
48556W        W13717  24.117  31.002  12.483
48557W        W13718   0.024  37.824   0.621
48558W        W13719   9.163   1.766   9.997
48559W        W13720   1.933  19.602  14.396
48560W        W13721  30.641  27.503  14.551
48561W        W13722  44.593  28.705   1.674
48562W        W13723  41.962  33.869  10.502
48563W        W13724  22.705  21.099   2.737
48564W        W13725   8.439  18.626   3.786
48565W        W13726  43.403  39.844  11.954
48566W        W13727   7.070  16.823   2.829
48567W        W13728  23.877  18.272   9.678
48568W        W13729  12.143  23.245  12.509
48569W        W13730  33.290  35.199  13.967
48570W        W13731   6.777  41.026   3.720
48571W        W13732   6.782   3.987   2.067
48572W        W13733  17.830  10.780  11.482
48573W        W13734  12.760  32.403  10.732
48574W        W13735   3.944  24.156  12.484
48575W        W13736  43.575  14.599   1.458
48576W        W13737   8.307  36.823   3.777
48577W        W13738  27.509  11.876  12.585
48578W        W13739  15.178  25.917  11.390
48579W        W13740  14.535  15.979   3.534
48580W        W13741  32.012  41.792  12.222
48581W        W13742  15.718  10.776   0.520
48582W        W13743  34.930  19.968  14.907
48583W        W13744  38.880  16.093   2.836
48584W        W13745  40.609  17.682  14.530
48585W        W13746  32.364  20.624   1.285
48586W        W13747  27.288  10.710   3.148
48587W        W13748  10.165  10.403  14.762
48588W        W13749  14.742  13.593  14.104
48589W        W13750   9.808  26.480   1.711
48590W        W13751  21.733   3.220  11.171
48591W        W13752   5.356  37.110   4.481
48592W        W13753  34.297   9.387  12.087
48593W        W13754  28.223  23.012  12.103
48594W        W13755  32.244  35.594  11.669
48595W        W13756   1.833  24.946  12.208
48596W        W13757  19.947   6.974   3.225
48597W        W13758  41.245   9.847   0.567
48598W        W13759  38.063   0.899   0.442
48599W        W13760  39.259  32.763   2.270
48600W        W13761  34.580  22.265  14.063
48601W        W13762  25.613   3.994   1.241
48602W        W13763  44.182   6.481   4.532
48603W        W13764  27.550  26.436  14.809
48604W        W13765  30.555  41.278   4.351
48605W        W13766  43.258   7.668   1.744
48606W        W13767   3.434   4.198  12.952
48607W        W13768   4.855  25.412   3.265
48608W        W13769  13.675  37.884  12.958
48609W        W13770   3.228  35.670  12.996
48610W        W13771  31.071  15.913   4.635
48611W        W13772  12.020  15.027   3.149
48612W        W13773  40.074  25.575  10.716
48613W        W13774   8.425  19.300   3.320
48614W        W13775   4.864  15.598  10.241
48615W        W13776  16.499  40.230  11.275
48616W        W13777   3.768  25.501  13.984
48617W        W13778  12.527  28.929   0.358
48618W        W13779  19.793   4.107  11.726
48619W        W13780  27.068  22.607   2.977
48620W        W13781  13.563  18.052   1.898
48621W        W13782  26.605  29.595   3.722
48622W        W13783  20.153  23.013   1.507
48623W        W13784  23.968  34.073  12.486
48624W        W13785   1.012   1.985  13.007
48625W        W13786  27.676  44.478   0.743
48626W        W13787  10.458  23.096   3.454
48627W        W13788  31.230   8.668   5.029
48628W        W13789   5.766  40.453   4.111
48629W        W13790  20.318  25.637  12.413
48630W        W13791  38.454  41.101   3.618
48631W        W13792  36.458  27.173   2.155
48632W        W13793   3.875  10.573   0.029
48633W        W13794  18.728  12.010   3.683
48634W        W13795   0.912  15.275   1.985
48635W        W13796  13.721  17.918  10.727
48636W        W13797  28.409  39.144   4.976
48637W        W13798  38.471   7.900   2.246
48638W        W13799  15.028   0.717  13.912
48639W        W13800  29.111   1.118   4.424
48640W        W13801   4.250  22.952  11.714
48641W        W13802  11.350  16.227   1.325
48642W        W13803   4.453  40.204   5.146
48643W        W13804  41.877  29.739  14.481
48644W        W13805  37.270  18.179  11.986
48645W        W13806  22.539   9.828   1.792
48646W        W13807  22.682  39.856   2.295
48647W        W13808  14.420  22.287   4.636
48648W        W13809  29.400  34.882  13.538
48649W        W13810   4.367  22.618   4.067
48650W        W13811  30.693  27.456   2.348
48651W        W13812  12.659  35.151   4.078
48652W        W13813  20.918  39.474  14.432
48653W        W13814  22.577  18.531   4.403
48654W        W13815   9.228  10.451   0.546
48655W        W13816  41.506  39.228  10.636
48656W        W13817  27.140  11.867  14.971
48657W        W13818  14.670   3.756  11.581
48658W        W13819  14.633  11.704   0.711
48659W        W13820   9.310  30.860  10.766
48660W        W13821  33.094  34.339  13.786
48661W        W13822  39.501   9.767  11.851
48662W        W13823   5.922  35.977   1.735
48663W        W13824   3.873  43.705   3.719
48664W        W13825  32.033  43.876  10.538
48665W        W13826   2.272  20.122  14.856
48666W        W13827  27.317   6.741   0.249
48667W        W13828  44.988  40.791   5.792
48668W        W13829   8.797  17.336   1.313
48669W        W13830  23.743   7.073   4.253
48670W        W13831  25.224   5.098  13.514
48671W        W13832  30.916  44.297  10.735
48672W        W13833   9.474  13.809  13.787
48673W        W13834  16.220  37.058   0.421
48674W        W13835  33.271  23.155   4.180
48675W        W13836   2.457  21.011  10.979
48676W        W13837  44.573   0.852  14.637
48677W        W13838  15.161  25.705  10.897
48678W        W13839   6.767  32.667   1.382
48679W        W13840  22.256  11.810  12.329
48680W        W13841   2.136  20.150   1.665
48681W        W13842   5.354  20.306   4.567
48682W        W13843  25.672  10.250   1.391
48683W        W13844   5.786  42.763   4.220
48684W        W13845   5.280  11.597   4.672
48685W        W13846   5.940  34.070   3.256
48686W        W13847   4.554   5.432  11.095
48687W        W13848  36.520  22.080   0.944
48688W        W13849  30.492  44.956   3.761
48689W        W13850  30.411  41.459   2.101
48690W        W13851  18.261   5.829   0.821
48691W        W13852   5.338   7.378  12.965
48692W        W13853  18.199  35.409   3.247
48693W        W13854   9.731   4.686   1.934
48694W        W13855  41.930  27.615   0.287
48695W        W13856  31.504  20.502  12.177
48696W        W13857  30.260  31.336   1.876
48697W        W13858   9.426  32.117   2.328
48698W        W13859  36.059  36.856  13.362
48699W        W13860  38.863  24.223  14.722
48700W        W13861  40.996  41.808   0.321
48701W        W13862  31.605  28.114   2.569
48702W        W13863  22.739  39.070   1.399
48703W        W13864  16.908  14.440  12.468
48704W        W13865  36.993  44.347   2.060
48705W        W13866   6.419  19.004   1.714
48706W        W13867  14.740   2.709   4.194
48707W        W13868  16.098  23.483  13.056
48708W        W13869  36.613  27.738  12.884
48709W        W13870  42.742  14.731   4.038
48710W        W13871  26.468  21.044  12.991
48711W        W13872   7.614  33.029  12.149
48712W        W13873   5.564  34.484   3.655
48713W        W13874  17.218  12.966  12.150
48714W        W13875   8.935  27.418   0.871
48715W        W13876   1.385  36.370   3.224
48716W        W13877   8.296  14.207  14.823
48717W        W13878  41.501  37.026   1.667
48718W        W13879  41.295  27.774  14.536
48719W        W13880  29.188  22.429   2.426
48720W        W13881   6.741   9.465  11.048
48721W        W13882  18.025  34.183   3.749
48722W        W13883  16.199  29.946   1.860
48723W        W13884  31.702  37.798  14.332
48724W        W13885  33.184   4.994  11.085
48725W        W13886  19.201   8.697  14.117
48726W        W13887  16.268  11.062  11.633
48727W        W13888  37.787  10.379   0.876
48728W        W13889   0.680  29.055  14.240
48729W        W13890  44.361  12.134   2.337
48730W        W13891  30.726  25.265   2.563
48731W        W13892  31.467  37.576   2.795
48732W        W13893  35.516   1.709  13.637
48733W        W13894  12.385  30.547  14.326
48734W        W13895  27.054  17.337   4.798
48735W        W13896  12.313  32.121   4.076
48736W        W13897   4.525  33.354  10.512
48737W        W13898  10.506  21.701  11.632
48738W        W13899  37.046  17.013  11.198
48739W        W13900   1.535  34.014  13.949
48740W        W13901  12.818  37.990  13.932
48741W        W13902  34.477   0.613   1.722
48742W        W13903   7.186  33.924   2.650
48743W        W13904   8.133  35.997  12.672
48744W        W13905  12.335  25.047  12.460
48745W        W13906  18.398  31.059   1.857
48746W        W13907  23.768  32.394   1.783
48747W        W13908  29.648  28.134   4.776
48748W        W13909  12.359  44.990  14.333
48749W        W13910  26.506  39.220  13.660
48750W        W13911  16.742   3.724   4.753
48751W        W13912  25.287  23.976  14.114
48752W        W13913   4.808   7.169  11.711
48753W        W13914  13.595   0.826  14.250
48754W        W13915  31.993   7.361  14.442
48755W        W13916  24.043   1.954   4.538
48756W        W13917  39.786   5.378  13.075
48757W        W13918  21.987  26.402  11.107
48758W        W13919  30.402  10.554  13.760
48759W        W13920   0.388  24.754   2.351
48760W        W13921  23.917  10.249  14.815
48761W        W13922   4.308   0.337  12.133
48762W        W13923  42.348  10.875   2.259
48763W        W13924  18.645   7.317  10.912
48764W        W13925  43.879  31.557  10.725
48765W        W13926   5.430   7.898  13.004
48766W        W13927   0.913  20.600   3.671
48767W        W13928  10.229  39.063   0.958
48768W        W13929  10.375   4.424   3.228
48769W        W13930  11.584   1.326  11.145
48770W        W13931   8.482  19.153  13.470
48771W        W13932  25.551  14.615  13.894
48772W        W13933  39.306  21.808   3.581
48773W        W13934  21.995   4.167  11.579
48774W        W13935  16.427  41.468   3.684
48775W        W13936  13.858   1.822  14.484
48776W        W13937  21.654  40.838   1.123
48777W        W13938  30.317  15.323  12.633
48778W        W13939  11.023   8.310   0.957
48779W        W13940  41.318  10.433   3.645
48780W        W13941   8.773   8.865   1.250
48781W        W13942  36.433  40.480  14.527
48782W        W13943  44.988   8.118  11.212
48783W        W13944   7.987  25.007  12.914
48784W        W13945  36.534   7.858   3.621
48785W        W13946  33.896   6.994  12.089
48786W        W13947  20.945  12.120   3.610
48787W        W13948  30.418  14.575  14.802
48788W        W13949  18.999   2.141  11.262
48789W        W13950  36.013  35.362  13.408
48790W        W13951  31.014   1.339  14.607
48791W        W13952  36.457  44.394  11.674
48792W        W13953   7.412  42.358  10.989
48793W        W13954   6.981  14.254  14.879
48794W        W13955  31.913   9.385   2.006
48795W        W13956  22.720  18.527   2.673
48796W        W13957   9.623   0.351  11.953
48797W        W13958  26.292  40.280  12.579
48798W        W13959   4.843  15.846  11.621
48799W        W13960  23.454  26.223   1.581
48800W        W13961   0.786  20.985   5.048
48801W        W13962  27.274  26.553  12.191
48802W        W13963  38.454  32.548   4.708
48803W        W13964   3.536  12.668   1.313
48804W        W13965  32.437  37.053  11.994
48805W        W13966  19.531   9.840  13.868
48806W        W13967  15.036  22.726   1.018
48807W        W13968  43.787  32.034   5.083
48808W        W13969  30.061  37.222  12.843
48809W        W13970  39.778  38.117   2.318
48810W        W13971  18.648  18.075  10.617
48811W        W13972  39.274  28.919  13.438
48812W        W13973   1.892  32.453   2.921
48813W        W13974   2.436  24.493  13.785
48814W        W13975  27.730  16.051  14.378
48815W        W13976   0.355  25.600   4.678
48816W        W13977  13.380   2.499  14.763
48817W        W13978  22.122  40.019  12.388
48818W        W13979  23.018  31.028  13.356
48819W        W13980  10.335   0.399   4.452
48820W        W13981  33.923  15.139   1.745
48821W        W13982  22.975  19.346  13.340
48822W        W13983  20.153  11.911   4.081
48823W        W13984  25.758   4.908   2.451
48824W        W13985  27.130  10.371  13.985
48825W        W13986  14.370  30.483  14.472
48826W        W13987  39.274  33.475  14.013
48827W        W13988  34.362   7.205  14.368
48828W        W13989  39.485   2.698  14.758
48829W        W13990  14.593  26.545  14.750
48830W        W13991  12.315   7.146  12.459
48831W        W13992  26.665  25.108  14.872
48832W        W13993  39.753  30.177   3.785
48833W        W13994  29.230  20.473   3.589
48834W        W13995  31.570  34.748   1.872
48835W        W13996  12.778  44.638   3.316
48836W        W13997  30.086  37.645  12.488
48837W        W13998  43.439  31.576   0.265
48838W        W13999  16.083   7.750  14.016
48839W        W14000  29.390   2.382   2.266
48840W        W14001  14.759  35.203  11.218
48841W        W14002  44.426  35.444   9.748
48842W        W14003  14.068  32.415  11.965
48843W        W14004   6.478   3.968   1.655
48844W        W14005  11.802  35.533  12.434
48845W        W14006  19.809  14.003  14.743
48846W        W14007  35.096  23.509   1.824
48847W        W14008  39.225  43.223   4.871
48848W        W14009  35.098  17.243   1.876
48849W        W14010  37.429  18.469   2.299
48850W        W14011  42.760   4.969  13.916
48851W        W14012  44.082  21.263   1.599
48852W        W14013   3.449   6.912  14.276
48853W        W14014   0.558  40.103  12.835
48854W        W14015  28.494  37.882  14.441
48855W        W14016   4.917  43.556   0.033
48856W        W14017  19.048  33.428   3.711
48857W        W14018  19.519  41.507  13.597
48858W        W14019  12.107  42.549   2.718
48859W        W14020   3.190  12.079  14.295
48860W        W14021  43.276  27.071   3.132
48861W        W14022  34.705   4.201   3.280
48862W        W14023   0.061  41.440   2.949
48863W        W14024   5.679  34.500   3.134
48864W        W14025   2.639  20.374  14.351
48865W        W14026   8.683  41.785   4.640
48866W        W14027  14.026   0.153  13.235
48867W        W14028   9.343  38.410  13.043
48868W        W14029  10.251   0.962  14.869
48869W        W14030  15.133   8.420  11.615
48870W        W14031  20.319  30.396   3.241
48871W        W14032  28.114  26.318   0.448
48872W        W14033  19.700  38.944   4.781
48873W        W14034  33.934  27.373  12.051
48874W        W14035  40.934  29.412   1.209
48875W        W14036  38.085  12.898  13.512
48876W        W14037  14.067  14.733   2.645
48877W        W14038  35.500  11.445  13.553
48878W        W14039  18.018  13.275   3.369
48879W        W14040  40.479  40.852   4.151
48880W        W14041  20.677  11.610  10.701
48881W        W14042  41.334  20.935  13.258
48882W        W14043  15.245   6.832  14.869
48883W        W14044  39.810  34.438   2.034
48884W        W14045  25.078  41.487   5.308
48885W        W14046  39.846  31.450   0.897
48886W        W14047   1.734  13.849   4.156
48887W        W14048  44.444  22.701   0.790
48888W        W14049  21.601  19.064  14.568
48889W        W14050  21.609  40.923  13.474
48890W        W14051  27.372  40.542   1.752
48891W        W14052   4.805  23.071   4.551
48892W        W14053  23.082  15.036  13.916
48893W        W14054  10.685   4.070  11.230
48894W        W14055  15.215  29.962  12.836
48895W        W14056  18.538  21.610  14.643
48896W        W14057  34.834   4.429  13.482
48897W        W14058  25.102  36.501   3.655
48898W        W14059  44.243  12.472  11.346
48899W        W14060  32.661  42.517  12.820
48900W        W14061  40.008  35.250   4.687
48901W        W14062  33.483  28.674   3.985
48902W        W14063  28.675  41.218   2.143
48903W        W14064  10.893  14.067   1.325
48904W        W14065  22.318  21.574  11.535
48905W        W14066  20.187  37.892  12.876
48906W        W14067  35.157   4.332   3.053
48907W        W14068  13.008  31.351  14.533
48908W        W14069  29.426  19.169  12.954
48909W        W14070   2.279  44.238   1.929
48910W        W14071  28.708  17.115   2.693
48911W        W14072   4.747  12.365  12.767
48912W        W14073  29.036  41.768   3.186
48913W        W14074   7.813  27.454  10.711
48914W        W14075   0.965  12.443   2.676
48915W        W14076   8.394  42.401   2.940
48916W        W14077  14.193  14.583   4.116
48917W        W14078   3.688  32.617  11.077
48918W        W14079  17.345  23.504   2.376
48919W        W14080  44.331  17.274   4.544
48920W        W14081  28.405   4.738   0.334
48921W        W14082   2.490  36.898   1.940
48922W        W14083  14.428  11.758  14.838
48923W        W14084  26.379  25.657  11.585
48924W        W14085  20.522  33.167  14.412
48925W        W14086  26.507  13.833  10.718
48926W        W14087  26.654  31.906  11.784
48927W        W14088  28.986   1.422  11.514
48928W        W14089   7.051  43.534  12.606
48929W        W14090  39.140  21.309   3.566
48930W        W14091  12.850  18.054  11.641
48931W        W14092  25.470  35.039  10.980
48932W        W14093  10.864   6.309  14.053
48933W        W14094  40.816  30.685  13.995
48934W        W14095  15.519  34.069  12.795
48935W        W14096  40.989  21.719  13.431
48936W        W14097  42.189   9.448  14.785
48937W        W14098  16.759  39.793  13.799
48938W        W14099  18.832  18.008  11.096
48939W        W14100  23.980  15.206   2.842
48940W        W14101  25.049   3.972  13.288
48941W        W14102  20.508  22.933  14.903
48942W        W14103  20.819  28.413   3.029
48943W        W14104  39.882  34.324  14.888
48944W        W14105  28.526  25.143   0.505
48945W        W14106  14.810  36.060   5.027
48946W        W14107   7.613  16.227   2.387
48947W        W14108  11.138  17.526  11.479
48948W        W14109  16.309  21.479  10.743
48949W        W14110  39.478  11.878   0.419
48950W        W14111  28.395  25.552   3.755
48951W        W14112   2.534  29.314   4.960
48952W        W14113  36.440  12.898  12.889
48953W        W14114  31.482  14.418  10.709
48954W        W14115  14.876  25.567  12.957
48955W        W14116   5.792  11.156  12.828
48956W        W14117   3.905   6.879  10.892
48957W        W14118  17.097  21.581  11.015
48958W        W14119   5.751  37.107   4.904
48959W        W14120  31.589  38.183  13.355
48960W        W14121   7.240  29.879   0.081
48961W        W14122   2.007  27.117  12.127
48962W        W14123   1.452   7.275  13.492
48963W        W14124  36.437  11.201   4.736
48964W        W14125  24.111  10.298   0.322
48965W        W14126  35.952   7.598  12.641
48966W        W14127   5.042  39.656   3.928
48967W        W14128  10.399  32.400  14.008
48968W        W14129   9.388  31.720   1.502
48969W        W14130   0.844  35.653  14.977
48970W        W14131  27.575   4.497   4.393
48971W        W14132   4.995  35.395  11.643
48972W        W14133  41.744  13.931  14.972
48973W        W14134  42.727  40.484   2.149
48974W        W14135  37.090  24.213  13.189
48975W        W14136  44.961   8.250   0.854
48976W        W14137  35.382   9.171   1.298
48977W        W14138  23.466  43.918  14.960
48978W        W14139  26.809   1.319  13.470
48979W        W14140   4.498  19.408  13.846
48980W        W14141  12.209  29.765   0.797
48981W        W14142  43.754  27.003   3.311
48982W        W14143  17.462   3.866   4.076
48983W        W14144   2.186  41.760  12.000
48984W        W14145  10.741   9.683  11.889
48985W        W14146  40.550  40.303   1.242
48986W        W14147  21.174  29.328  14.464
48987W        W14148   2.214  22.511   4.117
48988W        W14149  31.954  15.609  12.272
48989W        W14150  24.510  25.537  11.632
48990W        W14151   4.248  12.258   4.338
48991W        W14152  43.354  13.184   4.067
48992W        W14153  19.739  28.566   2.226
48993W        W14154   4.481  41.903   4.791
48994W        W14155   7.467  24.724   1.843
48995W        W14156  41.830   7.844   3.698
48996W        W14157  16.701  21.252  10.420
48997W        W14158  28.223  22.563  10.207
48998W        W14159   3.764  24.056   2.107
48999W        W14160  12.224  25.770  11.885
49000W        W14161  13.811  32.066  13.412
49001W        W14162  32.972  21.167   0.771
49002W        W14163  27.424  15.155  10.678
49003W        W14164  10.254   3.229  14.526
49004W        W14165  44.908  22.250   4.691
49005W        W14166   6.177  19.240   2.133
49006W        W14167   7.474  13.055   0.772
49007W        W14168  18.555  15.090   1.467
49008W        W14169  27.108   9.845  14.103
49009W        W14170  43.860  12.368  13.023
49010W        W14171   5.706   8.603  13.951
49011W        W14172  13.201  40.484   1.147
49012W        W14173  10.338  40.520  13.552
49013W        W14174  21.947  35.686  12.103
49014W        W14175  34.628   6.436  12.001
49015W        W14176   6.413  29.503  11.565
49016W        W14177  11.633  27.625  14.333
49017W        W14178  26.385  28.489   0.528
49018W        W14179  23.964  39.422  12.035
49019W        W14180  33.621  42.154   9.856
49020W        W14181  18.727  20.059  13.445
49021W        W14182  35.961  23.119   2.574
49022W        W14183  26.603  15.600   3.740
49023W        W14184  44.283   6.806   0.384
49024W        W14185  38.903  12.353   2.857
49025W        W14186  14.550  11.599  14.341
49026W        W14187   2.968  11.962   4.504
49027W        W14188  23.693  24.194   5.011
49028W        W14189  40.760  44.598   0.281
49029W        W14190  18.127  16.139   3.051
49030W        W14191  29.839  37.858  11.459
49031W        W14192  13.866  29.213  11.963
49032W        W14193  38.378   3.823  14.710
49033W        W14194  22.266   9.249   4.199
49034W        W14195  35.815   3.443  13.853
49035W        W14196  30.324   8.593   4.689
49036W        W14197  23.404  18.793  14.318
49037W        W14198   9.661  15.682  14.152
49038W        W14199   0.197  29.002   0.302
49039W        W14200  21.196  39.535  10.888
49040W        W14201   2.984  24.651   2.693
49041W        W14202   6.865  27.978  14.499
49042W        W14203  36.056  10.861   2.150
49043W        W14204   7.830  11.525   2.659
49044W        W14205  26.523  25.097  12.912
49045W        W14206  36.082  17.210  11.148
49046W        W14207  20.484   6.016  12.422
49047W        W14208   4.739  14.236   1.219
49048W        W14209  37.204  20.204   2.390
49049W        W14210  34.743  36.667  13.156
49050W        W14211  15.220  36.379   2.698
49051W        W14212  35.835  36.317   4.532
49052W        W14213   8.874   6.915   4.110
49053W        W14214  37.411   1.471   3.905
49054W        W14215  35.653   7.660  14.063
49055W        W14216  44.235   9.409   3.122
49056W        W14217  33.023  42.400  11.494
49057W        W14218  35.582  25.974  11.497
49058W        W14219  27.317  38.270   4.068
49059W        W14220  15.500   4.121   4.596
49060W        W14221   8.929  30.379  13.030
49061W        W14222  25.956  27.217  11.197
49062W        W14223   8.970  26.122  10.662
49063W        W14224  13.008   2.683  10.622
49064W        W14225  42.241  42.826   2.802
49065W        W14226  11.251  44.031   1.226
49066W        W14227  26.480  20.685   2.656
49067W        W14228  21.483   8.669   1.468
49068W        W14229  21.679   4.770  12.580
49069W        W14230  35.622  44.281   2.291
49070W        W14231  44.984  39.862  13.500
49071W        W14232  29.684   0.466   0.409
49072W        W14233  37.480  44.714  11.123
49073W        W14234  29.542  24.435   0.718
49074W        W14235  12.730  35.362   0.786
49075W        W14236  16.353  44.402   1.740
49076W        W14237  24.497  26.093   3.028
49077W        W14238  39.505  39.383   2.233
49078W        W14239   7.235  27.010  13.534
49079W        W14240  23.125  40.258   3.195
49080W        W14241  15.403  33.831  11.551
49081W        W14242  20.121  42.281  11.531
49082W        W14243  32.735  13.339   1.109
49083W        W14244  41.242  19.317   4.446
49084W        W14245   0.253  42.848  13.563
49085W        W14246   1.680  15.591  12.195
49086W        W14247  31.634  16.734   4.030
49087W        W14248   3.092   3.848   4.573
49088W        W14249   6.010   5.066   3.739
49089W        W14250  26.743  33.320   4.138
49090W        W14251  42.220  18.959   0.799
49091W        W14252  39.321  38.077   3.563
49092W        W14253  25.144   8.588   0.034
49093W        W14254  37.139   2.294  12.539
49094W        W14255  12.510  37.048  11.934
49095W        W14256  29.964  24.567  13.977
49096W        W14257  13.741   2.851  14.959
49097W        W14258  38.389  15.624   3.400
49098W        W14259  34.979  21.519   2.859
49099W        W14260  10.656  22.640   4.212
49100W        W14261  17.457  15.014  14.131
49101W        W14262   0.886   5.385  12.894
49102W        W14263  26.440  13.815  12.055
49103W        W14264  21.304  31.064  11.481
49104W        W14265   4.921  23.749   0.928
49105W        W14266  44.223  39.615  13.415
49106W        W14267   1.488  26.443   2.881
49107W        W14268   7.706  12.250   3.159
49108W        W14269  37.337  35.543   3.894
49109W        W14270  41.377   6.394  14.222
49110W        W14271  35.538  29.104   3.325
49111W        W14272  22.916  23.576   4.922
49112W        W14273  19.193  16.278  12.495
49113W        W14274  30.639  29.121   1.269
49114W        W14275  38.426  28.787  12.514
49115W        W14276   6.214  33.223   1.782
49116W        W14277  29.111  27.880   4.049
49117W        W14278  38.772   6.864   2.603
49118W        W14279   3.425  41.943   0.870
49119W        W14280  20.707  30.886  10.689
49120W        W14281   5.296  43.307   3.907
49121W        W14282  25.750  35.000   0.947
49122W        W14283  39.456  40.078   3.772
49123W        W14284  19.290  16.107  14.265
49124W        W14285  22.709  33.964   0.345
49125W        W14286   6.617   3.890   0.443
49126W        W14287  32.810  44.968  10.500
49127W        W14288  19.535  26.574   4.071
49128W        W14289  33.443   8.146   4.157
49129W        W14290  16.530  41.916   0.387
49130W        W14291   6.707  14.631   4.109
49131W        W14292   3.630  23.712   2.478
49132W        W14293  34.335   4.708  12.959
49133W        W14294  39.003  44.730   2.750
49134W        W14295  26.707  13.381  14.094
49135W        W14296  25.964   2.738  14.435
49136W        W14297  36.920  27.811  13.398
49137W        W14298  41.201  28.556  10.634
49138W        W14299  13.298  36.452  12.836
49139W        W14300  22.744  20.985   3.647
49140W        W14301  44.739  14.601  12.803
49141W        W14302  34.849  13.675  12.556
49142W        W14303  11.729  11.488   1.879
49143W        W14304   3.400   7.391   1.705
49144W        W14305  20.939  18.259  12.252
49145W        W14306   0.836  43.497  10.924
49146W        W14307   1.273  33.673   0.384
49147W        W14308   2.493   9.969  10.284
49148W        W14309  38.446  26.711  13.766
49149W        W14310   5.484  36.944  14.536
49150W        W14311  33.281  41.360  13.744
49151W        W14312  14.382  20.428   0.870
49152W        W14313  42.414  35.135   2.364
49153W        W14314  43.859  11.646   1.435
49154W        W14315  18.963  21.154   1.692
49155W        W14316  16.848  42.608  12.508
49156W        W14317  24.941  32.985   2.320
49157W        W14318  24.435  36.665  14.213
49158W        W14319  32.994  13.410   3.667
49159W        W14320  27.553  11.837  14.033
49160W        W14321  22.502  13.786   4.572
49161W        W14322  43.387  17.805  11.595
49162W        W14323   2.156  10.617  13.432
49163W        W14324  19.565   0.573  10.722
49164W        W14325  17.919   5.878   1.263
49165W        W14326  40.816  24.950   4.174
49166W        W14327   7.272  28.431   1.125
49167W        W14328  17.206  29.566  11.235
49168W        W14329  15.605  12.717   4.171
49169W        W14330  44.863  16.831  14.887
49170W        W14331   2.003   8.341   2.259
49171W        W14332   4.677  43.318   0.468
49172W        W14333   9.777  20.945   4.056
49173W        W14334   5.974  25.398   3.360
49174W        W14335   4.687   5.905  11.154
49175W        W14336  17.293  32.102  12.996
49176W        W14337  41.404  37.748  14.659
49177W        W14338  27.958  39.384  13.426
49178W        W14339  43.389  26.280  14.623
49179W        W14340  41.020  37.188   0.806
49180W        W14341  11.714  18.947  14.255
49181W        W14342  18.613  23.917   4.103
49182W        W14343  12.080   5.180   3.653
49183W        W14344  40.935  35.288   0.738
49184W        W14345  37.040  18.176  10.690
49185W        W14346  24.313   8.930  11.125
49186W        W14347  27.422   3.736   4.264
49187W        W14348  10.717  28.562  12.925
49188W        W14349  25.687  16.302   4.630
49189W        W14350   7.250  44.093   2.349
49190W        W14351  42.944  14.327   1.391
49191W        W14352  28.168  31.176  14.351
49192W        W14353  16.768   9.907   2.725
49193W        W14354  18.137  28.379  13.988
49194W        W14355   3.866   5.352   2.891
49195W        W14356  28.121  27.034   1.300
49196W        W14357  14.459   1.556   0.397
49197W        W14358  38.536  29.984   5.012
49198W        W14359  40.947   7.135   1.170
49199W        W14360  31.287  14.357   4.598
49200W        W14361  13.704  24.705   3.127
49201W        W14362  20.400   9.913  14.373
49202W        W14363   7.226  31.661   2.133
49203W        W14364  26.559  32.055   5.120
49204W        W14365  20.969  43.031  13.205
49205W        W14366  29.428  26.911  11.915
49206W        W14367  22.631  23.661  12.188
49207W        W14368  23.718  20.938  10.704
49208W        W14369  15.730  11.878   5.164
49209W        W14370  21.636  43.800  12.516
49210W        W14371  27.155  24.317   4.513
49211W        W14372  30.180  30.705  14.883
49212W        W14373  29.550  32.625  13.789
49213W        W14374  28.033  32.498   3.443
49214W        W14375  39.767  38.014  13.360
49215W        W14376  31.263  19.127   1.793
49216W        W14377   0.023  38.692  11.366
49217W        W14378  30.591   7.333   4.773
49218W        W14379  34.912  27.966  11.521
49219W        W14380   5.457  37.353   3.526
49220W        W14381  13.910  29.456   0.470
49221W        W14382  25.450  12.753  12.027
49222W        W14383  44.520  15.025  13.487
49223W        W14384  25.785  22.183   1.676
49224W        W14385   8.619   1.161   4.097
49225W        W14386   1.364  20.893  11.676
49226W        W14387  28.570  16.696  12.031
49227W        W14388  23.511  33.861   3.548
49228W        W14389  17.981  29.403   0.600
49229W        W14390  42.417  11.775  13.342
49230W        W14391  26.122  16.407   4.897
49231W        W14392  27.924  11.352  12.803
49232W        W14393  37.439   5.926  12.738
49233W        W14394   0.684  32.491   4.366
49234W        W14395  17.404  41.243   5.417
49235W        W14396  10.853  28.153  11.644
49236W        W14397  41.209  41.163  13.038
49237W        W14398  34.981  33.994   3.264
49238W        W14399   8.936  23.039   1.998
49239W        W14400  27.868  34.882   4.174
49240W        W14401  24.151  28.555  12.136
49241W        W14402  34.198  19.662  13.360
49242W        W14403  26.400  30.411  14.394
49243W        W14404   9.788  16.712  11.078
49244W        W14405   9.520  43.384   4.408
49245W        W14406  26.874  30.055   2.846
49246W        W14407  30.548  14.601   4.212
49247W        W14408  39.450  32.551   4.693
49248W        W14409   4.459  43.690   4.224
49249W        W14410  25.021   2.020   0.645
49250W        W14411  36.592  18.635   4.128
49251W        W14412   9.350  16.167  13.626
49252W        W14413  35.233  19.341  14.426
49253W        W14414  11.636  37.540   4.175
49254W        W14415  26.573   4.512   1.477
49255W        W14416  20.152  37.456  14.732
49256W        W14417  30.847  44.022  11.180
49257W        W14418  23.725  34.413   4.640
49258W        W14419   8.938  20.780   4.701
49259W        W14420  24.299   6.128  11.963
49260W        W14421   7.128  30.134   5.022
49261W        W14422  26.812  36.798   1.500
49262W        W14423   2.221  15.867  14.876
49263W        W14424   7.892  33.023   4.548
49264W        W14425  43.128  35.177  10.861
49265W        W14426   5.894  44.483   2.696
49266W        W14427  38.340  20.964   4.027
49267W        W14428  19.018  37.582   2.873
49268W        W14429  10.055   1.349   1.786
49269W        W14430  36.060   4.356   0.972
49270W        W14431  26.171  14.697   1.140
49271W        W14432  31.483  23.460  11.482
49272W        W14433  22.751  26.117   2.312
49273W        W14434  44.369  17.992   0.317
49274W        W14435  33.010  42.052  11.943
49275W        W14436   5.170  22.928   3.760
49276W        W14437  33.130  20.277  13.914
49277W        W14438  27.602  28.252   3.713
49278W        W14439  33.182  35.432  13.457
49279W        W14440   1.877  32.436   4.562
49280W        W14441  44.242  30.043   3.202
49281W        W14442  11.080  13.711   2.291
49282W        W14443  17.895  25.054   4.228
49283W        W14444  42.275  24.668   4.731
49284W        W14445  24.516  27.071  11.766
49285W        W14446  18.699   1.403   5.155
49286W        W14447  22.969  17.086  12.063
49287W        W14448  35.526  27.555   0.745
49288W        W14449  28.452   9.696   3.893
49289W        W14450  20.128  33.173  13.497
49290W        W14451  16.832  33.434  12.073
49291W        W14452  11.388  17.742   4.662
49292W        W14453  28.133  31.964  13.839
49293W        W14454  15.712  42.963   4.515
49294W        W14455  30.209  20.664  10.696
49295W        W14456   7.965  20.616  11.151
49296W        W14457  15.940  11.358   3.579
49297W        W14458  16.067  11.014   4.366
49298W        W14459  15.426   4.287  12.885
49299W        W14460  20.935  39.405  10.382
49300W        W14461  14.082  24.054  13.588
49301W        W14462  18.204  36.702   0.856
49302W        W14463  28.076   4.189   3.238
49303W        W14464  24.577  42.526  10.767
49304W        W14465  41.827  19.538   2.706
49305W        W14466  35.893  34.055   1.303
49306W        W14467  11.209  28.689  12.860
49307W        W14468  12.560   0.932  12.467
49308W        W14469  19.669  19.849   0.964
49309W        W14470   5.828   4.099  14.795
49310W        W14471  13.498  18.072   1.001
49311W        W14472  18.573  37.931  12.389
49312W        W14473  16.306   3.264  12.076
49313W        W14474  13.555  30.145  14.296
49314W        W14475   1.814   1.792   1.478
49315W        W14476   5.781  29.637  13.507
49316W        W14477   3.435   8.754  13.991
49317W        W14478  10.950   3.163   4.643
49318W        W14479  35.368  23.680   4.066
49319W        W14480   6.795  28.954   3.233
49320W        W14481  44.319  32.805  11.067
49321W        W14482  41.864  28.035   1.671
49322W        W14483  13.885  40.145   3.204
49323W        W14484   0.335   4.983  11.044
49324W        W14485  28.486  19.731  11.493
49325W        W14486  34.871  18.120   3.272
49326W        W14487  17.952  15.762   1.013
49327W        W14488  40.909  36.310  11.596
49328W        W14489  27.167  21.391  13.823
49329W        W14490  44.042  28.062  14.397
49330W        W14491  13.876  26.111   3.049
49331W        W14492  31.471  43.085  12.004
49332W        W14493  30.781  37.056   0.374
49333W        W14494  23.669   4.686   0.402
49334W        W14495  24.801  36.783  13.885
49335W        W14496   8.201  31.012  14.526
49336W        W14497  29.549   7.607   2.209
49337W        W14498  39.470  32.328  13.033
49338W        W14499  36.068  36.703  12.533
49339W        W14500  30.547  18.591   0.303
49340W        W14501  24.756  29.548   0.419
49341W        W14502  41.977  34.061  13.948
49342W        W14503  10.485  35.253   0.623
49343W        W14504   5.738  31.985  11.586
49344W        W14505  21.645  44.676   0.266
49345W        W14506  23.866  40.416   1.369
49346W        W14507  10.087  39.898   1.401
49347W        W14508  10.531  13.811  11.113
49348W        W14509  44.515   1.048   1.523
49349W        W14510   6.492   4.889   3.814
49350W        W14511  11.177   9.297  14.858
49351W        W14512  39.962   3.673   0.559
49352W        W14513  13.096  13.276  14.282
49353W        W14514  15.897  39.747  14.452
49354W        W14515   9.754  17.090  12.901
49355W        W14516  33.670  31.588   0.619
49356W        W14517  42.520  28.499   3.314
49357W        W14518  16.284  14.751   0.954
49358W        W14519  16.676  11.645   0.586
49359W        W14520  42.778  36.428  14.052
49360W        W14521  29.222  19.051  12.491
49361W        W14522  39.229  39.815   4.731
49362W        W14523  29.564  11.347   2.225
49363W        W14524  32.471  14.330   1.859
49364W        W14525  28.523  31.315  10.585
49365W        W14526  11.155   0.880   4.704
49366W        W14527  23.697   8.554  12.108
49367W        W14528  27.653  33.639  11.581
49368W        W14529  30.438  26.481   4.615
49369W        W14530  37.873  38.309   0.752
49370W        W14531  37.101  31.472   2.177
49371W        W14532  28.061  42.734  12.150
49372W        W14533  26.670   0.080  13.094
49373W        W14534   8.263  37.828   4.176
49374W        W14535   5.403  34.372  12.992
49375W        W14536  42.409  33.378  12.039
49376W        W14537  38.165  43.311  13.451
49377W        W14538   7.656  41.034   0.516
49378W        W14539  24.116  26.614  13.130
49379W        W14540  42.500   7.197  10.440
49380W        W14541  32.604  24.640  13.075
49381W        W14542  18.791  27.279  10.815
49382W        W14543  25.139  11.699  14.995
49383W        W14544  16.075  19.344   0.774
49384W        W14545  37.029  16.849   4.355
49385W        W14546  40.385  10.869   2.443
49386W        W14547  27.563  14.662  14.913
49387W        W14548   9.310  31.390   1.931
49388W        W14549  21.733  28.222   1.455
49389W        W14550  11.760  25.397   2.836
49390W        W14551   3.273  29.454  11.590
49391W        W14552  27.555  35.943   2.839
49392W        W14553  42.993   6.264   3.102
49393W        W14554  10.442  35.963   1.773
49394W        W14555  36.408  42.510   4.200
49395W        W14556   0.356  16.545  13.541
49396W        W14557  35.520  38.714   0.755
49397W        W14558  39.090  39.081  14.403
49398W        W14559  28.227  23.514   5.439
49399W        W14560  31.135  26.620   0.572
49400W        W14561  42.979   9.411   0.234
49401W        W14562   9.326   8.898   4.648
49402W        W14563  21.198  42.800  14.471
49403W        W14564  12.547  36.549   5.032
49404W        W14565  34.056   0.933   1.634
49405W        W14566   7.473  35.938   3.389
49406W        W14567   3.198  14.852   4.538
49407W        W14568  15.479  15.136  14.034
49408W        W14569   8.870  11.482  14.210
49409W        W14570  19.947  18.516   1.778
49410W        W14571   5.143   9.966   2.129
49411W        W14572  25.917  34.591  14.421
49412W        W14573  10.205  22.053   2.414
49413W        W14574  36.557   4.318   4.683
49414W        W14575  14.173  33.862   0.260
49415W        W14576  15.626  26.927   4.658
49416W        W14577  30.701   6.829  11.301
49417W        W14578  29.505  37.106   1.323
49418W        W14579   0.510  21.511   3.959
49419W        W14580  36.777  28.979  14.643
49420W        W14581  33.207  43.805  10.592
49421W        W14582   2.258  29.859  12.451
49422W        W14583  44.264   4.021   3.348
49423W        W14584  17.761  36.423   0.771
49424W        W14585  40.914  13.861   2.552
49425W        W14586  32.254  14.466  12.925
49426W        W14587   0.899  37.620  11.859
49427W        W14588   2.742  41.040  12.074
49428W        W14589  14.743   1.436   3.527
49429W        W14590  15.129  36.200   3.429
49430W        W14591   6.480  36.044  13.364
49431W        W14592  10.198  20.510  12.608
49432W        W14593  23.372  40.556   1.313
49433W        W14594  17.055  16.658  13.035
49434W        W14595  44.923  14.349   1.992
49435W        W14596  36.580  32.628   1.775
49436W        W14597  18.203   3.862   4.489
49437W        W14598  42.072  25.706  12.111
49438W        W14599  42.251  17.712   0.784
49439W        W14600  36.621  31.920   0.327
49440W        W14601  22.031  30.215   0.473
49441W        W14602  20.085  29.478  14.092
49442W        W14603   0.717  33.000   2.417
49443W        W14604   5.956   8.366   3.231
49444W        W14605   0.998  40.951   1.835
49445W        W14606   9.263  21.591   4.777
49446W        W14607  29.608  16.623  11.513
49447W        W14608  15.365  43.911   0.255
49448W        W14609  44.884  15.383  12.046
49449W        W14610  24.579  30.174   3.596
49450W        W14611  41.458  43.559  14.876
49451W        W14612   6.302  25.828   3.241
49452W        W14613  19.950  32.579   2.221
49453W        W14614  44.013  10.040  13.470
49454W        W14615  14.043   9.788  14.976
49455W        W14616   4.037  39.616   4.164
49456W        W14617  32.200  31.608  14.467
49457W        W14618  41.659  38.129  14.945
49458W        W14619  33.199  31.367  14.277
49459W        W14620  43.280   4.697   4.528
49460W        W14621  23.870  18.709   4.127
49461W        W14622   8.062  19.703  13.004
49462W        W14623  28.055  44.113  14.401
49463W        W14624  41.639  42.080   4.368
49464W        W14625  26.475  15.649  13.729
49465W        W14626  39.885  26.168   2.078
49466W        W14627   1.810  11.785  11.989
49467W        W14628  17.778   6.046   0.793
49468W        W14629  36.351  32.080   2.827
49469W        W14630  17.325  25.604  13.399
49470W        W14631  41.386  33.764  12.134
49471W        W14632  33.867  24.684  12.486
49472W        W14633   5.737  25.246   5.272
49473W        W14634   8.174  30.887   2.748
49474W        W14635   9.753  22.374  12.508
49475W        W14636  30.013  15.661   1.195
49476W        W14637  41.983   7.380  14.810
49477W        W14638  44.542   2.425   1.440
49478W        W14639  28.442  13.781   1.818
49479W        W14640  32.997  14.207   2.004
49480W        W14641  39.563  15.574  11.142
49481W        W14642   9.401  31.664   0.397
49482W        W14643  13.951  40.425  11.565
49483W        W14644   5.240  12.006   0.077
49484W        W14645  43.869  16.420  13.330
49485W        W14646   3.131   7.809   1.916
49486W        W14647  33.679   3.533  12.586
49487W        W14648  22.588  14.267  13.551
49488W        W14649  44.514  24.603  12.715
49489W        W14650  35.397  24.600   0.699
49490W        W14651   3.160  16.317   0.793
49491W        W14652  18.025   5.242  11.054
49492W        W14653  35.344  44.011  11.911
49493W        W14654   2.857  43.162  12.873
49494W        W14655  25.573  19.507  14.870
49495W        W14656  31.537  43.724   2.776
49496W        W14657   9.922  14.312  12.003
49497W        W14658  12.286   0.796  12.042
49498W        W14659   5.149  31.087  14.949
49499W        W14660  35.327  37.480  12.093
49500W        W14661  15.562   4.176   0.034
49501W        W14662   3.135  35.082  11.210
49502W        W14663   8.900  24.742  10.766
49503W        W14664  19.808   6.451  10.723
49504W        W14665  37.331  13.699   0.458
49505W        W14666  41.451  15.157  13.004
49506W        W14667  18.037  20.970  11.155
49507W        W14668  42.513  17.233  13.562
49508W        W14669  40.605  37.437   0.581
49509W        W14670  29.746  36.704  12.019
49510W        W14671  37.812  44.187   4.316
49511W        W14672  15.817  40.026   1.264
49512W        W14673  33.444   7.637  14.549
49513W        W14674  27.931  44.574   0.311
49514W        W14675   6.228  43.484   1.306
49515W        W14676   9.232  13.710   0.350
49516W        W14677  37.507  28.967  12.430
49517W        W14678  31.492  21.070   0.817
49518W        W14679  20.696  43.279   2.940
49519W        W14680  36.395  22.239  11.897
49520W        W14681  33.093  22.601  13.071
49521W        W14682  36.338  24.213   3.809
49522W        W14683  26.361   1.898  12.956
49523W        W14684  33.782   5.594   3.752
49524W        W14685   8.379   5.247  11.627
49525W        W14686  26.202  24.242  12.909
49526W        W14687  37.464  44.222  12.451
49527W        W14688  40.197  41.013   4.585
49528W        W14689  13.332  34.004   2.721
49529W        W14690   8.218  26.135  14.329
49530W        W14691  33.667  39.374   2.562
49531W        W14692  29.600  12.698   1.742
49532W        W14693  28.622  38.448  11.711
49533W        W14694  32.915  40.278   1.110
49534W        W14695   6.249  28.183   3.245
49535W        W14696  21.433  35.959  12.036
49536W        W14697  26.234  37.530  12.153
49537W        W14698  13.077  25.238  10.361
49538W        W14699  27.124  19.199   1.231
49539W        W14700  29.125  35.063   3.633
49540W        W14701  25.270   2.964  14.837
49541W        W14702  18.066  10.895   1.335
49542W        W14703  25.474  20.277  12.124
49543W        W14704  29.141  25.938   3.834
49544W        W14705   3.573   7.880   1.565
49545W        W14706  38.470  28.943  13.540
49546W        W14707  22.655   1.838   3.255
49547W        W14708  37.739  25.259   2.747
49548W        W14709  19.259  40.857  13.805
49549W        W14710  20.463  35.720  13.059
49550W        W14711  18.541  36.380   1.432
49551W        W14712  11.174   1.723  12.920
49552W        W14713  30.465  17.167  11.594
49553W        W14714  24.047  34.657   0.608
49554W        W14715  33.046  28.396  12.981
49555W        W14716  12.945  39.068  13.321
49556W        W14717  33.032   2.703  14.042
49557W        W14718  26.552  36.566  13.497
49558W        W14719  13.375   1.182  14.558
49559W        W14720   7.071  34.986  13.991
49560W        W14721  28.642  39.356  12.927
49561W        W14722  15.748   5.757  10.035
49562W        W14723  27.658  17.101  11.933
49563W        W14724  29.651   4.315  12.025
49564W        W14725   1.194  16.282  12.577
49565W        W14726  21.484   1.931   0.942
49566W        W14727  44.955  12.185  13.722
49567W        W14728   5.940  41.992   3.144
49568W        W14729  34.066  30.300  11.411
49569W        W14730  20.120   7.704  13.346
49570W        W14731  12.185  31.614   1.847
49571W        W14732   5.265  11.079   0.517
49572W        W14733  22.992  28.038   3.751
49573W        W14734   5.787  18.999  12.072
49574W        W14735   8.393  14.294  11.068
49575W        W14736  15.412  17.161   3.046
49576W        W14737  32.388  15.355  10.747
49577W        W14738  17.497  29.944   2.144
49578W        W14739  32.154  30.603   3.323
49579W        W14740  39.020  39.337   4.713
49580W        W14741  19.403  12.182  12.965
49581W        W14742  35.810  28.689   1.796
49582W        W14743   4.449  17.035  12.513
49583W        W14744  14.226  30.230   2.847
49584W        W14745  44.537  32.978   2.682
49585W        W14746  18.115  26.531  13.079
49586W        W14747   2.488  34.518  12.603
49587W        W14748  19.268  23.329  12.632
49588W        W14749  29.757   1.790  14.319
49589W        W14750  21.372  10.007  11.610
49590W        W14751  22.248  34.620  10.670
49591W        W14752   0.463  18.600  11.459
49592W        W14753   3.170  35.739  14.758
49593W        W14754  22.181  19.031  10.731
49594W        W14755  34.568  21.146   4.931
49595W        W14756   5.496  42.980   1.451
49596W        W14757  13.385  26.603   1.420
49597W        W14758  29.931   4.814   0.329
49598W        W14759  29.980   2.749  13.790
49599W        W14760  39.353  15.173   0.001
49600W        W14761   4.129   4.440  13.868
49601W        W14762  19.828  16.693  10.511
49602W        W14763  36.637  39.044   1.854
49603W        W14764  27.708  11.252   3.744
49604W        W14765  23.193  35.594   2.343
49605W        W14766  14.961   2.252   3.293
49606W        W14767  30.448   7.355  11.319
49607W        W14768   0.835   9.133  11.113
49608W        W14769  15.585  17.308   3.876
49609W        W14770  20.606   8.074  12.481
49610W        W14771  44.873   0.300  14.503
49611W        W14772  39.636  23.077  12.110
49612W        W14773  20.123  22.703   4.457
49613W        W14774   7.745  14.992  13.519
49614W        W14775   0.092   1.747  13.212
49615W        W14776  36.324  21.263   5.163
49616W        W14777  11.568  38.648  13.327
49617W        W14778  12.247  15.981   3.284
49618W        W14779  19.568  43.968   3.360
49619W        W14780   0.539   4.673  14.532
49620W        W14781   9.300  38.176  14.768
49621W        W14782  43.945   2.398   1.215
49622W        W14783  17.048   8.890   0.772
49623W        W14784  20.790   5.305   2.274
49624W        W14785  34.610  11.356   2.179
49625W        W14786  29.439  44.467   0.480
49626W        W14787  38.049  44.323   2.894
49627W        W14788   4.264   3.949   2.442
49628W        W14789   7.822  11.839  12.571
49629W        W14790  21.061  43.734  11.648
49630W        W14791  26.930  44.938  11.544
49631W        W14792  17.091  30.549  11.102
49632W        W14793  30.768  30.016   3.840
49633W        W14794  42.366  30.986  12.075
49634W        W14795  11.747  39.500  14.529
49635W        W14796  41.072  19.588   3.205
49636W        W14797  38.599   0.498   2.435
49637W        W14798  38.773  40.841  10.567
49638W        W14799  38.640  13.558   1.219
49639W        W14800  10.168  14.639  13.138
49640W        W14801   9.016  21.191  14.488
49641W        W14802  35.488   3.885  14.786
49642W        W14803   2.546   5.204  12.074
49643W        W14804  18.565  36.533  12.141
49644W        W14805   7.196   0.473  12.654
49645W        W14806  42.550   2.028  12.489
49646W        W14807  42.916  34.004  14.062
49647W        W14808  44.561  37.081  13.554
49648W        W14809  16.381  37.462   3.704
49649W        W14810  32.809  14.619  10.655
49650W        W14811  39.947  19.416  12.922
49651W        W14812  33.023  29.571   2.488
49652W        W14813  22.795   2.794  12.599
49653W        W14814  36.029  44.818   3.166
49654W        W14815  17.333  21.183   2.923
49655W        W14816  35.938  40.299  14.902
49656W        W14817  15.633  30.212   1.234
49657W        W14818  38.792   2.417   1.270
49658W        W14819  16.300  12.058  11.566
49659W        W14820  20.940  16.856   0.815
49660W        W14821   9.186  31.612   2.377
49661W        W14822  18.551  30.144  11.139
49662W        W14823   2.778  33.617   2.368
49663W        W14824  15.637  35.799   0.799
49664W        W14825  41.553   4.202  11.627
49665W        W14826  28.651  40.233  11.198
49666W        W14827  26.542  36.609  10.780
49667W        W14828  26.693  20.105   1.152
49668W        W14829  44.411  42.942   1.500
49669W        W14830  26.224  43.407   4.707
49670W        W14831  17.699   5.947   3.607
49671W        W14832  42.063  20.713  13.808
49672W        W14833  31.487  16.394  12.264
49673W        W14834  15.853   3.305   2.691
49674W        W14835  19.516  27.427   0.849
49675W        W14836   5.207   0.880  11.964
49676W        W14837  35.525  21.037   0.792
49677W        W14838  26.742  30.954   1.869
49678W        W14839  28.911  14.987   3.459
49679W        W14840  32.781  42.629   4.984
49680W        W14841  18.539  21.412   0.689
49681W        W14842  28.107   7.760   0.637
49682W        W14843  26.429  28.222  13.890
49683W        W14844  39.889  12.481   4.021
49684W        W14845  22.973  43.942  14.785
49685W        W14846  44.864  17.053   2.793
49686W        W14847  25.226   2.555  13.976
49687W        W14848  11.633   9.373  13.928
49688W        W14849  27.750  31.028  13.199
49689W        W14850   2.247   1.390  11.885
49690W        W14851   0.974   0.928   1.483
49691W        W14852  40.401  37.983   2.768
49692W        W14853   3.406  42.988  14.435
49693W        W14854  27.922   5.243   1.466
49694W        W14855   3.692  17.724   0.486
49695W        W14856  20.892   6.820   1.738
49696W        W14857  24.289   7.832  12.943
49697W        W14858  39.476  32.030  12.349
49698W        W14859   1.677  22.194  10.598
49699W        W14860   9.753  33.615   3.112
49700W        W14861  41.769   1.811   3.725
49701W        W14862  39.390  24.586  14.522
49702W        W14863  24.575  36.124   3.685
49703W        W14864  38.301  22.718   4.838
49704W        W14865  18.712  18.755  10.652
49705W        W14866   3.861  32.057   3.299
49706W        W14867  33.995  18.846   3.244
49707W        W14868  29.177  20.297   4.131
49708W        W14869   5.530  44.858  10.672
49709W        W14870  16.179  31.854   2.777
49710W        W14871  25.598  13.093   2.694
49711W        W14872  17.814  33.874  13.971
49712W        W14873  16.175   1.768  14.313
49713W        W14874  27.433   2.622  13.863
49714W        W14875  39.976  26.492   0.812
49715W        W14876  43.964  33.864   3.360
49716W        W14877  10.728  27.853  14.843
49717W        W14878  16.120  12.057   4.293
49718W        W14879  22.537  14.397   2.258
49719W        W14880  31.205  38.072   1.045
49720W        W14881  37.019   0.469  10.567
49721W        W14882  38.337   6.867   0.834
49722W        W14883  27.433  41.719   2.232
49723W        W14884  19.572  37.102  11.503
49724W        W14885  24.530  27.251   1.823
49725W        W14886  10.164  42.538  10.315
49726W        W14887  31.008  44.982   3.911
49727W        W14888  21.438  32.847  14.571
49728W        W14889  11.819   9.449   3.660
49729W        W14890  40.324  12.613   4.699
49730W        W14891  29.975  34.019  11.684
49731W        W14892  34.432  12.042  11.592
49732W        W14893   7.041  22.874  13.586
49733W        W14894  36.415  26.695   3.813
49734W        W14895   0.751   0.722   2.443
49735W        W14896  29.483  16.411  10.699
49736W        W14897   2.312  22.442  10.659
49737W        W14898   1.913  24.610   0.182
49738W        W14899   5.148  18.204   0.355
49739W        W14900  25.607  41.059   4.274
49740W        W14901  23.179   7.135  11.933
49741W        W14902  12.179  21.214   1.947
49742W        W14903  15.509  28.941  10.722
49743W        W14904  21.853  19.497  10.218
49744W        W14905  38.471  16.764   1.772
49745W        W14906   5.728  21.664  10.967
49746W        W14907   0.372  30.355   0.787
49747W        W14908  39.294  35.062  13.375
49748W        W14909  19.160   0.432  13.362
49749W        W14910  13.651  36.867  11.351
49750W        W14911  18.082  13.735  12.173
49751W        W14912  20.305  38.787   0.396
49752W        W14913  17.006   0.243   1.853
49753W        W14914  28.981  26.874  10.666
49754W        W14915  31.969  23.819  11.021
49755W        W14916  43.240  36.552   2.651
49756W        W14917  21.123   1.279   3.491
49757W        W14918  35.130  13.168   4.717
49758W        W14919   6.774  17.671  10.564
49759W        W14920  35.814  39.735  13.989
49760W        W14921  34.158  40.611   4.892
49761W        W14922  19.502  13.594  14.817
49762W        W14923  44.561   6.355   0.455
49763W        W14924   8.413  10.641  13.415
49764W        W14925  43.487   6.966   4.317
49765W        W14926  17.975  25.998   1.264
49766W        W14927  19.701   3.677  14.890
49767W        W14928  35.227   0.294   3.677
49768W        W14929  11.787  26.978   4.152
49769W        W14930  14.697  27.677   1.310
49770W        W14931   3.160  33.864  12.515
49771W        W14932  42.511  42.379   0.796
49772W        W14933  36.726  17.457  11.185
49773W        W14934   0.681  13.735  13.839
49774W        W14935   3.187  38.510  13.444
49775W        W14936   1.069   4.634  12.095
49776W        W14937   3.313  31.383   0.390
49777W        W14938  23.158  36.065  10.662
49778W        W14939  33.140   2.556   2.789
49779W        W14940   9.159  29.007  14.892
49780W        W14941  32.992  26.605   1.106
49781W        W14942  14.248  13.277  13.283
49782W        W14943   4.761   8.611  14.871
49783W        W14944  39.027  22.047   1.836
49784W        W14945   1.540  21.277   4.134
49785W        W14946  17.981   0.516   3.409
49786W        W14947  44.015  19.213  13.362
49787W        W14948  36.343  44.764  12.934
49788W        W14949  23.595  14.624   4.121
49789W        W14950  12.839  31.217  12.854
49790W        W14951  21.765   6.247   3.237
49791W        W14952   2.190  31.548   2.501
49792W        W14953  36.160   0.504  14.614
49793W        W14954  22.229  27.011  14.321
49794W        W14955  26.637  42.040   4.805
49795W        W14956  23.132  33.468   2.476
49796W        W14957  38.519  37.577   0.439
49797W        W14958   3.839   9.754  10.184
49798W        W14959   5.195  33.908  13.089
49799W        W14960  38.952  10.910   4.003
49800W        W14961  25.979  19.393  12.153
49801W        W14962  36.714   6.760   1.925
49802W        W14963   0.475  16.157   2.879
49803W        W14964  29.931  37.425   0.470
49804W        W14965  26.774  18.654   0.813
49805W        W14966  27.763   8.791  11.163
49806W        W14967  11.655  18.003  14.450
49807W        W14968  38.644   2.382  11.440
49808W        W14969  30.869  34.916   1.430
49809W        W14970  42.017   0.492  11.134
49810W        W14971  18.627  37.821  14.748
49811W        W14972  41.944  28.091   4.570
49812W        W14973  38.277   6.761   2.790
49813W        W14974  16.063  10.792  14.735
49814W        W14975   1.707  37.104  13.429
49815W        W14976  23.969  37.274   0.230
49816W        W14977  13.134  41.417  13.362
49817W        W14978  17.623  21.979  13.823
49818W        W14979   5.645  24.199   0.789
49819W        W14980  22.978  40.171   4.088
49820W        W14981   5.731  40.916   0.923
49821W        W14982   8.392  12.804   2.778
49822W        W14983  20.662  27.248  13.027
49823W        W14984  11.579   0.147   4.247
49824W        W14985   3.913  10.131   2.758
49825W        W14986  36.543   2.497   3.665
49826W        W14987   5.848  24.554   3.109
49827W        W14988  17.760   1.276   2.729
49828W        W14989  27.022  27.495   2.710
49829W        W14990  12.376  25.763   1.780
49830W        W14991  40.728  18.625  13.871
49831W        W14992   0.836  21.050  13.786
49832W        W14993  41.453  33.135   1.216
49833W        W14994  33.235  24.735   3.317
49834W        W14995  19.968   6.911  12.606
49835W        W14996  36.890  11.420   3.528
49836W        W14997  40.314  27.901   0.843
49837W        W14998  32.806  25.075   2.449
49838W        W14999   3.178   4.408  12.424
49839W        W15000   6.820   1.702   1.579
49840W        W15001  33.347   9.991   2.319
49841W        W15002  15.593  29.061   1.813
49842W        W15003  11.318  13.374  13.356
49843W        W15004  43.723  25.988   4.224
49844W        W15005   0.900  20.822  11.062
49845W        W15006  14.821   2.451  11.735
49846W        W15007   1.724  23.523   3.702
49847W        W15008  23.128  43.870  11.021
49848W        W15009  44.244  44.642  11.394
49849W        W15010   5.271  20.003  11.026
49850W        W15011  26.344  28.077   4.204
49851W        W15012  30.863  11.373   4.107
49852W        W15013   0.468  21.118  11.069
49853W        W15014   6.910  10.644   2.134
49854W        W15015  16.164  34.445   0.422
49855W        W15016   7.711   3.373  12.953
49856W        W15017  16.831  38.072  11.117
49857W        W15018   1.981  29.594  12.838
49858W        W15019   5.680   6.199   3.255
49859W        W15020   6.133   0.755  12.405
49860W        W15021  17.092   8.244  14.359
49861W        W15022  16.286  18.289   2.061
49862W        W15023  38.466  42.868   3.399
49863W        W15024  42.385  38.742   2.252
49864W        W15025  26.429  14.711  10.319
49865W        W15026  12.971  14.656  14.354
49866W        W15027  18.136  21.269   0.363
49867W        W15028  20.531  11.542   2.666
49868W        W15029  21.660  41.302   0.721
49869W        W15030   3.202  28.864   0.396
49870W        W15031  39.386  24.982  14.885
49871W        W15032  43.519  19.129  12.377
49872W        W15033  26.587  36.076   3.739
49873W        W15034  10.627  39.951   1.419
49874W        W15035  42.717  27.189   4.900
49875W        W15036  32.506  17.266  14.968
49876W        W15037   8.797  33.771  11.477
49877W        W15038   3.222  39.048   1.301
49878W        W15039  23.956   9.236   1.262
49879W        W15040  35.350  25.488   4.074
49880W        W15041  31.048   1.019   2.779
49881W        W15042  41.071   0.546   4.585
49882W        W15043  39.565  11.222  14.432
49883W        W15044  33.966  42.967   0.247
49884W        W15045  43.562  13.914  12.485
49885W        W15046  20.555  13.298  13.066
49886W        W15047  36.069  13.381   3.690
49887W        W15048  20.207  31.887  14.047
49888W        W15049  25.525  13.944  13.442
49889W        W15050  29.378   1.742   0.861
49890W        W15051  28.156  35.807  12.505
49891W        W15052  32.672   3.624   1.656
49892W        W15053  40.087  17.568   2.669
49893W        W15054  10.305   7.384  14.489
49894W        W15055  28.967  26.343  11.460
49895W        W15056   8.570  23.909   1.745
49896W        W15057  22.001   9.005   2.904
49897W        W15058   0.904  14.986  14.523
49898W        W15059  23.200  31.382  12.424
49899W        W15060  24.156   1.392   2.353
49900W        W15061  43.837  39.548   3.671
49901W        W15062  40.570  32.891   2.280
49902W        W15063   0.567  23.136  14.943
49903W        W15064  30.705  19.154   2.596
49904W        W15065  33.466  13.915   3.673
49905W        W15066  10.105  19.023   0.328
49906W        W15067  21.989  10.162  13.898
49907W        W15068   7.423  25.482  11.189
49908W        W15069  11.559  15.724   5.020
49909W        W15070  10.182  15.093   0.862
49910W        W15071  28.463  15.156   1.901
49911W        W15072   3.213   0.416   1.226
49912W        W15073  11.742   6.192   1.340
49913W        W15074  41.032  31.587   2.778
49914W        W15075  24.056  43.052  13.404
49915W        W15076  44.087  18.520  10.346
49916W        W15077  38.609   9.616  13.896
49917W        W15078   2.341  18.721   3.136
49918W        W15079  33.109  27.046  12.542
49919W        W15080  35.281  19.554   3.274
49920W        W15081  11.284   5.806  12.603
49921W        W15082  31.037  20.427  12.495
49922W        W15083  38.337   7.691  14.378
49923W        W15084  16.510  24.228  13.333
49924W        W15085   2.304  36.800  11.520
49925W        W15086  26.524   4.961  11.565
49926W        W15087  26.563   9.433   0.278
49927W        W15088  34.822  36.349  10.163
49928W        W15089  16.277  42.406   3.181
49929W        W15090  13.735   4.258   1.763
49930W        W15091  10.237   9.706   1.321
49931W        W15092  31.027  19.370  14.391
49932W        W15093  32.866  23.634  13.993
49933W        W15094  11.290   8.785   0.225
49934W        W15095  37.957  16.249   2.351
49935W        W15096  29.552  32.638  10.713
49936W        W15097  21.206  35.492  12.038
49937W        W15098   1.319  44.955   1.256
49938W        W15099   3.091  10.772  12.474
49939W        W15100  43.064  43.499   2.174
49940W        W15101  30.521   7.028   3.596
49941W        W15102  18.548  36.841  10.581
49942W        W15103  37.850  44.775  13.908
49943W        W15104  27.441  19.044  12.891
49944W        W15105  34.488   1.371   2.829
49945W        W15106  24.521  43.829   4.571
49946W        W15107  16.569  10.389  14.497
49947W        W15108  40.966  19.528   1.799
49948W        W15109  22.792  15.134  12.076
49949W        W15110  15.408  39.581  14.430
49950W        W15111  33.348  33.368  13.039
49951W        W15112  44.460  15.081  12.053
49952W        W15113   7.408  34.060   2.179
49953W        W15114  22.039   4.447   3.615
49954W        W15115  36.479   5.120   1.267
49955W        W15116  17.338  31.896  11.635
49956W        W15117  44.858   3.435   4.536
49957W        W15118  29.054  12.265  12.855
49958W        W15119   3.137   5.462  13.231
49959W        W15120   2.609  26.963  11.431
49960W        W15121  38.118  30.891  13.007
49961W        W15122  37.566  32.923  12.115
49962W        W15123  13.239   5.288   0.252
49963W        W15124  36.667  25.836  11.630
49964W        W15125  27.446  36.472  11.628
49965W        W15126  19.022  23.023   1.405
49966W        W15127  44.420  43.288   1.905
49967W        W15128  38.758   1.551   1.890
49968W        W15129  11.198  25.723  14.381
49969W        W15130  18.331  29.175  11.470
49970W        W15131  38.176  42.315   4.503
49971W        W15132  29.875  10.889   2.433
49972W        W15133  28.942   7.576   1.846
49973W        W15134  16.383  15.028   0.265
49974W        W15135  29.227  29.140  12.556
49975W        W15136   7.184  36.180   4.330
49976W        W15137   5.776  38.053   2.776
49977W        W15138   0.730  15.589   4.169
49978W        W15139  14.462  39.977  13.924
49979W        W15140  27.513  41.768   0.946
49980W        W15141  39.805  20.412   4.158
49981W        W15142   6.740  26.209  13.592
49982W        W15143  37.395  10.777  14.969
49983W        W15144  11.333  17.741  13.720
49984W        W15145  10.177  34.073   2.679
49985W        W15146  19.220  18.633   3.989
49986W        W15147   8.506  35.963   1.050
49987W        W15148  36.192   3.844  10.643
49988W        W15149  11.841  11.726  10.350
49989W        W15150  35.948   9.125  11.205
49990W        W15151  15.104  26.534  10.464
49991W        W15152  12.776  18.612  11.468
49992W        W15153  38.998  20.510  10.681
49993W        W15154  13.727  37.606   3.941
49994W        W15155  23.230  44.288   1.668
49995W        W15156  32.336  27.435  12.326
49996W        W15157  29.669   7.142   1.212
49997W        W15158  27.127  27.219   2.247
49998W        W15159  13.645  42.497  13.175
49999W        W15160   7.306  20.495   0.411
50000W        W15161  23.892  28.167  11.525
50001W        W15162  34.381   5.768  14.269
50002W        W15163  28.097  27.155  12.045
50003W        W15164  35.416  33.072   4.449
50004W        W15165  34.573  41.217   0.282
50005W        W15166   9.657  21.108  10.901
50006W        W15167  42.891   8.933  12.134
50007W        W15168  41.932   2.776  14.254
50008W        W15169  10.304   7.581   3.735
50009W        W15170  31.029  41.294   1.261
50010W        W15171  27.452  36.261   0.980
50011W        W15172  19.856  30.844  12.447
50012W        W15173  29.401  24.099  12.719
50013W        W15174  38.418  34.095   3.217
50014W        W15175  44.284  14.748  13.052
50015W        W15176  26.425  15.200   1.713
50016W        W15177  24.001  21.893  14.130
50017W        W15178  31.099  29.602  10.789
50018W        W15179  10.552   7.127   3.690
50019W        W15180  16.222  19.593  12.976
50020W        W15181  38.880  22.667   3.557
50021W        W15182  10.695  16.261  12.410
50022W        W15183  23.004  29.066  14.324
50023W        W15184  17.633  37.136  11.982
50024W        W15185  37.770   2.353   2.128
50025W        W15186  16.010  10.711  11.872
50026W        W15187  12.732   5.117   3.335
50027W        W15188   7.311  32.560  13.837
50028W        W15189  12.908  32.634   3.302
50029W        W15190  28.786  14.890  12.291
50030W        W15191  33.381  44.249  10.761
50031W        W15192  21.774  28.198   0.943
50032W        W15193  17.027   3.547  14.894
50033W        W15194   8.363   1.176  12.432
50034W        W15195   6.796  12.820   0.776
50035W        W15196  11.758   0.434  10.765
50036W        W15197  39.460   1.834  12.139
50037W        W15198  44.952  24.990   4.937
50038W        W15199  12.224  22.060  11.568
50039W        W15200  26.884   4.263   0.506
50040W        W15201  30.259  12.251  13.538
50041W        W15202  24.273  33.247   0.505
50042W        W15203  11.837   9.636  14.401
50043W        W15204  14.520  42.996  10.317
50044W        W15205   4.863  15.222  14.842
50045W        W15206   4.368  31.878   4.175
50046W        W15207  21.246   3.878   2.719
50047W        W15208  33.926  12.579  11.473
50048W        W15209   8.613  11.674  13.808
50049W        W15210   9.300   3.519   0.241
50050W        W15211  16.189  36.641  12.518
50051W        W15212   5.684  25.987   0.404
50052W        W15213   8.613   2.404   5.490
50053W        W15214   2.786  24.999  10.407
50054W        W15215   0.071  42.543   0.906
50055W        W15216  35.757  31.100   4.816
50056W        W15217  34.401  21.139   3.585
50057W        W15218  21.006  39.845   1.390
50058W        W15219  14.540   5.382  13.995
50059W        W15220  19.614  19.582  13.585
50060W        W15221  15.711  34.907   4.987
50061W        W15222  22.982  24.225  14.898
50062W        W15223  22.640  31.485  10.602
50063W        W15224  28.052  39.921   4.087
50064W        W15225  42.344   6.686  13.946
50065W        W15226  18.230  36.528  13.743
50066W        W15227  31.510  16.554  14.062
50067W        W15228  26.120   9.985  12.035
50068W        W15229   6.511  20.590  11.493
50069W        W15230  28.238  32.809   2.652
50070W        W15231  11.047  17.375   0.354
50071W        W15232   3.776  40.464   2.169
50072W        W15233  12.502  23.364  12.866
50073W        W15234  35.035  40.289   1.539
50074W        W15235  20.788   4.337   2.180
50075W        W15236  23.722  15.098  14.740
50076W        W15237  21.276  15.377  13.688
50077W        W15238   2.246  15.398  10.009
50078W        W15239  30.085  10.314  12.259
50079W        W15240  39.383   8.810   0.037
50080W        W15241  22.984  11.139   0.222
50081W        W15242  27.633  30.773   4.579
50082W        W15243   3.287  38.522   2.409
50083W        W15244  42.555  35.569   2.142
50084W        W15245  40.520  40.578  11.470
50085W        W15246  23.200  39.853  11.084
50086W        W15247  27.600  17.137  11.417
50087W        W15248  13.678   8.274   4.202
50088W        W15249  35.865  38.749   3.725
50089W        W15250  43.601  40.774   4.429
50090W        W15251  11.721  15.761   3.639
50091W        W15252  25.659  25.188   4.503
50092W        W15253  21.683  24.529   3.133
50093W        W15254  12.548  23.657   0.835
50094W        W15255  37.358  31.534  13.780
50095W        W15256  33.966  33.006   3.291
50096W        W15257  26.582  11.015  12.255
50097W        W15258   3.293   5.107   1.242
50098W        W15259   9.156   5.845  12.725
50099W        W15260  26.934  22.003  14.817
50100W        W15261  26.905   1.552  12.426
50101W        W15262  13.745  40.081   3.733
50102W        W15263   8.299  19.263  11.225
50103W        W15264  11.328   7.627   4.678
50104W        W15265  40.335  37.337   3.254
50105W        W15266  19.543   4.169   4.648
50106W        W15267  25.092  23.052  13.666
50107W        W15268  23.868  40.004   3.696
50108W        W15269  17.144  38.055   4.264
50109W        W15270   2.164  44.029  11.169
50110W        W15271   4.889  31.860   4.550
50111W        W15272   3.949  18.264   3.651
50112W        W15273  15.827  23.724   2.826
50113W        W15274  40.951   6.509  12.460
50114W        W15275   2.529   3.743  14.728
50115W        W15276  11.198  22.071  10.572
50116W        W15277  26.474  25.913   0.795
50117W        W15278  33.591  12.759   3.781
50118W        W15279  10.131   0.225  10.232
50119W        W15280   2.432  41.297   1.931
50120W        W15281  36.550  40.447  12.970
50121W        W15282   5.272  38.327  13.761
50122W        W15283  14.704   0.231  11.549
50123W        W15284   8.841   6.743   1.767
50124W        W15285  37.093   7.897   5.030
50125W        W15286  30.001  41.121   2.279
50126W        W15287  28.390  24.597   4.906
50127W        W15288   5.753  43.980  13.088
50128W        W15289  10.469  24.086  13.461
50129W        W15290  23.601  37.649  14.028
50130W        W15291  14.562   3.315  10.186
50131W        W15292  30.728  20.994  13.357
50132W        W15293  21.235  38.434  11.826
50133W        W15294  17.694   5.245   0.356
50134W        W15295  36.399  25.535  14.454
50135W        W15296   8.806  16.644  10.624
50136W        W15297  30.465  39.804  14.361
50137W        W15298  22.831  20.641  11.720
50138W        W15299  11.375   4.751  12.033
50139W        W15300   9.870   4.023  14.465
50140W        W15301  38.063  36.664   3.321
50141W        W15302   1.879  11.438   2.788
50142W        W15303   8.535  31.898   0.684
50143W        W15304  24.146  35.808   5.012
50144W        W15305  38.470  42.273  11.906
50145W        W15306  28.025  33.869   0.034
50146W        W15307   4.422  35.738  12.917
50147W        W15308  42.982   8.086   3.177
50148W        W15309  29.289  24.609   3.053
50149W        W15310  37.984  34.404  13.946
50150W        W15311   3.968  37.424   0.787
50151W        W15312  13.760  39.857  12.817
50152W        W15313  12.811  37.186  13.496
50153W        W15314  38.216   3.735   3.281
50154W        W15315  34.934  15.141  11.254
50155W        W15316  34.142  13.039  12.911
50156W        W15317  28.096  34.019  10.956
50157W        W15318  14.136   3.202   1.118
50158W        W15319  21.000  38.675   4.678
50159W        W15320  38.016   2.069   4.283
50160W        W15321   7.352  29.566  11.378
50161W        W15322   2.541   1.729  12.176
50162W        W15323  24.933  28.053   4.176
50163W        W15324  36.176  28.952  13.521
50164W        W15325  19.217  20.166   3.317
50165W        W15326  19.708  19.459  14.569
50166W        W15327  12.542  40.646   3.507
50167W        W15328   8.640   6.907   2.317
50168W        W15329  42.758  16.157   0.839
50169W        W15330  44.365  26.660   0.029
50170W        W15331   5.415  29.981   4.487
50171W        W15332  17.804  18.955  13.732
50172W        W15333  25.297  40.292  13.123
50173W        W15334  14.982  43.962  10.704
50174W        W15335  29.665  44.963   2.327
50175W        W15336  15.222   2.931  10.619
50176W        W15337  26.203  41.349  14.754
50177W        W15338  29.557  12.644   0.839
50178W        W15339  35.787  36.020   3.277
50179W        W15340   7.964  36.103   3.293
50180W        W15341  36.384  19.434  11.184
50181W        W15342  42.468  35.572   4.205
50182W        W15343   7.627   4.240   2.859
50183W        W15344  26.685  25.426   2.892
50184W        W15345  15.897   7.706  12.428
50185W        W15346  13.713  10.408  12.586
50186W        W15347  24.518  43.325   3.353
50187W        W15348  31.038  12.066   2.824
50188W        W15349  34.634  13.164   4.552
50189W        W15350  18.521  12.710  13.038
50190W        W15351  28.506  37.021   3.661
50191W        W15352  30.322  16.806   2.929
50192W        W15353  25.354  18.252   2.120
50193W        W15354  34.035  37.528   5.469
50194W        W15355  35.622  19.505  11.667
50195W        W15356  43.957  44.558  13.816
50196W        W15357  30.347  12.197   2.242
50197W        W15358   9.489  19.922   3.887
50198W        W15359  12.207  15.292   0.904
50199W        W15360  13.897   7.430   3.142
50200W        W15361  38.985  12.782  13.245
50201W        W15362   1.213  12.683  12.007
50202W        W15363  17.190   9.219   2.302
50203W        W15364  31.455  40.944   3.940
50204W        W15365  12.113  13.200   0.436
50205W        W15366  43.732  12.261  14.385
50206W        W15367  20.526  16.576   0.014
50207W        W15368  17.313   6.396  12.430
50208W        W15369  26.015  15.832  13.569
50209W        W15370  38.072  40.159  10.435
50210W        W15371  33.119  31.215   4.809
50211W        W15372   8.867  19.608  13.350
50212W        W15373  23.098   5.427   4.112
50213W        W15374  28.947  14.872   4.164
50214W        W15375   7.657   1.461   4.227
50215W        W15376  16.710  19.455   2.820
50216W        W15377  44.405  12.223   0.894
50217W        W15378  14.575  15.545   3.135
50218W        W15379  11.310   3.504  10.733
50219W        W15380   3.666  10.840   4.077
50220W        W15381   5.895   6.394   0.231
50221W        W15382  27.897  27.812   0.321
50222W        W15383   8.310  10.645   2.281
50223W        W15384   9.758   2.735  12.379
50224W        W15385  43.324   8.678   3.732
50225W        W15386   5.369  23.948  10.123
50226W        W15387  24.700  24.124   3.251
50227W        W15388  12.136  36.794  14.946
50228W        W15389   8.427  28.782  12.915
50229W        W15390  43.733  34.060  14.635
50230W        W15391   1.551  36.365   2.730
50231W        W15392  29.709  23.193  13.004
50232W        W15393  12.236  14.244   0.438
50233W        W15394  10.663  17.204   4.901
50234W        W15395  20.552  16.175  14.729
50235W        W15396   1.775  27.838   0.853
50236W        W15397   2.467  33.602   9.956
50237W        W15398  15.584  34.628   3.533
50238W        W15399  39.795   5.882   3.372
50239W        W15400   9.956  13.905   0.898
50240W        W15401  35.653  35.772   3.996
50241W        W15402  17.790  31.427  14.426
50242W        W15403  16.676  25.238  13.016
50243W        W15404  20.507  42.378  12.897
50244W        W15405  12.900   0.867  11.138
50245W        W15406  36.796  13.201   1.055
50246W        W15407  40.404  31.863  11.942
50247W        W15408  10.616   8.612   0.992
50248W        W15409  40.085  42.337   4.880
50249W        W15410  10.901  32.168   1.781
50250W        W15411   0.822  38.684  13.419
50251W        W15412  20.709  28.497   0.406
50252W        W15413   9.825  25.981  14.880
50253W        W15414  30.718  20.327   4.240
50254W        W15415  40.246  34.159   2.885
50255W        W15416  35.414  18.695  13.370
50256W        W15417  41.681  30.986   1.670
50257W        W15418  17.588  39.818   0.980
50258W        W15419  25.067  25.685   3.607
50259W        W15420  39.955  20.659   3.686
50260W        W15421   4.917  14.221   4.103
50261W        W15422  39.783   9.989  11.027
50262W        W15423  24.992   1.035   4.373
50263W        W15424  37.478   5.660   4.554
50264W        W15425  22.310  25.660  14.813
50265W        W15426  21.130   8.597   1.938
50266W        W15427   7.863   2.860  10.853
50267W        W15428  23.732  43.651   0.871
50268W        W15429   1.586  24.447  13.405
50269W        W15430  18.765  24.737   1.880
50270W        W15431  43.729  26.612  12.595
50271W        W15432   5.480   9.210   3.696
50272W        W15433  35.611  10.225   1.686
50273W        W15434  37.440  22.181  11.172
50274W        W15435  41.510  28.031   4.042
50275W        W15436  42.581   8.228  12.197
50276W        W15437   8.170  38.832   0.239
50277W        W15438  17.081  12.644   2.909
50278W        W15439  30.151  37.208   0.885
50279W        W15440  36.632  42.312  13.481
50280W        W15441  33.625  10.806   1.212
50281W        W15442  28.237  16.163  11.421
50282W        W15443  35.601  19.988   1.107
50283W        W15444  23.755  24.515  14.382
50284W        W15445  17.743  41.748   2.342
50285W        W15446   1.764  28.389   4.179
50286W        W15447   4.706   9.854   4.435
50287W        W15448   9.677  26.010   0.764
50288W        W15449  17.062  27.370  11.208
50289W        W15450  31.882  17.683   0.672
50290W        W15451   2.740   3.400  13.887
50291W        W15452   3.184   3.355  11.867
50292W        W15453  36.422  36.322   0.379
50293W        W15454  39.868  31.008   2.507
50294W        W15455  15.632  28.509   1.785
50295W        W15456  14.877   9.709  13.567
50296W        W15457  16.514  38.971   9.803
50297W        W15458  25.806  34.768   2.274
50298W        W15459   3.739   0.814   0.450
50299W        W15460  43.242  27.576   2.274
50300W        W15461   0.530  43.957  14.060
50301W        W15462  15.731  34.006   3.300
50302W        W15463  17.024  42.433   0.880
50303W        W15464  26.709  17.614  10.655
50304W        W15465  36.092   7.398   0.764
50305W        W15466  42.343  24.185  14.357
50306W        W15467  11.746  28.900   3.670
50307W        W15468  41.535   3.297  10.826
50308W        W15469  16.523  38.548   0.259
50309W        W15470  30.919  42.105   1.020
50310W        W15471  28.561  37.110   2.362
50311W        W15472   8.786  41.980  11.609
50312W        W15473  17.111  31.470   4.213
50313W        W15474   2.835   9.732  13.407
50314W        W15475  35.927  34.611   1.413
50315W        W15476  32.870  31.667   4.662
50316W        W15477  36.865  13.552   2.333
50317W        W15478  14.201   5.980   4.934
50318W        W15479   2.347  28.933   4.019
50319W        W15480  17.054  27.984  14.991
50320W        W15481  39.777  44.944  13.986
50321W        W15482  17.988  13.800  13.563
50322W        W15483   0.841  42.352  12.910
50323W        W15484  28.520  17.208  11.255
50324W        W15485  11.603  20.629  14.012
50325W        W15486  23.683   0.242   2.287
50326W        W15487  44.690  30.062  11.511
50327W        W15488  43.625  40.477  12.520
50328W        W15489   4.854   3.720   3.089
50329W        W15490  42.775  25.688   3.688
50330W        W15491  38.000  34.610   3.804
50331W        W15492  11.080  18.810   0.350
50332W        W15493  35.152  36.024   1.969
50333W        W15494  26.487   2.691   2.540
50334W        W15495  25.167  12.069   1.224
50335W        W15496  35.931   2.826   2.418
50336W        W15497  27.745  32.509  12.143
50337W        W15498  12.454  15.247   0.451
50338W        W15499  10.349  17.955   2.850
50339W        W15500  26.441   8.743  10.611
50340W        W15501  38.265   0.149   3.194
50341W        W15502  19.289  42.036  11.198
50342W        W15503  17.520  25.768  14.310
50343W        W15504   7.764  26.642  14.195
50344W        W15505  25.100  36.998   3.372
50345W        W15506  17.833  12.844   0.320
50346W        W15507  16.283  34.172  13.634
50347W        W15508  11.646  42.774   2.783
50348W        W15509  42.478  40.036   2.879
50349W        W15510   7.007  41.935  12.918
50350W        W15511  13.848  33.928   3.682
50351W        W15512  19.247  20.748   1.423
50352W        W15513  32.590  16.649   2.389
50353W        W15514   3.040  36.450  14.388
50354W        W15515  12.372  28.540  10.835
50355W        W15516   0.338  14.823  14.385
50356W        W15517  36.450  21.246   4.366
50357W        W15518  33.657  33.886   4.772
50358W        W15519  27.508  27.618   2.643
50359W        W15520  26.934  18.059  14.806
50360W        W15521  38.999  33.075  12.903
50361W        W15522  34.203  18.692  10.878
50362W        W15523  23.886  28.183   3.803
50363W        W15524  37.867  15.017   1.972
50364W        W15525   9.351  25.124  12.224
50365W        W15526   4.329  43.421  12.772
50366W        W15527  36.049  12.048  11.933
50367W        W15528   3.161  41.506  12.530
50368W        W15529  17.729   7.699  14.918
50369W        W15530  25.607  32.169   3.708
50370W        W15531  21.070  19.329  14.200
50371W        W15532  35.489  41.364   2.434
50372W        W15533   7.735  10.223  11.650
50373W        W15534  44.370  39.347  12.068
50374W        W15535   8.695  10.714  14.835
50375W        W15536  31.343   7.803   0.817
50376W        W15537  12.163  38.437   4.387
50377W        W15538  42.436   4.260  13.867
50378W        W15539  27.031   4.490  14.408
50379W        W15540  41.048  36.815  13.838
50380W        W15541   0.045   9.206   4.327
50381W        W15542  44.825  14.260   1.499
50382W        W15543  39.878  32.890  10.783
50383W        W15544  26.663   4.875  12.457
50384W        W15545  14.364  10.889   2.368
50385W        W15546  44.268  28.061   1.838
50386W        W15547  30.035  13.085  10.903
50387W        W15548  19.379  32.124  10.801
50388W        W15549  24.695  12.173   2.869
50389W        W15550  44.313  32.560   2.395
50390W        W15551  36.359  42.773  10.746
50391W        W15552   6.317  18.215  14.977
50392W        W15553  21.672  14.329   2.432
50393W        W15554  23.969  32.075  13.230
50394W        W15555  43.225  35.238   2.681
50395W        W15556  35.637  38.998   1.891
50396W        W15557   8.289   9.695   2.563
50397W        W15558   4.582  20.487  10.575
50398W        W15559   6.466  44.850   0.029
50399W        W15560  37.493  14.593  13.469
50400W        W15561  37.877  21.692  10.586
50401W        W15562  26.369  14.704   5.093
50402W        W15563   3.946   1.291   1.865
50403W        W15564  16.616  32.178  13.464
50404W        W15565  22.697  18.906   2.313
50405W        W15566  26.154   1.451   4.722
50406W        W15567  30.572  38.829   4.982
50407W        W15568   9.276  34.097  13.943
50408W        W15569  39.545  41.432  13.825
50409W        W15570  33.119  28.704   0.780
50410W        W15571  43.390  11.033  13.912
50411W        W15572  29.789  21.430  14.471
50412W        W15573  21.258  21.901   2.609
50413W        W15574  15.374   2.463  11.508
50414W        W15575  29.213   1.902  11.567
50415W        W15576  37.935   6.007  10.499
50416W        W15577   6.746  15.252  14.567
50417W        W15578  27.897  32.691  13.381
50418W        W15579  30.119  14.456   1.583
50419W        W15580  23.765  37.536  12.482
50420W        W15581  19.856   0.321   0.360
50421W        W15582  31.190   3.237  12.588
50422W        W15583  24.605  32.418   0.794
50423W        W15584  38.501  15.858   0.812
50424W        W15585  13.525  30.545   5.225
50425W        W15586  22.653  17.660   4.930
50426W        W15587  43.421  17.270  14.310
50427W        W15588  32.156   9.276  12.008
50428W        W15589  29.081  37.398   1.511
50429W        W15590   5.116  28.887   3.260
50430W        W15591   0.521  40.125  13.753
50431W        W15592  12.039  41.429  11.089
50432W        W15593   0.391  32.333  10.582
50433W        W15594  16.370  14.387   2.813
50434W        W15595  38.057  39.169   1.755
50435W        W15596  14.324  21.812   1.887
50436W        W15597  34.765   8.164  12.980
50437W        W15598  33.000  30.857  10.782
50438W        W15599   4.215   0.367  14.986
50439W        W15600  15.719  25.029  14.119
50440W        W15601  34.904  20.259  10.449
50441W        W15602   0.376  22.639   3.166
50442W        W15603  22.270   9.730   0.393
50443W        W15604   5.492  21.200   5.028
50444W        W15605   9.065  22.844  11.139
50445W        W15606  27.276  16.091  10.756
50446W        W15607  18.047  28.630  12.088
50447W        W15608   4.432   5.114  12.647
50448W        W15609  37.613   1.307  13.985
50449W        W15610  20.521  20.941   3.176
50450W        W15611  28.947  12.046   2.197
50451W        W15612  19.133  31.377   2.595
50452W        W15613  20.211   0.442  12.843
50453W        W15614  11.119  11.560   2.675
50454W        W15615  17.095  15.155  11.093
50455W        W15616  36.558  14.331  13.110
50456W        W15617  29.511   5.582   0.913
50457W        W15618  30.095  15.104  14.862
50458W        W15619  19.573  14.071  12.529
50459W        W15620  35.450  20.088  11.169
50460W        W15621  37.124  31.217   0.810
50461W        W15622  28.422  41.536   0.798
50462W        W15623  26.138  34.353   2.201
50463W        W15624  18.796  30.982   4.639
50464W        W15625  33.496  15.950  12.543
50465W        W15626   1.363  38.412   2.984
50466W        W15627  31.711  43.512   1.358
50467W        W15628  22.639  27.583   2.302
50468W        W15629  28.180  37.350   1.486
50469W        W15630   8.805  38.663   1.178
50470W        W15631  32.565  10.678   3.097
50471W        W15632  30.384  28.867  14.990
50472W        W15633  44.513   7.153  12.472
50473W        W15634   4.337  10.884  14.794
50474W        W15635   9.556  42.580   4.043
50475W        W15636  37.825  20.713   4.848
50476W        W15637  18.609   1.766  11.593
50477W        W15638  32.692  34.434   2.461
50478W        W15639  30.949   0.395   2.188
50479W        W15640  40.429   0.454   4.807
50480W        W15641  40.896  40.558   4.416
50481W        W15642   3.937  13.825  13.400
50482W        W15643  38.505  29.158   0.583
50483W        W15644  20.680  19.980   3.072
50484W        W15645  35.535  29.858   1.955
50485W        W15646  35.087  19.991   0.922
50486W        W15647  19.073   0.358   3.162
50487W        W15648   2.874  32.051   2.767
50488W        W15649  14.645   0.225   1.394
50489W        W15650  41.347   5.661  13.369
50490W        W15651  36.235   9.335  11.621
50491W        W15652  10.212   2.939  13.603
50492W        W15653  30.206  31.704   4.158
50493W        W15654  43.241  43.336   1.435
50494W        W15655  16.273   8.874  14.523
50495W        W15656  25.857   1.307  10.672
50496W        W15657  16.027  20.471  10.606
50497W        W15658   4.395  26.046   2.200
50498W        W15659  36.875   2.841   0.736
50499W        W15660  27.532  11.202   1.434
50500W        W15661  22.605  23.190   0.246
50501W        W15662  20.111  41.073   2.081
50502W        W15663  11.734  34.053  13.972
50503W        W15664  10.874   0.778   0.808
50504W        W15665   4.259  35.953  11.606
50505W        W15666   3.670  34.622   1.003
50506W        W15667  23.793   1.976  13.301
50507W        W15668  20.521   6.826   4.703
50508W        W15669  39.877  12.637   0.393
50509W        W15670  15.744   7.304  10.401
50510W        W15671  16.879  34.508   2.206
50511W        W15672  41.415   5.986   4.333
50512W        W15673  21.263  24.688   2.167
50513W        W15674  33.569  20.216   3.189
50514W        W15675  44.512  37.622  14.559
50515W        W15676   3.898   3.482  14.652
50516W        W15677  13.865   4.678   3.867
50517W        W15678  37.468   1.203  11.446
50518W        W15679  25.684   4.090  14.409
50519W        W15680   8.674  11.643   4.558
50520W        W15681  22.228  38.174  11.969
50521W        W15682  28.219  40.318   1.302
50522W        W15683   1.973  16.662   1.302
50523W        W15684   2.751   6.632  14.959
50524W        W15685   8.411   2.197   0.388
50525W        W15686  44.453  17.245   0.811
50526W        W15687  10.583   9.478  11.094
50527W        W15688  13.867   8.703   2.139
50528W        W15689  43.215  23.985  12.543
50529W        W15690   8.687  39.971   4.041
50530W        W15691  22.887  27.557  13.692
50531W        W15692  44.894  12.606  14.737
50532W        W15693   4.748  14.658  12.001
50533W        W15694  39.392  28.392   4.136
50534W        W15695  29.371  18.729  14.260
50535W        W15696   3.503  34.367  13.441
50536W        W15697   4.591  38.409   0.004
50537W        W15698  29.073  35.344   0.704
50538W        W15699  15.104  42.815  13.869
50539W        W15700   6.274  29.530  12.059
50540W        W15701   7.491  13.746  13.996
50541W        W15702  17.186   0.870   4.094
50542W        W15703   9.685  36.857  12.361
50543W        W15704  42.317  39.840  10.615
50544W        W15705  27.088  33.807   1.850
50545W        W15706  21.838  14.362  11.122
50546W        W15707   8.795  16.216  11.843
50547W        W15708  22.159   9.681  14.858
50548W        W15709  32.404  22.082  11.459
50549W        W15710   4.611  37.355  11.559
50550W        W15711  38.425  10.590   1.903
50551W        W15712  18.256   0.698  13.937
50552W        W15713  26.183   9.496   4.943
50553W        W15714  29.396  35.828  10.626
50554W        W15715  11.343  14.076   1.953
50555W        W15716  43.918  36.951  11.336
50556W        W15717  26.183  39.723   1.404
50557W        W15718  23.744  23.535   3.016
50558W        W15719   1.128  16.111   4.101
50559W        W15720  13.617  39.971   2.235
50560W        W15721  13.755  29.480  13.437
50561W        W15722  40.404  37.493  13.841
50562W        W15723  21.101   8.247  12.557
50563W        W15724  36.053  22.849   0.110
50564W        W15725  12.579   7.583   0.247
50565W        W15726   8.823  42.971  13.731
50566W        W15727  35.120   2.903  11.405
50567W        W15728   2.868  15.476  10.770
50568W        W15729  20.116  10.955  12.364
50569W        W15730   6.168   6.953  12.102
50570W        W15731   6.920  20.300  13.860
50571W        W15732  40.651  10.914   3.805
50572W        W15733  38.176  24.579  11.335
50573W        W15734  40.892   1.181  13.970
50574W        W15735  31.080  28.679  11.164
50575W        W15736   0.001   9.953  14.596
50576W        W15737  40.852  19.828  14.958
50577W        W15738  18.961  32.232   2.362
50578W        W15739   8.236  16.021   2.221
50579W        W15740   5.359  38.944  13.026
50580W        W15741   5.712  30.598   3.657
50581W        W15742   4.433  32.485  10.742
50582W        W15743  14.207   3.769  10.327
50583W        W15744  29.446   3.318  12.555
50584W        W15745  29.661   6.609  13.497
50585W        W15746  11.825  34.869   0.773
50586W        W15747  25.283  34.992  13.400
50587W        W15748   5.380  16.110   4.539
50588W        W15749  17.625  29.736   1.275
50589W        W15750   9.693  16.563  13.638
50590W        W15751  18.130  29.891   1.488
50591W        W15752  18.079  11.327  11.592
50592W        W15753   9.806  35.798  14.050
50593W        W15754  15.069   2.142   0.790
50594W        W15755  13.714  19.226  11.411
50595W        W15756   1.807  36.310  14.979
50596W        W15757   8.288  14.233  12.002
50597W        W15758  14.529  31.075   0.849
50598W        W15759  37.587  11.213  11.034
50599W        W15760  39.888  40.313   4.733
50600W        W15761   9.705  23.591  11.595
50601W        W15762  18.742   0.862  13.963
50602W        W15763  23.422  40.012   0.680
50603W        W15764  27.299  21.567   4.978
50604W        W15765  37.486  27.927  11.544
50605W        W15766  31.660  25.614  11.466
50606W        W15767  23.938  24.141  13.612
50607W        W15768   8.097  15.732  11.368
50608W        W15769   2.566  28.645  13.066
50609W        W15770  38.031  13.194   3.157
50610W        W15771  34.943  10.713   0.420
50611W        W15772  22.497  22.140   1.518
50612W        W15773   7.956   5.364   4.124
50613W        W15774  33.053  43.584  12.125
50614W        W15775  44.939  39.414  12.906
50615W        W15776  38.482  30.444  10.655
50616W        W15777  36.027  15.238  14.091
50617W        W15778   7.912  12.330  13.878
50618W        W15779  27.054  16.838   4.650
50619W        W15780   2.052   6.137   3.734
50620W        W15781  44.815  25.583   0.737
50621W        W15782  33.343  25.429   3.712
50622W        W15783  10.314  22.761   1.797
50623W        W15784   3.924  30.510  11.955
50624W        W15785  13.876  23.539   3.676
50625W        W15786  24.979  28.646   0.312
50626W        W15787  32.970  18.327   2.238
50627W        W15788  39.603  27.433   3.942
50628W        W15789   0.931  26.018   2.334
50629W        W15790  22.406  30.601  12.149
50630W        W15791  33.098  26.948  14.788
50631W        W15792   9.082  10.133   0.935
50632W        W15793  39.423  10.281   4.239
50633W        W15794  12.815   4.176  11.130
50634W        W15795  37.061  28.362  13.304
50635W        W15796   2.530  31.639  11.893
50636W        W15797   7.640  23.604  13.923
50637W        W15798  35.079  34.142   0.900
50638W        W15799  17.461   1.784  12.022
50639W        W15800  23.111  38.476   0.331
50640W        W15801  11.560  41.223   1.424
50641W        W15802  31.649  25.085   2.128
50642W        W15803   6.167  25.949   1.422
50643W        W15804  39.257   3.884   3.234
50644W        W15805  40.177  18.307  11.840
50645W        W15806  28.178  38.341  12.510
50646W        W15807  22.502   7.343   3.102
50647W        W15808  38.775  23.583   0.293
50648W        W15809  14.074  37.087   1.314
50649W        W15810  18.284  21.234  13.935
50650W        W15811  17.581  39.575   0.516
50651W        W15812  11.189   9.480   4.299
50652W        W15813   7.404   9.830   1.621
50653W        W15814  29.462  20.158   4.727
50654W        W15815  21.070  22.679  12.556
50655W        W15816  39.852  37.770  11.633
50656W        W15817  28.516  38.344  14.727
50657W        W15818   1.025  21.206  11.950
50658W        W15819   0.150   1.341   2.925
50659W        W15820   7.386  16.147   4.568
50660W        W15821  41.933  10.263   1.499
50661W        W15822   2.505   0.325   3.243
50662W        W15823  23.036   6.082   2.930
50663W        W15824  29.587  15.054  14.894
50664W        W15825  29.597  40.648   5.031
50665W        W15826  22.102  39.931   3.150
50666W        W15827   4.858  10.456   2.730
50667W        W15828  25.965  30.354  14.074
50668W        W15829  42.525   6.302  11.370
50669W        W15830  30.847  21.543  13.398
50670W        W15831  16.495  33.445  10.984
50671W        W15832  40.073  16.063   2.835
50672W        W15833  28.192  21.519   0.808
50673W        W15834  43.228  31.070  14.978
50674W        W15835   8.568  13.672   4.484
50675W        W15836  10.867  26.050   2.978
50676W        W15837  39.997  11.811  14.052
50677W        W15838  36.258   9.793  12.791
50678W        W15839  38.825   3.809   0.288
50679W        W15840  35.060  31.901   3.136
50680W        W15841  17.049  23.057   2.612
50681W        W15842   2.349  16.698  11.823
50682W        W15843  24.386  34.611  14.416
50683W        W15844  31.442  22.641  14.979
50684W        W15845  12.230  25.175   2.802
50685W        W15846  15.747  12.766  11.632
50686W        W15847  37.034  31.519   4.706
50687W        W15848   8.829  41.717   1.623
50688W        W15849   4.201  25.989   2.952
50689W        W15850  36.056   4.346  10.592
50690W        W15851   1.356   3.295  11.873
50691W        W15852  19.285  36.640  14.334
50692W        W15853  30.126  39.069  12.433
50693W        W15854   5.499  12.360   5.126
50694W        W15855   0.914  11.164  10.663
50695W        W15856  18.723  29.646   1.770
50696W        W15857  21.727  33.976  14.250
50697W        W15858  35.484  27.737   1.747
50698W        W15859  31.405  40.486  12.924
50699W        W15860   4.301  19.012  10.686
50700W        W15861   0.416  38.297   1.714
50701W        W15862  24.023  14.597   1.280
50702W        W15863  23.296  38.001   0.359
50703W        W15864  16.425  18.844   2.868
50704W        W15865  32.884  31.888  12.347
50705W        W15866  16.814  22.932   1.245
50706W        W15867  40.599   8.673  13.411
50707W        W15868  36.307  20.791   3.673
50708W        W15869  37.121  21.323  14.811
50709W        W15870  19.131  29.640  10.647
50710W        W15871  13.362   9.205   2.898
50711W        W15872  23.516  36.120  13.712
50712W        W15873  34.786   5.246   4.178
50713W        W15874  29.306   2.013  14.449
50714W        W15875   1.424  16.589  14.371
50715W        W15876  11.728  29.534  10.161
50716W        W15877   5.794  15.103   3.766
50717W        W15878  13.835  38.382  12.937
50718W        W15879  37.401  16.523   3.564
50719W        W15880  30.349   4.096   2.590
50720W        W15881  16.676  15.575  12.072
50721W        W15882   2.850  23.191  14.440
50722W        W15883  42.165  36.876  12.017
50723W        W15884  33.084   0.578   1.009
50724W        W15885  34.829  11.841   0.977
50725W        W15886   3.282  30.883   1.303
50726W        W15887   5.432  10.194   4.537
50727W        W15888  35.124  33.614  12.608
50728W        W15889  31.210  38.995   0.721
50729W        W15890  18.092  43.710   0.393
50730W        W15891  44.441  24.757   0.020
50731W        W15892  40.403  27.796  13.533
50732W        W15893  27.228   0.517  11.151
50733W        W15894  15.624  18.955  14.388
50734W        W15895  19.959  27.250  12.461
50735W        W15896   9.884   9.355  14.523
50736W        W15897  16.100  26.588  10.627
50737W        W15898  11.586  33.083   3.875
50738W        W15899  15.310   6.829  11.569
50739W        W15900  21.762  33.295   3.858
50740W        W15901   7.105   0.354   3.098
50741W        W15902  11.163   3.438   0.999
50742W        W15903  38.477  31.655  13.719
50743W        W15904   2.419   0.534  11.861
50744W        W15905  33.981  33.609  13.735
50745W        W15906  34.627   2.690   0.280
50746W        W15907  30.367   8.604  10.789
50747W        W15908  20.158  15.609   2.894
50748W        W15909   8.181   5.244  12.106
50749W        W15910  35.461  18.107   1.484
50750W        W15911   0.063  37.104  13.401
50751W        W15912  15.143  40.369  14.897
50752W        W15913  20.550   7.778  14.306
50753W        W15914   3.866  26.493  13.905
50754W        W15915  41.010  32.379   2.179
50755W        W15916  39.789  30.477   0.246
50756W        W15917  40.889   5.928   2.661
50757W        W15918  23.517  29.366  11.221
50758W        W15919  33.536   2.810  11.940
50759W        W15920  11.910  28.484  11.068
50760W        W15921   1.408   7.498  14.594
50761W        W15922  33.165  42.906  11.579
50762W        W15923  39.249  25.100   1.606
50763W        W15924  21.028  24.220   2.207
50764W        W15925  12.885   5.374   2.464
50765W        W15926  17.217  18.994   0.141
50766W        W15927  33.511  44.330   1.652
50767W        W15928  38.457   9.748   3.242
50768W        W15929  33.513  44.061   1.219
50769W        W15930  19.991  20.269  10.766
50770W        W15931  19.202  25.950   2.761
50771W        W15932  27.443   9.146  12.783
50772W        W15933  29.230  40.562   4.152
50773W        W15934   2.261  11.194  10.794
50774W        W15935  43.631   9.464   1.701
50775W        W15936  28.571  20.848   0.785
50776W        W15937   4.477  32.135  12.011
50777W        W15938  43.729  15.370   3.625
50778W        W15939  21.140  38.029  14.347
50779W        W15940  20.156  30.891  12.849
50780W        W15941   3.258   6.604  11.643
50781W        W15942  21.976  36.415   2.447
50782W        W15943   9.373  37.880  12.916
50783W        W15944  14.831  24.556   1.175
50784W        W15945   6.469  43.859  10.699
50785W        W15946  19.495  17.162  11.137
50786W        W15947   0.315  16.836   3.658
50787W        W15948   7.888  28.962   1.848
50788W        W15949  14.405  17.211   3.198
50789W        W15950  29.669  14.284  12.008
50790W        W15951  10.700  26.488  11.965
50791W        W15952   9.245  18.829  14.335
50792W        W15953  38.391  15.201   1.804
50793W        W15954  11.825  38.246   4.849
50794W        W15955  29.554  43.304  14.533
50795W        W15956  12.652  41.286  14.051
50796W        W15957   6.186  29.802   4.047
50797W        W15958  27.464  33.430  12.039
50798W        W15959  30.440  37.599  12.887
50799W        W15960  21.393  30.924  12.935
50800W        W15961   9.433   4.940   3.605
50801W        W15962  19.645  37.513   4.641
50802W        W15963  41.999  35.163   0.800
50803W        W15964  33.425  36.142   1.330
50804W        W15965  25.986  37.107   2.652
50805W        W15966  18.927  21.706   0.469
50806W        W15967  32.979  41.791   4.186
50807W        W15968   1.965  33.311   2.760
50808W        W15969   6.060  29.012  14.868
50809W        W15970   1.216  30.508   0.294
50810W        W15971  13.622   2.174  11.629
50811W        W15972   6.822  43.715  11.028
50812W        W15973  33.754  25.062   0.120
50813W        W15974  12.867  17.132   1.421
50814W        W15975   1.282  18.987   3.671
50815W        W15976  29.628  34.881  10.778
50816W        W15977  22.786  29.084   2.391
50817W        W15978  35.060  26.922   3.312
50818W        W15979   0.786  23.280   3.614
50819W        W15980  14.322  38.365   2.763
50820W        W15981  17.502  36.484   2.322
50821W        W15982  22.726   2.439  11.031
50822W        W15983  31.493   2.718  13.999
50823W        W15984  35.467   7.409   4.698
50824W        W15985  16.491  32.690   1.705
50825W        W15986  20.302  30.215   1.807
50826W        W15987   4.375  34.887  14.470
50827W        W15988  14.934  26.500   4.251
50828W        W15989  37.150  24.775  14.494
50829W        W15990  23.637  34.616  14.732
50830W        W15991   8.142   4.232   3.788
50831W        W15992  42.419   4.085  11.471
50832W        W15993  41.779   1.832  12.048
50833W        W15994  34.174  19.564   2.774
50834W        W15995   2.328  40.258   1.924
50835W        W15996   4.272  36.743  12.928
50836W        W15997  30.105   5.437   1.657
50837W        W15998  25.056   6.291  10.812
50838W        W15999   2.024  22.552   3.648
50839W        W16000  18.172  12.615   0.754
50840W        W16001  35.053  13.258  12.814
50841W        W16002   1.721  34.962   2.810
50842W        W16003  40.933  24.860  13.422
50843W        W16004  31.129  40.506  12.483
50844W        W16005   0.009  44.580   1.707
50845W        W16006  12.114  40.256  12.469
50846W        W16007  39.375  33.419  14.963
50847W        W16008   7.968  21.526   1.298
50848W        W16009   2.778   7.731  13.399
50849W        W16010  31.568  38.584  12.949
50850W        W16011  31.937  18.413   3.206
50851W        W16012  11.302   6.011   2.862
50852W        W16013  44.005  39.862   0.197
50853W        W16014  16.135  43.673  14.026
50854W        W16015  15.176  29.955  13.788
50855W        W16016  15.739  16.627   3.110
50856W        W16017  17.938  10.178  13.275
50857W        W16018  38.714   4.413  12.140
50858W        W16019  24.101   7.788   1.288
50859W        W16020   6.881  17.761  12.985
50860W        W16021  28.253  44.467   4.831
50861W        W16022  29.373  13.245  12.121
50862W        W16023  16.460  23.701   4.441
50863W        W16024  43.862  16.517  10.598
50864W        W16025  15.235  32.531  13.981
50865W        W16026  44.258  16.542  10.243
50866W        W16027   8.983  15.812  13.709
50867W        W16028  40.823  18.318  11.132
50868W        W16029  13.198  36.959   0.305
50869W        W16030  35.871  23.724   0.677
50870W        W16031   9.323  36.275   3.947
50871W        W16032  33.950  21.123   0.024
50872W        W16033  11.166   8.611   4.694
50873W        W16034  12.174  10.421   1.265
50874W        W16035   3.087   2.278   3.399
50875W        W16036  11.136  40.049   2.450
50876W        W16037  11.394   9.768   1.745
50877W        W16038  13.035  42.874   2.907
50878W        W16039  20.055  15.690  14.506
50879W        W16040  17.318  37.865  13.842
50880W        W16041  38.439   0.351  14.439
50881W        W16042  42.506  16.972   3.915
50882W        W16043  26.018  27.482  12.008
50883W        W16044  16.282  30.468  13.446
50884W        W16045  29.681   5.697   2.705
50885W        W16046   8.777  41.334  10.946
50886W        W16047  23.732  37.137   0.889
50887W        W16048  25.466  25.522  10.381
50888W        W16049  33.825  11.301   2.818
50889W        W16050   6.897  15.371   3.501
50890W        W16051  28.529  13.388   0.421
50891W        W16052  44.033  31.170  13.003
50892W        W16053  10.720  18.748   3.490
50893W        W16054  14.845  44.865   0.039
50894W        W16055   8.747  14.490  14.901
50895W        W16056  22.991  36.032   2.550
50896W        W16057  38.589   2.469   1.747
50897W        W16058  38.504   9.770   2.245
50898W        W16059  21.171  17.000  12.848
50899W        W16060   6.955  40.352   0.018
50900W        W16061  38.637  15.664  12.189
50901W        W16062  29.166  33.551   0.337
50902W        W16063  43.882  42.011  14.777
50903W        W16064  44.802  30.360   2.329
50904W        W16065   8.747  29.255  11.175
50905W        W16066  30.621  24.986   4.482
50906W        W16067  42.297  13.228  14.795
50907W        W16068  32.419  29.636   0.305
50908W        W16069  28.062  14.198  12.432
50909W        W16070  36.939  44.326   3.065
50910W        W16071   1.489   2.788   1.379
50911W        W16072  18.579  44.051   0.251
50912W        W16073  17.097  19.692  13.414
50913W        W16074   7.851  12.749  11.668
50914W        W16075   8.476  38.015   2.398
50915W        W16076  33.933  44.503   1.892
50916W        W16077  27.696  32.053   1.349
50917W        W16078  24.561  35.665  11.549
50918W        W16079   9.371  28.411   4.560
50919W        W16080  14.288   1.358   3.314
50920W        W16081   2.153  41.519  12.846
50921W        W16082   8.768  21.537  11.647
50922W        W16083  27.950  42.509  10.316
50923W        W16084  25.435   1.754   1.719
50924W        W16085  43.333  13.126  12.093
50925W        W16086  32.558  34.371  11.769
50926W        W16087  44.781   4.036  14.776
50927W        W16088  34.964   7.747   3.102
50928W        W16089   6.294  29.484  13.426
50929W        W16090   8.818  43.971   3.388
50930W        W16091  14.366  12.347   1.370
50931W        W16092   8.127  21.259   3.943
50932W        W16093  26.985  17.115   3.364
50933W        W16094   2.036  15.814   0.384
50934W        W16095  12.223  26.424   2.239
50935W        W16096  26.718   0.293   0.386
50936W        W16097  28.318  17.420   2.356
50937W        W16098   5.118   3.199   0.979
50938W        W16099  33.922  44.742   3.185
50939W        W16100  30.935  35.788   2.118
50940W        W16101  20.750  27.206   4.004
50941W        W16102  36.564  17.968  11.145
50942W        W16103   9.886  33.909  11.309
50943W        W16104   4.728  20.956  11.476
50944W        W16105  21.159  25.347  10.309
50945W        W16106   7.858  27.056   0.460
50946W        W16107  12.807  44.339   2.717
50947W        W16108  35.476  30.051   0.172
50948W        W16109  21.457  28.627   4.055
50949W        W16110  35.803  17.264  10.698
50950W        W16111  31.383  26.618  11.562
50951W        W16112  35.630   2.223   2.116
50952W        W16113  17.114  14.004  12.983
50953W        W16114  13.806  37.966   4.323
50954W        W16115   8.589  22.798  12.955
50955W        W16116  12.101  34.623  12.532
50956W        W16117  17.648  32.358  13.252
50957W        W16118  44.050   8.333   1.025
50958W        W16119  10.864  10.908  10.530
50959W        W16120  11.946  40.353   0.330
50960W        W16121  22.104  26.880   1.263
50961W        W16122   6.165  40.034   3.634
50962W        W16123  32.533  21.800   1.751
50963W        W16124  40.684   2.811  14.783
50964W        W16125  29.968   3.805   2.395
50965W        W16126   3.721  22.276   3.931
50966W        W16127  36.388  17.608  12.040
50967W        W16128  43.806  22.094  12.099
50968W        W16129  39.001   0.721  11.603
50969W        W16130   6.304  34.800   4.835
50970W        W16131   0.340  16.327  14.841
50971W        W16132   0.736  35.964   1.157
50972W        W16133  40.961  39.969   2.306
50973W        W16134   0.541  42.116  11.607
50974W        W16135   1.437   8.903   0.927
50975W        W16136  30.995  37.532  11.215
50976W        W16137  27.453  16.066  13.919
50977W        W16138  23.290  39.444  13.761
50978W        W16139  30.014  18.666  12.500
50979W        W16140  26.927  26.964   4.619
50980W        W16141  31.527  13.110  11.413
50981W        W16142  21.959  10.852   2.633
50982W        W16143  33.319   1.250   4.305
50983W        W16144  12.498  34.072  11.030
50984W        W16145  19.599   9.719   1.301
50985W        W16146  18.285   1.508  12.707
50986W        W16147  20.647  44.288   4.198
50987W        W16148   1.232  28.880   1.240
50988W        W16149  31.863   3.494   4.204
50989W        W16150  43.725  35.579   0.523
50990W        W16151  24.236   8.406  12.046
50991W        W16152  44.668  28.329  11.556
50992W        W16153  36.101  37.873  14.413
50993W        W16154  34.548  27.464  13.275
50994W        W16155  32.626  17.113   2.165
50995W        W16156  38.383  41.081  10.830
50996W        W16157  16.641   2.916  11.481
50997W        W16158  22.048  12.210  14.280
50998W        W16159  35.357  15.743  11.804
50999W        W16160  29.964  36.624   2.138
51000W        W16161  29.056  23.846   0.377
51001W        W16162   7.685  36.505  12.099
51002W        W16163  25.149  31.067  14.887
51003W        W16164  43.356  30.049  12.920
51004W        W16165  24.600  30.825  12.414
51005W        W16166   0.031  23.224   0.558
51006W        W16167   3.839   9.356  11.985
51007W        W16168  35.870  41.109   2.159
51008W        W16169  29.688  43.332   2.763
51009W        W16170  25.872  21.469   3.195
51010W        W16171  21.214  23.575  13.584
51011W        W16172  43.829  32.159  13.030
51012W        W16173  19.762  27.705   2.613
51013W        W16174  27.052  29.292   2.384
51014W        W16175   3.200   1.741   0.487
51015W        W16176   9.479  43.782   1.967
51016W        W16177  22.747  28.380  10.739
51017W        W16178  27.998  23.960   4.060
51018W        W16179  31.223   9.303  11.463
51019W        W16180   4.327  38.832   0.800
51020W        W16181   4.068  36.400   0.943
51021W        W16182  19.729  36.570  10.864
51022W        W16183  31.598  26.059  12.332
51023W        W16184   1.296  41.295  12.295
51024W        W16185  33.479   2.649   1.234
51025W        W16186  18.740   0.182   4.316
51026W        W16187  29.847  28.539   1.886
51027W        W16188  17.185  25.063  12.954
51028W        W16189   7.465  16.381  11.616
51029W        W16190  21.125  23.654  11.926
51030W        W16191  40.805  34.654   4.283
51031W        W16192  40.821   3.884   3.960
51032W        W16193  40.775   1.354   1.825
51033W        W16194  21.164  33.845   0.478
51034W        W16195   0.503   7.818   2.537
51035W        W16196   1.336  30.410  11.908
51036W        W16197  14.665  40.125   0.722
51037W        W16198  34.663  24.936  11.594
51038W        W16199  30.708  17.252   4.797
51039W        W16200  29.370  34.982   2.270
51040W        W16201   9.459  29.644   3.516
51041W        W16202   9.730   9.164  12.855
51042W        W16203  26.266  29.516   4.927
51043W        W16204  29.128  13.758  13.627
51044W        W16205  33.842  11.277  12.005
51045W        W16206   8.878  27.281  12.013
51046W        W16207  29.139   5.839  14.102
51047W        W16208  32.274  23.455  14.091
51048W        W16209  15.540  44.779   2.266
51049W        W16210  43.364   7.732   1.257
51050W        W16211  16.076  44.543   3.159
51051W        W16212   3.516  36.510  13.366
51052W        W16213  18.107  36.398   3.152
51053W        W16214  28.040  13.741  13.070
51054W        W16215  14.807   6.745   3.799
51055W        W16216  25.274  29.651   1.218
51056W        W16217   7.831  20.936   2.711
51057W        W16218  36.244  25.596  13.488
51058W        W16219   8.839  23.716   1.361
51059W        W16220  29.942  39.756  11.427
51060W        W16221  34.477  17.334  11.468
51061W        W16222   5.505  34.506   4.624
51062W        W16223   1.479  31.145   4.522
51063W        W16224   9.648  19.623  12.854
51064W        W16225   0.881  35.350   2.270
51065W        W16226  16.650  36.025  12.624
51066W        W16227  24.192  13.552  14.763
51067W        W16228  29.987   8.812   4.985
51068W        W16229  13.134  17.183   0.910
51069W        W16230  44.292  19.105  13.985
51070W        W16231  38.749  34.826   2.727
51071W        W16232   0.344  16.577   0.317
51072W        W16233   9.812   0.034  12.730
51073W        W16234  31.047  39.486   5.481
51074W        W16235  23.614  10.714   1.991
51075W        W16236  38.335  36.342  13.024
51076W        W16237  10.410  43.599   2.755
51077W        W16238  35.166   5.794  13.280
51078W        W16239  31.445  20.001  12.886
51079W        W16240  41.348   3.816   0.195
51080W        W16241  13.169  27.469   3.844
51081W        W16242  27.999  35.788   5.006
51082W        W16243  11.243  41.963  14.255
51083W        W16244  30.125   7.336   3.764
51084W        W16245  13.948   8.276  13.480
51085W        W16246  31.217   3.877   0.511
51086W        W16247  31.102  26.762  14.873
51087W        W16248  13.293  36.820  13.247
51088W        W16249  34.513  38.621  14.899
51089W        W16250  31.599   0.869  12.278
51090W        W16251  40.789   2.911  13.402
51091W        W16252  25.122   2.563  11.393
51092W        W16253  28.203  16.410  12.279
51093W        W16254   4.366  43.999   1.732
51094W        W16255  23.773  29.474   2.684
51095W        W16256  30.230  35.986  12.454
51096W        W16257  14.737  17.323   1.281
51097W        W16258   7.384  19.100  14.473
51098W        W16259  30.198  42.778   1.765
51099W        W16260  30.152  13.046   2.190
51100W        W16261  15.069  21.581   4.687
51101W        W16262   9.169  34.882   0.444
51102W        W16263  15.412  34.577  10.282
51103W        W16264  36.722  18.045  12.004
51104W        W16265  12.874   0.994  12.882
51105W        W16266  43.181  20.825  14.423
51106W        W16267   4.545  11.005  12.476
51107W        W16268  29.465  34.369   1.205
51108W        W16269  34.100  32.096   3.252
51109W        W16270  23.318   3.816   3.485
51110W        W16271  27.547  12.408   1.740
51111W        W16272  18.518  31.475   4.831
51112W        W16273  21.747  29.958   2.153
51113W        W16274  28.656  14.686   0.723
51114W        W16275  42.846  14.866  13.150
51115W        W16276   8.750  12.643   4.534
51116W        W16277  21.546  38.106  13.475
51117W        W16278  15.891  23.619   3.862
51118W        W16279  40.032   8.247  13.974
51119W        W16280   9.793  20.097  14.915
51120W        W16281  10.842  20.277  10.727
51121W        W16282  11.782  18.245   1.417
51122W        W16283  21.536  13.983  13.525
51123W        W16284   6.299  36.127   5.046
51124W        W16285  28.000  21.477  11.698
51125W        W16286  30.092  41.873  12.331
51126W        W16287  26.187  21.733   1.841
51127W        W16288  13.552  30.999   0.355
51128W        W16289  18.937  29.200   0.327
51129W        W16290  41.716  19.769  10.858
51130W        W16291  31.524   9.572   2.788
51131W        W16292  35.663  23.015  13.139
51132W        W16293  31.917  18.444   0.315
51133W        W16294  26.960  16.319   2.131
51134W        W16295  44.278  30.686   0.201
51135W        W16296  23.457  34.947   4.893
51136W        W16297  20.070  20.153  10.278
51137W        W16298  32.361  36.128   3.373
51138W        W16299  39.540  21.185   4.705
51139W        W16300  29.875  38.764  13.120
51140W        W16301  10.045   0.861   1.160
51141W        W16302  38.444  30.191   0.458
51142W        W16303  20.982  32.562   1.212
51143W        W16304  36.436  29.491  10.653
51144W        W16305  22.652  27.673   0.838
51145W        W16306  20.113   6.908   0.569
51146W        W16307  36.454  39.823   0.707
51147W        W16308  19.611  18.710   4.820
51148W        W16309  13.199  39.156   2.146
51149W        W16310  27.701  38.376   3.036
51150W        W16311  26.533   9.704  11.434
51151W        W16312   4.333   1.767  11.647
51152W        W16313   2.326  11.555   2.556
51153W        W16314  39.952  22.786   0.403
51154W        W16315  31.655  38.941  11.952
51155W        W16316   5.332   6.654   4.490
51156W        W16317  25.640  16.600   2.121
51157W        W16318  43.886  24.009  11.267
51158W        W16319   5.167   9.256   4.744
51159W        W16320  43.792  18.039   1.890
51160W        W16321  25.199  26.810  13.860
51161W        W16322  29.498   8.858   0.886
51162W        W16323  25.640  18.976   9.802
51163W        W16324  22.151  24.258  11.148
51164W        W16325  30.362  11.897  14.390
51165W        W16326   7.348   9.710   0.015
51166W        W16327   6.462  18.003  12.128
51167W        W16328  22.010  12.104   1.688
51168W        W16329  26.892   6.732   0.548
51169W        W16330  32.000  33.777   4.248
51170W        W16331   9.803  19.131  12.939
51171W        W16332  13.614  11.199  12.964
51172W        W16333   7.255   7.761   0.864
51173W        W16334  38.534   9.276   3.438
51174W        W16335  19.801  19.825  10.574
51175W        W16336   9.245  15.046  11.498
51176W        W16337   9.877   5.935  11.991
51177W        W16338  42.977  24.647  11.997
51178W        W16339   5.712  33.031   1.701
51179W        W16340  33.890  43.480   3.367
51180W        W16341  26.504  21.509  10.725
51181W        W16342  38.749  24.469  10.799
51182W        W16343  15.738  27.900  11.103
51183W        W16344   5.808  34.597   0.759
51184W        W16345  13.662  40.019  14.165
51185W        W16346  44.677  40.706  10.199
51186W        W16347  13.631  13.420  11.902
51187W        W16348  18.252  16.755   0.742
51188W        W16349  11.535  17.445  14.507
51189W        W16350  17.424  38.397   0.056
51190W        W16351  44.448  37.238   1.348
51191W        W16352  18.241  27.368  13.901
51192W        W16353  15.186  19.029   4.330
51193W        W16354   5.214  31.702   2.030
51194W        W16355  42.657  19.681  11.634
51195W        W16356  24.810  41.548  13.836
51196W        W16357   8.816   5.065   2.311
51197W        W16358   3.666   6.909  14.771
51198W        W16359   8.989   3.184  12.324
51199W        W16360  36.966  28.022  10.797
51200W        W16361   2.981  24.546   4.490
51201W        W16362  37.037  26.439  13.358
51202W        W16363   6.743  27.522   3.002
51203W        W16364  10.956  44.518  14.382
51204W        W16365  30.430  16.062  14.002
51205W        W16366  10.637  39.506   3.205
51206W        W16367   3.650  43.635  11.623
51207W        W16368  10.684  41.312  12.476
51208W        W16369   7.444  10.108  10.661
51209W        W16370  32.432  19.622   0.817
51210W        W16371  40.369   7.686   4.016
51211W        W16372  27.666  40.556   1.267
51212W        W16373  42.008   7.936  11.057
51213W        W16374   7.204   3.706   4.076
51214W        W16375  29.192  11.603   4.549
51215W        W16376  14.581  43.256  13.114
51216W        W16377  42.717  21.018  10.858
51217W        W16378  33.152  34.630  10.556
51218W        W16379  28.054  22.027   0.861
51219W        W16380  23.770  12.311   2.450
51220W        W16381  31.914  24.048   3.254
51221W        W16382  44.500  19.643  12.721
51222W        W16383  34.108  37.466  13.985
51223W        W16384  11.288  29.473   1.311
51224W        W16385  35.088  42.397   3.658
51225W        W16386  15.604  13.776  10.869
51226W        W16387  23.553  37.566   0.266
51227W        W16388  29.895  40.885  10.636
51228W        W16389  33.328   6.392  12.532
51229W        W16390  27.189  25.418  12.903
51230W        W16391  43.880  27.067   1.030
51231W        W16392  14.387  35.822   1.620
51232W        W16393  16.814   1.860   0.920
51233W        W16394  12.158   8.257   0.014
51234W        W16395  26.428  10.639  14.774
51235W        W16396  19.187  42.486  11.448
51236W        W16397  43.038   3.000   2.165
51237W        W16398  32.147  10.950  12.085
51238W        W16399  27.633   8.085  11.212
51239W        W16400  15.317  11.657  11.085
51240W        W16401   0.274  11.296   3.780
51241W        W16402  41.869  18.174   1.198
51242W        W16403  17.726  18.194   3.686
51243W        W16404   0.365  35.009  11.816
51244W        W16405  40.510   3.769  11.714
51245W        W16406   7.156  16.997   3.654
51246W        W16407  38.509  40.716   3.269
51247W        W16408  18.106  31.024  14.524
51248W        W16409  36.893  41.808  14.501
51249W        W16410   0.738   9.392   3.264
51250W        W16411  29.560   4.268  14.429
51251W        W16412   3.470  11.493  11.672
51252W        W16413  34.342   8.643  12.345
51253W        W16414  39.870  18.387   3.775
51254W        W16415  30.659   8.321   4.426
51255W        W16416   7.364  17.583  11.107
51256W        W16417  10.835  18.573   1.682
51257W        W16418  43.790  24.627  14.933
51258W        W16419  17.556  23.582  14.668
51259W        W16420  39.793  26.144   1.187
51260W        W16421  31.891  31.105  11.377
51261W        W16422   5.274  20.154   3.620
51262W        W16423  33.062  21.453   0.296
51263W        W16424  41.684   8.863   4.738
51264W        W16425  41.472   5.138  14.768
51265W        W16426  10.033  24.213   1.564
51266W        W16427  40.840  11.737  11.338
51267W        W16428   3.287  43.783   1.318
51268W        W16429   0.715  23.238  13.442
51269W        W16430  33.335  19.718   1.561
51270W        W16431  29.416  41.077   1.418
51271W        W16432   4.816   7.641  11.536
51272W        W16433   5.099   0.481   4.119
51273W        W16434  22.921  32.933  11.191
51274W        W16435   5.357  18.176   2.360
51275W        W16436  43.467  15.503  11.927
51276W        W16437  18.935  27.656   1.868
51277W        W16438   7.058  28.457  11.060
51278W        W16439  10.832  23.145  12.685
51279W        W16440  26.902  21.975  13.031
51280W        W16441   2.006  31.151   2.225
51281W        W16442  20.843   6.283  11.560
51282W        W16443   6.340  21.228   1.894
51283W        W16444   5.304  25.417  14.424
51284W        W16445  29.391  28.698   0.235
51285W        W16446   8.337  18.762  11.459
51286W        W16447  20.768  17.694  13.839
51287W        W16448   9.729   3.737  14.890
51288W        W16449  33.406   3.902   3.251
51289W        W16450  27.465  36.025   3.885
51290W        W16451  16.098   6.267  10.622
51291W        W16452  34.384  39.641  11.057
51292W        W16453  30.779  37.883   0.823
51293W        W16454  30.065  21.318   3.597
51294W        W16455  37.639  18.589  12.542
51295W        W16456  34.071  22.100   9.770
51296W        W16457  16.056  14.053  11.008
51297W        W16458  28.918  26.343  10.676
51298W        W16459  38.671  35.064   4.102
51299W        W16460   7.210   7.804   4.486
51300W        W16461  40.334  15.760  10.697
51301W        W16462  36.434  35.458   1.687
51302W        W16463  32.010  12.795   1.265
51303W        W16464  44.473  12.999   3.823
51304W        W16465  25.438  36.403  11.488
51305W        W16466  11.750  22.039  13.827
51306W        W16467  24.718  34.110  11.345
51307W        W16468  30.968  24.578  14.788
51308W        W16469   9.293  12.198   0.958
51309W        W16470  22.038  34.903  13.884
51310W        W16471  12.663  40.365   4.680
51311W        W16472  14.893   2.056   1.767
51312W        W16473   6.328  24.559  14.279
51313W        W16474  10.269  17.764   3.343
51314W        W16475  41.876  22.649  10.244
51315W        W16476   0.870   6.676   3.717
51316W        W16477  36.453  12.067   1.790
51317W        W16478  16.689   2.857  13.826
51318W        W16479   7.408  42.734   4.837
51319W        W16480  43.736  36.969   0.720
51320W        W16481  22.616  44.465  10.728
51321W        W16482   2.469   7.356   4.117
51322W        W16483  16.679  23.128   3.012
51323W        W16484  44.302   7.889  10.931
51324W        W16485  18.056  26.705  12.109
51325W        W16486   2.754  22.105   4.859
51326W        W16487  36.574  15.768   2.164
51327W        W16488  42.812  33.773  10.654
51328W        W16489  40.113  26.578  13.180
51329W        W16490  43.388  27.967  13.477
51330W        W16491   8.826  19.624  11.256
51331W        W16492   8.163  31.672  10.685
51332W        W16493  18.901  37.089   0.849
51333W        W16494   6.938   5.455  13.071
51334W        W16495  32.956  10.503  13.844
51335W        W16496  34.567  41.248   2.322
51336W        W16497   5.693  37.156   3.940
51337W        W16498   3.945  24.105   0.866
51338W        W16499  40.775  43.843   2.777
51339W        W16500  19.809  22.644  14.815
51340W        W16501   1.806  38.585   3.121
51341W        W16502   6.480   6.158  12.508
51342W        W16503   3.219  13.699  10.406
51343W        W16504  26.642  29.330   0.250
51344W        W16505  43.464  16.502  10.999
51345W        W16506   5.171  28.342   1.781
51346W        W16507   2.840  27.730  13.763
51347W        W16508  19.806  30.607   2.365
51348W        W16509  25.766   5.799   4.215
51349W        W16510   9.811  44.331   0.310
51350W        W16511   2.419  37.329   5.032
51351W        W16512  39.754  40.910   4.826
51352W        W16513  14.855   3.883   2.154
51353W        W16514  10.324   9.410   4.126
51354W        W16515  29.682  44.578  12.765
51355W        W16516   3.710  41.582  11.933
51356W        W16517  19.312  31.487  12.661
51357W        W16518  22.662  16.458   9.695
51358W        W16519   6.014  14.189  14.838
51359W        W16520  18.294   0.205  13.755
51360W        W16521  33.001  23.000   2.276
51361W        W16522  16.147  39.911   0.745
51362W        W16523  34.626  32.210   3.187
51363W        W16524  37.445  42.267  13.910
51364W        W16525  42.551  27.581   4.603
51365W        W16526  42.665  21.219  13.160
51366W        W16527  24.399  33.447   3.842
51367W        W16528  30.837  34.020   0.481
51368W        W16529  18.018  26.679   0.837
51369W        W16530  22.346  20.724   9.833
51370W        W16531  13.717   0.419  12.923
51371W        W16532   5.140   9.392   3.341
51372W        W16533   9.089  31.152   3.670
51373W        W16534  10.366  37.982  13.910
51374W        W16535   1.492  22.285  11.643
51375W        W16536  40.817  42.857   4.873
51376W        W16537  19.626  26.507   2.267
51377W        W16538  21.672  17.526  10.993
51378W        W16539  21.396  40.923   2.061
51379W        W16540  32.226  19.287   4.593
51380W        W16541  42.744   9.357  12.507
51381W        W16542  30.454  35.586  11.217
51382W        W16543   5.515   7.848   1.450
51383W        W16544   8.233  10.837  12.975
51384W        W16545  30.603  23.771  11.057
51385W        W16546  35.331   8.421   4.545
51386W        W16547  16.802  26.646  10.504
51387W        W16548  39.162  18.232  12.947
51388W        W16549  16.527  43.002  12.453
51389W        W16550  25.033  20.597  14.498
51390W        W16551  16.779   1.285   3.588
51391W        W16552   8.208   6.016  12.533
51392W        W16553  33.183  24.249   4.990
51393W        W16554  10.992  44.403  11.967
51394W        W16555  39.970  30.156  12.553
51395W        W16556  19.431  42.486  14.580
51396W        W16557  21.230  23.769  12.427
51397W        W16558  13.124   9.165   1.371
51398W        W16559  11.252  34.940  10.945
51399W        W16560  33.053   3.166   0.938
51400W        W16561   5.731  23.315  11.119
51401W        W16562  25.244   0.219   1.225
51402W        W16563  21.093  14.373   3.722
51403W        W16564   4.924  15.659  11.105
51404W        W16565  36.493  20.013   1.979
51405W        W16566  20.227  19.186  13.031
51406W        W16567   4.521  17.630   2.549
51407W        W16568  43.963   3.893  12.438
51408W        W16569  44.580  29.993   4.888
51409W        W16570  14.079  41.472  10.597
51410W        W16571   0.002   0.079  13.522
51411W        W16572   7.835  44.660  12.687
51412W        W16573  29.406  12.224  14.741
51413W        W16574   8.595  38.920  12.936
51414W        W16575   3.336  13.333   1.787
51415W        W16576  11.399   2.584   1.406
51416W        W16577  16.435   0.398  14.705
51417W        W16578   7.776  18.019  12.625
51418W        W16579  12.746  27.885   2.765
51419W        W16580   6.413  28.630  13.176
51420W        W16581  42.061  30.074   1.279
51421W        W16582   2.000  37.469   1.347
51422W        W16583  27.208  22.921   4.577
51423W        W16584  22.791  13.526  14.971
51424W        W16585  24.744  25.406  14.270
51425W        W16586  38.413  20.562  11.792
51426W        W16587  36.858  13.215  14.741
51427W        W16588  18.017  11.238   4.645
51428W        W16589   7.208   2.808  13.853
51429W        W16590  34.769  38.283   2.253
51430W        W16591  13.814  38.499  11.599
51431W        W16592  36.264  40.823  12.564
51432W        W16593  21.129  13.287   2.210
51433W        W16594  13.124  12.322   3.403
51434W        W16595  12.849  10.356   4.682
51435W        W16596  25.914  31.797  12.503
51436W        W16597  27.021  39.942   0.825
51437W        W16598   5.748   2.536   2.750
51438W        W16599  35.994  11.227   3.439
51439W        W16600  33.462  42.276  11.771
51440W        W16601   2.822  22.136  10.632
51441W        W16602  10.888  24.216  12.560
51442W        W16603  43.362  13.668  12.057
51443W        W16604  11.616  13.194  14.182
51444W        W16605  21.085   6.124   3.635
51445W        W16606  43.936   4.441   4.332
51446W        W16607  26.117  44.206   2.974
51447W        W16608   5.888  33.620  14.369
51448W        W16609  43.431  34.794   0.251
51449W        W16610  16.524  17.636  11.957
51450W        W16611  44.112   6.872  14.898
51451W        W16612  34.404   4.394  10.791
51452W        W16613  27.571   7.214  12.474
51453W        W16614  17.744   5.349   1.223
51454W        W16615  39.116   0.100   4.745
51455W        W16616  24.203  42.477   4.435
51456W        W16617  39.829  19.174  10.671
51457W        W16618  19.818  23.714   3.653
51458W        W16619  28.089  24.712   3.649
51459W        W16620  34.611  18.219   0.670
51460W        W16621  31.443  14.778  14.750
51461W        W16622  32.178   6.581  14.996
51462W        W16623  17.201  10.421  10.902
51463W        W16624  26.131  12.248  12.137
51464W        W16625   4.375  16.795   1.941
51465W        W16626  30.407  13.605  10.593
51466W        W16627  12.535  37.343  11.124
51467W        W16628  41.284  33.275  11.940
51468W        W16629  19.073  41.217  13.461
51469W        W16630   6.917  35.359  11.114
51470W        W16631  22.059  41.300   2.256
51471W        W16632  18.328  33.557  14.292
51472W        W16633  13.124  41.321  14.374
51473W        W16634  27.997  38.567  13.925
51474W        W16635  33.440  29.169  10.321
51475W        W16636  26.078  12.535   5.145
51476W        W16637  31.063  42.303   3.732
51477W        W16638  26.696  28.221  13.431
51478W        W16639  28.694  37.909  10.340
51479W        W16640  44.724  25.254   1.227
51480W        W16641  21.657  15.025  13.509
51481W        W16642  11.906  39.024   1.736
51482W        W16643  29.152  39.848  13.573
51483W        W16644   3.944  34.082  13.457
51484W        W16645   6.422  15.553   2.452
51485W        W16646   2.246  28.184   2.618
51486W        W16647  15.740  39.513  11.731
51487W        W16648  27.196  13.584  11.531
51488W        W16649  33.536  12.304   3.567
51489W        W16650   9.319  27.558  14.019
51490W        W16651  41.294  23.611  13.838
51491W        W16652  28.072  28.645   4.245
51492W        W16653  16.018  12.457  14.442
51493W        W16654  44.752   7.707   1.831
51494W        W16655  18.768   8.320  11.599
51495W        W16656  30.171  36.985   4.272
51496W        W16657  13.663  29.562  12.892
51497W        W16658  23.779  24.645  13.524
51498W        W16659  32.508  42.280  13.293
51499W        W16660  35.595  40.461   2.358
51500W        W16661   8.599  15.398  12.164
51501W        W16662  35.854  25.412   4.079
51502W        W16663  28.598  10.112  14.735
51503W        W16664  12.462   0.824   2.343
51504W        W16665  11.595  21.922   1.906
51505W        W16666  31.250  21.267  10.488
51506W        W16667  32.480  11.293  12.327
51507W        W16668  27.759  10.924  12.500
51508W        W16669   3.976  19.223   3.049
51509W        W16670   5.584   5.399  12.072
51510W        W16671  35.358  37.032   3.806
51511W        W16672  39.730  30.506   1.897
51512W        W16673  24.094  20.828  13.419
51513W        W16674  26.773   2.899   2.920
51514W        W16675  33.703  24.483  13.926
51515W        W16676  25.249   8.713  12.547
51516W        W16677  19.337   7.671  12.960
51517W        W16678  41.921  27.225  14.087
51518W        W16679  10.624  32.606   1.882
51519W        W16680  32.218  41.199   3.680
51520W        W16681  41.725  15.224  10.791
51521W        W16682  27.481  37.841   2.861
51522W        W16683  12.090  14.024   4.725
51523W        W16684  31.039   8.637   4.557
51524W        W16685  15.619  39.860  14.894
51525W        W16686  39.090  12.099  11.128
51526W        W16687  38.590   7.240   4.037
51527W        W16688  38.512  40.336   4.243
51528W        W16689  24.199  21.229  10.812
51529W        W16690  13.839  15.211   2.641
51530W        W16691  18.998  37.908  13.719
51531W        W16692  38.834  39.257   0.281
51532W        W16693   9.273   7.551  11.184
51533W        W16694   4.478  21.159   3.155
51534W        W16695  23.979  43.846  14.822
51535W        W16696  31.169  23.173  11.060
51536W        W16697  38.895  35.137  14.433
51537W        W16698   9.639  42.126  11.902
51538W        W16699  32.143  37.553   2.454
51539W        W16700  39.978   8.245  11.206
51540W        W16701   9.944   1.726   2.143
51541W        W16702  39.109  41.850   3.652
51542W        W16703   6.970  32.961  14.568
51543W        W16704  38.439   6.499  13.341
51544W        W16705  20.799  24.177  14.247
51545W        W16706  18.728  25.174   2.188
51546W        W16707  31.372   5.232  10.701
51547W        W16708   2.846  25.459  14.636
51548W        W16709   1.382   4.487  13.060
51549W        W16710  35.081  30.098  12.458
51550W        W16711  34.615  25.965  11.503
51551W        W16712  26.472  44.460  13.023
51552W        W16713  37.054   4.312  13.829
51553W        W16714  14.650  10.583  14.057
51554W        W16715  23.227  26.552   3.338
51555W        W16716   2.107  33.004  10.391
51556W        W16717  16.752   4.411  14.561
51557W        W16718  13.612  28.679   3.331
51558W        W16719  40.157   6.587  11.568
51559W        W16720  32.089  39.025   0.203
51560W        W16721  24.452   4.416   0.210
51561W        W16722  26.875  17.305   4.302
51562W        W16723  24.918  42.979   4.651
51563W        W16724  29.088  16.869   3.665
51564W        W16725  41.301  28.202   0.326
51565W        W16726  42.854  31.837  11.695
51566W        W16727  34.778  15.369  13.481
51567W        W16728  14.149  31.522   0.006
51568W        W16729  27.076   6.599   1.024
51569W        W16730   0.963   7.412   3.183
51570W        W16731  17.532  25.472  13.878
51571W        W16732  31.616  29.154  12.903
51572W        W16733  21.175  33.531   1.830
51573W        W16734  40.238  29.945   3.550
51574W        W16735  21.969  39.109  11.933
51575W        W16736  10.867  19.288  12.942
51576W        W16737  24.528  24.071   1.765
51577W        W16738  22.571  21.062   1.878
51578W        W16739  24.587   9.410   2.732
51579W        W16740   6.770  39.850  11.523
51580W        W16741   2.845   8.690   0.869
51581W        W16742  26.707  22.957   0.744
51582W        W16743   1.806   2.169  12.563
51583W        W16744  31.435  12.140   0.823
51584W        W16745  26.489  21.123   4.629
51585W        W16746  19.043  30.598   0.100
51586W        W16747  24.768  18.348   0.745
51587W        W16748  12.248  42.765   2.267
51588W        W16749  38.764  44.856  14.871
51589W        W16750  41.899  41.913   1.755
51590W        W16751   1.999  22.151  10.981
51591W        W16752  29.540  38.097  13.909
51592W        W16753   4.774  31.891   1.756
51593W        W16754  30.169  28.243   2.169
51594W        W16755  17.252  14.736  11.338
51595W        W16756  38.103  20.662   2.302
51596W        W16757  42.115  29.133   3.191
51597W        W16758  10.741   6.697   3.959
51598W        W16759  28.091  44.409  12.288
51599W        W16760  19.761  16.721  11.038
51600W        W16761  15.886  19.635  11.548
51601W        W16762  41.702  43.993  11.697
51602W        W16763  34.342  37.595   0.529
51603W        W16764  28.044  18.049   0.280
51604W        W16765  13.022  38.325   1.444
51605W        W16766  14.264  12.645  12.484
51606W        W16767  13.033  17.182  14.329
51607W        W16768  34.877   1.143   3.136
51608W        W16769  27.047  44.897  10.521
51609W        W16770  30.917   4.009   1.373
51610W        W16771   2.223  25.911   3.500
51611W        W16772  15.875  20.358  12.403
51612W        W16773   5.979  13.310  10.777
51613W        W16774  12.184  41.631  14.474
51614W        W16775   4.864  38.937  13.794
51615W        W16776   9.777  12.730   4.788
51616W        W16777  35.889   3.105  14.858
51617W        W16778  19.945   8.404   3.202
51618W        W16779  19.639   4.525  12.930
51619W        W16780  20.857  32.684   4.482
51620W        W16781   4.475   8.354   3.589
51621W        W16782  41.933   3.400   4.100
51622W        W16783  16.826   5.246   4.080
51623W        W16784  16.676  44.574   5.603
51624W        W16785   2.452  27.113  14.318
51625W        W16786  28.746  29.066  14.389
51626W        W16787  21.209  12.759   0.917
51627W        W16788   5.264  33.201   4.803
51628W        W16789  21.650  39.473  10.619
51629W        W16790  16.304  27.641   4.575
51630W        W16791   5.362  19.264  12.003
51631W        W16792  28.563  27.113   3.153
51632W        W16793  19.673  23.253  12.313
51633W        W16794  29.979  25.946   2.377
51634W        W16795  40.257  43.902  11.169
51635W        W16796  34.709  36.843  13.973
51636W        W16797  19.986  36.433  13.178
51637W        W16798  33.384  15.347  13.091
51638W        W16799  24.701  13.140   2.895
51639W        W16800   9.439  28.458   2.639
51640W        W16801  19.198  44.971  14.751
51641W        W16802  24.410   9.269   3.207
51642W        W16803  22.035  43.312   1.317
51643W        W16804  44.902  12.557  12.847
51644W        W16805  33.899  12.883   4.576
51645W        W16806   1.348  25.530  11.478
51646W        W16807   4.936  32.399   0.007
51647W        W16808  24.485  16.609   2.704
51648W        W16809  11.699  21.512   3.268
51649W        W16810   2.383  40.369   2.908
51650W        W16811   2.521  29.088   3.201
51651W        W16812   0.419   1.840   4.675
51652W        W16813   3.591  43.912   0.882
51653W        W16814   2.542  39.372   0.855
51654W        W16815  35.089   6.425   0.411
51655W        W16816  26.977   1.481   4.819
51656W        W16817  18.174   5.281  13.974
51657W        W16818  31.071  12.881   4.319
51658W        W16819   4.851  26.967  12.019
51659W        W16820   6.190  33.009   3.649
51660W        W16821  33.437  19.974   4.110
51661W        W16822   3.667  20.178  12.649
51662W        W16823   1.842  33.303  11.658
51663W        W16824   6.736  44.396   1.154
51664W        W16825   9.246  38.426   3.403
51665W        W16826  33.447  44.562   1.178
51666W        W16827  19.556   2.051  11.747
51667W        W16828  27.633  19.722   4.427
51668W        W16829  12.432   6.908  11.976
51669W        W16830  10.270   7.259   1.388
51670W        W16831  32.056  13.976  13.018
51671W        W16832   4.383  27.051   2.115
51672W        W16833  27.477   0.993  14.480
51673W        W16834  15.388  44.176   4.157
51674W        W16835   9.041  14.703  11.812
51675W        W16836  21.746   2.765  14.031
51676W        W16837  15.649  42.460   0.652
51677W        W16838  42.497  27.240   0.906
51678W        W16839  10.624  26.168  11.560
51679W        W16840  27.981  37.782   2.732
51680W        W16841  20.203  34.836  14.953
51681W        W16842   7.696  30.740   2.499
51682W        W16843   7.342  17.818  12.396
51683W        W16844  41.927  29.404  13.738
51684W        W16845   9.183  44.739   3.666
51685W        W16846   7.942  29.652   1.282
51686W        W16847   9.826  36.375   0.323
51687W        W16848  40.525  24.196  12.967
51688W        W16849  12.192   6.383   3.196
51689W        W16850   2.457  20.535   1.465
51690W        W16851  27.864   1.388  13.414
51691W        W16852   0.844  16.610   0.499
51692W        W16853   5.709  13.772  14.385
51693W        W16854   1.784  17.553  11.069
51694W        W16855  17.118  23.270  12.069
51695W        W16856  31.657   9.077   2.781
51696W        W16857  32.905  13.232  11.756
51697W        W16858   7.639  23.737   1.823
51698W        W16859  26.979   3.678  13.335
51699W        W16860  23.043  18.553  10.458
51700W        W16861  17.334   6.760  14.805
51701W        W16862  22.690   5.296   2.793
51702W        W16863  36.497  12.212   3.622
51703W        W16864   5.712  10.143  12.643
51704W        W16865  39.792  21.234  11.970
51705W        W16866  14.670  33.834  10.634
51706W        W16867  22.715  14.969  10.290
51707W        W16868  13.163  10.257   0.919
51708W        W16869  28.522   5.464   4.521
51709W        W16870  20.721  37.344   1.154
51710W        W16871   6.869  14.743   4.602
51711W        W16872  43.352  22.226  12.916
51712W        W16873  39.928   8.395   2.754
51713W        W16874  34.514  38.600  13.514
51714W        W16875  34.384  35.407   0.820
51715W        W16876   8.459  37.744  13.016
51716W        W16877  20.190  36.827   0.913
51717W        W16878   6.423   4.363   0.386
51718W        W16879  32.566  34.950  14.275
51719W        W16880   1.895   4.816   0.219
51720W        W16881  34.985  27.184   2.858
51721W        W16882  38.761  13.788   4.741
51722W        W16883  39.987  41.257  11.180
51723W        W16884  22.831   8.300   1.275
51724W        W16885   5.633  40.590  12.513
51725W        W16886  19.140  23.679   2.333
51726W        W16887  40.345  17.174   4.977
51727W        W16888   5.217  18.344   1.886
51728W        W16889  44.528  33.584  12.648
51729W        W16890  22.961  43.570  12.529
51730W        W16891  33.964  31.338  12.940
51731W        W16892  33.090  42.889   0.273
51732W        W16893  20.504  15.025   3.992
51733W        W16894  22.042  37.513   2.867
51734W        W16895  23.548  21.521  14.848
51735W        W16896   6.816  33.162  13.714
51736W        W16897  31.408   2.708  13.493
51737W        W16898  39.047   5.852   0.080
51738W        W16899  27.206  44.302   4.740
51739W        W16900  31.817  19.564   1.726
51740W        W16901   6.755  20.409  12.870
51741W        W16902  25.294  36.583  13.994
51742W        W16903  15.988  21.521  13.981
51743W        W16904  33.634  24.595  12.975
51744W        W16905  19.067  26.219  11.093
51745W        W16906  27.788  14.156  13.202
51746W        W16907   3.829  10.651  13.003
51747W        W16908  23.245   1.312   3.827
51748W        W16909  26.664  20.549   4.646
51749W        W16910   0.871  11.520   5.378
51750W        W16911  33.471  13.626  10.459
51751W        W16912  16.660  34.005  12.186
51752W        W16913   1.396  12.034  10.664
51753W        W16914  38.189  20.117   2.360
51754W        W16915   8.326   1.041  12.920
51755W        W16916  30.735   1.137   5.041
51756W        W16917  26.142  21.096   2.629
51757W        W16918  36.493  41.872  14.909
51758W        W16919  11.076  24.695   3.799
51759W        W16920  14.884  28.512  14.080
51760W        W16921  36.028  15.079  12.623
51761W        W16922  19.281  14.299   3.702
51762W        W16923  25.263  25.636  10.869
51763W        W16924  30.977  11.693   2.470
51764W        W16925   6.371   1.498   3.175
51765W        W16926   9.412  23.518   1.723
51766W        W16927   9.152   4.731  14.300
51767W        W16928  36.193   0.040   1.913
51768W        W16929   3.138  10.124   0.537
51769W        W16930  25.143   9.881  13.780
51770W        W16931   0.033  22.039   2.837
51771W        W16932  32.872  26.526  10.544
51772W        W16933  26.423  15.055   3.139
51773W        W16934  18.263  41.478  14.989
51774W        W16935  34.764   3.299   1.137
51775W        W16936  27.933  14.763   1.007
51776W        W16937  30.118  32.181   3.194
51777W        W16938  13.760  41.279   0.895
51778W        W16939  44.105  41.454   4.933
51779W        W16940  22.021   1.492   0.826
51780W        W16941  13.710  30.854   2.225
51781W        W16942   6.619  15.727   3.751
51782W        W16943   3.905  29.869   0.828
51783W        W16944  28.280   2.442  13.538
51784W        W16945   7.504  24.700   0.928
51785W        W16946  28.182  44.301   0.726
51786W        W16947   9.443   8.249   2.164
51787W        W16948  43.988  21.345   2.453
51788W        W16949  22.687  37.609   1.339
51789W        W16950  20.635  32.971   1.969
51790W        W16951  19.010  43.051  13.799
51791W        W16952  37.141  38.989  12.055
51792W        W16953  29.634  11.262   3.633
51793W        W16954   0.288  11.874   3.119
51794W        W16955  26.920   1.880  12.020
51795W        W16956  34.479  35.461   2.118
51796W        W16957  22.008  29.214   4.046
51797W        W16958  19.815  10.282  14.782
51798W        W16959  36.393  35.361  12.915
51799W        W16960  39.482   7.855  14.846
51800W        W16961  43.974   9.675   2.649
51801W        W16962  17.099   2.594   3.109
51802W        W16963  15.056  29.028  11.005
51803W        W16964  28.992   5.308  12.344
51804W        W16965  33.566  41.510   4.850
51805W        W16966  43.864  32.587   3.750
51806W        W16967   9.325  24.035   2.276
51807W        W16968  19.219  20.808   0.918
51808W        W16969  28.072  11.205   4.222
51809W        W16970  16.671   7.191  12.482
51810W        W16971  12.085   3.130   2.332
51811W        W16972  12.057   2.308   4.290
51812W        W16973  22.383  29.025  13.490
51813W        W16974  19.251  27.565  13.059
51814W        W16975   0.179  18.186  11.331
51815W        W16976  27.488   0.950  11.159
51816W        W16977  26.794  32.143   1.353
51817W        W16978  14.860  43.471  13.524
51818W        W16979   4.774  37.525  12.049
51819W        W16980  13.691  27.483   1.225
51820W        W16981  42.505  14.253   2.700
51821W        W16982  12.448  36.791  12.970
51822W        W16983   5.740  15.224  12.529
51823W        W16984  38.926  31.364  10.706
51824W        W16985  29.062  12.370   1.260
51825W        W16986  23.065   2.779   4.194
51826W        W16987  39.123  25.129   2.258
51827W        W16988  18.258  14.850   0.845
51828W        W16989   2.920  27.710   1.277
51829W        W16990  22.276  13.345  13.404
51830W        W16991  18.233   1.939  13.532
51831W        W16992  30.213   0.770  11.425
51832W        W16993  24.670   9.694   4.166
51833W        W16994  13.292  32.953   2.166
51834W        W16995  12.082  43.151   4.081
51835W        W16996  19.461  32.348   2.222
51836W        W16997   7.665  33.347  14.020
51837W        W16998  11.331   7.875   2.269
51838W        W16999  30.121   5.870  13.878
51839W        W17000  35.785  20.567  13.815
51840W        W17001   6.779  27.251  13.408
51841W        W17002  38.015  37.617   3.396
51842W        W17003  40.278  42.543  11.664
51843W        W17004  20.711  42.916   3.753
51844W        W17005   7.322  21.676  14.693
51845W        W17006  43.845  14.791   1.869
51846W        W17007  30.868  37.505   4.326
51847W        W17008   1.980  16.297   4.015
51848W        W17009  30.630  11.862  13.442
51849W        W17010  43.975   1.929   4.874
51850W        W17011  28.653  23.998  14.296
51851W        W17012  26.784  30.450  13.502
51852W        W17013  20.321  35.231  12.080
51853W        W17014   4.427  30.619  12.005
51854W        W17015  22.217   0.168   1.342
51855W        W17016  23.072  30.018  12.776
51856W        W17017  13.758   0.473   3.903
51857W        W17018   3.930   2.683  13.930
51858W        W17019   5.918  15.855  10.721
51859W        W17020  11.537  17.160  11.643
51860W        W17021  36.702  24.036  11.486
51861W        W17022  26.688   6.649  11.975
51862W        W17023  35.246   4.669   0.928
51863W        W17024   0.854  27.220  14.502
51864W        W17025  20.851  33.355   2.641
51865W        W17026  10.842  36.819   3.701
51866W        W17027  28.657  24.647  13.382
51867W        W17028  16.799  38.965  14.367
51868W        W17029  33.687  12.004   2.245
51869W        W17030  15.304  35.310  11.570
51870W        W17031  20.808   0.222   4.363
51871W        W17032  36.085  39.334   1.853
51872W        W17033  41.742  34.888   4.064
51873W        W17034  43.898   3.462   2.654
51874W        W17035  24.174  10.137   2.587
51875W        W17036   2.278  10.219  10.666
51876W        W17037   4.829  29.961   1.401
51877W        W17038  34.097  10.081  14.731
51878W        W17039  42.873   8.795  13.755
51879W        W17040  10.556  25.089  13.464
51880W        W17041  33.308  11.247   2.857
51881W        W17042  40.352  41.153   0.420
51882W        W17043   1.914  21.625   4.324
51883W        W17044  19.841  21.248  14.658
51884W        W17045  35.035  28.321  10.076
51885W        W17046  44.993  43.246   0.388
51886W        W17047  38.840  15.387  14.258
51887W        W17048  30.564  20.685   1.686
51888W        W17049  29.176   0.533  13.821
51889W        W17050  21.590  23.144  14.293
51890W        W17051  42.072  39.353  14.099
51891W        W17052  11.708  36.333  10.556
51892W        W17053  18.708   8.309  14.940
51893W        W17054  40.844  22.684   3.899
51894W        W17055  15.545   1.338   0.783
51895W        W17056  24.315   9.102   1.636
51896W        W17057   4.890  42.433   1.784
51897W        W17058  29.614   4.132  11.108
51898W        W17059  44.535  38.593  13.405
51899W        W17060  42.409   7.963   0.292
51900W        W17061  14.177  30.466  14.973
51901W        W17062  44.404  12.652   4.683
51902W        W17063  38.231   0.293   3.759
51903W        W17064  28.707  20.547   4.805
51904W        W17065  15.782   1.034   1.128
51905W        W17066  17.168   2.484   4.483
51906W        W17067  23.204   7.311  11.009
51907W        W17068  24.501  21.785   2.763
51908W        W17069  39.429  39.239  13.997
51909W        W17070   1.007  37.068   2.305
51910W        W17071  27.104  31.415  12.013
51911W        W17072  31.963   8.368   4.303
51912W        W17073  26.050  42.469   3.283
51913W        W17074  32.112  42.469   3.693
51914W        W17075  13.915  19.057   1.954
51915W        W17076   8.281  21.727  11.514
51916W        W17077  41.423  10.114  11.982
51917W        W17078   7.240  35.300  11.510
51918W        W17079  24.606  38.780  13.864
51919W        W17080  25.460  23.944   4.040
51920W        W17081   4.409   2.075   0.459
51921W        W17082  34.814  38.910   2.864
51922W        W17083  35.988  30.851   2.682
51923W        W17084  30.462  43.911   4.640
51924W        W17085  12.656  24.066   2.119
51925W        W17086   0.521  18.790  12.832
51926W        W17087   2.991  22.468  13.451
51927W        W17088  16.512  33.102   1.349
51928W        W17089   4.257  17.707   0.386
51929W        W17090  30.672  31.020   3.572
51930W        W17091  32.090  14.832  11.398
51931W        W17092  14.738   6.159   9.909
51932W        W17093   5.903  19.837  13.160
51933W        W17094  34.498   8.840  13.485
51934W        W17095  10.849  29.553   3.920
51935W        W17096  39.926  13.439   0.008
51936W        W17097  26.741   9.220  13.278
51937W        W17098  20.041  10.443   4.552
51938W        W17099  22.442  35.515  12.068
51939W        W17100  31.019  43.954   1.678
51940W        W17101   4.462   6.337  14.802
51941W        W17102  24.089  37.031  11.708
51942W        W17103   3.787  33.470  11.053
51943W        W17104  13.080   7.657   4.099
51944W        W17105  16.567  30.032   1.301
51945W        W17106  44.921  19.521   1.186
51946W        W17107  20.777   2.832  14.875
51947W        W17108   0.055   9.202  11.943
51948W        W17109  28.899  38.409  10.332
51949W        W17110   4.982  12.383  13.514
51950W        W17111  32.022   2.913  14.163
51951W        W17112  43.540  10.438   3.205
51952W        W17113  41.355   1.241   0.015
51953W        W17114  38.782  14.028  10.726
51954W        W17115  15.663   8.598  12.390
51955W        W17116  33.880  22.033   0.303
51956W        W17117  39.775  15.656   2.851
51957W        W17118  18.667   6.788   1.684
51958W        W17119  15.972  35.760  13.009
51959W        W17120  31.115  36.328   4.023
51960W        W17121  10.696  27.641  10.742
51961W        W17122  32.336   7.376   0.277
51962W        W17123   1.250   6.364  11.655
51963W        W17124  16.599  17.436   4.932
51964W        W17125  44.324   8.411   5.300
51965W        W17126  12.636   0.790   4.881
51966W        W17127  34.899  20.241   4.471
51967W        W17128   5.843  35.423  14.067
51968W        W17129  32.774  34.796  11.993
51969W        W17130  16.765  37.136   1.252
51970W        W17131  28.547  30.541   1.770
51971W        W17132  28.386  14.086  11.575
51972W        W17133  37.467  22.542   1.048
51973W        W17134  32.076  36.534   3.626
51974W        W17135  39.589  26.266   4.182
51975W        W17136  27.989  35.563   1.685
51976W        W17137  11.800  13.305  12.667
51977W        W17138  15.441  36.574   2.251
51978W        W17139  10.121  14.307  10.777
51979W        W17140  31.165  33.568   1.941
51980W        W17141  16.599  25.057   3.487
51981W        W17142  37.543  29.713   0.833
51982W        W17143  23.402  44.554   3.356
51983W        W17144  38.047  30.959  12.141
51984W        W17145  30.013  22.105   4.079
51985W        W17146  11.805  19.712  11.862
51986W        W17147  35.057  13.222  13.317
51987W        W17148   3.350   9.233  13.798
51988W        W17149  16.314  22.960  11.616
51989W        W17150  19.142  22.697  11.920
51990W        W17151   1.806  18.751   4.319
51991W        W17152  30.695  28.394   3.269
51992W        W17153  36.130   2.198   3.696
51993W        W17154  42.696  37.819   4.917
51994W        W17155  44.779  40.512  14.794
51995W        W17156  44.022   4.958  11.452
51996W        W17157  31.799   8.850   4.258
51997W        W17158   2.620  37.940  13.385
51998W        W17159  44.728  16.145  13.547
51999W        W17160  19.093  33.107  14.610
52000W        W17161  15.939  23.243   2.067
52001W        W17162  26.906  26.359  12.508
52002W        W17163  12.122  15.759   2.843
52003W        W17164   8.400   7.858   1.396
52004W        W17165  32.195  13.839   0.222
52005W        W17166  40.855   1.478   0.921
52006W        W17167  14.223   8.699   4.215
52007W        W17168  22.665  35.693   2.315
52008W        W17169   2.304  30.214  10.528
52009W        W17170  34.958   1.288   3.640
52010W        W17171  43.889  11.705   3.794
52011W        W17172  15.771   1.673  13.066
52012W        W17173  13.375   1.404   4.308
52013W        W17174  42.419   9.970   3.235
52014W        W17175  41.524  28.839  12.031
52015W        W17176  28.897   3.924  14.568
52016W        W17177  20.345  25.257  12.023
52017W        W17178  14.664  13.261   4.954
52018W        W17179  37.249   5.587  11.085
52019W        W17180  25.514  22.541   1.947
52020W        W17181  12.215  20.664   2.692
52021W        W17182  12.759  22.248   0.384
52022W        W17183  37.433  20.511   4.571
52023W        W17184   1.932  14.793   4.142
52024W        W17185  31.030  10.011  13.489
52025W        W17186  17.094  36.000  14.271
52026W        W17187  44.358  14.035   1.420
52027W        W17188  31.140   8.084  12.816
52028W        W17189   3.213   7.708  14.313
52029W        W17190  43.325  34.148   4.138
52030W        W17191  33.011  16.883   3.182
52031W        W17192  12.217  44.680  14.873
52032W        W17193  34.927  22.829   4.435
52033W        W17194  16.807  22.247  11.646
52034W        W17195  10.638  30.316   1.277
52035W        W17196   7.170  19.926   1.277
52036W        W17197  37.075  32.883  14.311
52037W        W17198  37.026  24.946  12.136
52038W        W17199  41.529  26.153  11.323
52039W        W17200  27.669  20.415   2.870
52040W        W17201  42.396   5.772   1.888
52041W        W17202  15.582  14.780   0.253
52042W        W17203   6.719  33.497   3.181
52043W        W17204   2.580  25.592   3.254
52044W        W17205  26.086  20.254  11.965
52045W        W17206  43.646   5.675  11.085
52046W        W17207  38.320  19.866   0.959
52047W        W17208  26.263  43.693   2.964
52048W        W17209   2.026  15.243   5.136
52049W        W17210   0.500  15.242   3.254
52050W        W17211  43.907  38.994   0.742
52051W        W17212  34.054  41.622  12.616
52052W        W17213  17.729  10.819   4.721
52053W        W17214  16.095   0.601   2.302
52054W        W17215  40.144  30.551  10.726
52055W        W17216  44.960   5.791   2.298
52056W        W17217   1.432   0.990   3.999
52057W        W17218   3.063  27.122  12.295
52058W        W17219  13.796   2.986  12.062
52059W        W17220   2.635  10.150   4.212
52060W        W17221   7.892  25.008   2.657
52061W        W17222  17.683  13.738   2.972
52062W        W17223  15.568  27.755  12.587
52063W        W17224  20.034  13.887  11.643
52064W        W17225  31.510  37.071  13.363
52065W        W17226  29.644  30.084  14.737
52066W        W17227   8.127  39.546   0.889
52067W        W17228  44.897  21.850   2.290
52068W        W17229  28.153  14.545   2.389
52069W        W17230  44.957   6.318  11.481
52070W        W17231  31.020  25.367  13.017
52071W        W17232   2.689   2.272  11.093
52072W        W17233  39.572   5.827   1.526
52073W        W17234   6.323  24.287  13.847
52074W        W17235  42.800  23.934  14.295
52075W        W17236  35.363   9.680   0.766
52076W        W17237  30.514  14.521   5.134
52077W        W17238  26.572  29.906   1.719
52078W        W17239  37.124  32.497  12.869
52079W        W17240  41.403  37.330  14.965
52080W        W17241  41.257  11.286   3.860
52081W        W17242   3.904   0.170   0.987
52082W        W17243  36.963  13.802   2.776
52083W        W17244   2.729  29.237   4.132
52084W        W17245  37.742  11.568   3.095
52085W        W17246  15.770  34.655   2.680
52086W        W17247  29.649   0.273  12.114
52087W        W17248  23.946  28.917  13.857
52088W        W17249  19.706  15.733  11.911
52089W        W17250  28.308  44.099   0.250
52090W        W17251  30.335  43.414   4.542
52091W        W17252  30.588   8.455  12.104
52092W        W17253  28.064  32.912  11.661
52093W        W17254  42.298  28.533  13.965
52094W        W17255  42.909  34.321  13.659
52095W        W17256  22.446   4.822   4.159
52096W        W17257  13.740  22.130  12.627
52097W        W17258   6.972   0.943  11.989
52098W        W17259  15.532  42.959  12.382
52099W        W17260  30.970   2.049   2.808
52100W        W17261  18.159   9.824   3.878
52101W        W17262  26.270  42.373   2.827
52102W        W17263  15.631  34.088   1.973
52103W        W17264  27.812  40.037  11.209
52104W        W17265   1.332  43.302  12.999
52105W        W17266  32.405  32.457  12.547
52106W        W17267   1.790  28.314   0.659
52107W        W17268   5.887  19.305  13.089
52108W        W17269   6.336  27.732   5.569
52109W        W17270  21.711  11.533  10.613
52110W        W17271  39.641  37.320  13.807
52111W        W17272  15.171  10.653   4.746
52112W        W17273  26.735   3.915  14.947
52113W        W17274  41.946  16.229   4.755
52114W        W17275  32.585  17.313   1.682
52115W        W17276  43.622  37.118   3.355
52116W        W17277  27.670   8.962  11.970
52117W        W17278   4.714  37.001  13.332
52118W        W17279  21.224   0.785  11.179
52119W        W17280   1.036  14.588  14.853
52120W        W17281  30.529  35.520  13.323
52121W        W17282  20.348   7.251  11.573
52122W        W17283  33.780  33.464   5.066
52123W        W17284  11.698  35.465   3.983
52124W        W17285  10.325  31.749   9.881
52125W        W17286   2.892   2.778  10.751
52126W        W17287  34.830  19.578   0.722
52127W        W17288  42.563  13.280  13.813
52128W        W17289   5.998  16.463   2.731
52129W        W17290  33.647  43.035   3.195
52130W        W17291  38.520  31.679   4.765
52131W        W17292  13.410  28.679  12.449
52132W        W17293  12.463  40.057   5.072
52133W        W17294  17.294   8.889  13.796
52134W        W17295  35.432   2.845  14.912
52135W        W17296  15.966  13.736   2.339
52136W        W17297   8.299  37.047   4.766
52137W        W17298   7.573  27.572  10.281
52138W        W17299  22.123  22.722   2.453
52139W        W17300  16.376  36.433   0.880
52140W        W17301  23.949   4.624  13.038
52141W        W17302  32.445  31.975  13.510
52142W        W17303   1.685  36.487  14.023
52143W        W17304   9.256   9.682  13.400
52144W        W17305  27.151  37.527  12.080
52145W        W17306  16.611  32.464   0.092
52146W        W17307   8.936   5.134   4.428
52147W        W17308   5.175  19.209  10.577
52148W        W17309   5.737   6.503  10.557
52149W        W17310  15.864  38.516   0.986
52150W        W17311  17.711  35.607   3.298
52151W        W17312  42.384  20.701   3.607
52152W        W17313  44.560  41.386   3.738
52153W        W17314  13.531  30.642   3.631
52154W        W17315  32.888  36.802   9.955
52155W        W17316  37.107  18.233   3.350
52156W        W17317  41.838  34.969  12.963
52157W        W17318  29.681  19.243   4.048
52158W        W17319  40.439  39.002  14.741
52159W        W17320   4.055   0.783  11.378
52160W        W17321   3.998  14.576  10.975
52161W        W17322  13.852   3.940   1.384
52162W        W17323   9.678   7.920  14.434
52163W        W17324  30.941  16.382  11.534
52164W        W17325   7.737  13.574  11.628
52165W        W17326   6.506  32.050  12.070
52166W        W17327  33.162  43.419  14.371
52167W        W17328   3.169   8.337  12.094
52168W        W17329   3.730   7.276  11.169
52169W        W17330  44.770  28.553  13.333
52170W        W17331  10.406  43.970   2.383
52171W        W17332  13.732  14.808  11.215
52172W        W17333   3.856  24.093  13.416
52173W        W17334  25.251  18.510   0.755
52174W        W17335  10.228  25.523  14.257
52175W        W17336   2.635  12.618   0.311
52176W        W17337   3.518  12.230  14.933
52177W        W17338  44.907  42.501   1.840
52178W        W17339   0.017  39.249   3.185
52179W        W17340  41.054  34.840   0.965
52180W        W17341  22.252  20.263  14.915
52181W        W17342  14.855   3.774  13.542
52182W        W17343  28.976  37.899  12.206
52183W        W17344  39.724  37.644   0.695
52184W        W17345  17.711  17.748   1.558
52185W        W17346  13.115  22.144  10.668
52186W        W17347  34.696  40.158  10.193
52187W        W17348   8.778  13.794  10.959
52188W        W17349  27.120  33.982  10.995
52189W        W17350  19.801  13.897  12.965
52190W        W17351  31.071  44.517   4.096
52191W        W17352  22.995  20.180  10.698
52192W        W17353   3.698  36.763  11.814
52193W        W17354  34.484  35.763   1.216
52194W        W17355  28.616  13.217   4.145
52195W        W17356  13.696   6.461  14.555
52196W        W17357  24.147  30.474   0.626
52197W        W17358   5.450  16.043  13.467
52198W        W17359  19.919   5.835   3.942
52199W        W17360   7.761   2.058  11.078
52200W        W17361  16.223  17.308   2.137
52201W        W17362  38.684   1.770   2.768
52202W        W17363  37.088   3.871  13.565
52203W        W17364  19.704  15.332   2.128
52204W        W17365  20.111  30.020   4.211
52205W        W17366  19.459   7.629   1.208
52206W        W17367  16.412  31.592  11.994
52207W        W17368  14.328   8.216   3.667
52208W        W17369  10.108  44.929   2.773
52209W        W17370  29.572  15.570   1.875
52210W        W17371  11.619  11.320  12.892
52211W        W17372  44.380  20.275   1.504
52212W        W17373  23.289   4.953   0.635
52213W        W17374  14.243  24.165  12.089
52214W        W17375  30.650   0.219   0.357
52215W        W17376  38.342  27.913   1.619
52216W        W17377  30.649  38.901   1.306
52217W        W17378  19.826  35.914   3.259
52218W        W17379   4.979  38.844   1.934
52219W        W17380  25.954  22.751  14.315
52220W        W17381  24.546   6.362  10.966
52221W        W17382  16.154   4.649  11.443
52222W        W17383   7.716  24.797   4.554
52223W        W17384  35.432   9.947  12.510
52224W        W17385  17.241   4.333   4.146
52225W        W17386  11.869  12.330   2.877
52226W        W17387  34.449  25.528   1.738
52227W        W17388  15.119  42.264   2.522
52228W        W17389  22.611  17.761  10.019
52229W        W17390   1.447  16.723  11.611
52230W        W17391  20.588   2.812  11.587
52231W        W17392  34.369   9.701   1.893
52232W        W17393  11.252  41.712  11.487
52233W        W17394  38.552  39.356   0.696
52234W        W17395  11.244  28.886  11.119
52235W        W17396  31.825   9.723  12.537
52236W        W17397  24.477  17.505  13.836
52237W        W17398  29.635  30.137   4.641
52238W        W17399   0.655  16.657   3.995
52239W        W17400  25.970  14.826   2.178
52240W        W17401  31.985   1.052   2.834
52241W        W17402  32.704  26.463   3.782
52242W        W17403  16.811  29.492   4.115
52243W        W17404  34.067   4.074  11.442
52244W        W17405   9.303  16.614  12.380
52245W        W17406  36.525  39.788  14.416
52246W        W17407  17.145   3.199  13.900
52247W        W17408  23.973  41.766  11.186
52248W        W17409  16.664  38.157   4.074
52249W        W17410  12.919  28.845  13.630
52250W        W17411  36.938  41.273  14.752
52251W        W17412  28.675  11.376  12.418
52252W        W17413  23.034  43.816  10.508
52253W        W17414  21.705  35.143  13.399
52254W        W17415  16.723  21.799  10.745
52255W        W17416   4.223  26.895  13.992
52256W        W17417  41.503  14.572  14.816
52257W        W17418  17.529  18.042  12.991
52258W        W17419   2.653  35.539   0.289
52259W        W17420  41.497   9.658  13.422
52260W        W17421  19.271  10.798   3.622
52261W        W17422  31.486  12.714  10.605
52262W        W17423  18.624  19.760  13.023
52263W        W17424   1.819   6.316   0.965
52264W        W17425  19.330  13.493   3.321
52265W        W17426  27.925   5.472   1.917
52266W        W17427   5.870  27.433   1.770
52267W        W17428  26.193  22.086   4.467
52268W        W17429  27.662  15.592  13.802
52269W        W17430  18.711  37.302  14.738
52270W        W17431  15.054  33.138   4.025
52271W        W17432  29.695  40.847   4.050
52272W        W17433  36.239   0.335   2.747
52273W        W17434  40.308  24.759  13.995
52274W        W17435  26.126  16.899   4.569
52275W        W17436   0.999  28.316   1.253
52276W        W17437  14.181  18.950   0.710
52277W        W17438  44.807  30.438  13.819
52278W        W17439  17.534   8.973   0.909
52279W        W17440   0.309  29.690  13.770
52280W        W17441  42.328  32.468   1.833
52281W        W17442  44.219  41.951  13.354
52282W        W17443  14.701  26.213   1.188
52283W        W17444   0.299  37.559  13.329
52284W        W17445  27.519  39.831   0.964
52285W        W17446  44.375   4.409   0.610
52286W        W17447  18.140  27.432   3.343
52287W        W17448  21.736   3.763  13.813
52288W        W17449   8.451  40.101  13.466
52289W        W17450   1.836   2.821  11.975
52290W        W17451  11.282  15.253  13.784
52291W        W17452  23.600  17.840   2.660
52292W        W17453  36.325  30.517   5.133
52293W        W17454  39.002  31.457  11.983
52294W        W17455  44.167  44.727  12.778
52295W        W17456   7.231  24.908  13.408
52296W        W17457   8.062  33.902   0.252
52297W        W17458  11.228  16.091  13.095
52298W        W17459   5.947   0.670   1.853
52299W        W17460  30.158  33.142  14.010
52300W        W17461  13.344   9.744   4.142
52301W        W17462  31.422  23.498   2.580
52302W        W17463  34.147   9.927  11.108
52303W        W17464   4.259  19.928   4.110
52304W        W17465  17.352  17.965  11.117
52305W        W17466  44.996  16.325  13.110
52306W        W17467   6.095   8.213   1.183
52307W        W17468  20.225  27.205  12.017
52308W        W17469  16.233  42.902   4.484
52309W        W17470  30.355  33.354   4.423
52310W        W17471   2.575  13.219  12.044
52311W        W17472  16.664  26.154   1.478
52312W        W17473  16.444  40.284   0.989
52313W        W17474   8.392  29.590  11.321
52314W        W17475  30.017   5.947  12.019
52315W        W17476  43.399  34.029   3.249
52316W        W17477  31.651  30.079   1.296
52317W        W17478  33.095  25.132   1.451
52318W        W17479  39.359  15.252  11.654
52319W        W17480  41.702  31.915  10.807
52320W        W17481   2.775   3.445   1.943
52321W        W17482   5.848  28.503   3.201
52322W        W17483  17.221  29.679   1.781
52323W        W17484  40.464   0.851   3.184
52324W        W17485  10.586  31.972   3.609
52325W        W17486  18.107   4.226  13.762
52326W        W17487  16.824  37.689  11.918
52327W        W17488  21.573  35.278   1.759
52328W        W17489  31.012  43.280  10.726
52329W        W17490   8.114  26.129   3.759
52330W        W17491  16.377  10.341   0.848
52331W        W17492   2.548  33.876  14.833
52332W        W17493  26.049   5.592   4.596
52333W        W17494   1.461  41.191   4.288
52334W        W17495  44.081  12.347  13.984
52335W        W17496   6.231  15.888  14.761
52336W        W17497  27.109  20.993  12.361
52337W        W17498   1.927  16.850   2.241
52338W        W17499  24.089   0.846   3.087
52339W        W17500  39.792  24.511   3.553
52340W        W17501  27.621  43.846  14.523
52341W        W17502  31.229  35.331   0.735
52342W        W17503   3.239  34.880  10.338
52343W        W17504  25.510  31.964   2.299
52344W        W17505   5.618  36.959  10.597
52345W        W17506  33.412  27.793  13.433
52346W        W17507   6.364  25.670   1.923
52347W        W17508  37.368   0.806  14.018
52348W        W17509   1.460  40.030  11.956
52349W        W17510  41.401   2.940  14.195
52350W        W17511  33.784  14.111   0.840
52351W        W17512  38.919   0.980   4.111
52352W        W17513  36.969  31.065  14.827
52353W        W17514  39.367  12.608   2.732
52354W        W17515   3.757  19.970   3.881
52355W        W17516  25.482   5.701   0.931
52356W        W17517  40.480  25.037   0.064
52357W        W17518  26.719  35.188   5.036
52358W        W17519  44.524  42.400  11.590
52359W        W17520  24.787   2.948  10.926
52360W        W17521  19.601  40.338   0.006
52361W        W17522  37.426  38.570   0.923
52362W        W17523   7.705  23.528   4.176
52363W        W17524   6.331  35.376   3.987
52364W        W17525   1.037  31.378  14.618
52365W        W17526  37.468  40.229   3.375
52366W        W17527  26.618  42.971  11.984
52367W        W17528  26.983  28.947   0.232
52368W        W17529  11.410  15.788  12.020
52369W        W17530  35.220   0.949   0.873
52370W        W17531  16.581  17.069   9.730
52371W        W17532  14.907  14.176   1.894
52372W        W17533   1.018  44.360  14.110
52373W        W17534   0.944  18.018   1.381
52374W        W17535  40.933  38.309   5.079
52375W        W17536  42.468  21.716  12.583
52376W        W17537   0.351  11.059   1.364
52377W        W17538  18.635  25.171   3.621
52378W        W17539  38.881  23.667  13.434
52379W        W17540  38.505  40.311  13.392
52380W        W17541  42.872  31.704   1.785
52381W        W17542  29.361  11.323  13.833
52382W        W17543  22.180  26.434   3.151
52383W        W17544  33.145  15.180  11.450
52384W        W17545   0.925  33.409  11.327
52385W        W17546  30.033  34.108   3.256
52386W        W17547   4.624  33.316   0.916
52387W        W17548  17.847  26.709   1.628
52388W        W17549  25.648   4.314  10.466
52389W        W17550  10.843  16.138  14.065
52390W        W17551  19.578  10.913   1.182
52391W        W17552   1.934  41.449   1.225
52392W        W17553  21.006  38.986  14.004
52393W        W17554  42.560  36.093   1.248
52394W        W17555  34.872  16.246   4.079
52395W        W17556   5.789  20.066   3.656
52396W        W17557  41.527  11.154   2.487
52397W        W17558  16.324  19.152   1.617
52398W        W17559  38.387  34.912  14.530
52399W        W17560   6.743  25.081  14.255
52400W        W17561  19.730   0.533  14.450
52401W        W17562  42.316  29.892  10.747
52402W        W17563  36.903  37.089  13.175
52403W        W17564   3.463   8.665   4.512
52404W        W17565  14.984   3.247   5.095
52405W        W17566  16.950  26.479   4.499
52406W        W17567  26.076   3.965  13.241
52407W        W17568   4.038  41.684  13.028
52408W        W17569  25.146   2.911  10.546
52409W        W17570  22.766  11.132   1.571
52410W        W17571  27.998   4.212  13.546
52411W        W17572  31.501   4.318   0.380
52412W        W17573   6.701  23.747  14.505
52413W        W17574   5.688  23.547  13.502
52414W        W17575   0.972  42.460   5.084
52415W        W17576  31.028   3.284   4.741
52416W        W17577  23.239   0.888  13.562
52417W        W17578   1.783  11.086  11.554
52418W        W17579  13.950  31.155   1.855
52419W        W17580  31.536  29.985  11.188
52420W        W17581  12.581  32.473   1.976
52421W        W17582  42.281  42.834   1.833
52422W        W17583  39.305  13.553   4.098
52423W        W17584  43.197   6.907   0.642
52424W        W17585  26.601  34.790   4.118
52425W        W17586  29.222  30.328  14.929
52426W        W17587  22.108   9.175  14.798
52427W        W17588  35.594  40.759   3.164
52428W        W17589  10.916  12.183   1.356
52429W        W17590  15.613  24.099   1.649
52430W        W17591   0.227  15.913  12.856
52431W        W17592  15.836  42.911  13.309
52432W        W17593   1.291   0.436  12.841
52433W        W17594  27.980  44.761   2.862
52434W        W17595   9.898   7.589   3.210
52435W        W17596  14.778  42.515   0.449
52436W        W17597   1.190  34.651   2.228
52437W        W17598  11.569   2.224   4.145
52438W        W17599  20.618   8.437  13.354
52439W        W17600  27.953   3.717   4.123
52440W        W17601  41.499  16.216   5.061
52441W        W17602  35.498  39.975   1.619
52442W        W17603  15.221  26.412   1.231
52443W        W17604  34.571  20.715  12.954
52444W        W17605   1.613  44.646   3.329
52445W        W17606  10.992  10.915  11.045
52446W        W17607  29.315  35.149  12.886
52447W        W17608  12.133   4.661   2.283
52448W        W17609   6.325   7.411   3.124
52449W        W17610  13.504  21.181  10.674
52450W        W17611  41.875   4.936  14.010
52451W        W17612  23.095  23.504   1.652
52452W        W17613   6.782   5.733  12.510
52453W        W17614  28.317  30.371  10.989
52454W        W17615  39.732  28.988  11.562
52455W        W17616   2.835  42.439   2.875
52456W        W17617  23.194  34.812   0.679
52457W        W17618  19.628  24.925  14.317
52458W        W17619   3.318   8.595   0.196
52459W        W17620  16.588  37.833   0.958
52460W        W17621   5.029  33.373  10.580
52461W        W17622   6.788  32.876   0.040
52462W        W17623  31.596  22.757   0.459
52463W        W17624   3.914  13.581   3.772
52464W        W17625  18.912  35.116  11.576
52465W        W17626   2.844   6.737   4.589
52466W        W17627  35.326  19.660  14.817
52467W        W17628   5.367   0.781  13.581
52468W        W17629  22.029  20.985  10.159
52469W        W17630  29.916   4.729   3.865
52470W        W17631  29.178   0.209  12.872
52471W        W17632  28.472  39.948  11.595
52472W        W17633  28.980  12.387   2.629
52473W        W17634  16.751  38.452  12.730
52474W        W17635  18.591  34.635   0.879
52475W        W17636  35.856   7.151  13.362
52476W        W17637  19.027  15.658   0.433
52477W        W17638  36.988  34.665  12.606
52478W        W17639  18.699  32.871   0.441
52479W        W17640  22.218  29.114   1.002
52480W        W17641  16.022  44.883  13.141
52481W        W17642  16.812  15.208   1.275
52482W        W17643   4.781   7.726   2.428
52483W        W17644   1.799  34.920  10.498
52484W        W17645  31.588   9.632   3.669
52485W        W17646  27.564  27.514   2.129
52486W        W17647   1.118  32.989   4.876
52487W        W17648  40.997  20.477   0.516
52488W        W17649  29.602  19.367   4.538
52489W        W17650  33.879   2.900  12.783
52490W        W17651  31.298   2.303  12.042
52491W        W17652   5.361  27.940  13.757
52492W        W17653  23.620  40.645   1.791
52493W        W17654  26.512   8.614   2.805
52494W        W17655  17.630  12.598  11.089
52495W        W17656  32.110   0.325   0.801
52496W        W17657  11.914   7.692   2.313
52497W        W17658  33.696  29.586  12.109
52498W        W17659  42.268   4.657   3.798
52499W        W17660  34.528   6.204   1.695
52500W        W17661  35.934  37.347  13.504
52501W        W17662  34.418  39.821  13.892
52502W        W17663  36.898  43.733  12.043
52503W        W17664   2.716  22.660   0.884
52504W        W17665  43.273  32.515   0.685
52505W        W17666  22.362  24.607   1.236
52506W        W17667  20.661   8.665   0.679
52507W        W17668  22.080  40.441  14.008
52508W        W17669  30.092  20.814   3.799
52509W        W17670  27.352  13.695  11.052
52510W        W17671  23.260  25.441  14.503
52511W        W17672  12.853  13.851  12.404
52512W        W17673  25.733  36.492  14.240
52513W        W17674  16.130  31.567  12.925
52514W        W17675   9.143  15.681   0.363
52515W        W17676  11.217  43.457  11.152
52516W        W17677  11.902   0.448   1.758
52517W        W17678  33.668  34.856   1.409
52518W        W17679  24.991  17.140  10.727
52519W        W17680  14.472  15.833   0.907
52520W        W17681   5.825  41.607   1.354
52521W        W17682   1.441  25.104  10.194
52522W        W17683  24.225   8.394  12.924
52523W        W17684  39.752   5.265   1.667
52524W        W17685   5.763  14.576  13.540
52525W        W17686  24.655   4.092   3.851
52526W        W17687  19.163  18.813  10.913
52527W        W17688  21.756  32.454   4.500
52528W        W17689  24.169  39.576  13.567
52529W        W17690  10.197   4.286  10.373
52530W        W17691  20.594  13.583  11.928
52531W        W17692  36.291  31.574  12.358
52532W        W17693   1.467  44.075  14.107
52533W        W17694   1.191   4.255  11.188
52534W        W17695  39.987  17.495  11.423
52535W        W17696  21.901   8.899   4.127
52536W        W17697  24.121  38.574   0.461
52537W        W17698  41.060   1.270  11.899
52538W        W17699  20.789   6.162   4.359
52539W        W17700  43.853  20.543   3.079
52540W        W17701   7.663  26.442   1.252
52541W        W17702  15.777  28.372  11.978
52542W        W17703  14.475  11.003  14.412
52543W        W17704  23.083   1.976   0.669
52544W        W17705  13.169  26.595   4.501
52545W        W17706  32.807  12.152  11.550
52546W        W17707  41.234  17.608  12.381
52547W        W17708  13.380  15.041   3.857
52548W        W17709  29.986  38.452   2.968
52549W        W17710   2.061  35.788  12.267
52550W        W17711  22.272  17.408   5.177
52551W        W17712   3.362  18.586   3.174
52552W        W17713  27.077  44.780  13.961
52553W        W17714  42.010  28.981  14.009
52554W        W17715  40.071   6.838  12.825
52555W        W17716  35.032  22.672  10.456
52556W        W17717  31.019  10.099   4.800
52557W        W17718  32.028  35.150   4.723
52558W        W17719  41.426  18.021   2.471
52559W        W17720  44.955   1.013   1.829
52560W        W17721  13.550  36.033  13.214
52561W        W17722  20.773   2.769   2.216
52562W        W17723  17.491  15.794  14.429
52563W        W17724   0.066  17.056   3.270
52564W        W17725  35.463   4.752   2.293
52565W        W17726   8.131  14.753   0.242
52566W        W17727   8.722  34.901   2.693
52567W        W17728  33.928  39.064   1.422
52568W        W17729  28.957  43.111   3.809
52569W        W17730  25.093   4.057   2.183
52570W        W17731  10.892  40.394   2.782
52571W        W17732  36.574   5.982   0.887
52572W        W17733  25.464  32.599   0.185
52573W        W17734  30.657  34.062  10.727
52574W        W17735  38.946  20.285  14.358
52575W        W17736  18.737  29.520   4.174
52576W        W17737  23.608  29.019   1.962
52577W        W17738  14.480  41.258   4.183
52578W        W17739  28.261  12.664   2.182
52579W        W17740   6.645   0.337   0.750
52580W        W17741  41.904   8.725   3.694
52581W        W17742  34.961  34.906   1.782
52582W        W17743  27.631  42.702   2.142
52583W        W17744  32.501  25.253   3.171
52584W        W17745  12.091  18.751   5.024
52585W        W17746  19.984   4.222  11.258
52586W        W17747   2.979  21.297  12.458
52587W        W17748   3.621   5.568  13.457
52588W        W17749  12.370  41.225   4.650
52589W        W17750  42.792  40.046   4.149
52590W        W17751  39.767  17.281   3.851
52591W        W17752  21.479  11.480  13.852
52592W        W17753  14.559  20.647   2.796
52593W        W17754  23.252  30.045   4.923
52594W        W17755  37.970   5.354   4.718
52595W        W17756  35.907  33.649  11.672
52596W        W17757  29.696   9.926   0.030
52597W        W17758   3.396   2.284  11.888
52598W        W17759  35.982   0.417  13.658
52599W        W17760  27.889  20.622  11.938
52600W        W17761   3.811   0.868   2.807
52601W        W17762  33.832  34.601   4.039
52602W        W17763  29.645  32.375   4.164
52603W        W17764  23.855  44.789  12.503
52604W        W17765  25.982  38.581   0.755
52605W        W17766  27.614   9.880   0.936
52606W        W17767  10.291  32.505   4.125
52607W        W17768  27.002   3.144   2.268
52608W        W17769  19.205   6.428   3.614
52609W        W17770   9.343  15.337  14.479
52610W        W17771   2.761   4.712   4.259
52611W        W17772  24.376  38.935   3.535
52612W        W17773  34.260  17.043  13.733
52613W        W17774  29.986  30.914  13.168
52614W        W17775   0.206  39.003  12.203
52615W        W17776  39.336  39.067  14.861
52616W        W17777   3.949  19.766   2.434
52617W        W17778  23.003  18.996  11.212
52618W        W17779  43.911  15.189   4.079
52619W        W17780   6.673  29.595  11.132
52620W        W17781   9.518  15.404  11.924
52621W        W17782  12.185   8.080   0.884
52622W        W17783  24.172  32.098  10.447
52623W        W17784  30.383  38.548  12.027
52624W        W17785  43.693   7.703  13.912
52625W        W17786  11.974  26.476  12.068
52626W        W17787  31.529  40.290   1.170
52627W        W17788  28.186  15.579  12.849
52628W        W17789  41.228  17.125   0.445
52629W        W17790   7.814  31.411   2.002
52630W        W17791   3.937  38.044  11.918
52631W        W17792  30.398  28.162  13.971
52632W        W17793  17.582  36.567  10.696
52633W        W17794   4.289  10.828  10.638
52634W        W17795  17.399  35.102  13.802
52635W        W17796  16.372   7.840   3.217
52636W        W17797  20.607  22.755   1.537
52637W        W17798  39.629   8.285   1.953
52638W        W17799  12.525   8.827   3.858
52639W        W17800  24.396  15.782  10.610
52640W        W17801  23.519  31.241   2.745
52641W        W17802   1.936  32.433  14.477
52642W        W17803   8.644  10.223   2.411
52643W        W17804  21.095  38.504  12.810
52644W        W17805  10.063  38.389  12.445
52645W        W17806   0.314  26.976  12.512
52646W        W17807  29.340  39.551   2.679
52647W        W17808  36.133  20.712  12.580
52648W        W17809  35.344  25.078   1.344
52649W        W17810  27.906  36.245   0.181
52650W        W17811  13.211  19.718   4.449
52651W        W17812  40.999  26.864   3.846
52652W        W17813  29.089  31.935   1.352
52653W        W17814  28.894  41.108  13.086
52654W        W17815  20.275  44.571   2.042
52655W        W17816  23.947   0.216   4.570
52656W        W17817  18.488   8.317  12.047
52657W        W17818  18.711  29.434   3.674
52658W        W17819  13.547   2.010  13.605
52659W        W17820  28.577  41.602  10.668
52660W        W17821  11.843  33.107  11.539
52661W        W17822  29.841  11.381  13.625
52662W        W17823  31.148  31.354  12.796
52663W        W17824  34.465  22.005   2.041
52664W        W17825  34.293  21.360  10.146
52665W        W17826  35.490  10.752  14.233
52666W        W17827   4.272  29.983  13.509
52667W        W17828  27.787  35.850  14.804
52668W        W17829  38.399  17.035   3.851
52669W        W17830  31.474  25.403   3.628
52670W        W17831   8.237   7.377  13.054
52671W        W17832  34.879  36.874   2.866
52672W        W17833  11.688  40.343   3.449
52673W        W17834   2.701   7.191   3.669
52674W        W17835  38.279  33.611   3.444
52675W        W17836  25.428   9.361  12.950
52676W        W17837  38.217   9.646  10.894
52677W        W17838  13.830   0.873   0.267
52678W        W17839  28.156   8.941  13.444
52679W        W17840  38.483   4.422  13.922
52680W        W17841  31.664  43.758   0.857
52681W        W17842  17.605  13.865   1.172
52682W        W17843  15.811   7.256   0.718
52683W        W17844   6.037  10.624   0.828
52684W        W17845   4.317   4.699   1.284
52685W        W17846   4.381  21.692   2.468
52686W        W17847   9.842  18.100  14.317
52687W        W17848  35.460  16.741  14.805
52688W        W17849  30.848   4.494  13.888
52689W        W17850  17.369  44.459   1.289
52690W        W17851  11.869  36.501  14.613
52691W        W17852  44.514  10.306  13.014
52692W        W17853  28.930   5.306  10.572
52693W        W17854   0.792  28.276  11.194
52694W        W17855  33.935  29.373   2.819
52695W        W17856   1.384  10.344   4.872
52696W        W17857  15.169  17.009  12.452
52697W        W17858  28.205  42.865   0.026
52698W        W17859  32.423  30.623  10.722
52699W        W17860  35.682  34.411  10.538
52700W        W17861  42.742   7.833   2.384
52701W        W17862  43.008   5.004  12.355
52702W        W17863  20.140  28.890   9.996
52703W        W17864   8.281  32.067  14.821
52704W        W17865  14.715  32.601   2.126
52705W        W17866  14.157  37.934  10.993
52706W        W17867  30.394  19.430   1.367
52707W        W17868  44.417  22.423  14.435
52708W        W17869  16.561  16.817   4.501
52709W        W17870  14.850   4.031  12.031
52710W        W17871   5.047  28.805  14.841
52711W        W17872  23.505  24.775  10.266
52712W        W17873   1.190  28.649  13.536
52713W        W17874  39.819  29.548   2.857
52714W        W17875  34.928  12.725  13.071
52715W        W17876  28.633   4.952   4.514
52716W        W17877  35.386  22.242   4.112
52717W        W17878  15.268  25.911   2.765
52718W        W17879  23.009  24.505   2.795
52719W        W17880  24.991  14.642  14.939
52720W        W17881  24.142  44.705   2.839
52721W        W17882  24.644  24.346   1.301
52722W        W17883  27.403  42.911  14.079
52723W        W17884  11.959  39.328   4.272
52724W        W17885  29.727  25.942   2.826
52725W        W17886  40.080   1.934   4.431
52726W        W17887   7.779  14.328  13.965
52727W        W17888   6.437  29.923   3.293
52728W        W17889   0.011  44.007   0.009
52729W        W17890  19.217  41.553   1.782
52730W        W17891  39.585   7.319   1.259
52731W        W17892  38.191  37.427  11.980
52732W        W17893   3.954  12.138   3.863
52733W        W17894  33.007  14.748  11.124
52734W        W17895  23.507  11.481   5.415
52735W        W17896  26.679  29.471   5.270
52736W        W17897  44.754   8.399  13.960
52737W        W17898  35.836   8.773   0.824
52738W        W17899  27.143  28.289   4.042
52739W        W17900   7.149  39.331   2.438
52740W        W17901  33.142  27.158   0.898
52741W        W17902  24.474  31.022   2.191
52742W        W17903  22.254  28.076   0.780
52743W        W17904  20.612  37.523  10.838
52744W        W17905  36.417  25.179   3.799
52745W        W17906  17.247  39.350  11.295
52746W        W17907  30.083  41.000   0.815
52747W        W17908  28.934  13.938  14.968
52748W        W17909  36.922  27.121   3.575
52749W        W17910  15.611   1.266  14.832
52750W        W17911  30.971  25.000  11.216
52751W        W17912  11.312  37.830  11.470
52752W        W17913  24.462   5.317  11.150
52753W        W17914  11.839  42.457  13.839
52754W        W17915  10.140  15.673   2.860
52755W        W17916  33.380  14.629  10.592
52756W        W17917  18.086  20.009  14.345
52757W        W17918  32.153  20.147  11.077
52758W        W17919   7.958   8.642   2.278
52759W        W17920  31.903  17.159   1.391
52760W        W17921  13.645   4.012  14.035
52761W        W17922  22.665  21.936   1.007
52762W        W17923  19.163  27.031   4.470
52763W        W17924  43.594  26.468   2.270
52764W        W17925  14.034  37.321   1.796
52765W        W17926  39.272  15.355  14.534
52766W        W17927   9.265  15.198   0.971
52767W        W17928  18.781  24.787  12.924
52768W        W17929   7.464  35.659   2.513
52769W        W17930  27.371  34.789   4.310
52770W        W17931  11.300  19.060  10.636
52771W        W17932   5.805   5.326   4.138
52772W        W17933  37.908  19.162  10.764
52773W        W17934  33.086  43.377   1.415
52774W        W17935  42.501  35.512   3.297
52775W        W17936  28.489  30.447   4.891
52776W        W17937  16.551   9.268  10.935
52777W        W17938   4.093  34.180   4.417
52778W        W17939  41.249  13.124   4.196
52779W        W17940  27.566   2.173   1.243
52780W        W17941   7.777  25.182  13.350
52781W        W17942  41.810  14.562   2.282
52782W        W17943  26.491  27.113  11.496
52783W        W17944   9.263  38.951  14.337
52784W        W17945  28.937  32.295  14.292
52785W        W17946  31.549  14.861  12.079
52786W        W17947  18.239  41.058  14.235
52787W        W17948  37.395   7.905  13.384
52788W        W17949  18.650  41.565   0.315
52789W        W17950  42.979   7.806  14.075
52790W        W17951  39.767  28.650   4.342
52791W        W17952   0.849  26.220   3.855
52792W        W17953   6.688   6.234   3.744
52793W        W17954  17.271  31.073  13.995
52794W        W17955   3.740   5.745   3.298
52795W        W17956  10.310  31.992  10.620
52796W        W17957   1.200  33.424   0.847
52797W        W17958  19.907  34.853   3.622
52798W        W17959  39.476   0.703   0.476
52799W        W17960  34.400  22.210  11.512
52800W        W17961  14.325   5.297  12.070
52801W        W17962  33.574   0.449   0.847
52802W        W17963  14.554  19.232   2.842
52803W        W17964   8.766   4.149  14.720
52804W        W17965  27.845  30.068   2.912
52805W        W17966  37.882  19.201  14.839
52806W        W17967  22.385  11.081  13.850
52807W        W17968  21.480   7.329   1.689
52808W        W17969  37.470   4.949   4.085
52809W        W17970  31.091   3.560   2.459
52810W        W17971  13.783  43.402  10.532
52811W        W17972  10.666  40.757  12.505
52812W        W17973  15.216  37.787   0.766
52813W        W17974  25.938  25.223  14.467
52814W        W17975  38.765  42.540   3.669
52815W        W17976  34.555   6.134  10.458
52816W        W17977  38.588  16.258  11.266
52817W        W17978  42.890  16.548   4.032
52818W        W17979  35.077  13.118   3.784
52819W        W17980  10.064   7.128   3.448
52820W        W17981  40.840  24.186   3.764
52821W        W17982  36.804  25.423  12.182
52822W        W17983  32.445  22.544  10.278
52823W        W17984  42.957  35.835   1.445
52824W        W17985  43.699  38.542   1.440
52825W        W17986  24.920   3.567  12.381
52826W        W17987  41.340  11.590   4.281
52827W        W17988  21.639  26.010  12.706
52828W        W17989  35.459   7.900   0.320
52829W        W17990  24.040  23.973   3.089
52830W        W17991  25.457   0.670  14.893
52831W        W17992  10.636  18.207   3.715
52832W        W17993  42.012  30.568  12.031
52833W        W17994  30.516  26.229   5.063
52834W        W17995  11.207  33.923  13.914
52835W        W17996  10.221  27.603   4.649
52836W        W17997   1.483  32.349  13.420
52837W        W17998   2.287  40.335  14.309
52838W        W17999   8.304  36.469  14.787
52839W        W18000  17.980   0.010  11.938
52840W        W18001  13.614  37.496   4.417
52841W        W18002  44.326  38.836   3.106
52842W        W18003  14.550   8.202  13.100
52843W        W18004  19.640  39.417  12.939
52844W        W18005  34.680  44.001   0.938
52845W        W18006   3.437  36.331  11.622
52846W        W18007  28.137  44.984  11.935
52847W        W18008   3.712   0.167  14.935
52848W        W18009   4.343   3.709  13.522
52849W        W18010  31.286  33.263  10.351
52850W        W18011  11.183   3.003   0.702
52851W        W18012  21.509  33.019  14.081
52852W        W18013  23.181  10.459  10.330
52853W        W18014  32.807  23.024   3.291
52854W        W18015   0.090  16.115   0.449
52855W        W18016  23.058  12.562  14.428
52856W        W18017  11.786  37.241   1.808
52857W        W18018  43.383  35.461  11.242
52858W        W18019   3.005  37.240   4.580
52859W        W18020  35.080  20.313  11.978
52860W        W18021  17.689  32.558  11.754
52861W        W18022  19.247   1.086  14.038
52862W        W18023  42.260  12.702   3.780
52863W        W18024   5.226  13.388  14.853
52864W        W18025  31.390  33.978   3.330
52865W        W18026  44.649   1.344   2.851
52866W        W18027  23.482  34.120  14.709
52867W        W18028  43.406  14.372  13.642
52868W        W18029  16.194  34.775   2.315
52869W        W18030   9.700   8.106  11.954
52870W        W18031  43.813  42.700  12.150
52871W        W18032   0.827  22.559   4.369
52872W        W18033  40.593  10.826  12.317
52873W        W18034  15.373  18.330  14.320
52874W        W18035  17.018  38.969   9.968
52875W        W18036  17.625   4.905   2.096
52876W        W18037  31.029  23.618  11.284
52877W        W18038  26.864  34.516   0.746
52878W        W18039  28.659   7.294   2.791
52879W        W18040   3.001  34.787   2.587
52880W        W18041  23.385  39.432  14.280
52881W        W18042  33.534  41.487   3.266
52882W        W18043   6.000  35.877   3.338
52883W        W18044   0.828  37.833   3.611
52884W        W18045  12.679  22.281  11.470
52885W        W18046  36.680  40.456  11.932
52886W        W18047  13.360  18.298  13.305
52887W        W18048  36.944  28.361  11.187
52888W        W18049   4.280  10.210   3.872
52889W        W18050   6.980  22.646   1.240
52890W        W18051  36.046  35.798   0.918
52891W        W18052   7.850  31.327  14.773
52892W        W18053  20.026  43.817   3.163
52893W        W18054   9.167  42.514   1.293
52894W        W18055  30.642  10.362  11.111
52895W        W18056   0.535  22.732   2.234
52896W        W18057  10.365  15.500  11.520
52897W        W18058   2.235  12.038   2.387
52898W        W18059  10.791  40.273  10.686
52899W        W18060  22.314  14.071  10.501
52900W        W18061   4.662  24.134  10.914
52901W        W18062   7.223  44.885   3.321
52902W        W18063  20.612  26.686   0.564
52903W        W18064   3.438  30.119   0.895
52904W        W18065  38.903  13.672  14.022
52905W        W18066  12.091  32.488  14.924
52906W        W18067  44.426  10.692  13.346
52907W        W18068  18.304  26.952   1.478
52908W        W18069  19.196   0.239  11.396
52909W        W18070   9.885   5.251  11.477
52910W        W18071  27.009   7.440   3.060
52911W        W18072  11.884  27.037  14.824
52912W        W18073   8.125  32.637   4.196
52913W        W18074  18.149   4.473  12.334
52914W        W18075   0.245  22.682   1.223
52915W        W18076  11.716   5.264  11.477
52916W        W18077  28.715  42.875  14.392
52917W        W18078   8.713  26.475  11.565
52918W        W18079  37.001  23.668   4.611
52919W        W18080  27.849   8.282   5.066
52920W        W18081   1.135  40.768  14.936
52921W        W18082  26.941  37.739  11.513
52922W        W18083  34.764  35.194   2.444
52923W        W18084  22.059  36.940  12.510
52924W        W18085  10.994  17.084  11.711
52925W        W18086   0.863  21.705  11.636
52926W        W18087  33.403  31.046  12.559
52927W        W18088  15.992  20.492  11.531
52928W        W18089  40.453  32.092  14.865
52929W        W18090  40.922  23.059   2.862
52930W        W18091   6.732  42.311  14.366
52931W        W18092  22.715  23.993   4.458
52932W        W18093  23.783   9.855   3.698
52933W        W18094  25.114  26.270  11.655
52934W        W18095  28.187  41.280  11.687
52935W        W18096  33.587  13.381   1.410
52936W        W18097  42.744  40.439   3.316
52937W        W18098  30.886   5.374  10.937
52938W        W18099  34.154  44.778   2.719
52939W        W18100   9.851  20.694   2.161
52940W        W18101   6.651  29.002  14.694
52941W        W18102   2.552   7.393   0.461
52942W        W18103  13.640   0.996   0.731
52943W        W18104  41.391  19.681   3.624
52944W        W18105  11.396   1.831  11.146
52945W        W18106  33.637   0.238  14.256
52946W        W18107   0.339  22.463   2.665
52947W        W18108  33.639   1.741   0.438
52948W        W18109  41.882  12.176   4.411
52949W        W18110  14.813  44.405   2.077
52950W        W18111  39.776   7.410  14.915
52951W        W18112  20.822  10.392   3.213
52952W        W18113  14.531   9.370   3.797
52953W        W18114   9.259  38.628  12.529
52954W        W18115  41.172   3.921   1.813
52955W        W18116  33.568   8.467   2.253
52956W        W18117  11.671   8.053   0.492
52957W        W18118  22.197  15.550   0.223
52958W        W18119  12.108  44.013  12.387
52959W        W18120   3.435   3.645   1.983
52960W        W18121  21.757  30.072  12.537
52961W        W18122  38.322  18.286  11.413
52962W        W18123   1.737  11.743   3.216
52963W        W18124   3.936   7.485   1.742
52964W        W18125  30.736   9.137  11.553
52965W        W18126   8.596  43.802  12.578
52966W        W18127  32.010  38.943   2.552
52967W        W18128   0.044  22.790   2.322
52968W        W18129  11.700  30.126  11.546
52969W        W18130  23.897  14.083   1.240
52970W        W18131  31.426  10.857  12.613
52971W        W18132   8.170  43.964  14.422
52972W        W18133  14.128  34.367   3.843
52973W        W18134   6.173  10.898  14.803
52974W        W18135   4.302  25.722  14.716
52975W        W18136  12.350  44.461  11.498
52976W        W18137  18.834   0.353   4.822
52977W        W18138  37.856  29.103  14.784
52978W        W18139  43.995  30.413  11.082
52979W        W18140  24.161  15.177   0.467
52980W        W18141  12.796  37.276  10.678
52981W        W18142  44.480  39.308  13.873
52982W        W18143  20.686  38.426   1.000
52983W        W18144  34.483   1.886   4.689
52984W        W18145   8.815  29.519  13.551
52985W        W18146  12.781  18.087   1.415
52986W        W18147   1.727  29.075   1.291
52987W        W18148  23.768  15.334  11.816
52988W        W18149  32.679  12.628  11.254
52989W        W18150  13.267   2.223   0.853
52990W        W18151   5.220  22.557  14.816
52991W        W18152   3.458  34.412  14.278
52992W        W18153  15.848   3.602  13.418
52993W        W18154   3.769  20.077   1.285
52994W        W18155  23.939  30.622   9.845
52995W        W18156  27.910  25.174  14.418
52996W        W18157  26.639  44.949   0.807
52997W        W18158  19.107  28.965  13.817
52998W        W18159  22.533  33.579  11.661
52999W        W18160  20.065  40.599  10.716
53000W        W18161  15.640   1.799  11.262
53001W        W18162  42.419   6.911   2.015
53002W        W18163  12.599   5.259  14.509
53003W        W18164  42.307  15.641   3.689
53004W        W18165  23.570  40.806   2.291
53005W        W18166  33.113  30.541  11.411
53006W        W18167   9.909  33.907  14.470
53007W        W18168  30.061  34.936  10.520
53008W        W18169  36.382  20.518  14.840
53009W        W18170   5.335  42.860  13.961
53010W        W18171  39.657  20.760  14.940
53011W        W18172  25.016  42.909   1.918
53012W        W18173   0.657  27.936   2.751
53013W        W18174   0.056  33.587   4.870
53014W        W18175  27.477   1.743   1.474
53015W        W18176   5.265  15.189   1.768
53016W        W18177   4.265   1.367   1.455
53017W        W18178  22.250   1.435  14.477
53018W        W18179   7.817  39.400  14.066
53019W        W18180   8.546  31.786   1.612
53020W        W18181   3.893   3.278  13.110
53021W        W18182  26.184   2.148  10.965
53022W        W18183  41.506  34.807  10.721
53023W        W18184  43.522  12.752   0.420
53024W        W18185   3.282  11.683   2.160
53025W        W18186  38.290  20.818   0.981
53026W        W18187  34.235  10.572  14.915
53027W        W18188  37.500  12.884   2.309
53028W        W18189   0.855  28.902   2.543
53029W        W18190  28.882  35.452   2.253
53030W        W18191  39.081  10.213  14.824
53031W        W18192   6.272  27.107  13.501
53032W        W18193  41.490   7.705  12.767
53033W        W18194  30.583  19.082   0.537
53034W        W18195  37.055  25.520   0.838
53035W        W18196  17.136  14.290  11.138
53036W        W18197  44.945  24.542  12.994
53037W        W18198  38.040  33.039  11.973
53038W        W18199   5.221  33.852   1.195
53039W        W18200  38.403  15.367  13.990
53040W        W18201   1.727  30.706   2.307
53041W        W18202  37.384  33.844   1.356
53042W        W18203  19.098   3.151  13.974
53043W        W18204  41.492  22.233   4.552
53044W        W18205  29.496  31.666   1.143
53045W        W18206  33.548   8.610   5.098
53046W        W18207  26.663  29.696  12.919
53047W        W18208  23.563  27.448   0.289
53048W        W18209  37.731  16.059   0.788
53049W        W18210  16.577   9.759   2.281
53050W        W18211  16.202  16.975   1.743
53051W        W18212   0.487  27.194   0.551
53052W        W18213  29.622   6.756  12.157
53053W        W18214  23.592  19.583   3.095
53054W        W18215  36.118  22.079   2.880
53055W        W18216  23.744   3.958  12.484
53056W        W18217  13.527  31.066  13.829
53057W        W18218  23.741  21.199   2.626
53058W        W18219  37.518  22.997  11.619
53059W        W18220  40.347   8.838   2.256
53060W        W18221  34.630  23.027  10.417
53061W        W18222  25.011  44.506   2.313
53062W        W18223  37.168  38.870   3.207
53063W        W18224  41.101   6.863   3.803
53064W        W18225  34.673  35.921   4.022
53065W        W18226  27.133  38.044  12.950
53066W        W18227  40.456   3.443   0.497
53067W        W18228  10.366  12.790   2.741
53068W        W18229  32.485  18.953   3.793
53069W        W18230   5.440   3.321  12.974
53070W        W18231   6.246  33.014   4.528
53071W        W18232  32.913  42.389   3.223
53072W        W18233  20.150  21.673  10.308
53073W        W18234  34.124  39.695  10.615
53074W        W18235  29.891   5.459  14.807
53075W        W18236   2.949  16.930  11.445
53076W        W18237  14.539  34.128  14.448
53077W        W18238  15.528  22.341  10.187
53078W        W18239  27.417  13.699   1.983
53079W        W18240  10.308  34.099   4.684
53080W        W18241   1.965  15.172   2.413
53081W        W18242  17.305  37.377  11.621
53082W        W18243  20.013  28.139   2.368
53083W        W18244  31.086  21.368   0.640
53084W        W18245  35.834  11.923  13.472
53085W        W18246  42.013   9.301   4.299
53086W        W18247   7.647  39.878  10.811
53087W        W18248   0.689  16.424   9.751
53088W        W18249   0.420   1.888  13.581
53089W        W18250  41.410  19.589  11.215
53090W        W18251  27.157  35.594  12.885
53091W        W18252  36.527  15.599  14.975
53092W        W18253  28.262  25.979   4.126
53093W        W18254  40.887  42.278  14.353
53094W        W18255  29.051  17.828   3.692
53095W        W18256  26.064  40.491   3.190
53096W        W18257  16.934  28.374  11.883
53097W        W18258  23.897  41.540  12.561
53098W        W18259  36.787  10.052   3.282
53099W        W18260  29.423  29.540  11.918
53100W        W18261  29.581  29.148  10.528
53101W        W18262  44.214  11.180   2.683
53102W        W18263   3.187  42.332  11.884
53103W        W18264   1.472   9.052  13.982
53104W        W18265  17.126  12.200   1.393
53105W        W18266  19.433  14.817  11.101
53106W        W18267  14.485   8.921   4.592
53107W        W18268  20.223  20.092  13.119
53108W        W18269  33.063  34.954   3.446
53109W        W18270  42.022   9.908   2.918
53110W        W18271  12.177  30.286   0.785
53111W        W18272  16.520   1.321   1.937
53112W        W18273  28.186   5.417  11.008
53113W        W18274  26.457  12.480  12.467
53114W        W18275  27.466  17.773  12.696
53115W        W18276  27.768  40.333  14.536
53116W        W18277   6.262  15.625  11.057
53117W        W18278   6.775   3.869  13.995
53118W        W18279  24.587   5.724   3.880
53119W        W18280  15.774  34.313  12.405
53120W        W18281   5.153  40.968   3.725
53121W        W18282  29.390   1.178  12.023
53122W        W18283  34.920  29.465  11.522
53123W        W18284  19.061   4.314  12.608
53124W        W18285  44.721  25.994  11.503
53125W        W18286   9.359  42.981   2.646
53126W        W18287  39.514  21.081   1.113
53127W        W18288  44.148  11.296   4.566
53128W        W18289  22.250  27.929   2.227
53129W        W18290  31.963  13.661   1.442
53130W        W18291  41.668  43.008  11.166
53131W        W18292  38.710   8.844   3.681
53132W        W18293  23.923   9.140   3.122
53133W        W18294  31.775  36.832   3.325
53134W        W18295   3.799  21.801   1.862
53135W        W18296  28.666   7.881  13.404
53136W        W18297  36.999  20.472   1.458
53137W        W18298  37.604  17.679   2.618
53138W        W18299  30.429  14.280  13.287
53139W        W18300  40.353  30.324  12.917
53140W        W18301  13.252  26.053   3.687
53141W        W18302   4.824  35.653   2.711
53142W        W18303  26.213  36.475  13.986
53143W        W18304  13.616  31.575   1.814
53144W        W18305  29.449  27.214   3.630
53145W        W18306  38.314   0.960  12.951
53146W        W18307  36.856  13.869  10.710
53147W        W18308  42.509  37.083  13.678
53148W        W18309  36.406  40.088  14.004
53149W        W18310  41.369  32.940  14.525
53150W        W18311  29.005  21.657   0.768
53151W        W18312  10.585  41.890   4.977
53152W        W18313  31.611  16.233   0.786
53153W        W18314  26.343  41.328  12.292
53154W        W18315  23.185  29.348   1.941
53155W        W18316  11.482  42.967  11.093
53156W        W18317  31.918  26.194   1.731
53157W        W18318  26.999  24.982  10.612
53158W        W18319  44.452  37.594   2.651
53159W        W18320  42.566  31.632   0.290
53160W        W18321  44.950   2.369   3.740
53161W        W18322   3.017  20.422   2.993
53162W        W18323  34.677  28.922   0.339
53163W        W18324   2.858  21.566   2.700
53164W        W18325  10.717   7.317  11.290
53165W        W18326   1.486  28.913  11.828
53166W        W18327  31.141  24.600   2.566
53167W        W18328  20.320  29.427   0.479
53168W        W18329  40.803  31.600  12.407
53169W        W18330   3.433   6.728  10.731
53170W        W18331  20.239  14.096  13.990
53171W        W18332   4.140  36.532   1.898
53172W        W18333  37.997  35.498  11.131
53173W        W18334  14.307  31.894  13.111
53174W        W18335  37.095  43.970  14.140
53175W        W18336  30.050  11.234  13.155
53176W        W18337   7.959  28.034  11.202
53177W        W18338  40.440  25.038  13.548
53178W        W18339  40.003  38.994   3.852
53179W        W18340   9.219  30.455  12.472
53180W        W18341  30.367  26.977   1.119
53181W        W18342  35.005  42.807   1.805
53182W        W18343   5.154  30.680  10.180
53183W        W18344  11.871   5.470  11.029
53184W        W18345  40.671  30.686   0.393
53185W        W18346   8.777  20.121  11.932
53186W        W18347  14.024  38.396   3.189
53187W        W18348  43.380  19.306  11.451
53188W        W18349   2.276  15.120  13.374
53189W        W18350  34.161  33.468   2.286
53190W        W18351  37.524  27.413  11.433
53191W        W18352  38.669  24.740  11.228
53192W        W18353  25.551  27.195  13.454
53193W        W18354  29.058  16.517  12.908
53194W        W18355  43.186   1.347  13.744
53195W        W18356  14.791  31.986  14.421
53196W        W18357  16.830  40.052  11.655
53197W        W18358   6.973  32.131   4.242
53198W        W18359  44.939   0.738   1.394
53199W        W18360   8.384  44.882  13.959
53200W        W18361   0.939  44.655   2.669
53201W        W18362  37.296  20.982   0.773
53202W        W18363  25.542  34.137  10.917
53203W        W18364  20.340  17.518   2.702
53204W        W18365   4.468   5.907   0.413
53205W        W18366   6.484  10.354   3.582
53206W        W18367  36.244   5.685  11.011
53207W        W18368  29.518  10.717   2.833
53208W        W18369  16.789  32.692   2.606
53209W        W18370  38.476  28.405  13.540
53210W        W18371  16.146  34.343  10.784
53211W        W18372   2.207  19.980   2.956
53212W        W18373  21.477   8.308  12.948
53213W        W18374  31.593  12.915   2.738
53214W        W18375  23.060   2.755  13.540
53215W        W18376  40.848  19.620   0.822
53216W        W18377  26.403   3.250  12.587
53217W        W18378  16.102  21.249  14.413
53218W        W18379  19.743  36.726   3.148
53219W        W18380  35.569  35.750   2.888
53220W        W18381  17.942   7.979   4.016
53221W        W18382  40.813  21.013  12.003
53222W        W18383  12.660  38.370   1.036
53223W        W18384   8.788  14.358  12.097
53224W        W18385  40.451   9.036   0.813
53225W        W18386  36.781  38.934  12.446
53226W        W18387  13.072  35.025   2.370
53227W        W18388  41.857  13.079   1.218
53228W        W18389  33.833  17.855  14.049
53229W        W18390  31.989  36.911  14.849
53230W        W18391  16.089  13.833   4.530
53231W        W18392   4.766  13.030   4.944
53232W        W18393  33.371  42.924  12.498
53233W        W18394  43.007  44.677  11.941
53234W        W18395  24.747  41.301  14.690
53235W        W18396   6.297   2.819   4.899
53236W        W18397  12.580  16.056  10.799
53237W        W18398  10.692  18.982  13.350
53238W        W18399  31.125  19.014  11.112
53239W        W18400   2.453  40.401   3.411
53240W        W18401  41.342  22.390  14.922
53241W        W18402  12.613  37.255  13.016
53242W        W18403  15.985  31.583   2.367
53243W        W18404  42.417   7.185  11.951
53244W        W18405  38.670  14.100   0.218
53245W        W18406  16.801  32.899  12.076
53246W        W18407  43.969   8.458   1.875
53247W        W18408  26.700  21.827   1.872
53248W        W18409  30.543  12.586  12.074
53249W        W18410  20.541   9.692  10.677
53250W        W18411  38.966  15.170   1.749
53251W        W18412  12.109  13.296  13.990
53252W        W18413  19.636   1.519  11.719
53253W        W18414  13.924  35.074  10.829
53254W        W18415  30.561  16.036  14.896
53255W        W18416  29.570  13.246   2.437
53256W        W18417  23.069  34.995  13.557
53257W        W18418   7.712  18.068   0.015
53258W        W18419  25.848   7.137   3.700
53259W        W18420  32.568  16.202  13.832
53260W        W18421  12.115  36.824  11.685
53261W        W18422   2.029  15.613   1.819
53262W        W18423  15.209  29.989   1.474
53263W        W18424  31.118  17.088  11.042
53264W        W18425   9.734   6.417  13.075
53265W        W18426  29.995  40.973   4.961
53266W        W18427   0.228  28.702  14.069
53267W        W18428  15.255  23.407   2.697
53268W        W18429  43.277  44.316   3.824
53269W        W18430  30.057  23.092  13.605
53270W        W18431  43.555  42.494   1.741
53271W        W18432  13.629  27.595   1.729
53272W        W18433  15.627  24.159   4.071
53273W        W18434   9.628  32.767   2.918
53274W        W18435  17.251  44.927  12.438
53275W        W18436  28.108  23.735  14.797
53276W        W18437   3.446  29.126   0.753
53277W        W18438   8.116  10.206   2.542
53278W        W18439  23.591  17.414  11.236
53279W        W18440   3.924  30.045  12.662
53280W        W18441   3.624  28.090   4.109
53281W        W18442   5.814   5.694   1.963
53282W        W18443  38.026  43.880  14.571
53283W        W18444   4.280  19.647  14.329
53284W        W18445  41.396  42.856   0.451
53285W        W18446  38.922   2.952  10.635
53286W        W18447  35.481  14.563   0.727
53287W        W18448  40.948  14.584  10.813
53288W        W18449  18.652  28.695  10.686
53289W        W18450   5.167  43.929   4.805
53290W        W18451   4.213  23.214   3.238
53291W        W18452  19.349  26.112  10.687
53292W        W18453   7.934  24.256   2.367
53293W        W18454  25.170  15.132  11.386
53294W        W18455  10.547  12.535   1.377
53295W        W18456   0.799  42.583  14.504
53296W        W18457  24.643  33.384   4.292
53297W        W18458  21.623  27.353   3.765
53298W        W18459  32.759   6.623   1.709
53299W        W18460  17.652  16.658  14.530
53300W        W18461   1.331  28.212   3.941
53301W        W18462  22.546  23.506  14.229
53302W        W18463  40.883  35.421  13.694
53303W        W18464  36.056  15.189   4.892
53304W        W18465  30.641   5.882  13.897
53305W        W18466  40.545  44.622  11.690
53306W        W18467  43.521   9.361   0.284
53307W        W18468  43.391   4.825  12.088
53308W        W18469  11.418  11.809   3.626
53309W        W18470   7.252  26.998   9.727
53310W        W18471  32.478  40.514   0.985
53311W        W18472  17.303  13.831   3.321
53312W        W18473  16.133  18.807  13.401
53313W        W18474   6.782   5.750  10.664
53314W        W18475  19.815  43.226   2.707
53315W        W18476  11.492  11.708   0.905
53316W        W18477  21.228  32.212   9.983
53317W        W18478  17.291  12.237   3.682
53318W        W18479   9.839  20.018   4.286
53319W        W18480  35.383  43.339  14.019
53320W        W18481   1.406  33.119  10.627
53321W        W18482  21.604   9.373   1.889
53322W        W18483  35.551  18.771  10.674
53323W        W18484  34.954  26.726  10.658
53324W        W18485  22.696  32.701   4.542
53325W        W18486   7.188  32.310  12.798
53326W        W18487  17.004   0.828   3.618
53327W        W18488  39.335  17.521   2.242
53328W        W18489   5.292  30.606  12.322
53329W        W18490   2.542  37.949   3.326
53330W        W18491   1.771  30.614  11.719
53331W        W18492   4.704   1.479  13.080
53332W        W18493  35.934  19.194   4.332
53333W        W18494   7.191   5.334  11.879
53334W        W18495  25.512   1.810  10.085
53335W        W18496  17.888  39.221  12.098
53336W        W18497  25.013   1.440   1.856
53337W        W18498   1.838  41.532   3.119
53338W        W18499  42.993  17.390   0.890
53339W        W18500  38.987  28.341   2.035
53340W        W18501  40.464  44.736  14.502
53341W        W18502  41.179   7.081   3.238
53342W        W18503  40.484  40.827   2.098
53343W        W18504  21.069   1.953   4.887
53344W        W18505  30.555  16.414  12.039
53345W        W18506   6.207  32.048   4.643
53346W        W18507  26.309  37.353   3.055
53347W        W18508   1.134  22.335   3.451
53348W        W18509  27.526   2.123   3.549
53349W        W18510  27.540  42.286  11.972
53350W        W18511   9.323  29.597  13.487
53351W        W18512  37.468  43.275   2.267
53352W        W18513  34.656  44.813   2.632
53353W        W18514  43.509  43.878   3.994
53354W        W18515   5.477   5.337   4.528
53355W        W18516  34.597   2.978   2.635
53356W        W18517  29.990  21.002  10.330
53357W        W18518  28.036  31.056  14.902
53358W        W18519   5.297  14.396   2.359
53359W        W18520  34.001  42.184  14.711
53360W        W18521   7.440  23.523   4.629
53361W        W18522   2.157  22.793   4.541
53362W        W18523  43.454  32.144   2.939
53363W        W18524  18.372  39.304   5.018
53364W        W18525   8.938  32.944   3.158
53365W        W18526   9.817  16.116  13.874
53366W        W18527   9.872  37.323  12.360
53367W        W18528  44.857  26.940   4.594
53368W        W18529  25.736  31.113  12.904
53369W        W18530  13.966  10.922   0.917
53370W        W18531  30.667  41.918  14.801
53371W        W18532   6.330  23.232   1.042
53372W        W18533  35.537  35.132  13.430
53373W        W18534   2.207  31.906  11.561
53374W        W18535  28.907  42.278  14.917
53375W        W18536   2.292  25.023   3.139
53376W        W18537  33.294  25.176   2.381
53377W        W18538  30.217  13.129   0.712
53378W        W18539  32.755  14.345  12.388
53379W        W18540   1.797  36.974   1.375
53380W        W18541  34.073  29.511  14.905
53381W        W18542  10.471  41.022  14.829
53382W        W18543  37.214  28.021   3.676
53383W        W18544  28.449  43.448  11.877
53384W        W18545  15.324  33.837   1.639
53385W        W18546  11.629  32.472   2.832
53386W        W18547   2.915   3.514  13.409
53387W        W18548  19.542  44.725   4.531
53388W        W18549  31.926  23.639   0.006
53389W        W18550  24.558   5.649   0.923
53390W        W18551   2.521  21.074  12.384
53391W        W18552  35.129  19.108   0.725
53392W        W18553   8.795  29.910   4.189
53393W        W18554  28.011  12.513  10.321
53394W        W18555  41.939  28.643   0.493
53395W        W18556  33.857  17.135  10.646
53396W        W18557  32.997   4.177   3.426
53397W        W18558  43.338  33.078   2.307
53398W        W18559  40.943  19.360  12.428
53399W        W18560  20.026   5.754  13.881
53400W        W18561  18.408  37.182   0.764
53401W        W18562  42.910  19.457  11.239
53402W        W18563   4.427   3.471   4.615
53403W        W18564  40.865  15.214   0.173
53404W        W18565  29.188  31.905  14.064
53405W        W18566   7.850  41.953   1.779
53406W        W18567   4.967  20.398   3.188
53407W        W18568   9.158  44.357  12.056
53408W        W18569   9.631  10.779   4.519
53409W        W18570  35.470  32.881   0.345
53410W        W18571  10.927  41.595  14.521
53411W        W18572  20.348  14.061  12.056
53412W        W18573   8.711  23.312  12.876
53413W        W18574   6.957  19.264  11.485
53414W        W18575  27.059  17.246  10.735
53415W        W18576  17.597  28.692   0.505
53416W        W18577  21.646  39.513  11.148
53417W        W18578  38.115  25.622  13.739
53418W        W18579  33.472  35.283   3.307
53419W        W18580   7.003  42.392   4.805
53420W        W18581   4.759  20.279  13.405
53421W        W18582  18.039  25.484  12.912
53422W        W18583  35.032  43.041  13.786
53423W        W18584  32.535  24.078  13.932
53424W        W18585  39.500   1.520   3.671
53425W        W18586  42.879   1.120   4.243
53426W        W18587  39.816  20.059   0.339
53427W        W18588  28.120  16.762   4.679
53428W        W18589  35.147  34.767   3.605
53429W        W18590  23.976  20.138   4.063
53430W        W18591  29.105  37.360  12.376
53431W        W18592  28.147  44.755   4.165
53432W        W18593  17.532   1.412   2.289
53433W        W18594  41.913  32.129  11.246
53434W        W18595  21.101   1.512   3.945
53435W        W18596  37.391  31.366  14.783
53436W        W18597  34.190  33.435  12.893
53437W        W18598  36.987   5.967  11.442
53438W        W18599  16.494  40.122  13.373
53439W        W18600   3.701  13.568  13.946
53440W        W18601  21.283  35.849  10.800
53441W        W18602  18.928  11.459  14.494
53442W        W18603  10.945  35.531   2.607
53443W        W18604   1.280  43.772  10.905
53444W        W18605  27.429  18.507   4.347
53445W        W18606  26.158  33.363   0.383
53446W        W18607  40.814  42.168  12.505
53447W        W18608  24.156  32.478  14.689
53448W        W18609  30.107  42.967   4.518
53449W        W18610  24.747  16.224  10.608
53450W        W18611  18.704   6.073  10.352
53451W        W18612  14.462  19.562  11.307
53452W        W18613  33.505   7.440   2.300
53453W        W18614  12.162  22.484   0.281
53454W        W18615  27.588  41.571  13.348
53455W        W18616  44.245  38.487   4.119
53456W        W18617  33.019   5.387   2.831
53457W        W18618  28.970   4.175   3.381
53458W        W18619  22.611  15.229  14.068
53459W        W18620  19.192  23.202   4.285
53460W        W18621   8.386  34.102  13.933
53461W        W18622  10.114  33.517   1.814
53462W        W18623   1.279  31.985   1.169
53463W        W18624   2.113   9.080  10.775
53464W        W18625  24.598  42.812   5.062
53465W        W18626  30.891  42.540  13.281
53466W        W18627  22.218  17.981  10.557
53467W        W18628  10.951  37.425  11.527
53468W        W18629  13.804  34.879  14.289
53469W        W18630  23.881  16.114   0.286
53470W        W18631  11.260   4.811   3.131
53471W        W18632  35.564  43.331  14.514
53472W        W18633  40.297  44.725  10.434
53473W        W18634  10.263  27.103   4.619
53474W        W18635  29.349  10.385  13.599
53475W        W18636  31.883  10.662  12.442
53476W        W18637  31.123  17.591   1.693
53477W        W18638  14.082  15.752   3.664
53478W        W18639   6.665   5.285   2.645
53479W        W18640  39.487  26.504  12.514
53480W        W18641  27.912  32.393   0.257
53481W        W18642  36.601  42.940  10.295
53482W        W18643  38.788  22.951  13.830
53483W        W18644   9.623  14.632  14.406
53484W        W18645  22.869   9.676  10.616
53485W        W18646  44.381  37.419  11.858
53486W        W18647  44.977  34.057   1.346
53487W        W18648  28.101   8.192   2.627
53488W        W18649  12.132  18.711   3.980
53489W        W18650  29.889   0.186   2.786
53490W        W18651  43.401  20.760  10.757
53491W        W18652   0.939   2.547  14.752
53492W        W18653   3.829  29.311  13.188
53493W        W18654  23.701  17.620  10.727
53494W        W18655  29.144  25.335  14.412
53495W        W18656   4.340  34.831  10.711
53496W        W18657  20.112  31.459   0.385
53497W        W18658  24.635  10.175   0.340
53498W        W18659  35.177  28.718   2.776
53499W        W18660  36.805  36.521   4.751
53500W        W18661  44.782   7.604   0.586
53501W        W18662  25.704   4.752  11.365
53502W        W18663   3.731  39.091  10.459
53503W        W18664  21.800   9.747   4.593
53504W        W18665  24.723   7.934   0.380
53505W        W18666   8.850  38.472  12.848
53506W        W18667  14.106   0.741  14.433
53507W        W18668   4.972  29.642  10.712
53508W        W18669  18.766  11.564  11.973
53509W        W18670  43.576  34.767   1.639
53510W        W18671  42.307  44.787   1.271
53511W        W18672  31.033  39.742   1.290
53512W        W18673  15.417  33.033  11.648
53513W        W18674  43.002  44.385   4.301
53514W        W18675   1.444   2.445  14.065
53515W        W18676  32.387  44.511   0.983
53516W        W18677  20.562   4.808   2.879
53517W        W18678   3.751  23.907   4.171
53518W        W18679  43.299  41.994  14.444
53519W        W18680  12.473  25.696   1.266
53520W        W18681  11.222  14.712   2.505
53521W        W18682  12.758  32.848   0.370
53522W        W18683  40.386  41.851   2.167
53523W        W18684  24.976  21.952  13.007
53524W        W18685  15.520  23.661  12.480
53525W        W18686  25.139  16.918  14.273
53526W        W18687  15.242   3.700   2.456
53527W        W18688   8.300   6.898   3.308
53528W        W18689   1.192  39.837  14.727
53529W        W18690   8.904  28.575  14.756
53530W        W18691   6.542  16.756   1.886
53531W        W18692  26.589   1.203   4.592
53532W        W18693   9.115  40.779  11.922
53533W        W18694   2.828  14.509   2.624
53534W        W18695  27.619  36.693  13.829
53535W        W18696  42.579  25.247  11.208
53536W        W18697  19.621  30.576   2.882
53537W        W18698  14.120  25.269   2.702
53538W        W18699  21.549  11.776   0.958
53539W        W18700  19.622  39.330   3.181
53540W        W18701   5.777  21.738   1.581
53541W        W18702  28.309   5.256  13.861
53542W        W18703  44.054  41.520   2.748
53543W        W18704  37.526  41.963  11.526
53544W        W18705  22.683  31.468   2.311
53545W        W18706   1.993  23.150  11.635
53546W        W18707   5.521  18.869   4.558
53547W        W18708   7.698  15.755  13.872
53548W        W18709  36.139  10.835   3.143
53549W        W18710   5.005  13.107  11.693
53550W        W18711  39.084  20.252   2.216
53551W        W18712  28.704  37.600  12.573
53552W        W18713  13.824  32.970  14.388
53553W        W18714  40.685  32.365  12.784
53554W        W18715  30.073   9.639   3.119
53555W        W18716  28.426  15.727  13.301
53556W        W18717  27.205  40.490  11.630
53557W        W18718   9.632  37.126  11.116
53558W        W18719  39.053  24.231   4.651
53559W        W18720   8.742  23.941  14.885
53560W        W18721  39.509   9.364   3.308
53561W        W18722  15.621  43.470  11.176
53562W        W18723   9.261  12.779   4.653
53563W        W18724  44.305  22.773  10.713
53564W        W18725   4.830  32.681  12.964
53565W        W18726  11.198  12.433  12.090
53566W        W18727  24.627  19.323  12.130
53567W        W18728  35.631  22.554   1.788
53568W        W18729  37.959  38.476   4.120
53569W        W18730  33.903  37.005  11.626
53570W        W18731   2.437  34.193  11.074
53571W        W18732  22.529  17.406  11.975
53572W        W18733  10.337  35.102   3.899
53573W        W18734  17.863  38.633   1.329
53574W        W18735  14.890   8.101  13.498
53575W        W18736  18.647  40.474   5.699
53576W        W18737  23.086  27.232   0.204
53577W        W18738   9.918  14.428  14.779
53578W        W18739  29.094   0.367   0.958
53579W        W18740  22.566  25.877  11.438
53580W        W18741  44.677  22.740  14.099
53581W        W18742  30.880  41.661   2.250
53582W        W18743  32.997  32.242   5.034
53583W        W18744  21.815   1.837   2.700
53584W        W18745  11.850  37.269   4.565
53585W        W18746   6.836  43.797  14.342
53586W        W18747  28.397  32.829  13.503
53587W        W18748  26.425  41.585   4.566
53588W        W18749  18.318  27.061   0.970
53589W        W18750  26.791   9.713   3.277
53590W        W18751  40.335  41.185  11.598
53591W        W18752  23.331  38.200  11.158
53592W        W18753  24.946   0.451  12.299
53593W        W18754  27.448  22.617   4.188
53594W        W18755  17.675  25.534   0.091
53595W        W18756  20.479   3.761   3.133
53596W        W18757  34.514  29.208  12.253
53597W        W18758   5.492  28.619   5.108
53598W        W18759  35.340  11.042   1.733
53599W        W18760  17.767  12.895   0.883
53600W        W18761  43.384  36.818  12.134
53601W        W18762  37.072   1.784   3.714
53602W        W18763  26.980  10.976  13.356
53603W        W18764  38.302   5.227   4.152
53604W        W18765  23.745   6.648   2.596
53605W        W18766  16.028   4.641   2.309
53606W        W18767  34.973   7.641   4.762
53607W        W18768  18.268  30.949   4.546
53608W        W18769  20.302  32.582   3.614
53609W        W18770  33.395  27.417  11.065
53610W        W18771   1.671  13.278  11.133
53611W        W18772  44.795  12.843   0.638
53612W        W18773  29.754  39.055   1.898
53613W        W18774  16.699  35.509  11.282
53614W        W18775  32.461  43.033  14.605
53615W        W18776  20.218  23.631  13.917
53616W        W18777   2.430  40.527  13.836
53617W        W18778  38.282  18.242  11.960
53618W        W18779  30.063  20.608   2.805
53619W        W18780  37.728   2.787   1.862
53620W        W18781  19.805  27.223   2.475
53621W        W18782  14.624  25.649  14.874
53622W        W18783  33.577  27.721  12.116
53623W        W18784  28.468  24.934  12.821
53624W        W18785  19.955   9.246  14.747
53625W        W18786  35.095  21.576  11.860
53626W        W18787  16.300  29.616  12.981
53627W        W18788  26.108  15.873   0.663
53628W        W18789  19.791   5.165   0.519
53629W        W18790  20.703  10.050   2.331
53630W        W18791  15.478  38.162   3.176
53631W        W18792  34.781  20.668   0.390
53632W        W18793  21.462  44.967   3.317
53633W        W18794  18.328  31.067  13.804
53634W        W18795  37.022  25.999   2.784
53635W        W18796  30.733   0.876  12.395
53636W        W18797  13.804   0.047   2.805
53637W        W18798  11.918  13.760   2.237
53638W        W18799  17.533   4.354   1.415
53639W        W18800  40.646  30.294   3.529
53640W        W18801   6.005  14.760   1.937
53641W        W18802  11.722  21.244  11.146
53642W        W18803  28.923  19.557   3.750
53643W        W18804  36.144  41.077   3.126
53644W        W18805  42.824  34.960  13.082
53645W        W18806  17.203  15.798   1.663
53646W        W18807  34.411  14.775  12.518
53647W        W18808  34.610  13.072  11.566
53648W        W18809  43.221  27.255   1.733
53649W        W18810  12.056  33.450   1.825
53650W        W18811  44.899  10.026   3.122
53651W        W18812  30.400  31.536   0.556
53652W        W18813   6.016  22.839  13.648
53653W        W18814   0.420  11.039   4.290
53654W        W18815  34.359  22.697  11.745
53655W        W18816  14.906  23.815  13.546
53656W        W18817   6.035  39.392  11.728
53657W        W18818  39.780  25.645   2.662
53658W        W18819   2.398  26.231   3.149
53659W        W18820  38.816  34.074   4.148
53660W        W18821  40.965   2.275  11.072
53661W        W18822  27.064   5.153   0.995
53662W        W18823  32.031  28.873  14.039
53663W        W18824  34.515  23.577   0.237
53664W        W18825  43.773   5.224   3.207
53665W        W18826  15.166  28.922  13.011
53666W        W18827  30.383  34.859   2.225
53667W        W18828   4.495  23.638  14.495
53668W        W18829  32.803  39.539  13.410
53669W        W18830  39.888  15.192  11.268
53670W        W18831   6.285   7.298  14.326
53671W        W18832   9.238  24.044   4.865
53672W        W18833  14.726  24.148   2.767
53673W        W18834  22.933  33.716  11.399
53674W        W18835   3.237  17.299   1.819
53675W        W18836  38.914  20.753  12.436
53676W        W18837   5.156  24.301   2.778
53677W        W18838  29.040  43.358   0.365
53678W        W18839  15.689   3.724  14.785
53679W        W18840  34.604   1.760  14.828
53680W        W18841  18.330  34.538   1.916
53681W        W18842  11.680   4.261   0.828
53682W        W18843  42.235  30.213   1.741
53683W        W18844  26.550  30.233  11.626
53684W        W18845  23.994  37.987   0.946
53685W        W18846  16.995   7.568   1.846
53686W        W18847   1.243  24.240  14.988
53687W        W18848  28.924  19.913  13.142
53688W        W18849  36.999   7.178  12.376
53689W        W18850   4.924  12.694   2.238
53690W        W18851  18.114  32.382   2.239
53691W        W18852  24.558   3.389   1.337
53692W        W18853   3.855  31.825  13.043
53693W        W18854  20.509  23.136   1.881
53694W        W18855  38.360  43.846   3.836
53695W        W18856  20.269  37.001  14.976
53696W        W18857   8.379   8.279   0.356
53697W        W18858   7.800  26.051  11.707
53698W        W18859  38.923  23.872   3.135
53699W        W18860  30.827  36.902  13.365
53700W        W18861  42.379  28.267  13.530
53701W        W18862  44.297   4.222   2.431
53702W        W18863  32.293   0.719  13.422
53703W        W18864   7.793  21.677  12.941
53704W        W18865  15.292  35.876   3.792
53705W        W18866  13.179  21.748  12.047
53706W        W18867  15.580  18.206  13.874
53707W        W18868  36.467  30.293  14.840
53708W        W18869  39.314  23.594   3.579
53709W        W18870   4.229  28.585   4.241
53710W        W18871  29.746  31.575  11.323
53711W        W18872  18.070  18.676   1.872
53712W        W18873  43.968   5.142   2.708
53713W        W18874  27.222  35.613  14.284
53714W        W18875  37.396  14.096   4.032
53715W        W18876  32.413  34.034   1.177
53716W        W18877  12.172   4.431  10.390
53717W        W18878   1.087  16.228   5.019
53718W        W18879  39.454  42.744   0.943
53719W        W18880  22.528  10.671  13.561
53720W        W18881   5.978  19.939  11.982
53721W        W18882  13.814  13.646  11.466
53722W        W18883   2.366  43.740   1.895
53723W        W18884  36.043  25.221  11.571
53724W        W18885  35.033   6.197   5.025
53725W        W18886   8.810   5.186  14.957
53726W        W18887   2.480   5.057   4.533
53727W        W18888  40.492  27.470  11.617
53728W        W18889  15.579   7.848   2.740
53729W        W18890  16.331  33.421   2.085
53730W        W18891  43.539  35.405   9.970
53731W        W18892  14.956  12.666   5.015
53732W        W18893  19.786  28.490  11.172
53733W        W18894  14.203  26.639  12.555
53734W        W18895   2.265  33.627  12.451
53735W        W18896   3.253  34.167  13.024
53736W        W18897  42.552  15.090  11.699
53737W        W18898  37.448   8.679  11.717
53738W        W18899  35.517   3.604  10.311
53739W        W18900  43.970  37.494  14.149
53740W        W18901  37.044   1.366   1.204
53741W        W18902  31.462  44.885   4.222
53742W        W18903  14.771  35.659  13.987
53743W        W18904  21.740  10.764  13.059
53744W        W18905   3.960  12.191  10.649
53745W        W18906  31.591  35.594   4.209
53746W        W18907   6.328  20.568   4.969
53747W        W18908  10.330  22.971   4.477
53748W        W18909   0.682   4.323   2.399
53749W        W18910   7.989   0.080  12.448
53750W        W18911  16.511  16.996   0.461
53751W        W18912  26.707   5.595  11.942
53752W        W18913  21.925  32.917  14.395
53753W        W18914  16.045   0.364  13.451
53754W        W18915  18.876   4.777  14.499
53755W        W18916  30.189  12.546   4.715
53756W        W18917  13.861  35.856   4.649
53757W        W18918  21.409   0.991   3.815
53758W        W18919  35.435  41.868  13.757
53759W        W18920   2.188  12.039   3.190
53760W        W18921  44.483   9.801   2.829
53761W        W18922  20.638  44.031  11.617
53762W        W18923  13.045  35.867   9.856
53763W        W18924  26.227   5.309  11.897
53764W        W18925  16.030  25.366   2.926
53765W        W18926  25.169  17.103   3.624
53766W        W18927  30.924  37.574   0.413
53767W        W18928   2.934  12.520   0.785
53768W        W18929  39.968   4.147   2.137
53769W        W18930  27.032  28.548  14.377
53770W        W18931  11.059  14.721   0.589
53771W        W18932  12.527  39.993   3.994
53772W        W18933   3.748  31.139   0.294
53773W        W18934  22.580  28.933   0.446
53774W        W18935  32.984  23.680   1.972
53775W        W18936  19.384   4.272   0.435
53776W        W18937  15.273  25.458  11.656
53777W        W18938  14.070  11.312   2.404
53778W        W18939  42.372  18.949   1.306
53779W        W18940  19.282  42.319   3.431
53780W        W18941  22.203   7.263   4.889
53781W        W18942  44.214  14.262   2.382
53782W        W18943  19.660  43.335   3.988
53783W        W18944  34.145  24.395  12.034
53784W        W18945  22.792   5.045   0.563
53785W        W18946  30.450  25.049  13.025
53786W        W18947  11.324  22.291   4.440
53787W        W18948  43.888   5.114  10.637
53788W        W18949   8.706  42.532   3.939
53789W        W18950   7.410  11.761   4.928
53790W        W18951  33.389  30.085  14.805
53791W        W18952  18.464  17.726  14.754
53792W        W18953  26.596   3.871  12.491
53793W        W18954   0.526  26.347   2.240
53794W        W18955  33.688  13.395   2.306
53795W        W18956  36.614  11.138   0.419
53796W        W18957  37.965  12.209  12.795
53797W        W18958  43.020  27.463   5.226
53798W        W18959  26.327  10.387  13.546
53799W        W18960  15.892  30.865  10.723
53800W        W18961  28.521  33.205   2.467
53801W        W18962   5.893  39.611   3.672
53802W        W18963  37.251  27.224   4.067
53803W        W18964  36.699  41.801   3.554
53804W        W18965   6.438  18.712   0.200
53805W        W18966  11.857  26.740   2.371
53806W        W18967  34.979  31.091  13.224
53807W        W18968   1.954  32.817  12.582
53808W        W18969  15.335   6.089   4.964
53809W        W18970  15.658  25.104   4.402
53810W        W18971  16.172  42.025  13.543
53811W        W18972   0.861  22.367   2.646
53812W        W18973  29.414  30.510   2.364
53813W        W18974  11.745   6.643   3.283
53814W        W18975  28.587  26.011   4.547
53815W        W18976  13.856  24.186   3.723
53816W        W18977   4.898   0.998  12.961
53817W        W18978  43.816  40.016  14.279
53818W        W18979   8.794  31.607   2.724
53819W        W18980  44.533   2.307  12.952
53820W        W18981   0.870  32.186  12.649
53821W        W18982   4.458   3.862   0.182
53822W        W18983   2.170  17.390   1.421
53823W        W18984  43.141   0.841  13.599
53824W        W18985  16.782  33.550   1.421
53825W        W18986  38.262  12.138   3.607
53826W        W18987  19.665  40.879  10.573
53827W        W18988  31.325   0.572  10.429
53828W        W18989  28.577  32.923   0.584
53829W        W18990  39.559  31.462  14.565
53830W        W18991  19.590  43.406  12.699
53831W        W18992  15.819  20.220   3.582
53832W        W18993   0.250  23.620  11.126
53833W        W18994   3.456  27.996  14.942
53834W        W18995  24.665  12.809   2.220
53835W        W18996  43.022  38.923   3.429
53836W        W18997  21.487  40.847   3.132
53837W        W18998   5.683  16.718   4.713
53838W        W18999  11.378  39.882   1.749
53839W        W19000   7.931  35.051  14.974
53840W        W19001  25.514  24.767  11.158
53841W        W19002   1.962  21.798  12.862
53842W        W19003  32.476  13.534   1.497
53843W        W19004  22.255  31.855   0.812
53844W        W19005  42.442  18.154   4.490
53845W        W19006  41.519   7.707   0.829
53846W        W19007  18.129  35.110  10.995
53847W        W19008  39.004   4.322   1.046
53848W        W19009  36.928  33.156   0.437
53849W        W19010  43.247   3.686  13.358
53850W        W19011  10.718   1.209   2.364
53851W        W19012  37.949   7.769   4.456
53852W        W19013  41.937  35.441  11.955
53853W        W19014  25.938  10.236  12.809
53854W        W19015  26.125  21.230   3.605
53855W        W19016  19.573  25.445   1.528
53856W        W19017  44.553  42.713   0.924
53857W        W19018  11.615  24.612  11.078
53858W        W19019  19.597  22.720  10.136
53859W        W19020   8.329  25.955   1.729
53860W        W19021  41.748  27.935  12.330
53861W        W19022  42.386  42.909   3.400
53862W        W19023  34.977  18.731   2.422
53863W        W19024  11.389  39.930   3.248
53864W        W19025  38.546  28.862   1.363
53865W        W19026   8.900  36.626   2.231
53866W        W19027   8.232  18.516  14.401
53867W        W19028  40.982  44.288   2.861
53868W        W19029   2.217  22.518   0.816
53869W        W19030  43.734  26.074   1.929
53870W        W19031   1.401  35.088  14.702
53871W        W19032  19.994  15.174   2.661
53872W        W19033  26.734  21.589   0.964
53873W        W19034  12.557  22.728   0.493
53874W        W19035  27.703  40.434  11.527
53875W        W19036  32.836   7.695  14.801
53876W        W19037   6.840  25.441  10.357
53877W        W19038  36.807  26.821  13.629
53878W        W19039   7.426   6.401   4.008
53879W        W19040  18.870   4.476   1.902
53880W        W19041  31.184  32.437  13.479
53881W        W19042  39.369   9.179   0.813
53882W        W19043  40.998  14.661   1.984
53883W        W19044  21.497   5.402   3.281
53884W        W19045  35.841  32.621   4.544
53885W        W19046  28.380   5.882  10.973
53886W        W19047  25.372  37.663  14.914
53887W        W19048  34.973  42.528   4.571
53888W        W19049  25.146  12.826   0.227
53889W        W19050  32.950  36.825  10.472
53890W        W19051   6.661  30.094   0.873
53891W        W19052  34.796  12.098  14.251
53892W        W19053  10.742   9.940   1.419
53893W        W19054  17.630  20.267   2.890
53894W        W19055   3.717  23.075   1.336
53895W        W19056  20.107  39.584  11.994
53896W        W19057   5.940  29.705   2.587
53897W        W19058  25.163   4.655  13.104
53898W        W19059  37.989  12.821  11.607
53899W        W19060  22.075   6.959   1.249
53900W        W19061  27.517  10.689  11.579
53901W        W19062  21.760  25.994   3.959
53902W        W19063  36.932  34.889  11.141
53903W        W19064  43.250  33.044  14.960
53904W        W19065  32.684  44.835  11.932
53905W        W19066  16.300  13.454   4.120
53906W        W19067  38.687  38.575  12.914
53907W        W19068  24.727  17.462   3.198
53908W        W19069  43.839  13.848  14.768
53909W        W19070  34.929  36.485   1.209
53910W        W19071  10.698  20.542   2.647
53911W        W19072  43.197   6.183  13.218
53912W        W19073  37.967  21.257  14.731
53913W        W19074  30.841  20.686   1.211
53914W        W19075  26.942  25.735   0.881
53915W        W19076  18.164  24.857  10.661
53916W        W19077  31.958  43.922  13.057
53917W        W19078  32.950  36.436  12.105
53918W        W19079   9.118  42.146  13.431
53919W        W19080  35.526   8.282  14.047
53920W        W19081  27.617   4.697   2.631
53921W        W19082   9.387  29.933  10.725
53922W        W19083  36.556  39.805   3.117
53923W        W19084  10.228  21.113  13.452
53924W        W19085  42.916  27.550  10.736
53925W        W19086   1.643  15.592  10.579
53926W        W19087  15.816  15.826   3.722
53927W        W19088  18.738  30.443  12.356
53928W        W19089  36.963   9.298   0.941
53929W        W19090   6.771  21.007  12.206
53930W        W19091  33.951  25.602  12.498
53931W        W19092  42.852  28.595  11.532
53932W        W19093   8.845  29.490   0.878
53933W        W19094  23.594   9.136   2.723
53934W        W19095  33.506   0.699   0.387
53935W        W19096  29.562   6.476  12.592
53936W        W19097  18.626  22.466   0.922
53937W        W19098  36.860  36.416   1.462
53938W        W19099   3.672  37.971  12.350
53939W        W19100  21.118  29.370   0.254
53940W        W19101   5.621   7.496  12.010
53941W        W19102  41.190  28.443   2.600
53942W        W19103  19.546  20.092   4.313
53943W        W19104  23.098   3.469   4.393
53944W        W19105  22.254  39.089   2.646
53945W        W19106  34.778  22.303  13.421
53946W        W19107  36.345  33.026   4.079
53947W        W19108  12.907  37.606   2.803
53948W        W19109  35.862  23.591   4.119
53949W        W19110   8.883  23.532   1.872
53950W        W19111  40.514  35.366  14.611
53951W        W19112  42.930  17.385   3.693
53952W        W19113  35.678  40.242   3.259
53953W        W19114   3.656  41.408  12.423
53954W        W19115  38.899  30.909   4.198
53955W        W19116  39.906  11.739  10.784
53956W        W19117  25.482  35.490  14.916
53957W        W19118  29.391  21.693   0.319
53958W        W19119   3.940  11.306   1.924
53959W        W19120   2.798  42.925   2.742
53960W        W19121  15.272  31.428  13.952
53961W        W19122  28.025   6.864  10.015
53962W        W19123  18.989  44.364  14.443
53963W        W19124  43.977   5.428   2.210
53964W        W19125   0.957  11.741   4.459
53965W        W19126  20.682  12.635  10.691
53966W        W19127  10.211  34.051  14.871
53967W        W19128  12.666  40.575   4.060
53968W        W19129  34.152   4.887  14.199
53969W        W19130  43.048  11.336  12.599
53970W        W19131   9.350   3.133  11.972
53971W        W19132  18.806  12.935  12.654
53972W        W19133  27.062  43.387   1.269
53973W        W19134  43.839  18.641  11.561
53974W        W19135  15.296  28.027  13.390
53975W        W19136  16.241   5.976   1.551
53976W        W19137  23.298  18.048   1.712
53977W        W19138  28.931  35.096  13.247
53978W        W19139  13.326  29.774  13.429
53979W        W19140  15.990  16.763   5.007
53980W        W19141  17.802   7.718  12.106
53981W        W19142  34.841  17.962  14.973
53982W        W19143  30.011  13.129  11.434
53983W        W19144  28.131  36.183   0.663
53984W        W19145  17.637  20.128  11.219
53985W        W19146  25.797   2.267   0.405
53986W        W19147  33.848  28.072  13.847
53987W        W19148   5.157  36.632  12.390
53988W        W19149  43.316   6.646   3.297
53989W        W19150  19.744  10.184   3.053
53990W        W19151  14.138  23.150   0.744
53991W        W19152  13.066   8.077  14.540
53992W        W19153  14.190   6.300   0.362
53993W        W19154  41.460   9.831  12.471
53994W        W19155  33.979  41.242   0.851
53995W        W19156  24.220  30.940  13.913
53996W        W19157  44.881   9.383   0.041
53997W        W19158  29.412  42.939   0.355
53998W        W19159  19.047  26.764   4.037
53999W        W19160  10.256   9.235  13.591
54000W        W19161  28.150  37.682   1.887
54001W        W19162  33.071  18.614   3.258
54002W        W19163  12.770  23.948   4.647
54003W        W19164  23.576   1.895   2.909
54004W        W19165  41.452   9.215   1.953
54005W        W19166   2.319   0.050   0.979
54006W        W19167   1.759  34.002   1.983
54007W        W19168   5.281  24.905  14.558
54008W        W19169  33.479  26.555   4.912
54009W        W19170  39.292  13.648  11.534
54010W        W19171  33.057  13.568  12.136
54011W        W19172  13.255  43.723   2.933
54012W        W19173   6.458  13.531  12.134
54013W        W19174  25.241  15.784   0.285
54014W        W19175   3.899  22.607   2.289
54015W        W19176  14.754  10.651   4.191
54016W        W19177  42.856  43.977   4.567
54017W        W19178  26.201  42.712   0.333
54018W        W19179  36.407  15.518  12.602
54019W        W19180   3.946  14.020  11.133
54020W        W19181   9.230   0.752   2.809
54021W        W19182   1.541  16.319  13.904
54022W        W19183  14.247  25.942  11.795
54023W        W19184  23.905  36.380   0.119
54024W        W19185   8.802  25.778   1.340
54025W        W19186  17.260  26.646  12.882
54026W        W19187  37.473   1.929  11.982
54027W        W19188   6.350   4.227  14.870
54028W        W19189  41.878  25.031  10.460
54029W        W19190  33.562   7.998  14.892
54030W        W19191  18.721  31.083   2.820
54031W        W19192  32.539  28.596  13.050
54032W        W19193  32.400  26.541  10.713
54033W        W19194  16.661  33.162  12.487
54034W        W19195   6.529   0.404   4.665
54035W        W19196   4.381  39.898  11.618
54036W        W19197  24.534  22.642   1.743
54037W        W19198  33.437  23.715  11.609
54038W        W19199  15.882  37.753  13.848
54039W        W19200  36.836  11.618   0.804
54040W        W19201  13.197  22.069  13.381
54041W        W19202  17.696  13.804  12.729
54042W        W19203   1.188   1.528   2.812
54043W        W19204   2.728  40.461  13.247
54044W        W19205   5.386  30.092  12.442
54045W        W19206  19.627   0.469  13.562
54046W        W19207   9.517  30.089  14.403
54047W        W19208   6.572  13.593   4.042
54048W        W19209   3.164   3.235  12.914
54049W        W19210  32.781  30.806   5.037
54050W        W19211  35.168  14.074  12.555
54051W        W19212  20.748  20.651   3.598
54052W        W19213   3.389   3.907   2.531
54053W        W19214  29.541  13.733  11.987
54054W        W19215  25.602  32.741   0.657
54055W        W19216  41.952  21.807  12.962
54056W        W19217  26.103  42.911   4.114
54057W        W19218  30.204  38.865   0.767
54058W        W19219   9.581  41.414  11.173
54059W        W19220   7.426  34.347  11.557
54060W        W19221  43.251  15.288  14.001
54061W        W19222  21.817   5.408  14.793
54062W        W19223  12.942  23.647  12.949
54063W        W19224  34.849  11.830   4.013
54064W        W19225   0.200  38.989  14.910
54065W        W19226  25.127   6.447   2.228
54066W        W19227  41.277  41.967   3.598
54067W        W19228  44.898  37.956   2.527
54068W        W19229  11.844  12.862   1.777
54069W        W19230  34.384  19.599  14.516
54070W        W19231  28.503  44.597  11.016
54071W        W19232  14.628  21.679  10.996
54072W        W19233  17.345  40.644   0.753
54073W        W19234  42.131  10.323   4.641
54074W        W19235   1.574  17.226  11.459
54075W        W19236  11.741   5.018  12.731
54076W        W19237  36.096   8.340   0.848
54077W        W19238  19.553  44.898  13.035
54078W        W19239   8.646  43.791  11.661
54079W        W19240  21.273  44.065   5.048
54080W        W19241  23.250   0.465  14.493
54081W        W19242  14.661   4.978  11.852
54082W        W19243   5.116  15.657   4.533
54083W        W19244   2.791  22.145   3.362
54084W        W19245  39.575  23.140  14.597
54085W        W19246  24.681  33.011   1.872
54086W        W19247  23.814   8.603   1.373
54087W        W19248  38.322  17.806   0.909
54088W        W19249  22.115   8.672   0.072
54089W        W19250   5.830   0.325  11.527
54090W        W19251  21.507   2.488   3.738
54091W        W19252  13.489  22.992  14.453
54092W        W19253  15.127  31.825   4.533
54093W        W19254  35.876   7.068   4.630
54094W        W19255   5.869   6.738   3.737
54095W        W19256   0.225  14.011   5.172
54096W        W19257   0.701  21.050   0.848
54097W        W19258  18.800   4.228   2.898
54098W        W19259  22.533   5.097  14.044
54099W        W19260  11.023  42.748  11.062
54100W        W19261  30.144   0.891  11.921
54101W        W19262  30.919   6.128   3.076
54102W        W19263  29.585  27.565   1.209
54103W        W19264   2.922   4.425  11.966
54104W        W19265  24.627   7.102   4.117
54105W        W19266  37.021   8.529   4.032
54106W        W19267   5.268  37.591  13.306
54107W        W19268  42.039  19.823  10.468
54108W        W19269   9.296  14.196   4.704
54109W        W19270  14.368  16.725   4.221
54110W        W19271   0.768   7.748  11.755
54111W        W19272  43.298   9.706  13.051
54112W        W19273  37.877   6.446  10.761
54113W        W19274  43.753  12.773  14.932
54114W        W19275  28.217  17.596  10.167
54115W        W19276  39.053  25.121   4.560
54116W        W19277   1.968  40.466   3.241
54117W        W19278  16.193   9.558   4.835
54118W        W19279  36.410   9.632   2.164
54119W        W19280   8.639  12.834  10.770
54120W        W19281  13.851  30.047  12.884
54121W        W19282  18.891  40.953   2.202
54122W        W19283  40.002  40.031   3.757
54123W        W19284  12.628  29.628  13.927
54124W        W19285  15.054   6.718   3.327
54125W        W19286  35.425   9.515  14.343
54126W        W19287  28.585   7.328  11.120
54127W        W19288   7.971   4.837  13.395
54128W        W19289  10.492  34.427   1.528
54129W        W19290   7.138  26.175  13.925
54130W        W19291  23.453   0.785  14.022
54131W        W19292   3.184  33.632   2.026
54132W        W19293  21.181   0.785  14.841
54133W        W19294  19.417  36.513  11.701
54134W        W19295   9.141  10.659   3.600
54135W        W19296  25.064  44.444  13.826
54136W        W19297  11.383  22.745  14.218
54137W        W19298  39.956  35.546  11.109
54138W        W19299  41.916  17.055   1.477
54139W        W19300  14.782   3.294  14.435
54140W        W19301  40.339   0.377   3.904
54141W        W19302   0.661  31.330   0.590
54142W        W19303  13.398   2.907   3.583
54143W        W19304   1.217  30.385  10.169
54144W        W19305  35.574   2.815   2.806
54145W        W19306  24.576  27.205   4.060
54146W        W19307  12.177  38.152  14.433
54147W        W19308  33.853  35.855  14.442
54148W        W19309  25.268  11.594  14.488
54149W        W19310  33.434  44.533   4.026
54150W        W19311  34.656  20.729  14.710
54151W        W19312  26.952  22.709  10.679
54152W        W19313  40.013   7.874  14.835
54153W        W19314  19.977  10.627  13.286
54154W        W19315  38.374  10.445   0.336
54155W        W19316  13.312  38.293   2.724
54156W        W19317  11.691  22.467   0.040
54157W        W19318  42.083  34.208  10.132
54158W        W19319  14.575  17.001   0.328
54159W        W19320  30.546  44.958   4.690
54160W        W19321  15.900  21.779  14.466
54161W        W19322  33.625   7.811   0.467
54162W        W19323  13.064  16.674  11.587
54163W        W19324  29.995  30.030  10.889
54164W        W19325   8.222   1.237   1.408
54165W        W19326  36.091  43.968   0.995
54166W        W19327  13.703  28.589   1.707
54167W        W19328  22.101  30.868  11.027
54168W        W19329  24.043  29.304  10.625
54169W        W19330   3.251  37.283   3.112
54170W        W19331  33.916  36.542  10.512
54171W        W19332  38.950  35.057   3.656
54172W        W19333   4.463  24.559  11.093
54173W        W19334  33.519  15.631   0.024
54174W        W19335   5.591   6.056   1.660
54175W        W19336  35.501  17.774   3.064
54176W        W19337  16.905  35.799   2.284
54177W        W19338  43.904   3.119   2.274
54178W        W19339  36.152   1.714   1.317
54179W        W19340  17.186  13.244  14.769
54180W        W19341  14.277  22.621   1.587
54181W        W19342   4.648  37.917  13.316
54182W        W19343  36.905  26.535   3.700
54183W        W19344   0.206  11.279  13.338
54184W        W19345  22.863  12.746   9.933
54185W        W19346  30.553  30.010  14.603
54186W        W19347  23.122   5.857  14.031
54187W        W19348  10.804  24.612  10.388
54188W        W19349  44.137   1.710  12.157
54189W        W19350  38.432   0.745  14.797
54190W        W19351  17.988  17.380   3.221
54191W        W19352  44.272  25.317   3.378
54192W        W19353  39.152  18.479  10.949
54193W        W19354  37.998   2.607   4.754
54194W        W19355   8.593  44.351   3.101
54195W        W19356  15.758   2.208   0.043
54196W        W19357  26.563  15.515  11.542
54197W        W19358  38.395  29.821  14.894
54198W        W19359  21.138  16.268   3.096
54199W        W19360  39.075  13.610  12.483
54200W        W19361  33.926   4.875   1.204
54201W        W19362  24.102  24.603  11.907
54202W        W19363   9.599   2.317  13.103
54203W        W19364  10.231   6.240   1.427
54204W        W19365   2.889  38.167   2.422
54205W        W19366  23.265  38.309  12.035
54206W        W19367  12.414  41.743   2.310
54207W        W19368  43.068   8.559  14.871
54208W        W19369  39.055   2.281  12.186
54209W        W19370  28.536   6.652  12.847
54210W        W19371  30.204  15.761  12.936
54211W        W19372   0.523  44.534  12.942
54212W        W19373  13.340   1.192  13.409
54213W        W19374  11.317   2.386   2.574
54214W        W19375  24.372  13.251   3.266
54215W        W19376  16.349  41.287  12.879
54216W        W19377   3.531  32.114  13.970
54217W        W19378   4.303  18.070  13.455
54218W        W19379   1.688   3.792   5.096
54219W        W19380  35.379   3.890  12.734
54220W        W19381  21.606  21.791  13.070
54221W        W19382  34.482  25.170   9.966
54222W        W19383   8.908  21.684   2.783
54223W        W19384  28.984  16.686   2.192
54224W        W19385   0.978  20.745   2.099
54225W        W19386  20.741   3.305   3.233
54226W        W19387   4.001  29.429  11.943
54227W        W19388  41.075   9.164   3.271
54228W        W19389  19.221  35.931   0.681
54229W        W19390  12.154  36.599  10.470
54230W        W19391   5.649  32.006   1.875
54231W        W19392  34.635  35.260   1.245
54232W        W19393  32.943  11.318  12.090
54233W        W19394  40.343   7.751   2.168
54234W        W19395  19.727  15.122  10.770
54235W        W19396  13.765  26.994   1.365
54236W        W19397   6.170  36.550  12.688
54237W        W19398  44.567  18.824  11.532
54238W        W19399   7.783  20.116  13.864
54239W        W19400  31.629  20.925  12.927
54240W        W19401   2.808  35.438   1.829
54241W        W19402   4.394  26.456   0.404
54242W        W19403  13.111  22.736  13.846
54243W        W19404  10.382  29.505   2.347
54244W        W19405   7.898  25.728  14.988
54245W        W19406   1.635  35.852   2.664
54246W        W19407  41.764  11.510   0.846
54247W        W19408  25.777  33.114  11.968
54248W        W19409  21.059  28.487  14.950
54249W        W19410  31.923  28.954   2.758
54250W        W19411  17.679   1.392  13.837
54251W        W19412  40.578  13.894  11.266
54252W        W19413  35.765   7.095   3.384
54253W        W19414  44.428  26.421   1.653
54254W        W19415  40.170  21.591  14.861
54255W        W19416   4.705   6.661   4.479
54256W        W19417  28.897   8.747   1.802
54257W        W19418   0.501  39.367  14.745
54258W        W19419  31.102  12.875   1.738
54259W        W19420  27.545  41.768  12.698
54260W        W19421  26.167  38.108   0.911
54261W        W19422  27.010   4.513  13.788
54262W        W19423   7.855  22.324  14.519
54263W        W19424  14.295   0.281   2.801
54264W        W19425  25.048  33.862   4.760
54265W        W19426  39.989  15.338  14.340
54266W        W19427  22.672   7.310  10.211
54267W        W19428   4.655  42.494  13.078
54268W        W19429  12.785  23.877  13.411
54269W        W19430   7.635  18.240   3.695
54270W        W19431  42.390  31.309  11.226
54271W        W19432   1.754  22.745   0.844
54272W        W19433  33.978  34.954   3.162
54273W        W19434   6.823  34.567   4.086
54274W        W19435  34.166   3.312  12.578
54275W        W19436  33.900  16.126  11.022
54276W        W19437  11.435  40.555   4.243
54277W        W19438  19.683  10.454   0.299
54278W        W19439  17.079  24.006   0.689
54279W        W19440  44.532  40.958  10.633
54280W        W19441  22.443  38.458  12.997
54281W        W19442  25.818   1.434  11.486
54282W        W19443  19.832  32.027  11.764
54283W        W19444  22.078  18.508   3.311
54284W        W19445  26.517  35.345  12.513
54285W        W19446  42.491  11.847   3.889
54286W        W19447  26.604  18.578  10.722
54287W        W19448  21.648   4.451  11.846
54288W        W19449  34.863  33.840   1.316
54289W        W19450  29.692   1.969   2.376
54290W        W19451   2.788  31.867   0.042
54291W        W19452   2.324  40.217  11.978
54292W        W19453   2.775  37.788  11.204
54293W        W19454   2.100  36.624  14.666
54294W        W19455  34.339   0.183   4.063
54295W        W19456   9.973  43.424   4.675
54296W        W19457   5.128  27.191   2.798
54297W        W19458  13.949  44.713  11.948
54298W        W19459  16.676  37.797   5.529
54299W        W19460  23.019   6.139  11.677
54300W        W19461  16.014  15.199   1.766
54301W        W19462  30.011  33.716  12.565
54302W        W19463  44.698  31.991  14.034
54303W        W19464  16.847  39.017   4.037
54304W        W19465   4.105  34.604   3.346
54305W        W19466  38.811  14.989   3.613
54306W        W19467   3.190  13.064  11.531
54307W        W19468  13.711  28.371  14.616
54308W        W19469   0.275  32.693   4.631
54309W        W19470  36.493   4.426  12.498
54310W        W19471  23.613  13.154   4.058
54311W        W19472  17.966  43.986   5.576
54312W        W19473  31.639  14.493   1.446
54313W        W19474  41.116  27.216  12.758
54314W        W19475  40.273  15.044  10.971
54315W        W19476  12.995  15.116   4.201
54316W        W19477  19.115  31.475  11.714
54317W        W19478  29.009   7.583   0.350
54318W        W19479  19.288  39.950  14.762
54319W        W19480  25.136  37.167  12.796
54320W        W19481  21.110  39.400   2.357
54321W        W19482  16.661  24.697   0.790
54322W        W19483  41.108   1.080   4.597
54323W        W19484  28.033   1.054   1.374
54324W        W19485  12.675  38.355   3.633
54325W        W19486   2.015  30.095   0.433
54326W        W19487  11.238  43.264   3.931
54327W        W19488  26.090  10.183   0.533
54328W        W19489  31.740   7.885   5.139
54329W        W19490  20.548  15.085   0.827
54330W        W19491  20.452  12.356  12.407
54331W        W19492  23.146  16.511  12.876
54332W        W19493  14.465  35.329   0.462
54333W        W19494  33.461  17.705  13.715
54334W        W19495  27.339  40.432  11.128
54335W        W19496  16.571  21.526   0.788
54336W        W19497  10.311  26.384  13.996
54337W        W19498  13.372  31.454   4.629
54338W        W19499   5.194  17.032  11.141
54339W        W19500  28.181  37.308   2.867
54340W        W19501  37.609  12.787  13.620
54341W        W19502  31.021  10.744   0.845
54342W        W19503  30.372  39.481   2.879
54343W        W19504  41.491  34.286  10.756
54344W        W19505  30.571  37.146   5.035
54345W        W19506  28.422  11.684   1.370
54346W        W19507  19.485  39.937  12.277
54347W        W19508  33.115   7.756  12.544
54348W        W19509  10.922  13.703  12.597
54349W        W19510   5.587  28.019  13.287
54350W        W19511  15.319  31.014   1.348
54351W        W19512  44.286  24.282  14.364
54352W        W19513  30.624   2.959  11.596
54353W        W19514  34.929   7.456  10.749
54354W        W19515  28.673   0.001  10.748
54355W        W19516  25.758  34.604   3.130
54356W        W19517  31.931   0.523  13.715
54357W        W19518  32.472  35.761   1.248
54358W        W19519  11.227  29.922   3.129
54359W        W19520   9.711  25.626  10.849
54360W        W19521   0.674  23.729  11.425
54361W        W19522  34.758  17.757  14.473
54362W        W19523  43.486   5.473   0.904
54363W        W19524  14.043  39.888   2.517
54364W        W19525  30.084  25.455   1.635
54365W        W19526  43.280  32.968   1.805
54366W        W19527  32.113  44.481   1.439
54367W        W19528  16.040  22.784  11.202
54368W        W19529  44.305  35.997  11.207
54369W        W19530  33.387   8.374  14.352
54370W        W19531  31.409  10.461  12.225
54371W        W19532  35.635  37.496   3.642
54372W        W19533  34.351  30.054   4.596
54373W        W19534  16.325  25.622  11.623
54374W        W19535  43.895  31.513  11.663
54375W        W19536  13.330  24.257   1.095
54376W        W19537  34.570  38.413  11.769
54377W        W19538  10.262  17.804   1.859
54378W        W19539  36.178  22.666   1.708
54379W        W19540  11.849  31.450   3.687
54380W        W19541  26.634  38.110   0.500
54381W        W19542   4.797  22.730  14.550
54382W        W19543  25.480  28.523   0.309
54383W        W19544  14.659  19.692   1.349
54384W        W19545  43.663  31.921  14.058
54385W        W19546  22.406  29.726   0.829
54386W        W19547  22.592  40.477  10.913
54387W        W19548  27.472  14.484  13.429
54388W        W19549  19.645  35.906   0.345
54389W        W19550  17.242   7.577  14.807
54390W        W19551  32.116  20.158   2.813
54391W        W19552   3.028  35.360  10.653
54392W        W19553  32.445   3.170  12.774
54393W        W19554  40.249  24.307   0.827
54394W        W19555  26.713   5.514   2.356
54395W        W19556  28.210  15.413  10.948
54396W        W19557   4.132   3.335   2.615
54397W        W19558  16.391  20.532   2.254
54398W        W19559  16.353  19.494  11.407
54399W        W19560  17.163   1.598  11.634
54400W        W19561  12.183  29.461   3.249
54401W        W19562  11.779   8.245  13.839
54402W        W19563   0.915  19.457   2.107
54403W        W19564   6.433  40.369   3.372
54404W        W19565  44.490  28.208   3.315
54405W        W19566  38.796   6.169  14.657
54406W        W19567  39.800  18.037  14.965
54407W        W19568   3.468   5.360  14.899
54408W        W19569  32.554   2.393  11.410
54409W        W19570  37.589  36.138  11.791
54410W        W19571  10.282  13.238  14.815
54411W        W19572  20.490  23.554   4.141
54412W        W19573  28.913  27.163   1.009
54413W        W19574   9.776  17.540   4.030
54414W        W19575  13.721   3.789   2.835
54415W        W19576  20.036  43.236   3.185
54416W        W19577  15.711  20.399  14.616
54417W        W19578  10.786   9.318  11.541
54418W        W19579  20.744  15.203   1.309
54419W        W19580  13.330  41.463  11.015
54420W        W19581  15.220  34.868   0.542
54421W        W19582  23.535  40.050   1.198
54422W        W19583  44.784  23.920  11.212
54423W        W19584  22.053  24.526  12.058
54424W        W19585   2.923  20.568   0.206
54425W        W19586  26.442   2.461   1.117
54426W        W19587  34.726  34.433  14.601
54427W        W19588   9.251  12.320   1.456
54428W        W19589  36.441  22.123   4.868
54429W        W19590   8.299  17.756   4.010
54430W        W19591  36.791  15.772  10.760
54431W        W19592  33.884  12.318  10.625
54432W        W19593   7.922   3.206  12.134
54433W        W19594  35.137   2.782   0.344
54434W        W19595  16.373  41.856   2.382
54435W        W19596  16.676  28.659   0.468
54436W        W19597  11.388  37.947  12.678
54437W        W19598  10.471  22.109   4.259
54438W        W19599   4.349   1.778   4.257
54439W        W19600  16.420  33.428  13.972
54440W        W19601  43.364  14.355  12.693
54441W        W19602   0.452  22.176  12.227
54442W        W19603  21.027  37.961  10.945
54443W        W19604  38.937  33.552  11.987
54444W        W19605  13.329  15.818  11.953
54445W        W19606  18.403  22.055   4.481
54446W        W19607  29.548  39.784  12.970
54447W        W19608  43.660  21.943   3.286
54448W        W19609   4.221  22.127  14.297
54449W        W19610   4.426  41.920  14.636
54450W        W19611  37.546  24.595  13.897
54451W        W19612  21.159  38.172  13.818
54452W        W19613  37.610  39.729   3.363
54453W        W19614  42.295  35.814  11.923
54454W        W19615  13.281  36.443  12.061
54455W        W19616  32.626   0.304  13.377
54456W        W19617   9.540   9.705  14.370
54457W        W19618  17.564  36.955  11.502
54458W        W19619  22.619  26.142  14.846
54459W        W19620  24.642   5.727  13.451
54460W        W19621  29.531  19.019   3.065
54461W        W19622  43.767  27.013   4.701
54462W        W19623  39.234   0.749   2.444
54463W        W19624  32.826  33.504  12.195
54464W        W19625  37.024  17.566  14.271
54465W        W19626  19.736  27.448  12.910
54466W        W19627   4.755  35.082   0.283
54467W        W19628  12.273   2.494   1.634
54468W        W19629  30.566  14.327   1.817
54469W        W19630  24.218  21.151   4.058
54470W        W19631  19.532  43.732  14.098
54471W        W19632  12.741  22.172  12.363
54472W        W19633   4.732   1.105  11.852
54473W        W19634  36.085  12.195   4.869
54474W        W19635   3.890  20.744  11.541
54475W        W19636  25.040  30.653  11.807
54476W        W19637  15.145   9.674   3.640
54477W        W19638  24.153   4.030  10.714
54478W        W19639   4.902   7.659   0.240
54479W        W19640  23.158  30.640   0.361
54480W        W19641  41.076   6.810  12.917
54481W        W19642  24.855  11.109  13.155
54482W        W19643  41.974   8.302  13.345
54483W        W19644  31.689  12.977   3.718
54484W        W19645  39.557  34.491   0.918
54485W        W19646  33.955  37.266   5.012
54486W        W19647   9.371   6.762   4.102
54487W        W19648  39.078  22.739   5.027
54488W        W19649  20.458  19.552   2.371
54489W        W19650   1.313  20.096  13.997
54490W        W19651  23.993  26.111  13.254
54491W        W19652  24.007  29.387   0.880
54492W        W19653  16.732  29.245  11.770
54493W        W19654  21.755  20.679   1.242
54494W        W19655  25.724  30.358   3.200
54495W        W19656   2.232  25.221  12.069
54496W        W19657  19.541  24.042  14.371
54497W        W19658  33.171  22.161   0.819
54498W        W19659   1.846  43.341   1.482
54499W        W19660  25.185  26.648  10.629
54500W        W19661  29.547  27.184   2.095
54501W        W19662  40.562  23.896  13.832
54502W        W19663   2.482   5.385   0.806
54503W        W19664  17.736  36.398  12.512
54504W        W19665  19.256   6.491   4.448
54505W        W19666  28.783  31.342  11.449
54506W        W19667  29.417   7.646  13.847
54507W        W19668  13.911  17.440   0.203
54508W        W19669   2.302   8.387   0.023
54509W        W19670  39.837   7.779  10.973
54510W        W19671  26.076   6.161   4.017
54511W        W19672   5.414  43.593   4.315
54512W        W19673  30.542  28.388  14.951
54513W        W19674  23.054  44.906  12.025
54514W        W19675  30.065  21.090  14.776
54515W        W19676  38.344  27.578  13.148
54516W        W19677  31.942  41.334   0.778
54517W        W19678  16.159  33.343   0.289
54518W        W19679  29.850  19.753   4.042
54519W        W19680  31.742  18.059   4.919
54520W        W19681  32.676  14.690   3.512
54521W        W19682  37.892  44.588  13.264
54522W        W19683  22.129  27.265  14.781
54523W        W19684  34.587  22.004  10.559
54524W        W19685  30.420  31.901  14.479
54525W        W19686  41.449  23.084   2.906
54526W        W19687  17.063   6.026   5.367
54527W        W19688  32.090   9.326  10.499
54528W        W19689   6.623  30.024  13.456
54529W        W19690  13.953  38.504   2.339
54530W        W19691  31.047   9.419  13.380
54531W        W19692  32.524  21.189  10.900
54532W        W19693   8.197  12.105  11.000
54533W        W19694   7.848  43.989   4.819
54534W        W19695  15.121  14.819  10.668
54535W        W19696   6.662  31.889   1.874
54536W        W19697  34.854  34.355  11.061
54537W        W19698  42.415  20.208  10.511
54538W        W19699  25.247  16.757   4.713
54539W        W19700  37.409  37.344   3.801
54540W        W19701  36.484  27.739  10.811
54541W        W19702  41.959   7.252  10.653
54542W        W19703  17.896  41.656   1.439
54543W        W19704  19.334  22.129  14.001
54544W        W19705  29.299  21.545  12.356
54545W        W19706  43.815   6.437  14.918
54546W        W19707   0.509  31.901  10.840
54547W        W19708  24.056   8.058   0.291
54548W        W19709  30.241  25.942   9.406
54549W        W19710  41.549  16.566  10.750
54550W        W19711  22.138  32.412   3.343
54551W        W19712  14.666  17.664   3.650
54552W        W19713  33.186  37.693  10.374
54553W        W19714  42.383  26.362   0.493
54554W        W19715  39.574   5.703   2.450
54555W        W19716  33.038  25.573   4.257
54556W        W19717  14.543  28.863  13.835
54557W        W19718  16.730  41.549  10.692
54558W        W19719   9.744  31.930   3.148
54559W        W19720  24.508   8.435   0.325
54560W        W19721   6.257  20.853   4.216
54561W        W19722   4.681   9.076  10.739
54562W        W19723   1.372   2.247  14.553
54563W        W19724  17.772  21.956   1.294
54564W        W19725  37.360  10.471   3.648
54565W        W19726  11.905   9.095   2.166
54566W        W19727  40.467  10.197   1.819
54567W        W19728  24.037  37.389  13.789
54568W        W19729   2.983  34.824  10.773
54569W        W19730  34.537  15.843   3.209
54570W        W19731  17.318  32.444  10.953
54571W        W19732   1.644  38.598   2.611
54572W        W19733  19.496  31.436   3.421
54573W        W19734  41.721  41.309   3.932
54574W        W19735  30.994  42.448   0.653
54575W        W19736   0.231  35.563  13.470
54576W        W19737  41.282  34.935   4.309
54577W        W19738  35.117  31.968   4.066
54578W        W19739  33.500  33.962   0.031
54579W        W19740   6.473  25.522  14.305
54580W        W19741  11.670  32.357   0.242
54581W        W19742  43.255   6.179  12.585
54582W        W19743  20.606  25.748   2.769
54583W        W19744  39.552   1.848  14.931
54584W        W19745  36.782  33.785   5.001
54585W        W19746  28.046   4.910   9.866
54586W        W19747  41.984   7.905  11.962
54587W        W19748  28.909  15.082  13.083
54588W        W19749   7.616   0.569   2.995
54589W        W19750  32.951   7.979  12.978
54590W        W19751  19.117  33.887  11.992
54591W        W19752  43.501   9.646  12.546
54592W        W19753   3.495  19.678  14.948
54593W        W19754  20.443  12.242   3.771
54594W        W19755  14.273  31.794   4.093
54595W        W19756  43.793  10.215  10.673
54596W        W19757  36.989  26.111   1.243
54597W        W19758  38.555  11.345   2.168
54598W        W19759  42.050   3.260   2.225
54599W        W19760  25.223   4.937   2.411
54600W        W19761   2.954  28.176   3.300
54601W        W19762  11.278  13.264   3.576
54602W        W19763  42.946  13.410   0.385
54603W        W19764  32.639   7.946  13.950
54604W        W19765  18.328  35.140  13.912
54605W        W19766  13.774  26.597   1.042
54606W        W19767   9.935  26.011  12.396
54607W        W19768   3.331  37.575  14.713
54608W        W19769  42.428  21.600   2.150
54609W        W19770   7.745  25.514  11.586
54610W        W19771  24.997  19.620  11.980
54611W        W19772   6.771   2.714   3.653
54612W        W19773   5.596  29.166  13.577
54613W        W19774  19.205   8.353   0.046
54614W        W19775  16.255  18.264   4.555
54615W        W19776  14.306  43.002  12.062
54616W        W19777  14.854  11.728  13.918
54617W        W19778  27.744  18.077  14.433
54618W        W19779  37.974  39.867  10.857
54619W        W19780  42.338  24.087   2.635
54620W        W19781  21.488   0.286  13.279
54621W        W19782  35.706  19.926   3.212
54622W        W19783  14.809  32.543   1.161
54623W        W19784   8.337  13.541   3.244
54624W        W19785  18.381   5.385   2.170
54625W        W19786  43.052  27.605  12.368
54626W        W19787   3.932  27.872  11.948
54627W        W19788   3.279  37.356  12.842
54628W        W19789  25.985  13.616  10.798
54629W        W19790   8.453  37.188   2.801
54630W        W19791  19.523  37.757  14.814
54631W        W19792  25.192   2.669   3.376
54632W        W19793  17.407  22.230   0.843
54633W        W19794  33.901  21.622   9.927
54634W        W19795  37.188  24.190  11.516
54635W        W19796  41.878  13.580  13.289
54636W        W19797  40.378  14.718   4.609
54637W        W19798  16.276  13.829  12.688
54638W        W19799   3.194   6.779   3.317
54639W        W19800  35.642  26.683  14.542
54640W        W19801  15.040   2.975   2.550
54641W        W19802  15.287  20.333  14.295
54642W        W19803  44.965  33.002  13.157
54643W        W19804  40.056  18.032  10.731
54644W        W19805   4.184  34.370  11.761
54645W        W19806   9.154   6.894  12.928
54646W        W19807  20.714  17.697   3.041
54647W        W19808  35.501  23.654  13.294
54648W        W19809   6.809   5.099  13.444
54649W        W19810  17.631  40.159  12.285
54650W        W19811  41.927  14.933  12.858
54651W        W19812  17.619  35.529   0.703
54652W        W19813  39.086   6.244   0.904
54653W        W19814  42.055  43.921  14.297
54654W        W19815   9.244  28.082   1.804
54655W        W19816  39.979  35.460  14.743
54656W        W19817  29.213  13.641  11.595
54657W        W19818   6.608  29.648   1.182
54658W        W19819  37.120  15.898   0.771
54659W        W19820  16.506  10.738  13.862
54660W        W19821  12.228  28.440   3.186
54661W        W19822  31.500  10.252   0.216
54662W        W19823  10.134  37.975  14.504
54663W        W19824  39.097  29.071   4.678
54664W        W19825  44.416   4.918  11.131
54665W        W19826  43.653  19.768  11.731
54666W        W19827  31.817  21.719  14.754
54667W        W19828  40.244   1.965  11.198
54668W        W19829  30.204   9.086  11.529
54669W        W19830  19.953   1.848   1.838
54670W        W19831  15.880  21.740  14.999
54671W        W19832  22.650   5.440  12.139
54672W        W19833   7.717   5.298   1.497
54673W        W19834  37.044  11.126   2.203
54674W        W19835   6.443  15.208  14.127
54675W        W19836  34.353  16.601  14.986
54676W        W19837  17.571  16.493  13.053
54677W        W19838  28.658  41.904   4.318
54678W        W19839   9.825   6.234  10.537
54679W        W19840  15.176  32.029  10.752
54680W        W19841  43.741  19.189  10.715
54681W        W19842   3.724  15.723   3.237
54682W        W19843   1.822  39.373   3.706
54683W        W19844  28.125  13.852  11.189
54684W        W19845  18.320  10.244  11.248
54685W        W19846  40.746  43.730  11.222
54686W        W19847  27.978  12.714   0.355
54687W        W19848  36.403  27.151  14.366
54688W        W19849   0.287  38.787   0.373
54689W        W19850   1.859   8.186   0.714
54690W        W19851  26.390   1.416  10.685
54691W        W19852  15.432  10.726  11.217
54692W        W19853  34.088   2.880  13.311
54693W        W19854  28.778  43.052   2.863
54694W        W19855  43.908  32.037   3.729
54695W        W19856  24.024  27.673  12.304
54696W        W19857  25.280  21.622   9.733
54697W        W19858   5.232  21.651   1.942
54698W        W19859  43.903   8.136   0.024
54699W        W19860  16.181  30.785   2.762
54700W        W19861  25.664  22.007  10.836
54701W        W19862  41.642   8.704  14.521
54702W        W19863  35.435  13.534   4.043
54703W        W19864  30.839   1.749  13.271
54704W        W19865   0.539   8.276  10.654
54705W        W19866  24.611  39.713  13.845
54706W        W19867  27.518  19.164  10.726
54707W        W19868  43.847  24.180   1.961
54708W        W19869   6.346   1.990  12.921
54709W        W19870  25.453  27.178  11.393
54710W        W19871   0.716  39.338  14.223
54711W        W19872  26.383   1.728  11.193
54712W        W19873  22.443  24.595  10.312
54713W        W19874  23.128  16.147  12.038
54714W        W19875  18.063  43.517  14.507
54715W        W19876  33.360  20.568   0.409
54716W        W19877  14.558   5.790  14.328
54717W        W19878  18.745  15.112   3.625
54718W        W19879  22.114  34.170   0.955
54719W        W19880  30.248  23.210  11.512
54720W        W19881  40.579  37.801  12.883
54721W        W19882  20.274   0.868  12.533
54722W        W19883  43.339  44.372  14.349
54723W        W19884  41.205  44.028  14.878
54724W        W19885   7.096  25.969   0.399
54725W        W19886  13.177  32.098  10.581
54726W        W19887  44.080  32.775   0.982
54727W        W19888  29.445  16.704   2.404
54728W        W19889  15.776  21.100   3.611
54729W        W19890  29.766  18.213   2.778
54730W        W19891  15.666  20.274  13.956
54731W        W19892  36.870  44.514   0.006
54732W        W19893  22.994  38.817   2.187
54733W        W19894  20.692   3.786  13.193
54734W        W19895  36.902  10.624  12.347
54735W        W19896  43.012  28.466  12.493
54736W        W19897  12.864  32.356   0.508
54737W        W19898  13.337  11.590   2.398
54738W        W19899  17.563  42.516  12.629
54739W        W19900  34.416  32.360   3.645
54740W        W19901  15.700  14.657  12.993
54741W        W19902  17.738  32.537   1.629
54742W        W19903  10.221  37.258  12.988
54743W        W19904   5.555  24.471  12.649
54744W        W19905   5.421  20.984  10.953
54745W        W19906  15.119  13.511  13.321
54746W        W19907  33.828   8.730   3.617
54747W        W19908  44.994   0.217  14.021
54748W        W19909  13.292   5.856  11.943
54749W        W19910   2.391  37.383  11.182
54750W        W19911  10.766  21.515  14.934
54751W        W19912   0.441  44.704   1.436
54752W        W19913  18.666   2.009   4.264
54753W        W19914  17.627   2.418  13.010
54754W        W19915  11.444  21.120   5.068
54755W        W19916   8.959   1.770  12.500
54756W        W19917   0.002   4.470   2.957
54757W        W19918   9.367  20.728   3.863
54758W        W19919  32.040  28.215   5.033
54759W        W19920  23.183  35.410   4.852
54760W        W19921  16.009   4.776  13.313
54761W        W19922  14.070  15.111  12.377
54762W        W19923  17.684   2.054   0.904
54763W        W19924   0.936   2.032  12.132
54764W        W19925  24.095   0.145  12.806
54765W        W19926  24.713  34.417  12.158
54766W        W19927  15.915  21.554   2.547
54767W        W19928  38.990   4.927   3.373
54768W        W19929  27.380  10.189   4.554
54769W        W19930  30.918   4.889  12.109
54770W        W19931  38.759   0.005   3.179
54771W        W19932  18.228  39.535  14.008
54772W        W19933   0.223   3.525  10.142
54773W        W19934  18.706  18.504  12.872
54774W        W19935  29.684  32.002   4.976
54775W        W19936   9.974  35.967  11.500
54776W        W19937  41.910  26.745  13.938
54777W        W19938   8.730  35.170   4.708
54778W        W19939  15.639  38.395  10.754
54779W        W19940   2.730  42.584   0.414
54780W        W19941  37.404   8.129   2.698
54781W        W19942  24.568  44.986  11.140
54782W        W19943  43.915  43.713  11.941
54783W        W19944   3.495  14.203  14.126
54784W        W19945  25.135  12.075  13.082
54785W        W19946  16.563   9.941  14.774
54786W        W19947  31.441  31.552   0.433
54787W        W19948  33.561  35.104  12.816
54788W        W19949  21.905  42.381   3.144
54789W        W19950  44.015   2.459  11.061
54790W        W19951  34.841   7.011  14.293
54791W        W19952  18.747  30.054  13.692
54792W        W19953  29.551  16.833  13.595
54793W        W19954  38.258  21.694   4.449
54794W        W19955  25.474  19.311   3.307
54795W        W19956  10.675  26.173   3.433
54796W        W19957  44.032   4.305   2.864
54797W        W19958   9.583  44.048  12.044
54798W        W19959  35.028  34.095   0.004
54799W        W19960  35.087  41.777   4.117
54800W        W19961   6.311   5.663   4.823
54801W        W19962  14.418  29.542   3.686
54802W        W19963  29.603  24.493  12.988
54803W        W19964  18.268   1.218   2.455
54804W        W19965   4.862  38.580   2.817
54805W        W19966  24.777  41.528   2.727
54806W        W19967  44.630  41.246   4.263
54807W        W19968   3.953   0.770  10.881
54808W        W19969  31.980  34.881   1.323
54809W        W19970  21.746  14.831   1.810
54810W        W19971   0.889  15.326  13.436
54811W        W19972   1.362  25.986  14.967
54812W        W19973  40.281  15.637   2.654
54813W        W19974  17.005  11.069  12.909
54814W        W19975  32.749  16.772  10.524
54815W        W19976   5.415  14.931   3.157
54816W        W19977  27.769  42.043  10.194
54817W        W19978  40.955  38.581  12.117
54818W        W19979  23.685  30.094  12.008
54819W        W19980  31.097  11.778  12.352
54820W        W19981  30.842  10.784   2.296
54821W        W19982   9.475   0.812  12.144
54822W        W19983   2.260  40.303  13.409
54823W        W19984  25.628  40.944   4.770
54824W        W19985  10.692  17.620   1.297
54825W        W19986  29.725  32.621   2.750
54826W        W19987   4.646  33.514  12.360
54827W        W19988  11.842  12.729   4.089
54828W        W19989  24.030   2.051   1.139
54829W        W19990  14.651   7.785   3.128
54830W        W19991  35.122   9.784  12.073
54831W        W19992  21.643  41.861  14.846
54832W        W19993   4.961  19.469   2.440
54833W        W19994  10.634   0.307  12.851
54834W        W19995  11.815  32.842  13.321
54835W        W19996  44.779   1.339   4.709
54836W        W19997   9.750   8.899  13.738
54837W        W19998  40.342  24.268  12.077
54838W        W19999  32.406  14.755   3.942
54839W        W20000  38.549  14.316  13.869
54840W        W20001  17.787   6.925  14.469
54841W        W20002  38.964   0.137  11.576
54842W        W20003  17.295  41.434   0.288
54843W        W20004  44.766  19.308  13.016
54844W        W20005  20.640  31.815  12.587
54845W        W20006  26.646   4.313  14.096
54846W        W20007  11.604  29.201   0.024
54847W        W20008  23.189  43.450   4.835
54848W        W20009  17.171   3.984   3.184
54849W        W20010  13.301  21.751   4.929
54850W        W20011  10.667  39.048   0.444
54851W        W20012  21.198   9.449   0.616
54852W        W20013  44.026  41.844   4.084
54853W        W20014   1.907  13.146   0.432
54854W        W20015   6.981  11.141   3.220
54855W        W20016  19.622  11.627  11.565
54856W        W20017  27.525  27.385  14.466
54857W        W20018  41.291  30.704   3.131
54858W        W20019  29.522  16.635  13.117
54859W        W20020   6.413   3.376   3.212
54860W        W20021  28.443  39.079  12.538
54861W        W20022  30.162  17.614   0.459
54862W        W20023  13.612   0.313   4.860
54863W        W20024  35.515  31.081   2.479
54864W        W20025  13.401   7.197  11.588
54865W        W20026  34.807  25.397   0.464
54866W        W20027  30.891  19.782   5.001
54867W        W20028  20.283  42.832   2.333
54868W        W20029  36.415  43.929   4.132
54869W        W20030  37.390   5.952   4.120
54870W        W20031  34.888  25.212  10.293
54871W        W20032  29.391  39.599  14.858
54872W        W20033  30.903  29.955   4.331
54873W        W20034  21.745  15.229   3.747
54874W        W20035   7.187  19.266  14.017
54875W        W20036  16.374  34.075   0.800
54876W        W20037  25.469   2.295  13.578
54877W        W20038  39.060  43.297  10.303
54878W        W20039  15.659  16.125  12.092
54879W        W20040  34.710   0.384  12.531
54880W        W20041  27.094  35.445   2.627
54881W        W20042  44.887  43.131  11.289
54882W        W20043  37.916  26.642  13.534
54883W        W20044  31.391   6.507  14.060
54884W        W20045   1.968  13.559   3.789
54885W        W20046   6.138  17.020   2.708
54886W        W20047  15.497  32.872  10.701
54887W        W20048  10.050  29.048   1.116
54888W        W20049   3.267  36.990  11.930
54889W        W20050  16.712  19.474  12.139
54890W        W20051  34.808   1.296  14.626
54891W        W20052  44.721  11.154   2.733
54892W        W20053  20.666   0.732  12.851
54893W        W20054  40.914  13.593  11.057
54894W        W20055  13.367   8.916  13.946
54895W        W20056  17.161  18.184  12.615
54896W        W20057  31.381   2.417  12.910
54897W        W20058  40.594  29.826  12.948
54898W        W20059  17.571   7.131  14.039
54899W        W20060  30.242  33.345  10.978
54900W        W20061  16.259  16.573   4.119
54901W        W20062   4.179  31.167  14.536
54902W        W20063  41.567   8.155  12.529
54903W        W20064  33.520  18.738   3.548
54904W        W20065  27.250  41.820   0.498
54905W        W20066  10.633  38.321   4.689
54906W        W20067  44.198   0.302  12.148
54907W        W20068   8.169  40.874  13.117
54908W        W20069  38.085  22.762  10.741
54909W        W20070  33.037   0.257   0.200
54910W        W20071  39.972   2.491   3.648
54911W        W20072  15.325  23.665   3.171
54912W        W20073  23.927  33.056   3.237
54913W        W20074   8.180   7.327   0.928
54914W        W20075  10.922  19.052   0.820
54915W        W20076   6.234   9.096   1.459
54916W        W20077  29.603   9.728   2.938
54917W        W20078  29.494  43.801   2.646
54918W        W20079  11.145  24.663  11.230
54919W        W20080  40.790  21.300   1.447
54920W        W20081  43.318   3.648   3.694
54921W        W20082  44.735  40.736   3.248
54922W        W20083  23.286  22.939  10.444
54923W        W20084   2.273  44.860  14.185
54924W        W20085  38.111  31.813   0.384
54925W        W20086  31.691  32.969  14.002
54926W        W20087  35.168  19.656  11.234
54927W        W20088  16.760  35.397   0.788
54928W        W20089  13.187  41.118   2.288
54929W        W20090  17.246  36.552  11.650
54930W        W20091   3.257  27.173  13.515
54931W        W20092  14.147   9.270   4.396
54932W        W20093  25.968   8.750   2.436
54933W        W20094  12.389  12.892   0.771
54934W        W20095  19.524   1.476  14.312
54935W        W20096   5.624  15.759   2.085
54936W        W20097  32.982   8.313  12.039
54937W        W20098  19.622  11.837  14.902
54938W        W20099  18.365  13.559  14.000
54939W        W20100  12.262  23.671  12.147
54940W        W20101  32.408  28.192  14.600
54941W        W20102   8.659  34.763   0.313
54942W        W20103   0.782  28.553  12.502
54943W        W20104   8.769   1.853  12.032
54944W        W20105  20.333  28.279  12.860
54945W        W20106  24.115  10.798  11.194
54946W        W20107   2.043  31.160  11.196
54947W        W20108  18.572   7.562   3.313
54948W        W20109  14.718  35.502   0.017
54949W        W20110  30.082  41.505   0.995
54950W        W20111   4.717  43.241   1.357
54951W        W20112  15.777   0.995  10.628
54952W        W20113   7.803   3.337  10.994
54953W        W20114  31.956  37.412   2.001
54954W        W20115  39.001  41.063  13.197
54955W        W20116  21.179  13.801   2.212
54956W        W20117  26.338  23.577  13.438
54957W        W20118  44.978  19.544  12.604
54958W        W20119  42.750  20.817   1.797
54959W        W20120  34.770   5.390   1.868
54960W        W20121  29.055  13.919  11.182
54961W        W20122  43.453  10.088  11.037
54962W        W20123  30.652  15.311  11.167
54963W        W20124  37.857  34.783  12.588
54964W        W20125  25.477  10.220  12.421
54965W        W20126  12.108  43.839   1.066
54966W        W20127  40.144  10.268  11.599
54967W        W20128  17.161   2.701   3.646
54968W        W20129  32.336  36.503   1.692
54969W        W20130  11.559  24.037   4.132
54970W        W20131  28.225  23.309  14.479
54971W        W20132  19.834  27.595   3.111
54972W        W20133  24.361  37.270  14.900
54973W        W20134  11.454   8.892  13.774
54974W        W20135   1.755   9.338   1.947
54975W        W20136  33.611   3.843   1.946
54976W        W20137   5.587   3.720   1.410
54977W        W20138  30.109  20.333  13.350
54978W        W20139  25.154  25.152   2.198
54979W        W20140  10.728  34.171  14.740
54980W        W20141  19.264   9.193  13.953
54981W        W20142  23.987  17.936  14.453
54982W        W20143  43.353  39.878   3.107
54983W        W20144  16.292  12.865   3.951
54984W        W20145  27.598  27.093  13.020
54985W        W20146  10.671  13.310  11.093
54986W        W20147  34.677  20.305   1.396
54987W        W20148  28.584  32.439   2.820
54988W        W20149   0.144  10.763   4.656
54989W        W20150  16.632  11.429   2.941
54990W        W20151  24.884  40.868  10.591
54991W        W20152  19.493  12.580   4.018
54992W        W20153   2.993  14.808  13.842
54993W        W20154  19.252  24.928   2.870
54994W        W20155  32.084  35.091  14.335
54995W        W20156  27.919  37.013   3.734
54996W        W20157  15.961  29.016  11.534
54997W        W20158  39.081   9.720  12.801
54998W        W20159  19.639  22.158   4.760
54999W        W20160  38.382  22.636   3.855
55000W        W20161  17.686  19.104   1.280
55001W        W20162  17.401  26.620   1.871
55002W        W20163  12.299  22.512   1.488
55003W        W20164   6.182  23.615  10.655
55004W        W20165   8.870  29.107   3.731
55005W        W20166  27.676  42.011   4.078
55006W        W20167   9.721  14.306  13.814
55007W        W20168  37.472  32.550  14.254
55008W        W20169  40.899  25.261   2.327
55009W        W20170  35.498  33.413  11.464
55010W        W20171  11.771  39.879   4.843
55011W        W20172   1.910  32.840   3.711
55012W        W20173   3.000  28.388  14.376
55013W        W20174  43.914   5.637  14.289
55014W        W20175  21.809  15.787  14.947
55015W        W20176   4.000  37.048   3.324
55016W        W20177   8.321  36.624  13.456
55017W        W20178   9.840  24.249   0.542
55018W        W20179   7.352  37.045  12.671
55019W        W20180  17.061  25.455   2.792
55020W        W20181  20.213  10.502   1.797
55021W        W20182   2.835  23.739   0.285
55022W        W20183  29.865  15.992   0.811
55023W        W20184  32.676  19.617  13.330
55024W        W20185  40.400   8.622   4.244
55025W        W20186  25.641  24.608   3.091
55026W        W20187   8.168   0.349  10.984
55027W        W20188  30.600  15.263  13.542
55028W        W20189   4.299   4.165   1.123
55029W        W20190  31.400  26.614   1.009
55030W        W20191  23.631  27.227  14.781
55031W        W20192  31.620  33.155   3.585
55032W        W20193  29.073   6.488   3.178
55033W        W20194  14.046  27.159   1.770
55034W        W20195  33.491  41.895   0.399
55035W        W20196   2.178  10.161   3.300
55036W        W20197  14.180  27.723   2.834
55037W        W20198   1.871   4.509   1.862
55038W        W20199  30.496   7.676  13.973
55039W        W20200   4.690  30.501  14.052
55040W        W20201  34.964  30.117   2.267
55041W        W20202  15.603  21.234   0.202
55042W        W20203  18.226  37.331  12.520
55043W        W20204  29.578  38.657   0.280
55044W        W20205  13.200  40.003  11.056
55045W        W20206  41.324   5.746  11.047
55046W        W20207   7.191   4.479   2.699
55047W        W20208  10.988   7.974  14.704
55048W        W20209  25.165  30.651  13.731
55049W        W20210  14.313  12.039   1.787
55050W        W20211  33.489  31.164   3.635
55051W        W20212  22.331  12.416   1.407
55052W        W20213  17.282  24.206   4.140
55053W        W20214  42.742  11.295   1.713
55054W        W20215   5.199   2.696   0.846
55055W        W20216  29.188   2.889  11.659
55056W        W20217  42.645  27.995  13.095
55057W        W20218  44.564  44.874  14.568
55058W        W20219  17.676  27.156  14.137
55059W        W20220  11.558  29.179  13.530
55060W        W20221   4.737  26.292   0.872
55061W        W20222  35.194  33.683   2.266
55062W        W20223   1.261  26.567  11.575
55063W        W20224   9.412  20.010   4.663
55064W        W20225  39.837  27.204  12.917
55065W        W20226  42.481  44.709   0.377
55066W        W20227  39.469  21.757   1.927
55067W        W20228  29.597  22.096   4.703
55068W        W20229  30.387   0.005  14.963
55069W        W20230  15.602  32.947   2.413
55070W        W20231  17.790  34.504  11.602
55071W        W20232   7.724  18.595  14.863
55072W        W20233  39.450  33.606  11.889
55073W        W20234  25.180  38.815   4.060
55074W        W20235  19.586  34.386  11.241
55075W        W20236   5.859  29.201   2.633
55076W        W20237   9.090  21.287  12.671
55077W        W20238  30.844  15.304   0.210
55078W        W20239  29.853   6.374   4.648
55079W        W20240  16.821  21.457  14.696
55080W        W20241  35.455  22.875  12.218
55081W        W20242  22.799   3.756   3.362
55082W        W20243  22.749   7.299  14.776
55083W        W20244  29.621   7.393   0.749
55084W        W20245  19.704  12.823   1.609
55085W        W20246  28.143  38.886  14.344
55086W        W20247   5.999  14.802  12.397
55087W        W20248  31.417  20.533   0.856
55088W        W20249  36.583  35.428  12.426
55089W        W20250  35.158  42.549   2.299
55090W        W20251  11.939  19.297  12.104
55091W        W20252  19.489  13.100  10.672
55092W        W20253  41.844  37.103   3.696
55093W        W20254  20.937  26.481  11.069
55094W        W20255  11.821  29.185   4.939
55095W        W20256  34.370  36.065  10.197
55096W        W20257  34.327   5.451   0.534
55097W        W20258  12.054  44.557  13.169
55098W        W20259  22.651   5.787  11.297
55099W        W20260  34.078   8.678  13.747
55100W        W20261  31.414  37.961  10.757
55101W        W20262  23.686  14.058  13.618
55102W        W20263  21.277  36.435  13.801
55103W        W20264  43.536  42.372  14.961
55104W        W20265  16.166  42.336  14.924
55105W        W20266  25.529  41.785   0.878
55106W        W20267  20.139  43.308  10.631
55107W        W20268  16.598  24.292   1.885
55108W        W20269  14.527  36.176  11.189
55109W        W20270  10.137   3.825  13.095
55110W        W20271  20.599  40.165  10.177
55111W        W20272   0.194  38.767   2.975
55112W        W20273  13.337   8.139   2.246
55113W        W20274  20.029  17.265  12.070
55114W        W20275  39.002  32.402  10.681
55115W        W20276  33.428  13.107  10.485
55116W        W20277  11.902  30.428  14.461
55117W        W20278  41.268   9.865  11.528
55118W        W20279  18.278  22.757   2.182
55119W        W20280  29.898   4.421   2.278
55120W        W20281  40.049  27.697   4.067
55121W        W20282  34.961  16.759   2.443
55122W        W20283  28.086  41.382  10.657
55123W        W20284  13.893   7.323  11.468
55124W        W20285   8.453   1.218  10.670
55125W        W20286  24.291  13.200   0.720
55126W        W20287  10.368   1.451  12.504
55127W        W20288  33.877  22.781  14.560
55128W        W20289  26.104  29.410   1.374
55129W        W20290  33.937  19.645   0.361
55130W        W20291  22.660  32.579  12.562
55131W        W20292  29.373   8.038  12.542
55132W        W20293  17.288  20.479  10.992
55133W        W20294  34.346  21.969  12.518
55134W        W20295  17.723  32.516  11.244
55135W        W20296  38.510  33.671  12.672
55136W        W20297  36.117  38.225  12.680
55137W        W20298  30.867  19.000   4.910
55138W        W20299  10.544  27.945   3.356
55139W        W20300  33.045  17.814   2.288
55140W        W20301  10.026   8.844   0.049
55141W        W20302  17.743  42.275  13.080
55142W        W20303  26.008  28.393   1.439
55143W        W20304   1.618  32.863  11.843
55144W        W20305  28.911  25.403   2.915
55145W        W20306  11.602   0.459   1.313
55146W        W20307   3.156   8.810  10.796
55147W        W20308  43.514  18.014  11.128
55148W        W20309  16.188  37.367  14.068
55149W        W20310  42.750   2.924  11.182
55150W        W20311   3.637   7.751   2.081
55151W        W20312  15.156  35.390   3.697
55152W        W20313  37.012  10.928  12.755
55153W        W20314  36.925  24.851  12.884
55154W        W20315  41.349  31.573   2.342
55155W        W20316  22.626  15.638  13.347
55156W        W20317  37.427   1.221   1.533
55157W        W20318   0.320   4.367  13.574
55158W        W20319  11.632   1.304   4.106
55159W        W20320  42.517  28.422  12.358
55160W        W20321  19.105  24.266  13.084
55161W        W20322  26.991  38.035  11.944
55162W        W20323  28.181   7.298   2.623
55163W        W20324  11.342  10.563  11.121
55164W        W20325   6.739  30.728   2.839
55165W        W20326  20.586  12.847  11.150
55166W        W20327  28.606   1.497  10.574
55167W        W20328   0.878  22.131  11.942
55168W        W20329   4.908  38.646   1.443
55169W        W20330  42.281  23.183   3.123
55170W        W20331  35.668  12.899  13.489
55171W        W20332  37.097   9.891  14.864
55172W        W20333  11.834  30.987  10.755
55173W        W20334  44.324   4.613   1.553
55174W        W20335  19.352  36.524   1.826
55175W        W20336  44.104   2.142   0.777
55176W        W20337   1.194   3.226   1.415
55177W        W20338  19.641   4.878   2.998
55178W        W20339  38.116  17.558   0.518
55179W        W20340  20.453  27.466  12.574
55180W        W20341  28.392   3.178  11.498
55181W        W20342  34.599  10.153  14.855
55182W        W20343  15.596  25.411   3.527
55183W        W20344  18.642  39.377  10.225
55184W        W20345  16.398  26.529   1.774
55185W        W20346  13.151   1.900   5.255
55186W        W20347  37.586   1.777   4.380
55187W        W20348  12.183  36.021   1.001
55188W        W20349  28.730  29.647   1.854
55189W        W20350   5.434   0.284  13.782
55190W        W20351  27.134  27.279   4.291
55191W        W20352  37.638  23.570   2.823
55192W        W20353  22.512   3.455  14.733
55193W        W20354   7.702   7.415   2.806
55194W        W20355  29.739   4.667   0.814
55195W        W20356  40.730  19.063   1.919
55196W        W20357  37.098  15.745   2.186
55197W        W20358  11.086  20.646   4.049
55198W        W20359  38.298   4.905  13.851
55199W        W20360  39.387  36.164  10.746
55200W        W20361  24.522  26.465   2.210
55201W        W20362  11.070  16.189  13.602
55202W        W20363  37.842   1.052   1.794
55203W        W20364  25.629  44.353   4.774
55204W        W20365   7.755   3.861   1.588
55205W        W20366  10.707  27.700   2.423
55206W        W20367  14.235  29.560  14.567
55207W        W20368  21.665  14.099   4.596
55208W        W20369   5.706  23.666  12.881
55209W        W20370  13.896  42.481  10.428
55210W        W20371   5.480   8.867  12.951
55211W        W20372  40.958  24.812  12.521
55212W        W20373   5.798  13.674   3.389
55213W        W20374  17.405  37.477   3.776
55214W        W20375  18.166  43.837  13.551
55215W        W20376  23.581  37.396  12.962
55216W        W20377  14.649   9.224  13.595
55217W        W20378  28.994  26.864   3.902
55218W        W20379   1.746  34.902  12.676
55219W        W20380   5.770   2.228  13.243
55220W        W20381  39.794   2.742   0.417
55221W        W20382   0.040  33.488   2.007
55222W        W20383  36.385  24.192  13.354
55223W        W20384   0.709   6.190  14.738
55224W        W20385  35.412   1.826  12.089
55225W        W20386  16.194  33.357  10.575
55226W        W20387  37.037  14.870  12.511
55227W        W20388   8.357  27.076   4.083
55228W        W20389  23.057  18.349   0.843
55229W        W20390  40.102  24.065  14.831
55230W        W20391  44.817   0.263   2.804
55231W        W20392  29.450  35.062   0.484
55232W        W20393   9.383  10.861  11.989
55233W        W20394  35.845   9.019  11.703
55234W        W20395  27.553  17.305  10.942
55235W        W20396   0.990  21.069   0.422
55236W        W20397   8.133  31.960   3.680
55237W        W20398  42.032   8.183  10.569
55238W        W20399  21.431  35.107  11.609
55239W        W20400  31.503  19.744   2.611
55240W        W20401  43.072  41.207   2.788
55241W        W20402   7.373  44.491  11.896
55242W        W20403  31.610  27.225  14.894
55243W        W20404  18.686  29.529  14.957
55244W        W20405  37.460   4.278  10.511
55245W        W20406  13.582  18.745  12.251
55246W        W20407  28.300  43.944  12.013
55247W        W20408  40.908  12.692  14.443
55248W        W20409   6.946  11.497   1.134
55249W        W20410  15.756  43.037  12.824
55250W        W20411  37.662  21.995  12.550
55251W        W20412  16.547  44.562   0.420
55252W        W20413  44.357  42.866  10.373
55253W        W20414  37.872  44.968  14.906
55254W        W20415  32.654  18.296  14.964
55255W        W20416  12.498  43.371   4.596
55256W        W20417  15.816   4.185   2.013
55257W        W20418  11.409  43.709   3.705
55258W        W20419   1.129  15.525  13.022
55259W        W20420  26.654  14.636  13.044
55260W        W20421  41.985   9.306  11.919
55261W        W20422  13.266  21.223   0.961
55262W        W20423  43.311  20.582   2.940
55263W        W20424  38.509  38.952   1.059
55264W        W20425  30.043  24.594   0.710
55265W        W20426  24.001  44.784  10.722
55266W        W20427  14.274  38.346  14.656
55267W        W20428  23.129  30.386  14.906
55268W        W20429  35.165  16.336   3.673
55269W        W20430  30.410  25.578  11.579
55270W        W20431   1.435  29.064  13.340
55271W        W20432  19.806  42.839   4.503
55272W        W20433  27.044  31.576   0.219
55273W        W20434   7.925  13.718   2.792
55274W        W20435  34.796  24.563   1.774
55275W        W20436  33.335  33.282   0.849
55276W        W20437   1.232  18.286  12.474
55277W        W20438  36.657  21.464   3.090
55278W        W20439   6.898  25.295   4.121
55279W        W20440  27.713  17.213   2.827
55280W        W20441  12.435   2.214  13.547
55281W        W20442  42.403  18.044  14.349
55282W        W20443  44.663   5.926   2.696
55283W        W20444  10.220  14.210   4.646
55284W        W20445  44.438  23.147  11.030
55285W        W20446   1.766   4.207   2.701
55286W        W20447  10.205  33.907   0.789
55287W        W20448  18.842  36.699   2.776
55288W        W20449  12.769  28.385   2.629
55289W        W20450  36.300  14.826  10.731
55290W        W20451  39.420  20.706  12.257
55291W        W20452  10.051  38.563  13.365
55292W        W20453  18.336  15.089   2.297
55293W        W20454   4.700  27.152  14.825
55294W        W20455  16.370  33.005   3.680
55295W        W20456   3.292  38.112  14.033
55296W        W20457   6.913  18.358  10.998
55297W        W20458  24.205  18.122  13.537
55298W        W20459  16.074  10.398  14.419
55299W        W20460  27.022  13.390   2.259
55300W        W20461   0.385  32.838   2.775
55301W        W20462  15.470  33.298  12.558
55302W        W20463  24.724  19.527  10.276
55303W        W20464  36.934  10.821  11.341
55304W        W20465  20.077  35.622  11.833
55305W        W20466   1.926  26.175   3.826
55306W        W20467  29.561  44.507   4.727
55307W        W20468  28.555  12.846   1.790
55308W        W20469   4.817  29.031  14.419
55309W        W20470   1.320  20.836   4.330
55310W        W20471   1.560  28.105  14.343
55311W        W20472  34.413  28.550  13.588
55312W        W20473  11.759  20.572   1.796
55313W        W20474  31.256   6.721   4.226
55314W        W20475  15.198  30.892   0.790
55315W        W20476   9.605   5.964   4.566
55316W        W20477  42.692  23.647   1.731
55317W        W20478  21.727  42.268   1.455
55318W        W20479  32.612  24.622  11.129
55319W        W20480  35.034  40.006  10.592
55320W        W20481  12.812   5.898  13.984
55321W        W20482   9.746  33.286  13.048
55322W        W20483  11.134  31.893   2.952
55323W        W20484   8.149   8.847  14.502
55324W        W20485   5.970  31.011   2.414
55325W        W20486   2.046  29.979  14.930
55326W        W20487   5.000   0.442  12.861
55327W        W20488  44.365  29.599   0.211
55328W        W20489  38.119  22.279  14.863
55329W        W20490  32.962  31.371   3.751
55330W        W20491  43.318  23.963  13.082
55331W        W20492  20.596  32.089  13.022
55332W        W20493   6.259  42.912  11.109
55333W        W20494  11.776   0.509  11.693
55334W        W20495  33.906  26.908  13.185
55335W        W20496  13.269   7.903   1.767
55336W        W20497  44.954  36.892  14.384
55337W        W20498  33.130  25.544  14.009
55338W        W20499  40.553  36.970   0.832
55339W        W20500  12.592  30.131  14.074
55340W        W20501  15.931  30.666   3.737
55341W        W20502  28.434  18.653  12.466
55342W        W20503  10.708  29.575  12.608
55343W        W20504  18.541   4.579   0.466
55344W        W20505  40.569  18.059  10.766
55345W        W20506  23.056  20.856  13.131
55346W        W20507  33.229  32.544   3.089
55347W        W20508  27.029  44.221   2.901
55348W        W20509   7.846  43.829   1.726
55349W        W20510  29.555  18.523   3.160
55350W        W20511  21.643  38.065  11.594
55351W        W20512  11.566   1.019  11.665
55352W        W20513   2.880  38.626  10.319
55353W        W20514  22.467  25.190   4.026
55354W        W20515   4.792   2.920   1.911
55355W        W20516  13.303  21.053  12.316
55356W        W20517  20.656  32.187   0.345
55357W        W20518  24.768   3.262   0.857
55358W        W20519  36.974  31.214   0.315
55359W        W20520  31.558  36.306   1.381
55360W        W20521  33.191  21.188  12.418
55361W        W20522  22.218  37.751   2.420
55362W        W20523  19.074  27.777   3.291
55363W        W20524  16.799   3.721  10.681
55364W        W20525  41.467  40.978   3.635
55365W        W20526  31.900   0.509  12.028
55366W        W20527  21.615  10.200  11.146
55367W        W20528   5.014  38.745   0.008
55368W        W20529  12.564  42.812   2.706
55369W        W20530  40.862   0.941   0.870
55370W        W20531  36.413  38.448  13.046
55371W        W20532  10.119  37.061  13.464
55372W        W20533  31.211   0.617  12.519
55373W        W20534  20.145  35.123  13.644
55374W        W20535  15.667  28.451   3.795
55375W        W20536  18.271  15.831   1.415
55376W        W20537  17.528  20.910  11.156
55377W        W20538  12.139  13.324  11.452
55378W        W20539  41.886   1.234   3.191
55379W        W20540  30.915  21.199   4.073
55380W        W20541  41.431  24.238  12.677
55381W        W20542   6.060   3.883   1.222
55382W        W20543   1.884  18.264   1.374
55383W        W20544  35.824   0.726   1.390
55384W        W20545  37.326   6.895  11.542
55385W        W20546  39.658  33.830   3.526
55386W        W20547   2.175  10.029   5.465
55387W        W20548  30.445   2.847  11.049
55388W        W20549  30.350   8.921  13.541
55389W        W20550  34.493   7.607   0.525
55390W        W20551  39.323  20.994   3.163
55391W        W20552  32.705  41.244  11.454
55392W        W20553   6.068  26.949  12.820
55393W        W20554  42.277  29.440   1.188
55394W        W20555   4.171  30.854   2.884
55395W        W20556  11.597  15.866   4.506
55396W        W20557  27.199  27.949   3.641
55397W        W20558   3.447  25.918   3.668
55398W        W20559   9.630  43.118  12.142
55399W        W20560  28.504   1.773   2.633
55400W        W20561  26.687  35.669   0.315
55401W        W20562  29.143  40.081  11.243
55402W        W20563  22.998  39.748  10.596
55403W        W20564  11.006  21.619  13.352
55404W        W20565   8.634  37.162  12.003
55405W        W20566  44.391  27.900  12.896
55406W        W20567  13.461   4.378   4.816
55407W        W20568  44.950  38.524  12.373
55408W        W20569  15.191  44.930  13.163
55409W        W20570   4.745   3.862   1.116
55410W        W20571  18.105   0.417  10.770
55411W        W20572  26.627  32.006   3.714
55412W        W20573  24.526  43.558  13.957
55413W        W20574  20.097  20.783   2.936
55414W        W20575  36.198  13.017  11.545
55415W        W20576   3.272  35.801   2.212
55416W        W20577  39.564  23.163   3.388
55417W        W20578  41.579  34.460  11.713
55418W        W20579  32.968  26.804   2.874
55419W        W20580  27.275  23.303   5.588
55420W        W20581  33.571  10.031   5.018
55421W        W20582  17.064  36.901  13.720
55422W        W20583  31.349  25.411  14.477
55423W        W20584   8.787  11.048   1.763
55424W        W20585  38.532  36.652   3.073
55425W        W20586  29.184   7.377   1.367
55426W        W20587   4.718  40.721   4.489
55427W        W20588  23.216  30.619  14.449
55428W        W20589  29.892  36.834   0.608
55429W        W20590  14.211  10.563  12.414
55430W        W20591  41.476  23.583  10.445
55431W        W20592   6.391  14.033   0.758
55432W        W20593  23.589  13.750   0.955
55433W        W20594  35.853  30.400  14.422
55434W        W20595  30.911  26.458   1.011
55435W        W20596  19.086  18.227  13.174
55436W        W20597  27.228   8.313  14.868
55437W        W20598  26.360  42.412  10.676
55438W        W20599   5.624   9.589  13.808
55439W        W20600  13.380   6.373   2.573
55440W        W20601  22.896  22.440   1.760
55441W        W20602  16.761  20.573   1.889
55442W        W20603   6.323  42.230   0.834
55443W        W20604  40.511  42.862   4.252
55444W        W20605  28.962  40.572   2.829
55445W        W20606  19.826   5.884   3.249
55446W        W20607  11.759  12.400  12.983
55447W        W20608   4.025  40.487  11.129
55448W        W20609  12.613  38.525   1.931
55449W        W20610  24.065   1.667  11.146
55450W        W20611  43.383  35.716   2.860
55451W        W20612  19.249  29.923  13.927
55452W        W20613   4.651   2.689  13.327
55453W        W20614  44.384  30.656  10.863
55454W        W20615  33.518  32.582   1.591
55455W        W20616  27.642  27.864   4.037
55456W        W20617  40.471  38.895   4.569
55457W        W20618  42.233   5.931  14.363
55458W        W20619  11.843  35.010   3.732
55459W        W20620   8.238   5.837  14.496
55460W        W20621  29.527   8.626  14.616
55461W        W20622  27.710  29.372   1.792
55462W        W20623  21.965  13.173   1.264
55463W        W20624  42.333  29.888   4.316
55464W        W20625   4.810  13.347  12.529
55465W        W20626   8.202  15.189   1.984
55466W        W20627  41.406  22.758  12.958
55467W        W20628  10.136  25.743   0.755
55468W        W20629  33.797  15.080  12.289
55469W        W20630  17.879  30.995  14.054
55470W        W20631  40.917  18.411  10.591
55471W        W20632   3.018  44.559  14.358
55472W        W20633   1.203  25.769   1.885
55473W        W20634   5.859  20.732  10.940
55474W        W20635  31.961  30.336  10.627
55475W        W20636  28.424  43.123  13.115
55476W        W20637  22.138  41.346  11.434
55477W        W20638  17.616  37.272   2.706
55478W        W20639  13.226  43.301   3.692
55479W        W20640  25.686  43.344  13.600
55480W        W20641  43.342  34.218   2.749
55481W        W20642  38.801  37.015  12.636
55482W        W20643  36.638  37.947   3.209
55483W        W20644  15.831  44.985  14.530
55484W        W20645  10.423  44.012   0.966
55485W        W20646  44.388  17.027  11.184
55486W        W20647  23.622  43.937  11.128
55487W        W20648  40.519   0.243  12.572
55488W        W20649   1.256  38.039  10.826
55489W        W20650  33.022   8.280  13.886
55490W        W20651  34.866  26.139  13.910
55491W        W20652  20.449  12.428   0.989
55492W        W20653   1.438  33.499  13.897
55493W        W20654  34.967  34.409   1.923
55494W        W20655  33.692  34.604   2.820
55495W        W20656  37.489  34.865  14.396
55496W        W20657  19.614  12.733  12.354
55497W        W20658  11.658  22.487   1.977
55498W        W20659  41.865  41.591   4.331
55499W        W20660  28.984  27.219  14.537
55500W        W20661  32.078   6.669  11.420
55501W        W20662  36.502   9.545   1.060
55502W        W20663  22.566  20.906  10.259
55503W        W20664  44.746  10.480  10.449
55504W        W20665  31.114   8.347  10.553
55505W        W20666  23.669  16.624   3.285
55506W        W20667   8.770  10.654   0.344
55507W        W20668  23.480  12.590  11.785
55508W        W20669  20.188  10.222  13.778
55509W        W20670  36.131  12.144  11.044
55510W        W20671  39.467  27.096  10.755
55511W        W20672   9.110  24.181   3.877
55512W        W20673  38.425   9.338   4.875
55513W        W20674  21.008  34.474  11.167
55514W        W20675  11.004  22.398  14.348
55515W        W20676  36.386  20.305   3.787
55516W        W20677   9.922  38.892   3.775
55517W        W20678   5.181  19.395   3.325
55518W        W20679  39.673  12.111   4.814
55519W        W20680  41.970  33.973  14.918
55520W        W20681  12.148   3.665  14.928
55521W        W20682  41.119  35.983   1.313
55522W        W20683   5.031  21.203   4.227
55523W        W20684  12.078  10.797  14.003
55524W        W20685  29.923   5.162   3.548
55525W        W20686  23.552  15.109  12.794
55526W        W20687   5.861  20.513   2.941
55527W        W20688  29.652  13.379   2.961
55528W        W20689  14.785  33.398  11.898
55529W        W20690  26.163  41.993  11.625
55530W        W20691  40.429   9.847   1.236
55531W        W20692  13.095  20.484   1.441
55532W        W20693  16.331  20.175   3.584
55533W        W20694  42.964  21.490  11.908
55534W        W20695  22.771  25.436  14.371
55535W        W20696  41.769  19.063   1.803
55536W        W20697   0.744  38.937  12.093
55537W        W20698   1.308   8.214   3.115
55538W        W20699  12.117   8.879   1.748
55539W        W20700  41.318  25.201  12.525
55540W        W20701  36.674  33.038   4.492
55541W        W20702  27.885  27.726  13.680
55542W        W20703  30.607  39.327  14.943
55543W        W20704   9.779  40.999  13.389
55544W        W20705   5.145   9.783   4.688
55545W        W20706  34.429   0.275   2.192
55546W        W20707   4.256  37.658  12.169
55547W        W20708  12.809  10.717   2.382
55548W        W20709  40.794  11.200   0.873
55549W        W20710  44.964  32.409  11.550
55550W        W20711  38.204  12.380  10.990
55551W        W20712  32.880  31.701  13.775
55552W        W20713  32.588  31.150  10.688
55553W        W20714  25.851  37.866  11.618
55554W        W20715  26.541  26.548  12.811
55555W        W20716  31.555  14.763   0.985
55556W        W20717  42.838  41.338   1.878
55557W        W20718   3.288  17.959  12.532
55558W        W20719   0.973  44.963  14.946
55559W        W20720  30.496   1.962  11.075
55560W        W20721  30.157  40.743  14.946
55561W        W20722  12.298  41.377   0.451
55562W        W20723  27.474  43.525   2.593
55563W        W20724   9.579  18.595   2.567
55564W        W20725  24.956  10.110  14.917
55565W        W20726   2.775  30.171  11.659
55566W        W20727  43.281   6.502  14.705
55567W        W20728  34.859  15.459   1.806
55568W        W20729  13.494  12.179  14.739
55569W        W20730   2.291  23.741  10.733
55570W        W20731  42.903  22.419  11.574
55571W        W20732  16.003   3.359   1.305
55572W        W20733  17.865   8.302  13.444
55573W        W20734   8.224  39.384  14.405
55574W        W20735   3.299  27.945   1.000
55575W        W20736  29.053   1.729  12.942
55576W        W20737  19.768  21.173   4.391
55577W        W20738  44.535  14.098  13.396
55578W        W20739  25.715   9.103  11.998
55579W        W20740  43.756  37.033  12.398
55580W        W20741  39.940  31.438  12.846
55581W        W20742  31.400   9.880  10.609
55582W        W20743  40.769  16.539   3.190
55583W        W20744  22.213  14.174  14.303
55584W        W20745  23.171  25.746  13.142
55585W        W20746  22.787  38.863   0.476
55586W        W20747  20.533  38.539   4.961
55587W        W20748  21.263  26.072  10.621
55588W        W20749  15.270  12.083  13.865
55589W        W20750  30.168  11.301   2.366
55590W        W20751  19.543  20.080  10.932
55591W        W20752  34.614   6.254   0.233
55592W        W20753   2.985  32.175   1.369
55593W        W20754  22.972  34.160  11.106
55594W        W20755   5.850  18.252  14.755
55595W        W20756  35.115  44.425   2.258
55596W        W20757  29.081  16.582   1.248
55597W        W20758   4.789  15.038   1.895
55598W        W20759  18.639  17.979   5.041
55599W        W20760   1.329  20.326   1.333
55600W        W20761  40.487   1.225   3.807
55601W        W20762  18.047  28.641  14.419
55602W        W20763   7.614  33.621   0.301
55603W        W20764  13.575  25.731   1.184
55604W        W20765  35.092  40.688  12.133
55605W        W20766  32.065   2.598   4.694
55606W        W20767   0.517  30.044   0.335
55607W        W20768   9.376  41.999   3.509
55608W        W20769  18.675   0.742   1.288
55609W        W20770  13.417   6.241  11.522
55610W        W20771  42.305  26.563  11.294
55611W        W20772  21.687  35.448  14.431
55612W        W20773   7.724  22.211   3.636
55613W        W20774  41.411  20.125   1.260
55614W        W20775  35.302   7.330  12.129
55615W        W20776  20.086  25.062  11.523
55616W        W20777  16.862  33.600   1.916
55617W        W20778  39.787  33.459  13.984
55618W        W20779  16.438  32.978   2.857
55619W        W20780  23.551  18.052   4.721
55620W        W20781  35.400  20.163   2.742
55621W        W20782  11.182  36.082  10.594
55622W        W20783  25.236   0.760   1.238
55623W        W20784  21.022  34.866  10.682
55624W        W20785   7.724  33.863  14.852
55625W        W20786  10.602  29.083  12.496
55626W        W20787  37.052  32.607  10.626
55627W        W20788  15.725  38.963   2.751
55628W        W20789  42.413  25.535   4.717
55629W        W20790   9.860  23.027  12.309
55630W        W20791   9.215  32.629   3.424
55631W        W20792   1.820  28.498  10.431
55632W        W20793   0.235  21.992   0.832
55633W        W20794  19.506  39.039  12.413
55634W        W20795   4.807  24.745   0.903
55635W        W20796   3.399  10.659  11.121
55636W        W20797  44.749  23.524  10.855
55637W        W20798  39.377  18.091   2.275
55638W        W20799  19.187  28.164  14.856
55639W        W20800  43.276  15.809  11.563
55640W        W20801  20.209   1.350  12.760
55641W        W20802  43.219  31.703   4.341
55642W        W20803  38.679   6.338  13.778
55643W        W20804  34.904   3.759   1.377
55644W        W20805  12.961  19.501   1.225
55645W        W20806  44.947  43.756   0.469
55646W        W20807   8.106   8.331  11.713
55647W        W20808  22.495   1.854   0.842
55648W        W20809  11.316  27.903  11.238
55649W        W20810  17.007   1.407   2.296
55650W        W20811  18.967  31.888   2.794
55651W        W20812  36.095  16.505   4.124
55652W        W20813   0.757  37.854  10.859
55653W        W20814  37.106  23.962   0.785
55654W        W20815  39.415   7.801   1.749
55655W        W20816  30.847  15.118   3.540
55656W        W20817  26.725  43.185   3.715
55657W        W20818  44.826  41.936   3.680
55658W        W20819  28.531  15.060  11.561
55659W        W20820   5.466  42.768  12.934
55660W        W20821  22.550  38.598  11.481
55661W        W20822  18.619   7.204  14.873
55662W        W20823  43.139  24.097   0.930
55663W        W20824   9.634  18.771   1.237
55664W        W20825  38.468  10.899   0.103
55665W        W20826   4.653  14.615   4.635
55666W        W20827   4.555  10.735   2.350
55667W        W20828  20.771  18.248   2.156
55668W        W20829  28.418  41.344  13.050
55669W        W20830  26.487  20.150  12.939
55670W        W20831  11.919  40.414  10.665
55671W        W20832  22.299  30.566  14.654
55672W        W20833   6.662  36.140   4.258
55673W        W20834  17.979  28.290   2.351
55674W        W20835  40.823   0.825  12.091
55675W        W20836  14.140  42.862  14.711
55676W        W20837  43.569  29.387  14.278
55677W        W20838   8.910  38.036  13.105
55678W        W20839  13.951  44.356  12.548
55679W        W20840  21.517  30.119  14.723
55680W        W20841  41.792  16.570  13.618
55681W        W20842  42.511   6.786   2.860
55682W        W20843   8.120   3.221   4.586
55683W        W20844  21.604  29.517   2.818
55684W        W20845  20.070  22.206   9.926
55685W        W20846  21.175  41.279  11.691
55686W        W20847  12.174  34.384   4.579
55687W        W20848   8.931  21.222  13.544
55688W        W20849   7.725  43.501   4.633
55689W        W20850   8.266  41.204  11.706
55690W        W20851  37.244  26.443   0.078
55691W        W20852  22.108  37.176  10.762
55692W        W20853  39.779  24.924   3.232
55693W        W20854  18.006  36.565  12.910
55694W        W20855   6.092   1.660  12.474
55695W        W20856  43.066  43.881  11.701
55696W        W20857  27.293  42.718   1.724
55697W        W20858  18.949  39.492   9.830
55698W        W20859  22.043   8.991   1.025
55699W        W20860   6.749  31.222  13.954
55700W        W20861  25.195  15.292   2.439
55701W        W20862   0.464  29.534  14.295
55702W        W20863  44.248  17.069   4.062
55703W        W20864   1.245  36.012   5.039
55704W        W20865   6.543  24.017  10.668
55705W        W20866  25.784  32.489   4.058
55706W        W20867  28.525   6.080  14.765
55707W        W20868  14.138  11.642   0.820
55708W        W20869   3.186  34.502   1.140
55709W        W20870  12.908   1.921   1.813
55710W        W20871  14.592   8.717  14.411
55711W        W20872  26.506   5.786  14.060
55712W        W20873  14.069  31.249  12.427
55713W        W20874  29.096  10.734  13.305
55714W        W20875   6.861  41.496  11.141
55715W        W20876  39.618  38.340  14.441
55716W        W20877  19.050  19.436   1.267
55717W        W20878  11.080  35.705  13.133
55718W        W20879   5.322  27.498   0.523
55719W        W20880  44.838  21.638  14.291
55720W        W20881  29.570  20.621   3.968
55721W        W20882  19.033  13.966  12.524
55722W        W20883  37.479   0.486   0.425
55723W        W20884   6.821  18.313  12.920
55724W        W20885  16.254  35.998   1.319
55725W        W20886   7.243   0.526   2.207
55726W        W20887   1.716  23.635  12.422
55727W        W20888  11.406   0.860   4.248
55728W        W20889  28.608  21.093  12.073
55729W        W20890  16.231   3.766  11.833
55730W        W20891  25.652   4.310   4.129
55731W        W20892  25.285  42.216   1.203
55732W        W20893  12.133  26.671  12.934
55733W        W20894  12.493  14.077  11.128
55734W        W20895  41.565  14.651  14.303
55735W        W20896   4.511  21.925   5.096
55736W        W20897  41.319   7.456  13.742
55737W        W20898  33.880   1.307  11.756
55738W        W20899  23.979  32.857  14.380
55739W        W20900   7.176  34.323  11.105
55740W        W20901   0.027  19.771   2.158
55741W        W20902  14.806  43.401  10.111
55742W        W20903  36.878  26.678  12.433
55743W        W20904  24.714  26.476   3.289
55744W        W20905  43.141  23.329  14.991
55745W        W20906  22.672  35.581   1.038
55746W        W20907   2.880  32.522  10.666
55747W        W20908  31.988   3.761  11.482
55748W        W20909  10.148  36.477   4.439
55749W        W20910   9.188  18.053  12.476
55750W        W20911  44.727   3.599  12.749
55751W        W20912  17.110  34.471  14.382
55752W        W20913  40.732  15.571  13.477
55753W        W20914  42.854  41.100  14.504
55754W        W20915   5.645  35.460   3.377
55755W        W20916  39.447   0.207   0.366
55756W        W20917  33.123  12.123   4.686
55757W        W20918  40.899  27.280  12.316
55758W        W20919  42.270   7.176  12.850
55759W        W20920  10.324  31.800   2.378
55760W        W20921  31.612   3.284  14.874
55761W        W20922  37.773  19.315   1.384
55762W        W20923  43.490   7.686  10.936
55763W        W20924  36.881  39.051   1.390
55764W        W20925   4.162  40.701  12.123
55765W        W20926  23.508  40.606  12.459
55766W        W20927  31.553  38.851   4.138
55767W        W20928  41.405   0.300  13.019
55768W        W20929  29.094  24.015  14.000
55769W        W20930  26.016  24.580   2.266
55770W        W20931  10.373  43.453   0.378
55771W        W20932  26.540  29.672   1.234
55772W        W20933   1.479  18.578  11.482
55773W        W20934  38.340  41.349  14.781
55774W        W20935  19.609  15.134   3.563
55775W        W20936  34.993   4.979  14.789
55776W        W20937  13.670  34.653  13.106
55777W        W20938  28.084  40.285  10.386
55778W        W20939  10.158  35.125  12.333
55779W        W20940  22.120  19.805  13.137
55780W        W20941  40.593  20.102  12.032
55781W        W20942  19.265  37.307  10.759
55782W        W20943  23.247  44.401  14.905
55783W        W20944  36.470  42.972   5.056
55784W        W20945   2.356   3.401   2.258
55785W        W20946  23.466  31.423  11.978
55786W        W20947   0.407  24.688   0.850
55787W        W20948  14.078   1.474   2.414
55788W        W20949  41.812  16.208  14.576
55789W        W20950  37.758   9.096  11.642
55790W        W20951  12.762  39.694  11.140
55791W        W20952  25.623  25.251  11.256
55792W        W20953  33.894  11.927   4.893
55793W        W20954  34.151  22.809  10.410
55794W        W20955  24.279  35.846   3.205
55795W        W20956  35.649  28.738   3.672
55796W        W20957  38.338  44.125   2.433
55797W        W20958  27.934  22.657   3.067
55798W        W20959  15.714  15.137   2.568
55799W        W20960   8.996   3.952   1.128
55800W        W20961  33.235  38.165  10.622
55801W        W20962  41.754  29.315  12.520
55802W        W20963  20.735  42.383   3.646
55803W        W20964  28.849  31.880   3.162
55804W        W20965  29.858  27.121   4.430
55805W        W20966  20.066  29.083   2.153
55806W        W20967   1.855  28.710  11.457
55807W        W20968   2.237  14.715   1.722
55808W        W20969  20.456  17.265   3.136
55809W        W20970  14.898  43.995  13.575
55810W        W20971  34.473  43.912  13.346
55811W        W20972  20.549  37.382   3.383
55812W        W20973  44.946   7.407  12.554
55813W        W20974   9.417  19.810  10.717
55814W        W20975   9.944  30.580   1.832
55815W        W20976  23.323  35.258   0.994
55816W        W20977  11.335   0.630  12.089
55817W        W20978  44.525  14.549  11.100
55818W        W20979  32.215  22.479  10.739
55819W        W20980  19.844   0.932  13.489
55820W        W20981   0.359  22.945   3.714
55821W        W20982   3.015   9.867   2.272
55822W        W20983   5.883  33.213   1.232
55823W        W20984  33.011   0.366  14.702
55824W        W20985   7.898  10.304  10.798
55825W        W20986   1.976  18.305   2.276
55826W        W20987  36.605   7.488  11.423
55827W        W20988  41.599  42.148  13.860
55828W        W20989  36.393  10.062  13.319
55829W        W20990  10.888  17.563   0.799
55830W        W20991   0.293   5.320  10.658
55831W        W20992  22.509  14.715  14.764
55832W        W20993  41.236  36.868   0.194
55833W        W20994  25.041  21.195  13.623
55834W        W20995  29.493  12.403   3.244
55835W        W20996   0.773   3.309  13.594
55836W        W20997  10.679  18.080   1.904
55837W        W20998  44.065  17.251   3.158
55838W        W20999  37.495  25.757   0.667
55839W        W21000  11.819   4.757   0.778
55840W        W21001  37.929  44.329  14.263
55841W        W21002  16.223  14.605  11.002
55842W        W21003  27.200  29.644  13.967
55843W        W21004  22.199   6.459  11.730
55844W        W21005  30.089  38.183  12.280
55845W        W21006  11.235  16.691   1.853
55846W        W21007   6.292   7.880  13.614
55847W        W21008   8.148  10.407   3.764
55848W        W21009  19.442  35.918   3.621
55849W        W21010  40.252   1.477   1.778
55850W        W21011  19.832   1.905  12.152
55851W        W21012   3.892  23.805  11.933
55852W        W21013   6.825  33.512   1.791
55853W        W21014   6.314   7.663   3.593
55854W        W21015  16.768  44.346   2.823
55855W        W21016  23.045   3.550   1.779
55856W        W21017  43.826  26.687   3.723
55857W        W21018  26.195  17.745   1.819
55858W        W21019  28.603  31.893   0.525
55859W        W21020  44.198   9.343  11.506
55860W        W21021  23.556  17.429   2.978
55861W        W21022   9.518  34.588  14.887
55862W        W21023  20.613   0.381   2.310
55863W        W21024  27.204   8.682   4.548
55864W        W21025  38.866   0.505   1.709
55865W        W21026  11.957  34.845   4.548
55866W        W21027   8.423  41.904  10.721
55867W        W21028  42.909  40.243  14.721
55868W        W21029  15.265  34.429  12.522
55869W        W21030  27.932  33.759  10.078
55870W        W21031   9.800  19.806  13.819
55871W        W21032  14.323  21.657   1.381
55872W        W21033   1.670  37.627   1.703
55873W        W21034  34.548  14.388   3.280
55874W        W21035  41.293  20.141   3.809
55875W        W21036   1.818   5.746  13.075
55876W        W21037   7.790  44.982  13.896
55877W        W21038  39.819   8.174   1.444
55878W        W21039  37.928   9.805   1.621
55879W        W21040  42.523  22.105   2.096
55880W        W21041   9.955  35.596   4.382
55881W        W21042  25.398  34.451  13.544
55882W        W21043  22.246  29.655   4.251
55883W        W21044  11.493  40.987  10.490
55884W        W21045  39.068  33.948   1.896
55885W        W21046   3.674  10.252  11.873
55886W        W21047  27.681  20.731  14.812
55887W        W21048  38.949  30.437   0.294
55888W        W21049  20.042  30.128  10.428
55889W        W21050   4.433  10.100   2.840
55890W        W21051  13.594  40.994   3.761
55891W        W21052  42.664   3.235  11.609
55892W        W21053  39.183  35.009   4.133
55893W        W21054  38.495  21.529   2.243
55894W        W21055  40.896   1.935  14.712
55895W        W21056  13.129  43.957   2.452
55896W        W21057  43.326  33.669   2.854
55897W        W21058  41.376  43.296  11.876
55898W        W21059  24.042  39.405   3.280
55899W        W21060  10.074  31.906  12.967
55900W        W21061  23.791   5.825  13.925
55901W        W21062   7.840  39.281  13.559
55902W        W21063  35.849  13.795  13.566
55903W        W21064  37.375   0.695  14.899
55904W        W21065  44.277  28.516  10.330
55905W        W21066  19.435  15.902  10.716
55906W        W21067  42.992  44.193   2.807
55907W        W21068  37.761  29.956  11.546
55908W        W21069   5.176   8.469   4.380
55909W        W21070  16.846  18.522   1.305
55910W        W21071  37.573  31.952   0.401
55911W        W21072  26.967  43.856   4.557
55912W        W21073  28.640  13.239  14.427
55913W        W21074  20.013  19.619  11.004
55914W        W21075  27.161  29.669  11.109
55915W        W21076  17.322  22.742  14.458
55916W        W21077  34.345   3.919  11.860
55917W        W21078  29.680   9.246   2.816
55918W        W21079  23.057  11.686  12.083
55919W        W21080  39.619   0.926  13.312
55920W        W21081  18.466   1.509   1.720
55921W        W21082   2.578  37.465  10.715
55922W        W21083  11.549  19.593   1.564
55923W        W21084  34.987   3.415  13.518
55924W        W21085   4.321  28.946   3.466
55925W        W21086  20.256  10.817   0.160
55926W        W21087  22.960  23.294  11.307
55927W        W21088   8.190  18.225  12.341
55928W        W21089  22.011   1.442   4.401
55929W        W21090  10.796  36.041   1.385
55930W        W21091   6.964  33.230   3.587
55931W        W21092  23.485  37.101  12.532
55932W        W21093  38.596  26.514  12.838
55933W        W21094  24.207  20.593  14.517
55934W        W21095  43.974  14.039  11.576
55935W        W21096   2.771   9.748   2.702
55936W        W21097  41.337  13.585  14.905
55937W        W21098  21.701   5.737   1.253
55938W        W21099   4.682  18.246   2.094
55939W        W21100  20.703  36.773   1.741
55940W        W21101  22.613  41.564   3.296
55941W        W21102   4.566  24.005  10.418
55942W        W21103  13.266  12.200  12.717
55943W        W21104  28.030  32.676  10.791
55944W        W21105  43.941  15.059   2.312
55945W        W21106  15.692   2.700  13.275
55946W        W21107  10.227   0.844  13.474
55947W        W21108  29.666  17.649  14.050
55948W        W21109   5.699   6.455   4.167
55949W        W21110   7.447  16.501  14.840
55950W        W21111  21.072  28.210  10.719
55951W        W21112  44.946   7.296  14.865
55952W        W21113  33.497  33.452   3.088
55953W        W21114  38.508  22.042   2.260
55954W        W21115  25.316  10.389  14.000
55955W        W21116  31.333  25.767  10.662
55956W        W21117  37.473  30.387   1.425
55957W        W21118  13.691  17.424   2.700
55958W        W21119  10.058  26.113   0.375
55959W        W21120   4.173  10.741  11.575
55960W        W21121  28.033  35.327  10.759
55961W        W21122   8.282  13.751  14.513
55962W        W21123  40.504  39.299   2.238
55963W        W21124  20.369  39.520  14.365
55964W        W21125  26.700  31.758  10.793
55965W        W21126  37.384  10.518  11.510
55966W        W21127   6.900  13.392   1.949
55967W        W21128  35.328  15.226   4.269
55968W        W21129   6.941  41.559   2.888
55969W        W21130  21.695   5.843   2.203
55970W        W21131  19.526  20.001  13.920
55971W        W21132   4.204  18.724   1.816
55972W        W21133  30.341  34.798  12.113
55973W        W21134  44.761  43.027   3.590
55974W        W21135  10.322  22.449   1.373
55975W        W21136  34.861  32.493   3.863
55976W        W21137   5.098  13.976  13.048
55977W        W21138  27.042  14.534   0.776
55978W        W21139  16.119  32.349  13.286
55979W        W21140   3.515  35.011  12.097
55980W        W21141  12.109  23.535   3.257
55981W        W21142  20.243  44.012  11.994
55982W        W21143  12.558  17.746   4.225
55983W        W21144  38.030  17.772   2.898
55984W        W21145   5.828   4.800   3.121
55985W        W21146   8.108  34.906   3.655
55986W        W21147  44.546  42.925  14.564
55987W        W21148   7.940  15.213  10.986
55988W        W21149  39.832   2.258   4.092
55989W        W21150  44.355  11.632   0.426
55990W        W21151  28.974  30.026   4.393
55991W        W21152  30.288   8.739   2.711
55992W        W21153  14.862   0.871   2.190
55993W        W21154  44.453  43.333  11.120
55994W        W21155  30.563  19.103   3.085
55995W        W21156   0.217  32.228   3.119
55996W        W21157   2.465   9.187   0.266
55997W        W21158  40.875  30.546  14.517
55998W        W21159  16.164  23.250   3.590
55999W        W21160   6.027  23.135  10.757
56000W        W21161  17.655  28.585  14.070
56001W        W21162  23.784  27.140  11.580
56002W        W21163  12.222  15.751  14.219
56003W        W21164  10.297  34.426   4.280
56004W        W21165  22.702  40.921  11.659
56005W        W21166  32.257  35.878   4.880
56006W        W21167  21.073  30.012  11.511
56007W        W21168  39.278  17.518   0.874
56008W        W21169  27.152  10.689  10.279
56009W        W21170  35.782  17.132   4.102
56010W        W21171  11.434   6.885   1.931
56011W        W21172   4.831  13.621  10.951
56012W        W21173  21.239   2.303  11.976
56013W        W21174  36.467  35.529  10.666
56014W        W21175  27.943  37.801   1.388
56015W        W21176  44.235  12.003   1.359
56016W        W21177   5.188  13.740  10.619
56017W        W21178  36.848   8.284   4.474
56018W        W21179  10.139   9.191   2.681
56019W        W21180   4.254  41.394  10.611
56020W        W21181  19.032  33.845  13.365
56021W        W21182  13.609   0.776   3.333
56022W        W21183   4.000  44.222   0.857
56023W        W21184  19.993  24.871  14.966
56024W        W21185  42.397  37.602   3.513
56025W        W21186  16.666  33.614  10.503
56026W        W21187  40.386  32.064   4.953
56027W        W21188   9.278  24.275  12.523
56028W        W21189  39.439   8.877  12.856
56029W        W21190  43.589   9.501   0.826
56030W        W21191  39.282   5.198  13.972
56031W        W21192  18.748  22.550   2.230
56032W        W21193  40.818   8.923  14.623
56033W        W21194  36.875  12.782   3.852
56034W        W21195  31.278  28.142   3.891
56035W        W21196  32.516  31.664  14.940
56036W        W21197  37.759  10.584  12.580
56037W        W21198   0.220   6.197   4.081
56038W        W21199   1.213  44.457   4.824
56039W        W21200  28.019   8.251  12.370
56040W        W21201  42.697   6.927   0.299
56041W        W21202  32.104   3.629  13.280
56042W        W21203  33.548   1.159   4.757
56043W        W21204  22.700  25.305   4.989
56044W        W21205   7.781  21.516  14.852
56045W        W21206   2.372  26.998   1.533
56046W        W21207  21.510  39.034   2.313
56047W        W21208  35.595  27.158  12.659
56048W        W21209  29.096   5.347  13.366
56049W        W21210  29.366  42.233   0.942
56050W        W21211  33.094   1.153   0.381
56051W        W21212  26.642  20.107  10.464
56052W        W21213  43.465   4.976   4.078
56053W        W21214  17.063  36.587  13.080
56054W        W21215  40.424   6.059   1.758
56055W        W21216   9.032  44.743  10.454
56056W        W21217   4.655  10.569   4.257
56057W        W21218  23.071  35.150   2.738
56058W        W21219  27.955   9.895  14.481
56059W        W21220  29.914  29.192  11.955
56060W        W21221  34.339  23.768  12.429
56061W        W21222  27.956  39.581  10.151
56062W        W21223   1.344  43.758  11.404
56063W        W21224  16.586  29.918  14.295
56064W        W21225  34.312  28.377  14.393
56065W        W21226   1.401  25.619  14.206
56066W        W21227  21.515  43.754   4.137
56067W        W21228  14.582   0.956   3.167
56068W        W21229  17.942   3.630  11.429
56069W        W21230  20.881  11.743   5.194
56070W        W21231  27.631   1.390   0.264
56071W        W21232  16.255   9.370   1.472
56072W        W21233  37.076  22.736  11.536
56073W        W21234  13.280  37.860   1.466
56074W        W21235   2.785   8.453  10.712
56075W        W21236  13.616  26.201  13.893
56076W        W21237   5.873  39.234  13.473
56077W        W21238  11.309  27.755  11.823
56078W        W21239  17.917  31.387  14.932
56079W        W21240   8.187  35.232  10.742
56080W        W21241   5.809  40.016  14.464
56081W        W21242  43.926  31.989   4.597
56082W        W21243   7.776   1.971   0.775
56083W        W21244  21.331  13.150  12.034
56084W        W21245   9.237  20.624   2.809
56085W        W21246  20.148   3.176   2.247
56086W        W21247   6.121  26.646  11.614
56087W        W21248  44.448  40.445  10.594
56088W        W21249  36.443  36.938  12.925
56089W        W21250  13.237  24.479   3.863
56090W        W21251   6.968  16.215   1.317
56091W        W21252  12.605  17.506  14.305
56092W        W21253   4.749  43.759   1.465
56093W        W21254  44.429  14.730   0.321
56094W        W21255  31.079  38.036  11.150
56095W        W21256  23.484  12.728   3.264
56096W        W21257  33.483  32.937  14.471
56097W        W21258   9.696  24.742   0.431
56098W        W21259  34.597  21.228  14.852
56099W        W21260  44.943   3.889  12.386
56100W        W21261   8.344  18.544  10.970
56101W        W21262  42.378   5.987  10.610
56102W        W21263   2.376  43.417  12.875
56103W        W21264  44.292  33.042  11.511
56104W        W21265   8.184  30.629  10.766
56105W        W21266  20.713  13.568   2.333
56106W        W21267  42.839  28.667   4.609
56107W        W21268  33.693  32.508  14.312
56108W        W21269   0.757  44.804  14.111
56109W        W21270  12.689  16.624   1.502
56110W        W21271  22.974   0.718  10.899
56111W        W21272  22.582  38.647   3.193
56112W        W21273  43.084  25.280  11.196
56113W        W21274  18.643  43.027  13.421
56114W        W21275   8.749  19.515   4.171
56115W        W21276  39.918  19.007   0.268
56116W        W21277  23.101   9.809   1.301
56117W        W21278  44.281  15.336  11.552
56118W        W21279   7.791  39.152   0.477
56119W        W21280  43.458  42.517   4.078
56120W        W21281  43.067  42.381   0.776
56121W        W21282   9.229   6.421   3.105
56122W        W21283   7.469  35.975  10.764
56123W        W21284   0.430  34.569  14.960
56124W        W21285  14.096  10.438   1.134
56125W        W21286   0.038   3.353   3.190
56126W        W21287  31.413  22.643  12.683
56127W        W21288  33.063  15.153   0.088
56128W        W21289   0.268  29.947  10.682
56129W        W21290  19.762  17.079  14.839
56130W        W21291  13.381  16.773  11.165
56131W        W21292  25.187  40.841   4.033
56132W        W21293   4.264   8.387  11.560
56133W        W21294  27.453  24.815   4.981
56134W        W21295   5.908  24.594   0.032
56135W        W21296  37.214  32.822   4.891
56136W        W21297  28.558  30.458  11.903
56137W        W21298  29.598  10.228   1.276
56138W        W21299   5.862  13.742   3.923
56139W        W21300   1.944  14.577  14.878
56140W        W21301  12.665  23.987  10.666
56141W        W21302  24.276  34.347   3.652
56142W        W21303  26.051  19.436   0.504
56143W        W21304  16.225  14.188   2.314
56144W        W21305   5.493  15.270   2.233
56145W        W21306   4.425   8.327   3.061
56146W        W21307  14.927  28.693  14.916
56147W        W21308  26.246  17.405   4.995
56148W        W21309  42.486  21.701  11.440
56149W        W21310  40.256  30.589   0.010
56150W        W21311  21.306  40.556   5.333
56151W        W21312  38.579  26.578   0.780
56152W        W21313   1.915  36.839   9.809
56153W        W21314  38.593  44.760   3.631
56154W        W21315   8.252  37.461  11.049
56155W        W21316  35.573  40.834  12.023
56156W        W21317  40.468  34.333   3.762
56157W        W21318  26.535  35.487   0.805
56158W        W21319   7.956  28.758  12.663
56159W        W21320  28.726   9.720   3.099
56160W        W21321   1.451  35.401   2.866
56161W        W21322  12.279  42.383   3.630
56162W        W21323   9.316  28.075   0.175
56163W        W21324   2.449  12.377   0.768
56164W        W21325  14.331  11.277   0.120
56165W        W21326  22.137   0.310  14.901
56166W        W21327  12.206  22.115  10.669
56167W        W21328  16.751  32.999   3.301
56168W        W21329  31.664  11.344  11.734
56169W        W21330   9.847  25.751  13.960
56170W        W21331  23.731  43.419   1.829
56171W        W21332  42.522  39.891  12.899
56172W        W21333  12.630  42.809  10.439
56173W        W21334  35.072  13.703  12.093
56174W        W21335  41.401  12.039  14.850
56175W        W21336  23.988  36.499   4.365
56176W        W21337  19.320  34.852  12.782
56177W        W21338  14.667  14.875   2.247
56178W        W21339  28.073  29.997  13.458
56179W        W21340  12.855  22.223   2.279
56180W        W21341  12.829  17.120  14.802
56181W        W21342   6.691  37.094   4.164
56182W        W21343   4.422  38.835   2.766
56183W        W21344  35.530  42.518  11.469
56184W        W21345  10.254  34.745   0.426
56185W        W21346  38.399  28.222   3.351
56186W        W21347  11.451  36.091   0.501
56187W        W21348  30.877  23.939  12.777
56188W        W21349  18.007  42.929  10.826
56189W        W21350  16.091  15.411   2.799
56190W        W21351  39.325  29.435   4.373
56191W        W21352   2.442  34.862   4.382
56192W        W21353  36.139   1.324  11.073
56193W        W21354  40.897   1.422  10.909
56194W        W21355  40.837  36.806  11.782
56195W        W21356  30.720   7.456   4.272
56196W        W21357  29.144  27.376  10.732
56197W        W21358  23.851   6.230  14.517
56198W        W21359  27.229  19.711  11.897
56199W        W21360  22.237  11.441   0.675
56200W        W21361  34.983  13.194   0.971
56201W        W21362  17.584  17.229   3.651
56202W        W21363  36.617  21.185  14.591
56203W        W21364  26.846  42.356  12.573
56204W        W21365  24.649  13.336  14.959
56205W        W21366  35.912  22.553  12.985
56206W        W21367   6.235   6.761   0.075
56207W        W21368  15.744  20.909  14.584
56208W        W21369  40.395  44.444  14.949
56209W        W21370  24.309  15.801   0.746
56210W        W21371  26.608  15.845   2.792
56211W        W21372  32.931  17.976   4.034
56212W        W21373  38.073  38.783   0.806
56213W        W21374  12.753   3.992  13.957
56214W        W21375  27.219  25.628  12.015
56215W        W21376  44.828   4.188   0.806
56216W        W21377  40.568  44.708  13.976
56217W        W21378  25.189  37.029   5.139
56218W        W21379  20.559   2.923   0.341
56219W        W21380  43.968  21.539   3.289
56220W        W21381  39.902   0.031  12.801
56221W        W21382  18.145  10.721   4.401
56222W        W21383  26.470  39.355  14.963
56223W        W21384   1.415  42.233   1.175
56224W        W21385  11.701   5.004   4.092
56225W        W21386  22.230  22.991   3.316
56226W        W21387  17.252   7.810  11.313
56227W        W21388  26.978  30.956  14.329
56228W        W21389  10.380  40.031   3.583
56229W        W21390  20.553  23.996  14.752
56230W        W21391  35.803  36.491  13.962
56231W        W21392  36.607  33.984   4.559
56232W        W21393  42.790   8.238   4.103
56233W        W21394  12.829  28.939   1.757
56234W        W21395   1.748  17.745   1.438
56235W        W21396   6.224  11.598  11.544
56236W        W21397  15.803  40.904  14.766
56237W        W21398  14.844  24.943  12.510
56238W        W21399  41.323  11.799   0.346
56239W        W21400  19.135  27.481   3.704
56240W        W21401  27.263  38.552   1.294
56241W        W21402  16.502  28.817   3.614
56242W        W21403   4.232   0.802  11.878
56243W        W21404  12.610  19.636  11.565
56244W        W21405   8.371  11.836  10.587
56245W        W21406  34.594   8.667  10.807
56246W        W21407  41.108  42.365  13.880
56247W        W21408  35.024  20.759  10.618
56248W        W21409  44.719  44.568  11.172
56249W        W21410  19.822  20.730  10.648
56250W        W21411  44.831  19.127   4.465
56251W        W21412  42.721  41.020   0.740
56252W        W21413   7.229  20.570   3.366
56253W        W21414  13.848  40.824  14.785
56254W        W21415  38.087  39.316  11.658
56255W        W21416  30.911   8.796   0.736
56256W        W21417  32.650  10.210   4.890
56257W        W21418  32.556  14.896   3.062
56258W        W21419  21.721   9.145   1.429
56259W        W21420  38.537  32.262  14.851
56260W        W21421  19.038  38.407   2.302
56261W        W21422  19.504  20.125  11.438
56262W        W21423  29.216  13.722   3.701
56263W        W21424   6.967  33.618  13.419
56264W        W21425  15.596  29.685   1.280
56265W        W21426  15.333  31.728  11.235
56266W        W21427  29.970  11.788  11.410
56267W        W21428  30.138  17.083  11.119
56268W        W21429  29.659  17.718   0.375
56269W        W21430  23.203  30.006  12.271
56270W        W21431   7.699   7.868   0.626
56271W        W21432   9.723   4.250  14.889
56272W        W21433  42.456  41.356  12.351
56273W        W21434  32.788  34.833   1.207
56274W        W21435  26.354  43.517  12.577
56275W        W21436  29.015  22.968  14.955
56276W        W21437  44.918  35.995   3.246
56277W        W21438  18.453  10.187  13.304
56278W        W21439   6.836  20.988  14.970
56279W        W21440  35.395  15.791  10.817
56280W        W21441   9.362  44.857  13.782
56281W        W21442  39.550  19.622   0.404
56282W        W21443  12.327   5.668   4.218
56283W        W21444   5.689  14.242   1.600
56284W        W21445  32.459  24.507   4.469
56285W        W21446  32.663  12.808   2.777
56286W        W21447   7.899  16.248   4.587
56287W        W21448  39.544   1.007   0.074
56288W        W21449   8.156  11.347  10.639
56289W        W21450  18.297  21.284  11.505
56290W        W21451   6.794  23.013   4.127
56291W        W21452   3.508  22.868   2.609
56292W        W21453   0.840   6.236  13.812
56293W        W21454   5.125  26.552  14.003
56294W        W21455   0.391  14.554   0.382
56295W        W21456  43.355  11.735   1.664
56296W        W21457  25.747  12.582   1.642
56297W        W21458   4.057  10.905   2.288
56298W        W21459  11.272  37.127  14.358
56299W        W21460   7.689  35.953   1.381
56300W        W21461  18.908  17.442  11.557
56301W        W21462  10.315  23.588  10.619
56302W        W21463  12.623   9.367   3.774
56303W        W21464  35.922   4.725   0.499
56304W        W21465  39.921  33.389  12.633
56305W        W21466  38.265   4.183  12.288
56306W        W21467  44.792   5.965  12.485
56307W        W21468  14.762  13.323   2.110
56308W        W21469   0.776  14.992   2.867
56309W        W21470  22.267   9.717   2.233
56310W        W21471   4.664  36.858  11.464
56311W        W21472   1.950   2.111   3.674
56312W        W21473   4.929  39.324   0.911
56313W        W21474  34.208  12.100   2.244
56314W        W21475   9.758   6.966  13.946
56315W        W21476  11.887   1.396  11.547
56316W        W21477  42.017  25.196  11.334
56317W        W21478   3.877  43.244  13.671
56318W        W21479   9.703   0.943  14.470
56319W        W21480  36.224   9.938   1.209
56320W        W21481  43.915  14.111   1.820
56321W        W21482  18.100  43.712  11.271
56322W        W21483  31.813   6.040   0.810
56323W        W21484  42.080   7.407   2.921
56324W        W21485  14.798  11.387   0.301
56325W        W21486  16.992  15.533  10.735
56326W        W21487  20.582  40.848   3.364
56327W        W21488  43.520   2.986   1.931
56328W        W21489  16.323  16.705  12.526
56329W        W21490  29.173  38.422  11.010
56330W        W21491  40.067  21.204   3.334
56331W        W21492   5.623  24.577   1.339
56332W        W21493   9.272  16.867  14.336
56333W        W21494  30.492  41.042   1.292
56334W        W21495  19.148  41.524   4.120
56335W        W21496  35.346  12.800   1.563
56336W        W21497  38.859  19.152   2.733
56337W        W21498  10.265   4.293  12.902
56338W        W21499  16.838  25.780   4.152
56339W        W21500  42.307   2.201  11.591
56340W        W21501  21.089  19.529  12.926
56341W        W21502  31.748   1.765   4.437
56342W        W21503  28.682  14.114  14.480
56343W        W21504   1.291  31.149   0.023
56344W        W21505  30.096  22.494  13.908
56345W        W21506  23.197  18.313  14.291
56346W        W21507   0.975  43.033  10.761
56347W        W21508  38.925  34.526  14.136
56348W        W21509   6.132  10.746   4.295
56349W        W21510  42.415  11.959   1.791
56350W        W21511  36.913  35.538   3.583
56351W        W21512  10.277  20.371   4.595
56352W        W21513  14.611  31.995  10.492
56353W        W21514  12.383  12.209   1.968
56354W        W21515  20.718   4.342   1.210
56355W        W21516  16.303   4.466  11.923
56356W        W21517   8.798  34.422   2.184
56357W        W21518  26.427  17.341   0.317
56358W        W21519  28.779  18.975  11.086
56359W        W21520  28.646  13.886   2.702
56360W        W21521  36.058  17.940   4.421
56361W        W21522  13.960  26.051   2.550
56362W        W21523  42.387  24.825   3.058
56363W        W21524  35.453  31.186   1.989
56364W        W21525  18.948  38.833   0.877
56365W        W21526  44.757  11.943   0.336
56366W        W21527  37.564   2.492   5.008
56367W        W21528  15.134  10.841  12.749
56368W        W21529  38.973   6.989  10.575
56369W        W21530  37.435   1.187  14.960
56370W        W21531  17.138  23.274  13.624
56371W        W21532  15.647  25.195  10.626
56372W        W21533   1.878   2.392  14.374
56373W        W21534  16.738   9.203  10.453
56374W        W21535  10.636   0.743   4.735
56375W        W21536  33.596   0.297  11.489
56376W        W21537  15.176  33.644  12.823
56377W        W21538  25.638  23.120   4.584
56378W        W21539   3.562  36.495  14.237
56379W        W21540   8.401  19.017   1.732
56380W        W21541   3.929  25.520   5.024
56381W        W21542  34.445  17.303  14.502
56382W        W21543  38.897  28.652  12.333
56383W        W21544   3.423   2.231   2.203
56384W        W21545  26.948   5.950  13.807
56385W        W21546   3.279   4.056  12.032
56386W        W21547  18.932  26.580  13.808
56387W        W21548  12.293   1.807   0.919
56388W        W21549   9.229   3.972   3.727
56389W        W21550  20.786   8.278  11.998
56390W        W21551  32.640  36.756  12.439
56391W        W21552  30.930  14.204  13.174
56392W        W21553  28.059  28.074  12.909
56393W        W21554  38.313  32.011   2.908
56394W        W21555   4.089  19.685  13.434
56395W        W21556  37.433  12.333   3.791
56396W        W21557  20.645  43.687   0.207
56397W        W21558  38.321  20.091   4.387
56398W        W21559  28.108  42.384   0.386
56399W        W21560  32.487  35.200  11.859
56400W        W21561  43.382  43.360   0.920
56401W        W21562   3.488  11.336   1.324
56402W        W21563  26.075  34.081   4.308
56403W        W21564  18.857  44.049  11.825
56404W        W21565  26.018  44.913  10.919
56405W        W21566   9.160  21.173  10.499
56406W        W21567  24.128   4.465   0.709
56407W        W21568   6.287  24.358  14.758
56408W        W21569  12.307  15.243  13.956
56409W        W21570  41.475  16.619  11.261
56410W        W21571  42.419  42.885  12.594
56411W        W21572  42.877   7.540  14.879
56412W        W21573  25.438  42.256   0.691
56413W        W21574   1.285   2.986  10.677
56414W        W21575  10.709   5.087   4.625
56415W        W21576  39.950  28.304  13.885
56416W        W21577   0.297  10.657   5.318
56417W        W21578  13.138  32.575  12.410
56418W        W21579   2.830  34.561  11.741
56419W        W21580  17.310  34.099  13.854
56420W        W21581  22.183  17.315   2.667
56421W        W21582   1.775  38.604  13.465
56422W        W21583  35.893  37.047   0.391
56423W        W21584  11.543   2.350  14.971
56424W        W21585  17.699  43.355   4.946
56425W        W21586  36.661  21.562  11.003
56426W        W21587  26.543  17.802  12.005
56427W        W21588  28.923   6.254  13.839
56428W        W21589  40.890  33.902   1.428
56429W        W21590   3.461  30.002  13.546
56430W        W21591  12.811  11.363   1.711
56431W        W21592  24.208  30.973  11.982
56432W        W21593  20.128  33.373  13.012
56433W        W21594  10.858  15.364   4.366
56434W        W21595  10.062  10.937   1.138
56435W        W21596   2.341  42.693   2.723
56436W        W21597  15.326   2.321   4.876
56437W        W21598  24.064  13.071   1.188
56438W        W21599  18.187  33.488   3.129
56439W        W21600  13.729  20.999   1.850
56440W        W21601  42.506  28.429   2.802
56441W        W21602   7.209  32.796  11.173
56442W        W21603  31.819  35.544  13.044
56443W        W21604   7.933  20.481   2.414
56444W        W21605  19.884  12.090  11.604
56445W        W21606  44.296   4.828   0.955
56446W        W21607   9.157  40.549   3.353
56447W        W21608  11.166  41.629  12.751
56448W        W21609  13.505  32.304  14.913
56449W        W21610  35.162  31.907   0.349
56450W        W21611  21.064  31.607  13.383
56451W        W21612  13.659  16.709   1.262
56452W        W21613  38.622  15.704  11.072
56453W        W21614  34.627  31.806  13.036
56454W        W21615  16.638  35.140  14.747
56455W        W21616   1.067  10.930   1.827
56456W        W21617  18.042  23.107   2.746
56457W        W21618  18.255  21.536   2.771
56458W        W21619  32.004  18.354  13.615
56459W        W21620  33.457   3.711   4.594
56460W        W21621   3.049  16.800   5.616
56461W        W21622  10.750  41.039  12.922
56462W        W21623   2.691  10.123  14.584
56463W        W21624  17.668  11.645  11.366
56464W        W21625   3.343  21.226   0.186
56465W        W21626   8.357  27.175   0.392
56466W        W21627  40.833  17.592  12.736
56467W        W21628  37.973  16.840   3.313
56468W        W21629   9.567   8.663  14.866
56469W        W21630   3.481  31.023   2.212
56470W        W21631  35.279  41.340  11.201
56471W        W21632  32.296  19.024   1.835
56472W        W21633  44.284   4.078   5.016
56473W        W21634  14.698  29.373  13.822
56474W        W21635  26.198   6.901   1.644
56475W        W21636   2.705  32.482  12.878
56476W        W21637  35.943  15.315   1.711
56477W        W21638  22.554   4.272  11.792
56478W        W21639  21.267   0.323   4.560
56479W        W21640  33.214  25.509  13.219
56480W        W21641  12.246   2.248   2.383
56481W        W21642  42.925  22.244  12.061
56482W        W21643  44.331  34.633  10.811
56483W        W21644  41.418  20.035   3.231
56484W        W21645   4.823  18.852  10.705
56485W        W21646  19.305  17.573  10.248
56486W        W21647  17.342  14.704  12.779
56487W        W21648   4.473  16.305  10.932
56488W        W21649  18.571  37.562   2.612
56489W        W21650  10.184  44.297  13.386
56490W        W21651  26.700  11.053   1.045
56491W        W21652  42.800  15.521  11.034
56492W        W21653  42.102  38.219   1.806
56493W        W21654  26.521  15.778  11.972
56494W        W21655  10.870  42.399  10.699
56495W        W21656  10.200  32.116   2.937
56496W        W21657   0.780  15.815   3.275
56497W        W21658  14.845  31.143   4.100
56498W        W21659  25.070  39.407   2.375
56499W        W21660   5.955   0.173   2.016
56500W        W21661  27.895  40.812  13.582
56501W        W21662  37.632  22.526   1.909
56502W        W21663   2.081  42.577  11.585
56503W        W21664  39.124  16.831   4.462
56504W        W21665  32.874  32.399  12.332
56505W        W21666   4.982  16.802  12.681
56506W        W21667   5.297   3.638   5.087
56507W        W21668   7.731  29.511  14.308
56508W        W21669  19.617  23.920   2.324
56509W        W21670  36.439   6.291  13.434
56510W        W21671  12.035  10.137   4.975
56511W        W21672  42.934  20.680  14.996
56512W        W21673  17.513  38.821  13.787
56513W        W21674  15.121   2.523  14.286
56514W        W21675  24.692  14.378  12.914
56515W        W21676   8.850   8.309  14.426
56516W        W21677  27.075  44.088   0.882
56517W        W21678  15.182   8.381   3.278
56518W        W21679  12.250  22.791   3.503
56519W        W21680  24.248  44.177  13.985
56520W        W21681  34.704  24.584  10.223
56521W        W21682   4.685  24.167   4.096
56522W        W21683  11.850  39.455  12.079
56523W        W21684  35.007   1.458  12.616
56524W        W21685  18.840   1.854   0.485
56525W        W21686  23.990  25.483   4.086
56526W        W21687  13.151  12.483  10.163
56527W        W21688  34.219  14.648   4.761
56528W        W21689   8.642  13.639   0.389
56529W        W21690   4.151  38.083   0.446
56530W        W21691  30.463  13.294  14.308
56531W        W21692  14.103  25.072  13.003
56532W        W21693  20.492  24.132  13.316
56533W        W21694   2.198  18.835  12.239
56534W        W21695  41.266  17.598  14.711
56535W        W21696  37.032  22.602  14.775
56536W        W21697   0.001   4.753  13.393
56537W        W21698  22.626   7.697  11.549
56538W        W21699  35.612  43.015   4.189
56539W        W21700   9.477   9.763  12.947
56540W        W21701  27.049  30.538   3.737
56541W        W21702   6.377   8.824   1.883
56542W        W21703  39.474   3.591  13.742
56543W        W21704  18.398   5.568  14.491
56544W        W21705  43.827  31.350  13.554
56545W        W21706  20.439   4.155  12.939
56546W        W21707  35.371   8.535  11.187
56547W        W21708  31.457   5.694   0.490
56548W        W21709  26.561  34.048  12.198
56549W        W21710  42.610   4.503  11.660
56550W        W21711  29.446  14.189   3.656
56551W        W21712   6.280  35.242  14.690
56552W        W21713  32.183   2.722  12.828
56553W        W21714   4.881  30.319  12.381
56554W        W21715   2.687  34.306  12.164
56555W        W21716   2.422  34.598  13.111
56556W        W21717  23.972  42.464   3.199
56557W        W21718  14.601  16.272   2.364
56558W        W21719  21.539  31.390  14.081
56559W        W21720   7.188  31.859   1.250
56560W        W21721  13.766  18.742  13.636
56561W        W21722  43.504   6.368   0.334
56562W        W21723   5.651  40.919  14.699
56563W        W21724   5.047  27.806  13.368
56564W        W21725  25.166   0.972   4.836
56565W        W21726   2.783  43.074  12.003
56566W        W21727  29.920  16.322   3.639
56567W        W21728  35.917  21.614  14.938
56568W        W21729  37.529   2.389   1.608
56569W        W21730  32.607  27.880  12.408
56570W        W21731  33.573  21.588   0.369
56571W        W21732   9.342  41.766   0.477
56572W        W21733  33.386  25.212   3.254
56573W        W21734  34.950  42.495   1.388
56574W        W21735  44.397  20.801   1.405
56575W        W21736  10.092  25.167   4.623
56576W        W21737  25.536  10.858   0.015
56577W        W21738  33.631  36.546   2.093
56578W        W21739  18.063  43.000   1.476
56579W        W21740  28.099  37.971  10.639
56580W        W21741  19.701  21.731   1.035
56581W        W21742   0.792  43.421   0.858
56582W        W21743   9.778  41.363  10.652
56583W        W21744  42.889  11.739   1.455
56584W        W21745  33.935  30.439  13.045
56585W        W21746  38.294   1.405  13.252
56586W        W21747   1.440  22.133  11.084
56587W        W21748  11.179  13.328  11.126
56588W        W21749  29.860   4.156   3.249
56589W        W21750  41.265   3.121  12.518
56590W        W21751  19.576  33.123  14.883
56591W        W21752  32.042  29.678   4.975
56592W        W21753   5.251  31.150   1.947
56593W        W21754  25.488  34.511  11.682
56594W        W21755  30.163  35.660  11.641
56595W        W21756   9.300  23.985   3.230
56596W        W21757   4.908  21.767  10.707
56597W        W21758  19.830   7.483   4.580
56598W        W21759  15.937  24.359  14.987
56599W        W21760   5.562  27.111   0.796
56600W        W21761   7.143  40.049  14.361
56601W        W21762  43.137  39.875   4.510
56602W        W21763  30.343   1.745  12.606
56603W        W21764  24.569   0.226   0.324
56604W        W21765  14.322  12.155   0.855
56605W        W21766  13.793   1.891   2.342
56606W        W21767  38.887  37.856   2.802
56607W        W21768  39.328  21.438   4.022
56608W        W21769   7.387   6.865  11.192
56609W        W21770   1.616  41.583  12.843
56610W        W21771  42.500  41.452  11.863
56611W        W21772   0.270   1.203  10.528
56612W        W21773  35.039  21.750  10.527
56613W        W21774  37.642   0.533   3.026
56614W        W21775  43.070  17.867   3.435
56615W        W21776   0.677  33.952   2.752
56616W        W21777   9.157  38.220  11.605
56617W        W21778  15.761  18.284  14.779
56618W        W21779  13.334  37.573   0.760
56619W        W21780  26.574  39.558  10.772
56620W        W21781  20.030  40.455  13.812
56621W        W21782   8.938  40.032  11.086
56622W        W21783   6.350  42.527   2.754
56623W        W21784  36.013  15.766  14.909
56624W        W21785  42.305  38.816   4.079
56625W        W21786   8.779  25.608  10.471
56626W        W21787  12.195  23.700   1.855
56627W        W21788   2.062   4.963  12.025
56628W        W21789  13.173  24.183   2.001
56629W        W21790  13.887   7.724  14.393
56630W        W21791  37.315  35.600   1.107
56631W        W21792  39.242   3.876   0.981
56632W        W21793  11.390  10.661   1.956
56633W        W21794  26.531  22.350   4.174
56634W        W21795  35.964  35.945  11.391
56635W        W21796   8.264  24.646  14.617
56636W        W21797  18.103  44.600  12.345
56637W        W21798  32.099  20.533   1.754
56638W        W21799  17.067  14.256   3.772
56639W        W21800  30.648  19.768   4.272
56640W        W21801  31.214  18.366   0.163
56641W        W21802  27.283  13.947   2.401
56642W        W21803  37.655  42.695   3.900
56643W        W21804  26.703  16.774   2.430
56644W        W21805  35.799   7.438   1.478
56645W        W21806  15.576  25.087   2.893
56646W        W21807  29.442  38.088  11.933
56647W        W21808   2.608  25.333  10.059
56648W        W21809  44.920   1.743   0.494
56649W        W21810   3.832  32.347  12.828
56650W        W21811  15.253  21.015   2.089
56651W        W21812  21.308  13.355   0.281
56652W        W21813  18.795  35.399  13.796
56653W        W21814   5.815  26.399   1.694
56654W        W21815  39.753  15.677  13.383
56655W        W21816  32.089  42.778   0.890
56656W        W21817  26.008  11.884   2.150
56657W        W21818  22.514  39.580   3.275
56658W        W21819   4.157   1.373  14.628
56659W        W21820   2.860  21.755   1.846
56660W        W21821  35.836  18.330   2.786
56661W        W21822  20.692  43.782   2.834
56662W        W21823  43.013  19.262  12.537
56663W        W21824  43.896  44.928   1.786
56664W        W21825  43.522  27.085   2.258
56665W        W21826  39.116  39.534  14.918
56666W        W21827  34.012  27.925  12.918
56667W        W21828  38.107  26.938   3.911
56668W        W21829  18.557  43.833  10.910
56669W        W21830   3.505  27.953  11.636
56670W        W21831  23.145   5.288  13.393
56671W        W21832  11.613  30.664  13.918
56672W        W21833   7.133   2.724  13.357
56673W        W21834  24.413  23.160   2.708
56674W        W21835  25.633  37.028  12.896
56675W        W21836   5.609   8.369   1.302
56676W        W21837  13.352  22.408   2.145
56677W        W21838  33.654  41.298  14.085
56678W        W21839  37.089  32.001   4.499
56679W        W21840   9.347  11.153   4.184
56680W        W21841  39.044  42.764  14.394
56681W        W21842   7.468  40.397  11.489
56682W        W21843  33.408  11.290   4.363
56683W        W21844   4.726  36.100  13.645
56684W        W21845  10.340   1.944  11.616
56685W        W21846  12.410  36.474   2.152
56686W        W21847  41.395  12.873  13.746
56687W        W21848  41.516   8.230  13.597
56688W        W21849  40.539  19.496  14.051
56689W        W21850   5.531  19.662  13.842
56690W        W21851  17.082  43.393  10.948
56691W        W21852   9.924  34.913  13.510
56692W        W21853  14.624  41.805   2.802
56693W        W21854  23.976  37.471  13.291
56694W        W21855   6.236  14.324   1.169
56695W        W21856  25.990  12.715   2.761
56696W        W21857  44.419   1.158  12.329
56697W        W21858  33.623  23.777  14.453
56698W        W21859  18.633  36.397  13.428
56699W        W21860  15.429  36.985   2.594
56700W        W21861  37.319   1.398  13.556
56701W        W21862  10.417  22.494  14.458
56702W        W21863   4.857  13.004   0.565
56703W        W21864  26.132   7.404   2.588
56704W        W21865   3.534  12.099   0.442
56705W        W21866  13.007  13.653   0.810
56706W        W21867  37.800   0.824  11.870
56707W        W21868  15.804   2.007   1.264
56708W        W21869  24.480  20.441   4.028
56709W        W21870   8.879  14.032   1.227
56710W        W21871  19.519  11.442   1.198
56711W        W21872  18.979   5.706  11.625
56712W        W21873  24.153   4.012  14.878
56713W        W21874   5.169  44.041   2.668
56714W        W21875   6.469  25.310  13.796
56715W        W21876  24.544  21.711   0.782
56716W        W21877  31.541  18.611   3.715
56717W        W21878  16.651   4.894  12.628
56718W        W21879  40.367  10.227  13.594
56719W        W21880  40.516   4.290   3.302
56720W        W21881   6.924  39.052  11.709
56721W        W21882  40.191  23.756  12.120
56722W        W21883  41.657  21.799   3.703
56723W        W21884   6.779   4.339  12.605
56724W        W21885  27.211   3.443   1.897
56725W        W21886  20.050  37.753   3.661
56726W        W21887  31.713  31.715   4.644
56727W        W21888  42.898  15.324   2.220
56728W        W21889  16.746   7.478   2.288
56729W        W21890  13.487  41.875  13.993
56730W        W21891  19.348  19.672  14.272
56731W        W21892  14.873  30.712  11.687
56732W        W21893  21.101  14.817  14.394
56733W        W21894  22.755  34.428   2.378
56734W        W21895  32.386  12.518  11.655
56735W        W21896   7.850  26.565  11.952
56736W        W21897  18.756  43.127   1.307
56737W        W21898   7.288  42.855   0.974
56738W        W21899   8.797  12.818  12.994
56739W        W21900  36.071  35.604  13.873
56740W        W21901  36.524  29.467   1.716
56741W        W21902  34.498   5.763   0.158
56742W        W21903  31.970   7.102   1.354
56743W        W21904  42.520  30.890   2.186
56744W        W21905  41.238  28.438  14.860
56745W        W21906  34.653  27.247   3.420
56746W        W21907  37.105  32.121   0.278
56747W        W21908  40.607  28.437  11.969
56748W        W21909  24.526  17.703   4.168
56749W        W21910  44.655  42.847   5.012
56750W        W21911  34.994  13.659  11.561
56751W        W21912  32.021  41.581   3.989
56752W        W21913   7.101  27.448  13.778
56753W        W21914  14.808  35.710  12.140
56754W        W21915  20.333  16.564  13.989
56755W        W21916   1.537  43.199  14.430
56756W        W21917  26.955  17.801  11.600
56757W        W21918  31.632  39.126  12.845
56758W        W21919   5.862  15.299  11.171
56759W        W21920  21.192  30.571   2.124
56760W        W21921  30.755  30.562  12.985
56761W        W21922  27.725  26.707   0.223
56762W        W21923   1.225  42.987   2.628
56763W        W21924  31.719   0.204   2.895
56764W        W21925  38.607   6.704   0.396
56765W        W21926   9.874  30.510  12.620
56766W        W21927  31.847   8.691  11.213
56767W        W21928  39.251  27.117   0.491
56768W        W21929   5.751  14.313   2.118
56769W        W21930  11.801  25.557  13.536
56770W        W21931  13.711  36.456  13.474
56771W        W21932   0.997  24.109  10.686
56772W        W21933  43.538  14.195  13.160
56773W        W21934  16.781  19.686  13.879
56774W        W21935  22.538  14.609   3.141
56775W        W21936   4.236  32.602  12.004
56776W        W21937  12.112  14.706   3.573
56777W        W21938  22.484   3.093   2.736
56778W        W21939  29.108  40.032   4.123
56779W        W21940  14.810  28.723   3.201
56780W        W21941   7.922  42.460   4.665
56781W        W21942  21.932   2.328   3.157
56782W        W21943   8.176   7.613  14.212
56783W        W21944  32.198   0.579   4.170
56784W        W21945  26.978  44.295   4.274
56785W        W21946  12.919   9.762  14.241
56786W        W21947   0.744  10.733   2.159
56787W        W21948  35.677  31.426   3.606
56788W        W21949  12.247  12.365  13.970
56789W        W21950  21.648  18.805   3.388
56790W        W21951  18.772  33.443  14.044
56791W        W21952  29.428   6.103   2.476
56792W        W21953  27.459  41.305  14.263
56793W        W21954   1.327  35.094   2.449
56794W        W21955  10.622  18.368   0.265
56795W        W21956  28.200  15.582   2.422
56796W        W21957   2.397  27.685  10.333
56797W        W21958  30.651  20.256  13.899
56798W        W21959  12.036   1.750   2.326
56799W        W21960  17.668   9.367  12.971
56800W        W21961  26.927  12.585  13.372
56801W        W21962  35.016  10.381  12.662
56802W        W21963  15.639  30.010  11.582
56803W        W21964  31.278  33.300  11.178
56804W        W21965  39.470  34.025   4.524
56805W        W21966  26.743   8.319   2.185
56806W        W21967  33.880  36.204  11.218
56807W        W21968  36.567  30.176  12.508
56808W        W21969  17.726  41.756   3.238
56809W        W21970  38.035  10.154  12.431
56810W        W21971   2.304  12.934  14.069
56811W        W21972  21.706  29.631   4.118
56812W        W21973  22.552   8.720   1.466
56813W        W21974  17.480  33.867   4.535
56814W        W21975  36.109  34.561  10.766
56815W        W21976  34.594  10.714  10.944
56816W        W21977  16.535  40.255  12.084
56817W        W21978  28.227   2.323  11.207
56818W        W21979  30.639  32.391   4.150
56819W        W21980  21.813  39.070  14.439
56820W        W21981  29.608   1.554  10.691
56821W        W21982   1.336  39.374  12.929
56822W        W21983  18.413  18.626   0.920
56823W        W21984  25.213  20.984   3.554
56824W        W21985   3.491  25.945   2.406
56825W        W21986  22.453  41.427  10.296
56826W        W21987  35.590  37.482  12.555
56827W        W21988  39.987  23.052   2.861
56828W        W21989  40.996  30.192  12.289
56829W        W21990  14.294  26.536   1.598
56830W        W21991  35.965  16.154   1.923
56831W        W21992  43.218  12.745  14.976
56832W        W21993  23.288  28.422   1.312
56833W        W21994  12.205  17.752  13.556
56834W        W21995  20.428  29.074  10.405
56835W        W21996   3.158  24.169   0.435
56836W        W21997  30.155  26.541  11.072
56837W        W21998  38.328   5.734   3.788
56838W        W21999  39.885  13.751   1.498
56839W        W22000  43.891  13.847   3.751
56840W        W22001   6.802  17.302  14.338
56841W        W22002  12.936  15.049   0.480
56842W        W22003  39.682   0.897   2.234
56843W        W22004  19.311  36.526   0.243
56844W        W22005  19.802  24.714  12.443
56845W        W22006   2.640  25.033   0.620
56846W        W22007  30.412  24.128   2.346
56847W        W22008   9.968  20.886  10.560
56848W        W22009  43.888   6.337   3.155
56849W        W22010  25.447  35.125  13.917
56850W        W22011   9.316  37.711  10.808
56851W        W22012  35.437  25.604   1.292
56852W        W22013  44.402  30.923   4.751
56853W        W22014  42.180  25.457  10.556
56854W        W22015  29.634  40.563  11.544
56855W        W22016  40.901   8.645   2.941
56856W        W22017  32.939  28.414  12.107
56857W        W22018   0.943  42.145  12.449
56858W        W22019  27.648   0.243   2.229
56859W        W22020  15.268  44.531   3.802
56860W        W22021  44.917   9.430   2.390
56861W        W22022  26.211  20.652  14.765
56862W        W22023  41.576  32.554  13.030
56863W        W22024  19.993  13.240  14.884
56864W        W22025  36.295   8.452  11.128
56865W        W22026  30.054  20.213   0.044
56866W        W22027  28.261  33.919  14.005
56867W        W22028  32.330   3.271   2.965
56868W        W22029   8.355   5.204  13.977
56869W        W22030  25.742   9.453  13.366
56870W        W22031  20.467  22.002   1.093
56871W        W22032  10.321   9.656   2.847
56872W        W22033  21.237  14.378   4.628
56873W        W22034  33.867  20.303  14.591
56874W        W22035  19.173  34.608   3.260
56875W        W22036  25.685  16.889   2.549
56876W        W22037   3.255  15.857   3.662
56877W        W22038  15.989  42.612  11.135
56878W        W22039  18.229   4.482   2.561
56879W        W22040  11.365   5.907   1.547
56880W        W22041  44.870   8.889  14.577
56881W        W22042  17.354   4.834  10.655
56882W        W22043  11.752  10.698   0.306
56883W        W22044  39.111  40.573  13.550
56884W        W22045  43.910  17.516  14.186
56885W        W22046  33.290  29.623  14.101
56886W        W22047  23.559  19.668   3.600
56887W        W22048  40.850   7.366   0.704
56888W        W22049  29.114  40.423   5.032
56889W        W22050  21.555  12.090  11.479
56890W        W22051  35.473  40.308   1.242
56891W        W22052  17.159  13.227   0.294
56892W        W22053  39.218  33.490   3.609
56893W        W22054  40.000  13.121   0.454
56894W        W22055  42.307  25.711   1.086
56895W        W22056  20.995  32.715  13.180
56896W        W22057  24.210   3.776  11.567
56897W        W22058  14.621  40.657  12.065
56898W        W22059  15.556  16.177   5.476
56899W        W22060   2.234  39.831   4.115
56900W        W22061  30.615  25.999   3.745
56901W        W22062   5.329   3.966  14.775
56902W        W22063  37.937  10.589  10.915
56903W        W22064  33.570  32.969  12.046
56904W        W22065  18.229  26.965   4.680
56905W        W22066  15.614  25.694  14.852
56906W        W22067  44.388  43.027  13.086
56907W        W22068  28.504  23.886  12.911
56908W        W22069   1.844  37.880  14.164
56909W        W22070   9.274  23.720   2.687
56910W        W22071  38.551  16.937  12.895
56911W        W22072  25.294  43.214   0.053
56912W        W22073  12.829  33.527   3.202
56913W        W22074  29.178  44.897   0.775
56914W        W22075   2.458  27.697   4.603
56915W        W22076  23.578  25.780   3.828
56916W        W22077  22.572   8.690  10.505
56917W        W22078  38.925   5.637   0.982
56918W        W22079  22.965  43.654   3.892
56919W        W22080   5.708  38.171  14.856
56920W        W22081   7.734  36.569   3.146
56921W        W22082  41.869   9.562  12.640
56922W        W22083   7.654  20.170   0.607
56923W        W22084  11.812  12.705   4.616
56924W        W22085  23.486  17.267  12.930
56925W        W22086  43.948  26.589   1.835
56926W        W22087  31.859  20.706  14.710
56927W        W22088   7.476  30.107  12.596
56928W        W22089  12.477  15.662  11.965
56929W        W22090  12.545  11.718   1.956
56930W        W22091  34.424  42.061  14.981
56931W        W22092  26.637  12.076   0.504
56932W        W22093   3.467  12.707  11.281
56933W        W22094   5.739  35.040  10.641
56934W        W22095   0.435   6.469   0.080
56935W        W22096  30.943  26.389  12.999
56936W        W22097   6.367   0.302  11.593
56937W        W22098   3.451  13.913   0.027
56938W        W22099  17.685  23.892   2.252
56939W        W22100  14.596  37.898   3.034
56940W        W22101  10.107  43.097  12.802
56941W        W22102  30.842  37.944   3.000
56942W        W22103  14.149  36.190   3.609
56943W        W22104  41.789  24.097   3.286
56944W        W22105  15.641   5.967   2.250
56945W        W22106   5.153  11.612  13.262
56946W        W22107  37.380  25.472  14.313
56947W        W22108  20.304  20.666   3.862
56948W        W22109  30.978  30.742  10.414
56949W        W22110  38.803  20.200   1.789
56950W        W22111  29.114  40.075   2.745
56951W        W22112   8.732  37.152  12.945
56952W        W22113   0.369   4.667   2.634
56953W        W22114  15.716  41.331  10.833
56954W        W22115  30.367  27.157   2.622
56955W        W22116  25.209  25.765  12.944
56956W        W22117   7.828  30.370  11.747
56957W        W22118  35.903  31.100   1.677
56958W        W22119  31.165  26.308  11.185
56959W        W22120  29.660  30.672   1.428
56960W        W22121   2.786  15.403   0.474
56961W        W22122  15.181  35.105  10.953
56962W        W22123  44.492  24.084  13.894
56963W        W22124   7.133  14.600  13.130
56964W        W22125  20.805  38.914  10.596
56965W        W22126  21.277  23.277  13.156
56966W        W22127   4.988  37.103  11.844
56967W        W22128  31.203  13.164   0.960
56968W        W22129  33.513  37.001  13.268
56969W        W22130   9.741  33.432   2.164
56970W        W22131   7.909  33.175   0.776
56971W        W22132  26.756  10.660   3.299
56972W        W22133  31.624  12.070   4.034
56973W        W22134   5.310   5.732  12.925
56974W        W22135  26.710  35.432  13.015
56975W        W22136  31.248  12.008   3.694
56976W        W22137  15.490  14.893   1.247
56977W        W22138  26.983  14.312   0.037
56978W        W22139  20.144  34.420  13.063
56979W        W22140  17.994  40.496   1.409
56980W        W22141   0.419  35.849  13.866
56981W        W22142  18.503   1.840  13.040
56982W        W22143  10.122  40.412   3.327
56983W        W22144  15.523   8.330   2.887
56984W        W22145  24.121   3.201  12.911
56985W        W22146   6.035  37.378   1.744
56986W        W22147  19.360  14.380   1.938
56987W        W22148  20.534  18.677   3.362
56988W        W22149  13.695  43.497   0.698
56989W        W22150  11.215  40.896   4.574
56990W        W22151  22.109   6.281  11.165
56991W        W22152   0.019   2.725   0.703
56992W        W22153  14.516  15.665   4.317
56993W        W22154  15.583  43.510   1.895
56994W        W22155  31.215   8.288   3.536
56995W        W22156  35.276  27.548  11.588
56996W        W22157   2.211  11.051   2.631
56997W        W22158  32.379  41.023  11.116
56998W        W22159   0.931  40.597   2.599
56999W        W22160   7.967  10.852  10.522
57000W        W22161  13.226   2.300  12.570
57001W        W22162  21.110  31.570   2.733
57002W        W22163   9.773   6.177  11.493
57003W        W22164  40.033  34.602   3.692
57004W        W22165  44.166  28.279  11.570
57005W        W22166   2.786  17.786  12.535
57006W        W22167   3.418   5.889   2.905
57007W        W22168   9.232   3.964   4.498
57008W        W22169   8.599  12.735   2.320
57009W        W22170   6.668   0.425  11.194
57010W        W22171  28.364   4.218  11.262
57011W        W22172  35.694  40.644  11.209
57012W        W22173  11.466  25.010   3.571
57013W        W22174  12.382  19.659  14.881
57014W        W22175  44.856  39.092  11.638
57015W        W22176  26.205  21.763   9.987
57016W        W22177   3.405  15.740  13.651
57017W        W22178   2.973  34.342  12.597
57018W        W22179   2.154  25.410   3.446
57019W        W22180   9.837  16.273  14.876
57020W        W22181  13.541  39.066  12.392
57021W        W22182  17.820  20.198   1.591
57022W        W22183  35.879  29.597   4.149
57023W        W22184  36.878   2.218   3.966
57024W        W22185  34.300  18.835   4.589
57025W        W22186  36.614  16.653  14.475
57026W        W22187  42.046   4.888   0.426
57027W        W22188   9.295  22.278  12.262
57028W        W22189  30.101  19.740  10.619
57029W        W22190  14.193   0.361   4.696
57030W        W22191   4.268   7.303   1.305
57031W        W22192  38.878   2.432   4.150
57032W        W22193  44.427  32.415  14.554
57033W        W22194  36.159   2.950  12.979
57034W        W22195  27.943  42.721  11.649
57035W        W22196  24.451  12.585   4.962
57036W        W22197  10.093  31.146   2.779
57037W        W22198  22.562  30.204   1.752
57038W        W22199  22.205  30.557   0.141
57039W        W22200  42.032  38.756  11.039
57040W        W22201  26.462   2.897  11.373
57041W        W22202   8.834  35.958  10.592
57042W        W22203  43.918  39.440  14.855
57043W        W22204   4.806   3.929   1.631
57044W        W22205  14.146  27.891   4.164
57045W        W22206   9.080  21.261   3.356
57046W        W22207  39.148  40.205   5.124
57047W        W22208  41.259  11.630   1.730
57048W        W22209   2.447  34.235  10.067
57049W        W22210  41.731  23.553  13.421
57050W        W22211  16.525  39.449   1.414
57051W        W22212  22.600  39.960   5.064
57052W        W22213  24.051  28.202  14.459
57053W        W22214  34.782  32.704  14.812
57054W        W22215  38.450  18.528   4.442
57055W        W22216  17.594  28.584  10.633
57056W        W22217  24.673   1.822  12.387
57057W        W22218  14.335  22.887  11.621
57058W        W22219   1.686  29.179  10.986
57059W        W22220  14.628  22.139   0.667
57060W        W22221  25.617  38.469   3.041
57061W        W22222  35.425  21.569   1.843
57062W        W22223  41.728  41.846   3.874
57063W        W22224  21.622  32.156  10.334
57064W        W22225  40.562  27.747   1.732
57065W        W22226  12.825  25.062  12.580
57066W        W22227  26.619   0.188  10.689
57067W        W22228  12.636  16.724   2.339
57068W        W22229  23.058  27.459  14.716
57069W        W22230  43.808   4.900  12.431
57070W        W22231  23.083  23.115   5.061
57071W        W22232  11.504  17.065  13.389
57072W        W22233  16.614  35.954   1.875
57073W        W22234  35.380  24.121   1.397
57074W        W22235  23.669  34.694  13.860
57075W        W22236   3.966  40.283   1.688
57076W        W22237  27.505  30.104  14.845
57077W        W22238   4.939  17.070  14.499
57078W        W22239  21.498  38.233   5.397
57079W        W22240  23.491  14.678  14.921
57080W        W22241  16.690  15.736   1.688
57081W        W22242  21.147  29.087  13.896
57082W        W22243  11.048  18.723  11.120
57083W        W22244  36.486  38.895  13.295
57084W        W22245  25.999  44.717  14.416
57085W        W22246   5.640  42.391   3.388
57086W        W22247  12.383  31.210   4.318
57087W        W22248  25.821  31.627   1.952
57088W        W22249  22.073  20.334   2.811
57089W        W22250   3.771  12.483   2.818
57090W        W22251  20.083  26.505   4.174
57091W        W22252  14.566  35.922  12.587
57092W        W22253   8.327  21.103   0.383
57093W        W22254  20.180   2.024   4.222
57094W        W22255  20.315  32.860  10.787
57095W        W22256   7.757  25.245   0.110
57096W        W22257   3.240  32.580  14.023
57097W        W22258   7.252  11.214  12.245
57098W        W22259  12.662  20.711   4.124
57099W        W22260  39.413  23.708  10.974
57100W        W22261   2.908  15.843  14.429
57101W        W22262   2.695  15.805   9.799
57102W        W22263   4.555  38.020   4.930
57103W        W22264  11.401  31.211  12.463
57104W        W22265  15.999  32.108   4.551
57105W        W22266  12.534  19.628  14.353
57106W        W22267  22.705  43.818  11.296
57107W        W22268  13.346  27.173  13.471
57108W        W22269  24.287  14.660   0.435
57109W        W22270  15.077  21.993  14.964
57110W        W22271   8.913  37.016   1.859
57111W        W22272   3.967   7.959  14.119
57112W        W22273  18.572  31.866   3.744
57113W        W22274   8.189  34.378  11.143
57114W        W22275   0.994  36.902   1.731
57115W        W22276  34.874  25.102  14.052
57116W        W22277  36.432  30.351  13.964
57117W        W22278  21.392   3.203  14.038
57118W        W22279  26.032  38.394  13.318
57119W        W22280   1.170  21.323  11.474
57120W        W22281  26.184  33.346   4.077
57121W        W22282  31.599   9.195   3.926
57122W        W22283   5.187  24.066  10.970
57123W        W22284  37.909  30.476  12.077
57124W        W22285  23.558  13.667   4.843
57125W        W22286  20.983   5.298  10.776
57126W        W22287  23.013  38.849  14.984
57127W        W22288  37.670  22.949  14.295
57128W        W22289  25.893   4.464   2.688
57129W        W22290  17.621  35.880  12.811
57130W        W22291   7.229  21.159  13.414
57131W        W22292  41.116  13.891  11.423
57132W        W22293   0.875  33.064   2.924
57133W        W22294  41.638  23.083  13.265
57134W        W22295   0.362  20.455  13.408
57135W        W22296   0.814   2.453  10.616
57136W        W22297  17.136  29.433   0.452
57137W        W22298  22.501  35.089   1.119
57138W        W22299  40.947  21.604  11.381
57139W        W22300   6.148  18.442   0.889
57140W        W22301   4.994   0.459   5.048
57141W        W22302   0.299   5.152   1.967
57142W        W22303   2.144  29.025  11.148
57143W        W22304  44.960  42.341  13.546
57144W        W22305  32.136  40.898   2.255
57145W        W22306   2.908  38.927  12.370
57146W        W22307  39.578  18.641   9.950
57147W        W22308  33.399  21.809  13.103
57148W        W22309  12.075  35.568  13.892
57149W        W22310  41.137  28.288   4.335
57150W        W22311   4.193   6.272   0.682
57151W        W22312  19.478  38.349   1.455
57152W        W22313   0.878   3.931  14.268
57153W        W22314   7.875   6.116   4.820
57154W        W22315   1.115  15.147   3.840
57155W        W22316  42.836  18.999  10.560
57156W        W22317  42.412  25.944  13.825
57157W        W22318  39.486  13.388   4.729
57158W        W22319  24.018   6.674  14.719
57159W        W22320   8.325  39.074  13.361
57160W        W22321  36.368  14.247   5.229
57161W        W22322   8.815  21.087  14.027
57162W        W22323  26.644   5.663  11.031
57163W        W22324   9.336   3.705  13.482
57164W        W22325  34.473  14.204   2.109
57165W        W22326  24.469  42.414   2.207
57166W        W22327   0.467  32.716   1.764
57167W        W22328  41.425  30.866  14.875
57168W        W22329   0.750  38.855  13.970
57169W        W22330  16.691  43.209   1.770
57170W        W22331  38.448  40.091   3.747
57171W        W22332   0.766  22.645  10.589
57172W        W22333  31.578  22.426   2.236
57173W        W22334  35.259  36.922  10.540
57174W        W22335  20.914  11.575  14.998
57175W        W22336  22.954  31.841  11.142
57176W        W22337  10.817  36.517  12.140
57177W        W22338   5.869  32.174   5.018
57178W        W22339  13.206  42.372   9.904
57179W        W22340   6.893  27.980   0.824
57180W        W22341  35.872  11.241  11.630
57181W        W22342  12.081  31.921  13.002
57182W        W22343  26.264  19.438   1.772
57183W        W22344  29.206   7.430  13.374
57184W        W22345  18.275  44.859  14.717
57185W        W22346  35.854  25.975  10.977
57186W        W22347  20.315  32.991  13.933
57187W        W22348   2.940  17.159  14.278
57188W        W22349  19.460  22.142  14.825
57189W        W22350  23.184  10.864   1.259
57190W        W22351  35.456   7.134   2.383
57191W        W22352  25.619  34.109   3.154
57192W        W22353  20.968  28.537   4.681
57193W        W22354  32.132  41.703   9.538
57194W        W22355  41.411  16.740  12.654
57195W        W22356  28.864  33.542   4.567
57196W        W22357  44.823  38.850  10.763
57197W        W22358  23.781  13.425  14.451
57198W        W22359  24.092  19.147  11.408
57199W        W22360  15.641  22.948  12.797
57200W        W22361   7.325  13.103   1.785
57201W        W22362  14.064   6.942   3.208
57202W        W22363  36.914   2.397   2.432
57203W        W22364  42.184  41.755  12.507
57204W        W22365   2.068  38.475  10.719
57205W        W22366  19.577   7.857  11.546
57206W        W22367  21.145  41.177   0.746
57207W        W22368  26.521   5.377   4.449
57208W        W22369  14.123  43.180   3.728
57209W        W22370  32.032  34.062   2.012
57210W        W22371   6.029  23.476   2.327
57211W        W22372  44.649  41.228   3.251
57212W        W22373   9.623  22.205   0.960
57213W        W22374  18.784  10.294   0.910
57214W        W22375  37.919  36.303  13.534
57215W        W22376   2.394  30.671  14.240
57216W        W22377  32.533  43.417  12.086
57217W        W22378  23.711  22.653   2.763
57218W        W22379  28.734  43.514   4.589
57219W        W22380  36.155  31.646  12.852
57220W        W22381  22.848  19.671   1.372
57221W        W22382  39.385  39.617  12.441
57222W        W22383   8.633  31.359   3.346
57223W        W22384  19.193  38.861   1.378
57224W        W22385  11.653  23.569  12.591
57225W        W22386  35.222   6.701  13.983
57226W        W22387  44.975  17.175   0.782
57227W        W22388  43.951  20.212  11.674
57228W        W22389  14.588  18.127   2.045
57229W        W22390  11.081  39.271  12.521
57230W        W22391  19.785   6.478   4.511
57231W        W22392  26.432  40.976   3.629
57232W        W22393  30.165  36.404   1.464
57233W        W22394   3.738  22.591  12.886
57234W        W22395  42.092  34.367  11.193
57235W        W22396   0.545  33.992  13.612
57236W        W22397  18.609  13.372  13.196
57237W        W22398  40.577  28.858  14.367
57238W        W22399  28.711  41.544   0.361
57239W        W22400  20.849  14.045  12.022
57240W        W22401  33.859  24.995  13.892
57241W        W22402  19.690  21.697   4.525
57242W        W22403   6.912  39.869   2.407
57243W        W22404  41.414  36.547   1.470
57244W        W22405  17.532  14.768  13.258
57245W        W22406  30.314  29.109  11.038
57246W        W22407  12.771  33.007   0.870
57247W        W22408   8.252   0.755   4.104
57248W        W22409   6.210  27.007  10.815
57249W        W22410  14.977  15.214  14.963
57250W        W22411  43.617   1.416  11.035
57251W        W22412   7.224  10.493  12.288
57252W        W22413  29.676  17.017   0.742
57253W        W22414   7.965  43.405  12.919
57254W        W22415   7.778  42.233  13.473
57255W        W22416  17.726  23.528   0.719
57256W        W22417  35.620  35.504  14.749
57257W        W22418  16.178  25.734   3.361
57258W        W22419  16.611  27.372   3.717
57259W        W22420  39.020  20.486  12.870
57260W        W22421  38.754  18.224   2.839
57261W        W22422  39.859   3.269  13.592
57262W        W22423   0.277  33.488   0.713
57263W        W22424  32.204  25.299  10.889
57264W        W22425  32.407  36.034  11.969
57265W        W22426  41.996  24.499  13.392
57266W        W22427   4.620  44.993   2.686
57267W        W22428  41.572   6.890  11.643
57268W        W22429   1.953  39.017   3.355
57269W        W22430  19.707  18.541   3.826
57270W        W22431  21.876  12.686   1.444
57271W        W22432  44.991  27.166  12.180
57272W        W22433  24.982  31.541   3.616
57273W        W22434   1.555  36.017   2.162
57274W        W22435  32.832  23.163   0.853
57275W        W22436  16.775  36.105   4.172
57276W        W22437  23.518  10.875  11.927
57277W        W22438  38.824   2.735  12.943
57278W        W22439  27.683  19.576  14.761
57279W        W22440  38.510  35.279   1.751
57280W        W22441  17.240   1.793  12.522
57281W        W22442  36.300   0.271   4.393
57282W        W22443  26.261  12.205   3.624
57283W        W22444   1.992  32.472  10.668
57284W        W22445  19.096  23.788   1.005
57285W        W22446  35.700  22.692   2.709
57286W        W22447   8.459  35.987  11.778
57287W        W22448  29.615  17.860  10.263
57288W        W22449   6.363  31.227  10.695
57289W        W22450  13.703  15.736   0.384
57290W        W22451  16.326  34.193  14.905
57291W        W22452  40.793  30.174  13.288
57292W        W22453  39.351  37.434   1.290
57293W        W22454  23.128   6.148   0.065
57294W        W22455  28.117   6.105   4.061
57295W        W22456  12.791  43.249   0.896
57296W        W22457  18.028   9.679   2.439
57297W        W22458  26.822  40.998  11.165
57298W        W22459  38.435  16.770  12.420
57299W        W22460  20.957  16.837   0.008
57300W        W22461  32.669  26.239   1.455
57301W        W22462   5.041  13.594   0.701
57302W        W22463  21.677   8.606   3.674
57303W        W22464  23.547  39.534   2.754
57304W        W22465  30.824  19.787  13.129
57305W        W22466  42.426  24.475  13.059
57306W        W22467  34.621  31.055   4.640
57307W        W22468  10.922  28.458  13.399
57308W        W22469  27.493  28.493  11.151
57309W        W22470   2.866   2.353  12.110
57310W        W22471  41.494  23.208   1.740
57311W        W22472  29.278  19.059  11.147
57312W        W22473  18.142  10.686  10.558
57313W        W22474  41.640  10.100  14.286
57314W        W22475  14.715   7.139  13.677
57315W        W22476  19.597  16.738   4.021
57316W        W22477  31.872  32.358  12.013
57317W        W22478  18.556  44.915  12.839
57318W        W22479   0.480  10.890  13.137
57319W        W22480  22.590   8.739   2.477
57320W        W22481  21.548  35.605  11.677
57321W        W22482  22.802  37.929  14.463
57322W        W22483  19.821  42.059  12.424
57323W        W22484  16.590  27.466  11.588
57324W        W22485  38.021  40.631   4.089
57325W        W22486  16.969   5.550   0.965
57326W        W22487  32.908  33.282   3.777
57327W        W22488   3.051  16.763   0.513
57328W        W22489  12.385  35.854  11.705
57329W        W22490  12.207   6.428   1.296
57330W        W22491  20.690  12.620  12.935
57331W        W22492   0.008   4.992  11.727
57332W        W22493  30.748  27.490   3.275
57333W        W22494  15.744   9.101   3.273
57334W        W22495   5.168   5.269   0.287
57335W        W22496   5.984   0.459  12.879
57336W        W22497   5.358  13.797  13.472
57337W        W22498   8.765  39.306   4.158
57338W        W22499  37.888   3.292   2.348
57339W        W22500  39.904  44.621  11.466
57340W        W22501  16.582  14.061   3.661
57341W        W22502  35.326  26.511   3.101
57342W        W22503  27.407  14.319   1.332
57343W        W22504   3.056  24.382   1.780
57344W        W22505  20.665   2.909   1.301
57345W        W22506   8.310  44.499  13.112
57346W        W22507   3.624  37.136   0.457
57347W        W22508  18.531  35.958   4.697
57348W        W22509  40.069  44.038   4.733
57349W        W22510  34.845  35.238   3.726
57350W        W22511  38.973   2.725  14.876
57351W        W22512  33.968  32.615   3.609
57352W        W22513  17.744  15.018   3.594
57353W        W22514   7.189  26.087   2.118
57354W        W22515  31.909  41.809  12.734
57355W        W22516  18.664  39.874  14.012
57356W        W22517  42.727  37.202   2.148
57357W        W22518  25.454  10.309  12.945
57358W        W22519  31.363  31.056  10.630
57359W        W22520  17.421  20.294  14.920
57360W        W22521  19.614   5.729  12.845
57361W        W22522   5.266  13.467  13.045
57362W        W22523  32.588  27.070  13.124
57363W        W22524   5.230  19.029   2.507
57364W        W22525  33.065   8.662   2.310
57365W        W22526   6.417   5.667   3.510
57366W        W22527  23.039  31.405  14.860
57367W        W22528  27.512  21.641   0.349
57368W        W22529  34.795  30.160   0.750
57369W        W22530  28.555  20.531  11.164
57370W        W22531   8.947  35.792   1.311
57371W        W22532   6.944  18.636  12.425
57372W        W22533  20.585  31.658   1.287
57373W        W22534  24.679  13.648  14.532
57374W        W22535  21.564  40.815   3.632
57375W        W22536   9.333  28.624  14.434
57376W        W22537   1.126   1.468  12.898
57377W        W22538  19.441  31.520   4.288
57378W        W22539  19.694  15.752  11.393
57379W        W22540   4.947  12.375  14.422
57380W        W22541   5.320  36.781   0.624
57381W        W22542  15.534  44.409   0.305
57382W        W22543  38.142   5.940   0.023
57383W        W22544  26.570   4.770  13.879
57384W        W22545   6.622  28.936  12.806
57385W        W22546  30.149   7.699  13.585
57386W        W22547  23.535  30.046   1.978
57387W        W22548  38.997  26.537  11.602
57388W        W22549  21.276  39.013  14.430
57389W        W22550  24.521  40.370   3.181
57390W        W22551  37.635  22.018   2.876
57391W        W22552  32.802   7.830   2.733
57392W        W22553  12.366  28.648   1.360
57393W        W22554  12.236   3.927   1.899
57394W        W22555  28.071  20.967  11.590
57395W        W22556  21.031   9.507  12.305
57396W        W22557  27.893  11.844   0.376
57397W        W22558   4.867  31.736   1.237
57398W        W22559  34.167  38.582  12.552
57399W        W22560   6.736  41.791   2.173
57400W        W22561  38.051   4.023   1.322
57401W        W22562  25.846  29.031  13.991
57402W        W22563  33.891   2.779  11.204
57403W        W22564  31.592  34.615   4.080
57404W        W22565  12.294  37.988   4.866
57405W        W22566  44.716   4.627  10.808
57406W        W22567  10.058  17.139   2.618
57407W        W22568  37.418   3.128  10.701
57408W        W22569  30.393  29.517  14.961
57409W        W22570  39.449  27.153   4.379
57410W        W22571  23.064  42.383  11.464
57411W        W22572  13.203   1.284   0.808
57412W        W22573  34.903  23.063  11.285
57413W        W22574  33.954  29.377  11.305
57414W        W22575  27.848  31.950   1.840
57415W        W22576  35.608  33.485   4.077
57416W        W22577  24.010   8.364   3.603
57417W        W22578  18.031  34.410  14.319
57418W        W22579   9.598  35.004  14.526
57419W        W22580  40.843  21.703  12.595
57420W        W22581  32.680  25.189  11.125
57421W        W22582  35.858   8.240   1.351
57422W        W22583  13.342  16.308  12.066
57423W        W22584   7.709  26.753   2.221
57424W        W22585  39.316  10.760   3.106
57425W        W22586  26.911  14.630   5.534
57426W        W22587  32.444   9.803  10.632
57427W        W22588  43.820   3.801   3.553
57428W        W22589  36.069  20.800  11.262
57429W        W22590  44.517  41.964   1.401
57430W        W22591  34.941   7.139  13.289
57431W        W22592  23.284  29.258   2.441
57432W        W22593  23.745  33.617  12.328
57433W        W22594  21.203  22.803  14.365
57434W        W22595  26.679   0.045   1.315
57435W        W22596   7.127  38.847   3.493
57436W        W22597   6.338  38.944  10.527
57437W        W22598   8.068  37.055  11.329
57438W        W22599  15.379  33.754  14.744
57439W        W22600  30.000  32.731  10.430
57440W        W22601   1.960  22.988  11.171
57441W        W22602  38.083  14.037   1.729
57442W        W22603  16.771  42.590   3.156
57443W        W22604  25.598  18.332  11.992
57444W        W22605  29.604  23.041  12.499
57445W        W22606   3.897  39.585   1.032
57446W        W22607  11.103  10.171  14.355
57447W        W22608  18.859  23.275   2.785
57448W        W22609  27.628   6.527   3.005
57449W        W22610  43.308  43.433   4.148
57450W        W22611  29.274  25.715  13.306
57451W        W22612   9.310   9.878  10.446
57452W        W22613  22.681  16.557   3.220
57453W        W22614  20.011  13.343  13.080
57454W        W22615   5.845   9.559   3.554
57455W        W22616  41.339   8.680  12.046
57456W        W22617  40.539   6.230   0.379
57457W        W22618   3.640   4.534  12.575
57458W        W22619  42.393  13.361   1.808
57459W        W22620  36.456   4.676  10.704
57460W        W22621   2.734  28.972   3.669
57461W        W22622  11.928  15.846  12.078
57462W        W22623  11.602  44.984  14.879
57463W        W22624  30.592  30.837   2.108
57464W        W22625  28.476   3.446  12.634
57465W        W22626  17.763  24.654  13.522
57466W        W22627  37.132  36.991   0.367
57467W        W22628  15.548  18.146   0.566
57468W        W22629   3.220  38.252   4.207
57469W        W22630  36.553  15.305   3.321
57470W        W22631  12.542   3.257   3.986
57471W        W22632   1.376   1.047  13.802
57472W        W22633  21.016  17.707   1.015
57473W        W22634  32.470   5.087  14.704
57474W        W22635   4.789  25.558  14.512
57475W        W22636   9.679   6.112   1.878
57476W        W22637   6.841   9.227   2.160
57477W        W22638  10.753  43.527  11.987
57478W        W22639  43.093  40.019   1.220
57479W        W22640  30.668  24.147   1.890
57480W        W22641  31.942  23.034   1.270
57481W        W22642  28.446  20.011   0.405
57482W        W22643   1.314  25.649   2.380
57483W        W22644   1.244  37.602   0.787
57484W        W22645   7.291  12.782   3.468
57485W        W22646  28.469  15.823   4.151
57486W        W22647  38.801   5.828   3.592
57487W        W22648   6.183  19.681  11.589
57488W        W22649   7.598  24.960   3.055
57489W        W22650   4.646  31.122  14.824
57490W        W22651   6.295  37.922   2.594
57491W        W22652   8.928  22.045  11.903
57492W        W22653  23.068  25.137  14.937
57493W        W22654  20.060   2.883  13.713
57494W        W22655  10.710  38.075   2.900
57495W        W22656  11.660  39.303  13.802
57496W        W22657  42.886  24.951  11.563
57497W        W22658  33.833   0.743   2.963
57498W        W22659  28.514   2.253  13.956
57499W        W22660   3.425  20.594   0.007
57500W        W22661  19.690  10.150   3.686
57501W        W22662  40.350  17.703   3.725
57502W        W22663  24.131   5.473  14.338
57503W        W22664  42.125  26.097   4.735
57504W        W22665  33.126  22.741  14.086
57505W        W22666   9.106  13.249  11.598
57506W        W22667  29.860  12.869   0.397
57507W        W22668  18.804  41.720  13.904
57508W        W22669  38.295  27.940  12.193
57509W        W22670  36.208  21.168  14.973
57510W        W22671  26.988  28.063   3.188
57511W        W22672   7.831  35.544   3.337
57512W        W22673  30.453   4.401   0.291
57513W        W22674  33.434  32.775   0.788
57514W        W22675  32.861  29.661  11.724
57515W        W22676  12.067  32.459   2.008
57516W        W22677  16.223   3.346  14.304
57517W        W22678  18.640   5.056  13.471
57518W        W22679  21.502   8.195  14.870
57519W        W22680  42.509  40.714   0.352
57520W        W22681  31.063  22.746  11.975
57521W        W22682  16.589  29.414   4.573
57522W        W22683   4.806  10.571  13.907
57523W        W22684  12.583  31.122   0.676
57524W        W22685  15.199  18.549   4.145
57525W        W22686  24.304   7.593   0.412
57526W        W22687  24.441  34.002   3.252
57527W        W22688  32.981  31.367   2.209
57528W        W22689  30.893  32.700   0.170
57529W        W22690  16.838  21.070   4.569
57530W        W22691   6.510   5.757  12.960
57531W        W22692  40.028  37.977   4.916
57532W        W22693  26.670   3.386  12.995
57533W        W22694   6.555  33.922  11.108
57534W        W22695  24.626  28.816  12.351
57535W        W22696  12.238  44.778   1.157
57536W        W22697  44.481   5.300   0.772
57537W        W22698  41.526   9.945   0.149
57538W        W22699  10.584  42.999  11.126
57539W        W22700  37.407  10.104   0.214
57540W        W22701  31.115  36.367  14.641
57541W        W22702  27.214  41.866  11.373
57542W        W22703   0.235  40.334   0.962
57543W        W22704   0.828   6.386  13.313
57544W        W22705  37.760  29.636  12.472
57545W        W22706  29.039  25.262  13.409
57546W        W22707  16.593   7.997  12.110
57547W        W22708  29.534  31.093   0.449
57548W        W22709  36.613  34.106   3.714
57549W        W22710  34.870  12.317   4.237
57550W        W22711   0.801  22.652  11.555
57551W        W22712  29.901  16.157  13.909
57552W        W22713  36.547  31.955  13.961
57553W        W22714  32.451   8.981   3.608
57554W        W22715  13.267   2.592   3.189
57555W        W22716  21.184  43.879  12.231
57556W        W22717  40.006   9.353  14.534
57557W        W22718  34.487  13.520  13.304
57558W        W22719  33.406  31.711   4.328
57559W        W22720  33.553  20.598  13.883
57560W        W22721  23.238  27.971  14.692
57561W        W22722   9.056  15.201  12.016
57562W        W22723  15.696  10.735  10.351
57563W        W22724   1.008   6.903  13.333
57564W        W22725  25.978  15.614  10.438
57565W        W22726  14.886  41.575  12.362
57566W        W22727  28.102  32.402   2.958
57567W        W22728   4.695  42.291  13.567
57568W        W22729  29.373  35.443   2.541
57569W        W22730  38.301  35.122   4.498
57570W        W22731  16.126  16.501   1.941
57571W        W22732  27.592  23.148  14.750
57572W        W22733  22.052   0.413   1.779
57573W        W22734  32.453  21.514   3.441
57574W        W22735  41.039  34.045   3.645
57575W        W22736   6.386  15.167   3.447
57576W        W22737  30.221  29.280   2.383
57577W        W22738  38.403  16.597   3.159
57578W        W22739   9.105  35.786  12.897
57579W        W22740  23.444  29.006  11.630
57580W        W22741  29.595  42.718   4.984
57581W        W22742  27.000  22.349   3.415
57582W        W22743  29.826   1.255  10.307
57583W        W22744  21.155  26.993  10.358
57584W        W22745   2.484  24.590  14.772
57585W        W22746   5.121  20.268   1.910
57586W        W22747  40.783  14.708   2.475
57587W        W22748  34.657   5.120  10.067
57588W        W22749  38.880   3.179  11.145
57589W        W22750   2.804  21.186  12.978
57590W        W22751   8.364  34.901   3.122
57591W        W22752  43.554   2.805  13.733
57592W        W22753  18.663  16.449  13.086
57593W        W22754  43.369  29.058   4.825
57594W        W22755  34.606  44.049  14.323
57595W        W22756   5.392   2.338   2.352
57596W        W22757   3.444  17.147  14.357
57597W        W22758  15.665  43.910  13.889
57598W        W22759  26.990   1.906  14.593
57599W        W22760  20.131  15.222  13.033
57600W        W22761  21.404   4.345   2.913
57601W        W22762  36.115  17.020   1.924
57602W        W22763  43.313  39.928   2.592
57603W        W22764  36.646  15.234   0.349
57604W        W22765   9.342  31.629  14.426
57605W        W22766   6.215  11.147   2.793
57606W        W22767   5.912  20.997  12.066
57607W        W22768  44.515   8.420   4.785
57608W        W22769  29.547  41.526  14.110
57609W        W22770  31.897  36.691   4.586
57610W        W22771   8.806  20.025   3.351
57611W        W22772  35.375   6.932  14.425
57612W        W22773   0.683   5.963   2.773
57613W        W22774  41.963   4.282   3.623
57614W        W22775   6.223  13.250  13.316
57615W        W22776  34.179  16.959   1.297
57616W        W22777  34.119  24.224  12.512
57617W        W22778   7.495  20.652   3.861
57618W        W22779   4.389  27.140  14.414
57619W        W22780  40.581  15.315   2.893
57620W        W22781  20.253  26.932  13.348
57621W        W22782  29.128  38.344   1.663
57622W        W22783  32.858   4.734  11.426
57623W        W22784   4.114   6.970   3.262
57624W        W22785   8.268  16.842   1.160
57625W        W22786  44.253  37.630  11.400
57626W        W22787   3.841  44.208   3.733
57627W        W22788  22.672   2.746   3.294
57628W        W22789  41.283   6.430   4.592
57629W        W22790  19.488   0.403   0.777
57630W        W22791  35.875  27.993  14.949
57631W        W22792  25.613  18.291   2.790
57632W        W22793  31.553   9.966   1.225
57633W        W22794  34.075  12.273   0.316
57634W        W22795   6.727  29.709   0.162
57635W        W22796  38.717   8.837   0.709
57636W        W22797  40.780   8.089   0.947
57637W        W22798  15.126  21.390  12.092
57638W        W22799  19.030  43.749  13.540
57639W        W22800  34.845   3.721   3.090
57640W        W22801  38.402  13.957   3.144
57641W        W22802  20.652  31.664  10.919
57642W        W22803   0.071   7.947   1.507
57643W        W22804   1.766  35.793   0.096
57644W        W22805   1.647  41.501  13.373
57645W        W22806  34.579  23.162  11.866
57646W        W22807  14.617  13.116  14.320
57647W        W22808   5.895  38.458  12.801
57648W        W22809   7.445   4.300   2.266
57649W        W22810   7.916   1.785  12.217
57650W        W22811   8.742  38.775   5.087
57651W        W22812  15.357  29.052   0.692
57652W        W22813   7.292  33.957  11.813
57653W        W22814  37.870  37.475   4.431
57654W        W22815   7.801   4.219  10.636
57655W        W22816   4.488   1.850   0.922
57656W        W22817  43.454  16.547  14.967
57657W        W22818  21.695  14.234  14.010
57658W        W22819  40.344  13.843   4.145
57659W        W22820  34.166  33.065   0.376
57660W        W22821  40.894  31.038   3.271
57661W        W22822  29.835  37.155  13.300
57662W        W22823  23.204  18.649   3.607
57663W        W22824  11.660  38.959   4.505
57664W        W22825  34.419  14.757  14.522
57665W        W22826   8.468  19.185  12.251
57666W        W22827  39.316  11.146   0.816
57667W        W22828   0.845  18.854  13.269
57668W        W22829  25.407  21.550  13.430
57669W        W22830  34.436  34.183  10.725
57670W        W22831  25.042  17.602  11.205
57671W        W22832  31.537  37.108  12.088
57672W        W22833  14.035  12.552  14.000
57673W        W22834  30.160  43.347   1.139
57674W        W22835  12.018  11.745   2.751
57675W        W22836  33.770   3.288  11.235
57676W        W22837   0.871  12.965   2.593
57677W        W22838  28.143  12.977   4.036
57678W        W22839  35.546  42.496  12.840
57679W        W22840  17.778   3.889   3.663
57680W        W22841  43.904  16.009   4.353
57681W        W22842  40.591  37.044  13.585
57682W        W22843  26.949  32.957  10.978
57683W        W22844   7.308  44.411   1.463
57684W        W22845  12.336  16.716  13.532
57685W        W22846   1.112  32.400   3.305
57686W        W22847   9.678  28.051  14.796
57687W        W22848  12.593  34.059  12.803
57688W        W22849  15.920  10.734  11.370
57689W        W22850  34.324  23.455   4.760
57690W        W22851  32.748   3.393  11.143
57691W        W22852  13.584  23.891  13.464
57692W        W22853  29.015   3.115  14.982
57693W        W22854  43.351  32.535   3.693
57694W        W22855  29.838   6.690  11.676
57695W        W22856  12.754  11.618   0.550
57696W        W22857  11.168   5.878  11.029
57697W        W22858  35.788  27.372   0.342
57698W        W22859  23.074  19.022  10.676
57699W        W22860  32.604   5.425   0.539
57700W        W22861   3.890   6.659  14.336
57701W        W22862  23.209  10.929   1.763
57702W        W22863  18.779  12.110   0.280
57703W        W22864  36.136  28.152   1.299
57704W        W22865  14.216   6.034  12.014
57705W        W22866  30.084  37.078   4.877
57706W        W22867  26.484  14.230   2.664
57707W        W22868  23.632  15.235   4.778
57708W        W22869  31.206   4.391   2.729
57709W        W22870  19.666   6.463  13.985
57710W        W22871   8.855   4.679  14.735
57711W        W22872  15.280  11.145   0.307
57712W        W22873  37.185  39.810   3.641
57713W        W22874  14.149  24.129  10.567
57714W        W22875  15.543  27.772  10.244
57715W        W22876  30.543   0.742   3.150
57716W        W22877   0.517  43.639   1.262
57717W        W22878   7.367   7.635   3.611
57718W        W22879   9.161  40.997   1.321
57719W        W22880   7.762  32.264  10.063
57720W        W22881  43.187  21.231  10.849
57721W        W22882   6.166  26.488  14.356
57722W        W22883   3.353  14.175   3.261
57723W        W22884  43.461  24.170   4.420
57724W        W22885  19.092  30.777  11.180
57725W        W22886   2.488  20.124   0.708
57726W        W22887  22.270   1.875  13.550
57727W        W22888   1.329  26.180   4.600
57728W        W22889   5.154   8.889  10.782
57729W        W22890   1.958  38.815   0.925
57730W        W22891  30.693  28.019   5.114
57731W        W22892   6.425   1.221   0.821
57732W        W22893  31.593  40.879  12.205
57733W        W22894  15.382  41.809   0.014
57734W        W22895  36.422  31.023  12.164
57735W        W22896  15.163  32.880   2.775
57736W        W22897   4.189   3.907   3.836
57737W        W22898  29.901  23.008  14.612
57738W        W22899  40.864  21.329   0.218
57739W        W22900  44.511   5.741  10.765
57740W        W22901  22.020  27.980  13.347
57741W        W22902  28.759  27.392   1.754
57742W        W22903  21.986  35.595  13.537
57743W        W22904  16.771  40.940   1.391
57744W        W22905  41.821   9.192  14.521
57745W        W22906  29.623   2.515   4.582
57746W        W22907  16.569  21.002  12.071
57747W        W22908  11.794  18.377   2.426
57748W        W22909  13.054  12.997   4.111
57749W        W22910  23.163  33.201  11.557
57750W        W22911  32.636   9.891  12.740
57751W        W22912  27.927  32.811  12.524
57752W        W22913  36.974  26.412  12.008
57753W        W22914  40.032  18.588  11.450
57754W        W22915  35.825  41.324  12.504
57755W        W22916  39.319  22.835  11.036
57756W        W22917  13.857  33.699  11.056
57757W        W22918   6.733  26.160  12.613
57758W        W22919  26.469  16.109   1.922
57759W        W22920  10.059  20.563   5.026
57760W        W22921  21.462  19.227  11.124
57761W        W22922  33.139  12.710  13.876
57762W        W22923  21.453   6.434   1.770
57763W        W22924  42.783  18.387  14.434
57764W        W22925  41.643  22.220  13.511
57765W        W22926   7.243  15.041  13.456
57766W        W22927  26.475   7.265  13.354
57767W        W22928  42.377  20.191   2.280
57768W        W22929  10.901  43.776   3.764
57769W        W22930  10.788  12.187   4.021
57770W        W22931  42.333  17.428  12.943
57771W        W22932  39.899   6.864  14.930
57772W        W22933   1.517  26.196  12.144
57773W        W22934   5.998  17.621   4.756
57774W        W22935  20.052  24.953  13.608
57775W        W22936  14.539  42.994   0.467
57776W        W22937  33.776  16.491   2.651
57777W        W22938   0.454   2.946  12.059
57778W        W22939  37.452  29.451   1.873
57779W        W22940   0.958  35.142   0.031
57780W        W22941   8.059  28.436  12.009
57781W        W22942  26.201  20.112   1.428
57782W        W22943  42.753   1.274   0.933
57783W        W22944  32.073  25.281  11.917
57784W        W22945  21.875  13.984   0.390
57785W        W22946  19.233  33.282   1.781
57786W        W22947  43.092  30.494  11.129
57787W        W22948  19.691  38.120  12.967
57788W        W22949  25.570  31.905  14.894
57789W        W22950   8.273  19.042   4.742
57790W        W22951  40.186  44.901  13.614
57791W        W22952  29.508  12.150   4.136
57792W        W22953  36.856  19.736   3.339
57793W        W22954  27.430  13.751   4.099
57794W        W22955  13.271  14.746   0.740
57795W        W22956  13.809  10.515   3.217
57796W        W22957  37.881  43.117  11.591
57797W        W22958  12.688  44.537   0.111
57798W        W22959   1.912  23.371   3.255
57799W        W22960  12.228  11.832   3.237
57800W        W22961  44.564  35.350   4.541
57801W        W22962   1.270   8.474   4.622
57802W        W22963  29.639  17.138  13.999
57803W        W22964  29.154  36.155  14.473
57804W        W22965  40.559   1.362   4.919
57805W        W22966  26.579  21.485   5.465
57806W        W22967   0.561  16.292   4.959
57807W        W22968   7.933  40.337  13.965
57808W        W22969  22.322  33.543  12.964
57809W        W22970  20.321  20.351  13.559
57810W        W22971  14.061  24.174  14.968
57811W        W22972  18.652  39.410  14.239
57812W        W22973  43.561  40.806  12.926
57813W        W22974  34.631  43.218   5.093
57814W        W22975  43.136  29.045   3.056
57815W        W22976   4.421   6.886  13.112
57816W        W22977   4.235   7.292  10.951
57817W        W22978  15.512  35.472   4.052
57818W        W22979   5.309  43.832  13.322
57819W        W22980  20.365  25.710   5.062
57820W        W22981  22.765  35.995   4.083
57821W        W22982  12.724  34.449   4.406
57822W        W22983  22.535  12.067   1.768
57823W        W22984  28.196  31.807  12.529
57824W        W22985  29.444  44.956  12.495
57825W        W22986   7.492  29.478   3.806
57826W        W22987  37.416  35.868  12.753
57827W        W22988   7.885  13.374   0.880
57828W        W22989  27.724  12.933  12.546
57829W        W22990  22.923  44.762   1.662
57830W        W22991  34.125   3.220   4.106
57831W        W22992   1.059  43.398  14.439
57832W        W22993  10.173  11.832   4.980
57833W        W22994  33.439   4.266  14.370
57834W        W22995  43.713  38.108  14.920
57835W        W22996  14.375   2.483   4.998
57836W        W22997  28.486  29.551   0.736
57837W        W22998   8.418  43.223  13.993
57838W        W22999  11.365  33.824   2.782
57839W        W23000  25.622  40.998  11.151
57840W        W23001  30.523  39.298  10.104
57841W        W23002  41.296  44.042  12.541
57842W        W23003  25.670   1.360  12.761
57843W        W23004  10.853  28.269   3.637
57844W        W23005  30.502  21.124  12.036
57845W        W23006  31.719  31.449   0.855
57846W        W23007   0.282  10.546   4.202
57847W        W23008  13.713  30.841   1.379
57848W        W23009  40.054  29.814  14.598
57849W        W23010  30.037  22.986  14.107
57850W        W23011  33.466   9.671  12.495
57851W        W23012  21.630  13.350   2.233
57852W        W23013   3.720  17.268   3.574
57853W        W23014  23.141  13.653  11.115
57854W        W23015  26.213  10.764  12.548
57855W        W23016  15.376  44.570   5.146
57856W        W23017   9.407  16.663   0.990
57857W        W23018  15.589  20.613   2.820
57858W        W23019  25.126   1.336   2.676
57859W        W23020  24.607  44.032  12.952
57860W        W23021  27.542  44.678  11.426
57861W        W23022   4.635  39.389   4.700
57862W        W23023  31.460  12.587  12.132
57863W        W23024  33.190  32.454  14.604
57864W        W23025  42.803  18.053   1.588
57865W        W23026  31.930   0.134   4.149
57866W        W23027   4.879   0.748   1.798
57867W        W23028   2.267   9.662   1.199
57868W        W23029  24.029   8.094  13.292
57869W        W23030  30.113   6.851   1.328
57870W        W23031  16.038  32.453   1.154
57871W        W23032  42.937  10.145  13.926
57872W        W23033  17.689  24.682   1.935
57873W        W23034   5.311   0.440   0.755
57874W        W23035  19.004  24.227   4.215
57875W        W23036  36.608  34.481   4.774
57876W        W23037  13.852  22.989  11.472
57877W        W23038   6.726  43.156  12.717
57878W        W23039  23.514  24.058  12.608
57879W        W23040  20.974  34.983  12.948
57880W        W23041  23.652  29.827  12.467
57881W        W23042  11.893  20.246   4.083
57882W        W23043  29.564  17.148   2.085
57883W        W23044  29.516  43.423   3.264
57884W        W23045   9.713  40.554   3.691
57885W        W23046  34.014  32.587   2.720
57886W        W23047  29.429  32.629   1.801
57887W        W23048  42.488   1.238  14.315
57888W        W23049  18.815  41.372  11.201
57889W        W23050  20.161   2.154   0.524
57890W        W23051  16.066   0.423  14.326
57891W        W23052  33.630  11.338  14.215
57892W        W23053  20.296  43.056   4.591
57893W        W23054   1.337  35.369  11.142
57894W        W23055   4.180  14.107   3.687
57895W        W23056  41.242  22.757   1.726
57896W        W23057  12.716   9.869  14.883
57897W        W23058  13.241   5.260   4.341
57898W        W23059   2.369  33.953   3.317
57899W        W23060   2.512  10.615   3.648
57900W        W23061   9.596   9.314  14.026
57901W        W23062  36.984  13.306   0.234
57902W        W23063   4.108   4.954  13.018
57903W        W23064  41.411  18.262   1.460
57904W        W23065   1.290   8.375  11.910
57905W        W23066  29.626  19.838  12.173
57906W        W23067  10.180   3.731  14.051
57907W        W23068  30.430  10.201   4.681
57908W        W23069   3.181  18.694  11.357
57909W        W23070  41.352  37.654   2.272
57910W        W23071   9.166  41.977   2.294
57911W        W23072  20.029  21.792   5.517
57912W        W23073  30.985  14.196   2.094
57913W        W23074  34.470  39.047   1.444
57914W        W23075   3.529  29.914   0.433
57915W        W23076  19.313  17.249  12.977
57916W        W23077  32.884  43.277   3.304
57917W        W23078   6.314  13.901   1.483
57918W        W23079  42.339  44.449  14.527
57919W        W23080  23.034  39.791   4.885
57920W        W23081  11.153  40.654  12.384
57921W        W23082   5.182  19.303   4.673
57922W        W23083   9.162   3.576   1.465
57923W        W23084  21.768  37.767  10.209
57924W        W23085  41.631  22.744  14.021
57925W        W23086  17.755  39.715   3.320
57926W        W23087  33.971  43.472   4.338
57927W        W23088  11.796  26.915  10.914
57928W        W23089  24.615  31.420   4.452
57929W        W23090   7.643  28.611  12.239
57930W        W23091  26.961  35.244  12.047
57931W        W23092  26.301  31.335   4.997
57932W        W23093  16.791  28.777  14.972
57933W        W23094   7.321  39.985   4.871
57934W        W23095  10.895  21.430   2.255
57935W        W23096  15.809   9.912  12.167
57936W        W23097   7.401  16.406   0.821
57937W        W23098  38.243   5.464  10.998
57938W        W23099   9.155   0.608   4.370
57939W        W23100  30.707  36.369   3.711
57940W        W23101   2.384  18.166  12.457
57941W        W23102  32.982   3.902   2.463
57942W        W23103  32.978  18.552   0.752
57943W        W23104  26.005  38.409   2.694
57944W        W23105  22.016  15.669   3.862
57945W        W23106  16.814   7.353  12.987
57946W        W23107  34.350   1.846   3.058
57947W        W23108  17.334   2.900   1.334
57948W        W23109  24.530  14.867   0.002
57949W        W23110  13.178  24.138  13.648
57950W        W23111  31.018  15.591  13.459
57951W        W23112  39.121  12.708  12.353
57952W        W23113  21.024  10.765  11.984
57953W        W23114  40.039  34.055   3.810
57954W        W23115  23.660  18.136  13.524
57955W        W23116   3.464  36.496   3.723
57956W        W23117  33.994  24.065  13.860
57957W        W23118  44.959  37.299   1.354
57958W        W23119  29.167   2.659   4.880
57959W        W23120  38.563   5.456   2.828
57960W        W23121  37.419   1.857   3.287
57961W        W23122  42.261  20.530   3.147
57962W        W23123  35.465  12.924   3.219
57963W        W23124   2.877  13.399   0.513
57964W        W23125   7.670  27.406   2.751
57965W        W23126  37.638  28.936   1.125
57966W        W23127  27.281  43.522   0.830
57967W        W23128  40.479  21.437  13.466
57968W        W23129  19.958  26.143  11.239
57969W        W23130   6.883  19.659  10.415
57970W        W23131  36.449  42.454   3.222
57971W        W23132  10.344  27.507  14.843
57972W        W23133   2.499  33.600   5.104
57973W        W23134   3.316  32.330  14.471
57974W        W23135  25.520  13.745   4.008
57975W        W23136  21.026  26.955  11.345
57976W        W23137  26.140  18.391  12.422
57977W        W23138  33.201  13.215  13.011
57978W        W23139  37.533  38.513   2.419
57979W        W23140   1.577  10.882  12.485
57980W        W23141   2.321  25.196  11.171
57981W        W23142  11.276  26.253  12.042
57982W        W23143  27.415   0.032  14.664
57983W        W23144  17.229  39.102  13.457
57984W        W23145  25.262  35.984  14.950
57985W        W23146  22.798   1.696   4.624
57986W        W23147  14.177  42.820  10.696
57987W        W23148  23.165  35.438  13.299
57988W        W23149  38.253   4.792   2.399
57989W        W23150  30.222  34.966  13.119
57990W        W23151  39.407   2.640   1.263
57991W        W23152   3.797   0.138  12.043
57992W        W23153  35.616  17.647   1.265
57993W        W23154  28.088  31.112   4.557
57994W        W23155  13.206  41.474   2.752
57995W        W23156  17.782  35.992  14.959
57996W        W23157   2.417  18.204  14.875
57997W        W23158   0.142  22.551  14.277
57998W        W23159  35.233  24.475   3.319
57999W        W23160  24.481  17.002   4.733
58000W        W23161  24.960  18.714  13.243
58001W        W23162  24.737   7.272  10.546
58002W        W23163  40.697  21.691  10.548
58003W        W23164  44.989  40.008   0.452
58004W        W23165  11.697   6.816  13.114
58005W        W23166   8.789  29.794  12.046
58006W        W23167  36.683  15.589   1.672
58007W        W23168  31.959  29.040   4.446
58008W        W23169  10.175  38.942   1.465
58009W        W23170  25.972  25.532  12.549
58010W        W23171  24.965  44.247   0.664
58011W        W23172  27.540  36.302   1.876
58012W        W23173   8.377  15.832   1.224
58013W        W23174  25.433  34.874   0.278
58014W        W23175   0.487   6.563   1.828
58015W        W23176  14.166  14.617   1.197
58016W        W23177  24.480  32.065   2.177
58017W        W23178  39.243  10.227  10.566
58018W        W23179   7.874  13.937  14.951
58019W        W23180   2.793  12.218  13.958
58020W        W23181  22.110  34.352   3.297
58021W        W23182  28.490  29.957   4.123
58022W        W23183  30.672   6.400  12.433
58023W        W23184  16.860   0.430  14.999
58024W        W23185  30.920  36.659  12.888
58025W        W23186  26.975  33.033   0.833
58026W        W23187   9.473  38.035   1.647
58027W        W23188   4.307  40.363   3.668
58028W        W23189  22.107  15.290  13.332
58029W        W23190  32.059  43.513   0.555
58030W        W23191  35.148  26.607  11.118
58031W        W23192  40.554  12.597   1.860
58032W        W23193   0.358   9.326  10.413
58033W        W23194  12.073  33.498   0.492
58034W        W23195  44.143  26.721   2.326
58035W        W23196   6.127   7.744  14.619
58036W        W23197  13.300  15.338  11.788
58037W        W23198  36.129   3.198   5.044
58038W        W23199  22.318   6.893  13.917
58039W        W23200  35.044  18.811  12.984
58040W        W23201  27.167  17.554   1.415
58041W        W23202  26.316  41.089   3.129
58042W        W23203  37.466  13.771   2.856
58043W        W23204  33.034  29.054   3.345
58044W        W23205  39.453  40.408  11.928
58045W        W23206  43.232   6.917  13.792
58046W        W23207  38.521  38.290  14.421
58047W        W23208  17.640  26.589   3.272
58048W        W23209  15.779   4.975  10.529
58049W        W23210   3.352  21.159   4.046
58050W        W23211   5.410  21.758   2.447
58051W        W23212   5.785  13.136   4.134
58052W        W23213  44.529   4.236   2.917
58053W        W23214  35.319  39.446  14.665
58054W        W23215  34.085  15.270  10.573
58055W        W23216  19.640   8.792   1.320
58056W        W23217  35.970  42.897   1.962
58057W        W23218  44.327  37.630   0.061
58058W        W23219  18.975  10.601   2.658
58059W        W23220  29.675  18.085  13.568
58060W        W23221  42.081   8.123  12.433
58061W        W23222   7.173  11.691   4.465
58062W        W23223   9.232  32.910  11.930
58063W        W23224  16.165   8.833   1.474
58064W        W23225  15.046  22.102   1.483
58065W        W23226  35.913  20.247  14.554
58066W        W23227  32.906  13.963   0.232
58067W        W23228  35.584  38.143   0.403
58068W        W23229   7.273  26.862  12.582
58069W        W23230  23.004  20.624   4.315
58070W        W23231  39.461  21.419   1.532
58071W        W23232  10.477  39.889  10.817
58072W        W23233  11.908  37.249   3.580
58073W        W23234  29.420  40.431  12.983
58074W        W23235  14.814   1.990  14.039
58075W        W23236   2.939  37.348   5.072
58076W        W23237   7.320   0.348  11.511
58077W        W23238  14.105  22.254  14.929
58078W        W23239  12.956   0.674   2.451
58079W        W23240   1.223  15.633   2.990
58080W        W23241  10.683  31.603   3.231
58081W        W23242  24.852  32.009   2.570
58082W        W23243  37.420   8.379  14.283
58083W        W23244  24.261  21.400  11.311
58084W        W23245  29.214  15.500  12.090
58085W        W23246  34.630  14.003  13.379
58086W        W23247  30.841  10.876   4.249
58087W        W23248  17.814  15.121   2.248
58088W        W23249  40.030  14.211  11.348
58089W        W23250  28.466  31.095   3.282
58090W        W23251  40.708  43.750  11.733
58091W        W23252   8.020  27.092   5.265
58092W        W23253  36.028   4.840   4.160
58093W        W23254  24.581  33.937   1.543
58094W        W23255  31.454  30.924  11.127
58095W        W23256   3.750  42.756   2.748
58096W        W23257  27.287   2.227  13.393
58097W        W23258  22.576  12.608  14.855
58098W        W23259  25.029  12.822   1.853
58099W        W23260  15.694  11.866   2.696
58100W        W23261  20.141   8.945   2.897
58101W        W23262  34.602  34.213   1.571
58102W        W23263  17.153  12.349   0.550
58103W        W23264  20.975   3.319  14.977
58104W        W23265  27.462  44.772   3.756
58105W        W23266   4.748   7.925   3.761
58106W        W23267  43.441  24.007   0.481
58107W        W23268  11.623  30.568   1.462
58108W        W23269   2.699  35.066  10.390
58109W        W23270  19.665  25.448  11.058
58110W        W23271   8.970  35.649  14.278
58111W        W23272  33.054  24.663  14.438
58112W        W23273  20.778  13.684  14.793
58113W        W23274  26.410   6.487   3.800
58114W        W23275  12.691  42.282  11.107
58115W        W23276  25.493  14.764   3.620
58116W        W23277   9.632  17.772  12.467
58117W        W23278  17.405  39.329  13.055
58118W        W23279  43.438  14.670  11.380
58119W        W23280  19.754  16.621   0.439
58120W        W23281   3.918  26.088  14.833
58121W        W23282   1.472  36.297   0.345
58122W        W23283  31.441  29.532  14.259
58123W        W23284  31.986  36.028   3.015
58124W        W23285  31.012  44.825   2.037
58125W        W23286  18.310  44.703  10.694
58126W        W23287   6.889  44.957   4.096
58127W        W23288  10.786   6.468   4.530
58128W        W23289  28.529  43.845   3.733
58129W        W23290  37.422  39.159  12.944
58130W        W23291   8.612  42.106   3.652
58131W        W23292  14.037  17.926   0.375
58132W        W23293  26.577   3.216   2.570
58133W        W23294  18.285   3.220  12.810
58134W        W23295  30.378  22.746  14.853
58135W        W23296  38.081   9.861   2.562
58136W        W23297  23.902  20.290  14.839
58137W        W23298  22.468  21.999  14.430
58138W        W23299   7.968  27.177  10.294
58139W        W23300  12.717   0.543   0.020
58140W        W23301  21.981  24.499   2.701
58141W        W23302  20.227   3.973   4.345
58142W        W23303   8.827   3.261   3.007
58143W        W23304  15.933   6.223  13.305
58144W        W23305  23.769  32.606  11.144
58145W        W23306  10.129  26.942  11.475
58146W        W23307  38.803  19.331  14.260
58147W        W23308   1.811  35.539   2.263
58148W        W23309  15.025  19.375  11.621
58149W        W23310   0.743  27.644   1.819
58150W        W23311  10.443  10.893   4.077
58151W        W23312  38.637  32.923  13.225
58152W        W23313  37.699  20.236   2.262
58153W        W23314   1.906  19.161  10.685
58154W        W23315  18.440  29.299   0.356
58155W        W23316  16.186  16.227  14.507
58156W        W23317  13.507  28.530  11.572
58157W        W23318  31.425  32.956  12.942
58158W        W23319  13.905   2.342  13.355
58159W        W23320  39.931  21.881  11.194
58160W        W23321   3.889  38.039  10.450
58161W        W23322  27.413   5.890   0.406
58162W        W23323  34.318   1.778  14.384
58163W        W23324  35.123  20.103  14.108
58164W        W23325   2.802   6.151   3.784
58165W        W23326  15.296  32.619   3.222
58166W        W23327  15.087  31.635   0.279
58167W        W23328  27.205  28.161  13.406
58168W        W23329  23.156  36.960   2.862
58169W        W23330   3.030  35.509  13.455
58170W        W23331   9.144  43.907  14.159
58171W        W23332  23.555   7.589   3.762
58172W        W23333  33.122  36.555   1.229
58173W        W23334   3.431  30.439  14.339
58174W        W23335  31.392  44.404   0.364
58175W        W23336  41.767  36.088  11.239
58176W        W23337   6.300   5.196  11.787
58177W        W23338   4.977   5.900   2.812
58178W        W23339  31.825   1.827  12.437
58179W        W23340  35.886  28.734   4.151
58180W        W23341  11.099  42.989  12.898
58181W        W23342  11.010  24.455  11.667
58182W        W23343  27.417  42.425  13.411
58183W        W23344  29.598  44.239  11.929
58184W        W23345  17.641  27.679   1.723
58185W        W23346  36.064  32.575  13.317
58186W        W23347  41.200  36.030  11.957
58187W        W23348  30.484  18.671   2.794
58188W        W23349  10.778  30.926  13.571
58189W        W23350   1.718  31.122  11.624
58190W        W23351  36.587  25.666   3.822
58191W        W23352  44.964  31.380  13.500
58192W        W23353  16.339  15.206  11.895
58193W        W23354  43.853  41.317  14.339
58194W        W23355   0.762   6.490   3.248
58195W        W23356   8.026  26.609   3.021
58196W        W23357  27.873  19.072   0.313
58197W        W23358  22.975  18.098  12.170
58198W        W23359  24.939  29.270  13.040
58199W        W23360  34.175  20.601  14.936
58200W        W23361  23.692  44.794   2.618
58201W        W23362   2.477   3.849  12.409
58202W        W23363  34.043  19.081  13.258
58203W        W23364   1.625  37.379   4.611
58204W        W23365  42.319   1.286   2.872
58205W        W23366  11.762  10.441  10.688
58206W        W23367   3.114  32.554   2.301
58207W        W23368  13.050  23.643   3.387
58208W        W23369  10.335  23.323   5.012
58209W        W23370  34.464  38.029  12.095
58210W        W23371  25.246  31.258  12.975
58211W        W23372   3.988  30.990  12.069
58212W        W23373   2.890  25.990   3.269
58213W        W23374   9.694  16.604  14.154
58214W        W23375  22.958  33.928   2.224
58215W        W23376  11.601  16.074  11.624
58216W        W23377   4.991   9.615  14.863
58217W        W23378  20.254  36.992  14.453
58218W        W23379  18.013  26.270  12.427
58219W        W23380  27.657  10.203   0.205
58220W        W23381   0.328   0.323  11.491
58221W        W23382  10.217  25.225   0.751
58222W        W23383  35.561  24.931   2.661
58223W        W23384  16.260  20.330   0.886
58224W        W23385  27.447  17.700  11.511
58225W        W23386  44.320  39.724   3.864
58226W        W23387   0.988  11.401   2.734
58227W        W23388   8.807  16.641   1.874
58228W        W23389  15.383   9.289   1.516
58229W        W23390   4.850  29.750   1.887
58230W        W23391  38.878   5.707  12.158
58231W        W23392  33.372   3.719  10.892
58232W        W23393  19.063   5.624  10.411
58233W        W23394  43.793  35.392   4.215
58234W        W23395   9.156  25.346  13.599
58235W        W23396   8.271   6.694  14.303
58236W        W23397  26.936  44.056  11.914
58237W        W23398  27.896  25.139   2.381
58238W        W23399  22.443  11.291   1.154
58239W        W23400  29.857   9.413  14.087
58240W        W23401  40.210  33.175   5.067
58241W        W23402   1.906   1.029   0.500
58242W        W23403   9.165   3.375   0.990
58243W        W23404  44.535  11.593  11.566
58244W        W23405   7.762  39.561   1.817
58245W        W23406  31.974  19.513   1.189
58246W        W23407  30.752  21.655  14.256
58247W        W23408  34.395  28.266  10.692
58248W        W23409  30.400  26.978  12.425
58249W        W23410  37.864  43.488  14.929
58250W        W23411  43.832   5.338   4.205
58251W        W23412  42.543  23.587  12.974
58252W        W23413  26.410   8.294   3.636
58253W        W23414  39.115  37.326  12.939
58254W        W23415  34.130  23.923   5.748
58255W        W23416  16.826  31.163   3.150
58256W        W23417  33.984   3.579  11.637
58257W        W23418  14.969  19.493  11.073
58258W        W23419  19.012  12.993  10.463
58259W        W23420  10.840  27.152  13.894
58260W        W23421  28.628   9.233  12.382
58261W        W23422  39.556  19.068   1.070
58262W        W23423  24.780  11.626   3.196
58263W        W23424  28.373  36.835   2.811
58264W        W23425   9.949  29.430  11.077
58265W        W23426  41.731   9.660   0.696
58266W        W23427  15.704  30.678   1.500
58267W        W23428   0.414  43.998   0.428
58268W        W23429   4.395  21.243   2.220
58269W        W23430  43.029  38.048   4.112
58270W        W23431  11.602  17.360   2.720
58271W        W23432  11.689  24.060  14.933
58272W        W23433   2.454  35.834   2.646
58273W        W23434   8.830   8.068  13.065
58274W        W23435   3.393   5.926   2.387
58275W        W23436   1.105  34.668  13.374
58276W        W23437  26.116  30.435  11.366
58277W        W23438   4.839  37.604  10.277
58278W        W23439  12.664  37.462  13.913
58279W        W23440  18.108  36.313   4.472
58280W        W23441  16.204  22.078   2.140
58281W        W23442  38.357  32.645  13.909
58282W        W23443   8.337   0.920   2.729
58283W        W23444   9.190  20.184  11.622
58284W        W23445  27.687   9.871   4.234
58285W        W23446  10.197  41.488  12.534
58286W        W23447   9.291  10.170   1.412
58287W        W23448  37.347  39.580   2.308
58288W        W23449  21.768  26.152   0.146
58289W        W23450   7.354  31.365   1.215
58290W        W23451  10.318  18.140  14.016
58291W        W23452   4.875  40.282  12.582
58292W        W23453  35.934  12.690  12.912
58293W        W23454   8.279  25.102  14.406
58294W        W23455  23.688   8.912   2.247
58295W        W23456  39.758  35.131  14.306
58296W        W23457  22.052  24.075   1.610
58297W        W23458  30.654  17.529   1.921
58298W        W23459  17.328  23.671   0.995
58299W        W23460  22.774  28.961   4.424
58300W        W23461   7.149  30.785  11.612
58301W        W23462  16.641  18.774   0.454
58302W        W23463  34.716   4.371   0.435
58303W        W23464   4.924  19.113   0.568
58304W        W23465  44.384  35.396   3.704
58305W        W23466  11.171  15.100   1.536
58306W        W23467  23.488   6.092  12.958
58307W        W23468   5.949  40.494   3.634
58308W        W23469  12.544  15.876   2.039
58309W        W23470   6.277  20.837   3.082
58310W        W23471  14.680  38.957   4.988
58311W        W23472  22.549  25.200  14.805
58312W        W23473  25.040   5.986   3.747
58313W        W23474  26.057  44.371  14.982
58314W        W23475  11.546  40.781   2.761
58315W        W23476  31.120  28.641   3.060
58316W        W23477  24.270  23.607  13.389
58317W        W23478   9.147  20.701  13.988
58318W        W23479  38.996  36.153   0.632
58319W        W23480   5.236  20.780  14.283
58320W        W23481  24.725   4.767  12.872
58321W        W23482   3.692   3.288   4.052
58322W        W23483  24.423  21.031  13.034
58323W        W23484   1.956  22.093  11.488
58324W        W23485  14.064  23.509  12.346
58325W        W23486  17.267  11.807   1.810
58326W        W23487  24.908   9.804  12.822
58327W        W23488  35.243  16.189  12.078
58328W        W23489   9.303  26.751  14.812
58329W        W23490  29.333  20.271   2.098
58330W        W23491  16.247  16.101   5.572
58331W        W23492  23.819  14.075   1.812
58332W        W23493   6.412  44.321  14.983
58333W        W23494  17.326  28.981   2.327
58334W        W23495  12.149  39.352   3.345
58335W        W23496  24.602  26.944  12.268
58336W        W23497  43.227  18.657   0.240
58337W        W23498   7.668  28.840   3.094
58338W        W23499  29.515  22.009  12.417
58339W        W23500  38.450  40.837   2.045
58340W        W23501   9.911  42.589  10.766
58341W        W23502  16.435   2.755  14.300
58342W        W23503  20.592  26.199   2.219
58343W        W23504   6.324  39.505  10.515
58344W        W23505  24.392  12.845  10.431
58345W        W23506  32.244  43.501   1.510
58346W        W23507  30.108  11.193  14.901
58347W        W23508  21.369  30.395  13.066
58348W        W23509  29.347  43.425  14.075
58349W        W23510  42.032  35.093  10.700
58350W        W23511   3.852  18.539   2.370
58351W        W23512  15.754   4.368  11.241
58352W        W23513   6.593  36.487  12.031
58353W        W23514   6.487  21.182   1.390
58354W        W23515  38.306   2.790  10.508
58355W        W23516  31.554  17.103   4.819
58356W        W23517  19.572  13.839   3.899
58357W        W23518  39.805  30.101  13.373
58358W        W23519  20.556  19.525   1.720
58359W        W23520  35.484   1.970  12.594
58360W        W23521  15.529  36.818   0.818
58361W        W23522  10.778  12.129  11.070
58362W        W23523  43.278   7.770   0.103
58363W        W23524  33.339  38.529  14.312
58364W        W23525  29.068  35.804   0.945
58365W        W23526  10.245  10.571   1.472
58366W        W23527  21.814  17.226  11.413
58367W        W23528  10.090  20.247  11.566
58368W        W23529  32.724  22.558   5.473
58369W        W23530  10.759  35.125  11.065
58370W        W23531  31.973   7.856   4.149
58371W        W23532   0.336  19.718  12.921
58372W        W23533  22.112  16.192  12.090
58373W        W23534  20.663  18.327   1.226
58374W        W23535  14.919  18.563   4.685
58375W        W23536  28.761  26.518   1.575
58376W        W23537  42.299  44.836  14.912
58377W        W23538   0.369  27.889  12.050
58378W        W23539  15.112  21.145   0.728
58379W        W23540  43.426  19.481  12.758
58380W        W23541  15.524   6.077  14.294
58381W        W23542   1.445   2.932  11.174
58382W        W23543  31.506  38.226  12.469
58383W        W23544  26.407  27.365   1.919
58384W        W23545  43.452  36.987   2.875
58385W        W23546  27.234  20.769   3.732
58386W        W23547   2.951  30.312   0.902
58387W        W23548  21.419   9.178  13.829
58388W        W23549  33.082   3.434   1.401
58389W        W23550  29.461  37.322   3.717
58390W        W23551  20.097  33.024   1.381
58391W        W23552  14.037  39.317  14.070
58392W        W23553  12.888  16.148   1.442
58393W        W23554  33.647  38.079  13.202
58394W        W23555  32.518   1.014   1.240
58395W        W23556  12.744  38.326  10.794
58396W        W23557  23.051  30.753  11.564
58397W        W23558  18.056   7.373   0.727
58398W        W23559  20.136  17.215   1.510
58399W        W23560  28.690  26.302  13.968
58400W        W23561   3.964  35.324  14.842
58401W        W23562  15.760  25.853  14.067
58402W        W23563  36.941  14.472   0.566
58403W        W23564  22.550   8.796   4.127
58404W        W23565  15.148  26.237  11.870
58405W        W23566  29.462  27.101  14.702
58406W        W23567  41.662   0.974  12.499
58407W        W23568  25.706  21.002   3.392
58408W        W23569   0.877  12.309   1.790
58409W        W23570   3.893  41.014  10.460
58410W        W23571   5.352  42.814  11.556
58411W        W23572  19.078  18.372  10.668
58412W        W23573  14.347  35.627  14.352
58413W        W23574  27.943   3.550  14.396
58414W        W23575   6.326  10.190  14.406
58415W        W23576  14.030  26.553  13.891
58416W        W23577   3.352   5.111   0.326
58417W        W23578   0.226  37.081   2.719
58418W        W23579  33.227   7.437  11.066
58419W        W23580  31.544   7.974   2.255
58420W        W23581  39.500   4.316   0.889
58421W        W23582  14.922   4.614  10.894
58422W        W23583   5.306   1.868  14.704
58423W        W23584  15.781  34.375   4.731
58424W        W23585  30.966  25.931   9.878
58425W        W23586  15.109  19.978  10.767
58426W        W23587  43.955  24.987   4.282
58427W        W23588  39.293  28.930  10.688
58428W        W23589  35.588  20.939  11.445
58429W        W23590  35.011  17.004  12.417
58430W        W23591  35.303  22.425  12.474
58431W        W23592  12.813  25.155   3.313
58432W        W23593  34.037  10.165  11.549
58433W        W23594  42.517  40.780   3.633
58434W        W23595  22.776  17.543   3.621
58435W        W23596  41.438  13.773  11.034
58436W        W23597   5.865  10.342   2.410
58437W        W23598   9.840   8.525  10.087
58438W        W23599  44.990  12.447   3.964
58439W        W23600  29.222  10.904  11.868
58440W        W23601  16.811  12.803  14.780
58441W        W23602  12.273  10.824  14.481
58442W        W23603  24.876  14.321   1.276
58443W        W23604   4.478  13.924   4.081
58444W        W23605  20.824  17.801  12.531
58445W        W23606   2.037  31.587   4.210
58446W        W23607  13.035  30.371  12.841
58447W        W23608   9.055  21.995   4.484
58448W        W23609   2.824  33.767  12.134
58449W        W23610   5.233   5.803  12.038
58450W        W23611   3.735   3.199   2.122
58451W        W23612  14.207  31.580   0.882
58452W        W23613  22.730  32.506   1.301
58453W        W23614   3.398  40.053  14.529
58454W        W23615  16.069  28.870   2.783
58455W        W23616  22.446   7.291   1.423
58456W        W23617  39.861  28.419   0.792
58457W        W23618   4.125  18.753   3.600
58458W        W23619  23.763  36.618   0.879
58459W        W23620   8.805  32.437   4.432
58460W        W23621  38.853  36.861  10.708
58461W        W23622   8.438  14.069   4.104
58462W        W23623  34.653  28.674  14.877
58463W        W23624   1.723  11.842   4.089
58464W        W23625  34.931  30.596   4.530
58465W        W23626   6.712  22.632   1.689
58466W        W23627  35.516   3.877   3.713
58467W        W23628  30.114  40.153   2.392
58468W        W23629  11.048  25.720  13.871
58469W        W23630  40.843   3.942   1.377
58470W        W23631  15.232  15.108   2.811
58471W        W23632  38.002  22.330   3.131
58472W        W23633   8.127  36.413  11.747
58473W        W23634  35.465  27.177  13.515
58474W        W23635  21.120  27.953   5.026
58475W        W23636  26.556  34.578  12.146
58476W        W23637  30.763  43.774  11.627
58477W        W23638  36.403   3.007  14.637
58478W        W23639  14.606  37.295   1.346
58479W        W23640   5.446  41.486  13.992
58480W        W23641   1.551  24.019   3.719
58481W        W23642  43.312  18.212  10.635
58482W        W23643   5.784   0.297   1.517
58483W        W23644  13.210  28.593   2.394
58484W        W23645  25.108  18.106  14.827
58485W        W23646   7.664   8.427   2.640
58486W        W23647  26.795  10.248   0.788
58487W        W23648  28.261  20.186  10.247
58488W        W23649  41.466  40.891   0.314
58489W        W23650  22.066  10.130   0.147
58490W        W23651  20.065  41.091   3.647
58491W        W23652  30.209  10.764   1.637
58492W        W23653  20.526  36.505   0.033
58493W        W23654   9.905   9.957   1.990
58494W        W23655  22.818   5.713  13.489
58495W        W23656  12.348  26.947  12.519
58496W        W23657  40.458  39.347  12.058
58497W        W23658  32.742  43.314   4.983
58498W        W23659   0.958  18.609   1.436
58499W        W23660  44.980   8.622  13.519
58500W        W23661  39.045  22.152  12.474
58501W        W23662  37.379  19.769  12.066
58502W        W23663  12.821   6.707   3.646
58503W        W23664  26.428   8.790  11.445
58504W        W23665  17.026  14.667   2.324
58505W        W23666   7.738  32.645  11.068
58506W        W23667  12.658  13.035   2.043
58507W        W23668  24.777  41.822   3.229
58508W        W23669  18.123   8.336  10.952
58509W        W23670  24.191  15.646  12.501
58510W        W23671  26.007  25.495   3.327
58511W        W23672  21.652  44.258  13.027
58512W        W23673  34.030  32.607  12.558
58513W        W23674  22.869  13.573  14.036
58514W        W23675   1.838  36.343   0.886
58515W        W23676  16.732  41.035  10.768
58516W        W23677  32.074  24.179   1.788
58517W        W23678  35.963   2.814   1.424
58518W        W23679   3.260  15.341   3.738
58519W        W23680  43.476  26.394   3.968
58520W        W23681  41.445  11.821  12.836
58521W        W23682   1.302  34.840  12.063
58522W        W23683   6.084  21.100  14.405
58523W        W23684  14.229  44.792  12.394
58524W        W23685  23.692  39.832   0.290
58525W        W23686  28.034  14.497   4.244
58526W        W23687  41.049   0.536   2.354
58527W        W23688  27.347   4.451   3.849
58528W        W23689  39.247   7.207   1.718
58529W        W23690   0.804  28.536   2.126
58530W        W23691  32.889  33.798   0.305
58531W        W23692  40.064  21.083  14.906
58532W        W23693   7.480  30.472   4.136
58533W        W23694   2.355   5.674  12.381
58534W        W23695   6.255  27.150  14.469
58535W        W23696  28.408  22.792  11.506
58536W        W23697  37.328  32.086  14.396
58537W        W23698   1.307  19.956  10.426
58538W        W23699  21.160  19.091   1.237
58539W        W23700  11.308  13.042   0.012
58540W        W23701   5.292  11.421  10.578
58541W        W23702   9.121   2.184  12.225
58542W        W23703  29.904  41.270   3.239
58543W        W23704  23.308   3.194   3.977
58544W        W23705  11.864   9.593   1.931
58545W        W23706  38.565  11.807  13.126
58546W        W23707  26.104  28.209  14.982
58547W        W23708  26.618  30.503   0.861
58548W        W23709   8.655  16.009   0.724
58549W        W23710   6.433  39.956  11.949
58550W        W23711  15.604  26.695  13.882
58551W        W23712  12.728  31.092   3.582
58552W        W23713   0.928  21.876   2.821
58553W        W23714   9.838  25.041   4.196
58554W        W23715  22.929  22.244  11.146
58555W        W23716  34.481  41.890  12.712
58556W        W23717  22.453  43.679  11.693
58557W        W23718  14.179  41.199   5.052
58558W        W23719  31.617  30.512  13.914
58559W        W23720  34.179   1.054  10.699
58560W        W23721  17.017  20.884  11.222
58561W        W23722  23.319  24.047  12.122
58562W        W23723  38.825  27.386  11.117
58563W        W23724  36.388   0.947  10.589
58564W        W23725  11.699  26.561   0.012
58565W        W23726  25.610  33.177   0.955
58566W        W23727  14.663  20.359  10.694
58567W        W23728  20.635  33.432  13.962
58568W        W23729   0.773  18.066  11.510
58569W        W23730  10.046  21.510  14.316
58570W        W23731  10.277   4.831  13.061
58571W        W23732   9.189  43.760  14.647
58572W        W23733   4.907  28.827   1.815
58573W        W23734  14.281  17.333   3.672
58574W        W23735  17.843  12.164  12.892
58575W        W23736  39.405  16.015  10.722
58576W        W23737  16.838   3.719   1.210
58577W        W23738   4.666  19.418   3.330
58578W        W23739  18.531  15.639  13.628
58579W        W23740   6.738  30.403   4.705
58580W        W23741  38.085  14.170   2.782
58581W        W23742  30.085  23.695   0.247
58582W        W23743  19.345  22.727   4.123
58583W        W23744  16.206  18.592  10.470
58584W        W23745   6.143  20.590  13.930
58585W        W23746  27.769  38.554   1.386
58586W        W23747   9.362  33.951  11.540
58587W        W23748  42.507   9.859  13.473
58588W        W23749  40.688  32.896  11.198
58589W        W23750  34.665  28.923  10.835
58590W        W23751  42.047  41.292   4.694
58591W        W23752   6.956   0.430  11.861
58592W        W23753  41.632  44.499   1.804
58593W        W23754  11.336  31.232  14.592
58594W        W23755   5.718  37.520  12.704
58595W        W23756  40.348  17.981  10.299
58596W        W23757   7.685  11.134   1.839
58597W        W23758  15.195  25.684  14.048
58598W        W23759   0.361  35.087   0.204
58599W        W23760  38.757   6.008  10.822
58600W        W23761  16.255  12.551  11.388
58601W        W23762  38.634  17.970  11.692
58602W        W23763  34.124  24.818  14.838
58603W        W23764  42.524  25.078   4.484
58604W        W23765  38.063  44.524  10.715
58605W        W23766  20.781  18.095  13.473
58606W        W23767   1.871  26.395  14.018
58607W        W23768  10.820   0.027  14.476
58608W        W23769  27.365  14.865   3.175
58609W        W23770  42.170  35.251  11.530
58610W        W23771  37.813  44.458  14.764
58611W        W23772   6.833  24.644   2.683
58612W        W23773  15.710  35.064   0.347
58613W        W23774  17.110   7.447  13.868
58614W        W23775  36.059  31.925   0.052
58615W        W23776  15.744  44.438  13.877
58616W        W23777  11.431  33.527  10.902
58617W        W23778  19.218   2.940   4.631
58618W        W23779  23.663  12.386   0.898
58619W        W23780  28.867  31.572  13.860
58620W        W23781  33.497  28.330  13.537
58621W        W23782   0.813  25.018  14.131
58622W        W23783  22.494   6.560   5.348
58623W        W23784   5.455  25.027   2.056
58624W        W23785  33.520  33.868  13.048
58625W        W23786  17.190  37.376  10.640
58626W        W23787  32.740  35.900  10.627
58627W        W23788  19.620  24.833   4.302
58628W        W23789  24.878  17.906  11.581
58629W        W23790  37.881  36.972  11.581
58630W        W23791  28.065  24.882   1.345
58631W        W23792  25.675  36.521   3.785
58632W        W23793  15.705  36.034  14.453
58633W        W23794  35.508  13.226  13.082
58634W        W23795   3.268  35.266   3.345
58635W        W23796   3.668  43.746  14.975
58636W        W23797  26.261  18.832   4.437
58637W        W23798  39.533  16.595   1.902
58638W        W23799  44.785  36.174   1.939
58639W        W23800  40.550  41.477  13.983
58640W        W23801  26.013  16.180  11.152
58641W        W23802  25.491  29.165  13.316
58642W        W23803  11.114  31.971   4.102
58643W        W23804  30.834  26.685  12.442
58644W        W23805  40.456  30.094   3.074
58645W        W23806  44.464  21.687   3.285
58646W        W23807  41.851   0.648  13.813
58647W        W23808  38.992  16.335   3.805
58648W        W23809  10.799  27.896  11.169
58649W        W23810  30.437  12.382  12.608
58650W        W23811  21.182  36.088   1.938
58651W        W23812   7.907  33.040   1.317
58652W        W23813  43.987  10.733   2.440
58653W        W23814  24.627   8.145  11.093
58654W        W23815  11.626   3.500   5.238
58655W        W23816  32.926  30.536   1.114
58656W        W23817   5.316  42.303  11.518
58657W        W23818  20.347   9.293   1.233
58658W        W23819  22.853   2.067   5.008
58659W        W23820   2.535   7.020  12.388
58660W        W23821  39.066   6.423   3.281
58661W        W23822  39.551  18.701  11.259
58662W        W23823  31.397  33.378  13.889
58663W        W23824  41.959  30.181   4.890
58664W        W23825   2.777  41.650   2.278
58665W        W23826  31.390  19.528  14.021
58666W        W23827  36.553  34.925  12.490
58667W        W23828   4.967  14.212   0.762
58668W        W23829  21.355   6.908   1.945
58669W        W23830  40.618   0.827  13.397
58670W        W23831  13.862   3.792  13.592
58671W        W23832  11.703  41.252  13.782
58672W        W23833  37.552   0.315   3.896
58673W        W23834   5.242  17.429  14.700
58674W        W23835   5.268   7.572   4.683
58675W        W23836  28.103  11.431  14.641
58676W        W23837  27.425   8.220  11.658
58677W        W23838   1.539   9.676  10.710
58678W        W23839   5.397  28.448   0.060
58679W        W23840   6.468   2.350   0.808
58680W        W23841  37.144   0.906   3.265
58681W        W23842  20.145  15.790  12.315
58682W        W23843  42.892  17.865   4.645
58683W        W23844  37.771   9.265  14.915
58684W        W23845  21.115  10.164   2.711
58685W        W23846  14.178  33.172   2.350
58686W        W23847  34.315  10.382   1.236
58687W        W23848  10.865  36.540  14.746
58688W        W23849  26.369   7.833   4.527
58689W        W23850  11.062  30.623  11.814
58690W        W23851  12.594  15.702  13.823
58691W        W23852  10.747   3.305   0.727
58692W        W23853  20.706  27.366   2.154
58693W        W23854  36.778  13.156  10.715
58694W        W23855  11.854  16.196   1.379
58695W        W23856  37.298  29.012  14.659
58696W        W23857   5.902  28.263   1.418
58697W        W23858   2.062  36.557   3.678
58698W        W23859  15.621  17.358  11.206
58699W        W23860  38.290  13.889  14.003
58700W        W23861   7.764  23.214   3.329
58701W        W23862  33.490  44.507   2.236
58702W        W23863  18.365   4.825  13.086
58703W        W23864   6.387  28.473  12.698
58704W        W23865  23.474   4.638  14.916
58705W        W23866  16.898   9.769  12.099
58706W        W23867   1.658  44.061  11.097
58707W        W23868  31.653   2.980   1.474
58708W        W23869   9.574  24.217   3.666
58709W        W23870  32.609  16.187  14.895
58710W        W23871  21.147  11.196   1.752
58711W        W23872   8.391   6.886   2.795
58712W        W23873  25.613  43.988  10.435
58713W        W23874   3.397  43.923   0.407
58714W        W23875  28.039  21.519   1.739
58715W        W23876  33.111  36.969   1.809
58716W        W23877  40.512  17.737   0.362
58717W        W23878   3.979  17.227   3.111
58718W        W23879  24.927  33.411   3.867
58719W        W23880  31.121  10.146  11.007
58720W        W23881   0.490  28.154  13.353
58721W        W23882   0.760   8.909   5.093
58722W        W23883  26.211  24.468  13.394
58723W        W23884  40.613   8.144   1.882
58724W        W23885  13.620  14.279  12.447
58725W        W23886   4.078  36.671   4.203
58726W        W23887  25.607   8.171  14.076
58727W        W23888   1.749   0.239   1.370
58728W        W23889  37.287  25.637  12.269
58729W        W23890  13.889  41.098  14.360
58730W        W23891   6.216  33.925   3.675
58731W        W23892  11.580  30.542  10.908
58732W        W23893  17.673  30.739  12.438
58733W        W23894  36.626  32.351  10.703
58734W        W23895  23.872   9.417  11.123
58735W        W23896  40.838  34.681   1.828
58736W        W23897  10.822   6.740  14.381
58737W        W23898   2.454  27.709  12.870
58738W        W23899  42.878  32.403  13.417
58739W        W23900  41.853  33.527   3.635
58740W        W23901  33.023  39.644  12.892
58741W        W23902  44.423  32.701   4.386
58742W        W23903   9.338  14.534   3.719
58743W        W23904  11.739  36.361  13.513
58744W        W23905  35.418   6.647   1.679
58745W        W23906  32.897   6.804  12.004
58746W        W23907  26.643  24.693   5.232
58747W        W23908  37.037  17.181   4.832
58748W        W23909  38.705   3.410  13.840
58749W        W23910  38.570   0.027   2.689
58750W        W23911  15.295  31.818  14.355
58751W        W23912  15.543   1.262  14.321
58752W        W23913   5.724  39.612   2.797
58753W        W23914  16.800   0.071   4.855
58754W        W23915  21.971   4.150  11.056
58755W        W23916   1.273  36.457   2.290
58756W        W23917  39.123   6.555  14.464
58757W        W23918  38.898  10.083  13.273
58758W        W23919  36.272  34.560  13.983
58759W        W23920  43.821  23.627   0.706
58760W        W23921  25.298   0.274  11.385
58761W        W23922  31.836  12.630  10.234
58762W        W23923   9.485  35.338   2.857
58763W        W23924  41.696   0.853   3.717
58764W        W23925  40.721  36.263   5.247
58765W        W23926  25.118  31.631  14.891
58766W        W23927   4.334   3.747   2.902
58767W        W23928  11.743  24.138  12.662
58768W        W23929  19.045   5.471   4.609
58769W        W23930   2.812  18.645   4.049
58770W        W23931  11.312  36.095   1.432
58771W        W23932   4.472   5.432   4.976
58772W        W23933  18.860  35.912  12.129
58773W        W23934   7.867   5.456  14.037
58774W        W23935  19.273  38.421  14.099
58775W        W23936  36.333  37.411  14.479
58776W        W23937  28.425  32.563  14.943
58777W        W23938   6.231  39.711   2.818
58778W        W23939  15.770   9.345  13.418
58779W        W23940  25.129  40.914  11.072
58780W        W23941  18.950  39.413   1.178
58781W        W23942  31.739  11.377   2.327
58782W        W23943  44.763  43.288   1.333
58783W        W23944   6.744  37.536   0.305
58784W        W23945   3.051  25.168   0.993
58785W        W23946  19.746  43.300  13.601
58786W        W23947  14.830  31.169  14.011
58787W        W23948  31.474   9.434   1.336
58788W        W23949  41.391  18.791  10.796
58789W        W23950  16.697  36.865  13.331
58790W        W23951   7.302   4.349  12.951
58791W        W23952  33.592   8.063   5.041
58792W        W23953  44.254   1.840  13.081
58793W        W23954  11.683  25.650  12.416
58794W        W23955  30.145  41.129  10.216
58795W        W23956   6.467  12.780   2.402
58796W        W23957  37.010  23.034   0.582
58797W        W23958   2.709  22.596  12.551
58798W        W23959   7.741  36.408   5.035
58799W        W23960   4.853  33.621  14.362
58800W        W23961  38.984   0.424  11.155
58801W        W23962  40.897  36.795  12.814
58802W        W23963  21.085  27.719  13.076
58803W        W23964  26.623   4.380  12.523
58804W        W23965  26.917  13.274   4.631
58805W        W23966  34.021  44.022   2.089
58806W        W23967  17.280  12.654   3.382
58807W        W23968  12.774  29.708   1.433
58808W        W23969  30.860  13.714  13.343
58809W        W23970   7.696  14.618   1.415
58810W        W23971  24.561  13.517  12.065
58811W        W23972   5.723  11.255   0.317
58812W        W23973  36.486  17.356  14.748
58813W        W23974   9.729  35.014   2.518
58814W        W23975  19.775  40.129  11.446
58815W        W23976  21.599   3.715   0.255
58816W        W23977  37.567   3.311  12.483
58817W        W23978  22.966  26.232  13.122
58818W        W23979  17.599  37.891  14.283
58819W        W23980  26.520  23.739   4.080
58820W        W23981   9.202  27.153  10.703
58821W        W23982   2.028  34.548  11.064
58822W        W23983  29.417  14.300  11.138
58823W        W23984  26.925  34.043  12.977
58824W        W23985  33.922   6.767   0.177
58825W        W23986  26.617  38.151  12.730
58826W        W23987  35.945  34.431   0.930
58827W        W23988  39.754  43.784  11.154
58828W        W23989  42.853  32.841   2.987
58829W        W23990  25.855  26.522  12.337
58830W        W23991  31.768  30.432  13.282
58831W        W23992   7.162  30.488  10.953
58832W        W23993  16.705   1.426   1.458
58833W        W23994   3.283  31.029   3.591
58834W        W23995  12.100   8.697  11.665
58835W        W23996  22.575  14.699  12.297
58836W        W23997  31.836  44.928   1.609
58837W        W23998  33.033  36.575   0.430
58838W        W23999   9.858  24.208  11.125
58839W        W24000  44.507   7.259  11.496
58840W        W24001  18.137  36.081  11.074
58841W        W24002  42.809  44.363  14.266
58842W        W24003  16.836   0.049  11.619
58843W        W24004  11.149  14.281  10.796
58844W        W24005  32.161  24.436  14.032
58845W        W24006   9.372   7.079  10.989
58846W        W24007  29.430  12.359  11.134
58847W        W24008   6.927  26.639  14.808
58848W        W24009  11.249  10.195   2.528
58849W        W24010  32.065   3.820   0.513
58850W        W24011  31.005  40.278   1.273
58851W        W24012  27.915  21.032   4.081
58852W        W24013   6.495  16.243  12.011
58853W        W24014  22.082  44.537   4.130
58854W        W24015   0.834   8.750   4.598
58855W        W24016   6.763  42.740  12.432
58856W        W24017  33.984  20.343  13.993
58857W        W24018  30.679  24.140  14.880
58858W        W24019  42.457  34.522  10.838
58859W        W24020   9.282  34.947   3.114
58860W        W24021  18.798  32.943  13.919
58861W        W24022  16.375  23.919  12.945
58862W        W24023  20.162  35.817   0.847
58863W        W24024  27.416  22.986   1.230
58864W        W24025  39.066  28.057  14.277
58865W        W24026  31.132  25.056  11.726
58866W        W24027  21.183   0.471  14.445
58867W        W24028  33.889   3.998  12.455
58868W        W24029   7.318   0.832   4.179
58869W        W24030  28.126   7.933   0.157
58870W        W24031  17.166  38.690  12.488
58871W        W24032  19.139   8.898   1.200
58872W        W24033  11.904   1.112  12.205
58873W        W24034  17.316  37.668   0.746
58874W        W24035  17.031  41.922   4.975
58875W        W24036  21.975  20.700  14.113
58876W        W24037  27.283  44.204  13.513
58877W        W24038  29.095  28.946  10.646
58878W        W24039  16.619  17.316   3.733
58879W        W24040  27.293  12.355   0.015
58880W        W24041  11.247  29.236   0.874
58881W        W24042  34.847  26.528  12.494
58882W        W24043  16.794  44.335  13.848
58883W        W24044  42.308  29.250  12.516
58884W        W24045  42.477  17.822  10.720
58885W        W24046  35.371  37.206  14.307
58886W        W24047   6.591  40.894  13.359
58887W        W24048  29.696  35.777   2.335
58888W        W24049  11.649   2.383  12.988
58889W        W24050  44.319  19.121   3.227
58890W        W24051  26.402  26.513   2.145
58891W        W24052  22.134  15.888   4.829
58892W        W24053  38.740   1.562  11.593
58893W        W24054  29.087   2.694   0.941
58894W        W24055   7.106  22.680   3.726
58895W        W24056  30.135  44.803  14.559
58896W        W24057  16.121   2.340  11.977
58897W        W24058   7.642   9.734  11.593
58898W        W24059  13.647  13.921   2.387
58899W        W24060  33.463   3.201  12.912
58900W        W24061  24.147   2.638   3.823
58901W        W24062  26.557   2.984   3.372
58902W        W24063  19.159   7.428  12.166
58903W        W24064  26.716   8.825   0.898
58904W        W24065  29.634  32.378  11.910
58905W        W24066   5.260   4.955   4.824
58906W        W24067   9.089  36.797   1.420
58907W        W24068  14.626  37.540   3.720
58908W        W24069  23.920  20.805  12.949
58909W        W24070  39.435  44.976   2.855
58910W        W24071   9.204  43.161   4.746
58911W        W24072  22.029  43.300   0.255
58912W        W24073  10.364  19.986  10.743
58913W        W24074  28.558  35.151  14.990
58914W        W24075   1.004   0.761  13.493
58915W        W24076  36.686  23.878   5.019
58916W        W24077   1.030  26.670   0.903
58917W        W24078  25.217  39.873   1.277
58918W        W24079  39.025  24.470   0.496
58919W        W24080   4.830  40.150  14.754
58920W        W24081  13.859  14.160   0.118
58921W        W24082  23.649   3.891   1.371
58922W        W24083  42.612  42.290   2.103
58923W        W24084  29.248  31.545   4.895
58924W        W24085  22.677  42.991   3.221
58925W        W24086   1.866  11.784   0.466
58926W        W24087  13.610  15.293  14.286
58927W        W24088   4.662  37.995  12.410
58928W        W24089   4.936  30.946   5.189
58929W        W24090  10.807  21.827   3.119
58930W        W24091  35.884  40.256  14.019
58931W        W24092  44.874  43.805   2.219
58932W        W24093  15.460  11.199  14.268
58933W        W24094  16.819  13.492   1.430
58934W        W24095  36.791  22.128  12.233
58935W        W24096  43.536  21.247   1.319
58936W        W24097   3.788   3.829  13.256
58937W        W24098  27.578  22.677  13.615
58938W        W24099  34.171  40.090   5.058
58939W        W24100  38.523   5.255   2.349
58940W        W24101  30.756  42.455   1.464
58941W        W24102   1.451  44.898   4.620
58942W        W24103  15.349  37.417   4.040
58943W        W24104  19.798  38.349  14.038
58944W        W24105  19.664  37.835  13.405
58945W        W24106  37.386   0.902  12.164
58946W        W24107  16.368   4.501  12.472
58947W        W24108   1.345  16.754   3.849
58948W        W24109  21.463  29.139  14.852
58949W        W24110   1.279   5.458   0.807
58950W        W24111  27.583  14.578   4.490
58951W        W24112  35.595  33.944   4.558
58952W        W24113  15.106  42.194   1.967
58953W        W24114   6.894  41.740   4.302
58954W        W24115   3.737  37.410   0.010
58955W        W24116   1.306  11.888  14.370
58956W        W24117  34.344  22.476  13.663
58957W        W24118  24.497   3.174   3.819
58958W        W24119  40.481  14.156   3.724
58959W        W24120  39.526  44.503   3.663
58960W        W24121  29.714   1.899   0.326
58961W        W24122   2.434  19.489  14.221
58962W        W24123   9.666  33.714   9.878
58963W        W24124   8.257  39.988   1.180
58964W        W24125  10.963  38.022   1.350
58965W        W24126  19.225  15.589  11.648
58966W        W24127   8.951  27.722   9.754
58967W        W24128  17.999  31.465   4.415
58968W        W24129  36.395  13.640   3.988
58969W        W24130  23.691  22.660  12.138
58970W        W24131  23.559  16.283   1.149
58971W        W24132  43.321  41.639   1.257
58972W        W24133  16.164  43.586  11.147
58973W        W24134  38.035  12.389   2.614
58974W        W24135  37.543   3.331   1.299
58975W        W24136  18.470  14.844  14.323
58976W        W24137  26.077  36.298   1.629
58977W        W24138   1.978  44.666  12.924
58978W        W24139  34.115  35.825  10.574
58979W        W24140   7.022  38.515  11.202
58980W        W24141  29.516   1.681  11.996
58981W        W24142  30.768  12.369  13.549
58982W        W24143   8.591  16.823   4.402
58983W        W24144  42.946   4.124  10.727
58984W        W24145  34.887  44.832  11.482
58985W        W24146  42.400  21.461  13.546
58986W        W24147  30.442  16.243   1.723
58987W        W24148  42.019  30.925   2.394
58988W        W24149  22.995   4.907  13.741
58989W        W24150  28.704   0.713   0.990
58990W        W24151  17.294  39.461  11.811
58991W        W24152   8.772  17.666  13.490
58992W        W24153  25.254  28.134  12.166
58993W        W24154  26.520  25.679   3.330
58994W        W24155  28.285  38.929  11.672
58995W        W24156  39.900  38.666   1.643
58996W        W24157   8.304  33.274   4.804
58997W        W24158  23.936  31.792   4.579
58998W        W24159   4.925  19.253   2.894
58999W        W24160  44.475  21.284   1.249
59000W        W24161  33.083   9.412   0.834
59001W        W24162  29.972  34.617   2.736
59002W        W24163  34.082  38.999  12.834
59003W        W24164  36.029   0.769  12.348
59004W        W24165  26.883  20.636  12.069
59005W        W24166   0.910  41.059  12.548
59006W        W24167  43.389   7.737   0.608
59007W        W24168  41.438  20.167  14.811
59008W        W24169  24.465  41.519  14.279
59009W        W24170  35.636  43.000  11.202
59010W        W24171  32.202  33.567  14.495
59011W        W24172  29.439  36.136  10.141
59012W        W24173  41.962  17.310   0.913
59013W        W24174  10.378  20.252   1.833
59014W        W24175  33.142  43.609   2.046
59015W        W24176   7.272  36.971   0.712
59016W        W24177  17.113  17.615   0.222
59017W        W24178   7.934  25.495  11.043
59018W        W24179  32.101  32.412  10.709
59019W        W24180  39.030   2.721   2.583
59020W        W24181  28.656  37.457   2.713
59021W        W24182  13.689   6.880   1.966
59022W        W24183  44.090  34.987   1.689
59023W        W24184   5.634  22.693  12.462
59024W        W24185   2.016   5.883  12.048
59025W        W24186  27.724  40.117  12.720
59026W        W24187  39.366  37.784   1.659
59027W        W24188  39.461  36.323   2.676
59028W        W24189  43.775  22.967  11.493
59029W        W24190   3.325  24.416   3.500
59030W        W24191  34.430  11.815  12.075
59031W        W24192  43.953  26.520   4.706
59032W        W24193  32.402   9.367  10.916
59033W        W24194  22.959   2.475   0.490
59034W        W24195  39.564  28.132  11.293
59035W        W24196   0.271   2.380  13.462
59036W        W24197  37.497   4.650   0.808
59037W        W24198  24.113  42.246   1.827
59038W        W24199  29.510  12.839  13.468
59039W        W24200  12.313   7.946  11.160
59040W        W24201  28.021  18.068  10.949
59041W        W24202  15.831  33.629   1.829
59042W        W24203   4.042  10.900   0.860
59043W        W24204  38.345  14.106  14.803
59044W        W24205  39.779  17.554  12.424
59045W        W24206  33.593  16.303   3.195
59046W        W24207  41.803  12.394   0.757
59047W        W24208  38.021  38.378  14.489
59048W        W24209   0.383  16.506  12.787
59049W        W24210  18.110  31.563  13.609
59050W        W24211  43.863  13.495   0.666
59051W        W24212  16.583   0.810   0.164
59052W        W24213   8.696   2.871   0.357
59053W        W24214   6.188  36.974   3.991
59054W        W24215  39.852  39.010  12.903
59055W        W24216  11.760   0.792  11.220
59056W        W24217   1.687  22.039   2.180
59057W        W24218  15.340  22.305   2.361
59058W        W24219   1.186   7.881   3.867
59059W        W24220  25.101  14.468   4.946
59060W        W24221  26.150  26.577  11.867
59061W        W24222   8.339  16.476   0.717
59062W        W24223   4.326  25.473   0.696
59063W        W24224  44.184  14.759   0.797
59064W        W24225  11.255  28.526   0.326
59065W        W24226  38.583  44.294  11.395
59066W        W24227  11.173  43.274  14.908
59067W        W24228   2.212  27.593  10.809
59068W        W24229  30.895  13.323  10.713
59069W        W24230  23.032  33.588   4.215
59070W        W24231  40.282  30.567   3.180
59071W        W24232  16.139  35.976   0.772
59072W        W24233  29.159  42.736   4.662
59073W        W24234  34.466   0.848  12.454
59074W        W24235  28.602  30.391   4.389
59075W        W24236  32.364  17.298  12.900
59076W        W24237  26.730  13.127   0.967
59077W        W24238  23.227  34.248   3.728
59078W        W24239  10.309   9.223   3.180
59079W        W24240  43.478  21.664  10.655
59080W        W24241  38.866  11.520  10.682
59081W        W24242  20.134  15.030   4.416
59082W        W24243  34.375  37.790   5.197
59083W        W24244  12.184  39.766  10.429
59084W        W24245  17.579   5.794   0.362
59085W        W24246   1.964   2.734  12.888
59086W        W24247  13.564  28.985   3.757
59087W        W24248  29.057  18.377   0.941
59088W        W24249  24.563  39.435   2.131
59089W        W24250   3.880  17.566  11.245
59090W        W24251  40.927   0.961  10.662
59091W        W24252   4.167  38.384   2.662
59092W        W24253  20.110   6.249  13.756
59093W        W24254  25.254  41.836   4.952
59094W        W24255  36.369  26.028  12.966
59095W        W24256  27.435  44.587  13.175
59096W        W24257  30.206  14.082   0.740
59097W        W24258  39.915  30.484  11.190
59098W        W24259  41.801  44.724   5.035
59099W        W24260  17.807  43.404   1.789
59100W        W24261   7.498  25.445  10.678
59101W        W24262  40.513  11.369   1.266
59102W        W24263   7.204  27.010  14.063
59103W        W24264  25.445  22.479  12.241
59104W        W24265   2.805  24.290  12.876
59105W        W24266  10.917  42.954  14.265
59106W        W24267  38.684  34.587  12.821
59107W        W24268   0.199  14.299   3.269
59108W        W24269   8.255  27.160   1.685
59109W        W24270  36.010   9.603  11.006
59110W        W24271   6.270  24.547   3.403
59111W        W24272  25.558   3.441   0.433
59112W        W24273  33.120  40.473   2.097
59113W        W24274  20.321  42.052  12.528
59114W        W24275  22.748  19.301   4.176
59115W        W24276  41.471  21.798  13.241
59116W        W24277  14.400  16.217   4.255
59117W        W24278   0.610  11.850   1.854
59118W        W24279  40.909  12.782  12.010
59119W        W24280  14.312  10.687   3.827
59120W        W24281  10.690  34.969  14.312
59121W        W24282  42.359  31.339   2.378
59122W        W24283  43.960  26.991  11.466
59123W        W24284  22.771  25.614   1.207
59124W        W24285  42.398   6.672   4.709
59125W        W24286  33.441  38.057  11.081
59126W        W24287   0.679  22.718  12.554
59127W        W24288  24.694  38.511   3.213
59128W        W24289  43.978  33.455   1.695
59129W        W24290   4.523   0.585   4.810
59130W        W24291   1.309  44.660   1.733
59131W        W24292  33.607  34.383   3.618
59132W        W24293  29.225  39.008   4.752
59133W        W24294  16.057  32.966  14.392
59134W        W24295  31.062  13.208   0.481
59135W        W24296  18.056  27.570  13.457
59136W        W24297  40.916  14.883  14.003
59137W        W24298  22.726  37.718  12.572
59138W        W24299  36.529  23.265  12.072
59139W        W24300   3.248  18.597   0.905
59140W        W24301  20.142   9.946   3.586
59141W        W24302  13.590  28.056  13.790
59142W        W24303  36.938  34.992  13.616
59143W        W24304  37.790  33.807   4.112
59144W        W24305   4.392  33.449   3.855
59145W        W24306   1.362  31.857   0.669
59146W        W24307  42.297  23.535  14.004
59147W        W24308  23.223  17.339   0.769
59148W        W24309   9.093  14.735  12.343
59149W        W24310   0.476  32.421  11.493
59150W        W24311  28.865  38.988   0.474
59151W        W24312  24.515  10.129  12.975
59152W        W24313  36.583  22.959  11.167
59153W        W24314   0.796   4.541   3.378
59154W        W24315   4.219  19.763  12.182
59155W        W24316   0.584  27.514  11.698
59156W        W24317  38.559  14.789  13.402
59157W        W24318  38.548   6.807  12.064
59158W        W24319  44.677   0.776   0.146
59159W        W24320  42.960  37.669   2.883
59160W        W24321  18.571   4.144  12.461
59161W        W24322  17.844  30.572  13.430
59162W        W24323   4.457  42.894  14.349
59163W        W24324  44.696   7.368  12.996
59164W        W24325  27.133  29.977  13.583
59165W        W24326  14.676   9.810  10.740
59166W        W24327  44.534   5.369   0.262
59167W        W24328  38.625  40.913  12.873
59168W        W24329   9.321  15.199  12.464
59169W        W24330  14.131  35.828  12.870
59170W        W24331  18.553  12.365  13.422
59171W        W24332   6.228  16.561   4.835
59172W        W24333  10.900  27.602  12.091
59173W        W24334  34.461  40.488   5.334
59174W        W24335  12.937   9.844   0.710
59175W        W24336  25.676  19.809  14.433
59176W        W24337  16.696   3.509  14.476
59177W        W24338  20.997  19.587   2.366
59178W        W24339  28.638   3.703   2.859
59179W        W24340  18.932  35.020   3.817
59180W        W24341  35.067  34.896  12.051
59181W        W24342   7.263  24.627   0.435
59182W        W24343   0.793  39.413   0.915
59183W        W24344   5.761   3.809   3.549
59184W        W24345  11.624  27.459   2.821
59185W        W24346   2.476  17.032   3.198
59186W        W24347  40.325  12.607  12.923
59187W        W24348  27.357  15.767  13.411
59188W        W24349  25.325  19.067  14.473
59189W        W24350  44.651  36.325  13.166
59190W        W24351  33.088  24.158   4.468
59191W        W24352   5.560  42.295  12.047
59192W        W24353   9.331  22.061   2.117
59193W        W24354  24.745   1.291   5.068
59194W        W24355  23.796  30.510  13.763
59195W        W24356  37.912  15.824  13.370
59196W        W24357  44.807  21.921  11.584
59197W        W24358  21.557  36.037   4.647
59198W        W24359  23.975  26.069   4.762
59199W        W24360   6.779  40.982   4.596
59200W        W24361  32.490  44.497  11.504
59201W        W24362  18.855   8.807  13.754
59202W        W24363  44.805   4.409  12.484
59203W        W24364  42.265  27.459   1.403
59204W        W24365  39.900  27.022  13.410
59205W        W24366  26.022  14.644   4.682
59206W        W24367   3.714  18.142  10.654
59207W        W24368  30.572   1.175  14.391
59208W        W24369  39.651   6.303   2.874
59209W        W24370   0.307  42.855  11.313
59210W        W24371   3.693  38.799   9.934
59211W        W24372  11.590  30.232   5.048
59212W        W24373  20.595  43.504  12.551
59213W        W24374   3.425   2.723  10.682
59214W        W24375   5.886  23.080   1.299
59215W        W24376  44.537   1.298   0.221
59216W        W24377  31.991  16.445   4.842
59217W        W24378  44.749  37.552  13.333
59218W        W24379   8.186   9.431  12.528
59219W        W24380   1.398  29.571   3.701
59220W        W24381  32.684  24.209   4.839
59221W        W24382  30.314  41.868  13.013
59222W        W24383  23.536  17.116   3.381
59223W        W24384  31.136  32.099   4.532
59224W        W24385  39.865  29.655  12.537
59225W        W24386  13.782  33.177  11.122
59226W        W24387   8.938  28.610   4.757
59227W        W24388  32.042  15.552   0.851
59228W        W24389  17.130  34.559   3.749
59229W        W24390  26.088  14.347  11.102
59230W        W24391  43.879  30.652  10.658
59231W        W24392   1.511  36.850   1.790
59232W        W24393  41.224  25.707  13.438
59233W        W24394  19.050  13.776  12.060
59234W        W24395  32.723  10.034  14.958
59235W        W24396  21.554  32.369  12.912
59236W        W24397  10.828  25.198   1.261
59237W        W24398  27.902  18.587   3.708
59238W        W24399   8.130   2.341   0.810
59239W        W24400  36.665   7.166  14.939
59240W        W24401   2.466  34.357  13.558
59241W        W24402  25.475  38.335   2.520
59242W        W24403  40.540  38.513   2.761
59243W        W24404   5.878  31.338  14.899
59244W        W24405  23.129  15.127   3.631
59245W        W24406  11.458   9.284   2.409
59246W        W24407   6.294  36.910  11.864
59247W        W24408  12.129  30.695  14.831
59248W        W24409  24.557  13.843   0.003
59249W        W24410  19.485   3.941  14.481
59250W        W24411  31.640   5.505  14.478
59251W        W24412  27.406  25.523  13.910
59252W        W24413  15.694  34.546  12.893
59253W        W24414  43.760   7.715   1.644
59254W        W24415   1.663   7.320  12.030
59255W        W24416   7.633  35.584  14.894
59256W        W24417  27.123  28.904   1.249
59257W        W24418  26.298  37.538   1.390
59258W        W24419   8.224  40.293   2.413
59259W        W24420  38.970  18.662   4.244
59260W        W24421  37.610  38.073   1.645
59261W        W24422  20.183  39.318  10.156
59262W        W24423  20.172  40.113   1.555
59263W        W24424  13.624   6.249  12.023
59264W        W24425  20.591   2.293  13.699
59265W        W24426  21.635  36.836  13.031
59266W        W24427   9.438  33.024   2.089
59267W        W24428  25.851  14.434   3.442
59268W        W24429  18.891  39.017  10.489
59269W        W24430  14.243  13.303   1.188
59270W        W24431  21.139  40.297   1.178
59271W        W24432  20.494   8.575  12.327
59272W        W24433  28.136  39.132  12.997
59273W        W24434  27.839  44.430  12.887
59274W        W24435  13.283  30.640  10.407
59275W        W24436  35.384  40.836  14.265
59276W        W24437   3.675  31.202  14.391
59277W        W24438  21.534   1.332   4.192
59278W        W24439  19.759  40.927  13.877
59279W        W24440  26.971  17.718   4.019
59280W        W24441   9.358   2.804  14.114
59281W        W24442   9.823  15.214  14.338
59282W        W24443  22.224  16.810   3.280
59283W        W24444  23.168  37.878   2.221
59284W        W24445  10.718  28.449   4.618
59285W        W24446   3.860  23.268   2.591
59286W        W24447  29.468   7.275  11.353
59287W        W24448  36.933  41.414  11.749
59288W        W24449  40.842  16.058   3.282
59289W        W24450  26.230  44.474  12.563
59290W        W24451   2.016   9.228   5.110
59291W        W24452  30.679  41.905   1.846
59292W        W24453   0.957  39.922  11.982
59293W        W24454  11.739  29.531   1.050
59294W        W24455  30.814   3.399   0.419
59295W        W24456   0.500  24.175  13.876
59296W        W24457   3.855   5.906  12.407
59297W        W24458   9.655   1.899   4.887
59298W        W24459  19.535   1.970  14.492
59299W        W24460  23.795  36.809   3.499
59300W        W24461   3.797   9.245   0.539
59301W        W24462  12.294  32.868   0.644
59302W        W24463  30.138  41.932  11.492
59303W        W24464  18.012  32.139  12.457
59304W        W24465  19.727  10.106   2.524
59305W        W24466  40.838  29.910   2.122
59306W        W24467  14.322  32.823  14.436
59307W        W24468   9.191  33.484  14.259
59308W        W24469  16.308  37.128  10.958
59309W        W24470  35.027  30.512  10.706
59310W        W24471  37.600  24.188   0.828
59311W        W24472   2.300  21.055  14.828
59312W        W24473  27.174  44.597   0.854
59313W        W24474  40.598  11.904  14.824
59314W        W24475  19.740  44.246  14.815
59315W        W24476  44.409  13.559  13.439
59316W        W24477  42.119  38.693   0.939
59317W        W24478  43.336  19.433  11.968
59318W        W24479  42.971   2.268  14.927
59319W        W24480  15.628  23.703  14.184
59320W        W24481  12.673  35.118   0.068
59321W        W24482  38.435  24.531   3.522
59322W        W24483  13.994  29.656  11.085
59323W        W24484   5.966   2.243  10.396
59324W        W24485  26.083   2.848  12.631
59325W        W24486  13.632   5.268   4.709
59326W        W24487  38.333  38.536   1.323
59327W        W24488   2.796  19.125   3.841
59328W        W24489  17.136  43.185  13.954
59329W        W24490   0.544  30.141  13.362
59330W        W24491  40.836  22.684   1.423
59331W        W24492  33.524  30.517   4.637
59332W        W24493  29.653  44.238   0.030
59333W        W24494  23.819  33.142  13.960
59334W        W24495  10.329   1.671  12.047
59335W        W24496  23.102   2.781  11.175
59336W        W24497  11.637  37.005  12.386
59337W        W24498   1.813   0.524  14.486
59338W        W24499  40.505  28.881  12.731
59339W        W24500  39.005  22.311   1.383
59340W        W24501   8.865  32.972  10.729
59341W        W24502  33.518  24.670  13.487
59342W        W24503  16.526  43.854   2.820
59343W        W24504   5.373  44.577   4.001
59344W        W24505  39.070  31.447  14.390
59345W        W24506  17.261   7.926  13.984
59346W        W24507  13.082  25.484  11.204
59347W        W24508  44.900  19.362  14.326
59348W        W24509  14.816   7.262  14.174
59349W        W24510   2.311  22.449  12.912
59350W        W24511  43.066  23.519  12.339
59351W        W24512   2.325  11.827  12.017
59352W        W24513  27.660  22.970  10.608
59353W        W24514  22.067  21.118   1.243
59354W        W24515   7.372   0.738   0.979
59355W        W24516  14.434  12.944  10.266
59356W        W24517  28.705  38.625   3.963
59357W        W24518  44.776  25.085  14.429
59358W        W24519  34.333  24.552  11.571
59359W        W24520  12.118  14.814  13.120
59360W        W24521  18.208   1.042  12.003
59361W        W24522  44.917  41.956  11.990
59362W        W24523  21.037  25.578   1.840
59363W        W24524  19.199  14.437  12.517
59364W        W24525  12.763  14.147  11.568
59365W        W24526  30.642  14.744  13.420
59366W        W24527  40.371  41.911  13.778
59367W        W24528   1.759  36.284   1.747
59368W        W24529  31.422   4.987  12.134
59369W        W24530  27.127  23.437   2.401
59370W        W24531  27.486  21.500  11.674
59371W        W24532   9.534  43.406  13.412
59372W        W24533  12.209  11.958  12.997
59373W        W24534  27.523  14.412  12.473
59374W        W24535  34.494  41.465  14.323
59375W        W24536  43.390  10.600  11.175
59376W        W24537  20.518  17.275  11.112
59377W        W24538  20.014  23.028  10.674
59378W        W24539   5.416  38.761   1.671
59379W        W24540  36.397  31.675  14.380
59380W        W24541  22.005  28.581   1.713
59381W        W24542  37.200  31.144   5.305
59382W        W24543  23.225  24.643   9.858
59383W        W24544  36.805  13.820  11.506
59384W        W24545   1.471  12.181  11.962
59385W        W24546  27.639  10.380   4.155
59386W        W24547   6.319  38.308  10.703
59387W        W24548  33.585  25.052   2.809
59388W        W24549  42.358  25.354   3.067
59389W        W24550  25.549  16.549   0.708
59390W        W24551  25.231   9.508   1.750
59391W        W24552  20.777   6.826  12.714
59392W        W24553   5.746  25.025  13.374
59393W        W24554  10.317  35.814   1.275
59394W        W24555  21.591  42.851  14.794
59395W        W24556   3.408  30.154   4.243
59396W        W24557   4.212  24.640  11.518
59397W        W24558  42.298  38.017  10.935
59398W        W24559   1.399  35.338  13.406
59399W        W24560  26.426  21.819   4.092
59400W        W24561  33.355  40.949   4.700
59401W        W24562  19.481  35.899   2.876
59402W        W24563  31.444  12.138  12.355
59403W        W24564   8.803   4.286   2.824
59404W        W24565   7.165  24.911   3.337
59405W        W24566   1.160  28.532  11.605
59406W        W24567  15.950  22.186  12.587
59407W        W24568   3.194   1.244  14.377
59408W        W24569   0.447  13.697  12.581
59409W        W24570   7.248   1.325   3.443
59410W        W24571  29.511  21.981   4.194
59411W        W24572  37.822  22.886  12.463
59412W        W24573  19.170  43.445   4.014
59413W        W24574  10.027  39.915  14.551
59414W        W24575  14.142  39.996  11.804
59415W        W24576  41.264  19.324  13.390
59416W        W24577  26.747   6.175  11.063
59417W        W24578   1.102  10.771  12.563
59418W        W24579  29.515  38.366   2.226
59419W        W24580  25.801  18.273  14.173
59420W        W24581  42.701  44.420   4.764
59421W        W24582  37.123  15.895   1.705
59422W        W24583  12.855   4.198   0.257
59423W        W24584   5.359   0.844   4.942
59424W        W24585   9.874  40.464  13.325
59425W        W24586  34.614  30.518  11.194
59426W        W24587  20.375   0.462  11.029
59427W        W24588  43.808  36.065  12.423
59428W        W24589  21.044  43.187   3.389
59429W        W24590  31.687  35.435  11.774
59430W        W24591  25.235   8.243  10.427
59431W        W24592  33.885  11.356  10.529
59432W        W24593  20.701  37.396  13.421
59433W        W24594  38.014  22.930  11.965
59434W        W24595   7.101  32.666   0.872
59435W        W24596  17.689  43.088  13.440
59436W        W24597   6.447   7.161   2.116
59437W        W24598  21.254   9.160  12.609
59438W        W24599  15.558  29.924   0.801
59439W        W24600  36.285  29.088  13.048
59440W        W24601  19.171  22.457  12.362
59441W        W24602  37.000   8.260  10.694
59442W        W24603  41.975  20.478   4.531
59443W        W24604  24.669  24.185  12.079
59444W        W24605  19.363  27.072  13.311
59445W        W24606  14.397  31.413   4.442
59446W        W24607   4.883  30.242  10.274
59447W        W24608  14.898  23.393   1.882
59448W        W24609  26.538  34.330  14.142
59449W        W24610  43.012   2.567   2.442
59450W        W24611  20.123   5.248  13.886
59451W        W24612  29.018   2.267   0.029
59452W        W24613  22.074  41.394   3.241
59453W        W24614   5.682  35.360  14.995
59454W        W24615   3.678   9.777   0.002
59455W        W24616  21.104   3.354   0.926
59456W        W24617  17.091   1.043  11.458
59457W        W24618  20.229  44.530  11.949
59458W        W24619  16.980  42.460   4.494
59459W        W24620  24.262   6.487  14.299
59460W        W24621  35.453  30.615  11.126
59461W        W24622   7.542  24.073  14.190
59462W        W24623  44.352  35.931   3.767
59463W        W24624  23.474  19.288  12.615
59464W        W24625  40.901  20.273   1.400
59465W        W24626  39.071  36.046  12.594
59466W        W24627   4.424  29.979   2.156
59467W        W24628  13.178  10.905   2.764
59468W        W24629  34.558  33.462   1.908
59469W        W24630   5.151   6.640   2.366
59470W        W24631  17.557  23.005   1.338
59471W        W24632   2.536   8.916   3.523
59472W        W24633   9.404  27.890  12.872
59473W        W24634  16.984  38.631   2.029
59474W        W24635  15.661  13.947   1.747
59475W        W24636   0.038  33.830   9.572
59476W        W24637  19.166  18.594   5.041
59477W        W24638  17.745  28.526   4.146
59478W        W24639   9.436   9.814   1.775
59479W        W24640  26.889  25.132  13.419
59480W        W24641  32.576  38.511  13.158
59481W        W24642  32.035  38.457  13.145
59482W        W24643   2.247  16.484  11.332
59483W        W24644  27.459  40.006  11.746
59484W        W24645  14.679  19.591   1.863
59485W        W24646   9.411  13.408  12.025
59486W        W24647  11.625  41.833  10.662
59487W        W24648  40.900  34.600   3.735
59488W        W24649  33.065  24.035   0.230
59489W        W24650  32.166   6.928   2.189
59490W        W24651  11.772  20.630  11.877
59491W        W24652  14.680  28.559  13.341
59492W        W24653  43.030  40.592  14.308
59493W        W24654  41.733  33.923  13.373
59494W        W24655  28.056   0.828  10.740
59495W        W24656  44.822   0.510  13.318
59496W        W24657  21.181   8.221  11.636
59497W        W24658  32.155  13.467  10.792
59498W        W24659  43.356  16.555   3.700
59499W        W24660  19.191  13.586   4.201
59500W        W24661   0.823   9.675  14.024
59501W        W24662  36.429  38.332   4.144
59502W        W24663  21.522  31.120   1.037
59503W        W24664  20.085  23.699   3.204
59504W        W24665  39.923  44.758  12.373
59505W        W24666  11.855  16.791  12.043
59506W        W24667  40.359   3.803  11.247
59507W        W24668  15.329  32.066  13.117
59508W        W24669  18.867  18.031  11.984
59509W        W24670  23.211   0.700   0.819
59510W        W24671  27.471  36.018   1.435
59511W        W24672  20.603   7.407   1.176
59512W        W24673  41.391  41.313   2.180
59513W        W24674  30.831  32.121  10.515
59514W        W24675  41.080  25.761   1.196
59515W        W24676  21.767   7.430  11.505
59516W        W24677  44.357  38.889   4.983
59517W        W24678  16.108  26.011   1.266
59518W        W24679   9.620  13.049   3.132
59519W        W24680  16.372   0.976  12.009
59520W        W24681  16.545  22.429   2.312
59521W        W24682  42.550   2.888   1.779
59522W        W24683   3.104   0.146  13.749
59523W        W24684   9.590  24.648  12.337
59524W        W24685  42.665  29.639  14.469
59525W        W24686  31.025   0.687   0.887
59526W        W24687   7.193  40.007   2.882
59527W        W24688  11.621  12.733   1.327
59528W        W24689   2.394  26.042  10.067
59529W        W24690  39.391  29.023   1.161
59530W        W24691  25.678  44.201   4.012
59531W        W24692   0.441  15.061   0.332
59532W        W24693  15.246  12.603  10.861
59533W        W24694  30.494  25.955   0.231
59534W        W24695  17.854  15.329   3.186
59535W        W24696  34.563   8.878   4.137
59536W        W24697  13.167  20.174   4.684
59537W        W24698  19.014  36.940  13.859
59538W        W24699  38.848  33.806  13.371
59539W        W24700   1.531   3.861   3.352
59540W        W24701  44.484  42.255  12.417
59541W        W24702  35.322  43.296   1.406
59542W        W24703  11.768  33.093   0.337
59543W        W24704  24.533  16.834   0.792
59544W        W24705  41.325   0.269   0.454
59545W        W24706  15.544  38.890  11.958
59546W        W24707  41.384  27.078  12.321
59547W        W24708  35.554   3.310  12.466
59548W        W24709  31.425  29.140   2.528
59549W        W24710  24.080  35.452  11.610
59550W        W24711  21.658  26.165   9.881
59551W        W24712  35.497   1.502  12.810
59552W        W24713   0.578   3.047  11.176
59553W        W24714  38.995  32.277  11.625
59554W        W24715  36.033  10.833   1.650
59555W        W24716   9.461  42.322  10.673
59556W        W24717  43.983  14.755  13.910
59557W        W24718  32.273  27.624   3.155
59558W        W24719   1.871  34.397   1.274
59559W        W24720  15.253  38.164  14.799
59560W        W24721  16.809   4.773  13.780
59561W        W24722  29.992  31.104  12.685
59562W        W24723   2.372   4.999  11.175
59563W        W24724  43.528   2.931   3.297
59564W        W24725  10.886  40.785   3.152
59565W        W24726  15.581  23.535   1.455
59566W        W24727   5.855  24.602  14.496
59567W        W24728  16.891  44.037  13.423
59568W        W24729  28.155  12.831  11.184
59569W        W24730  22.008   9.176   4.637
59570W        W24731   5.307  11.734   1.706
59571W        W24732  16.566  15.261   2.630
59572W        W24733  27.933   6.127  13.937
59573W        W24734   0.720  18.851  14.255
59574W        W24735  43.423  16.625   2.816
59575W        W24736  35.005   2.286  14.123
59576W        W24737  30.214  41.760   2.798
59577W        W24738  12.766  23.081   4.106
59578W        W24739  42.659  17.537  11.169
59579W        W24740  34.330  19.981  12.976
59580W        W24741  16.572  34.599  13.488
59581W        W24742  16.775   5.309  14.426
59582W        W24743  21.834  12.622   3.775
59583W        W24744  36.185   6.800   3.230
59584W        W24745  38.437  33.862  14.943
59585W        W24746  36.201   5.204  14.324
59586W        W24747  32.698  17.628   0.357
59587W        W24748  35.336  44.285   4.516
59588W        W24749  31.712  41.538   0.374
59589W        W24750  17.326  16.817   0.791
59590W        W24751  10.281  16.097  13.565
59591W        W24752  28.353  21.583  12.075
59592W        W24753   7.917  19.103  11.565
59593W        W24754   0.216  21.263  10.629
59594W        W24755  19.522  36.007  13.906
59595W        W24756   7.698  13.996  13.570
59596W        W24757  40.991  44.400   0.979
59597W        W24758  34.180  32.841   4.000
59598W        W24759  38.623  37.688  11.302
59599W        W24760   4.244  22.302   0.145
59600W        W24761   5.705  23.505   4.601
59601W        W24762  12.409  33.316  12.885
59602W        W24763   5.478  17.164  10.718
59603W        W24764   3.367  39.286  11.840
59604W        W24765  14.423  18.334   4.654
59605W        W24766  19.768  20.672   1.485
59606W        W24767  18.139  34.536  11.170
59607W        W24768  30.054   0.280  13.244
59608W        W24769  23.186   8.701   3.340
59609W        W24770  19.181   9.831  11.662
59610W        W24771   8.296   5.441  10.732
59611W        W24772   4.362   5.459  13.922
59612W        W24773  15.650  43.492  12.605
59613W        W24774  18.654  30.420   3.849
59614W        W24775  37.128  37.966   1.269
59615W        W24776  38.608  26.479  11.939
59616W        W24777  12.620   7.901   3.179
59617W        W24778  27.157  21.802  14.359
59618W        W24779  33.920  21.708   1.352
59619W        W24780   6.723  32.557   4.157
59620W        W24781  14.312  44.975   0.015
59621W        W24782   8.834  33.407  10.439
59622W        W24783  32.335  43.556   2.148
59623W        W24784  13.861  11.503  13.543
59624W        W24785  14.051  28.969   0.207
59625W        W24786  37.895   1.299   1.262
59626W        W24787   0.484  27.901   3.436
59627W        W24788  26.093   2.215   2.434
59628W        W24789  15.896  30.413  14.429
59629W        W24790  29.610   5.162  12.137
59630W        W24791  35.776   1.387   2.088
59631W        W24792   3.727   0.424  11.222
59632W        W24793  30.147  44.793   2.211
59633W        W24794  31.511   7.298   1.485
59634W        W24795  38.062  23.847   2.880
59635W        W24796  35.037  27.584   3.365
59636W        W24797  24.005   0.980   4.200
59637W        W24798   8.651  19.003   2.595
59638W        W24799  30.626  40.848  10.206
59639W        W24800   8.684  31.589   2.203
59640W        W24801  11.045  18.579  14.864
59641W        W24802  39.002  15.708   0.848
59642W        W24803  27.483  33.901   4.422
59643W        W24804  37.856  44.077  13.086
59644W        W24805   6.333  32.524  11.185
59645W        W24806   5.869  24.590  10.678
59646W        W24807  42.522  18.063  12.998
59647W        W24808  38.030  30.473   3.186
59648W        W24809   9.781  28.103   2.901
59649W        W24810  17.858  35.700  13.296
59650W        W24811   8.406  36.411  12.502
59651W        W24812  43.860  34.596  11.032
59652W        W24813  12.142  14.698  10.757
59653W        W24814  35.415  14.842  14.152
59654W        W24815   4.731  17.593   1.929
59655W        W24816   8.509  44.285   4.159
59656W        W24817  24.223  23.896  12.128
59657W        W24818  33.556   9.877   1.283
59658W        W24819  11.426  25.451  11.617
59659W        W24820  42.319  35.950  10.467
59660W        W24821  10.900  10.576  12.068
59661W        W24822  44.991   9.898  11.483
59662W        W24823  18.592  14.783   0.448
59663W        W24824   9.688  25.279   0.515
59664W        W24825  36.784  41.573   4.007
59665W        W24826   3.380  37.026  10.489
59666W        W24827  26.400  21.603   1.380
59667W        W24828  30.082  44.736   4.522
59668W        W24829  15.295  42.549   0.292
59669W        W24830  24.547   3.365  13.155
59670W        W24831  27.552  26.071  10.725
59671W        W24832   7.259  29.630  10.883
59672W        W24833  13.602  37.766  12.182
59673W        W24834  37.927  22.736  11.485
59674W        W24835  20.007   6.204  12.399
59675W        W24836   2.342   1.588  14.883
59676W        W24837  10.921  22.992  13.468
59677W        W24838  32.127   8.176  11.713
59678W        W24839  25.071   8.740  11.622
59679W        W24840  19.947  41.412  13.910
59680W        W24841  42.872  25.954  12.467
59681W        W24842  40.072  17.058  11.660
59682W        W24843  15.869   5.388   4.444
59683W        W24844   3.434  44.789   4.176
59684W        W24845   7.785  12.801   3.292
59685W        W24846  41.950  24.436  12.583
59686W        W24847  15.892  37.702   5.083
59687W        W24848   3.401  12.348   0.930
59688W        W24849  15.797  24.616   4.285
59689W        W24850   9.432   3.814  14.352
59690W        W24851  38.442  42.800  11.593
59691W        W24852   9.759  20.409   3.969
59692W        W24853  42.478   8.747  11.396
59693W        W24854  21.272  24.983  12.971
59694W        W24855  13.879  13.528  10.676
59695W        W24856  12.619  26.592  10.795
59696W        W24857  36.395  14.800   2.512
59697W        W24858  11.283   5.422   3.937
59698W        W24859   4.917  27.491   2.144
59699W        W24860   9.822   6.848   1.764
59700W        W24861  13.284  37.236   2.867
59701W        W24862  24.540   3.323  14.505
59702W        W24863  14.361  37.023  14.040
59703W        W24864  25.488  41.752  10.633
59704W        W24865  12.287  44.765   1.664
59705W        W24866  23.477  25.764  11.480
59706W        W24867  40.686  41.867   1.037
59707W        W24868   4.165  10.863   1.787
59708W        W24869  36.518  28.171  13.166
59709W        W24870  28.226  22.248   4.462
59710W        W24871  34.596  26.059  12.455
59711W        W24872  30.674  44.171   4.225
59712W        W24873  36.223  16.039  10.336
59713W        W24874  29.022  38.201  13.886
59714W        W24875  11.796   6.698   1.542
59715W        W24876   3.855  26.097   3.360
59716W        W24877  22.252  16.658   4.163
59717W        W24878   8.830  24.777   0.226
59718W        W24879  19.603  25.115  13.349
59719W        W24880  40.494  23.174   4.545
59720W        W24881  29.094  13.121  13.685
59721W        W24882  12.906  39.351  12.888
59722W        W24883  38.524  33.803  12.176
59723W        W24884  31.034   2.393  13.973
59724W        W24885  30.462  36.482  10.802
59725W        W24886   7.970  38.927   9.971
59726W        W24887  35.215  20.318   4.064
59727W        W24888  43.278  40.341   3.325
59728W        W24889   1.890  40.306  12.628
59729W        W24890  15.797  37.992  11.132
59730W        W24891   7.162  23.074  13.082
59731W        W24892  23.566   8.608   0.847
59732W        W24893  26.123  44.992  13.423
59733W        W24894  27.985  20.267   0.330
59734W        W24895  21.552  14.553  12.107
59735W        W24896   4.694  19.138   1.537
59736W        W24897  24.986   6.690   4.153
59737W        W24898  38.507  35.321   3.669
59738W        W24899   2.273  13.869  12.829
59739W        W24900  19.038  15.694  14.491
59740W        W24901   6.728  40.894  10.702
59741W        W24902  19.501  34.036   1.886
59742W        W24903  10.776  23.655  14.091
59743W        W24904   7.372  31.421   3.743
59744W        W24905  20.187  26.994   0.661
59745W        W24906  20.773   4.832  11.437
59746W        W24907  12.401  40.212  10.637
59747W        W24908  12.163  18.323   1.784
59748W        W24909   0.893   2.394   2.776
59749W        W24910  30.262  25.143   2.750
59750W        W24911  19.076   6.553   1.403
59751W        W24912  12.104  30.145   3.625
59752W        W24913  43.265   6.819   0.141
59753W        W24914   2.239  11.848  10.715
59754W        W24915  19.498  37.139  12.939
59755W        W24916  25.079  43.048  11.161
59756W        W24917  12.572  32.936  11.983
59757W        W24918  32.554   0.019   0.882
59758W        W24919  41.393  13.423   1.705
59759W        W24920  22.176   7.335  14.753
59760W        W24921  12.746  31.751   4.954
59761W        W24922  24.124  25.166  11.270
59762W        W24923  43.302  32.380  12.294
59763W        W24924  40.622  34.064  12.545
59764W        W24925  18.609  34.671   4.137
59765W        W24926  24.729  36.895   0.024
59766W        W24927   2.129   5.335   2.379
59767W        W24928  28.011   4.990   3.707
59768W        W24929  13.375  38.174   1.845
59769W        W24930  17.613  19.162  12.332
59770W        W24931  34.599  33.539  12.580
59771W        W24932  21.954  16.731  11.389
59772W        W24933  30.938  16.120  13.468
59773W        W24934  35.938  30.897  13.379
59774W        W24935   3.307  31.638  14.930
59775W        W24936  37.423  38.637   4.944
59776W        W24937  41.969  26.759   3.178
59777W        W24938  30.500  44.985  12.804
59778W        W24939   1.938  28.106   3.215
59779W        W24940  23.641   1.945   4.892
59780W        W24941  42.009  21.012  12.549
59781W        W24942  29.342  43.142  11.072
59782W        W24943   7.374   0.828  14.978
59783W        W24944  12.730  10.573   1.876
59784W        W24945  13.233  24.076  14.148
59785W        W24946  34.695  23.296   3.700
59786W        W24947   3.373  16.125  12.336
59787W        W24948   2.430  21.242   3.052
59788W        W24949  17.671  26.444   1.154
59789W        W24950  10.583  12.180   1.760
59790W        W24951  36.048  35.059  11.981
59791W        W24952  37.144   8.311  11.504
59792W        W24953  25.727  41.725  14.590
59793W        W24954  19.649  40.915   0.830
59794W        W24955  34.390  36.278  13.100
59795W        W24956  41.099   6.020  12.485
59796W        W24957  23.639  34.843   0.932
59797W        W24958  44.418  40.035   1.454
59798W        W24959   0.035  43.775  13.985
59799W        W24960  41.938  13.542  11.131
59800W        W24961  34.633  21.767  12.083
59801W        W24962   2.532  41.740  14.347
59802W        W24963  32.465   9.804   4.092
59803W        W24964  15.566   4.688   0.467
59804W        W24965  18.574  28.051   4.100
59805W        W24966  14.563  22.972   1.000
59806W        W24967  24.406   1.244  13.031
59807W        W24968   5.548   4.403   1.999
59808W        W24969   4.748  37.908  11.115
59809W        W24970   8.676  38.545  10.894
59810W        W24971   7.854  11.824   1.437
59811W        W24972   6.450  15.962  10.678
59812W        W24973  15.303  33.925   3.631
59813W        W24974  30.458  16.316  13.553
59814W        W24975   4.507  12.244   4.864
59815W        W24976   8.686  24.572  10.317
59816W        W24977  32.883   2.900  13.372
59817W        W24978  35.176  21.810  11.041
59818W        W24979  44.339  31.641   2.420
59819W        W24980  35.716  43.504   1.716
59820W        W24981  40.883   4.300  13.605
59821W        W24982  21.038  30.055  14.987
59822W        W24983  18.881  37.067   3.648
59823W        W24984  32.042   5.601  13.435
59824W        W24985  33.460  26.637   1.403
59825W        W24986   3.255  43.993  11.578
59826W        W24987   6.884  33.505   4.010
59827W        W24988  16.499   1.363  14.265
59828W        W24989  16.891  40.425   2.745
59829W        W24990  21.727  10.042  10.426
59830W        W24991   4.242  34.160   2.657
59831W        W24992   1.632  37.366  14.886
59832W        W24993  17.277  44.269   4.534
59833W        W24994  38.821   4.453  14.606
59834W        W24995  14.710  14.187   0.526
59835W        W24996  39.267  21.229   5.135
59836W        W24997  31.386   7.740  14.948
59837W        W24998  10.629  37.849  14.351
59838W        W24999   4.897  21.226   2.847
59839W        W25000  25.045   5.703  14.970
59840W        W25001  23.316  27.688  13.410
59841W        W25002  19.946  19.336  10.571
59842W        W25003   0.437   8.786   1.930
59843W        W25004   7.808   3.015   4.175
59844W        W25005  23.509  26.440   0.150
59845W        W25006   9.791  13.335   3.541
59846W        W25007  25.701  39.516   3.196
59847W        W25008  37.094  27.688   4.270
59848W        W25009  13.595  11.022   3.092
59849W        W25010   4.205   5.700   1.819
59850W        W25011  21.349  12.099  11.955
59851W        W25012  42.455  14.843  13.511
59852W        W25013  15.656  17.263   5.238
59853W        W25014   0.730  43.933   0.841
59854W        W25015  11.110  39.595  13.390
59855W        W25016  26.601  29.753  10.604
59856W        W25017  25.968  39.320   0.187
59857W        W25018  26.125  21.672   0.932
59858W        W25019  32.745  40.591  10.387
59859W        W25020  22.626  22.531   2.447
59860W        W25021  15.641  38.702   3.213
59861W        W25022  26.170  15.458   4.440
59862W        W25023  23.244  37.826   3.775
59863W        W25024  19.370  40.670   4.723
59864W        W25025  38.606  21.246   1.819
59865W        W25026  40.920   2.049   3.642
59866W        W25027   4.306  32.910  11.595
59867W        W25028  37.361  42.333  11.132
59868W        W25029   8.350  16.621  13.842
59869W        W25030   6.939  34.031  11.444
59870W        W25031   1.492  11.760   4.540
59871W        W25032  32.005   4.838   2.498
59872W        W25033  34.420  24.523  10.675
59873W        W25034  39.482   5.213   2.670
59874W        W25035  25.206  22.157  11.657
59875W        W25036  33.342   3.248   2.083
59876W        W25037   4.131  19.368  10.319
59877W        W25038   7.326  14.992   1.496
59878W        W25039  24.753  26.665  11.546
59879W        W25040  29.539  21.738  13.810
59880W        W25041  36.987  12.772  12.510
59881W        W25042  30.919  43.828   3.634
59882W        W25043  14.019  12.923   1.452
59883W        W25044  11.340  35.923   3.688
59884W        W25045  11.282   7.207  10.729
59885W        W25046  11.154  25.153   4.567
59886W        W25047  31.566  12.082   2.819
59887W        W25048  29.957   2.990   3.796
59888W        W25049  31.591   6.944   3.293
59889W        W25050  16.535  17.120  12.054
59890W        W25051  26.011  44.955   1.749
59891W        W25052  43.465  42.658   2.244
59892W        W25053  38.027   9.494   3.059
59893W        W25054  11.290  33.025   0.182
59894W        W25055  30.569  31.025   4.446
59895W        W25056  21.571  39.997   3.213
59896W        W25057  29.309  29.125  11.096
59897W        W25058  22.304  42.365   4.125
59898W        W25059  15.603  44.858  12.849
59899W        W25060  36.568  27.656   0.107
59900W        W25061  34.957   9.579   0.452
59901W        W25062  31.934  39.051  13.739
59902W        W25063   3.945  23.444  10.493
59903W        W25064   9.886  28.943  13.769
59904W        W25065  20.730  43.951   3.724
59905W        W25066  34.128  26.694   1.747
59906W        W25067  27.090  28.044   0.217
59907W        W25068   0.230   3.862  13.521
59908W        W25069  22.213  32.362   0.138
59909W        W25070  18.739  41.211  14.894
59910W        W25071   1.583  11.587   1.900
59911W        W25072  19.045  40.522   3.832
59912W        W25073   1.993  20.366   3.229
59913W        W25074  24.514  31.970   1.643
59914W        W25075  13.624  10.479   0.931
59915W        W25076  44.751  32.801   2.229
59916W        W25077  40.395  42.995   1.989
59917W        W25078  14.243  10.647   4.342
59918W        W25079  28.883  24.163  12.636
59919W        W25080  39.269   9.486   0.168
59920W        W25081  31.378  42.942  12.905
59921W        W25082  13.784   7.915   0.945
59922W        W25083  20.641  23.755  12.450
59923W        W25084  19.061  31.386  12.220
59924W        W25085  38.562  41.347   2.217
59925W        W25086  13.314  33.717   4.180
59926W        W25087  21.026   5.233   4.652
59927W        W25088   1.188   4.182   0.484
59928W        W25089  34.113  31.346  14.839
59929W        W25090  36.878  32.656  11.572
59930W        W25091  37.410  28.183  11.083
59931W        W25092  14.142   3.312  14.277
59932W        W25093  37.609  12.744  11.952
59933W        W25094  42.549  19.320   2.701
59934W        W25095  37.370  28.455   3.381
59935W        W25096   5.773  16.093  14.028
59936W        W25097  35.795  31.476  12.517
59937W        W25098  34.003   7.898  10.656
59938W        W25099  36.341  25.255   5.298
59939W        W25100   4.303   3.187  14.467
59940W        W25101  11.786  31.732   1.266
59941W        W25102  24.925  38.085  12.868
59942W        W25103  12.728  20.620  14.981
59943W        W25104  43.707  16.065   2.390
59944W        W25105   1.156  33.795  10.375
59945W        W25106   5.015   5.313  13.297
59946W        W25107   7.724  28.747   2.307
59947W        W25108   5.734  29.554   4.148
59948W        W25109  13.453   6.568   0.780
59949W        W25110  41.710  33.837   2.809
59950W        W25111  37.523  11.124   2.876
59951W        W25112  26.889  10.597   2.808
59952W        W25113   1.852  21.702  10.709
59953W        W25114  28.258   8.288   1.179
59954W        W25115  38.970  15.341  11.089
59955W        W25116  11.668  30.681   3.209
59956W        W25117  23.090  19.288   4.571
59957W        W25118  10.194   2.249  10.733
59958W        W25119  26.160  12.352   1.910
59959W        W25120  15.217   2.826   4.920
59960W        W25121  16.087  17.467  11.434
59961W        W25122  38.484  32.876   3.689
59962W        W25123  35.614  15.272  14.392
59963W        W25124  16.307  38.566   5.206
59964W        W25125  16.368  26.908   0.404
59965W        W25126  40.257  14.739   2.464
59966W        W25127  23.457  26.608   2.311
59967W        W25128  39.264  43.696   4.030
59968W        W25129   3.369  21.153  12.086
59969W        W25130  27.653  23.257  11.037
59970W        W25131   8.644   5.958   4.173
59971W        W25132   0.736  12.032  12.976
59972W        W25133  25.070  44.882   3.736
59973W        W25134  22.525  12.095  10.909
59974W        W25135  10.211  43.200   3.875
59975W        W25136  13.256   2.924   1.819
59976W        W25137  11.254   7.034  11.727
59977W        W25138  29.477  41.974   0.514
59978W        W25139  25.552  30.275   1.961
59979W        W25140  35.800  41.421   2.896
59980W        W25141   5.874  14.289  11.655
59981W        W25142   8.969   4.428  11.619
59982W        W25143  36.332   3.780  12.425
59983W        W25144  15.501   1.178   1.635
59984W        W25145  32.122  36.962   2.902
59985W        W25146  31.546   1.997   0.919
59986W        W25147   9.517  30.059  12.659
59987W        W25148  15.692  38.454   1.453
59988W        W25149  25.703  12.712  13.028
59989W        W25150  11.678  29.403  14.552
59990W        W25151  17.262   3.201   3.653
59991W        W25152   2.403  29.153   2.703
59992W        W25153  13.359   3.824   1.336
59993W        W25154  28.568  37.504  14.793
59994W        W25155  11.164  29.146  11.555
59995W        W25156  33.214  11.521  13.366
59996W        W25157  27.872  26.130   4.470
59997W        W25158   0.495  34.169   0.342
59998W        W25159  34.587  14.622  12.030
59999W        W25160  43.456  21.214  10.323
60000W        W25161  16.838   6.628   4.477
60001W        W25162  14.928   2.999  14.052
60002W        W25163  11.855  42.435   0.800
60003W        W25164  20.241  38.753   4.595
60004W        W25165  24.792   3.021   3.372
60005W        W25166   2.614  36.567  13.075
60006W        W25167  12.349  35.348  14.714
60007W        W25168  41.964   3.050  10.666
60008W        W25169  44.603   9.306   4.082
60009W        W25170   7.959   8.566   1.270
60010W        W25171  38.918   5.563  14.035
60011W        W25172  28.613  15.301   4.236
60012W        W25173  12.904  25.712   4.201
60013W        W25174  31.965  29.288  10.272
60014W        W25175  20.024  37.552   0.547
60015W        W25176   7.774  27.905   2.773
60016W        W25177  40.853  40.253   1.689
60017W        W25178  11.195  22.023   1.357
60018W        W25179  42.348  14.034   3.153
60019W        W25180  29.088  38.308  12.489
60020W        W25181  39.828  37.550   1.780
60021W        W25182  25.169  33.622   4.304
60022W        W25183  44.473  15.268   3.233
60023W        W25184  40.837  43.918   1.849
60024W        W25185  34.458  24.177   1.885
60025W        W25186   6.578  16.630  12.356
60026W        W25187   3.809   4.983   1.340
60027W        W25188  38.622   1.837   3.626
60028W        W25189  40.436  15.610   0.813
60029W        W25190  15.815  24.099  14.522
60030W        W25191  36.115   1.530   2.694
60031W        W25192   8.269  33.901  14.410
60032W        W25193  16.027  14.753   0.501
60033W        W25194   6.730  32.591   0.486
60034W        W25195  40.986  16.611   4.107
60035W        W25196   3.926   3.885   0.208
60036W        W25197  38.864  40.083  10.199
60037W        W25198  42.043  28.250   4.076
60038W        W25199  18.184  28.996   3.239
60039W        W25200  12.558  41.811  14.183
60040W        W25201  15.497  29.166  11.301
60041W        W25202  31.049  30.088  11.123
60042W        W25203   9.953   2.239   2.315
60043W        W25204  18.800  30.076   0.056
60044W        W25205  23.842  12.280   1.392
60045W        W25206  10.239  11.274  14.276
60046W        W25207  11.775   5.821   2.793
60047W        W25208   7.671  44.988  14.417
60048W        W25209  15.335  24.481   1.266
60049W        W25210  36.924  22.473   3.997
60050W        W25211   5.873  17.265   3.140
60051W        W25212  36.011   7.280   4.157
60052W        W25213   7.814  31.579   2.886
60053W        W25214  26.282  13.293   0.824
60054W        W25215  14.909  21.272  10.273
60055W        W25216  11.254  21.540   2.945
60056W        W25217  40.493  34.822  13.065
60057W        W25218  11.618  42.163  13.486
60058W        W25219  37.411  22.528   3.323
60059W        W25220  41.990  10.606  12.533
60060W        W25221  29.153  39.282  11.526
60061W        W25222  27.575  36.847  11.076
60062W        W25223  29.180  41.782   1.695
60063W        W25224  27.924  36.364   1.194
60064W        W25225  43.627  41.268   5.052
60065W        W25226  26.176  27.002  13.532
60066W        W25227   5.670  10.642  12.774
60067W        W25228   4.386  26.763   2.678
60068W        W25229  19.038   7.120  13.646
60069W        W25230  21.036  18.102  14.349
60070W        W25231  41.934   0.410  13.328
60071W        W25232  27.875   8.444  11.549
60072W        W25233  23.714  43.014  11.993
60073W        W25234   0.467  10.045  14.319
60074W        W25235  11.953  25.704   4.516
60075W        W25236  28.676  10.596  11.160
60076W        W25237  32.112   4.348   2.412
60077W        W25238  39.837  14.487   3.686
60078W        W25239  17.125   2.003   0.275
60079W        W25240  25.559  21.949   0.770
60080W        W25241  18.680  11.681   4.631
60081W        W25242  26.922  40.730   3.714
60082W        W25243   9.278  34.061   3.166
60083W        W25244   5.313   6.905  12.684
60084W        W25245  37.238  35.321  11.109
60085W        W25246  21.658   6.455  12.946
60086W        W25247  43.734  37.511  13.679
60087W        W25248  36.528  30.008   1.868
60088W        W25249  37.036  18.768   2.495
60089W        W25250  29.409  16.955   2.848
60090W        W25251  16.674   3.910  12.049
60091W        W25252   1.757  28.387  13.928
60092W        W25253  39.717   5.307   4.069
60093W        W25254  44.027   6.347   0.403
60094W        W25255  23.701  11.420   2.568
60095W        W25256  19.807   8.389   5.125
60096W        W25257   0.014  11.688  12.902
60097W        W25258  23.346  33.371   3.874
60098W        W25259  14.221   9.269  13.308
60099W        W25260  26.474  43.126  14.035
60100W        W25261  10.314   4.259  14.398
60101W        W25262  23.246  17.582  14.763
60102W        W25263  32.612  36.419   2.165
60103W        W25264  21.796  14.813  11.755
60104W        W25265  23.151  25.525   3.341
60105W        W25266  39.338  34.783  14.751
60106W        W25267  43.949  34.201  12.579
60107W        W25268  43.763  29.870  14.323
60108W        W25269  42.400  35.795  12.787
60109W        W25270  15.768  20.212   0.940
60110W        W25271  29.692  37.414   0.933
60111W        W25272   3.828  21.623  12.524
60112W        W25273  13.248  39.817  10.016
60113W        W25274  31.941  12.000   0.566
60114W        W25275  13.703   0.821   1.476
60115W        W25276  41.960  32.570  14.359
60116W        W25277   4.739   1.706   4.616
60117W        W25278  28.238   0.488  12.023
60118W        W25279  13.647  34.634   0.554
60119W        W25280  26.779  16.204   3.731
60120W        W25281   8.218  19.989   1.784
60121W        W25282  26.896  39.074  14.806
60122W        W25283  14.687  39.058  14.737
60123W        W25284  38.536  44.020   0.292
60124W        W25285  19.024  38.207  12.396
60125W        W25286  39.278  31.930   1.898
60126W        W25287  24.975  41.038   2.722
60127W        W25288  16.707  10.182  11.565
60128W        W25289  24.196  12.999  12.866
60129W        W25290  12.634  44.541   0.643
60130W        W25291  38.510  30.144  14.512
60131W        W25292  10.367  17.969   0.045
60132W        W25293  43.441  15.558   0.795
60133W        W25294  13.471  29.703   0.403
60134W        W25295   9.428  41.836  14.396
60135W        W25296   2.897  26.169  13.842
60136W        W25297   0.787  39.615   2.449
60137W        W25298  21.856  38.556   1.058
60138W        W25299  43.694   6.770   2.396
60139W        W25300  19.193  27.207  12.037
60140W        W25301  28.632  10.628   1.442
60141W        W25302  39.942  10.120  13.301
60142W        W25303  42.534  34.877   0.845
60143W        W25304   2.240  41.766  11.120
60144W        W25305  37.782  13.312   1.680
60145W        W25306   3.331  30.637  14.814
60146W        W25307  33.529  42.430   4.562
60147W        W25308  18.896  41.950  11.523
60148W        W25309  37.430  44.777  13.008
60149W        W25310  35.595  14.231   2.813
60150W        W25311   3.078  15.155  11.377
60151W        W25312   5.146  22.126  13.476
60152W        W25313  37.263  14.582  13.954
60153W        W25314  21.554  30.435   0.427
60154W        W25315  23.912  25.463  12.571
60155W        W25316  34.734  44.550  14.388
60156W        W25317  36.088   3.434   0.783
60157W        W25318  22.086   3.256  13.467
60158W        W25319  25.729  14.141  12.994
60159W        W25320  42.139  14.290  13.769
60160W        W25321   6.717  19.185  11.973
60161W        W25322   7.247  29.154   3.110
60162W        W25323  28.225  33.084   4.082
60163W        W25324  34.490  19.986   0.487
60164W        W25325   9.947   1.652  13.802
60165W        W25326  31.672   5.336   4.052
60166W        W25327  20.072  44.076  13.324
60167W        W25328  13.811  24.973  12.589
60168W        W25329  38.403   5.379  14.032
60169W        W25330  27.486   0.678  12.429
60170W        W25331  43.966   3.353  11.189
60171W        W25332  30.264  18.243  12.393
60172W        W25333  39.907  30.451  13.787
60173W        W25334  35.732  12.137   2.343
60174W        W25335  14.155  37.292   5.152
60175W        W25336  21.136  35.405   4.018
60176W        W25337  18.647   2.437   2.220
60177W        W25338  32.030  42.807  12.414
60178W        W25339  29.953  15.641  14.777
60179W        W25340  16.622  14.586  12.027
60180W        W25341  25.954  44.458  13.022
60181W        W25342  25.558  26.778  11.995
60182W        W25343  30.174  36.388   0.899
60183W        W25344  16.076  27.598   3.113
60184W        W25345   7.418  19.762   2.674
60185W        W25346  38.979  35.576   3.498
60186W        W25347  33.333  19.713   3.146
60187W        W25348   3.736  43.074   0.763
60188W        W25349  26.686  42.320  14.383
60189W        W25350  26.756  30.176   4.507
60190W        W25351  41.951   7.316  10.119
60191W        W25352   6.329  20.254  14.479
60192W        W25353  16.327  31.038   3.188
60193W        W25354  10.543  24.371   2.778
60194W        W25355   7.574  20.758  13.397
60195W        W25356   3.456  44.274  12.468
60196W        W25357  24.552  38.280  12.574
60197W        W25358  43.934   2.459  13.793
60198W        W25359  26.585  11.928  14.995
60199W        W25360  24.874  26.220   4.161
60200W        W25361   7.976  39.006  12.164
60201W        W25362   5.361  29.705   1.886
60202W        W25363  10.273  38.298  12.933
60203W        W25364  17.634  10.477   1.816
60204W        W25365  44.526   9.287  11.907
60205W        W25366   0.852  19.688   4.959
60206W        W25367   1.409   0.268  14.277
60207W        W25368  31.210  21.455  12.586
60208W        W25369   8.868  40.712   0.988
60209W        W25370  15.244  29.466  13.988
60210W        W25371  39.313   6.418  11.564
60211W        W25372   5.839  42.975  14.126
60212W        W25373  17.582  20.363   4.204
60213W        W25374  14.904  21.680  10.569
60214W        W25375  12.068  10.322   3.950
60215W        W25376  21.387   4.431  12.852
60216W        W25377   8.756   3.835  13.334
60217W        W25378  30.388  38.969   9.704
60218W        W25379  11.277  15.672  13.409
60219W        W25380  42.148  12.438  13.928
60220W        W25381  12.470   6.279   3.664
60221W        W25382  43.979  36.870   3.075
60222W        W25383   6.700   7.050   3.875
60223W        W25384   2.496  40.504   3.914
60224W        W25385   8.642  29.958  11.566
60225W        W25386   0.940   1.041   4.130
60226W        W25387  16.764   9.638  14.389
60227W        W25388  24.406   8.900   0.001
60228W        W25389  10.781   1.977  14.350
60229W        W25390  44.258   3.537  11.601
60230W        W25391  24.771  31.221   4.919
60231W        W25392  26.390  22.037  13.040
60232W        W25393  18.610  40.693  14.976
60233W        W25394  13.531  35.096  11.168
60234W        W25395  42.789   3.734  11.669
60235W        W25396  24.435  11.591   1.286
60236W        W25397  34.433  23.918   1.449
60237W        W25398  14.117   4.814  12.050
60238W        W25399  40.346  11.629  11.541
60239W        W25400  33.050  22.705  11.746
60240W        W25401   2.533  27.203   0.281
60241W        W25402  35.184  32.148  11.121
60242W        W25403  10.856  25.120   4.147
60243W        W25404   9.891  10.185  12.125
60244W        W25405  35.578  11.152   3.103
60245W        W25406  21.272   2.936  12.936
60246W        W25407  28.102  31.690  13.349
60247W        W25408   8.712  23.444   4.123
60248W        W25409  38.126   2.733  11.218
60249W        W25410  35.029  22.536  13.970
60250W        W25411  33.202  29.094   1.199
60251W        W25412  30.747  29.002  12.547
60252W        W25413  13.784  19.012  11.862
60253W        W25414   7.893  30.151   1.416
60254W        W25415  24.196  22.738   2.906
60255W        W25416  19.569  42.508   3.041
60256W        W25417  39.000  39.363  11.304
60257W        W25418  23.449  21.118  11.103
60258W        W25419   5.654  40.112  13.970
60259W        W25420   6.961  35.894   0.835
60260W        W25421   8.744  30.011   1.681
60261W        W25422   9.912   5.613   1.154
60262W        W25423   3.956  43.010  12.845
60263W        W25424   8.093   5.439   2.728
60264W        W25425  34.025   7.796  14.752
60265W        W25426  34.667  34.497   2.767
60266W        W25427   3.981   1.366   4.233
60267W        W25428  44.113  12.703   0.322
60268W        W25429  19.687   3.732   4.414
60269W        W25430   3.290  35.971  13.422
60270W        W25431  41.921  23.414  14.523
60271W        W25432  22.389  28.138  14.845
60272W        W25433  20.527  34.156   3.855
60273W        W25434  37.341  21.765  14.479
60274W        W25435  30.963  23.613   3.470
60275W        W25436  33.521  43.538   3.919
60276W        W25437  44.661  20.218   0.537
60277W        W25438  15.320  28.498   3.401
60278W        W25439  29.289  14.817  11.082
60279W        W25440  31.100  34.261   4.264
60280W        W25441  21.587   0.923   1.266
60281W        W25442  29.845  28.495   3.642
60282W        W25443  19.588  39.337  13.864
60283W        W25444  25.759   4.334  13.058
60284W        W25445  43.437  36.607  14.071
60285W        W25446  34.675   1.965   4.213
60286W        W25447   9.834  14.560   3.592
60287W        W25448   6.102  18.411  12.265
60288W        W25449  32.985  28.204  11.222
60289W        W25450  35.993  40.518   5.012
60290W        W25451  36.266  41.702   3.786
60291W        W25452  40.809   7.966   2.352
60292W        W25453  12.940   5.455  11.988
60293W        W25454  33.118   0.465  13.370
60294W        W25455  32.111  33.616   2.268
60295W        W25456   8.681  20.751   0.361
60296W        W25457  37.329  41.400  12.113
60297W        W25458  24.030  22.920  12.744
60298W        W25459   4.562  25.132  13.997
60299W        W25460  16.335  44.309   1.205
60300W        W25461   6.664  39.593   1.096
60301W        W25462  24.294   2.630   0.265
60302W        W25463   3.373  42.724   3.114
60303W        W25464  37.806  22.478  12.120
60304W        W25465   8.894   6.125  13.107
60305W        W25466  29.825  13.863  14.338
60306W        W25467  43.847   8.367  14.435
60307W        W25468  20.047   4.224   2.281
60308W        W25469  20.542  27.752  13.105
60309W        W25470  43.789   4.632  10.439
60310W        W25471   7.818  18.387  12.004
60311W        W25472  33.499   3.568   3.661
60312W        W25473  28.513   2.972  12.877
60313W        W25474   3.946   0.348   1.999
60314W        W25475  26.575  15.013  11.591
60315W        W25476  43.222  42.120   2.112
60316W        W25477   3.939  28.143  11.512
60317W        W25478   3.892  40.366  14.466
60318W        W25479   8.673  32.308  13.879
60319W        W25480   2.052   3.929   1.363
60320W        W25481  38.415  35.425  14.444
60321W        W25482  36.354  39.290  13.575
60322W        W25483  35.658   1.360  10.883
60323W        W25484  34.111  44.321   0.172
60324W        W25485   3.871  29.521  11.000
60325W        W25486  11.291  30.704  12.291
60326W        W25487  31.570  18.783  12.564
60327W        W25488  32.971   5.202  11.561
60328W        W25489  24.071   1.660   4.997
60329W        W25490   5.723  28.629  12.454
60330W        W25491  41.392  24.025  10.735
60331W        W25492  16.509  42.408   2.731
60332W        W25493   7.370  26.930   2.670
60333W        W25494   3.735  41.462  10.689
60334W        W25495   8.120  43.797  11.739
60335W        W25496  43.270  17.198   1.781
60336W        W25497  42.289  34.404   4.051
60337W        W25498  41.995  24.581   0.217
60338W        W25499  22.014  11.214   3.748
60339W        W25500  41.400  38.992   0.772
60340W        W25501  39.907  20.031  10.745
60341W        W25502  12.425   9.790  14.116
60342W        W25503  12.236  17.768  14.057
60343W        W25504  27.176  16.547   1.658
60344W        W25505  19.111   2.625   2.415
60345W        W25506   5.253   0.577  12.389
60346W        W25507  24.630  33.762  13.731
60347W        W25508  12.265   7.336   0.542
60348W        W25509  29.477   6.894  13.909
60349W        W25510  31.374   8.495  12.669
60350W        W25511  39.132  40.834  12.757
60351W        W25512  30.253   0.136   0.983
60352W        W25513  44.939  22.272  12.209
60353W        W25514  41.018   6.918   4.848
60354W        W25515   6.695  41.419  13.374
60355W        W25516  44.824  38.987  13.637
60356W        W25517  25.385  19.787  12.320
60357W        W25518  35.839  34.884   4.854
60358W        W25519  37.398  16.025   1.190
60359W        W25520  30.894  40.848  11.466
60360W        W25521  14.105   7.234   2.704
60361W        W25522  30.947  44.785   0.339
60362W        W25523  40.548  21.235   3.534
60363W        W25524   1.859   9.421  11.095
60364W        W25525  36.479  14.015  13.919
60365W        W25526  41.537  26.770  14.387
60366W        W25527  40.583  19.946   1.149
60367W        W25528  16.976  41.459  13.878
60368W        W25529  13.773  35.974  13.668
60369W        W25530   9.364  39.551   2.402
60370W        W25531   8.616   4.742   4.532
60371W        W25532  24.707  21.123  12.010
60372W        W25533  34.076   7.801  11.144
60373W        W25534  43.405  26.582   2.947
60374W        W25535  17.237  10.614  12.663
60375W        W25536  28.372  11.782  11.536
60376W        W25537  36.026  22.220   1.936
60377W        W25538  35.847  43.429  12.920
60378W        W25539   0.391  39.939  12.358
60379W        W25540  17.015  17.339   3.067
60380W        W25541  11.883  42.485   1.699
60381W        W25542  23.347  21.555   4.036
60382W        W25543  14.802  14.116   3.714
60383W        W25544  10.271   8.665  12.574
60384W        W25545  38.846  28.692  13.285
60385W        W25546  26.152  11.857   4.058
60386W        W25547  28.474  15.237  12.059
60387W        W25548  15.685  36.642   4.123
60388W        W25549  31.924   9.800  14.337
60389W        W25550  18.979  14.285  12.966
60390W        W25551  22.708  24.713  14.819
60391W        W25552  13.151  21.246  11.869
60392W        W25553  34.418  19.346   4.552
60393W        W25554  10.453  12.248  10.077
60394W        W25555  13.752   1.855  11.197
60395W        W25556  42.598  34.546   0.440
60396W        W25557  21.548  27.582  11.901
60397W        W25558  32.004   5.105  13.541
60398W        W25559  17.103   3.431   5.031
60399W        W25560  13.540   6.892  14.308
60400W        W25561  26.448  20.993  10.711
60401W        W25562  11.313   9.177  10.513
60402W        W25563  44.243   8.635  13.119
60403W        W25564   2.079  21.157   2.669
60404W        W25565   6.808  30.666  13.023
60405W        W25566   8.219  27.921   0.996
60406W        W25567  42.683  33.649   2.572
60407W        W25568  14.206  30.978   1.249
60408W        W25569  21.972  26.647   0.352
60409W        W25570  41.796  16.811  11.606
60410W        W25571  27.161  16.807   2.134
60411W        W25572   4.686  12.609   2.692
60412W        W25573  21.978  25.789   0.995
60413W        W25574   9.929  43.484   1.275
60414W        W25575   2.772  30.287   2.131
60415W        W25576  43.045   8.700  12.626
60416W        W25577  42.781  43.022   1.834
60417W        W25578  26.521   9.139  13.729
60418W        W25579  27.927  19.797   5.029
60419W        W25580  20.617   1.213   3.616
60420W        W25581  13.917  13.367   3.826
60421W        W25582  44.208  29.693  12.409
60422W        W25583   7.681   7.912   2.712
60423W        W25584  11.257  36.365  12.417
60424W        W25585  42.035  14.085  12.339
60425W        W25586   1.354  25.662  12.002
60426W        W25587   3.906  41.687   2.817
60427W        W25588  10.666  34.133   2.401
60428W        W25589  14.166  13.611   2.659
60429W        W25590  17.300  33.394   4.597
60430W        W25591  12.702   5.808   3.852
60431W        W25592  23.039  14.563  13.008
60432W        W25593   6.156  16.346   4.133
60433W        W25594  17.189  37.359   2.413
60434W        W25595  29.292  32.783   3.228
60435W        W25596   3.517   1.374  12.394
60436W        W25597   1.068  38.958   0.975
60437W        W25598   3.765  18.135  12.446
60438W        W25599  13.065  29.289  13.936
60439W        W25600  37.945  16.327   3.273
60440W        W25601  25.124  25.784  14.104
60441W        W25602  27.497   4.067   0.138
60442W        W25603   0.444  19.361  12.563
60443W        W25604  44.498  19.549   0.906
60444W        W25605   2.021  36.726   1.805
60445W        W25606   1.297  11.387  14.319
60446W        W25607  36.639  28.465  14.037
60447W        W25608  36.618  34.927  14.970
60448W        W25609  26.932  36.456  11.628
60449W        W25610  39.836  35.565   3.855
60450W        W25611   4.871   8.426   5.107
60451W        W25612  10.661  38.098  10.708
60452W        W25613  36.194  24.134  10.622
60453W        W25614  18.119  41.903   0.302
60454W        W25615  30.713   6.848  14.557
60455W        W25616   8.590   0.810   1.413
60456W        W25617  27.577  36.641   3.659
60457W        W25618  40.793  34.962   1.403
60458W        W25619  38.067  23.073   3.602
60459W        W25620  42.517  20.974   4.134
60460W        W25621  11.907  27.672  13.392
60461W        W25622  34.804   3.688  12.061
60462W        W25623  25.468  12.645   2.070
60463W        W25624  16.126  41.620   4.187
60464W        W25625   4.756  11.602   0.865
60465W        W25626  15.101  38.447   0.202
60466W        W25627  35.581   2.525   1.701
60467W        W25628  29.530  16.541  14.019
60468W        W25629  29.164   2.805   3.123
60469W        W25630  13.287   9.606  12.484
60470W        W25631  44.839  32.583  14.813
60471W        W25632  22.522  15.519   3.190
60472W        W25633   5.871   8.832   0.469
60473W        W25634  32.405  25.037   0.812
60474W        W25635   4.963  28.553   1.365
60475W        W25636  44.854   8.965   1.338
60476W        W25637  31.862  41.636   3.309
60477W        W25638  32.047  37.768  14.737
60478W        W25639  37.425  30.550  10.743
60479W        W25640   0.812  19.692   1.135
60480W        W25641  38.633  43.833  10.597
60481W        W25642  22.558   9.265   2.368
60482W        W25643  36.701  38.961  10.213
60483W        W25644  23.198   2.217   2.654
60484W        W25645  36.103  19.798  14.341
60485W        W25646  35.371   5.332  13.344
60486W        W25647  41.484  44.282   0.404
60487W        W25648  24.528  27.543   1.368
60488W        W25649  14.044  33.382   1.736
60489W        W25650  10.910  24.194  11.189
60490W        W25651  40.293  34.982  10.682
60491W        W25652   0.924   7.466   4.075
60492W        W25653  22.148  17.577  11.195
60493W        W25654  33.480   1.973   3.579
60494W        W25655  31.958  24.956  14.947
60495W        W25656  40.516  20.482   0.277
60496W        W25657  15.178   8.355   0.326
60497W        W25658  17.831   8.181  12.507
60498W        W25659   1.726  19.848   1.784
60499W        W25660  13.054  18.277  11.198
60500W        W25661  39.787  24.745  13.000
60501W        W25662  12.530  37.711   1.873
60502W        W25663  32.959   4.029  11.921
60503W        W25664  15.264  42.820  14.785
60504W        W25665  42.813  40.085  12.436
60505W        W25666  22.639  24.887  11.602
60506W        W25667  24.729  21.490  12.821
60507W        W25668  26.982  34.110  14.323
60508W        W25669  38.862   7.899  11.712
60509W        W25670  43.253   0.783  14.884
60510W        W25671   5.852  15.533  12.109
60511W        W25672  41.978  44.001  12.952
60512W        W25673  30.703  37.578   1.287
60513W        W25674   4.414  39.561   0.448
60514W        W25675  22.245  38.976  12.356
60515W        W25676  10.002   3.573   5.292
60516W        W25677   1.495  20.705   2.105
60517W        W25678  24.739  24.555  13.499
60518W        W25679   7.604  37.041   4.248
60519W        W25680   2.238  29.166  14.481
60520W        W25681  44.735  38.142   2.052
60521W        W25682  20.479  35.047   2.274
60522W        W25683   4.653   7.286  13.350
60523W        W25684  15.172  31.105  11.933
60524W        W25685  42.029  39.851   2.663
60525W        W25686  27.635   5.797  12.508
60526W        W25687   8.266  30.452   3.733
60527W        W25688   3.212   8.429   2.623
60528W        W25689  19.513  38.137  14.437
60529W        W25690  35.927  13.780   4.665
60530W        W25691  12.727  25.518   2.815
60531W        W25692  34.373  40.160  11.138
60532W        W25693   5.323   0.051  12.379
60533W        W25694   2.230   4.239  14.143
60534W        W25695  29.908   1.216   2.790
60535W        W25696  36.278  33.071   2.668
60536W        W25697  10.392   8.094   3.769
60537W        W25698  33.023  19.959   3.811
60538W        W25699  20.761  14.269  14.487
60539W        W25700   7.689   2.067  14.875
60540W        W25701  44.470  32.947  14.413
60541W        W25702   2.973  28.889  14.922
60542W        W25703  33.600  25.192   4.100
60543W        W25704  15.994   6.387   1.330
60544W        W25705  29.935  39.819   3.782
60545W        W25706  39.984   4.355  11.981
60546W        W25707  37.175  10.256  13.770
60547W        W25708  24.310  20.248  11.009
60548W        W25709  31.103  26.418   3.230
60549W        W25710  38.812   9.252  14.936
60550W        W25711  14.691  18.585  14.530
60551W        W25712  22.746  42.434  10.191
60552W        W25713  41.914  10.415   0.987
60553W        W25714  28.736   3.453   2.432
60554W        W25715  24.158  24.415   5.069
60555W        W25716  32.612  11.175  10.873
60556W        W25717  12.187  43.827   1.580
60557W        W25718  31.933  26.750  10.769
60558W        W25719  30.044  27.670   1.721
60559W        W25720   2.414  17.813  10.747
60560W        W25721  19.558  17.090   3.601
60561W        W25722  20.216  38.612  12.231
60562W        W25723   3.523  15.722  14.558
60563W        W25724  41.401  28.298   1.646
60564W        W25725  25.251   7.310  12.102
60565W        W25726  39.616   9.053  10.697
60566W        W25727  37.847  15.057   2.498
60567W        W25728  18.665  12.601  13.863
60568W        W25729  41.505  22.324  11.026
60569W        W25730  30.256  33.208   0.995
60570W        W25731  32.194  22.032   2.679
60571W        W25732  31.071  13.387   4.351
60572W        W25733  40.469  22.294   2.721
60573W        W25734  23.569  10.324   0.522
60574W        W25735  41.588  17.073  13.533
60575W        W25736  17.369  15.203  12.970
60576W        W25737   9.612   0.384   4.104
60577W        W25738   3.664  22.129  13.110
60578W        W25739  26.471  12.790  13.444
60579W        W25740   8.087  13.207  11.572
60580W        W25741  15.637   7.191   4.149
60581W        W25742  32.202  30.093   0.450
60582W        W25743  41.905  37.754   1.154
60583W        W25744  40.904   8.893   0.581
60584W        W25745   0.172  36.821  12.962
60585W        W25746  13.435  22.612   2.619
60586W        W25747  34.248  38.163   2.375
60587W        W25748   4.242  23.828  13.147
60588W        W25749  43.017  24.591   1.350
60589W        W25750  24.148  13.032  13.849
60590W        W25751  26.154  35.375  13.508
60591W        W25752  20.045   9.813  10.532
60592W        W25753   4.831   0.229  14.316
60593W        W25754  22.201  18.849  14.526
60594W        W25755  19.822  22.185  12.512
60595W        W25756  43.898  30.345   0.071
60596W        W25757  42.092   7.098   0.238
60597W        W25758  44.295  40.103   2.905
60598W        W25759  41.163   2.761  13.769
60599W        W25760  35.156  26.632  14.396
60600W        W25761  42.425  18.248   3.933
60601W        W25762  34.940  21.112  13.265
60602W        W25763  17.299  14.731   3.633
60603W        W25764  39.139   4.709  13.748
60604W        W25765  23.443  39.944   4.098
60605W        W25766   5.247  32.013   2.829
60606W        W25767  20.643  25.240  10.313
60607W        W25768  36.308  43.985   2.422
60608W        W25769  35.510  10.202  13.838
60609W        W25770  34.417  22.420   4.985
60610W        W25771  25.650  40.796  13.709
60611W        W25772  42.469  31.496  13.862
60612W        W25773  31.963  27.054  11.218
60613W        W25774   6.144  39.302  13.031
60614W        W25775  10.682  34.618  10.989
60615W        W25776  39.355  23.997  12.418
60616W        W25777  37.634  11.491  12.375
60617W        W25778  36.066  14.848   4.095
60618W        W25779  39.904  37.276   3.659
60619W        W25780  10.024  27.908   3.373
60620W        W25781  18.229   5.388  12.412
60621W        W25782   8.836   8.872   2.181
60622W        W25783  16.380   7.584  12.305
60623W        W25784   0.408  31.838  12.812
60624W        W25785  25.764  27.037  14.543
60625W        W25786   5.619  31.051   0.993
60626W        W25787  33.371  39.404   2.153
60627W        W25788   0.378  36.451  14.796
60628W        W25789   7.228  35.829   2.946
60629W        W25790   5.116  41.416  14.406
60630W        W25791   5.776  15.587   0.826
60631W        W25792   2.918  22.770  11.664
60632W        W25793  22.476  31.734  11.968
60633W        W25794  11.580   9.813  11.939
60634W        W25795  14.356  19.017  12.606
60635W        W25796  16.732  40.574  13.310
60636W        W25797  44.149  12.886  11.039
60637W        W25798   1.596  14.778   5.115
60638W        W25799  36.643  34.337  12.880
60639W        W25800  18.081   1.266   0.891
60640W        W25801  14.241  42.558   2.520
60641W        W25802  36.333  32.306   1.432
60642W        W25803  23.525   2.869  10.918
60643W        W25804  15.699   8.914  11.455
60644W        W25805  10.102   0.353   3.177
60645W        W25806  31.384   0.925  13.599
60646W        W25807  24.542   5.234   3.642
60647W        W25808   0.230  43.344  14.674
60648W        W25809  13.165  21.605  10.708
60649W        W25810  28.383   1.109   0.991
60650W        W25811  44.461  40.527  11.479
60651W        W25812  29.417  26.531  11.573
60652W        W25813  22.127  21.801   2.475
60653W        W25814   2.724  27.733   3.359
60654W        W25815  32.229  44.005   5.201
60655W        W25816  12.708   6.816  11.529
60656W        W25817  21.217  27.545  14.833
60657W        W25818  10.685  25.485  13.019
60658W        W25819  16.288  41.145  12.033
60659W        W25820  38.430  39.751  14.319
60660W        W25821  24.745  43.418   0.894
60661W        W25822  19.989   1.260   0.697
60662W        W25823  11.084  12.153   1.866
60663W        W25824   3.794  22.584  12.388
60664W        W25825  44.395   7.761  11.403
60665W        W25826  41.335  38.024   5.268
60666W        W25827   3.879  44.498   3.247
60667W        W25828  41.071  30.670  12.606
60668W        W25829  35.464  43.062   1.849
60669W        W25830  33.382  43.911  10.115
60670W        W25831  30.698  43.110  13.623
60671W        W25832  13.239   6.825  14.743
60672W        W25833  24.013   5.209   1.615
60673W        W25834  31.169  18.147   5.111
60674W        W25835   3.142  22.093   2.273
60675W        W25836  41.071  31.620   0.254
60676W        W25837  36.610   5.346  13.934
60677W        W25838  43.251  34.699  12.964
60678W        W25839  13.679  33.660   1.440
60679W        W25840  14.176  21.422  14.552
60680W        W25841  25.660  23.508   1.783
60681W        W25842  22.163  33.432   2.187
60682W        W25843  24.483  41.088   2.599
60683W        W25844  10.382  44.224   4.042
60684W        W25845  29.213  33.010   1.006
60685W        W25846  15.503  10.685  11.751
60686W        W25847   2.171  40.322   4.278
60687W        W25848  30.961  40.787   1.161
60688W        W25849  13.286   7.309   0.400
60689W        W25850   0.420  37.402  11.985
60690W        W25851  14.064  39.313   4.622
60691W        W25852  35.463  44.578   1.888
60692W        W25853  44.901  15.617   2.791
60693W        W25854   3.271  38.584  14.386
60694W        W25855  34.777  14.132   3.854
60695W        W25856  26.120  41.296   4.258
60696W        W25857   2.203   9.280  14.290
60697W        W25858  35.764   9.947  11.306
60698W        W25859  12.786  42.460   3.598
60699W        W25860  43.987  23.791  12.521
60700W        W25861  15.764  37.246  13.735
60701W        W25862  33.450  18.259   3.308
60702W        W25863  16.727  19.551  13.067
60703W        W25864   7.849  16.120  12.376
60704W        W25865  23.500   9.686  11.381
60705W        W25866  10.727  36.335   3.837
60706W        W25867  18.200  21.617   4.715
60707W        W25868  12.593   7.277  14.817
60708W        W25869   4.956   8.183  13.982
60709W        W25870  20.550  19.108   2.649
60710W        W25871  25.452  29.304  14.218
60711W        W25872   9.317  16.835   1.847
60712W        W25873   1.148   3.660   0.478
60713W        W25874  16.023   8.604   3.688
60714W        W25875  16.777  19.643   0.876
60715W        W25876   9.758  25.614  14.469
60716W        W25877  15.666   9.802  14.089
60717W        W25878  17.143  38.579   0.906
60718W        W25879  39.383  17.850  12.558
60719W        W25880  18.035  12.638  12.873
60720W        W25881  23.526  31.644  14.881
60721W        W25882  33.441  16.112   0.927
60722W        W25883  24.658  39.793  12.449
60723W        W25884   7.970  37.452   4.873
60724W        W25885   5.283   6.135   2.389
60725W        W25886  13.120  40.856   4.011
60726W        W25887  21.404  32.169   1.944
60727W        W25888  30.628  43.457   1.330
60728W        W25889  26.146  35.608  10.719
60729W        W25890  40.572  39.654  11.638
60730W        W25891  17.265  17.455   1.584
60731W        W25892   3.352  34.525   0.165
60732W        W25893  29.576  40.287  14.288
60733W        W25894  40.276  43.825  13.722
60734W        W25895  17.016  26.676  11.074
60735W        W25896   6.480  35.421   2.185
60736W        W25897  37.497  25.645  10.787
60737W        W25898   9.444   7.761   2.935
60738W        W25899  38.759  25.226   1.195
60739W        W25900  27.495  12.323  10.332
60740W        W25901  13.078   9.111   0.388
60741W        W25902  17.227  21.183  12.823
60742W        W25903  27.559  32.361  14.489
60743W        W25904   1.875  43.982   2.161
60744W        W25905  35.461  11.232   4.153
60745W        W25906  16.486  38.646   4.043
60746W        W25907  27.619   7.891   4.797
60747W        W25908   7.270   4.292  10.642
60748W        W25909  39.864   7.596   2.348
60749W        W25910  29.029   9.294   4.806
60750W        W25911   9.219  18.334  14.794
60751W        W25912   7.177  30.025  11.200
60752W        W25913  43.822  27.458  10.681
60753W        W25914  35.118  42.304  13.634
60754W        W25915  34.245  41.044   4.584
60755W        W25916  26.115  37.322  14.591
60756W        W25917  21.245   3.002   2.192
60757W        W25918   8.273  39.112   0.661
60758W        W25919  40.783  19.223  12.894
60759W        W25920  39.911  23.731  14.426
60760W        W25921   2.875  38.801  10.959
60761W        W25922  16.016   0.903   3.815
60762W        W25923  32.529  20.485   2.658
60763W        W25924  44.842  14.809  12.352
60764W        W25925  30.699   4.452   2.749
60765W        W25926  25.902  15.185   1.814
60766W        W25927  40.376   2.141  14.369
60767W        W25928  12.170  22.105   2.722
60768W        W25929  44.936  30.034  11.053
60769W        W25930  26.960  26.614   2.410
60770W        W25931  39.895   5.819  13.800
60771W        W25932   4.747   2.852  11.332
60772W        W25933   8.682   9.681  12.484
60773W        W25934  31.395  18.508  10.684
60774W        W25935  30.532  24.451  12.053
60775W        W25936  12.808  26.729   4.127
60776W        W25937  16.569  25.233  11.248
60777W        W25938  33.572  13.763  12.102
60778W        W25939  44.081  29.671   4.169
60779W        W25940   0.639   0.834  11.388
60780W        W25941  31.437  27.179  10.334
60781W        W25942  18.275  29.577  14.150
60782W        W25943  44.792  38.968  13.134
60783W        W25944  37.069  21.026  14.395
60784W        W25945   7.499  43.464   1.861
60785W        W25946  27.529  34.971   3.799
60786W        W25947  39.149  41.515   4.445
60787W        W25948  39.563  21.783   2.759
60788W        W25949  38.929  27.023   4.449
60789W        W25950  22.255  19.502   4.145
60790W        W25951  21.519   3.327  10.707
60791W        W25952  24.349  22.181  13.815
60792W        W25953  44.059  40.339  13.443
60793W        W25954  15.354  43.719   5.076
60794W        W25955  28.632  17.591   4.647
60795W        W25956  32.336  42.355  13.807
60796W        W25957  43.523  13.230  11.633
60797W        W25958  41.427   1.425   2.956
60798W        W25959  23.678  14.855  14.270
60799W        W25960  41.584  22.169  12.434
60800W        W25961  25.184  22.689   3.819
60801W        W25962   6.796  16.706   1.411
60802W        W25963  26.706  15.213  11.151
60803W        W25964  16.802  18.230   1.839
60804W        W25965  19.139  27.924   4.220
60805W        W25966   7.773  36.632  14.858
60806W        W25967  11.370  31.935   1.568
60807W        W25968  15.418  13.826   0.336
60808W        W25969  27.444  34.734   2.033
60809W        W25970  20.998   5.673  14.874
60810W        W25971   1.288   0.415   0.406
60811W        W25972  27.877  35.815  12.057
60812W        W25973  19.574  29.461  10.388
60813W        W25974  11.576  22.342   1.499
60814W        W25975   8.718   3.267   4.599
60815W        W25976  20.221  38.419  13.733
60816W        W25977  19.369  40.318   0.466
60817W        W25978  23.643  41.834   0.432
60818W        W25979   4.691  20.951  12.965
60819W        W25980  25.873  42.189  12.621
60820W        W25981  27.441  20.537   3.314
60821W        W25982  12.325  32.469   4.518
60822W        W25983  44.346   7.964   4.604
60823W        W25984  41.403  11.399  12.531
60824W        W25985  10.654   5.932  13.374
60825W        W25986   4.087  20.572  14.332
60826W        W25987   5.240  27.594  14.518
60827W        W25988  33.756  43.904   3.651
60828W        W25989  21.605  26.881  13.035
60829W        W25990  23.440   5.773   2.202
60830W        W25991  39.122   1.124  14.239
60831W        W25992  27.636  28.623  14.825
60832W        W25993  23.588  37.141  13.949
60833W        W25994   1.064  42.977   0.792
60834W        W25995  42.798   6.552  14.928
60835W        W25996  37.877  27.136   1.871
60836W        W25997  37.565  18.798   1.691
60837W        W25998   7.312  19.301  13.506
60838W        W25999  14.687  44.109  14.032
60839W        W26000  44.084  15.294  14.401
60840W        W26001  44.356  17.597   1.207
60841W        W26002  35.993  35.019  12.954
60842W        W26003   0.968  44.007  11.691
60843W        W26004  16.570   9.380  12.098
60844W        W26005  14.693  12.950   3.605
60845W        W26006   3.200   9.671   0.196
60846W        W26007  33.534  41.437  12.575
60847W        W26008  12.154  20.153  10.793
60848W        W26009  23.107   9.898   1.811
60849W        W26010  33.209  40.433  11.525
60850W        W26011   3.191   9.911   2.938
60851W        W26012  36.104  32.628   3.234
60852W        W26013  28.551   5.649  12.887
60853W        W26014   5.044  43.422  12.197
60854W        W26015   9.021  34.799   4.932
60855W        W26016   7.503   1.094  11.974
60856W        W26017  29.985   1.892  10.936
60857W        W26018   8.789   7.851  14.095
60858W        W26019  18.845  31.063  13.840
60859W        W26020  20.144  12.129  13.534
60860W        W26021  17.376   5.242   0.812
60861W        W26022  24.995  13.254  12.995
60862W        W26023  43.417   3.860   3.228
60863W        W26024  11.350  38.451  12.907
60864W        W26025  15.562  34.833  10.735
60865W        W26026   1.518  30.157   2.775
60866W        W26027   2.879  44.929   3.354
60867W        W26028   6.939  40.951  14.321
60868W        W26029  21.064  19.094  12.340
60869W        W26030   5.233  23.650   0.217
60870W        W26031  17.805  29.451   3.905
60871W        W26032  32.345  37.912  11.551
60872W        W26033   3.413  19.688   4.641
60873W        W26034  32.990  23.583   3.763
60874W        W26035   9.245  27.883   4.671
60875W        W26036  16.259  44.107  11.171
60876W        W26037  15.717  30.721  13.657
60877W        W26038  17.855  10.419  14.435
60878W        W26039   8.299  44.239  12.638
60879W        W26040  31.465  30.144  12.787
60880W        W26041  33.091   8.202  14.802
60881W        W26042   7.110  31.256   1.783
60882W        W26043  19.720  42.309   4.490
60883W        W26044  12.125  28.533   4.520
60884W        W26045   8.574   8.125  11.200
60885W        W26046  25.177  23.339   2.363
60886W        W26047  30.455  16.791   4.776
60887W        W26048   8.863  15.015   2.837
60888W        W26049  24.111  11.663  14.845
60889W        W26050  36.812  43.376   4.941
60890W        W26051  24.621  35.614  13.287
60891W        W26052  44.839  34.106  10.115
60892W        W26053  44.086   3.261  10.704
60893W        W26054  16.685  36.935   1.736
60894W        W26055  32.078   9.294  14.753
60895W        W26056  17.211   2.713  14.545
60896W        W26057   2.964   5.832  12.836
60897W        W26058   9.193   6.226   0.409
60898W        W26059  31.647  20.223  11.062
60899W        W26060  15.255   4.224  11.094
60900W        W26061  32.789  30.877  14.993
60901W        W26062   4.701  27.401  12.226
60902W        W26063   9.653  38.306   3.699
60903W        W26064  27.897  39.068   1.649
60904W        W26065  12.231  39.996   4.607
60905W        W26066  27.564  24.130   3.349
60906W        W26067  41.507  30.959   4.470
60907W        W26068  37.753  26.694   5.017
60908W        W26069  42.384  39.619   1.823
60909W        W26070  29.569  10.310  14.066
60910W        W26071   2.859  35.653  14.340
60911W        W26072  36.765  41.757  12.082
60912W        W26073   0.393   6.498  12.043
60913W        W26074   8.043   7.183   4.084
60914W        W26075   9.376  12.602  13.397
60915W        W26076  44.332  35.840   1.690
60916W        W26077   1.818   5.446   1.511
60917W        W26078  29.200  24.246  12.242
60918W        W26079   3.490  20.747  12.408
60919W        W26080  25.139  12.399  14.276
60920W        W26081  31.149  26.501   4.174
60921W        W26082  25.043  27.089   0.268
60922W        W26083   7.454  19.716  11.067
60923W        W26084   3.290  27.730  13.507
60924W        W26085   4.279  28.845  11.305
60925W        W26086  30.779  18.962   1.670
60926W        W26087   7.079   8.394  13.285
60927W        W26088   2.863  18.292  12.628
60928W        W26089  19.814  22.548  10.581
60929W        W26090  14.539   0.996   0.871
60930W        W26091  25.096  20.529   2.871
60931W        W26092   1.992   5.319   0.132
60932W        W26093  42.302  37.494   4.022
60933W        W26094  38.535   0.333  12.159
60934W        W26095   7.273  21.806  10.587
60935W        W26096  40.994   9.184   0.039
60936W        W26097   0.005   1.433  13.974
60937W        W26098  40.419  25.818  13.408
60938W        W26099  35.844  12.355   0.262
60939W        W26100  20.194  19.150   3.674
60940W        W26101  16.225  37.852   4.077
60941W        W26102  17.716  38.550   0.465
60942W        W26103  16.614  12.318   2.227
60943W        W26104  38.134  21.120   1.393
60944W        W26105  33.736  12.102   1.258
60945W        W26106  37.672  30.232  10.416
60946W        W26107   8.137  40.557   4.415
60947W        W26108  36.368   0.749   4.617
60948W        W26109  36.241  24.633   3.115
60949W        W26110  36.827   0.902  10.311
60950W        W26111  29.105  26.549   3.110
60951W        W26112  13.181  30.885  11.241
60952W        W26113   3.639  23.101   2.167
60953W        W26114  10.826  14.558  10.467
60954W        W26115   3.232  31.181   3.079
60955W        W26116  12.177   0.800  13.545
60956W        W26117  41.891   7.400   0.995
60957W        W26118  39.310   2.904   3.338
60958W        W26119   1.372   1.813   0.221
60959W        W26120  31.482  18.780   0.006
60960W        W26121  43.048  12.754  10.297
60961W        W26122  10.739  13.752   0.178
60962W        W26123   9.408  44.000   0.993
60963W        W26124   3.695  15.700   1.239
60964W        W26125  17.632  38.972  12.492
60965W        W26126  34.428  42.898  10.673
60966W        W26127  19.235  11.800   4.504
60967W        W26128  19.292  21.810   4.885
60968W        W26129  43.834  14.551   3.248
60969W        W26130  25.234   8.223  14.470
60970W        W26131  31.458   4.254   1.303
60971W        W26132   9.057  25.716  13.970
60972W        W26133  42.014  21.137   4.110
60973W        W26134  42.626  10.356  13.316
60974W        W26135  28.113  11.411   0.171
60975W        W26136   0.665  38.865   2.834
60976W        W26137  21.236  37.916  11.954
60977W        W26138   8.753  10.504   0.832
60978W        W26139   9.912   5.217   4.231
60979W        W26140  12.640  42.988   1.309
60980W        W26141  34.743   6.814   0.345
60981W        W26142  24.398  13.904  12.921
60982W        W26143  39.486  14.256  11.452
60983W        W26144   6.404  22.762   1.256
60984W        W26145  26.940  11.081   3.023
60985W        W26146  27.494  20.197   4.261
60986W        W26147  28.927   2.467   1.400
60987W        W26148  28.113  29.140   2.095
60988W        W26149  23.719  37.277  11.167
60989W        W26150  31.514  39.472  11.873
60990W        W26151  16.996  43.801   4.501
60991W        W26152   2.225  23.744   1.390
60992W        W26153  26.005  39.993   3.909
60993W        W26154  34.792   9.720   3.566
60994W        W26155  28.739  21.787  12.911
60995W        W26156   0.861  15.673   0.189
60996W        W26157  34.913  15.473  12.541
60997W        W26158  37.391  37.154  11.565
60998W        W26159  40.943  11.239   4.268
60999W        W26160  44.292  14.121  14.897
61000W        W26161  41.503  30.035  14.099
61001W        W26162  29.939   0.470   4.966
61002W        W26163  43.775   7.698   0.234
61003W        W26164  36.381   0.858  11.089
61004W        W26165   5.731   5.649  12.506
61005W        W26166   9.359  36.970  14.259
61006W        W26167  22.606  27.108   1.365
61007W        W26168   6.437   5.156   3.380
61008W        W26169  39.951  17.429  11.965
61009W        W26170  21.095  14.314  12.388
61010W        W26171  20.672  25.332   0.326
61011W        W26172  19.056   3.304   4.166
61012W        W26173   4.305   9.139  12.032
61013W        W26174  19.371  41.170   4.504
61014W        W26175  21.257   4.870   1.715
61015W        W26176  14.736  31.993   4.881
61016W        W26177   9.850  23.928   2.411
61017W        W26178   2.479  35.978   2.114
61018W        W26179  33.609   1.139  10.777
61019W        W26180  14.534  12.867   1.378
61020W        W26181  11.335  16.898  12.517
61021W        W26182  21.039   5.764  13.038
61022W        W26183  19.471   0.940  10.377
61023W        W26184   1.277   7.832  11.142
61024W        W26185  43.894  11.883   0.526
61025W        W26186   1.034  34.496  11.313
61026W        W26187  38.078  44.821   3.602
61027W        W26188  43.264  24.516  13.135
61028W        W26189  11.117  21.297   0.236
61029W        W26190  35.905  30.107  14.845
61030W        W26191  16.031   1.300  14.465
61031W        W26192  37.128  37.973   0.307
61032W        W26193  23.735  18.221  12.589
61033W        W26194   2.734   6.400   1.281
61034W        W26195  19.674   7.501  12.025
61035W        W26196  44.564   1.455  11.949
61036W        W26197  26.556  28.657  12.410
61037W        W26198  43.714  15.798  12.765
61038W        W26199   9.387  14.085   1.327
61039W        W26200  31.736  43.801   4.050
61040W        W26201  28.572  26.500  14.842
61041W        W26202  12.668  41.992   4.814
61042W        W26203  40.001  29.964  11.233
61043W        W26204   8.084  20.112  14.484
61044W        W26205  36.635   8.354   0.839
61045W        W26206  36.549   6.369   2.801
61046W        W26207  18.310  41.991   1.558
61047W        W26208  29.921  26.175   3.270
61048W        W26209  33.347  13.816   0.852
61049W        W26210  16.192   4.931   3.687
61050W        W26211  39.749  20.112  13.539
61051W        W26212   0.671  17.162   3.843
61052W        W26213   9.246  43.253  12.489
61053W        W26214  34.041  43.280  14.423
61054W        W26215  18.947  40.080  12.407
61055W        W26216  29.187   0.653   1.779
61056W        W26217  32.956  11.603   1.266
61057W        W26218  23.084  25.506   4.206
61058W        W26219  27.595  23.888   1.913
61059W        W26220  36.707  17.027  13.944
61060W        W26221  27.030   9.649  13.345
61061W        W26222  40.492  39.027   1.356
61062W        W26223  27.942  40.824   2.326
61063W        W26224  40.257   0.432   0.996
61064W        W26225  16.516  30.627   4.594
61065W        W26226  13.378   5.040  14.494
61066W        W26227  13.279  22.784   0.769
61067W        W26228   2.401  15.343   2.835
61068W        W26229  20.053  43.237   0.910
61069W        W26230  34.777  43.864  10.500
61070W        W26231  15.733  31.339  10.857
61071W        W26232   2.169  19.644  10.707
61072W        W26233   0.786  19.160   1.210
61073W        W26234  41.078  40.385  12.119
61074W        W26235   8.048  23.420  14.191
61075W        W26236  29.473   6.981  12.601
61076W        W26237  38.009  37.451   0.362
61077W        W26238  43.890  14.831  14.471
61078W        W26239  41.451  36.390   4.904
61079W        W26240  25.808  32.113  14.405
61080W        W26241  18.271  20.630  11.466
61081W        W26242  28.055  31.580   2.739
61082W        W26243  28.167  42.680  12.989
61083W        W26244  31.442  19.085  14.391
61084W        W26245   5.168   2.003  11.511
61085W        W26246  42.951  16.569  10.719
61086W        W26247   4.985  11.576   4.225
61087W        W26248  38.471   3.662   1.167
61088W        W26249  11.311  18.199   2.490
61089W        W26250  33.853   7.825   4.155
61090W        W26251  28.589  40.563   9.771
61091W        W26252  24.739  39.726   2.602
61092W        W26253  29.634  41.851   1.923
61093W        W26254   5.979   5.361   3.321
61094W        W26255  42.393  15.239  13.081
61095W        W26256  42.383  18.122   2.375
61096W        W26257  10.377  34.857   0.938
61097W        W26258  10.265  13.748  14.930
61098W        W26259  22.007  23.846  10.821
61099W        W26260  23.431  11.286  14.049
61100W        W26261   2.683  26.417   0.256
61101W        W26262   0.980  21.338  10.174
61102W        W26263  11.695  39.993  12.663
61103W        W26264  40.812  44.453  10.566
61104W        W26265  31.458  31.376   3.229
61105W        W26266  21.775  11.839   3.349
61106W        W26267   9.820  24.127  13.819
61107W        W26268  36.373  18.428  11.230
61108W        W26269   0.943  21.508   0.802
61109W        W26270   1.219  38.275   2.490
61110W        W26271   6.393  36.544  11.518
61111W        W26272  33.814  42.760  13.437
61112W        W26273  38.481  40.505  11.469
61113W        W26274   9.867  19.582   2.786
61114W        W26275  15.296  15.039  13.010
61115W        W26276  44.002  26.550   4.194
61116W        W26277   9.644  42.965   3.626
61117W        W26278  41.305  28.973  12.490
61118W        W26279  44.579  38.849   3.969
61119W        W26280  26.081  33.671   3.694
61120W        W26281  33.080  14.115   1.499
61121W        W26282  25.895  31.692   3.319
61122W        W26283  40.545  40.234   2.119
61123W        W26284   6.245  19.140  10.688
61124W        W26285   9.332  21.193  14.041
61125W        W26286  38.660   0.754   1.293
61126W        W26287  41.040  32.685  11.896
61127W        W26288  44.350  18.145  13.883
61128W        W26289  27.178  27.159  13.333
61129W        W26290  42.943   5.895  11.874
61130W        W26291  32.962  22.429   0.435
61131W        W26292  40.169  20.772   4.164
61132W        W26293  17.674  43.949   0.204
61133W        W26294  15.869  35.544  14.484
61134W        W26295  29.527  20.527   0.773
61135W        W26296  27.984   0.664  14.941
61136W        W26297  14.687   1.486  14.538
61137W        W26298  44.024  33.668  12.499
61138W        W26299  36.556  31.902  12.635
61139W        W26300  36.800  30.366   4.985
61140W        W26301  41.505  23.296   0.718
61141W        W26302  39.987  31.537   0.195
61142W        W26303  42.129  27.474  14.773
61143W        W26304   9.111  35.027  14.330
61144W        W26305  10.977  20.204  11.215
61145W        W26306   7.896  21.814   0.862
61146W        W26307  41.766  33.368  12.073
61147W        W26308   1.641  26.306  10.789
61148W        W26309  10.944  15.508  14.855
61149W        W26310   4.892  37.957  13.783
61150W        W26311  24.261  43.431  14.944
61151W        W26312   7.510  24.040   1.413
61152W        W26313  20.199  13.333  10.338
61153W        W26314   8.217  19.330   0.811
61154W        W26315  36.086  36.060   4.138
61155W        W26316  44.454  21.024   0.368
61156W        W26317   4.196  24.489   2.433
61157W        W26318  17.825  19.083  14.445
61158W        W26319  35.708  39.487  12.809
61159W        W26320  32.138  16.024  14.957
61160W        W26321   9.439  38.903  12.072
61161W        W26322   4.479  21.507  10.743
61162W        W26323  14.909  10.925   2.417
61163W        W26324  38.335  42.720  14.847
61164W        W26325  14.388  17.011   1.532
61165W        W26326  28.891  42.899  13.068
61166W        W26327  28.546  25.635   0.246
61167W        W26328  42.533   0.780   1.074
61168W        W26329  14.393   3.305  11.529
61169W        W26330  15.341  28.057   1.819
61170W        W26331  20.160  20.625  13.985
61171W        W26332  36.252  33.445   3.770
61172W        W26333   1.781  15.582  14.970
61173W        W26334  36.493  25.780  10.429
61174W        W26335  16.645  19.861  11.189
61175W        W26336  19.241   3.155  13.090
61176W        W26337  27.143   0.285   4.849
61177W        W26338  27.135  30.177   4.144
61178W        W26339  25.893  15.805  14.372
61179W        W26340  15.179  33.149   2.215
61180W        W26341  32.322   9.574  12.446
61181W        W26342  36.557  37.050   3.549
61182W        W26343  24.925  15.731  10.595
61183W        W26344  42.738  25.631   0.040
61184W        W26345  27.589  37.872  10.760
61185W        W26346  12.134  31.638  13.451
61186W        W26347  13.128  25.158  12.152
61187W        W26348  29.790  13.168  14.872
61188W        W26349  29.008  19.106  14.345
61189W        W26350  39.801  34.461  12.594
61190W        W26351  30.274  44.374   3.041
61191W        W26352  38.435  13.437  14.331
61192W        W26353   1.031   4.244   2.042
61193W        W26354  40.788  40.467   0.815
61194W        W26355   8.003  14.084  10.197
61195W        W26356  41.503  30.529   2.275
61196W        W26357   8.644   4.985  12.024
61197W        W26358  11.324   1.344   4.520
61198W        W26359  31.010  10.922   0.352
61199W        W26360  13.891  18.232  14.496
61200W        W26361  29.188  19.869  11.056
61201W        W26362  40.809  25.032   0.471
61202W        W26363  32.860   9.624  10.879
61203W        W26364  27.680  18.682  13.763
61204W        W26365  41.940  44.430  11.951
61205W        W26366   5.392   5.409  10.724
61206W        W26367   8.366  16.247  13.474
61207W        W26368  35.532  10.748  11.979
61208W        W26369  15.830   6.786  11.619
61209W        W26370  11.126  18.808   1.218
61210W        W26371  32.489  36.597   0.725
61211W        W26372  13.025  34.007  13.073
61212W        W26373  37.578  27.130   2.822
61213W        W26374  44.868  10.409   2.183
61214W        W26375  39.504  39.407  14.495
61215W        W26376  42.284  34.967   0.403
61216W        W26377   1.776  10.187  10.660
61217W        W26378  27.394  23.355   2.830
61218W        W26379   9.801   5.739  13.344
61219W        W26380  42.464   0.774   4.233
61220W        W26381  29.432  36.983  12.552
61221W        W26382  25.517   9.161  12.479
61222W        W26383  25.098  15.264  10.536
61223W        W26384  33.823  17.420   4.443
61224W        W26385   2.368  42.230   0.219
61225W        W26386  10.354  21.789  14.913
61226W        W26387   0.054  16.671  13.953
61227W        W26388   8.409   1.448  14.329
61228W        W26389   0.600  42.535   0.008
61229W        W26390  35.074  10.663   1.946
61230W        W26391  17.685  15.276   1.047
61231W        W26392  32.071  27.635   2.345
61232W        W26393  30.992   7.126  13.434
61233W        W26394  31.443   7.364  13.490
61234W        W26395  29.687  17.730  13.128
61235W        W26396  44.787   5.338  12.966
61236W        W26397  12.147  11.453   2.228
61237W        W26398  31.462  41.757   4.526
61238W        W26399  20.523  29.460   4.856
61239W        W26400  23.051  17.015  12.859
61240W        W26401  26.962  42.538  11.297
61241W        W26402  44.283   0.335   2.785
61242W        W26403   4.303  27.941   0.480
61243W        W26404  38.782  43.927  12.043
61244W        W26405  15.535  10.401   1.339
61245W        W26406  39.149  38.847   2.788
61246W        W26407  42.505  44.619  12.080
61247W        W26408  15.862  18.502  14.303
61248W        W26409  29.741  31.055   3.749
61249W        W26410  43.447  27.640   4.440
61250W        W26411  37.106   0.371  11.841
61251W        W26412  44.462  19.076  11.969
61252W        W26413  25.163  16.555   4.241
61253W        W26414   9.695  15.517   3.753
61254W        W26415   9.181  40.646  11.430
61255W        W26416  42.726  12.580   2.344
61256W        W26417  12.208  32.413  13.013
61257W        W26418  40.547  24.460  13.426
61258W        W26419  39.301  10.157   0.729
61259W        W26420  44.270   6.602  14.051
61260W        W26421  11.330  21.103   4.154
61261W        W26422  11.764  14.584   0.275
61262W        W26423  39.269  27.569   1.309
61263W        W26424   1.548   7.240   0.364
61264W        W26425  16.113  32.112  14.801
61265W        W26426  35.017  36.089  11.490
61266W        W26427  18.489  14.530  11.277
61267W        W26428   2.100  15.859  13.090
61268W        W26429  20.855  29.578  14.809
61269W        W26430  43.056  10.658  14.770
61270W        W26431   1.495  25.648  13.716
61271W        W26432  34.001   3.266  14.877
61272W        W26433  19.336  11.106  11.068
61273W        W26434  30.665   2.541   0.932
61274W        W26435  44.577  42.196   0.905
61275W        W26436   3.360  10.180   3.705
61276W        W26437  31.566  11.151  13.048
61277W        W26438  41.788  32.644   0.835
61278W        W26439  35.197  43.839   3.741
61279W        W26440  41.491  44.663   4.570
61280W        W26441  27.101  18.066   1.300
61281W        W26442  41.668  23.819   1.990
61282W        W26443  16.041  12.254   3.627
61283W        W26444  42.403  28.434   1.223
61284W        W26445  24.179  24.689   3.758
61285W        W26446   0.042  25.639  12.588
61286W        W26447   5.887   8.193   2.748
61287W        W26448  35.327  33.568  10.174
61288W        W26449  39.568   1.725   1.229
61289W        W26450  28.766  23.981  12.126
61290W        W26451  41.363  25.528  11.510
61291W        W26452  44.834  43.307  13.084
61292W        W26453   0.429  36.885   2.280
61293W        W26454  32.845  27.069   4.543
61294W        W26455  26.144   5.106  14.498
61295W        W26456  40.280  21.830  10.832
61296W        W26457  30.763  17.746   3.232
61297W        W26458  23.043   3.966   4.207
61298W        W26459  19.483   8.240  14.612
61299W        W26460  40.776  22.522  12.758
61300W        W26461  23.071  41.983   4.593
61301W        W26462   0.782   9.534  13.498
61302W        W26463  32.331  16.479  12.906
61303W        W26464  27.457  21.522   1.418
61304W        W26465  13.670  28.724  14.261
61305W        W26466   7.769  41.280  10.513
61306W        W26467  39.270  27.439   2.260
61307W        W26468  13.490  13.719  13.630
61308W        W26469  38.895  18.795  12.053
61309W        W26470  15.888  37.576  13.341
61310W        W26471   0.009  34.657   1.854
61311W        W26472  30.895  10.373  13.887
61312W        W26473   5.698  39.575  13.943
61313W        W26474  40.529  26.100   0.702
61314W        W26475  10.692  33.425  11.650
61315W        W26476  16.462  40.845  14.910
61316W        W26477  34.447   7.728   3.502
61317W        W26478  33.022   9.959  13.382
61318W        W26479  12.609  25.606  14.798
61319W        W26480   0.360   4.151  13.104
61320W        W26481  38.734   3.430  10.725
61321W        W26482  39.400  13.748  12.857
61322W        W26483  43.558  19.738  12.320
61323W        W26484  39.558   0.783   1.502
61324W        W26485  44.717   5.731  12.058
61325W        W26486  12.735  38.837  12.891
61326W        W26487  18.953   2.523  14.768
61327W        W26488   3.140  15.819  14.911
61328W        W26489  16.714  44.587   5.042
61329W        W26490  37.103  29.180  13.702
61330W        W26491  11.262  40.378  13.251
61331W        W26492  11.094  14.757   3.798
61332W        W26493  40.810   7.527  12.413
61333W        W26494  36.094  43.901  14.139
61334W        W26495  14.389  33.084   0.849
61335W        W26496  28.861   8.137  13.855
61336W        W26497  10.421  21.191  11.575
61337W        W26498   6.309  19.648  12.905
61338W        W26499  27.789  19.921   2.957
61339W        W26500  35.847   5.347  12.097
61340W        W26501  36.853  33.955  13.160
61341W        W26502   7.184  25.122   0.946
61342W        W26503  38.035  21.590  13.358
61343W        W26504  13.656  40.569   2.999
61344W        W26505  23.268   1.398  11.392
61345W        W26506  39.778  24.999  11.977
61346W        W26507  17.790  24.091  13.817
61347W        W26508   6.459  31.173  14.506
61348W        W26509   4.836  13.167  13.090
61349W        W26510  30.825  24.742   4.053
61350W        W26511  41.360  32.372  13.476
61351W        W26512  40.937  16.254   0.256
61352W        W26513  39.830  12.334   2.713
61353W        W26514  22.212  12.329   4.632
61354W        W26515  33.679  38.638   1.192
61355W        W26516  24.768  41.360  11.594
61356W        W26517  40.483  18.226   0.809
61357W        W26518  25.553  34.581  11.185
61358W        W26519  29.799  29.599  13.813
61359W        W26520  15.687   3.021  10.413
61360W        W26521   1.794  25.952   0.390
61361W        W26522  33.120  37.573  13.984
61362W        W26523  11.711  33.571   9.982
61363W        W26524  38.988  43.667   1.482
61364W        W26525  25.930  35.643  10.244
61365W        W26526   6.607  26.779  11.523
61366W        W26527  42.437  13.654  11.159
61367W        W26528  26.746  35.045  13.361
61368W        W26529  23.967  39.807   2.870
61369W        W26530   6.884  15.138   2.217
61370W        W26531  41.776  13.617   1.340
61371W        W26532   9.335  23.687   1.239
61372W        W26533  18.432   2.448  14.842
61373W        W26534  21.988  14.716   2.270
61374W        W26535  40.572  30.942  10.722
61375W        W26536  23.464  27.647   2.886
61376W        W26537  35.345  33.940   4.097
61377W        W26538  27.796  33.840  12.652
61378W        W26539  29.128  12.883   3.960
61379W        W26540  18.113  36.164  14.203
61380W        W26541   0.412  33.389  11.483
61381W        W26542  42.313   2.621   1.390
61382W        W26543  17.962  14.544  11.923
61383W        W26544   6.782  30.501   3.721
61384W        W26545  18.226  18.056   4.752
61385W        W26546   4.898   1.029  11.045
61386W        W26547  16.549  37.575  11.080
61387W        W26548  30.049   3.912   0.979
61388W        W26549  16.068   5.833   4.107
61389W        W26550  28.471   2.702  12.036
61390W        W26551  20.251  19.088   1.792
61391W        W26552   6.987  24.181   0.479
61392W        W26553  39.979  16.893  13.878
61393W        W26554  40.245  27.541  12.911
61394W        W26555  16.615  41.728   1.955
61395W        W26556  40.480  14.557   3.339
61396W        W26557  30.595  38.991  13.757
61397W        W26558  10.285   9.939  11.940
61398W        W26559  42.351  30.473   4.647
61399W        W26560  29.173   0.114   3.114
61400W        W26561   7.838  43.035   3.788
61401W        W26562  32.980  22.744  14.566
61402W        W26563  25.282  43.904   3.133
61403W        W26564  15.025  22.699   3.760
61404W        W26565  34.317  21.938  14.377
61405W        W26566  42.442  23.234  11.604
61406W        W26567  40.532  30.183  11.597
61407W        W26568  32.188  12.121  13.429
61408W        W26569  25.109  30.458  14.229
61409W        W26570  18.105  18.342   4.037
61410W        W26571  25.209  20.961   1.623
61411W        W26572  13.772  19.154   0.976
61412W        W26573  25.104  27.547   4.913
61413W        W26574   4.344  32.563   0.243
61414W        W26575   5.923  40.560  13.865
61415W        W26576  35.477  26.780  14.004
61416W        W26577   0.156  41.478   1.817
61417W        W26578  13.300   6.328  10.556
61418W        W26579  24.195  34.243   0.250
61419W        W26580  22.131  41.113  13.405
61420W        W26581  35.153  37.628  12.915
61421W        W26582  16.539  20.025  12.957
61422W        W26583   0.177   1.481   4.412
61423W        W26584   5.363   0.352  10.668
61424W        W26585  20.598   6.398   1.530
61425W        W26586  40.118  35.876   0.028
61426W        W26587  33.358  38.510   0.774
61427W        W26588  24.243  30.521  12.614
61428W        W26589  25.421  27.646   2.719
61429W        W26590  34.103  43.009  11.266
61430W        W26591   4.414  33.542   4.353
61431W        W26592  13.196  29.160   2.742
61432W        W26593  16.546  20.313  13.444
61433W        W26594   4.942  43.399   1.841
61434W        W26595  35.516  37.619  13.328
61435W        W26596  15.919  33.024  11.748
61436W        W26597   1.355  34.607  12.528
61437W        W26598  43.077  43.927   3.563
61438W        W26599  33.792  30.759   1.499
61439W        W26600  10.276  34.516   3.122
61440W        W26601   1.930  44.218   3.828
61441W        W26602  30.457   6.386   2.298
61442W        W26603  12.794  40.840   1.316
61443W        W26604  15.622  13.759  13.908
61444W        W26605   0.346  43.885   4.440
61445W        W26606  40.853   7.904   1.458
61446W        W26607   2.937  39.485  12.146
61447W        W26608  34.059  19.931  14.280
61448W        W26609  23.506  12.191   3.419
61449W        W26610   4.000  11.231   1.395
61450W        W26611  37.917   3.251   1.832
61451W        W26612   8.207   3.337  13.072
61452W        W26613  22.157  18.769   4.600
61453W        W26614  26.499   6.377  10.665
61454W        W26615  10.371  12.679  10.570
61455W        W26616  19.581   0.862   1.969
61456W        W26617  30.005  30.180  12.354
61457W        W26618   6.483   8.814  12.136
61458W        W26619  34.050   9.195   3.603
61459W        W26620  38.498  10.673   3.881
61460W        W26621  41.983  34.323  12.562
61461W        W26622  17.356  12.829   0.546
61462W        W26623  17.235  17.939   1.755
61463W        W26624  24.948  32.072  12.378
61464W        W26625  21.101  27.485  13.941
61465W        W26626  41.517   9.604  11.149
61466W        W26627  18.317   2.226  13.961
61467W        W26628  13.084  37.492  12.055
61468W        W26629  28.142  16.307  10.398
61469W        W26630  18.131  31.511   3.143
61470W        W26631   3.366  20.830  14.208
61471W        W26632  14.382   5.732  10.709
61472W        W26633  31.981  33.640  10.727
61473W        W26634  12.688   3.338  13.843
61474W        W26635  33.985  15.426   1.281
61475W        W26636  34.368   9.423   1.385
61476W        W26637   8.030   5.008  10.852
61477W        W26638  44.292  25.697   0.777
61478W        W26639  21.293  10.120  10.739
61479W        W26640  17.103  44.681   0.427
61480W        W26641  22.127   3.756   1.320
61481W        W26642  24.709  16.690  10.901
61482W        W26643  43.045  18.574  13.023
61483W        W26644  40.355  28.978  10.761
61484W        W26645  20.742  19.968  11.928
61485W        W26646   3.223   0.829   0.532
61486W        W26647  24.705  16.992   3.411
61487W        W26648   0.356  40.059  10.361
61488W        W26649  20.060  20.220   3.719
61489W        W26650  11.136  41.994   4.103
61490W        W26651  11.190  10.181  13.836
61491W        W26652  36.838  10.163  12.557
61492W        W26653  37.124  36.518   3.501
61493W        W26654  10.805   3.889   1.246
61494W        W26655  20.603  37.772   1.898
61495W        W26656  36.439   5.187   0.409
61496W        W26657  38.027  34.513   0.222
61497W        W26658  20.254  27.207   4.824
61498W        W26659   9.223  10.607  11.509
61499W        W26660  13.404  22.951  11.115
61500W        W26661  10.419  18.996   0.909
61501W        W26662  25.432  44.250   0.903
61502W        W26663  22.113   0.578   4.018
61503W        W26664  43.749  28.952   1.832
61504W        W26665  29.194  27.890   1.344
61505W        W26666  26.089  37.235  13.083
61506W        W26667  39.002  35.900  11.719
61507W        W26668  43.030   2.198  12.594
61508W        W26669  34.965  13.825   0.500
61509W        W26670  44.966  19.955   3.204
61510W        W26671   5.298  13.207   0.362
61511W        W26672   7.737  33.011   2.735
61512W        W26673  11.720  31.011  12.982
61513W        W26674  33.191  26.731   0.619
61514W        W26675  43.334   2.797  11.994
61515W        W26676  39.564  34.978  13.816
61516W        W26677  23.704   4.383  13.437
61517W        W26678  22.547  30.988   0.281
61518W        W26679  25.547  42.329  14.825
61519W        W26680  29.419  24.751   1.399
61520W        W26681   8.403  43.491  14.444
61521W        W26682   7.541  24.152  12.079
61522W        W26683  14.745  12.105  14.261
61523W        W26684  39.276  44.016  12.047
61524W        W26685   4.359   1.065  11.064
61525W        W26686   9.963  19.030  12.110
61526W        W26687  13.521  17.744   0.279
61527W        W26688   2.623   3.738   0.754
61528W        W26689  19.045  32.743   2.291
61529W        W26690  37.161  19.497  14.101
61530W        W26691  34.258   1.002   3.190
61531W        W26692   5.219  13.691  12.555
61532W        W26693  12.173  33.375   2.740
61533W        W26694  11.747  22.470   4.157
61534W        W26695  20.395  31.817   1.960
61535W        W26696  19.140  21.356   5.083
61536W        W26697   5.370   7.598   0.476
61537W        W26698  13.880  32.953  11.587
61538W        W26699  16.590  15.193  11.042
61539W        W26700  37.065  11.381   4.503
61540W        W26701  22.723  29.904  11.600
61541W        W26702  41.463   2.270  13.111
61542W        W26703  11.298  40.814  14.445
61543W        W26704   7.654   2.427   2.649
61544W        W26705  35.085  22.017  14.796
61545W        W26706  19.310  22.660  14.961
61546W        W26707  37.099  24.908   1.914
61547W        W26708  17.370  19.592   1.989
61548W        W26709  24.086  27.146   4.859
61549W        W26710  39.541  21.209  12.414
61550W        W26711  39.638  21.994   0.766
61551W        W26712  28.923  24.957   1.334
61552W        W26713  27.585   0.589  10.791
61553W        W26714  16.162  28.277   3.737
61554W        W26715  25.776  11.581   3.124
61555W        W26716   6.513  43.426   4.142
61556W        W26717  38.554  21.439  12.109
61557W        W26718   2.382  10.840   1.802
61558W        W26719  37.463  12.619  13.141
61559W        W26720  37.966  24.666  11.853
61560W        W26721  36.904  38.535   4.145
61561W        W26722  43.015   2.832  11.601
61562W        W26723  41.394  22.192   2.956
61563W        W26724  30.638  12.663   4.516
61564W        W26725   1.566  20.492   4.630
61565W        W26726  14.408  23.234   3.260
61566W        W26727   2.504   8.373  12.701
61567W        W26728  18.124   4.304   3.563
61568W        W26729  18.599  34.984   2.105
61569W        W26730  38.562   9.737   0.857
61570W        W26731  35.422   0.465   4.914
61571W        W26732   7.519  38.709  11.236
61572W        W26733  20.179  21.724  12.414
61573W        W26734  14.234  39.201  13.137
61574W        W26735   7.560   7.624   4.093
61575W        W26736  26.010  20.159   2.295
61576W        W26737  37.130  31.334  12.029
61577W        W26738  18.523  11.757   2.156
61578W        W26739  18.553  43.272  13.878
61579W        W26740  12.240  19.226  14.513
61580W        W26741  29.869  40.028   0.391
61581W        W26742   7.460  32.868   4.300
61582W        W26743  44.261   4.914  12.153
61583W        W26744  27.391   1.955   4.045
61584W        W26745   6.771  30.581  10.162
61585W        W26746  25.286  31.103   0.386
61586W        W26747  40.028   3.458  14.065
61587W        W26748  42.312  25.919   0.205
61588W        W26749   3.204  15.692   3.181
61589W        W26750  15.717  23.306  10.629
61590W        W26751   9.167   3.092   0.524
61591W        W26752  34.685  20.990  12.528
61592W        W26753  18.494  35.583   0.764
61593W        W26754  18.670  27.240   4.580
61594W        W26755  26.114  42.756  11.994
61595W        W26756  42.655   5.798  11.460
61596W        W26757  35.596  31.626   2.263
61597W        W26758   9.220   6.256   1.297
61598W        W26759  30.861  37.530   1.805
61599W        W26760   3.632  40.592  10.197
61600W        W26761  19.556   2.682   1.750
61601W        W26762  29.822  12.257   2.302
61602W        W26763  35.119  33.910  11.119
61603W        W26764   4.672  43.994   2.543
61604W        W26765  29.646  34.888   4.373
61605W        W26766  42.468  22.722  11.630
61606W        W26767  25.586  25.784  13.850
61607W        W26768  43.396  17.261   1.245
61608W        W26769   5.998  25.202   1.997
61609W        W26770  12.811  31.681  11.211
61610W        W26771  23.641  36.061   2.383
61611W        W26772  27.987  28.537  13.439
61612W        W26773  41.247  14.116  14.873
61613W        W26774  10.321   7.347   1.890
61614W        W26775   6.716  32.621   2.331
61615W        W26776  16.697   5.202   1.386
61616W        W26777   9.686  41.066   3.785
61617W        W26778  21.748  12.618   2.896
61618W        W26779  19.066  42.214   2.931
61619W        W26780  36.301  12.480   4.493
61620W        W26781  26.915  23.260   1.175
61621W        W26782  25.671  22.953  11.102
61622W        W26783  40.736  25.756   2.181
61623W        W26784  29.491   1.448  12.968
61624W        W26785  14.896  10.726  14.503
61625W        W26786  26.170  14.690  12.286
61626W        W26787  20.348  40.126   3.724
61627W        W26788   6.804  36.798   0.972
61628W        W26789  11.730  31.165  13.905
61629W        W26790  31.842  15.763   1.656
61630W        W26791  28.045  10.232   3.306
61631W        W26792  11.111  24.767  14.972
61632W        W26793  36.323  16.757  12.190
61633W        W26794  40.368   9.230   3.397
61634W        W26795  26.151   2.819   1.717
61635W        W26796  37.057  21.030   1.259
61636W        W26797  40.316  29.940   0.847
61637W        W26798  17.784  12.853  13.279
61638W        W26799  11.578  26.963   0.310
61639W        W26800  34.529  13.213   2.661
61640W        W26801  28.471  32.346  10.769
61641W        W26802   0.078  14.852  11.903
61642W        W26803  41.337  35.753  10.381
61643W        W26804  39.279   2.305  13.566
61644W        W26805  12.657   1.723  11.829
61645W        W26806  10.931  20.240  13.214
61646W        W26807  29.040   4.470  13.326
61647W        W26808  43.148  15.750  10.733
61648W        W26809  31.256  10.648   4.476
61649W        W26810  15.803  37.463   1.582
61650W        W26811  44.184  30.167  11.519
61651W        W26812  32.545  22.370   3.805
61652W        W26813  42.432   0.318  12.590
61653W        W26814  33.893   8.272  14.549
61654W        W26815  15.638  42.061  11.894
61655W        W26816  16.352   3.212   2.747
61656W        W26817   5.749  41.470   3.885
61657W        W26818  13.817   1.439   4.009
61658W        W26819  42.989  24.460  11.515
61659W        W26820  18.220  32.846  10.771
61660W        W26821  16.251   4.125   3.405
61661W        W26822  18.987  27.841   2.350
61662W        W26823  17.469  20.810  14.965
61663W        W26824  29.202   1.302  13.385
61664W        W26825   8.389  29.055  14.257
61665W        W26826  28.234   1.376  10.939
61666W        W26827  12.582   7.836  14.389
61667W        W26828   1.811  20.100  14.242
61668W        W26829  18.131  32.388  11.976
61669W        W26830  11.046  21.729  12.318
61670W        W26831  24.104   5.305  12.509
61671W        W26832  44.837  44.947  10.862
61672W        W26833  32.040  34.555  10.252
61673W        W26834  15.816  41.644   4.614
61674W        W26835   8.945   6.180   0.860
61675W        W26836  31.343   6.549  10.719
61676W        W26837  18.108   6.924   2.752
61677W        W26838  25.916  41.496  12.997
61678W        W26839  16.144  10.855   0.222
61679W        W26840  34.612   6.157  12.994
61680W        W26841  15.870  31.599  12.025
61681W        W26842  15.493  19.046  10.788
61682W        W26843  38.646  11.551   1.471
61683W        W26844  11.154  18.258   1.992
61684W        W26845  25.148  35.072  14.795
61685W        W26846  27.697  17.651  10.567
61686W        W26847  16.043  36.856   0.859
61687W        W26848   8.344  28.552  12.408
61688W        W26849  31.863  14.794   3.928
61689W        W26850  44.434  30.677  12.302
61690W        W26851  18.803   5.886  14.379
61691W        W26852  17.113  37.849  11.504
61692W        W26853   8.233  26.638   3.813
61693W        W26854   8.899  44.242  11.619
61694W        W26855   6.897  37.989  11.085
61695W        W26856   8.387   0.501   3.663
61696W        W26857  42.355  40.789   2.369
61697W        W26858  12.732   3.351  11.717
61698W        W26859  38.404  35.664   0.314
61699W        W26860   8.333  16.606   1.637
61700W        W26861  36.433  10.427   3.154
61701W        W26862  29.592  20.322  12.325
61702W        W26863  11.658  10.010   4.659
61703W        W26864   6.064  42.277  12.060
61704W        W26865  43.789  40.321  12.996
61705W        W26866  29.935  41.039   9.718
61706W        W26867  34.034  20.516   2.809
61707W        W26868  26.299  22.213   1.687
61708W        W26869   3.862  21.919  13.971
61709W        W26870  13.597  42.703  13.937
61710W        W26871  26.165  42.711   1.220
61711W        W26872  14.766  25.704  14.371
61712W        W26873  40.329  12.110  13.133
61713W        W26874   2.459   0.521  12.363
61714W        W26875   0.293  33.608   3.367
61715W        W26876  15.572   9.886  14.978
61716W        W26877  23.207  18.754   2.754
61717W        W26878  23.975  18.025  13.036
61718W        W26879  39.909  14.267   1.179
61719W        W26880  22.834  39.565   1.603
61720W        W26881  20.021  31.138  11.897
61721W        W26882  16.676  36.540  14.425
61722W        W26883  13.641  25.109   2.781
61723W        W26884  36.855  38.934  14.089
61724W        W26885  34.534  41.474   4.542
61725W        W26886  44.517  25.001   3.711
61726W        W26887  31.402  41.416  11.537
61727W        W26888  23.531  11.745  12.259
61728W        W26889   2.085  17.359   2.350
61729W        W26890  44.785  17.497   3.992
61730W        W26891  40.532   5.352  12.153
61731W        W26892  30.307  22.659   5.071
61732W        W26893  37.843  10.226  12.986
61733W        W26894  29.144  17.127   2.399
61734W        W26895   9.801  16.135  13.355
61735W        W26896  31.377   1.202  13.115
61736W        W26897  39.016   9.823   4.910
61737W        W26898  22.251  16.103  10.741
61738W        W26899  19.897  40.609   2.260
61739W        W26900  42.300  15.685  12.785
61740W        W26901  41.768  24.953  14.276
61741W        W26902  40.747  43.995  13.508
61742W        W26903  10.308  18.196  11.419
61743W        W26904  10.404   0.850   2.141
61744W        W26905  19.796  40.493  12.161
61745W        W26906  19.530  43.913  13.531
61746W        W26907  32.567  36.435  11.179
61747W        W26908  43.993  10.391   4.641
61748W        W26909  32.469   4.901  13.403
61749W        W26910   1.516  19.409  13.431
61750W        W26911   9.632  40.514   3.186
61751W        W26912  27.420  29.980   3.748
61752W        W26913  43.961  23.659   2.860
61753W        W26914   2.936   8.902  13.915
61754W        W26915  16.936  20.246  14.742
61755W        W26916  43.415  39.384  14.738
61756W        W26917   0.946   2.224  11.038
61757W        W26918  36.445   0.791  11.583
61758W        W26919  24.100  11.342   2.921
61759W        W26920  21.897  13.356  10.669
61760W        W26921  17.337   3.582   1.233
61761W        W26922   6.314  42.785  13.401
61762W        W26923  31.176  35.029  14.338
61763W        W26924  28.010  19.995  10.673
61764W        W26925  17.413  12.104   0.953
61765W        W26926  16.785  43.870   0.685
61766W        W26927  33.995  27.060  11.661
61767W        W26928  23.051   6.945   2.402
61768W        W26929   7.779  14.907  11.821
61769W        W26930  23.125  26.745  11.616
61770W        W26931  16.562  34.521   1.780
61771W        W26932  19.265  21.189  10.721
61772W        W26933   1.438  29.565  12.861
61773W        W26934  42.629   0.783  14.892
61774W        W26935  42.744  21.421  10.546
61775W        W26936  14.245  26.039   1.412
61776W        W26937  16.323   6.927  12.844
61777W        W26938   6.372  11.846   1.737
61778W        W26939  14.572  13.520  14.665
61779W        W26940   2.966  41.186   4.980
61780W        W26941  41.300  20.648  10.771
61781W        W26942  29.390  11.886  10.317
61782W        W26943  17.958  37.757  12.691
61783W        W26944  24.906   7.184   3.257
61784W        W26945  16.157  34.455   1.374
61785W        W26946  31.322  11.801  14.490
61786W        W26947   1.903  31.413  14.380
61787W        W26948  29.975  10.745  12.526
61788W        W26949  43.301  16.835   3.262
61789W        W26950  20.297   8.010   3.217
61790W        W26951  32.103  24.777  12.037
61791W        W26952  17.969   1.257  12.382
61792W        W26953  35.967  36.403  14.556
61793W        W26954  41.896   6.311  12.738
61794W        W26955  21.046   0.444  13.947
61795W        W26956  19.621  24.080   5.026
61796W        W26957  29.196  20.130   0.779
61797W        W26958  21.739   7.270  10.512
61798W        W26959  14.290  22.519   2.609
61799W        W26960  43.093  43.306  13.627
61800W        W26961  25.044  36.775  11.889
61801W        W26962  14.653   9.083   2.550
61802W        W26963  10.143  16.517  13.874
61803W        W26964  30.226  19.134  12.856
61804W        W26965  12.041  38.528   3.309
61805W        W26966  23.129   4.720  12.455
61806W        W26967  19.330  15.292  12.681
61807W        W26968  34.616   4.519  12.580
61808W        W26969  39.669  21.453   3.623
61809W        W26970  41.352  41.602   4.275
61810W        W26971   1.427  19.039  13.032
61811W        W26972  41.779   8.961  12.888
61812W        W26973  29.706   1.861  11.531
61813W        W26974  27.380   2.523   0.337
61814W        W26975  27.933  10.659   9.890
61815W        W26976  24.500  13.339   1.171
61816W        W26977   0.029   5.516   0.127
61817W        W26978  31.061  19.186   3.274
61818W        W26979  43.219  41.981  13.514
61819W        W26980   1.347   6.625   4.295
61820W        W26981  41.707  14.458   0.915
61821W        W26982  28.551  43.920   0.798
61822W        W26983  12.342  36.117   4.233
61823W        W26984  29.556  13.308   0.418
61824W        W26985   5.380  31.774  12.470
61825W        W26986  30.576   3.725   3.146
61826W        W26987   1.199  13.778  13.907
61827W        W26988  30.009  30.917  10.784
61828W        W26989  26.689  17.240  13.838
61829W        W26990  17.524  20.014   0.374
61830W        W26991   4.369   3.721  10.581
61831W        W26992  44.509  16.207  12.934
61832W        W26993   3.496  35.052   2.664
61833W        W26994  32.110   2.251   3.056
61834W        W26995  20.878  41.473   3.904
61835W        W26996  11.057  31.003   0.533
61836W        W26997  18.889  38.719  12.189
61837W        W26998  27.000  28.515  12.019
61838W        W26999   9.632   0.426   0.349
61839W        W27000  10.536  40.212  10.219
61840W        W27001  19.310  33.425  12.018
61841W        W27002  32.214  29.392   2.827
61842W        W27003  36.071   5.747   4.150
61843W        W27004  41.931  31.723  14.903
61844W        W27005  21.054  25.459  12.967
61845W        W27006  37.379  31.581  14.305
61846W        W27007  28.464  34.336   3.737
61847W        W27008  24.073  32.556  13.377
61848W        W27009  39.734  38.518  11.111
61849W        W27010   3.263  28.959   3.731
61850W        W27011  38.870  16.834   0.534
61851W        W27012  42.252   7.184  13.974
61852W        W27013  13.040  18.368   4.793
61853W        W27014  22.528  39.945   1.406
61854W        W27015  30.234  30.248   2.251
61855W        W27016  26.883  19.657  12.301
61856W        W27017  23.265  18.535  14.777
61857W        W27018   8.403  24.954   2.678
61858W        W27019   3.471   0.688  12.955
61859W        W27020  20.436  38.076   2.313
61860W        W27021  34.689  19.806  13.351
61861W        W27022  20.842   8.224  10.450
61862W        W27023  43.396   0.851   9.306
61863W        W27024  41.767  34.865   0.447
61864W        W27025  43.822  24.634  12.072
61865W        W27026  43.801   3.490  14.564
61866W        W27027  31.587   7.382   0.985
61867W        W27028   1.939  27.700   4.641
61868W        W27029  22.585   3.761   1.929
61869W        W27030   4.581  23.119  10.743
61870W        W27031  39.879  22.280   0.355
61871W        W27032  24.735  23.626  12.025
61872W        W27033  41.719  42.905   0.891
61873W        W27034  22.987   2.042   3.623
61874W        W27035   3.075  19.988  11.581
61875W        W27036  31.744  19.859   3.111
61876W        W27037   3.179  12.322   4.181
61877W        W27038  37.676   5.124   1.040
61878W        W27039  16.305  16.738  14.465
61879W        W27040  42.865  18.998   1.425
61880W        W27041  31.423   2.185  10.767
61881W        W27042   2.202   5.432  13.360
61882W        W27043   4.658  30.045  11.996
61883W        W27044   5.857  44.738   0.395
61884W        W27045  40.564  40.810   1.278
61885W        W27046  24.366   9.451  11.262
61886W        W27047  36.538  42.724   2.763
61887W        W27048  44.253  18.108   5.030
61888W        W27049   3.876  16.289  12.107
61889W        W27050  41.303  20.692  14.829
61890W        W27051  12.101  11.463  12.948
61891W        W27052  40.751  44.886  12.099
61892W        W27053   8.956  20.568   1.872
61893W        W27054  37.637  40.663  13.889
61894W        W27055  18.664   4.718   2.759
61895W        W27056  43.447  23.052  14.015
61896W        W27057   6.255  14.221   3.797
61897W        W27058  25.602  24.094  14.545
61898W        W27059  23.764  24.855  11.559
61899W        W27060  16.357  14.673  13.119
61900W        W27061   0.309   2.243   2.986
61901W        W27062  28.372  11.780  12.370
61902W        W27063  34.438  15.413   3.669
61903W        W27064  16.042  37.420  12.071
61904W        W27065  40.329  43.707  12.831
61905W        W27066   2.854  29.108   4.608
61906W        W27067   9.674  33.748  12.799
61907W        W27068  31.824  11.881  13.114
61908W        W27069  26.140  18.448  13.826
61909W        W27070  20.666  14.092   4.700
61910W        W27071  36.517  13.517   4.481
61911W        W27072  42.891  32.659  12.168
61912W        W27073  15.121  29.614   4.689
61913W        W27074  10.408  41.040  11.559
61914W        W27075  31.742  38.144  11.993
61915W        W27076  34.956  27.175  10.372
61916W        W27077   1.492  13.091  11.606
61917W        W27078   1.865  21.269   3.148
61918W        W27079  23.401  20.182  11.037
61919W        W27080  10.113  33.160  14.976
61920W        W27081  29.170  30.049   2.339
61921W        W27082  15.217  26.138   1.754
61922W        W27083  24.135  38.300   1.339
61923W        W27084  40.771  13.827   1.453
61924W        W27085   9.156  32.490  13.850
61925W        W27086   7.667  24.028   4.022
61926W        W27087  18.683  30.352  10.330
61927W        W27088  24.453   9.414   1.254
61928W        W27089   8.760  37.882  11.641
61929W        W27090  44.931  15.782  13.239
61930W        W27091   6.870  40.897  12.896
61931W        W27092  28.578  39.353  10.295
61932W        W27093  40.901  36.570   4.239
61933W        W27094   5.750   3.615  13.854
61934W        W27095  17.811  33.998   1.715
61935W        W27096  28.818  44.551   3.703
61936W        W27097  36.873   4.817  13.849
61937W        W27098  33.553  30.519   0.056
61938W        W27099  21.232  42.073   2.694
61939W        W27100  24.903   9.743   1.243
61940W        W27101  16.548  32.060  10.949
61941W        W27102  16.603   3.234  14.935
61942W        W27103  10.740  28.484   3.175
61943W        W27104  28.456   5.426  12.432
61944W        W27105  21.267  44.720   3.700
61945W        W27106  37.924   2.270   0.288
61946W        W27107   4.835  24.786   1.835
61947W        W27108  35.075  23.023  14.924
61948W        W27109   2.907  25.555   4.130
61949W        W27110  25.485  20.083   2.291
61950W        W27111  13.759   9.195   2.244
61951W        W27112  29.474   6.647  14.387
61952W        W27113  27.754  28.135   2.802
61953W        W27114   4.358  28.514  11.700
61954W        W27115  36.833  26.763   0.020
61955W        W27116  14.828  41.068  12.997
61956W        W27117   6.263  13.645   4.647
61957W        W27118  13.611   7.164   3.497
61958W        W27119   2.112  11.347  11.877
61959W        W27120  10.324  36.398  14.438
61960W        W27121   6.723  22.025   0.850
61961W        W27122   8.337   0.886   1.853
61962W        W27123  30.438   6.810  14.091
61963W        W27124  33.551  30.191   4.145
61964W        W27125  41.849   2.314  12.160
61965W        W27126  33.716  33.500  12.706
61966W        W27127  14.834  37.430   0.879
61967W        W27128   4.175  35.948  12.498
61968W        W27129  27.903  35.662  13.850
61969W        W27130  25.981   4.167   2.263
61970W        W27131  16.886  37.848   0.530
61971W        W27132  16.291  24.147  12.451
61972W        W27133  12.306   0.784   0.809
61973W        W27134  15.650   5.929   0.903
61974W        W27135  11.812  23.159  13.574
61975W        W27136  38.907  17.577   1.878
61976W        W27137   1.392  12.335   0.001
61977W        W27138  17.283  24.082  13.817
61978W        W27139  12.981   8.329   1.931
61979W        W27140  20.133  34.050  14.014
61980W        W27141  25.661  25.921  10.671
61981W        W27142   6.916  44.702  12.582
61982W        W27143  33.505  23.148   9.922
61983W        W27144  38.422  38.391   0.817
61984W        W27145   7.948  17.183   3.249
61985W        W27146  31.741   5.229   0.320
61986W        W27147  13.959   7.209  14.365
61987W        W27148  13.191  18.079   3.806
61988W        W27149  13.953   7.674  12.529
61989W        W27150  32.243  41.486  13.862
61990W        W27151  31.379  37.573   1.900
61991W        W27152  16.192  32.509   2.133
61992W        W27153   6.243   0.062   0.507
61993W        W27154  27.958   0.464  12.487
61994W        W27155   3.740   1.386   0.837
61995W        W27156  10.216   1.679   0.401
61996W        W27157   2.880   5.168   1.745
61997W        W27158   0.212  11.973   3.957
61998W        W27159   0.404   6.436   3.633
61999W        W27160  22.163  23.896   0.648
62000W        W27161  25.826  36.338   4.970
62001W        W27162   3.480  32.642  13.110
62002W        W27163  26.917  44.585  11.182
62003W        W27164   4.739  24.738  12.758
62004W        W27165  32.097  15.921   5.018
62005W        W27166  19.394  32.686  10.669
62006W        W27167   4.874   8.230  11.467
62007W        W27168  32.758  22.509  10.715
62008W        W27169  16.265  34.070   1.734
62009W        W27170  29.563  14.906   2.722
62010W        W27171  18.879   3.746  12.372
62011W        W27172   8.870  19.707  14.315
62012W        W27173  25.050  36.486  13.529
62013W        W27174  32.957  32.915  13.431
62014W        W27175  12.082  32.545   1.482
62015W        W27176  17.859   4.737  10.387
62016W        W27177  42.529  41.751  12.970
62017W        W27178  44.618  32.679   1.008
62018W        W27179  28.825  27.991  14.981
62019W        W27180  22.232   9.876  11.696
62020W        W27181  33.099  32.908   0.419
62021W        W27182  13.200  12.051  13.214
62022W        W27183   2.989  27.581  12.082
62023W        W27184  16.795  11.448  12.504
62024W        W27185  18.655  26.134   3.798
62025W        W27186   2.947  22.430  12.080
62026W        W27187  18.690  23.575  11.633
62027W        W27188  29.016  23.672   0.855
62028W        W27189  19.728  34.786  11.494
62029W        W27190  28.599  36.822   1.510
62030W        W27191  25.291  41.590   2.721
62031W        W27192   8.061  14.364   4.975
62032W        W27193  14.709  34.010   0.981
62033W        W27194  24.214   5.385  13.445
62034W        W27195  31.205  28.137   2.227
62035W        W27196  31.991  26.104   0.375
62036W        W27197  33.669  41.388  14.969
62037W        W27198  22.557  22.107  13.488
62038W        W27199  12.534  37.109  14.777
62039W        W27200  33.889   4.427  10.544
62040W        W27201   9.201  13.307  14.468
62041W        W27202  24.811  12.348  14.726
62042W        W27203  39.461  40.628  11.475
62043W        W27204  25.051  30.116  12.384
62044W        W27205  21.065  11.329  11.567
62045W        W27206  14.605  39.271   2.430
62046W        W27207   2.959  12.125   1.957
62047W        W27208  14.332  19.188   3.772
62048W        W27209  19.785  13.887  11.038
62049W        W27210  20.845  19.506  12.121
62050W        W27211  30.331   4.602   1.982
62051W        W27212   0.834  33.391   0.200
62052W        W27213  37.123  18.183   0.580
62053W        W27214  20.090  33.927  12.935
62054W        W27215  32.569  23.269   0.320
62055W        W27216  40.070   7.250  13.618
62056W        W27217  15.819  26.155   0.835
62057W        W27218  40.923  20.511  12.040
62058W        W27219  25.911   8.151   3.184
62059W        W27220  21.150  37.289  13.670
62060W        W27221  15.821  36.772  11.026
62061W        W27222  32.584  25.774   1.237
62062W        W27223  11.819  33.873  13.496
62063W        W27224  29.224  12.143   0.421
62064W        W27225  12.134  28.781   0.824
62065W        W27226   8.886  16.408   4.314
62066W        W27227  32.443  42.312   0.828
62067W        W27228  24.238   8.747   2.857
62068W        W27229  22.040  11.618   0.223
62069W        W27230   7.707  42.568   0.943
62070W        W27231   6.391  19.845  13.382
62071W        W27232   4.313   2.925  13.026
62072W        W27233  19.285  30.577  11.641
62073W        W27234  17.550  38.814  10.791
62074W        W27235  28.579  17.698   1.987
62075W        W27236   2.310   5.178   3.284
62076W        W27237  31.450   2.926   2.905
62077W        W27238  43.986   5.327  13.879
62078W        W27239  36.906  30.890  12.114
62079W        W27240  12.716  10.868   0.396
62080W        W27241  19.186  23.609   5.124
62081W        W27242  21.091  12.544  13.891
62082W        W27243   7.741   9.211  12.685
62083W        W27244  12.223   1.234  14.869
62084W        W27245  35.006  21.364   1.515
62085W        W27246  14.131  24.250   1.541
62086W        W27247  34.106  11.424   0.774
62087W        W27248  23.046  18.847  13.414
62088W        W27249   9.147  12.939   3.287
62089W        W27250  11.493   5.411   4.394
62090W        W27251  38.016  28.666  13.464
62091W        W27252  11.218   2.021  11.605
62092W        W27253  10.000  38.067  11.976
62093W        W27254  25.345  14.425  13.452
62094W        W27255  11.645  39.445   1.913
62095W        W27256  42.322  41.187   3.901
62096W        W27257  43.059  36.146   2.956
62097W        W27258  13.056  30.458   1.844
62098W        W27259  31.182  22.754  13.122
62099W        W27260  16.648   2.360  12.484
62100W        W27261   0.239  24.578  10.695
62101W        W27262  14.055  30.515  12.999
62102W        W27263  23.580   5.968  14.873
62103W        W27264   1.009  25.472   4.139
62104W        W27265  18.314  44.866   2.343
62105W        W27266  31.237  11.365   2.168
62106W        W27267  41.610  16.698  14.680
62107W        W27268  20.770   8.247   1.017
62108W        W27269  12.823   5.786   4.854
62109W        W27270  16.911  21.603   4.686
62110W        W27271   9.711  36.601   4.149
62111W        W27272  28.718  11.622  14.357
62112W        W27273  22.641   1.454  14.961
62113W        W27274  11.344  12.536  14.791
62114W        W27275  18.010  39.402   2.230
62115W        W27276  28.457  40.844  12.958
62116W        W27277  26.477  17.582   4.116
62117W        W27278  16.859   0.073  13.230
62118W        W27279  21.370  13.843  14.009
62119W        W27280  27.594   6.955   2.157
62120W        W27281   9.301  20.742   3.347
62121W        W27282  43.274  15.826   2.155
62122W        W27283  36.773   9.479  14.958
62123W        W27284  39.361  26.594  13.859
62124W        W27285   8.925  28.847  13.019
62125W        W27286  28.837  12.065  12.404
62126W        W27287  44.504  31.392  13.024
62127W        W27288  41.762   5.592  14.280
62128W        W27289  36.946  39.194   2.270
62129W        W27290   9.518  24.160   2.790
62130W        W27291   7.754  40.195   1.257
62131W        W27292  17.357  19.129   3.618
62132W        W27293  22.802  22.622  12.084
62133W        W27294  32.328  30.764   4.351
62134W        W27295  11.122  34.521   4.680
62135W        W27296   5.268  35.462   1.130
62136W        W27297  40.517  43.550  14.740
62137W        W27298  35.866  18.974  13.281
62138W        W27299  24.002  27.709   3.674
62139W        W27300  23.642  10.354   3.765
62140W        W27301  14.317  17.102   4.587
62141W        W27302  12.296  35.461  12.944
62142W        W27303   1.003  22.180  11.458
62143W        W27304  43.323  10.345   4.109
62144W        W27305   7.692  38.954  10.826
62145W        W27306  32.202   8.584   3.391
62146W        W27307   6.247  36.383  10.496
62147W        W27308   0.825   8.902  13.538
62148W        W27309  20.571  41.752  11.197
62149W        W27310  33.117   4.973  12.011
62150W        W27311  32.576  14.005  11.507
62151W        W27312  30.888   8.722  10.828
62152W        W27313  29.894  19.654  14.029
62153W        W27314  26.777  43.378   4.658
62154W        W27315  24.305  27.737  10.669
62155W        W27316  25.684  41.474   1.400
62156W        W27317   2.980  29.435   3.727
62157W        W27318  38.287  31.361  14.723
62158W        W27319  12.724  40.930   2.202
62159W        W27320  16.572  29.349   3.672
62160W        W27321  35.799  16.851   2.866
62161W        W27322  40.016  13.812   0.996
62162W        W27323  21.336  40.065   1.714
62163W        W27324   7.174  35.806   1.308
62164W        W27325   2.059  34.642  12.339
62165W        W27326  34.993   8.632  11.547
62166W        W27327  22.556  25.087  10.163
62167W        W27328  11.421  12.233   1.395
62168W        W27329  27.603  36.021   4.802
62169W        W27330   2.571  40.701  12.824
62170W        W27331  17.936   0.318   1.005
62171W        W27332   0.045  42.278  11.587
62172W        W27333   7.698  22.317   5.132
62173W        W27334  42.369  40.016  11.083
62174W        W27335  35.709  30.493   0.899
62175W        W27336  17.057  29.845  14.521
62176W        W27337  22.448  40.914   3.683
62177W        W27338  38.888  43.762  13.944
62178W        W27339  20.007  18.852  10.686
62179W        W27340   1.969   3.882  12.440
62180W        W27341  37.875  33.405   2.116
62181W        W27342  43.432  21.694  14.239
62182W        W27343  26.186  16.323  13.595
62183W        W27344  42.890  21.547  12.842
62184W        W27345  12.691  31.509   1.907
62185W        W27346  20.102  20.635  12.084
62186W        W27347  38.937  21.271  12.431
62187W        W27348   0.987  18.542  10.720
62188W        W27349   2.696   7.471  12.168
62189W        W27350  30.708  43.780   0.423
62190W        W27351  40.360   7.077  10.700
62191W        W27352  41.056  44.821  13.830
62192W        W27353  19.119  43.723   3.173
62193W        W27354  20.014  34.159   3.735
62194W        W27355  32.842   3.388   2.890
62195W        W27356  16.620  10.684   0.394
62196W        W27357  39.465  40.918  13.676
62197W        W27358  23.274  35.957  12.176
62198W        W27359   4.305  32.193  13.456
62199W        W27360  39.462  41.571   2.318
62200W        W27361  13.787  29.960   2.822
62201W        W27362   9.684   6.133   3.212
62202W        W27363  42.856   6.242   1.008
62203W        W27364   0.387   0.749  11.814
62204W        W27365  12.341  14.427   0.931
62205W        W27366  21.839  24.025  14.310
62206W        W27367  41.281  22.487   2.154
62207W        W27368   7.168  24.454  14.319
62208W        W27369   2.300  36.818   4.231
62209W        W27370  21.109  19.017  13.760
62210W        W27371  44.856   5.118  10.877
62211W        W27372   5.121  15.615   2.082
62212W        W27373  41.218   3.381   1.828
62213W        W27374  31.733  29.358  11.951
62214W        W27375  25.701   5.414   2.365
62215W        W27376   6.954  33.102   2.267
62216W        W27377  39.378   4.938  11.120
62217W        W27378  26.531  27.581   4.880
62218W        W27379   8.890  35.447  12.057
62219W        W27380  24.595  22.664  12.027
62220W        W27381  14.171   7.646   1.807
62221W        W27382  34.428  16.781   3.362
62222W        W27383  31.889   2.791  12.423
62223W        W27384  36.579  18.319   3.300
62224W        W27385  39.675  16.686  14.459
62225W        W27386  10.390   2.320   2.586
62226W        W27387   0.387  13.283  13.860
62227W        W27388  12.120  21.563   3.986
62228W        W27389  24.746  14.582   2.867
62229W        W27390  18.679  14.296   4.962
62230W        W27391  40.512  19.956   2.187
62231W        W27392   6.426  22.428   3.343
62232W        W27393   5.315  26.928  11.772
62233W        W27394  19.360  39.020   1.864
62234W        W27395  19.811   4.753   1.723
62235W        W27396   1.882  17.093  14.965
62236W        W27397  28.445   0.480  10.700
62237W        W27398  33.581  38.941  11.239
62238W        W27399   9.621  17.620  10.613
62239W        W27400  30.503  25.121  14.393
62240W        W27401  10.640  16.548   2.708
62241W        W27402   9.694   7.851   1.949
62242W        W27403   2.056  20.585  13.553
62243W        W27404  26.983  22.799  14.389
62244W        W27405  23.542   1.862   0.406
62245W        W27406  19.486  13.452  13.954
62246W        W27407  22.607   9.629   1.308
62247W        W27408   9.135  41.995   1.293
62248W        W27409   0.357  26.424  14.274
62249W        W27410  24.448  27.179  13.124
62250W        W27411  25.112  41.955  13.986
62251W        W27412   9.153  42.654  13.310
62252W        W27413  13.544  24.849  12.145
62253W        W27414  19.199  39.367  13.501
62254W        W27415  26.639   7.397   3.400
62255W        W27416  39.576  16.701  10.511
62256W        W27417  24.787  31.522   1.812
62257W        W27418   3.296   0.004  11.136
62258W        W27419  20.645   7.264  14.244
62259W        W27420   2.364  14.160  14.331
62260W        W27421  20.768  28.397  12.578
62261W        W27422  34.591  16.808  14.584
62262W        W27423  25.773  16.660  13.687
62263W        W27424  28.607  30.382   3.859
62264W        W27425   7.843  11.146  14.934
62265W        W27426  22.493  13.603  11.805
62266W        W27427  37.063   1.323   2.953
62267W        W27428  22.594  38.900   5.047
62268W        W27429   1.779  15.215  14.611
62269W        W27430  20.011  14.377  12.953
62270W        W27431   1.557  44.360  12.845
62271W        W27432  34.601   4.753  10.463
62272W        W27433  23.591  35.590   2.677
62273W        W27434  31.356  41.409   2.242
62274W        W27435  17.287  25.016   1.887
62275W        W27436  16.673   9.241   4.832
62276W        W27437  34.378   8.147  12.203
62277W        W27438  43.176  35.082   1.723
62278W        W27439  15.293  38.348  11.729
62279W        W27440  29.362   6.750  13.077
62280W        W27441   9.616  39.630   3.286
62281W        W27442  22.207  21.706   3.351
62282W        W27443   8.205  25.163  13.877
62283W        W27444  11.278  41.108   0.290
62284W        W27445  34.924  11.373   0.793
62285W        W27446  12.840  18.704   0.530
62286W        W27447  44.987  14.860  11.102
62287W        W27448  25.269   7.400   2.457
62288W        W27449  32.290  30.743  12.063
62289W        W27450  41.973   2.192   3.271
62290W        W27451  29.926   2.799  11.034
62291W        W27452  27.765  31.079   1.218
62292W        W27453  40.013   5.264  14.438
62293W        W27454  31.912  27.889   4.076
62294W        W27455  10.057  30.647  14.841
62295W        W27456  36.314  14.724   1.067
62296W        W27457  14.899  13.537   3.040
62297W        W27458  24.971   2.370   4.531
62298W        W27459   5.212  18.752   3.670
62299W        W27460  15.113   6.364  13.511
62300W        W27461  31.254  23.468  14.457
62301W        W27462  26.144  20.467  11.494
62302W        W27463   9.700  42.623  12.002
62303W        W27464   4.833  15.465  13.917
62304W        W27465   5.402  42.562   1.121
62305W        W27466  28.089  16.607  13.079
62306W        W27467   5.232  39.306  13.986
62307W        W27468  18.702  26.399   4.857
62308W        W27469  20.784  28.188  13.098
62309W        W27470  31.850  20.783   1.077
62310W        W27471   5.163  29.236  13.938
62311W        W27472   7.945   5.166  12.989
62312W        W27473  35.033   0.752  10.705
62313W        W27474  41.460   4.203   1.443
62314W        W27475  22.013  31.842   0.339
62315W        W27476  10.535  37.798   2.435
62316W        W27477   6.407  31.968  14.246
62317W        W27478  21.732   8.110   3.541
62318W        W27479  32.937  23.205  14.300
62319W        W27480   9.651  16.726   1.454
62320W        W27481  20.667  33.718   4.176
62321W        W27482   6.967  40.384   0.550
62322W        W27483  21.315  20.915  12.714
62323W        W27484  35.606  24.102   4.237
62324W        W27485   2.440  20.565  10.681
62325W        W27486  15.088  32.443   0.712
62326W        W27487  16.429  19.636   0.502
62327W        W27488  32.887  28.020   1.380
62328W        W27489   6.515  13.130  12.476
62329W        W27490  27.198  39.273   0.174
62330W        W27491  30.390  22.146   5.064
62331W        W27492   2.623  33.975  12.542
62332W        W27493  34.844  33.581  11.642
62333W        W27494   5.160   4.634   0.289
62334W        W27495  42.031  14.217   4.697
62335W        W27496  21.249  26.175  14.038
62336W        W27497  27.726   6.910   3.390
62337W        W27498   7.998  41.758  14.369
62338W        W27499  26.440  35.484  11.597
62339W        W27500  27.605  13.714   2.802
62340W        W27501  29.956  27.015  11.117
62341W        W27502  44.287  32.385  12.053
62342W        W27503   6.144   8.159   3.667
62343W        W27504  39.774  29.633   2.346
62344W        W27505   3.467  38.889   1.736
62345W        W27506  25.012  41.988   1.893
62346W        W27507  15.400  27.079  10.528
62347W        W27508  39.668   2.013   3.662
62348W        W27509  21.287   1.271   3.001
62349W        W27510  26.097   0.940   4.739
62350W        W27511  44.539  44.259  11.523
62351W        W27512  14.598  38.808  13.461
62352W        W27513   4.251  37.863   2.447
62353W        W27514  34.180  17.743   0.338
62354W        W27515  40.740  10.854  11.580
62355W        W27516  31.085  30.247   4.701
62356W        W27517  20.157  41.887  13.012
62357W        W27518   7.917  16.701  11.602
62358W        W27519  14.124  24.579   3.408
62359W        W27520   6.464  24.767   1.742
62360W        W27521   7.017  35.856  13.770
62361W        W27522  36.860  16.612   3.654
62362W        W27523  25.493   3.255   4.741
62363W        W27524  43.353   8.748   2.634
62364W        W27525  16.827  32.115   0.966
62365W        W27526  18.366  34.053   1.707
62366W        W27527  25.774  24.672  12.013
62367W        W27528  30.324   2.261  14.371
62368W        W27529   0.752  42.044  14.326
62369W        W27530  44.588  15.269  10.714
62370W        W27531   6.682   0.775  11.583
62371W        W27532  25.603  25.083   2.870
62372W        W27533  32.481  34.471   3.956
62373W        W27534  13.614  35.997  11.089
62374W        W27535  37.849  34.493  11.190
62375W        W27536  31.548  30.072  14.156
62376W        W27537  14.114  42.685  13.872
62377W        W27538  28.471  21.316  11.609
62378W        W27539  22.586   4.154  12.738
62379W        W27540  41.460  36.388  14.993
62380W        W27541   9.405  32.472  14.311
62381W        W27542  43.846  28.554   0.745
62382W        W27543  10.799  12.632  11.788
62383W        W27544  40.382  40.460  11.001
62384W        W27545  44.278  24.699  10.361
62385W        W27546  17.078  10.142  12.817
62386W        W27547  16.395  11.604  12.039
62387W        W27548  25.075  38.815  13.523
62388W        W27549  35.020   3.390  11.229
62389W        W27550   8.458  27.912  11.148
62390W        W27551  42.321  21.276   4.515
62391W        W27552  12.138  29.007   2.334
62392W        W27553  38.630  41.498   4.473
62393W        W27554   8.105   3.416  12.557
62394W        W27555   8.213   8.861  13.995
62395W        W27556   6.856  32.611  10.582
62396W        W27557  40.016   9.915   1.857
62397W        W27558   8.928  20.657  11.003
62398W        W27559  28.013  22.419  13.512
62399W        W27560  25.599   6.081  12.139
62400W        W27561   1.245  22.585  11.294
62401W        W27562  15.405   0.337   0.684
62402W        W27563  17.138  38.821   1.374
62403W        W27564   1.813   2.752   3.111
62404W        W27565   0.377  32.062   0.427
62405W        W27566  17.762  37.584  13.862
62406W        W27567  32.031  41.382  10.902
62407W        W27568  40.855  18.113  14.400
62408W        W27569  36.244  26.359   4.184
62409W        W27570  25.476  30.366  12.533
62410W        W27571  24.656   8.058   4.126
62411W        W27572  23.950  19.178   2.505
62412W        W27573  33.326  27.285  12.009
62413W        W27574  22.737  21.801  13.858
62414W        W27575  33.035  24.327  11.122
62415W        W27576  20.251  37.094  10.682
62416W        W27577   0.171  26.225   0.919
62417W        W27578  21.089  29.545   1.882
62418W        W27579  37.272  44.408  11.547
62419W        W27580  18.951  13.129   4.634
62420W        W27581  31.392  14.401  11.487
62421W        W27582  26.309  36.905  11.597
62422W        W27583  10.747  30.957  10.774
62423W        W27584  34.209  35.987   5.105
62424W        W27585  21.459  29.156   4.045
62425W        W27586  42.109   7.697  11.501
62426W        W27587  36.262  31.458  10.663
62427W        W27588  38.946  21.308  14.513
62428W        W27589  39.093   1.331   2.854
62429W        W27590  11.091  28.982   0.154
62430W        W27591  43.063  34.778  14.869
62431W        W27592  13.707  43.511  14.300
62432W        W27593  27.150   4.804   1.402
62433W        W27594  23.580  35.923  10.902
62434W        W27595  25.324  21.219  14.048
62435W        W27596  39.385   2.908  10.842
62436W        W27597  40.507  38.568  14.441
62437W        W27598   6.771  28.227  12.471
62438W        W27599  26.075  42.594  10.226
62439W        W27600   7.214  11.339  14.438
62440W        W27601   5.729   7.304   0.121
62441W        W27602  36.850  10.420   4.677
62442W        W27603  29.534  25.224   2.312
62443W        W27604  24.295  37.552   5.003
62444W        W27605  24.890  42.546  10.303
62445W        W27606  30.214  31.680   2.791
62446W        W27607  33.073   5.485  11.983
62447W        W27608  30.842  21.701   4.002
62448W        W27609  17.565  10.615   4.268
62449W        W27610   9.951  12.057  11.020
62450W        W27611  17.753  20.440   2.394
62451W        W27612  36.279  13.755   1.474
62452W        W27613  44.874   2.421  13.989
62453W        W27614  15.537  21.048   3.147
62454W        W27615  31.383  21.001  12.159
62455W        W27616  12.122  43.075   2.838
62456W        W27617  14.056  43.220   5.068
62457W        W27618   4.490  22.192   3.229
62458W        W27619  11.561  11.509   2.390
62459W        W27620  31.204  35.111   1.835
62460W        W27621  33.613   9.136  12.523
62461W        W27622  37.099   0.239  14.553
62462W        W27623  19.670  14.701   4.317
62463W        W27624   6.503   9.750  12.922
62464W        W27625  26.893  40.787   2.390
62465W        W27626   9.793  40.494  13.852
62466W        W27627   2.485  36.844   2.449
62467W        W27628  24.326  32.733  11.010
62468W        W27629  32.657   2.820   1.083
62469W        W27630  30.185  33.488   1.460
62470W        W27631  43.360  22.552  12.067
62471W        W27632  18.055   3.016  10.474
62472W        W27633  31.242  20.245   4.151
62473W        W27634   1.725  36.904  14.391
62474W        W27635  35.898  44.129   2.725
62475W        W27636  21.899  42.066  14.431
62476W        W27637  28.478  44.757  12.440
62477W        W27638   4.673  23.611  13.383
62478W        W27639  11.284  41.451  10.582
62479W        W27640  38.662   1.292   1.437
62480W        W27641   6.277   9.263  11.981
62481W        W27642  30.549   9.096  12.479
62482W        W27643  36.963  40.879   3.726
62483W        W27644  34.091  15.807   4.135
62484W        W27645  14.322  24.075   0.401
62485W        W27646  44.961  15.775  12.444
62486W        W27647  24.396   5.353  12.035
62487W        W27648   9.591  35.239   3.444
62488W        W27649  17.132  19.146  12.136
62489W        W27650  25.208  29.554   0.030
62490W        W27651  38.493  23.534  10.554
62491W        W27652  20.476  42.966   3.291
62492W        W27653  31.521  43.557  10.600
62493W        W27654  16.996  20.125  13.675
62494W        W27655  12.364  29.615  13.383
62495W        W27656   2.961  27.678  12.901
62496W        W27657  15.536  37.922  11.568
62497W        W27658  27.502  15.862   0.452
62498W        W27659  34.122  41.487   1.708
62499W        W27660  38.881  11.999  14.410
62500W        W27661  23.081  41.035  14.661
62501W        W27662   2.762   8.166   0.881
62502W        W27663  26.148  21.999  12.580
62503W        W27664  15.195  16.003   2.687
62504W        W27665  24.563  30.112  10.703
62505W        W27666  42.517   7.676   0.713
62506W        W27667  39.633  15.095  12.656
62507W        W27668  34.410  28.130   0.751
62508W        W27669  35.861  18.691   0.972
62509W        W27670  12.199   5.202  11.669
62510W        W27671  22.934  41.486   4.611
62511W        W27672  16.669  41.333   2.285
62512W        W27673  33.035  11.789   3.827
62513W        W27674  36.460   0.350  13.442
62514W        W27675  39.025   0.956   3.223
62515W        W27676  34.483  42.732  12.075
62516W        W27677  32.642  14.379   2.351
62517W        W27678  16.486  38.987   4.423
62518W        W27679  43.770  12.701  13.465
62519W        W27680  26.985  23.141   4.975
62520W        W27681  43.133  20.404  11.236
62521W        W27682  29.012  23.942  13.086
62522W        W27683  34.758  32.803  13.000
62523W        W27684  15.782  19.768   2.862
62524W        W27685  40.709  40.985  10.726
62525W        W27686  32.824  13.145   4.488
62526W        W27687   1.021  16.137  10.715
62527W        W27688   4.705  10.878  14.430
62528W        W27689  12.701  12.925   4.519
62529W        W27690  40.553   4.841   0.315
62530W        W27691  11.353   1.746   4.169
62531W        W27692  42.017  22.149   3.856
62532W        W27693  11.814  34.088   2.840
62533W        W27694   4.220   8.860   3.894
62534W        W27695   7.852  25.555  12.977
62535W        W27696  42.482  16.812  10.858
62536W        W27697  28.033  20.745  14.402
62537W        W27698  13.759  16.092   2.505
62538W        W27699  28.892   0.210   4.394
62539W        W27700  38.540   8.675  10.764
62540W        W27701  20.847   5.456  12.186
62541W        W27702  38.809  40.008  14.549
62542W        W27703  21.536  12.349   1.684
62543W        W27704  39.310  18.172  12.157
62544W        W27705  13.914  22.473   4.653
62545W        W27706  40.285   3.842   1.847
62546W        W27707  17.467  32.203  12.502
62547W        W27708  34.608  13.436  14.512
62548W        W27709  29.093  26.925  11.520
62549W        W27710  34.138   8.404   3.324
62550W        W27711  28.127   7.171   4.930
62551W        W27712  11.122   2.415  12.958
62552W        W27713   7.914  17.387   0.838
62553W        W27714  28.188   6.378  11.000
62554W        W27715  31.393  20.822  14.895
62555W        W27716  14.863  12.172   0.680
62556W        W27717  10.534   1.246   9.912
62557W        W27718   8.295  43.506  10.616
62558W        W27719   9.597   3.265   1.306
62559W        W27720  19.730  34.649  10.807
62560W        W27721  24.131   1.256   3.408
62561W        W27722   6.159  22.561   1.676
62562W        W27723  39.911  28.561  14.313
62563W        W27724  43.733  21.295   2.000
62564W        W27725  13.650  30.548  12.405
62565W        W27726  31.980  25.359   0.856
62566W        W27727  33.360  36.033  14.308
62567W        W27728  10.330  37.353  10.696
62568W        W27729   0.193  44.999   0.510
62569W        W27730  16.328   0.872  14.403
62570W        W27731  35.670  19.750   2.624
62571W        W27732   2.054  41.600   1.708
62572W        W27733  39.571   4.462   2.303
62573W        W27734  26.244  18.480  11.128
62574W        W27735   0.885  20.092   1.477
62575W        W27736   6.431  14.818  14.455
62576W        W27737  31.501  44.487   3.274
62577W        W27738   4.854   7.717  14.203
62578W        W27739  31.439  14.775   2.968
62579W        W27740  22.025  43.997   4.151
62580W        W27741  39.187  26.739   1.479
62581W        W27742  37.596  29.670  11.962
62582W        W27743  25.188  21.032   2.686
62583W        W27744  13.589  20.530   1.547
62584W        W27745  24.326  30.496   4.097
62585W        W27746   7.807  43.615  14.691
62586W        W27747  43.847  32.275   4.179
62587W        W27748   2.295   7.657  11.585
62588W        W27749  21.465  26.728  11.619
62589W        W27750  43.988  34.329   0.032
62590W        W27751  33.184  44.936  13.534
62591W        W27752  14.720  44.963   2.734
62592W        W27753  35.325  44.191   2.718
62593W        W27754  32.831   1.288   4.150
62594W        W27755  12.124  17.318   2.760
62595W        W27756  29.769  36.366  14.062
62596W        W27757  19.755   2.729  14.846
62597W        W27758  16.068  40.931  13.830
62598W        W27759   4.787  31.242  13.045
62599W        W27760   4.843   4.783   1.616
62600W        W27761  26.797  39.457   0.805
62601W        W27762  19.300   6.280   2.721
62602W        W27763   6.730  17.287   0.372
62603W        W27764  36.036   5.969   3.657
62604W        W27765  15.885  44.634   4.960
62605W        W27766  35.852   4.672  12.438
62606W        W27767  29.133  14.235  13.347
62607W        W27768  21.560  43.243   1.157
62608W        W27769  42.781  22.744  12.519
62609W        W27770  18.804  33.814   0.442
62610W        W27771   9.277  25.876  13.512
62611W        W27772  27.158  39.450   1.178
62612W        W27773   3.960  18.700   1.367
62613W        W27774  32.984  10.789   4.842
62614W        W27775  24.044  29.882   2.875
62615W        W27776  21.590  38.397  10.647
62616W        W27777  28.308  40.031   4.540
62617W        W27778  43.079   6.953  11.134
62618W        W27779  24.108  29.891   0.927
62619W        W27780  20.044  32.503  11.761
62620W        W27781  17.142  11.786   2.757
62621W        W27782   0.907   6.851   2.693
62622W        W27783   2.541  39.899   0.890
62623W        W27784  39.099  33.369  10.520
62624W        W27785  33.440  38.787  12.599
62625W        W27786  25.485  28.137  11.226
62626W        W27787  29.588   1.713   4.244
62627W        W27788  35.412  28.052  10.419
62628W        W27789  18.612  44.882   0.606
62629W        W27790  26.983  33.518   0.038
62630W        W27791  12.025  17.056   0.831
62631W        W27792  17.133   9.794  14.042
62632W        W27793  36.633   9.498   3.175
62633W        W27794  18.577  24.841  12.032
62634W        W27795  18.773  35.277   1.684
62635W        W27796  30.001   1.068   0.913
62636W        W27797  40.739   5.336  11.612
62637W        W27798  23.699  21.765  12.431
62638W        W27799  27.467  14.427   2.333
62639W        W27800   9.321  16.604   2.311
62640W        W27801  14.592  20.047   3.228
62641W        W27802  12.732   8.920  14.546
62642W        W27803  11.159  12.936   0.702
62643W        W27804  24.366  15.598   3.523
62644W        W27805  18.759  23.161  14.303
62645W        W27806  43.297  25.130   2.723
62646W        W27807   6.443   5.395  14.808
62647W        W27808  37.825  16.644  11.835
62648W        W27809  31.281  35.760  10.994
62649W        W27810  10.023  32.394   1.233
62650W        W27811  44.027   0.933  14.041
62651W        W27812  20.712  30.508   2.460
62652W        W27813   0.249   4.172   0.344
62653W        W27814  41.265  37.392  13.844
62654W        W27815  25.494  16.629   3.395
62655W        W27816  43.241  43.792   3.088
62656W        W27817  14.850  27.942   1.739
62657W        W27818  21.462  32.656   2.123
62658W        W27819  38.090   6.860   0.355
62659W        W27820   7.049  18.050   0.387
62660W        W27821  31.175  12.281   0.394
62661W        W27822  30.078  43.558   3.053
62662W        W27823  43.961  20.688  12.447
62663W        W27824  20.654  16.333   2.743
62664W        W27825  29.143  34.843  10.617
62665W        W27826  13.325  32.095   2.181
62666W        W27827  40.234  15.511  13.430
62667W        W27828   6.688  38.914   3.242
62668W        W27829  32.000   9.857   3.881
62669W        W27830  30.585  43.817  14.427
62670W        W27831  20.342   3.256   3.752
62671W        W27832  10.284  23.932   4.038
62672W        W27833  24.766   3.695   2.399
62673W        W27834   7.232   6.838  14.252
62674W        W27835   4.446  24.147  12.622
62675W        W27836  23.207  15.827  12.488
62676W        W27837   8.693  44.844  14.395
62677W        W27838  31.035  33.237  14.322
62678W        W27839  34.611  41.008  11.976
62679W        W27840  13.585   1.398  12.113
62680W        W27841  43.343  19.075  13.825
62681W        W27842  28.964  39.296   0.949
62682W        W27843   6.931  19.170  14.708
62683W        W27844  32.672   5.188   2.514
62684W        W27845  42.738  25.488   2.066
62685W        W27846  24.519  22.968  12.452
62686W        W27847  20.070   3.465   4.143
62687W        W27848   5.391  21.019   3.892
62688W        W27849   2.191  19.372  12.419
62689W        W27850  36.071   5.458  13.890
62690W        W27851  28.627  34.041  11.678
62691W        W27852   4.027  15.308   3.200
62692W        W27853   2.303  25.196   4.526
62693W        W27854   2.444   3.988  12.912
62694W        W27855  25.322  44.774  13.514
62695W        W27856  28.684  34.002   0.776
62696W        W27857  29.755  10.332   5.351
62697W        W27858  34.502  21.472  12.509
62698W        W27859  33.730  19.618   1.901
62699W        W27860  28.452  34.312  13.142
62700W        W27861   1.473   3.428  10.884
62701W        W27862  31.676  34.099   2.866
62702W        W27863  11.399   9.878  14.864
62703W        W27864  26.142  14.416   4.239
62704W        W27865  19.647  33.407  14.040
62705W        W27866   6.512  18.697  12.090
62706W        W27867  35.539   8.250  14.913
62707W        W27868  30.881  12.183   2.275
62708W        W27869  37.837  32.021  14.418
62709W        W27870   4.280  44.431   3.578
62710W        W27871  35.271  19.901  11.678
62711W        W27872  29.691  21.025   3.287
62712W        W27873  10.239  38.344   4.322
62713W        W27874  26.277   3.751  11.547
62714W        W27875  18.489  29.988   4.101
62715W        W27876  43.785  36.497  14.454
62716W        W27877   9.381  42.404   0.359
62717W        W27878  19.964  35.501   0.463
62718W        W27879  15.267   5.737  12.945
62719W        W27880  23.147  35.449  13.833
62720W        W27881   3.757   8.506   0.907
62721W        W27882  27.773   6.926  13.536
62722W        W27883  11.159  20.905   2.167
62723W        W27884  26.125  25.251   2.863
62724W        W27885  43.191  35.385   1.275
62725W        W27886  13.161  27.490   1.921
62726W        W27887  36.867  39.886  14.809
62727W        W27888  13.303  42.840  11.996
62728W        W27889  33.834   4.515   4.932
62729W        W27890  32.185  28.569  11.545
62730W        W27891   4.613  26.959  12.500
62731W        W27892  32.820   4.083   1.201
62732W        W27893  21.331  15.686   0.064
62733W        W27894   0.406  15.584   0.422
62734W        W27895  37.679   6.509   0.349
62735W        W27896  26.703   0.220   4.542
62736W        W27897  40.167  28.629  10.401
62737W        W27898  40.522  27.919   4.125
62738W        W27899  16.473   9.190  13.874
62739W        W27900  26.062  39.090  10.091
62740W        W27901  21.566   8.719   0.934
62741W        W27902  39.268  27.745   3.675
62742W        W27903  29.059  19.523   0.120
62743W        W27904   7.078  12.665  14.883
62744W        W27905  41.122   6.446  11.499
62745W        W27906  21.221  35.974  13.361
62746W        W27907  44.115  28.958  10.128
62747W        W27908  41.753  26.880   0.861
62748W        W27909  12.582  20.619  13.897
62749W        W27910  33.748  12.888  14.784
62750W        W27911  16.512  43.919   3.708
62751W        W27912  12.331  28.672   2.744
62752W        W27913  18.182   9.746   1.948
62753W        W27914   2.319  23.060   1.964
62754W        W27915   0.922   9.573   5.067
62755W        W27916  27.420   8.159  13.038
62756W        W27917   4.881   1.950  13.952
62757W        W27918   3.851  23.416   4.909
62758W        W27919  23.962  42.806   3.689
62759W        W27920  31.621  11.229  11.234
62760W        W27921   4.274  29.929   4.059
62761W        W27922  40.819   4.815   2.522
62762W        W27923   8.490  40.235  13.980
62763W        W27924   1.219  29.175   4.542
62764W        W27925  44.343  37.201  11.116
62765W        W27926  26.721  35.923  14.849
62766W        W27927  23.721  40.818  12.897
62767W        W27928   6.385  28.179  14.371
62768W        W27929  16.686  33.499   3.561
62769W        W27930  26.322  24.158   2.351
62770W        W27931  15.690   8.146  12.658
62771W        W27932  42.297  32.411  12.541
62772W        W27933   7.850  41.262  14.326
62773W        W27934  33.623  36.285   2.990
62774W        W27935  25.027  44.193  12.352
62775W        W27936   0.022  12.381   0.484
62776W        W27937  41.404  43.108   1.778
62777W        W27938  14.256  27.150  13.435
62778W        W27939   7.282  33.089  14.950
62779W        W27940  41.884  10.661  11.656
62780W        W27941  28.500  22.119  10.241
62781W        W27942  23.945  11.820  11.947
62782W        W27943  27.477  30.423   0.389
62783W        W27944  12.768   6.909  12.494
62784W        W27945  10.799   1.076   4.378
62785W        W27946  24.510  22.405   2.194
62786W        W27947  28.001  37.136   0.646
62787W        W27948  31.498  28.874  11.969
62788W        W27949  12.586  31.608  11.652
62789W        W27950  38.054  36.547   4.361
62790W        W27951  32.117  29.088  11.596
62791W        W27952  38.421  30.247  12.314
62792W        W27953  29.070  39.399  10.498
62793W        W27954  40.867  41.462   3.363
62794W        W27955  43.570   7.396   4.006
62795W        W27956   4.531  39.016  12.548
62796W        W27957  44.693  22.040  11.033
62797W        W27958  20.015  25.354  14.764
62798W        W27959   6.774  42.414   4.109
62799W        W27960  12.825  33.454   5.046
62800W        W27961   9.383   6.178   3.614
62801W        W27962  37.910  17.626  14.790
62802W        W27963   6.787  13.834  11.244
62803W        W27964  35.301   9.424  13.663
62804W        W27965   4.215  29.609  13.909
62805W        W27966  17.791  34.055   2.581
62806W        W27967  41.222  16.319   0.920
62807W        W27968  23.040   0.523  11.605
62808W        W27969   6.149   7.416  13.436
62809W        W27970  15.855   7.708  13.514
62810W        W27971  44.980   3.558  14.550
62811W        W27972   1.831   0.744   1.475
62812W        W27973  20.163  30.223   3.731
62813W        W27974  40.948   5.859   3.598
62814W        W27975  38.506  29.367   2.644
62815W        W27976  25.087  22.103   3.602
62816W        W27977  27.942  15.388  12.419
62817W        W27978   6.316   6.737   0.606
62818W        W27979  18.712  19.009  11.116
62819W        W27980  22.583   4.280   1.918
62820W        W27981   5.169  10.326   1.174
62821W        W27982  22.731  24.583  10.728
62822W        W27983  36.385  26.838   4.327
62823W        W27984   6.904  29.782  11.554
62824W        W27985   1.833  16.256   0.978
62825W        W27986   0.894  35.005   1.436
62826W        W27987   0.754   2.471   1.832
62827W        W27988  34.117  27.246  13.524
62828W        W27989   9.659  42.837   0.449
62829W        W27990   8.375   5.999   0.002
62830W        W27991  31.963  19.534  12.082
62831W        W27992  13.645   1.356  11.216
62832W        W27993   0.303  33.850  10.026
62833W        W27994  34.723  22.592   2.641
62834W        W27995  16.724  12.637   4.672
62835W        W27996   5.898   8.002   4.329
62836W        W27997  20.314  19.095   3.165
62837W        W27998  17.085  43.675  13.812
62838W        W27999  34.128  18.254   4.029
62839W        W28000  44.862  39.513   4.562
62840W        W28001  42.363  17.117   4.822
62841W        W28002  14.044  28.465  11.583
62842W        W28003  15.685  32.589  14.527
62843W        W28004  21.546   6.452  14.371
62844W        W28005   9.168  21.032  11.557
62845W        W28006  26.510  33.259   0.838
62846W        W28007  20.761  14.364   1.994
62847W        W28008  41.477   6.005   2.409
62848W        W28009  44.949  39.957  11.925
62849W        W28010   9.645  13.141   4.496
62850W        W28011   7.484  11.562  11.958
62851W        W28012  42.399  17.281   4.324
62852W        W28013   5.447  25.143  12.926
62853W        W28014  43.122  31.563  12.095
62854W        W28015   7.587  34.805   0.313
62855W        W28016  39.410  18.595   3.147
62856W        W28017  36.338  41.311   4.109
62857W        W28018  14.813   8.145   1.343
62858W        W28019   4.276  20.071  10.761
62859W        W28020  30.656  44.337   1.705
62860W        W28021  28.490  14.469  12.367
62861W        W28022  42.956  20.743   0.943
62862W        W28023  22.584   6.355  10.394
62863W        W28024   1.220  18.680  14.013
62864W        W28025  35.800  22.263  12.546
62865W        W28026  13.114  15.674  13.899
62866W        W28027  29.951  26.621   3.674
62867W        W28028  13.094  42.333   1.141
62868W        W28029  31.353  11.677  11.198
62869W        W28030  43.936   3.167  12.892
62870W        W28031   0.530  33.543   4.686
62871W        W28032  26.988  21.160   2.171
62872W        W28033  32.891   3.242  11.616
62873W        W28034  42.569  34.485  11.342
62874W        W28035  10.638  33.699   0.606
62875W        W28036  39.432  13.199   0.826
62876W        W28037  12.067  21.198  12.817
62877W        W28038  27.505  31.132   4.186
62878W        W28039  21.648  25.301  11.674
62879W        W28040  36.366  29.226  11.126
62880W        W28041  29.042  27.775   2.533
62881W        W28042  26.635  32.823   4.056
62882W        W28043  21.260  42.283  13.434
62883W        W28044  25.162  10.841   0.383
62884W        W28045  42.330   9.878   0.523
62885W        W28046  35.438  12.876   0.258
62886W        W28047  10.578  41.013   2.805
62887W        W28048  26.145  20.598  13.212
62888W        W28049  31.460  24.423  12.411
62889W        W28050  26.036   3.659   2.351
62890W        W28051   0.292   6.704  12.823
62891W        W28052  21.561  38.679  13.015
62892W        W28053  37.846  13.964  11.601
62893W        W28054  18.649  41.410  14.343
62894W        W28055  27.176   3.339   0.025
62895W        W28056  42.042  10.430  11.197
62896W        W28057  43.824  38.544  10.438
62897W        W28058   7.901  36.430  12.550
62898W        W28059  38.556  39.901   1.146
62899W        W28060  11.260  15.847   3.129
62900W        W28061   3.784  44.866  13.546
62901W        W28062  31.947  30.904  13.377
62902W        W28063   6.614   2.458  11.227
62903W        W28064  33.818  30.398   0.740
62904W        W28065  44.398  24.566  11.353
62905W        W28066  10.861  22.622   3.432
62906W        W28067  11.649  43.500   4.723
62907W        W28068  24.479  28.545   0.329
62908W        W28069  17.651  13.247  11.941
62909W        W28070  29.417  16.179   3.398
62910W        W28071  10.321  26.966  10.478
62911W        W28072  25.648  38.926  12.570
62912W        W28073   8.691   7.616   1.754
62913W        W28074  24.493  32.999   1.387
62914W        W28075  18.237  11.657  12.134
62915W        W28076  29.057   0.725  14.280
62916W        W28077  14.183  40.964  10.625
62917W        W28078  41.259  34.566  12.101
62918W        W28079  39.629  38.917   0.253
62919W        W28080  15.460  19.553   2.510
62920W        W28081   5.657   0.796  12.648
62921W        W28082   2.698  29.956  10.786
62922W        W28083  31.119  15.615   3.133
62923W        W28084  34.075  40.425  12.925
62924W        W28085  27.426  33.589   1.317
62925W        W28086   4.727  44.267   0.348
62926W        W28087  16.178  41.453   2.135
62927W        W28088  35.030   6.713   5.003
62928W        W28089  30.740   8.582   2.851
62929W        W28090  34.650  17.753  13.526
62930W        W28091  10.992  13.954   4.051
62931W        W28092   1.478  18.795  10.655
62932W        W28093  14.024  13.733   4.635
62933W        W28094  39.017  15.888   4.546
62934W        W28095  35.157  22.234   5.078
62935W        W28096  39.932  26.679   1.985
62936W        W28097  13.032  12.406  14.620
62937W        W28098  12.830  35.248   4.898
62938W        W28099  14.722  21.599  12.794
62939W        W28100  16.795  22.457  13.757
62940W        W28101  32.242   6.273   1.003
62941W        W28102  44.424  43.777  10.843
62942W        W28103   8.224  43.406   1.143
62943W        W28104  10.627  23.016   0.752
62944W        W28105  32.459  13.643  13.060
62945W        W28106   4.665  26.227  14.422
62946W        W28107   1.435  24.259   0.910
62947W        W28108  15.603   1.782   3.493
62948W        W28109  33.324  37.566   0.341
62949W        W28110  26.011  27.489  13.488
62950W        W28111  34.203  17.393  10.976
62951W        W28112  44.219   2.303  12.053
62952W        W28113   3.716  25.194   1.368
62953W        W28114  19.096  23.808   3.244
62954W        W28115  37.504  36.052   0.415
62955W        W28116   6.498   7.006   1.614
62956W        W28117  12.510  19.793   1.782
62957W        W28118  32.860  19.302   3.941
62958W        W28119  29.483  17.360  10.427
62959W        W28120  22.433   6.353   9.806
62960W        W28121  33.077   8.810  11.854
62961W        W28122  31.446  30.927  12.136
62962W        W28123  16.703  21.619   1.800
62963W        W28124  18.592  41.373  12.578
62964W        W28125  18.649  38.541  13.508
62965W        W28126  36.334  13.723   0.265
62966W        W28127  19.031  32.319   0.915
62967W        W28128  21.325  24.139   0.657
62968W        W28129   7.889  10.075   4.125
62969W        W28130  11.348   0.487  11.076
62970W        W28131  37.973   4.709   1.054
62971W        W28132   9.661  36.105   4.313
62972W        W28133  16.049  17.836  11.832
62973W        W28134  44.618  14.308  12.406
62974W        W28135  19.295  40.294  10.078
62975W        W28136   2.288   6.444   4.635
62976W        W28137   7.124  28.554  12.256
62977W        W28138  40.888   3.924   3.232
62978W        W28139  19.661  31.694   1.384
62979W        W28140  10.356  27.579  11.146
62980W        W28141  39.314  35.828  12.997
62981W        W28142  33.057   3.333   3.878
62982W        W28143  35.624  38.800   3.285
62983W        W28144  36.862  39.568   1.394
62984W        W28145   7.408  37.274  14.376
62985W        W28146   8.501  16.102   4.120
62986W        W28147  16.497  19.013  10.663
62987W        W28148  36.616   5.803  14.882
62988W        W28149  15.610  43.389   0.991
62989W        W28150  33.463  12.103   5.120
62990W        W28151  12.043   0.216   3.538
62991W        W28152   1.881  37.565  11.560
62992W        W28153  26.622  16.491  13.323
62993W        W28154   8.827  10.145   0.433
62994W        W28155  31.370  36.820  14.465
62995W        W28156  16.542  36.955   0.829
62996W        W28157  13.640  41.789   1.599
62997W        W28158   2.009  29.507   4.595
62998W        W28159   6.228  29.225  11.135
62999W        W28160  17.782   2.252  10.593
63000W        W28161   5.626  31.364   9.689
63001W        W28162  33.147  26.107  10.431
63002W        W28163   3.567  14.456  13.014
63003W        W28164  21.727   1.837  13.524
63004W        W28165  12.933  36.019  14.915
63005W        W28166  38.978  40.471   4.008
63006W        W28167  41.915   5.440  12.922
63007W        W28168  43.603  23.649   3.236
63008W        W28169  24.453  27.755   1.852
63009W        W28170  14.067  24.676  14.810
63010W        W28171  24.262   7.793   1.793
63011W        W28172  43.560  16.697   1.955
63012W        W28173  33.616  23.515   1.250
63013W        W28174   6.111  43.335   3.250
63014W        W28175  27.776   3.664   0.935
63015W        W28176   6.381  20.252  12.018
63016W        W28177  10.222   5.797  14.609
63017W        W28178  19.593  33.530   2.057
63018W        W28179  15.480  39.622   1.188
63019W        W28180  32.322  15.953  13.150
63020W        W28181  37.964  27.439  11.133
63021W        W28182   7.155  17.740   4.241
63022W        W28183  29.031  33.505   3.674
63023W        W28184  40.615  17.897   3.301
63024W        W28185  40.869  15.800   4.540
63025W        W28186  15.235   5.434  13.399
63026W        W28187  42.816  32.785   2.474
63027W        W28188  34.453  25.778   9.563
63028W        W28189  37.671  17.229  13.912
63029W        W28190  10.456  23.272   2.958
63030W        W28191  15.053  37.010  10.466
63031W        W28192  23.827  38.867  12.903
63032W        W28193   0.234  27.403   3.280
63033W        W28194  16.261  23.484   3.141
63034W        W28195  34.150   0.953  12.012
63035W        W28196  44.420   7.795   4.075
63036W        W28197  17.159   3.489   4.530
63037W        W28198  24.532   6.643   3.899
63038W        W28199  20.711   1.810  13.823
63039W        W28200   7.602   8.348  12.555
63040W        W28201  34.614  20.668   3.601
63041W        W28202   1.460   0.901   0.256
63042W        W28203  37.022  33.925  10.855
63043W        W28204  31.100  36.497   1.190
63044W        W28205   6.919  29.432   1.897
63045W        W28206   0.932  12.843   0.328
63046W        W28207   9.154  13.892  12.084
63047W        W28208   1.715  33.861  12.440
63048W        W28209  22.207   5.792  13.412
63049W        W28210   7.977  11.217   3.089
63050W        W28211  24.581  25.198  12.031
63051W        W28212  11.563   7.866  10.358
63052W        W28213   9.767  33.425   3.583
63053W        W28214  18.757  13.442  13.703
63054W        W28215  24.027   7.485  14.531
63055W        W28216  44.526  35.070  12.442
63056W        W28217  30.319  10.454   5.128
63057W        W28218  38.682  22.887   2.661
63058W        W28219  28.748   8.750   2.788
63059W        W28220  10.681  43.415  14.986
63060W        W28221  19.802  22.461   4.152
63061W        W28222   7.414  26.562   0.789
63062W        W28223  43.344  13.110  14.234
63063W        W28224  31.943  39.449  12.183
63064W        W28225  31.076   6.741  12.545
63065W        W28226  17.835  33.847  13.002
63066W        W28227  12.280   9.905   2.699
63067W        W28228  33.684  21.706  14.873
63068W        W28229  30.658  33.041  14.011
63069W        W28230  15.790   9.454   1.249
63070W        W28231  14.290  16.326  11.193
63071W        W28232  29.334  27.952  14.132
63072W        W28233   4.443  14.655  14.081
63073W        W28234  37.159  10.004   3.667
63074W        W28235  21.050  15.422  11.938
63075W        W28236  40.046  28.106  11.616
63076W        W28237   3.851  16.866  14.329
63077W        W28238  39.278  25.281   1.119
63078W        W28239   3.104  41.443   0.229
63079W        W28240  37.167   2.183  11.627
63080W        W28241  33.063  34.615   1.672
63081W        W28242  31.055  28.707   2.518
63082W        W28243  12.135  31.972   0.288
63083W        W28244  25.004  22.910  14.211
63084W        W28245  18.742  37.984   2.361
63085W        W28246  10.421  10.840  14.856
63086W        W28247  20.853   1.057  13.501
63087W        W28248  29.060  39.920   5.097
63088W        W28249  20.276  40.427  14.248
63089W        W28250  37.603  16.741  12.671
63090W        W28251   5.159  10.220  14.062
63091W        W28252  27.100  27.612  14.246
63092W        W28253  29.982  14.012  13.307
63093W        W28254  25.057  38.949   2.675
63094W        W28255  38.397  11.983  11.860
63095W        W28256   3.779  37.619   2.383
63096W        W28257  12.805  40.278  11.998
63097W        W28258  18.343  38.383   2.882
63098W        W28259  10.905  34.618   2.468
63099W        W28260  27.635   7.129  13.997
63100W        W28261   3.953  32.120   2.256
63101W        W28262  13.450   0.239  12.507
63102W        W28263  27.170  39.906   1.431
63103W        W28264  44.429  29.100  10.620
63104W        W28265   5.652  37.934  13.398
63105W        W28266   3.840  10.215  10.505
63106W        W28267  24.888  42.904   0.930
63107W        W28268  33.937  12.236   2.659
63108W        W28269  39.945   7.889   0.899
63109W        W28270  19.614   0.246  14.914
63110W        W28271   6.972  44.235   3.203
63111W        W28272  23.327   3.942  12.802
63112W        W28273  40.037  25.991  14.291
63113W        W28274  24.181  18.630  12.353
63114W        W28275  19.023  20.829   2.768
63115W        W28276  44.317  17.129   1.755
63116W        W28277  11.783  28.619   0.059
63117W        W28278  33.182  23.826   0.983
63118W        W28279  32.354  11.664  14.343
63119W        W28280  44.337  22.754   4.299
63120W        W28281   9.342  12.741   0.777
63121W        W28282  36.080  40.001  13.598
63122W        W28283  32.942  20.086  12.996
63123W        W28284  32.463   1.446   4.503
63124W        W28285  43.200  18.646   1.292
63125W        W28286  16.821  29.670  12.054
63126W        W28287  31.324  20.810   1.287
63127W        W28288   4.668  15.213  14.344
63128W        W28289  44.304  28.535  14.454
63129W        W28290   2.766  36.425   1.995
63130W        W28291  42.520  13.559   3.219
63131W        W28292  37.889   4.288  11.934
63132W        W28293  44.069  25.599   4.206
63133W        W28294  14.713  36.751  13.517
63134W        W28295  24.276  29.419   2.761
63135W        W28296   5.073  26.941   0.418
63136W        W28297   8.126  28.414  14.049
63137W        W28298  34.526  26.413  10.668
63138W        W28299  19.134  27.481  11.613
63139W        W28300   1.941  18.647  14.529
63140W        W28301   2.706  25.981  11.536
63141W        W28302  41.568  40.869   2.795
63142W        W28303  27.325  18.384  14.949
63143W        W28304  14.920  36.943  14.392
63144W        W28305   7.755  28.290  12.725
63145W        W28306  20.964  19.696  13.400
63146W        W28307   7.351  37.958   4.494
63147W        W28308  41.828  33.958  10.993
63148W        W28309  11.841  10.537  13.618
63149W        W28310  43.025   6.147  11.430
63150W        W28311  23.432  33.630  11.580
63151W        W28312  30.823  19.671   3.171
63152W        W28313  41.273  29.475  12.448
63153W        W28314  42.514  40.499  13.323
63154W        W28315  37.987  15.303   3.401
63155W        W28316  41.369  11.799   4.775
63156W        W28317   6.277  24.161   4.643
63157W        W28318  17.066   1.474  11.123
63158W        W28319  18.243   5.222   0.903
63159W        W28320  15.816  22.556   0.479
63160W        W28321  13.395  13.449   5.367
63161W        W28322  36.375   5.815   0.414
63162W        W28323  22.207  42.109  13.627
63163W        W28324   9.167  43.538  11.000
63164W        W28325  27.549   5.236  14.253
63165W        W28326   8.159  42.880   2.633
63166W        W28327  35.354  33.620   0.719
63167W        W28328  28.035  41.532   3.257
63168W        W28329  19.714  10.368   5.141
63169W        W28330  42.221   8.902   4.588
63170W        W28331  20.996   3.750   3.167
63171W        W28332  17.111  39.680  13.343
63172W        W28333  33.526  14.111  10.643
63173W        W28334  34.892  43.080  10.451
63174W        W28335   6.888  29.226   0.998
63175W        W28336  14.802   3.910   0.767
63176W        W28337  32.381   4.940   2.142
63177W        W28338  19.782  11.350  11.144
63178W        W28339  39.517  30.198  11.113
63179W        W28340  11.678  29.680   3.267
63180W        W28341  39.450  42.981   4.019
63181W        W28342  36.567  14.235   0.293
63182W        W28343   3.829  41.974   3.257
63183W        W28344  28.096  31.795  11.186
63184W        W28345  20.191  32.790   1.827
63185W        W28346  39.712  34.415   2.861
63186W        W28347  15.110   5.420   0.858
63187W        W28348  23.125  10.927   4.134
63188W        W28349  43.279  21.118  13.953
63189W        W28350   2.068   0.284   2.315
63190W        W28351  28.639  40.318  14.769
63191W        W28352  40.846  32.049  11.007
63192W        W28353   4.845  31.745   4.054
63193W        W28354  37.386   0.990   4.678
63194W        W28355  24.702   6.704  14.107
63195W        W28356   1.328  16.357  11.089
63196W        W28357  40.350  14.581   1.086
63197W        W28358  22.792  14.340  12.611
63198W        W28359  28.685  37.171   1.866
63199W        W28360   1.307  35.943   3.547
63200W        W28361  25.708  23.538  10.383
63201W        W28362  26.627  18.190   0.197
63202W        W28363  10.325  16.087  14.113
63203W        W28364   2.441  13.126   0.445
63204W        W28365  42.323  43.658   3.282
63205W        W28366  32.404  19.061   0.432
63206W        W28367  35.491   5.635  10.790
63207W        W28368  39.556  25.561  10.762
63208W        W28369  27.047  16.046   2.602
63209W        W28370  26.718   6.450   4.520
63210W        W28371  22.583  38.943  13.097
63211W        W28372  27.192   5.237   2.335
63212W        W28373  12.233  19.164   2.910
63213W        W28374  22.480  16.728   4.617
63214W        W28375  18.092  13.602   5.198
63215W        W28376   7.200  44.251   0.986
63216W        W28377  42.277  15.262   5.147
63217W        W28378   4.498  20.513   0.213
63218W        W28379  42.072   2.713   3.118
63219W        W28380  22.490   0.888  13.066
63220W        W28381  27.901  34.839   2.258
63221W        W28382  38.070  28.283  10.280
63222W        W28383  14.306   7.387   1.360
63223W        W28384   9.480  21.377  12.367
63224W        W28385  35.342  13.860   2.301
63225W        W28386   3.680  25.757   5.451
63226W        W28387  36.392  13.838   0.790
63227W        W28388   6.838  42.602   1.321
63228W        W28389  36.990  23.695  10.585
63229W        W28390   5.709  23.619   2.771
63230W        W28391  13.681  16.102   4.524
63231W        W28392  37.278  30.636  12.925
63232W        W28393  10.184  37.371  13.862
63233W        W28394  27.617   1.967   2.353
63234W        W28395  41.450   6.007   4.880
63235W        W28396  40.954   5.994   4.093
63236W        W28397  16.086   0.846  12.883
63237W        W28398  13.018  20.447   2.346
63238W        W28399  41.656   5.194  13.328
63239W        W28400  40.588  38.474  12.467
63240W        W28401  36.446  10.687  10.533
63241W        W28402  30.959  23.511  14.023
63242W        W28403  22.886  39.649  11.440
63243W        W28404  43.060  18.657   2.824
63244W        W28405  22.446  21.059  11.018
63245W        W28406  12.054   3.977  13.057
63246W        W28407  25.094  16.603   1.435
63247W        W28408  42.477  44.317   4.301
63248W        W28409   9.610  21.067   1.222
63249W        W28410  40.219  29.192  13.476
63250W        W28411  33.576  26.225  12.124
63251W        W28412  38.808  11.320  13.118
63252W        W28413  36.889  18.759   0.453
63253W        W28414  26.794  20.790   1.871
63254W        W28415   2.587  43.685   4.227
63255W        W28416  11.806  44.356  12.169
63256W        W28417  39.401  19.991   4.038
63257W        W28418   6.204  17.494   3.806
63258W        W28419  33.409  32.234  10.797
63259W        W28420   9.597  39.852   0.484
63260W        W28421  22.425   5.347  11.117
63261W        W28422   8.276  38.325   0.280
63262W        W28423  31.990  29.164   4.927
63263W        W28424  13.178  36.172   3.203
63264W        W28425  41.974  27.096   2.307
63265W        W28426   3.800  19.245   4.474
63266W        W28427  11.346   4.296  11.864
63267W        W28428  17.075  41.283  11.280
63268W        W28429   3.591  12.441   5.062
63269W        W28430   4.445  33.952  13.449
63270W        W28431  18.494  19.583  12.046
63271W        W28432  19.664  33.860  11.175
63272W        W28433  10.849  39.044  14.380
63273W        W28434  36.065   4.563   3.304
63274W        W28435  44.365  44.777  12.300
63275W        W28436  42.629  25.982   1.393
63276W        W28437  39.369  23.497  13.398
63277W        W28438  27.660   8.888   4.524
63278W        W28439  32.122  32.722   2.107
63279W        W28440  24.949  35.771   4.596
63280W        W28441  19.468  19.467   3.372
63281W        W28442  10.403   9.890  12.918
63282W        W28443   2.947  40.059  14.782
63283W        W28444   9.672  10.869  13.020
63284W        W28445  22.627  32.344   4.131
63285W        W28446  14.807   4.959  10.505
63286W        W28447   3.985  11.788   4.243
63287W        W28448  19.698  35.814  12.640
63288W        W28449  42.221   5.009  13.325
63289W        W28450  12.269  40.418  11.103
63290W        W28451  38.183  33.529   3.942
63291W        W28452  33.819  23.491   0.754
63292W        W28453   2.912   6.019   2.213
63293W        W28454  40.506  14.366   4.988
63294W        W28455  15.241  42.987  13.028
63295W        W28456  34.626   0.391  14.499
63296W        W28457  17.326  23.462   4.401
63297W        W28458  15.972  40.021  13.396
63298W        W28459   8.701  30.173   3.759
63299W        W28460  20.846  42.074  12.438
63300W        W28461   7.895   3.779   3.725
63301W        W28462  28.608  12.025   2.570
63302W        W28463  17.612  42.287  14.955
63303W        W28464  10.124  43.244   1.738
63304W        W28465  26.172  12.858   1.821
63305W        W28466  23.972  38.371   2.267
63306W        W28467  27.128  37.230   1.674
63307W        W28468  39.610  16.747   4.366
63308W        W28469   4.368  36.431   0.407
63309W        W28470  32.404   6.933  10.631
63310W        W28471  41.450  23.831   0.753
63311W        W28472   4.455  25.558  12.406
63312W        W28473  20.016   2.871   3.645
63313W        W28474  13.317  21.733   0.864
63314W        W28475   7.244  41.870  13.872
63315W        W28476   6.754   1.806   3.328
63316W        W28477  17.505  35.879  13.988
63317W        W28478   8.248  26.671   0.481
63318W        W28479   3.203   1.557   3.805
63319W        W28480  13.021   7.911  11.096
63320W        W28481  15.404  23.654   3.694
63321W        W28482  35.070  19.006  10.843
63322W        W28483  20.136  30.270   4.682
63323W        W28484  27.221  33.970  11.547
63324W        W28485  38.032  30.140  14.728
63325W        W28486   4.725  40.469   0.790
63326W        W28487  41.301  23.563  12.558
63327W        W28488  26.619   2.207  14.801
63328W        W28489  24.358  26.810  12.718
63329W        W28490   0.292   2.868   2.056
63330W        W28491  19.582  29.498  10.903
63331W        W28492  39.999  37.092  10.906
63332W        W28493   8.785  11.949  12.606
63333W        W28494  22.736  33.230   0.827
63334W        W28495   8.129  35.623  11.573
63335W        W28496  38.883  23.893   4.267
63336W        W28497  33.622  12.093   4.483
63337W        W28498  19.723  40.822   1.846
63338W        W28499  10.842  32.377  11.365
63339W        W28500   0.747   8.280  11.906
63340W        W28501   9.549   1.454  14.467
63341W        W28502  12.114  37.810  11.936
63342W        W28503  32.089  20.474   4.260
63343W        W28504   7.637  25.341   3.842
63344W        W28505  34.858  15.681   4.540
63345W        W28506  11.821  41.417  14.749
63346W        W28507  19.764  13.321   5.105
63347W        W28508  11.312   7.308   1.608
63348W        W28509  22.147   4.389   4.542
63349W        W28510   3.237  14.429  12.556
63350W        W28511  44.669  13.212   3.333
63351W        W28512  20.194   1.014   1.310
63352W        W28513   0.982   5.991   3.190
63353W        W28514  18.613  19.986  11.206
63354W        W28515  14.128  26.868   4.272
63355W        W28516  24.562  11.160   3.191
63356W        W28517  18.566  31.225  14.254
63357W        W28518  40.073   2.740   0.905
63358W        W28519   3.803   6.374  14.765
63359W        W28520  33.469  22.709  10.179
63360W        W28521  27.905  10.357  11.597
63361W        W28522  21.762  42.441  13.529
63362W        W28523  19.676  37.501  13.836
63363W        W28524  14.546  41.158  14.089
63364W        W28525  30.594  27.508  11.580
63365W        W28526   1.170  39.199  12.401
63366W        W28527  39.725  25.125   1.357
63367W        W28528  22.650  25.900  13.438
63368W        W28529  24.198   1.153  12.546
63369W        W28530  11.433  19.072   0.869
63370W        W28531   0.775   9.400   1.883
63371W        W28532  35.370  29.172   4.760
63372W        W28533  28.930  21.888  11.152
63373W        W28534  15.452  15.354   4.914
63374W        W28535  36.804  14.549   3.704
63375W        W28536   3.540  17.799   2.842
63376W        W28537  39.134   2.470  10.732
63377W        W28538  18.358  44.208   3.825
63378W        W28539  18.117  33.823   1.245
63379W        W28540  25.015  44.032  11.088
63380W        W28541  23.379  27.898  11.447
63381W        W28542  36.095  15.307  14.630
63382W        W28543  22.330   2.481   4.740
63383W        W28544   1.908  43.676   2.586
63384W        W28545  14.310  23.317  13.026
63385W        W28546  42.472  39.300  12.914
63386W        W28547  34.249  27.490   0.222
63387W        W28548  20.535  27.110   0.281
63388W        W28549   4.535  33.755   0.627
63389W        W28550  24.680   8.160  12.989
63390W        W28551  33.075  19.634  14.731
63391W        W28552   9.151  18.635  11.979
63392W        W28553  17.047  38.534  14.716
63393W        W28554  10.096  35.157   1.594
63394W        W28555  28.919  26.100   1.812
63395W        W28556   0.848  15.915  14.279
63396W        W28557   5.295  25.602  11.970
63397W        W28558  30.630  38.321  11.066
63398W        W28559  44.905  39.838  12.580
63399W        W28560  20.022  24.829  11.991
63400W        W28561  17.800  20.643  11.962
63401W        W28562  14.822   6.826   1.821
63402W        W28563  13.924  29.732   1.752
63403W        W28564   3.726  18.090  12.947
63404W        W28565  14.702  32.152   9.994
63405W        W28566  24.025   2.685   2.869
63406W        W28567  16.599  17.177  12.562
63407W        W28568  44.542  34.986  14.911
63408W        W28569  37.010  21.826   4.826
63409W        W28570  23.398  17.867  11.041
63410W        W28571  13.730  41.380   4.892
63411W        W28572   3.477  38.992   2.620
63412W        W28573  14.897   5.908  14.805
63413W        W28574  24.540  38.202  13.811
63414W        W28575  24.644  23.377   4.567
63415W        W28576  21.930  35.445   0.320
63416W        W28577  15.833  13.280  13.984
63417W        W28578   0.553   5.948  12.064
63418W        W28579  14.615  31.902  10.998
63419W        W28580  18.671  29.900   2.241
63420W        W28581  21.570  32.206  12.170
63421W        W28582  24.287  41.945   1.425
63422W        W28583   8.116  38.078  14.377
63423W        W28584  31.994  36.937  11.546
63424W        W28585  10.236   0.771  11.092
63425W        W28586  16.515  16.899   5.022
63426W        W28587  36.056  26.292  11.594
63427W        W28588  19.589  42.633   2.143
63428W        W28589  39.518  43.024  13.522
63429W        W28590   7.442  42.275   4.560
63430W        W28591   9.460  26.199   2.755
63431W        W28592  27.128  34.514   2.393
63432W        W28593  40.801  26.725  11.124
63433W        W28594  10.370   6.371  13.833
63434W        W28595   5.254  29.684  14.873
63435W        W28596  14.084   3.306  13.743
63436W        W28597  22.698  34.717   4.560
63437W        W28598  38.478  21.830  11.724
63438W        W28599   9.762  12.423   2.525
63439W        W28600  38.502   5.433   4.612
63440W        W28601  18.506  10.601  12.078
63441W        W28602   7.775  20.973  12.903
63442W        W28603  42.884  10.191   1.353
63443W        W28604  12.137  39.099  13.812
63444W        W28605   7.568  12.895   2.236
63445W        W28606  24.808  42.019   4.107
63446W        W28607  12.727  28.103   0.782
63447W        W28608  30.583   8.835  13.013
63448W        W28609  28.330  23.729   3.729
63449W        W28610  40.987  21.546   1.830
63450W        W28611  13.458  12.392   1.000
63451W        W28612  40.293  20.720   3.233
63452W        W28613  40.184  27.405  11.144
63453W        W28614  36.436  12.576   1.681
63454W        W28615  35.620   8.931   0.375
63455W        W28616   6.901  13.699  14.844
63456W        W28617   1.790  18.539   1.813
63457W        W28618  27.919   6.454   0.876
63458W        W28619   0.940  25.542  12.889
63459W        W28620  29.884  41.515  13.098
63460W        W28621  27.539  24.995  12.992
63461W        W28622  34.390  10.200  10.745
63462W        W28623  30.341  33.045   3.717
63463W        W28624  30.550  37.101  12.966
63464W        W28625  22.536  17.762   0.290
63465W        W28626  15.144  21.571  13.661
63466W        W28627  30.104  26.155   3.783
63467W        W28628  16.342   0.907   3.404
63468W        W28629   2.865  10.606  12.950
63469W        W28630  31.320  30.069   0.166
63470W        W28631   6.909  10.123   0.859
63471W        W28632  37.774   2.289  13.365
63472W        W28633   3.533  43.253  14.041
63473W        W28634  17.135  36.848  10.714
63474W        W28635  19.032   5.123  11.061
63475W        W28636  16.293  38.418  13.013
63476W        W28637  11.368  32.416   4.202
63477W        W28638  43.345  42.998   3.885
63478W        W28639  33.404  17.951  13.273
63479W        W28640   0.008  38.489  14.971
63480W        W28641  40.737  26.514  12.037
63481W        W28642  11.856  28.904  14.447
63482W        W28643  42.549  37.415   2.593
63483W        W28644  10.913  13.378  13.009
63484W        W28645  10.672   7.842  12.048
63485W        W28646  11.653  31.834   0.315
63486W        W28647   3.634  36.642   4.908
63487W        W28648   4.899  11.444   1.826
63488W        W28649  30.009  15.705   4.418
63489W        W28650  44.281  39.610  14.263
63490W        W28651   2.767  38.272   0.220
63491W        W28652   8.769  40.514   0.080
63492W        W28653   8.237  21.196   1.809
63493W        W28654  16.062   9.827  11.686
63494W        W28655  41.551  12.617   2.075
63495W        W28656   2.196  41.001  12.649
63496W        W28657  12.368  15.810  14.708
63497W        W28658  42.891  39.278  12.150
63498W        W28659   2.053  14.466   2.875
63499W        W28660  14.702  35.497   2.799
63500W        W28661   5.749  27.683   4.439
63501W        W28662   0.985  24.127  12.094
63502W        W28663   1.692  42.808   1.356
63503W        W28664  23.186  17.572   1.900
63504W        W28665  43.271  12.821   3.578
63505W        W28666   8.597  31.010   4.805
63506W        W28667  39.447  44.424  10.784
63507W        W28668  16.047  16.830   4.508
63508W        W28669  41.362   8.939   0.321
63509W        W28670   6.875  16.197  12.393
63510W        W28671  29.187   1.487   1.256
63511W        W28672  14.662   8.945   0.829
63512W        W28673  44.677  10.271   2.667
63513W        W28674  28.031  28.872   1.104
63514W        W28675  34.291  20.535  14.353
63515W        W28676  10.597  20.079   2.259
63516W        W28677  26.093  15.112  10.342
63517W        W28678  36.262  16.283  12.014
63518W        W28679  28.316   8.238   0.666
63519W        W28680  26.363  25.123  13.416
63520W        W28681  28.002  19.611  12.398
63521W        W28682  33.659  22.257  14.897
63522W        W28683  24.517  13.406  13.038
63523W        W28684  23.743   4.406   2.796
63524W        W28685   8.790  36.118   2.316
63525W        W28686   8.566  14.250  11.575
63526W        W28687  34.642   6.866  12.507
63527W        W28688  26.999  26.741  11.297
63528W        W28689  11.551  23.467   0.975
63529W        W28690  31.935  31.398  12.191
63530W        W28691   2.274  42.310   4.417
63531W        W28692  14.214   5.309  13.596
63532W        W28693  24.742  33.021   3.569
63533W        W28694   4.808  40.032   1.369
63534W        W28695  37.975  33.365   2.630
63535W        W28696  33.600  30.054  12.503
63536W        W28697  13.571  12.905  11.936
63537W        W28698   1.031  10.356   0.178
63538W        W28699  10.875   6.290  10.583
63539W        W28700  33.171  34.714   2.869
63540W        W28701  30.203   9.370  14.470
63541W        W28702  25.959  23.219  14.033
63542W        W28703  26.648  30.636  13.991
63543W        W28704  39.710  13.496  13.364
63544W        W28705   2.013  38.313   4.745
63545W        W28706   8.699   9.355  12.044
63546W        W28707  25.005   0.675  13.253
63547W        W28708  32.763   1.775  11.701
63548W        W28709  27.940   3.698   3.145
63549W        W28710  44.410  37.655   3.538
63550W        W28711  35.147  43.173   3.303
63551W        W28712   9.366  18.322   4.054
63552W        W28713  24.592  21.724   1.798
63553W        W28714  12.754  16.582   0.543
63554W        W28715   4.360  32.127  14.417
63555W        W28716   3.123  29.443   1.815
63556W        W28717  33.613   3.402   4.141
63557W        W28718  38.429   5.712   3.267
63558W        W28719  33.191   3.035   2.937
63559W        W28720   6.401  17.160  10.673
63560W        W28721  17.621   2.743  10.568
63561W        W28722  42.412  40.534  11.093
63562W        W28723   2.756  17.149  10.992
63563W        W28724  44.287  13.790  13.921
63564W        W28725  21.076  41.404   2.022
63565W        W28726  35.462  38.288   4.078
63566W        W28727  32.416  20.398  10.713
63567W        W28728  10.749  33.587   1.090
63568W        W28729  11.617  29.562  12.868
63569W        W28730  13.837  22.410   2.370
63570W        W28731  33.730  11.750   0.880
63571W        W28732   0.422  37.515   5.328
63572W        W28733  16.169  29.497  12.494
63573W        W28734  12.277  36.980   3.362
63574W        W28735  29.383  25.218   3.642
63575W        W28736  42.585  28.951  13.035
63576W        W28737  44.029   7.373  12.547
63577W        W28738  38.597  41.596   3.604
63578W        W28739  13.609  17.617  11.574
63579W        W28740   1.383  34.863  11.198
63580W        W28741   2.157  22.534   5.017
63581W        W28742  10.312  14.340   3.629
63582W        W28743  33.821  31.680   3.511
63583W        W28744  15.920  22.828   2.726
63584W        W28745  11.306  23.147   0.048
63585W        W28746  19.450  28.851   3.853
63586W        W28747  33.903   6.070   3.601
63587W        W28748   9.640  21.478  12.840
63588W        W28749   0.367  20.625   0.703
63589W        W28750  25.742   7.766   1.854
63590W        W28751  37.549  35.119  11.901
63591W        W28752   5.641  35.164   1.864
63592W        W28753  32.575  40.139  10.565
63593W        W28754  32.487   9.831  11.150
63594W        W28755  12.767  28.685   4.059
63595W        W28756  35.854   1.499   0.915
63596W        W28757  30.571  37.958   1.861
63597W        W28758  32.561  31.122   1.734
63598W        W28759  38.740   4.645   0.162
63599W        W28760  16.769  35.037   3.328
63600W        W28761  38.824  19.732   0.935
63601W        W28762   3.920  18.383  13.326
63602W        W28763   6.218  13.837  14.459
63603W        W28764  34.871   1.745   0.917
63604W        W28765   3.207  38.999   2.171
63605W        W28766  17.137  28.845  12.561
63606W        W28767   0.422  39.238   4.138
63607W        W28768  38.955  31.445   2.331
63608W        W28769  12.954  25.995   2.785
63609W        W28770  34.419   5.816  11.301
63610W        W28771  37.073  39.917  10.488
63611W        W28772  40.285  43.211  12.987
63612W        W28773  18.266  24.626   2.260
63613W        W28774  36.812  14.827  11.599
63614W        W28775  26.925   5.041   4.571
63615W        W28776  43.406   6.939   2.791
63616W        W28777  41.323  29.771   3.315
63617W        W28778  41.943  23.691  10.682
63618W        W28779   5.244   0.704   3.269
63619W        W28780  14.635   4.219  10.670
63620W        W28781  12.675  41.051   3.789
63621W        W28782  12.133  22.212  14.847
63622W        W28783  21.121   8.072   4.614
63623W        W28784  40.886   7.309  12.871
63624W        W28785   2.072  42.970   0.682
63625W        W28786  22.013  35.365  11.709
63626W        W28787   6.821  18.132  13.910
63627W        W28788   3.311  31.902   0.426
63628W        W28789   6.231  23.832  14.790
63629W        W28790  10.734  37.957  13.426
63630W        W28791  34.958   2.771  13.945
63631W        W28792  30.108  40.634   1.541
63632W        W28793  24.424  31.934   4.372
63633W        W28794   7.430  40.454  14.138
63634W        W28795   7.616  41.057   3.555
63635W        W28796  43.192  38.614   1.467
63636W        W28797  18.661  14.672  12.906
63637W        W28798   4.928   4.569   2.988
63638W        W28799  38.881   4.471  10.625
63639W        W28800  28.200  39.444   2.212
63640W        W28801  14.081   8.784  13.493
63641W        W28802  38.421  44.317  14.462
63642W        W28803   0.739  18.228   0.500
63643W        W28804  43.772  42.984   4.417
63644W        W28805  27.251  39.420   4.947
63645W        W28806  44.742  25.199   3.201
63646W        W28807  35.480   1.014   1.680
63647W        W28808  24.463  18.454   3.017
63648W        W28809   6.276  12.251   1.097
63649W        W28810  32.426  27.787   4.100
63650W        W28811  29.968  37.317   3.467
63651W        W28812  27.017  35.389   0.671
63652W        W28813   2.473  41.263   5.075
63653W        W28814   6.925  13.332   4.507
63654W        W28815  40.062  26.864  14.398
63655W        W28816  24.535  17.336   0.703
63656W        W28817  44.378  32.089   2.149
63657W        W28818  20.044   8.721   0.974
63658W        W28819  38.979  17.359  13.420
63659W        W28820  27.697   7.694   0.312
63660W        W28821   2.731  35.710   1.168
63661W        W28822   1.477  10.085  13.389
63662W        W28823  17.602  25.785  12.971
63663W        W28824   6.287  16.796  11.455
63664W        W28825  35.901  39.015  12.649
63665W        W28826   9.302  24.535   0.165
63666W        W28827   3.281   4.295  11.152
63667W        W28828  31.963  22.448   0.237
63668W        W28829  17.358  32.444  10.437
63669W        W28830   6.450  43.884  14.679
63670W        W28831  23.272   7.909   4.284
63671W        W28832  36.873   7.226   4.470
63672W        W28833   7.545  28.760   0.818
63673W        W28834  17.806  44.037   3.267
63674W        W28835   7.204  30.291  12.991
63675W        W28836  31.831  17.285   3.705
63676W        W28837  41.458   3.675   1.462
63677W        W28838  28.221  43.502  12.809
63678W        W28839  19.573  16.208  12.050
63679W        W28840  28.125   4.770  13.674
63680W        W28841  24.957  26.239  13.087
63681W        W28842  27.681  42.170   2.204
63682W        W28843  20.672   4.311  13.380
63683W        W28844  43.430  35.371   3.836
63684W        W28845  26.461  30.419   1.697
63685W        W28846  30.150  28.757  12.692
63686W        W28847  23.061  11.794  10.783
63687W        W28848  25.934  24.661   1.739
63688W        W28849   0.990  10.304   4.541
63689W        W28850  23.431   7.325  12.687
63690W        W28851  39.041  43.235   2.619
63691W        W28852  38.487  44.684  10.476
63692W        W28853  36.564  11.264   2.651
63693W        W28854  40.880  13.081  11.131
63694W        W28855  33.841  32.419  11.037
63695W        W28856   2.266  36.496   0.136
63696W        W28857  26.113  24.493   4.542
63697W        W28858  18.633   9.869  12.876
63698W        W28859  12.328  24.435   1.398
63699W        W28860  31.628  40.570  11.050
63700W        W28861  15.646   6.266   3.614
63701W        W28862  19.320  11.408  11.924
63702W        W28863  15.786  43.075  10.370
63703W        W28864  16.683   6.419  11.956
63704W        W28865  17.741   0.991  14.653
63705W        W28866  33.441  31.472  11.151
63706W        W28867   4.282  37.948  10.849
63707W        W28868   8.796   0.240   4.299
63708W        W28869  36.165  41.516  11.226
63709W        W28870  34.624  24.210  12.440
63710W        W28871  38.928  33.330   2.874
63711W        W28872  40.133   2.942  13.900
63712W        W28873  18.196   8.221   3.295
63713W        W28874  41.358   6.869  11.193
63714W        W28875  34.711  19.094  11.692
63715W        W28876  14.807   2.243  14.980
63716W        W28877  30.661  22.964   5.275
63717W        W28878  23.018  19.209  14.505
63718W        W28879   9.471  24.082  13.403
63719W        W28880  11.272  37.432   1.810
63720W        W28881  20.630  33.912  14.854
63721W        W28882  30.532  24.633  13.319
63722W        W28883  22.666   8.133  13.442
63723W        W28884  38.839   2.321   3.631
63724W        W28885  17.107  37.432   0.317
63725W        W28886  26.664  42.974   2.350
63726W        W28887   6.663   5.677  13.464
63727W        W28888  32.325   1.899   2.685
63728W        W28889  10.091  24.516  12.368
63729W        W28890   2.342  40.092   1.384
63730W        W28891  13.706  39.496   1.910
63731W        W28892  26.576  26.051  12.935
63732W        W28893  33.553  11.256  13.708
63733W        W28894  43.816  26.193  10.447
63734W        W28895   8.418   9.283   2.206
63735W        W28896   6.979  32.181  11.488
63736W        W28897   0.219  27.516   1.437
63737W        W28898  34.310   8.844   1.839
63738W        W28899  28.944  40.309   4.547
63739W        W28900  31.959  41.370  14.901
63740W        W28901  37.257  28.214   0.745
63741W        W28902  37.208  29.503   0.419
63742W        W28903  34.062  19.172   1.481
63743W        W28904  17.437  40.477  10.297
63744W        W28905   6.143  39.011  14.138
63745W        W28906   1.649  39.697  14.555
63746W        W28907  24.263  13.324  14.287
63747W        W28908   7.207  12.217   4.592
63748W        W28909   8.715  43.433   4.732
63749W        W28910  30.090  36.019   2.092
63750W        W28911  41.860  15.835  12.533
63751W        W28912   1.905  33.354   3.711
63752W        W28913  21.311  15.195   0.174
63753W        W28914  30.305   6.062  11.178
63754W        W28915  27.645  18.293  11.255
63755W        W28916  37.162  26.189  12.445
63756W        W28917  39.566  12.030   1.301
63757W        W28918  13.874  17.159   3.304
63758W        W28919  21.229  27.349   4.096
63759W        W28920  34.570  22.488   0.309
63760W        W28921  38.058  43.795   0.343
63761W        W28922  26.496  38.698   2.752
63762W        W28923  43.495  28.503  12.638
63763W        W28924  20.693  10.613   0.314
63764W        W28925  40.782   5.743   3.129
63765W        W28926   2.954   1.852  10.880
63766W        W28927   0.209   8.664  12.996
63767W        W28928  44.694  10.244   4.093
63768W        W28929   3.518   7.253   2.207
63769W        W28930  17.005  15.327   1.814
63770W        W28931   8.356  25.977  14.840
63771W        W28932   8.002  28.247   4.061
63772W        W28933  27.634  13.435  14.363
63773W        W28934  31.161  10.696   3.451
63774W        W28935  43.342   9.289   1.283
63775W        W28936  19.102  40.340  13.786
63776W        W28937  13.029  33.215  14.814
63777W        W28938  36.885  28.378  12.030
63778W        W28939  17.857  17.586  10.213
63779W        W28940  22.241  41.963   4.962
63780W        W28941  32.716   8.773  11.484
63781W        W28942   6.927  14.668   1.683
63782W        W28943  43.108  19.046  11.003
63783W        W28944  26.555   1.469  12.001
63784W        W28945   3.604  18.789   3.616
63785W        W28946  10.897  40.405   1.287
63786W        W28947  12.503  26.903   1.804
63787W        W28948  44.242   1.999  14.442
63788W        W28949  18.499  19.667   4.536
63789W        W28950   3.222  34.808   3.116
63790W        W28951  23.184  31.877  12.656
63791W        W28952   6.639   9.866  12.443
63792W        W28953  11.000  33.619  11.200
63793W        W28954  11.382  23.274  11.153
63794W        W28955  29.980  38.847  11.989
63795W        W28956  11.549  43.258   0.285
63796W        W28957   7.199  21.143  11.650
63797W        W28958  33.435  32.132   0.022
63798W        W28959   8.048  21.578   2.232
63799W        W28960  15.409  36.462  11.105
63800W        W28961  32.529  35.447   4.811
63801W        W28962  41.932  44.589   0.197
63802W        W28963  18.323   3.992   2.747
63803W        W28964  30.538  20.546   2.599
63804W        W28965  32.047   7.919  10.504
63805W        W28966  44.660  33.801   2.175
63806W        W28967  36.755  38.160  11.991
63807W        W28968  18.331  34.984   1.638
63808W        W28969  37.035  19.506   1.354
63809W        W28970  40.102  38.861   2.780
63810W        W28971   5.194  30.099  10.686
63811W        W28972  24.256  44.828   1.198
63812W        W28973  23.519  26.685   1.351
63813W        W28974  20.167   9.957  12.352
63814W        W28975  34.476  39.309  14.087
63815W        W28976  38.451  27.182   4.665
63816W        W28977   1.926  11.122   1.102
63817W        W28978  14.079  41.989  12.024
63818W        W28979  39.383  29.465   1.607
63819W        W28980  12.765  24.931  14.358
63820W        W28981  43.572  16.375   4.516
63821W        W28982  41.838  44.768  14.680
63822W        W28983   7.169   2.092   3.517
63823W        W28984  23.782  25.585   4.790
63824W        W28985  25.634   4.482   1.394
63825W        W28986  28.829  21.846   2.146
63826W        W28987   0.461  33.614   2.296
63827W        W28988   1.641  10.564  13.365
63828W        W28989  44.720   8.805   4.205
63829W        W28990  14.391   6.474  14.902
63830W        W28991  39.565  32.647   1.392
63831W        W28992  22.128  43.305   4.849
63832W        W28993  29.340  30.442  11.288
63833W        W28994  12.855   6.279   2.631
63834W        W28995  44.155  35.033   2.846
63835W        W28996  12.907  20.645  13.439
63836W        W28997   4.562  36.050  14.650
63837W        W28998   3.874   6.302  13.945
63838W        W28999   3.309  16.509   1.408
63839W        W29000   0.840  18.835   2.800
63840W        W29001  22.115  25.111  12.560
63841W        W29002  38.633  34.788  11.180
63842W        W29003  33.478  27.702   3.612
63843W        W29004  18.512  35.154   2.949
63844W        W29005  13.806  12.393   3.674
63845W        W29006  19.628  34.925  12.368
63846W        W29007  41.217   8.798  14.232
63847W        W29008  25.878  13.792   4.994
63848W        W29009  24.702  24.665   3.301
63849W        W29010  43.622   9.308  12.892
63850W        W29011  17.816  11.237  13.954
63851W        W29012  30.136   9.706  13.777
63852W        W29013  22.907  26.074   2.858
63853W        W29014  17.673   7.104   4.849
63854W        W29015  14.671  43.472  12.648
63855W        W29016  43.043  35.010  13.935
63856W        W29017  22.589  19.997   3.714
63857W        W29018  14.247  37.425  10.809
63858W        W29019   8.826  33.833  13.927
63859W        W29020   3.465  17.066   2.264
63860W        W29021  13.180  26.526   3.447
63861W        W29022  14.891  44.286   4.103
63862W        W29023  36.783  42.106   4.534
63863W        W29024   4.435  33.105   4.862
63864W        W29025  31.060  16.201   0.780
63865W        W29026   8.691  15.495  14.008
63866W        W29027   9.458  35.663  12.504
63867W        W29028  39.133   1.291  12.899
63868W        W29029  41.552  44.481  13.419
63869W        W29030   2.903  16.812   4.717
63870W        W29031   2.356  33.127  12.493
63871W        W29032   5.850  14.820  10.381
63872W        W29033  44.771  13.927  14.733
63873W        W29034  30.405  17.881  11.330
63874W        W29035  34.160  19.815  11.072
63875W        W29036   2.719  31.868   1.810
63876W        W29037  33.317  22.841   3.289
63877W        W29038  16.777  31.525  10.952
63878W        W29039  10.037  21.108   5.099
63879W        W29040  43.320   2.425   3.264
63880W        W29041   5.752   3.663  12.370
63881W        W29042  35.986  38.457   1.645
63882W        W29043  12.421  17.028  10.768
63883W        W29044  25.757  16.086  14.873
63884W        W29045   2.432  11.867  13.966
63885W        W29046   8.615  25.243   0.242
63886W        W29047   1.848  10.813   0.010
63887W        W29048  16.905  33.874  13.018
63888W        W29049  35.825  42.861  10.741
63889W        W29050  40.000  34.243   3.331
63890W        W29051  34.146   5.025   4.120
63891W        W29052  19.211  30.126  13.442
63892W        W29053  36.994  22.266  10.747
63893W        W29054  37.514  43.841   1.796
63894W        W29055  44.808   3.480  11.467
63895W        W29056  16.533  22.053   0.746
63896W        W29057  41.875  27.237   2.830
63897W        W29058  22.603  12.914  11.223
63898W        W29059  27.030  39.825  13.411
63899W        W29060  25.626   5.937  14.816
63900W        W29061   3.302   9.337  11.346
63901W        W29062  35.466  27.983  11.366
63902W        W29063  40.101  12.806   0.892
63903W        W29064  11.541  19.860  14.544
63904W        W29065  17.929  38.873   1.800
63905W        W29066  24.672  29.786  12.313
63906W        W29067  32.384  42.913   4.049
63907W        W29068  31.998  32.411   4.068
63908W        W29069  22.368  10.978   2.348
63909W        W29070  18.074  31.677   0.360
63910W        W29071  11.963  42.290   0.303
63911W        W29072  24.751   0.237   3.221
63912W        W29073  10.849  39.553  14.263
63913W        W29074  11.063  33.079  12.880
63914W        W29075  38.522  21.500   1.354
63915W        W29076   0.234  42.544  10.847
63916W        W29077  20.628  35.202   4.706
63917W        W29078  17.209   6.277  14.680
63918W        W29079  10.200  14.804  14.999
63919W        W29080  25.707  38.228   4.129
63920W        W29081  31.480   2.521   4.246
63921W        W29082   1.317  13.099   2.369
63922W        W29083  31.595  16.248   4.207
63923W        W29084  41.883  26.501   4.939
63924W        W29085   9.097  15.106   1.459
63925W        W29086   6.239  41.765  13.431
63926W        W29087  43.321  31.965  14.482
63927W        W29088  16.612  16.521   2.211
63928W        W29089  21.622   2.960   3.527
63929W        W29090  29.770  28.754   2.787
63930W        W29091  40.960  16.315   4.568
63931W        W29092   7.261  31.039  13.980
63932W        W29093   7.546  32.688  14.402
63933W        W29094  15.201  11.877   2.447
63934W        W29095  26.405  29.887   2.771
63935W        W29096  10.206  19.535   3.610
63936W        W29097   9.383  10.196  13.581
63937W        W29098   3.493   8.337  12.511
63938W        W29099  27.634  43.932   3.801
63939W        W29100  28.891  22.098   3.227
63940W        W29101   8.844  11.697   2.253
63941W        W29102  29.436  31.617  10.914
63942W        W29103  20.758  41.288  13.492
63943W        W29104  30.907   8.394  13.766
63944W        W29105  29.546   6.156   1.476
63945W        W29106   0.212   5.567  12.076
63946W        W29107  10.598   1.984   1.323
63947W        W29108  28.946  15.988   0.906
63948W        W29109   7.210  34.504  13.556
63949W        W29110  39.923  25.956   3.041
63950W        W29111   3.595  18.239   1.117
63951W        W29112   1.744   6.866  14.231
63952W        W29113   7.949   8.807   4.538
63953W        W29114   4.050  16.769  11.420
63954W        W29115  44.289   5.264  14.413
63955W        W29116  11.197  39.915  10.806
63956W        W29117  18.233  15.146   4.453
63957W        W29118  12.260  31.517   2.349
63958W        W29119  41.812  33.666   0.853
63959W        W29120  33.526  42.875  14.977
63960W        W29121  14.290  20.521  11.040
63961W        W29122  32.419   9.184   4.928
63962W        W29123  21.739  29.561  12.451
63963W        W29124  19.393   9.316  10.871
63964W        W29125   9.486  13.437  12.898
63965W        W29126  39.598  40.497   2.202
63966W        W29127   9.508  20.286  10.877
63967W        W29128  17.523  28.819   1.488
63968W        W29129  22.031  36.443   3.895
63969W        W29130  43.025   1.974   1.361
63970W        W29131  12.310  28.125   2.623
63971W        W29132  25.218  27.999   5.146
63972W        W29133  36.223  18.142  12.124
63973W        W29134  18.284  23.957  12.129
63974W        W29135  26.409  27.532   0.006
63975W        W29136  31.981  34.936   2.315
63976W        W29137  39.101  26.523   3.220
63977W        W29138  36.258  30.345  11.684
63978W        W29139  25.661  16.783  14.361
63979W        W29140  32.612  26.814   4.160
63980W        W29141  38.547  30.833  13.313
63981W        W29142  16.854  44.361   1.940
63982W        W29143  40.384  19.688  11.132
63983W        W29144  14.036  33.953  11.924
63984W        W29145  15.674   2.047  10.400
63985W        W29146  19.713   2.937  12.040
63986W        W29147   0.862  43.794   4.308
63987W        W29148  11.547   0.977   1.424
63988W        W29149   9.135  29.973  11.685
63989W        W29150   9.285  34.876   1.322
63990W        W29151  20.680  39.827  14.078
63991W        W29152  10.346  12.386  11.042
63992W        W29153  25.252  36.798  13.161
63993W        W29154  12.178  42.126  11.035
63994W        W29155  28.429  22.467   4.043
63995W        W29156  23.497  43.454   3.198
63996W        W29157   7.076  14.242   4.569
63997W        W29158  26.401  10.176  11.648
63998W        W29159  36.650  29.177  13.406
63999W        W29160  28.564   7.847   0.399
64000W        W29161  13.193  13.757  14.045
64001W        W29162   4.894  17.289  12.543
64002W        W29163  24.552   4.742   2.596
64003W        W29164  11.400  17.137  10.766
64004W        W29165  42.087  37.715   1.653
64005W        W29166  34.592  29.901   5.058
64006W        W29167   6.223  29.861   0.804
64007W        W29168  31.433  15.106   2.287
64008W        W29169  15.632  25.453   2.147
64009W        W29170   3.213  37.473   3.628
64010W        W29171   2.285  10.210  11.531
64011W        W29172   9.990  20.255   0.655
64012W        W29173  22.299  25.162   0.391
64013W        W29174  30.399  29.053   1.931
64014W        W29175  36.045  14.401   1.762
64015W        W29176  30.283  16.354   0.190
64016W        W29177  34.480  44.282  11.613
64017W        W29178  29.013  33.882   1.160
64018W        W29179  20.789  36.101   4.138
64019W        W29180  11.258   8.133   3.745
64020W        W29181  10.666  27.677  12.527
64021W        W29182  44.012  24.303  10.628
64022W        W29183  13.593  43.353   9.630
64023W        W29184  28.410  26.277  12.509
64024W        W29185  15.111  32.870  14.462
64025W        W29186  43.410  12.455   2.310
64026W        W29187  11.184  19.645   3.246
64027W        W29188  36.878  33.061   1.803
64028W        W29189  37.524  20.471   3.143
64029W        W29190   5.766  26.432   3.191
64030W        W29191  26.160  23.678   0.762
64031W        W29192  19.425  21.453   1.932
64032W        W29193   1.277  14.965   4.763
64033W        W29194  25.128  21.418  11.222
64034W        W29195  36.518  19.122  13.513
64035W        W29196  23.489   2.468   0.003
64036W        W29197  36.087  43.966  13.627
64037W        W29198   9.923   0.041  10.674
64038W        W29199  22.390  39.639  14.156
64039W        W29200   6.316   4.360  12.819
64040W        W29201   0.474  39.973   2.224
64041W        W29202  18.995  14.771  14.275
64042W        W29203  27.422  40.761   2.303
64043W        W29204  14.704  11.752   1.610
64044W        W29205  14.773  11.178   4.146
64045W        W29206  35.871  12.794   0.625
64046W        W29207  12.287   0.424  10.717
64047W        W29208   2.094  37.244   1.808
64048W        W29209  10.578  16.808  11.560
64049W        W29210  18.262  27.479   1.258
64050W        W29211   5.012   2.363  12.674
64051W        W29212  21.248  17.982  10.746
64052W        W29213  25.521  32.537   1.109
64053W        W29214  20.214  41.027  12.544
64054W        W29215  30.376  33.467   4.941
64055W        W29216  36.079  18.711  11.544
64056W        W29217  30.685  32.600  13.341
64057W        W29218  27.944  36.307  13.409
64058W        W29219   0.095  39.379   5.126
64059W        W29220  23.519  32.347  10.616
64060W        W29221  22.282   5.426   3.655
64061W        W29222  40.673  43.418  12.577
64062W        W29223  37.431   3.383   1.822
64063W        W29224   8.915  23.764   0.350
64064W        W29225  25.061  22.858   2.287
64065W        W29226  43.314   6.863  11.995
64066W        W29227  43.205  31.306   1.758
64067W        W29228   2.176  27.593   5.090
64068W        W29229  26.183   6.498   1.333
64069W        W29230  36.510  32.621  11.132
64070W        W29231   8.702  34.473  11.202
64071W        W29232  43.267  36.608   3.177
64072W        W29233  23.697  24.162   1.298
64073W        W29234  30.168  17.826  14.014
64074W        W29235  21.196  38.618  10.425
64075W        W29236  24.674  15.939   3.278
64076W        W29237  11.364  27.029  14.796
64077W        W29238  30.300  17.590   2.295
64078W        W29239  43.082  37.125   3.261
64079W        W29240  35.832  28.570   1.291
64080W        W29241  31.399   9.463  12.741
64081W        W29242   5.732  42.135  12.514
64082W        W29243  42.549   5.652  13.205
64083W        W29244  44.192  32.876  11.983
64084W        W29245  29.386  11.136  14.416
64085W        W29246  25.474  32.318  13.501
64086W        W29247  36.593  18.738   1.237
64087W        W29248   3.372  41.480   1.165
64088W        W29249   5.077   4.224   2.210
64089W        W29250   1.984  26.055  11.063
64090W        W29251   1.846  35.903   4.263
64091W        W29252  41.002  33.130  14.202
64092W        W29253   8.337   7.716  12.337
64093W        W29254  10.145  18.451  12.664
64094W        W29255  10.005  25.349  11.613
64095W        W29256  33.332  22.490   1.623
64096W        W29257  10.112  15.525   0.495
64097W        W29258  30.980  26.041  13.915
64098W        W29259  17.839   5.899  12.917
64099W        W29260  20.841   8.186  10.964
64100W        W29261  41.589  18.279  13.903
64101W        W29262   4.679  36.064  14.151
64102W        W29263  15.086  24.879   2.812
64103W        W29264   0.503   5.708  12.931
64104W        W29265  20.438  22.981  12.872
64105W        W29266   3.981  44.974  11.401
64106W        W29267  15.171  10.842   3.377
64107W        W29268  25.692  14.851   1.341
64108W        W29269  13.308  32.046  13.546
64109W        W29270  27.260  39.190   3.623
64110W        W29271  19.517   9.269   5.052
64111W        W29272  18.640  29.217  13.949
64112W        W29273   5.285   8.343   0.864
64113W        W29274  24.045  16.678   0.993
64114W        W29275   3.326  18.897   4.056
64115W        W29276  30.883  34.043   3.501
64116W        W29277   5.737  28.494  14.257
64117W        W29278  33.920   2.446  13.075
64118W        W29279  16.191  13.403  11.949
64119W        W29280  13.817  19.015  14.379
64120W        W29281   5.975  21.290   4.161
64121W        W29282   6.849   5.224  10.663
64122W        W29283  23.593  26.694   4.313
64123W        W29284   5.435  22.566   0.296
64124W        W29285  33.799  29.089   4.569
64125W        W29286   4.492  29.387  12.767
64126W        W29287  16.609   1.834  12.513
64127W        W29288  25.935  30.009  11.637
64128W        W29289  16.119  32.252  10.720
64129W        W29290  42.549  26.478  10.843
64130W        W29291   6.685   6.630   3.159
64131W        W29292   6.774  38.702  12.103
64132W        W29293   9.379  22.590   3.348
64133W        W29294  20.288   7.283   4.493
64134W        W29295   2.203   3.699  11.975
64135W        W29296  40.127   4.442   2.521
64136W        W29297  24.011  41.447   2.291
64137W        W29298   1.304  31.668   0.079
64138W        W29299   3.159  16.345  14.930
64139W        W29300  33.424  17.580  14.238
64140W        W29301  18.202  38.421  11.996
64141W        W29302  12.846  14.161   1.900
64142W        W29303  36.413  23.087  13.307
64143W        W29304  22.995  28.089  13.512
64144W        W29305  10.316   3.672  10.687
64145W        W29306  40.773  27.955   2.903
64146W        W29307  19.485  17.375   2.381
64147W        W29308   9.093  15.254   1.961
64148W        W29309   0.400  23.150   3.251
64149W        W29310   9.847  39.348   2.441
64150W        W29311  29.700  10.410   2.460
64151W        W29312  36.375  36.884  11.610
64152W        W29313  24.583  19.732  10.729
64153W        W29314   2.774  11.079   0.750
64154W        W29315  34.556  19.859   4.502
64155W        W29316  15.640  35.345  10.772
64156W        W29317  32.156  15.020   3.557
64157W        W29318  44.917  26.731   1.497
64158W        W29319  40.340   8.849  14.886
64159W        W29320  14.493  39.738   2.275
64160W        W29321  14.582   2.252  12.698
64161W        W29322   1.971  10.518   1.920
64162W        W29323  11.685  33.163   3.364
64163W        W29324  40.174  34.400  11.532
64164W        W29325  34.374   3.734  12.361
64165W        W29326  32.607   0.876   4.947
64166W        W29327  28.080  33.476   4.388
64167W        W29328  19.004  18.642   3.027
64168W        W29329  25.672  26.732   4.589
64169W        W29330   3.873  12.161   0.932
64170W        W29331  38.418  32.582  12.423
64171W        W29332  29.276  14.228  12.842
64172W        W29333  43.515  10.842  14.913
64173W        W29334  19.390  13.599  12.457
64174W        W29335  27.245   0.364   0.461
64175W        W29336   2.255  22.575  11.151
64176W        W29337   2.134  35.485   3.630
64177W        W29338   0.412  35.410   1.990
64178W        W29339  26.054  40.862  14.497
64179W        W29340  13.099  29.046   2.194
64180W        W29341   0.407  24.174   0.764
64181W        W29342  21.117  33.467   4.148
64182W        W29343   4.828  19.691   4.731
64183W        W29344   0.162  25.615  14.331
64184W        W29345  41.266   1.153   2.494
64185W        W29346   7.073  43.268  14.033
64186W        W29347  37.157  22.995   1.080
64187W        W29348  17.111  23.554  10.811
64188W        W29349  31.675  38.795   1.511
64189W        W29350  43.387  12.646   1.376
64190W        W29351   6.085  36.303   9.974
64191W        W29352   1.715  41.972   2.877
64192W        W29353  30.068  41.425  13.580
64193W        W29354   3.413  20.189   4.993
64194W        W29355   2.621  43.642   0.661
64195W        W29356   0.039   7.107   4.056
64196W        W29357  21.861  11.114  10.300
64197W        W29358   0.335  39.483   1.169
64198W        W29359  20.944  15.505  12.857
64199W        W29360   2.470  26.228   2.376
64200W        W29361  27.509  20.020   0.547
64201W        W29362  30.478  34.849  11.627
64202W        W29363  19.538  14.773  14.276
64203W        W29364   4.728  40.857   3.426
64204W        W29365   6.922  33.289   4.815
64205W        W29366  35.841  31.018   0.463
64206W        W29367  37.727  16.072   4.573
64207W        W29368  40.723  28.942   2.308
64208W        W29369  30.974   1.255  11.011
64209W        W29370  19.646   7.028   0.382
64210W        W29371  38.274  14.863   1.008
64211W        W29372  32.085  14.350   4.073
64212W        W29373  29.627   8.449   3.372
64213W        W29374  43.038  26.727   4.621
64214W        W29375  39.866  35.015  10.966
64215W        W29376  33.485   3.234  10.362
64216W        W29377  26.113  32.059   3.618
64217W        W29378   8.986   0.495   0.684
64218W        W29379  21.767   7.224  11.033
64219W        W29380  13.788  26.403  12.095
64220W        W29381  35.657   6.723  13.572
64221W        W29382  31.721  29.515   2.747
64222W        W29383  17.344  34.315   4.762
64223W        W29384  38.807  17.645   0.960
64224W        W29385   2.746   2.865  12.089
64225W        W29386  10.315  10.194   4.550
64226W        W29387  31.826   3.771  14.202
64227W        W29388   3.243  40.284  12.009
64228W        W29389  41.889  20.221  13.905
64229W        W29390  21.528  15.954  11.745
64230W        W29391  21.869  25.024  12.108
64231W        W29392  26.598  44.937  14.847
64232W        W29393   2.006  32.385  13.496
64233W        W29394  32.862  27.980  14.456
64234W        W29395  25.228  39.415  14.493
64235W        W29396  19.929   6.446  12.842
64236W        W29397   8.584   0.852   0.482
64237W        W29398  24.589  40.243   4.393
64238W        W29399   3.626   7.958  11.116
64239W        W29400  43.071  33.474  13.335
64240W        W29401  12.377  18.699   0.322
64241W        W29402  13.691  37.052   4.661
64242W        W29403   5.132  15.154   9.998
64243W        W29404   3.780  16.745  12.334
64244W        W29405  21.232  29.520  12.598
64245W        W29406   7.133  31.065   2.900
64246W        W29407  26.967  35.538  11.609
64247W        W29408  12.422  36.954   2.366
64248W        W29409   1.368  27.085  11.635
64249W        W29410  29.027  15.293   3.885
64250W        W29411  30.153  19.799   2.103
64251W        W29412   1.066  31.408   4.247
64252W        W29413   2.405   4.618  14.496
64253W        W29414  26.142  17.417   4.492
64254W        W29415  35.402  20.110   4.504
64255W        W29416  42.798  24.754  13.324
64256W        W29417  32.523   0.340   1.935
64257W        W29418  29.317  30.536  13.660
64258W        W29419  20.492  33.876  13.687
64259W        W29420  30.317  42.676  11.947
64260W        W29421   0.504  25.794  12.980
64261W        W29422   4.131   6.648   1.037
64262W        W29423  15.224  44.295   0.727
64263W        W29424  12.210   7.271   2.418
64264W        W29425  29.897  13.533  13.096
64265W        W29426  18.231  14.325   2.833
64266W        W29427   9.076  42.441   1.799
64267W        W29428  39.393  14.614  10.571
64268W        W29429  44.493   5.991  13.554
64269W        W29430   4.113  30.111  10.695
64270W        W29431  19.826   1.575   3.563
64271W        W29432  14.453  24.608  11.963
64272W        W29433  40.036  34.980  11.911
64273W        W29434   4.970  18.079  11.179
64274W        W29435  15.682  23.690  11.982
64275W        W29436  19.682  31.112   1.264
64276W        W29437  41.358  14.304   1.358
64277W        W29438  21.736  32.944  11.688
64278W        W29439  19.746  41.009   4.809
64279W        W29440   2.763  39.570  11.676
64280W        W29441   3.695   4.314  14.500
64281W        W29442  16.574  27.784  14.964
64282W        W29443  39.129  23.281  11.180
64283W        W29444  27.439   5.509  10.628
64284W        W29445  31.174  16.018   2.481
64285W        W29446  16.532   4.707   1.494
64286W        W29447  12.726   8.088  10.672
64287W        W29448  35.220   3.935   4.163
64288W        W29449   2.717   9.827   0.377
64289W        W29450  33.258  43.990   3.718
64290W        W29451   5.424  17.031   3.236
64291W        W29452   1.742   5.508  11.122
64292W        W29453  37.396  44.289   0.835
64293W        W29454  26.107  17.547   3.743
64294W        W29455  12.737  29.915   4.435
64295W        W29456  13.700  44.797  12.382
64296W        W29457  38.926   5.894  13.654
64297W        W29458  11.388  11.217  12.444
64298W        W29459  35.227   7.932   2.683
64299W        W29460  20.745   0.464  14.812
64300W        W29461  12.618  42.915   4.788
64301W        W29462  44.106  31.063   2.135
64302W        W29463  29.572   2.231   4.145
64303W        W29464  31.241  26.994  12.539
64304W        W29465  19.849  33.176   0.871
64305W        W29466  19.471  32.496  13.857
64306W        W29467  38.263  23.524   0.239
64307W        W29468  30.478   6.500   3.765
64308W        W29469  34.615  30.903  14.062
64309W        W29470  32.995   0.670   0.527
64310W        W29471  43.450   1.778  13.848
64311W        W29472  15.229  36.899   0.338
64312W        W29473  43.044  41.382   0.927
64313W        W29474  32.708  37.450  11.441
64314W        W29475   7.189  28.616   3.102
64315W        W29476  44.992  25.111   3.849
64316W        W29477   8.779  23.925   3.276
64317W        W29478   7.452  15.796   2.128
64318W        W29479  19.738  44.595  10.762
64319W        W29480  23.622  22.534   2.258
64320W        W29481  25.268  21.639  14.372
64321W        W29482  22.241   0.403   0.440
64322W        W29483  15.377   5.289  11.933
64323W        W29484  36.101  33.875   4.560
64324W        W29485  44.589  34.501  13.022
64325W        W29486  22.180  33.864   3.105
64326W        W29487  35.405  35.373  11.486
64327W        W29488  20.166   0.301  11.458
64328W        W29489   8.358   2.451  11.595
64329W        W29490   4.821   2.750   3.586
64330W        W29491  26.396   7.712  14.941
64331W        W29492  15.339  29.420  10.828
64332W        W29493  26.677  24.693   1.377
64333W        W29494  17.825  11.278   0.992
64334W        W29495  19.770  43.029  10.417
64335W        W29496  27.032  11.106  12.460
64336W        W29497  32.002   5.162  11.517
64337W        W29498  44.844  26.819  14.923
64338W        W29499  36.832  39.695   2.266
64339W        W29500  18.513   3.864   2.278
64340W        W29501  11.411   9.269   0.328
64341W        W29502  16.229  41.027   1.224
64342W        W29503  41.823  29.579   3.167
64343W        W29504  41.981  22.009   3.356
64344W        W29505   4.812  40.244   4.241
64345W        W29506  36.589  27.916   3.008
64346W        W29507   1.888  32.113  11.899
64347W        W29508  40.961  38.142   4.077
64348W        W29509  10.593  33.235  11.191
64349W        W29510   5.787  15.096  13.500
64350W        W29511  30.375  33.869   3.604
64351W        W29512  10.407  39.831  12.118
64352W        W29513  27.546   7.770  13.775
64353W        W29514   0.301  10.021   1.307
64354W        W29515  21.156  43.550   2.845
64355W        W29516  25.112   2.393  11.903
64356W        W29517   0.953   0.806   0.970
64357W        W29518  37.499   1.938  11.030
64358W        W29519  42.596  43.905  14.249
64359W        W29520  39.897  43.476   0.480
64360W        W29521   4.173  19.597   2.004
64361W        W29522   6.875   7.226   2.406
64362W        W29523  34.388  43.209   2.685
64363W        W29524   5.833  12.588  11.446
64364W        W29525  17.252  26.305   4.119
64365W        W29526  24.481   6.300  13.847
64366W        W29527  12.686  31.628  14.830
64367W        W29528  12.766  40.723   0.293
64368W        W29529  14.424  30.267   0.431
64369W        W29530  21.556   1.503   1.258
64370W        W29531  35.268   2.874   3.833
64371W        W29532  26.364  22.521  14.081
64372W        W29533  31.670  42.862  13.329
64373W        W29534  41.949  35.757   1.530
64374W        W29535  31.351   4.932   1.733
64375W        W29536  16.705   5.724  14.741
64376W        W29537  25.519   8.477  13.210
64377W        W29538  22.926  18.225  11.696
64378W        W29539  22.012  44.045   1.980
64379W        W29540  42.723  41.964  13.470
64380W        W29541  15.333   2.879   0.994
64381W        W29542   6.899  25.014   0.226
64382W        W29543   0.366  42.253  14.627
64383W        W29544  13.893  44.898  14.268
64384W        W29545  37.230   2.256   3.561
64385W        W29546   8.863  37.904   3.320
64386W        W29547  24.542  18.319   4.597
64387W        W29548  34.176  32.051  11.091
64388W        W29549  28.109  34.808  13.441
64389W        W29550   1.288  10.741  14.879
64390W        W29551   6.289  34.257   4.964
64391W        W29552  37.986  35.903   2.828
64392W        W29553  30.963  36.850   0.820
64393W        W29554  43.129  14.840   1.333
64394W        W29555  20.330   1.942  13.408
64395W        W29556  37.335  12.732  14.058
64396W        W29557  44.414   8.838  11.238
64397W        W29558  25.888  42.630  10.700
64398W        W29559   5.413  12.911  11.411
64399W        W29560  18.039  24.999   2.877
64400W        W29561  28.714   0.375   0.597
64401W        W29562   4.948  34.863  14.802
64402W        W29563  22.767  36.916   1.958
64403W        W29564  31.109  41.588  13.348
64404W        W29565  32.898  11.569   0.263
64405W        W29566  31.051  43.549   2.618
64406W        W29567   6.745  16.885  11.015
64407W        W29568  21.724   2.238  11.147
64408W        W29569  11.694  34.338  12.598
64409W        W29570  38.440  30.586  11.150
64410W        W29571   5.862  37.721  11.720
64411W        W29572  33.885   0.704   3.472
64412W        W29573  11.522  25.948  13.312
64413W        W29574  28.192  19.506   0.191
64414W        W29575  17.103  44.516   4.106
64415W        W29576  31.916  14.653  10.541
64416W        W29577   2.750  16.353   4.863
64417W        W29578  38.123  11.295  11.721
64418W        W29579  25.937  35.895   3.617
64419W        W29580  41.015   2.245   4.113
64420W        W29581  44.279  34.387   2.239
64421W        W29582   5.787   5.718  10.599
64422W        W29583   4.191   6.632   4.598
64423W        W29584  14.703  23.159  10.904
64424W        W29585  24.423  11.171  12.258
64425W        W29586   4.849  33.342  14.794
64426W        W29587  31.773  13.934  13.460
64427W        W29588  22.002  33.879  13.812
64428W        W29589  37.330  28.641  12.870
64429W        W29590   4.790  39.803  14.365
64430W        W29591  40.293  37.726   1.509
64431W        W29592   6.699  34.555   2.250
64432W        W29593  38.719  35.330   2.711
64433W        W29594  35.088  26.957   4.196
64434W        W29595   4.542  36.509  13.328
64435W        W29596  16.584  22.016   0.227
64436W        W29597  11.446  36.867   0.885
64437W        W29598   6.463  38.441   3.195
64438W        W29599  44.491   7.831  13.481
64439W        W29600  43.060  41.904  10.477
64440W        W29601  26.957  35.492  14.712
64441W        W29602  29.462  41.487  12.121
64442W        W29603  42.919  42.366   2.861
64443W        W29604  35.149  22.141   0.840
64444W        W29605  18.719  32.285  14.243
64445W        W29606  16.198  44.770  10.207
64446W        W29607  15.796   7.579  11.508
64447W        W29608  33.262  34.120   0.462
64448W        W29609  18.617  21.510   5.039
64449W        W29610  13.546  36.015  12.680
64450W        W29611  17.702   7.325   2.368
64451W        W29612  34.175  24.568  10.227
64452W        W29613   7.301  15.903   2.658
64453W        W29614  43.740   9.745   1.273
64454W        W29615  33.346   4.600  11.394
64455W        W29616  16.531   3.395  12.580
64456W        W29617  21.725  27.573  14.990
64457W        W29618  27.285  29.169  12.514
64458W        W29619  37.446  22.508  10.747
64459W        W29620  17.899  17.197  13.477
64460W        W29621  25.161  41.897  12.890
64461W        W29622   5.253  10.166   1.653
64462W        W29623  34.544  25.663   1.260
64463W        W29624   5.456  18.237  12.047
64464W        W29625  21.733   5.902  10.780
64465W        W29626  10.143  38.602   1.890
64466W        W29627  16.295  23.768   3.580
64467W        W29628  36.394  17.741   4.089
64468W        W29629  29.638  32.870  12.138
64469W        W29630  38.137  16.316  11.535
64470W        W29631   5.652  18.731  13.946
64471W        W29632   5.712   1.254   3.611
64472W        W29633  24.274  28.251  10.634
64473W        W29634  23.230  11.259   2.377
64474W        W29635  41.231  28.927   3.111
64475W        W29636  16.830  44.324   3.679
64476W        W29637  31.091  28.664   4.607
64477W        W29638  34.986   8.899   1.977
64478W        W29639  42.901  20.543  10.785
64479W        W29640  33.697   2.442  13.561
64480W        W29641  41.802  18.594  12.486
64481W        W29642  40.920  16.795   3.599
64482W        W29643  35.012  14.743   0.505
64483W        W29644  14.232   7.633   0.877
64484W        W29645  33.522  42.515  11.335
64485W        W29646   7.302  20.726  14.901
64486W        W29647  23.782   7.892   3.321
64487W        W29648  33.056  37.368   2.154
64488W        W29649  42.350  41.031  14.357
64489W        W29650   8.129   8.593   3.319
64490W        W29651   3.548   2.293  12.372
64491W        W29652  19.160  32.233  14.611
64492W        W29653   5.938  16.839  14.876
64493W        W29654  30.968  36.133   4.527
64494W        W29655   9.418  28.906   4.735
64495W        W29656   7.333  38.857   2.245
64496W        W29657  30.478   8.363  14.559
64497W        W29658  13.659  25.673  13.979
64498W        W29659  34.172  27.661  13.858
64499W        W29660  29.012   1.408   0.464
64500W        W29661  21.791  35.553   2.168
64501W        W29662   9.141  38.131  12.523
64502W        W29663  20.196  31.295  13.168
64503W        W29664  29.136  42.148   2.647
64504W        W29665  16.530  30.516  12.985
64505W        W29666   7.694  43.756   2.804
64506W        W29667  31.406  29.678  14.820
64507W        W29668   6.401   2.438   1.314
64508W        W29669  43.095  44.111  10.587
64509W        W29670  26.615  11.056  12.802
64510W        W29671  27.366  19.602  11.013
64511W        W29672   4.667   5.700  13.373
64512W        W29673  39.963  27.591  11.613
64513W        W29674   6.456  30.141  10.164
64514W        W29675  12.827   9.199  13.155
64515W        W29676   4.047  22.575   1.400
64516W        W29677   3.448  25.548   2.709
64517W        W29678  36.997  24.603  10.575
64518W        W29679  11.229  36.741  14.011
64519W        W29680  40.604  36.716   4.651
64520W        W29681  38.129   1.487  10.325
64521W        W29682  15.005  23.583  12.324
64522W        W29683  34.578  23.281   0.680
64523W        W29684   5.334   5.630   0.944
64524W        W29685  12.162  34.112  12.491
64525W        W29686  20.726  36.027  13.369
64526W        W29687  30.447  26.086  10.614
64527W        W29688   2.282  14.657  14.450
64528W        W29689   4.455   6.688   2.749
64529W        W29690   1.294  42.352   3.710
64530W        W29691  42.739  10.622  12.872
64531W        W29692  20.202  22.128  14.269
64532W        W29693  23.916   6.569   1.588
64533W        W29694  21.122  15.554   2.839
64534W        W29695  24.436  20.895  11.189
64535W        W29696  26.875  29.497   1.636
64536W        W29697  41.050   7.768  14.934
64537W        W29698  25.770   7.011  12.156
64538W        W29699  17.208  17.128  14.842
64539W        W29700  19.659  11.118   4.124
64540W        W29701  31.239  17.525  12.997
64541W        W29702   1.810  15.156   4.684
64542W        W29703   9.279  23.788  10.789
64543W        W29704   3.221   5.905  14.475
64544W        W29705   1.196   7.168   0.898
64545W        W29706  21.606   3.239   1.701
64546W        W29707   7.353  30.799   0.392
64547W        W29708  14.169  31.905   2.213
64548W        W29709  44.302  14.231  10.286
64549W        W29710  39.361  43.050   2.235
64550W        W29711  23.786   4.793  10.602
64551W        W29712  32.197  12.143  14.507
64552W        W29713  38.078  23.672  13.833
64553W        W29714  19.253  10.290  12.994
64554W        W29715  36.810  28.664   0.939
64555W        W29716  43.867  16.916   2.809
64556W        W29717  14.332  17.283  14.975
64557W        W29718   8.392   3.760  14.750
64558W        W29719  29.087  19.688  13.582
64559W        W29720  17.314  38.219   0.581
64560W        W29721  17.795   6.257   1.799
64561W        W29722  39.803  33.883   3.020
64562W        W29723  22.524  20.086   0.405
64563W        W29724  29.350  20.146   1.582
64564W        W29725  25.292   4.812   5.337
64565W        W29726  35.972  33.909  12.112
64566W        W29727  33.384  11.299  11.810
64567W        W29728  12.556  14.894   4.047
64568W        W29729  40.752  16.120   4.129
64569W        W29730  30.068  10.435   1.262
64570W        W29731  35.089   5.595  14.949
64571W        W29732  43.358  28.946  10.618
64572W        W29733  36.951  44.385  13.301
64573W        W29734   3.795  35.110  12.537
64574W        W29735  40.783  25.642   2.688
64575W        W29736  13.264  23.076  12.490
64576W        W29737   9.915  11.750  10.524
64577W        W29738   6.318   0.503  14.300
64578W        W29739  11.345  40.333  11.072
64579W        W29740   6.731  23.751  11.098
64580W        W29741   2.982  43.186   2.253
64581W        W29742  42.940  23.017   4.389
64582W        W29743  38.884   2.957   3.025
64583W        W29744  22.248  24.201   2.070
64584W        W29745  44.020  13.285   1.549
64585W        W29746  23.632  38.488   9.652
64586W        W29747  11.806  22.534   3.371
64587W        W29748  15.529  10.687  14.004
64588W        W29749   8.995  37.538  12.057
64589W        W29750  25.620  38.059  12.908
64590W        W29751  15.256  28.476  12.066
64591W        W29752  39.643  24.193  10.602
64592W        W29753  38.295  24.105  14.040
64593W        W29754   9.148  43.041  11.047
64594W        W29755  32.657  33.584   1.913
64595W        W29756  27.823  12.560   1.310
64596W        W29757  19.998  14.815   1.230
64597W        W29758  15.224   0.545   1.112
64598W        W29759  14.316  31.500  13.879
64599W        W29760  10.347   6.979  12.160
64600W        W29761  14.779  20.158  13.602
64601W        W29762  33.123   5.909  12.430
64602W        W29763  43.920  17.702   0.353
64603W        W29764  36.019   3.852  11.996
64604W        W29765  29.041  39.804   1.854
64605W        W29766  38.826  27.679  13.320
64606W        W29767  38.161  15.567   0.342
64607W        W29768  37.500  20.537   2.633
64608W        W29769  23.214   1.603  12.517
64609W        W29770  36.950  12.802   0.052
64610W        W29771  24.227  22.713  13.770
64611W        W29772  27.066  38.323   1.735
64612W        W29773   1.807  38.072  11.676
64613W        W29774  32.037  21.451   0.471
64614W        W29775   4.670  27.607  14.254
64615W        W29776  14.625  39.223   2.926
64616W        W29777  38.949  10.566  11.064
64617W        W29778  31.034   4.670  13.432
64618W        W29779  41.289  11.795  14.359
64619W        W29780  15.112  17.701   2.781
64620W        W29781  16.512  26.786   2.656
64621W        W29782   1.316  24.776   0.913
64622W        W29783  42.718  30.534  13.874
64623W        W29784  37.607  30.661  13.362
64624W        W29785  43.005  41.552  14.254
64625W        W29786  19.323  43.391   2.668
64626W        W29787  24.145  42.242  10.689
64627W        W29788  35.870  15.607   1.298
64628W        W29789  40.909  12.009  12.343
64629W        W29790  35.919  43.013   4.709
64630W        W29791  17.260  33.485   2.219
64631W        W29792  42.368  41.785   4.713
64632W        W29793  25.673  17.157   3.638
64633W        W29794   6.642  14.303   1.926
64634W        W29795  15.428  13.403   4.092
64635W        W29796   1.444  12.041   4.988
64636W        W29797   8.329  21.273   4.425
64637W        W29798   4.296  42.213   2.189
64638W        W29799  32.057  27.612  10.541
64639W        W29800  31.674  18.328  12.304
64640W        W29801   6.925  13.681  13.958
64641W        W29802  24.596  34.551   0.378
64642W        W29803   9.430  32.690  13.435
64643W        W29804  24.755  36.308   5.004
64644W        W29805  27.148  10.364  14.492
64645W        W29806  30.456   0.890  10.913
64646W        W29807  39.327  25.851  13.347
64647W        W29808  21.599  26.282  11.398
64648W        W29809  16.089   2.214   1.640
64649W        W29810  31.432  18.037  10.452
64650W        W29811  27.665  22.153   0.242
64651W        W29812  13.358  12.111   3.814
64652W        W29813  19.629  10.264  10.185
64653W        W29814  12.759  38.349  11.806
64654W        W29815  11.575   6.665   2.384
64655W        W29816  32.508   5.536   2.874
64656W        W29817  15.960  13.506  12.961
64657W        W29818  43.348  16.564   0.978
64658W        W29819  10.618  13.235   2.904
64659W        W29820  16.630  41.508  13.231
64660W        W29821  20.726  40.487   1.892
64661W        W29822  26.630  44.517  13.938
64662W        W29823  19.237   3.742  10.958
64663W        W29824  37.924  15.809   3.275
64664W        W29825  38.505  38.986   1.568
64665W        W29826  15.655  35.958  12.150
64666W        W29827  32.141  28.072  11.804
64667W        W29828  32.364   4.461  10.289
64668W        W29829   8.305  24.208  11.462
64669W        W29830  40.343   0.458   2.871
64670W        W29831  28.176  24.027  11.149
64671W        W29832  31.314  38.425   4.458
64672W        W29833   4.185  27.205  10.644
64673W        W29834  44.962  39.998   4.664
64674W        W29835  44.243  21.585   2.835
64675W        W29836  10.916   0.315   1.856
64676W        W29837  30.112  28.390  14.372
64677W        W29838  18.633  28.922   3.598
64678W        W29839  44.792  33.500   0.992
64679W        W29840   9.267  41.548  13.962
64680W        W29841  29.921  40.333  13.018
64681W        W29842   0.218  41.223  12.060
64682W        W29843   3.450  15.391  14.976
64683W        W29844   3.346  35.460  14.319
64684W        W29845  23.223  21.611  12.615
64685W        W29846  43.774  30.481   0.934
64686W        W29847  28.659   9.279   2.825
64687W        W29848  30.554  41.023   3.664
64688W        W29849  12.745  12.631  11.152
64689W        W29850  10.148  16.827   3.603
64690W        W29851  35.314  12.075  10.615
64691W        W29852  39.541  44.264   4.160
64692W        W29853  28.228   8.779  14.838
64693W        W29854   2.439  42.097   3.601
64694W        W29855  28.970  31.358  12.872
64695W        W29856  16.179  33.476  14.421
64696W        W29857  35.137  11.238   1.302
64697W        W29858  44.367  30.391  12.767
64698W        W29859   3.391   3.249  14.561
64699W        W29860  25.727  34.150  11.386
64700W        W29861   7.300  42.459   2.186
64701W        W29862  14.032  27.045  12.132
64702W        W29863   6.651  24.260  11.115
64703W        W29864  21.295  27.763  12.518
64704W        W29865  13.214  24.188  14.636
64705W        W29866  16.810   2.168   3.824
64706W        W29867  30.501   2.416  10.744
64707W        W29868  15.336  14.088   0.802
64708W        W29869  10.410   6.857   2.597
64709W        W29870   6.688  36.417  13.038
64710W        W29871  24.467  38.955   1.823
64711W        W29872   2.698  13.628  11.689
64712W        W29873  37.862  12.716   4.194
64713W        W29874  14.233  37.936   3.988
64714W        W29875   6.402  10.597   1.186
64715W        W29876  21.172  12.183   4.568
64716W        W29877  25.046  44.239  14.295
64717W        W29878   3.122  35.721   3.612
64718W        W29879  14.122  14.916  13.356
64719W        W29880  20.252   1.837  12.567
64720W        W29881  17.177   4.363  11.877
64721W        W29882  33.357   8.512  10.365
64722W        W29883  16.560  26.889  11.804
64723W        W29884  34.473  17.788  11.766
64724W        W29885  25.584  25.808   4.827
64725W        W29886  25.540  19.738  12.841
64726W        W29887  27.545  43.479   3.538
64727W        W29888  33.123  37.942  11.991
64728W        W29889   1.928  41.793  12.460
64729W        W29890  43.036  22.597  11.123
64730W        W29891  42.815  31.484  12.528
64731W        W29892  28.041  14.583  10.697
64732W        W29893  42.511  13.483   0.797
64733W        W29894  13.900  23.117  14.732
64734W        W29895  24.254  39.637   2.482
64735W        W29896  22.032  43.782  11.948
64736W        W29897  19.834  24.684   9.681
64737W        W29898  34.501  28.914  13.176
64738W        W29899  20.584   0.162  10.666
64739W        W29900  43.620  34.067  10.288
64740W        W29901  15.579  13.714  13.372
64741W        W29902   9.762  20.958  12.864
64742W        W29903  42.301  20.565   0.554
64743W        W29904  44.697  29.870  12.500
64744W        W29905   7.753  10.635   1.362
64745W        W29906  14.830  36.876   4.491
64746W        W29907  41.585   5.257   2.361
64747W        W29908   5.939   4.367  11.042
64748W        W29909  23.481  14.807  10.677
64749W        W29910  14.365   5.976  14.768
64750W        W29911  11.235  27.089   4.240
64751W        W29912   9.272  14.324  10.872
64752W        W29913  11.204  10.876   1.246
64753W        W29914  23.911  34.177  10.391
64754W        W29915  29.515  37.669  12.225
64755W        W29916  16.088  25.961   0.403
64756W        W29917   0.274   8.678   2.821
64757W        W29918   9.573  31.130   3.870
64758W        W29919  21.439  37.107   3.559
64759W        W29920   0.977  27.230   3.758
64760W        W29921  40.967   4.360  14.518
64761W        W29922  40.353   3.286  11.460
64762W        W29923  33.284  38.552  10.977
64763W        W29924  15.822  22.060   3.159
64764W        W29925  42.508  35.278   3.772
64765W        W29926  21.109  32.434   3.690
64766W        W29927  28.775  33.355  10.689
64767W        W29928  37.808  21.841  13.772
64768W        W29929  39.327   2.177   4.069
64769W        W29930  13.166   4.412   3.411
64770W        W29931   5.978  35.550   2.026
64771W        W29932  26.868  26.541   3.375
64772W        W29933   0.814  25.643   1.052
64773W        W29934   3.257  35.262   3.868
64774W        W29935  11.569  41.381  10.133
64775W        W29936   7.803  41.791   3.155
64776W        W29937  15.660   6.117   0.395
64777W        W29938  29.856   6.030  13.463
64778W        W29939  39.929  24.313   1.579
64779W        W29940  26.134   9.750   0.211
64780W        W29941   4.018  19.690  14.830
64781W        W29942  39.952  27.183   4.220
64782W        W29943   2.162   8.354  12.286
64783W        W29944  39.799  21.696  11.670
64784W        W29945   3.322  32.448   4.663
64785W        W29946   2.468  28.129   3.083
64786W        W29947  22.097  17.491  10.686
64787W        W29948  18.101  30.128  12.970
64788W        W29949  39.585  41.522  14.339
64789W        W29950  13.782  10.398   1.882
64790W        W29951  36.363  23.524   4.095
64791W        W29952  43.312  29.392   2.673
64792W        W29953  35.382  14.784   1.460
64793W        W29954   2.784  44.871  13.432
64794W        W29955  41.791   0.482   2.841
64795W        W29956  19.726  30.543   1.304
64796W        W29957  11.086  14.435   4.211
64797W        W29958  27.671  20.019  14.034
64798W        W29959  22.708  13.793  14.479
64799W        W29960  14.198  23.777  14.340
64800W        W29961  25.032  19.230  14.070
64801W        W29962  32.395  44.592  13.868
64802W        W29963  31.232  27.356   2.378
64803W        W29964  35.119  12.864   2.837
64804W        W29965  34.498  13.828  10.865
64805W        W29966   1.936  20.176   4.136
64806W        W29967  21.020  23.238   4.562
64807W        W29968  37.726  25.261  11.060
64808W        W29969  37.584  21.566  11.924
64809W        W29970   0.371  26.542  13.384
64810W        W29971  25.704   2.765  13.964
64811W        W29972   8.876  40.362   0.568
64812W        W29973  14.745  33.656   9.855
64813W        W29974  15.419  11.115   0.808
64814W        W29975   1.674  42.440  10.699
64815W        W29976   5.465  38.975   2.148
64816W        W29977  39.090  23.399  13.842
64817W        W29978  15.153  14.720   3.643
64818W        W29979  35.856   0.892   4.612
64819W        W29980  19.799  38.617  14.494
64820W        W29981  30.823  43.410  12.105
64821W        W29982  27.975  21.987   2.194
64822W        W29983   9.301  11.230   1.065
64823W        W29984   1.930   1.222   4.097
64824W        W29985  34.028  15.149  14.748
64825W        W29986  38.982  30.888   0.581
64826W        W29987  24.022  31.933   1.817
64827W        W29988  12.750  38.909  10.688
64828W        W29989  20.598  32.900  13.474
64829W        W29990  14.256  18.113   4.206
64830W        W29991  35.379   6.661   4.086
64831W        W29992  42.974  35.498   3.078
64832W        W29993  12.087  34.478  11.395
64833W        W29994   0.875  18.076   3.277
64834W        W29995   0.208  26.704   2.438
64835W        W29996  30.908  23.797  12.268
64836W        W29997  26.116  12.840  11.201
64837W        W29998  37.030  44.747  14.451
64838W        W29999  11.398  14.055   1.450
64839W        W30000  32.039  21.219  13.018
64840W        W30001  32.732  21.626   2.201
64841W        W30002   9.885   8.683  10.616
64842W        W30003  20.163   5.566   2.996
64843W        W30004  27.574  33.385   0.372
64844W        W30005   8.165  19.513   0.317
64845W        W30006  27.435  22.040   4.290
64846W        W30007   2.722  43.419   2.648
64847W        W30008  14.258   4.151  14.308
64848W        W30009  18.091  36.907   3.083
64849W        W30010   4.731   5.795   1.842
64850W        W30011  26.029  21.317  10.662
64851W        W30012   4.293   0.475   0.823
64852W        W30013  37.480  18.084  12.449
64853W        W30014  15.187  29.568   0.946
64854W        W30015  12.327  28.871   1.855
64855W        W30016  31.211   2.797   1.709
64856W        W30017  36.464  11.571   1.656
64857W        W30018   2.958   1.886  11.929
64858W        W30019  10.787   5.503   1.269
64859W        W30020  43.479  24.441   1.194
64860W        W30021  18.080  43.916   2.861
64861W        W30022   5.230  34.578  11.616
64862W        W30023  29.131  42.026   2.154
64863W        W30024  29.046  16.200  10.904
64864W        W30025   7.709  39.936  12.666
64865W        W30026  22.160  28.107   1.754
64866W        W30027  28.594  36.801  14.357
64867W        W30028  39.947  40.711  14.360
64868W        W30029  35.450  39.613   0.650
64869W        W30030  38.091  11.161   3.062
64870W        W30031  27.949  37.572  10.943
64871W        W30032   1.381   3.909   2.819
64872W        W30033   9.183   4.717   3.208
64873W        W30034  15.081   1.293   1.961
64874W        W30035  38.720  22.602   3.082
64875W        W30036  30.593  33.541  14.303
64876W        W30037  20.443  20.090   4.826
64877W        W30038  17.018  10.855  13.776
64878W        W30039   9.198  30.552   2.269
64879W        W30040  44.047   5.631   0.840
64880W        W30041  35.997  19.546  10.741
64881W        W30042  18.624  36.078  12.990
64882W        W30043  16.996  30.622   4.789
64883W        W30044  31.334   7.475   0.413
64884W        W30045  14.719  27.374  13.513
64885W        W30046  18.213  10.812   4.910
64886W        W30047  27.178  37.377  14.432
64887W        W30048   9.683   4.673   3.190
64888W        W30049  19.105   4.216  11.153
64889W        W30050  23.256  10.529  11.632
64890W        W30051  24.508   5.214   4.556
64891W        W30052  44.014  31.533  13.997
64892W        W30053  10.629   2.702  12.462
64893W        W30054   9.283  34.516  11.875
64894W        W30055  15.790  43.312   3.744
64895W        W30056  23.507  35.049  12.468
64896W        W30057  36.838  15.391  12.913
64897W        W30058  16.746  35.749   0.414
64898W        W30059  12.302  27.571   2.773
64899W        W30060   9.779  37.405   4.672
64900W        W30061  18.123   8.888  12.562
64901W        W30062  43.257  34.723   2.686
64902W        W30063  44.391  13.200  14.100
64903W        W30064   7.440  35.630  11.143
64904W        W30065  28.928  14.209   4.599
64905W        W30066  26.496  11.633   1.311
64906W        W30067  37.016  21.866   1.045
64907W        W30068  27.995  11.138   3.336
64908W        W30069  39.367  34.927   1.682
64909W        W30070  27.288  37.418   3.131
64910W        W30071   7.690   2.998  11.734
64911W        W30072  38.653  17.584  10.820
64912W        W30073  14.867  33.495  13.219
64913W        W30074  22.077  38.366   3.655
64914W        W30075  26.976  24.511  13.900
64915W        W30076   3.695   6.673   3.298
64916W        W30077  22.690  12.178   3.382
64917W        W30078  24.092  19.663  11.421
64918W        W30079  39.730  29.119  13.291
64919W        W30080  18.109  19.481  12.398
64920W        W30081   6.596  11.263  11.909
64921W        W30082  29.502  30.152  10.638
64922W        W30083   1.216  37.037  14.934
64923W        W30084  24.875   0.063  11.607
64924W        W30085  23.420   6.251  10.901
64925W        W30086  32.950  41.000  14.060
64926W        W30087  18.011  44.595  14.359
64927W        W30088  28.002   6.673  13.140
64928W        W30089  38.825  19.169   4.420
64929W        W30090  42.553  24.913  12.091
64930W        W30091   6.775  32.371  14.992
64931W        W30092  31.063   8.219   4.817
64932W        W30093  32.442   3.282  14.484
64933W        W30094  31.438  32.479  13.942
64934W        W30095  35.846  23.824   4.629
64935W        W30096  40.769   1.297  12.479
64936W        W30097  44.728  22.771  10.423
64937W        W30098  30.072  10.184  13.983
64938W        W30099  24.270  20.104  11.593
64939W        W30100  11.810  22.448  14.129
64940W        W30101  21.639  34.281   4.101
64941W        W30102  11.718   6.779  13.994
64942W        W30103  28.450  11.192  14.343
64943W        W30104   4.502  13.009  11.578
64944W        W30105   8.427  25.685   9.514
64945W        W30106   9.078   9.432  13.989
64946W        W30107   7.775  21.063  11.356
64947W        W30108  23.806  26.039   2.521
64948W        W30109  10.319  37.234   1.836
64949W        W30110  24.172  14.070  13.850
64950W        W30111  11.999  16.896  11.523
64951W        W30112  37.486   3.848  11.299
64952W        W30113  29.513  28.388   0.997
64953W        W30114  33.914  37.370  14.464
64954W        W30115  17.995  23.029   0.064
64955W        W30116   4.550  14.751   0.895
64956W        W30117   0.908  17.006  14.766
64957W        W30118  17.312  43.110   3.207
64958W        W30119  35.393  12.324  11.476
64959W        W30120  14.456   6.723  14.283
64960W        W30121  37.251   8.123  13.834
64961W        W30122  14.359  20.796  10.623
64962W        W30123  22.722  40.097  14.399
64963W        W30124   5.863  22.848   0.383
64964W        W30125  43.498  14.246  11.657
64965W        W30126  41.915  39.530  10.594
64966W        W30127  39.994  36.511   1.806
64967W        W30128  34.675  10.820  13.027
64968W        W30129  16.989  27.523  14.759
64969W        W30130   4.532   0.932   2.669
64970W        W30131  36.831  33.176  11.517
64971W        W30132  34.509  35.467  10.895
64972W        W30133  40.960  19.074   2.430
64973W        W30134   1.373  34.166   2.307
64974W        W30135  27.950   1.435   3.988
64975W        W30136  42.257   5.363   4.144
64976W        W30137  31.643  31.526  11.496
64977W        W30138   2.857   0.482  14.447
64978W        W30139  14.833  21.904   1.921
64979W        W30140  20.661  35.571  12.613
64980W        W30141  36.892  26.962   1.803
64981W        W30142  14.074  18.318   3.739
64982W        W30143  18.247  11.614   0.875
64983W        W30144  21.368   4.048  12.013
64984W        W30145  32.241  26.274   2.392
64985W        W30146   6.226  14.756  13.399
64986W        W30147  29.575  19.501   3.227
64987W        W30148  30.134  30.195  14.828
64988W        W30149  44.850  25.661  12.069
64989W        W30150  31.107   0.022   2.506
64990W        W30151  18.228   2.897  12.410
64991W        W30152  11.392  27.682  14.820
64992W        W30153  40.966  44.490  14.828
64993W        W30154  14.147  14.104   2.448
64994W        W30155  14.542  23.939  14.936
64995W        W30156  21.072  12.619   1.814
64996W        W30157   9.839  31.042  14.464
64997W        W30158  30.412  39.402   4.660
64998W        W30159  22.680  38.611   1.199
64999W        W30160   8.930   6.985  11.913
65000W        W30161  38.390   6.903  11.222
65001W        W30162  29.440  27.560  14.450
65002W        W30163  31.885  35.942   2.522
65003W        W30164   5.431  26.292   2.319
65004W        W30165  24.948  29.032  13.508
65005W        W30166   4.357  35.442  14.509
65006W        W30167  32.686   2.413  12.475
65007W        W30168  33.575   6.889  11.217
65008W        W30169  33.977  40.637   3.605
65009W        W30170  10.065  38.067  10.149
65010W        W30171  42.003  27.648  10.681
65011W        W30172  37.058  39.252   4.535
65012W        W30173  11.408  17.393   2.251
65013W        W30174   4.196  32.548  11.185
65014W        W30175   3.273  20.337   2.540
65015W        W30176   8.376  31.881  13.454
65016W        W30177  19.023   8.836   4.574
65017W        W30178  23.563  10.308   4.468
65018W        W30179  35.343  44.890   2.293
65019W        W30180  33.661  13.139  12.795
65020W        W30181  28.707  26.787  13.742
65021W        W30182   3.848  13.229   2.378
65022W        W30183  33.628  15.112  14.354
65023W        W30184  16.128  28.584  12.317
65024W        W30185   4.816  16.299   3.112
65025W        W30186  14.572   7.408   0.018
65026W        W30187   2.954  14.097   2.952
65027W        W30188  33.645   3.782  11.312
65028W        W30189   3.185  31.665   3.209
65029W        W30190  16.298  25.392   4.777
65030W        W30191  35.385  34.342   3.310
65031W        W30192  22.128  35.120   2.939
65032W        W30193  22.777   2.776  10.636
65033W        W30194  44.622  34.064  10.599
65034W        W30195   1.681   5.078   2.319
65035W        W30196  15.647   8.733   0.703
65036W        W30197  26.101   0.043  11.914
65037W        W30198   3.924  22.069   1.424
65038W        W30199  29.553  13.599   4.220
65039W        W30200  22.173  35.474  13.075
65040W        W30201   2.936  10.826   3.059
65041W        W30202  20.163  36.826   4.063
65042W        W30203   1.426  27.683   4.595
65043W        W30204  35.415  24.003  12.365
65044W        W30205  27.177   6.493   4.213
65045W        W30206   4.735  13.134   4.023
65046W        W30207  29.814  21.273   4.650
65047W        W30208   2.304  36.077   1.131
65048W        W30209  37.472  25.970  14.935
65049W        W30210  22.754  22.975  11.694
65050W        W30211  12.722   7.699  13.090
65051W        W30212   0.559  21.355  11.858
65052W        W30213  18.396   4.170   0.976
65053W        W30214  37.362  43.766   0.749
65054W        W30215   0.490  15.131   4.103
65055W        W30216  15.489   6.353   1.393
65056W        W30217  43.345  35.744   3.384
65057W        W30218  39.289  42.526  10.841
65058W        W30219  10.243  18.350   1.991
65059W        W30220   8.438  10.249  11.104
65060W        W30221  14.217  14.120  10.730
65061W        W30222  23.146  42.354   1.850
65062W        W30223   8.319  28.642   4.044
65063W        W30224  32.370  18.734  10.674
65064W        W30225  11.481  44.395  14.405
65065W        W30226  34.392  42.778   0.458
65066W        W30227   6.802  36.947  11.960
65067W        W30228  31.091  41.916  13.963
65068W        W30229  17.715  22.026  11.976
65069W        W30230  23.707  30.903   4.131
65070W        W30231  12.415  36.400   0.739
65071W        W30232  37.655  42.501   1.589
65072W        W30233  20.411  35.578   2.158
65073W        W30234  19.523  42.846  11.332
65074W        W30235   4.367   2.401  12.968
65075W        W30236  37.138  17.794  11.665
65076W        W30237   9.996  35.114   0.710
65077W        W30238  43.970  11.784   4.676
65078W        W30239  39.539  23.683  10.477
65079W        W30240   1.214   0.980   3.547
65080W        W30241  27.677  26.878  12.142
65081W        W30242  38.237  43.308   3.291
65082W        W30243  16.582   4.393  10.630
65083W        W30244  37.603  26.469   2.297
65084W        W30245  28.524  31.881  12.104
65085W        W30246  25.782   8.843   1.440
65086W        W30247   4.328  24.454   0.947
65087W        W30248  15.559  17.972  11.924
65088W        W30249  18.104  10.823   2.234
65089W        W30250  37.876   3.148  10.948
65090W        W30251  41.337  20.968  12.042
65091W        W30252   7.074  44.439   4.271
65092W        W30253  25.922  39.476   1.798
65093W        W30254  10.117  22.015  11.440
65094W        W30255  25.567  42.027   2.804
65095W        W30256   6.621  22.065  13.278
65096W        W30257  21.059  21.330  14.269
65097W        W30258  43.773  15.223  14.832
65098W        W30259  43.413  30.166   1.110
65099W        W30260  35.678  17.276   3.159
65100W        W30261   3.727  23.903  12.926
65101W        W30262   4.018  21.140   1.396
65102W        W30263   0.520  21.953   0.362
65103W        W30264  32.726  14.920   0.417
65104W        W30265  30.151  12.007   1.807
65105W        W30266  34.486  41.828  12.194
65106W        W30267   6.223  13.066  11.184
65107W        W30268  36.831  27.610   2.647
65108W        W30269   4.138  13.052  10.959
65109W        W30270  34.372  37.025  12.979
65110W        W30271  21.818  41.534  14.341
65111W        W30272  24.400  13.753   3.205
65112W        W30273  35.925  23.699   3.188
65113W        W30274   2.358  20.729   2.776
65114W        W30275   1.527  30.243  11.443
65115W        W30276  39.258   1.410   0.289
65116W        W30277  12.833  32.063  11.669
65117W        W30278  13.816  18.638   0.285
65118W        W30279   1.863  21.281   0.726
65119W        W30280   8.616  11.665  12.985
65120W        W30281  12.605   1.776  12.317
65121W        W30282  14.408  20.452   1.758
65122W        W30283  13.777  36.162   4.246
65123W        W30284  34.575  18.199  11.463
65124W        W30285  13.104  42.203  13.930
65125W        W30286  35.832  28.345  13.135
65126W        W30287  16.734  29.880   1.768
65127W        W30288  24.793   5.417   1.332
65128W        W30289  18.203  18.212  13.784
65129W        W30290  32.453  36.785   2.543
65130W        W30291   0.850  16.165  12.051
65131W        W30292  42.964  30.175  12.010
65132W        W30293   8.935  42.024   3.277
65133W        W30294  24.436  10.693   1.301
65134W        W30295  16.271  14.111   3.240
65135W        W30296  15.769  44.930   9.939
65136W        W30297  37.845  28.103  14.458
65137W        W30298  42.428  18.123   3.412
65138W        W30299  36.815  12.406  14.413
65139W        W30300   0.500   1.714   3.676
65140W        W30301  27.488  26.683  10.544
65141W        W30302  17.230  21.776  14.536
65142W        W30303  34.548  22.183  12.946
65143W        W30304  29.070  35.089  11.973
65144W        W30305  34.296   2.747   4.194
65145W        W30306   2.354  23.560   2.748
65146W        W30307  18.232  19.591   2.677
65147W        W30308  31.891  10.245  13.081
65148W        W30309  28.602  33.979  10.687
65149W        W30310  24.969  42.480  12.119
65150W        W30311  43.215   9.550   1.984
65151W        W30312  15.687  22.740  12.153
65152W        W30313   2.687  18.528  11.180
65153W        W30314  37.662  28.963  14.294
65154W        W30315  40.760  24.022  14.429
65155W        W30316  41.519  23.074  14.400
65156W        W30317  34.907  21.176   0.429
65157W        W30318   3.532  20.580   1.296
65158W        W30319  16.515  23.286  10.434
65159W        W30320   3.456  13.407  14.793
65160W        W30321  33.977  10.794   2.795
65161W        W30322  27.105  20.130  14.237
65162W        W30323  38.917  38.475   0.614
65163W        W30324  27.645  15.432   0.200
65164W        W30325   3.447  25.385  13.453
65165W        W30326  41.402  42.116   1.720
65166W        W30327  41.939  27.024  14.578
65167W        W30328  26.151  30.033  10.530
65168W        W30329   1.738   7.194  10.771
65169W        W30330  26.598   5.346  14.386
65170W        W30331  25.600   0.909   2.193
65171W        W30332   8.375  42.446  10.675
65172W        W30333  10.771  23.564  13.018
65173W        W30334  34.940  26.174  12.866
65174W        W30335  12.325  11.288  14.682
65175W        W30336  37.578   2.824   2.365
65176W        W30337  17.629  37.509   2.196
65177W        W30338  30.201   7.383  14.871
65178W        W30339  29.991   9.882  11.480
65179W        W30340  18.021   2.249  12.233
65180W        W30341  21.501  43.555  10.675
65181W        W30342  26.030  29.098   3.206
65182W        W30343  33.620  25.192  12.493
65183W        W30344  43.526  41.976   4.105
65184W        W30345  33.487  24.939   1.954
65185W        W30346  37.358  25.951   4.857
65186W        W30347  15.210  25.128   3.267
65187W        W30348  17.072  23.014   4.282
65188W        W30349  10.175  15.158  13.008
65189W        W30350  42.046  28.029  13.922
65190W        W30351  23.621   4.950   2.099
65191W        W30352  11.178  23.662  13.778
65192W        W30353  34.034  31.999  13.713
65193W        W30354  44.807  37.304  10.861
65194W        W30355  26.218  17.120  11.620
65195W        W30356  40.363  38.780  12.839
65196W        W30357  30.342  32.178   1.869
65197W        W30358  36.936  11.787   2.742
65198W        W30359  15.466   0.109   4.576
65199W        W30360  18.316  41.887   1.054
65200W        W30361  22.997  36.363  13.402
65201W        W30362  30.884   6.850   1.783
65202W        W30363  27.674  15.636  12.021
65203W        W30364   0.243  39.077  14.387
65204W        W30365   6.412   8.656  14.367
65205W        W30366  44.697  11.117  11.518
65206W        W30367  19.683  18.277   3.381
65207W        W30368   3.400  43.284  14.996
65208W        W30369   5.992  25.162  12.952
65209W        W30370  20.222  39.694   1.873
65210W        W30371  22.447   7.512   0.159
65211W        W30372  31.755  29.026   4.001
65212W        W30373  14.005   1.861   0.014
65213W        W30374  31.111  43.799  10.796
65214W        W30375  43.324   6.789   1.152
65215W        W30376   1.266   1.386   1.402
65216W        W30377  22.583  36.444  11.206
65217W        W30378   1.536  13.603  10.703
65218W        W30379   7.827  17.812  11.181
65219W        W30380  23.991  42.960   1.889
65220W        W30381  37.028  18.999  14.275
65221W        W30382   2.620  21.238  14.023
65222W        W30383  38.881   2.164  11.048
65223W        W30384  37.488  16.313  10.746
65224W        W30385  35.672  44.259  14.364
65225W        W30386   3.170  26.136  14.460
65226W        W30387  33.416  11.174  12.304
65227W        W30388  23.956   2.201   3.611
65228W        W30389  11.691  12.257   0.465
65229W        W30390  42.297  23.559  13.469
65230W        W30391  37.892  44.938   2.254
65231W        W30392   8.895  36.036   3.686
65232W        W30393  15.622  25.546   2.648
65233W        W30394  30.107  19.944  11.954
65234W        W30395   0.036  14.719  14.794
65235W        W30396  41.463  13.403  14.436
65236W        W30397  36.295  27.266   0.333
65237W        W30398  34.238  16.670   2.824
65238W        W30399   8.323  43.098   4.622
65239W        W30400  15.526  39.791  13.516
65240W        W30401  21.972  38.767   2.338
65241W        W30402  43.495  42.988  11.882
65242W        W30403  10.966  37.337   3.692
65243W        W30404   2.336  15.738   1.407
65244W        W30405  38.439  28.960   2.323
65245W        W30406   7.857  16.227   2.858
65246W        W30407  19.492  20.343   1.205
65247W        W30408   3.650  11.111  12.002
65248W        W30409  39.089  37.542  14.302
65249W        W30410  40.472  31.670  11.111
65250W        W30411  18.481  39.730   0.450
65251W        W30412  15.394  33.615   2.118
65252W        W30413   1.731  16.037  14.720
65253W        W30414  28.617  35.936   2.237
65254W        W30415  15.016  19.948   3.571
65255W        W30416  22.145   3.915  12.871
65256W        W30417   7.357  10.422  14.403
65257W        W30418  31.456  31.450  11.978
65258W        W30419  14.612  41.952  11.054
65259W        W30420   0.307   3.942   0.801
65260W        W30421  13.178  38.767   2.586
65261W        W30422  29.067  16.932   4.533
65262W        W30423   8.772  15.227  13.070
65263W        W30424  24.384   4.911  13.763
65264W        W30425  33.609  14.628  14.968
65265W        W30426  16.252   8.744   4.116
65266W        W30427  13.839   4.947  14.286
65267W        W30428  33.810  15.230  11.101
65268W        W30429   0.590  23.342  14.483
65269W        W30430   1.176  10.196   1.358
65270W        W30431  30.928  11.246  10.565
65271W        W30432   3.787  37.924   3.192
65272W        W30433  30.064   2.215  11.617
65273W        W30434  11.917  11.762   3.694
65274W        W30435  15.901  36.298  11.174
65275W        W30436  21.419  29.529  14.022
65276W        W30437   7.088  26.550  13.349
65277W        W30438  18.724  25.038  14.025
65278W        W30439  38.579  44.787  10.991
65279W        W30440  42.397  38.604  14.388
65280W        W30441  19.734   3.695   0.792
65281W        W30442   7.271  29.915  13.363
65282W        W30443  37.790  41.857  14.592
65283W        W30444   6.942  28.214   3.845
65284W        W30445  40.873  12.079   1.820
65285W        W30446  28.453  30.486   2.372
65286W        W30447   9.088   4.484   3.673
65287W        W30448  28.943  34.786  12.350
65288W        W30449  34.821  37.532   3.249
65289W        W30450  29.462   8.862   3.114
65290W        W30451  16.588  38.957   2.105
65291W        W30452   7.362  18.913  11.545
65292W        W30453  31.262  31.686  12.441
65293W        W30454  12.055  17.687  14.527
65294W        W30455  24.038  22.714   0.941
65295W        W30456  27.438  13.654   1.047
65296W        W30457  40.378   7.923   2.652
65297W        W30458  44.838  17.570   2.947
65298W        W30459  28.904  37.102  14.722
65299W        W30460  10.341  36.773   1.600
65300W        W30461  32.021  43.256  13.356
65301W        W30462  12.752   9.866   3.659
65302W        W30463  41.221  39.317   1.569
65303W        W30464  32.014  31.673   2.395
65304W        W30465   3.316  30.546  12.411
65305W        W30466   8.372  42.889   1.176
65306W        W30467  14.411  30.020  11.092
65307W        W30468  44.794  10.707   4.282
65308W        W30469  25.244  28.163   2.847
65309W        W30470  28.093   2.456   3.690
65310W        W30471  43.138  28.154   3.642
65311W        W30472  19.740  11.247  12.167
65312W        W30473   0.512  31.420   5.052
65313W        W30474  35.602  16.701   1.228
65314W        W30475  38.552  10.808   4.808
65315W        W30476   1.377  23.020   1.494
65316W        W30477  19.581  22.086  10.752
65317W        W30478  14.438  15.417  13.191
65318W        W30479  20.280  39.038  13.106
65319W        W30480  36.739  24.170  10.658
65320W        W30481  13.722  39.855  10.250
65321W        W30482  39.607  35.107   4.410
65322W        W30483  44.411  31.533   2.914
65323W        W30484  40.369  13.329  12.520
65324W        W30485   3.130  25.756   4.590
65325W        W30486  17.697  13.284  12.975
65326W        W30487  15.161  32.507  10.454
65327W        W30488  17.215  38.065  13.345
65328W        W30489  21.413  29.210   2.248
65329W        W30490  28.664  12.355   1.697
65330W        W30491  44.945  15.224  14.984
65331W        W30492  18.704   4.458  14.078
65332W        W30493  39.115  43.775   4.543
65333W        W30494  14.317  34.997  10.480
65334W        W30495  19.674  41.787  10.951
65335W        W30496  32.062  36.553  13.957
65336W        W30497   0.909  27.088   1.722
65337W        W30498   6.393  11.233  13.935
65338W        W30499  24.421  26.762   3.639
65339W        W30500   6.214  29.625   0.332
65340W        W30501   3.253  24.763   3.136
65341W        W30502  11.347  28.754  13.351
65342W        W30503   3.863  28.237   2.306
65343W        W30504  25.380  14.356   2.202
65344W        W30505  40.845  12.849   2.227
65345W        W30506  42.052  13.244   4.581
65346W        W30507  14.766  13.257   1.113
65347W        W30508  20.273  16.096   3.026
65348W        W30509   2.884  10.666  11.062
65349W        W30510  34.811   9.788  14.388
65350W        W30511  24.193  15.911   4.515
65351W        W30512  14.800  19.350   4.140
65352W        W30513  23.200  41.026  12.413
65353W        W30514   7.128  23.550   1.788
65354W        W30515  28.100  33.582   4.888
65355W        W30516  37.282  44.799   0.340
65356W        W30517  14.302  30.060   4.391
65357W        W30518  22.086   0.445   4.512
65358W        W30519  27.052   4.992  14.218
65359W        W30520  27.987  24.429   2.672
65360W        W30521   2.474  36.655   5.587
65361W        W30522   4.784  34.439   0.346
65362W        W30523  21.105  19.087  11.471
65363W        W30524  14.743  13.186  13.333
65364W        W30525   0.134  17.872   3.715
65365W        W30526  40.486   6.909   2.634
65366W        W30527  16.818  27.244   1.302
65367W        W30528  20.625  26.273   0.228
65368W        W30529  26.943  21.197   4.357
65369W        W30530   6.942  11.501   4.055
65370W        W30531  44.582  15.357  14.423
65371W        W30532   0.207  38.343   2.225
65372W        W30533  10.551  22.207   3.384
65373W        W30534  11.650  42.910  14.926
65374W        W30535  42.210   0.786   1.558
65375W        W30536  19.052   6.179   4.065
65376W        W30537  33.285  36.376   4.357
65377W        W30538  19.739  17.223   1.938
65378W        W30539  16.713   4.511   1.038
65379W        W30540  44.190  29.141   0.365
65380W        W30541  38.904   7.112  12.879
65381W        W30542  34.740  32.798   3.115
65382W        W30543  13.410   8.740   1.251
65383W        W30544   7.158   8.930   3.241
65384W        W30545  34.806  22.704   1.421
65385W        W30546  35.684  21.725  11.123
65386W        W30547  16.805  28.891  11.042
65387W        W30548   5.735   2.253  10.860
65388W        W30549   8.864  42.032  14.771
65389W        W30550  33.941  41.975  13.871
65390W        W30551   2.268  31.714  10.829
65391W        W30552  27.763  27.236  13.512
65392W        W30553  11.157   7.860  11.923
65393W        W30554   5.969  33.548  12.908
65394W        W30555  13.824  12.609  14.748
65395W        W30556   0.425  26.597   3.766
65396W        W30557  44.286  34.370   1.193
65397W        W30558  28.081  23.766   4.528
65398W        W30559  29.636  42.792   4.471
65399W        W30560  41.472  22.608  10.613
65400W        W30561  43.233   8.091  14.705
65401W        W30562  20.262  32.610   2.672
65402W        W30563  25.708  39.584  11.909
65403W        W30564  38.443  12.316  10.538
65404W        W30565  14.679  12.580  12.931
65405W        W30566  42.026  39.846   3.731
65406W        W30567   4.454  14.938   2.377
65407W        W30568  28.620   8.028   2.344
65408W        W30569  35.349  36.800  11.374
65409W        W30570  29.433  36.584   1.411
65410W        W30571  14.043  24.116   3.239
65411W        W30572  33.344  17.334   4.242
65412W        W30573   4.929  19.949   2.291
65413W        W30574  37.610  39.102  14.381
65414W        W30575  14.210  29.387   1.430
65415W        W30576   0.311  22.220   2.203
65416W        W30577  14.051  24.301  11.035
65417W        W30578  31.887  29.384   1.733
65418W        W30579  26.156  44.195  11.645
65419W        W30580  10.281  27.436   2.146
65420W        W30581  22.090  12.276   0.316
65421W        W30582  34.108  14.741   0.815
65422W        W30583  15.037  14.827  13.428
65423W        W30584  28.770  14.231  12.886
65424W        W30585  10.191  16.764  10.444
65425W        W30586   6.369  13.415  14.914
65426W        W30587  28.127  34.879  14.850
65427W        W30588  43.021  34.104   4.685
65428W        W30589   2.364  24.282  10.769
65429W        W30590  40.921  44.902  12.578
65430W        W30591  24.124  37.993  13.488
65431W        W30592  34.376  28.879  14.494
65432W        W30593   5.841  23.507   0.991
65433W        W30594   1.861  26.432  11.784
65434W        W30595  42.872  32.137  12.113
65435W        W30596  28.112  15.548   0.007
65436W        W30597  39.280   7.748   0.312
65437W        W30598  18.944  43.027  12.997
65438W        W30599  11.956  42.174   1.272
65439W        W30600   8.309  22.260  11.478
65440W        W30601   0.858   7.875   0.478
65441W        W30602   6.658  39.094   1.260
65442W        W30603  21.747  21.041   4.151
65443W        W30604  22.299  22.762   1.009
65444W        W30605   1.017   6.311   4.599
65445W        W30606  21.007   3.347   4.911
65446W        W30607  23.909  14.787  13.015
65447W        W30608  41.259  22.799  12.073
65448W        W30609  14.050  11.890   5.007
65449W        W30610  43.344  33.093  13.112
65450W        W30611  16.559  21.190   4.106
65451W        W30612  43.502  32.497   0.204
65452W        W30613  14.304  26.988  14.846
65453W        W30614  35.361  41.832   3.088
65454W        W30615  21.571  23.574  11.029
65455W        W30616  39.298  39.093  12.514
65456W        W30617  42.784  39.311   3.709
65457W        W30618  20.451  41.373   0.733
65458W        W30619  19.647  22.877   0.267
65459W        W30620  41.342  20.225   2.187
65460W        W30621  19.663  14.814   1.983
65461W        W30622  36.180   0.909   4.164
65462W        W30623  39.197  13.505  13.259
65463W        W30624  38.499  27.499  10.374
65464W        W30625  34.804  21.258  12.111
65465W        W30626  22.157   3.213  14.408
65466W        W30627   4.423   9.706   4.038
65467W        W30628  28.936  17.771  11.896
65468W        W30629  41.279  44.842   1.638
65469W        W30630  27.520   7.776   3.796
65470W        W30631  12.436  35.055   4.570
65471W        W30632  23.717  42.969   3.243
65472W        W30633  36.045   9.816   3.633
65473W        W30634   8.163   0.669  12.470
65474W        W30635  38.061  40.091   4.112
65475W        W30636  17.273   6.275  13.379
65476W        W30637  31.251   3.721  14.856
65477W        W30638  22.261  43.256  11.908
65478W        W30639  10.917  25.658   4.727
65479W        W30640  37.872  27.671   1.286
65480W        W30641   4.683  14.164   3.640
65481W        W30642  10.948  18.658   4.370
65482W        W30643  44.315  38.040   1.757
65483W        W30644  26.531  17.289   1.165
65484W        W30645  12.656  19.920   1.160
65485W        W30646  43.244   3.144   3.711
65486W        W30647  44.752  12.264   4.813
65487W        W30648  28.986  26.559   2.563
65488W        W30649   9.807   0.977  10.887
65489W        W30650  31.888  40.509   1.486
65490W        W30651  12.238  17.919   4.597
65491W        W30652  18.800  25.164   0.429
65492W        W30653   7.133  29.398   4.169
65493W        W30654  25.231  23.579   3.714
65494W        W30655  23.230  20.736  13.579
65495W        W30656  36.838   3.742   3.639
65496W        W30657  40.900  35.688   4.673
65497W        W30658  24.754  39.886   3.121
65498W        W30659  20.782  25.632  14.448
65499W        W30660   9.664  44.938  11.637
65500W        W30661  34.271  44.676   4.083
65501W        W30662  30.416  44.748   0.420
65502W        W30663  39.379  28.774  12.471
65503W        W30664  30.732  33.959  14.029
65504W        W30665  37.582   2.551  14.482
65505W        W30666  39.094   0.947  13.364
65506W        W30667   9.160  38.433  12.061
65507W        W30668   5.742  16.941  13.378
65508W        W30669   8.889  32.441   3.802
65509W        W30670  43.950  35.305  10.291
65510W        W30671   3.940   6.388  12.661
65511W        W30672  35.883  43.964   0.133
65512W        W30673   0.408  44.431   4.235
65513W        W30674  15.629  32.397   2.409
65514W        W30675  25.062   8.121   1.428
65515W        W30676  22.060  43.452  10.695
65516W        W30677   7.400  33.551  12.550
65517W        W30678  39.267   0.213   4.131
65518W        W30679  19.221  17.060  14.814
65519W        W30680  20.815  22.459  14.878
65520W        W30681  43.014  34.114  11.936
65521W        W30682  26.011  12.997   5.403
65522W        W30683   1.522  26.509  12.556
65523W        W30684  42.790  28.719   0.211
65524W        W30685  39.495  22.507   1.428
65525W        W30686  12.302  25.793  11.398
65526W        W30687  38.361  33.617  10.493
65527W        W30688  11.974   0.343  13.561
65528W        W30689   5.236   5.493  12.470
65529W        W30690  43.726  40.840   1.062
65530W        W30691  18.111  35.086  12.372
65531W        W30692   6.417   6.664   3.633
65532W        W30693  37.898   9.191  14.004
65533W        W30694  36.000   9.376  14.947
65534W        W30695   9.394  30.382  10.960
65535W        W30696  20.725  41.426   1.619
65536W        W30697  27.636  22.597  14.479
65537W        W30698   8.923   0.870  12.094
65538W        W30699  39.814  41.290  11.659
65539W        W30700  31.123  27.534   1.016
65540W        W30701   5.237  12.265   2.449
65541W        W30702  25.423  41.877  14.991
65542W        W30703  24.799  14.651  12.459
65543W        W30704  43.237  12.348   4.634
65544W        W30705  35.331   8.744  14.048
65545W        W30706   1.519   9.817   2.732
65546W        W30707  25.154  37.547   3.118
65547W        W30708  44.417  30.467   5.022
65548W        W30709  27.136  30.868  10.560
65549W        W30710  32.215  15.330  14.572
65550W        W30711  42.349  31.641  11.605
65551W        W30712   2.012  37.139  10.236
65552W        W30713  15.224  10.631   0.453
65553W        W30714  26.857  38.630   3.210
65554W        W30715   2.010   4.610   3.721
65555W        W30716   5.346  41.911  13.334
65556W        W30717  41.528  23.794  12.956
65557W        W30718  29.630  42.388  12.623
65558W        W30719  30.568  17.251   2.638
65559W        W30720  12.025  11.261  11.146
65560W        W30721  25.514  12.819   4.503
65561W        W30722  38.059  30.886   0.634
65562W        W30723  43.884  39.256  11.917
65563W        W30724  30.367  24.806  13.769
65564W        W30725  41.751  24.382   3.718
65565W        W30726  38.589  12.859   0.795
65566W        W30727  20.490   2.721  14.474
65567W        W30728   5.842  25.266   4.726
65568W        W30729  10.435  24.021  10.303
65569W        W30730   0.331  44.418  10.307
65570W        W30731  41.414  28.903   4.528
65571W        W30732  39.958  28.466  11.253
65572W        W30733   1.222  29.034  12.840
65573W        W30734  31.909   2.275  12.847
65574W        W30735   8.506  24.778   4.210
65575W        W30736  29.116  28.674   2.570
65576W        W30737   8.337   6.873   4.855
65577W        W30738  10.586  12.240  11.536
65578W        W30739   7.853   4.466  13.905
65579W        W30740   2.124   1.651  10.305
65580W        W30741  27.660  26.524   5.234
65581W        W30742   8.413  23.026   0.038
65582W        W30743  30.935  25.494   3.645
65583W        W30744   4.799  12.391   4.456
65584W        W30745   8.798  43.861   0.427
65585W        W30746   0.406   9.408   3.655
65586W        W30747  29.365  28.862   4.241
65587W        W30748  12.504   2.523  12.055
65588W        W30749   7.306  11.719  12.462
65589W        W30750  36.385  44.052  11.252
65590W        W30751  37.252  40.284  10.196
65591W        W30752  12.172  32.577  12.484
65592W        W30753  24.919  11.148   0.777
65593W        W30754   8.905  36.841  11.587
65594W        W30755   9.851  26.267  11.970
65595W        W30756   4.183  15.931   4.798
65596W        W30757   0.376  21.929  11.717
65597W        W30758  23.212  30.911   0.837
65598W        W30759   7.614  10.063   2.606
65599W        W30760  29.745   5.963  14.826
65600W        W30761  30.514   2.504  13.066
65601W        W30762  10.108  25.713   2.727
65602W        W30763   8.597  28.064  12.496
65603W        W30764  38.967  36.827  13.085
65604W        W30765  13.802   8.761  14.839
65605W        W30766  30.165  11.190  14.002
65606W        W30767  35.372   9.861  14.755
65607W        W30768  40.055  35.130   4.124
65608W        W30769  10.129  34.510  13.995
65609W        W30770   0.485  14.151  12.313
65610W        W30771   1.949  24.344   3.614
65611W        W30772  32.582  15.310   2.677
65612W        W30773  15.908  10.918  14.269
65613W        W30774  25.236  28.503   0.762
65614W        W30775  31.966  26.222  13.080
65615W        W30776  29.658   9.876   9.976
65616W        W30777  35.388  26.289  13.839
65617W        W30778  35.033  40.548  14.581
65618W        W30779   8.892  20.001  14.759
65619W        W30780  32.146   4.246  11.453
65620W        W30781   1.834  44.809  14.992
65621W        W30782  19.494  42.879  13.844
65622W        W30783  37.983  16.382  10.634
65623W        W30784  31.716  34.453   2.293
65624W        W30785  17.275  42.720   0.001
65625W        W30786  36.273  19.152   2.833
65626W        W30787  14.260   7.490  13.572
65627W        W30788  16.373  23.470   4.001
65628W        W30789  22.025  40.636   3.807
65629W        W30790  39.353   0.524  13.496
65630W        W30791  17.743  14.654  13.860
65631W        W30792  12.954  30.226   1.373
65632W        W30793  31.215  39.427  12.731
65633W        W30794   1.788  41.275  12.481
65634W        W30795  44.325  33.483   2.623
65635W        W30796  26.496  43.264   2.756
65636W        W30797  26.249  44.699   3.084
65637W        W30798   5.091   5.316  11.998
65638W        W30799  12.302  30.642  13.425
65639W        W30800  41.231  24.303   0.768
65640W        W30801  38.321   9.197  12.534
65641W        W30802  10.089   2.298  11.221
65642W        W30803   6.439  29.291  10.017
65643W        W30804   4.184  26.060  14.358
65644W        W30805  42.368  43.926   4.654
65645W        W30806   2.741  21.942   4.347
65646W        W30807  41.947  29.870   3.974
65647W        W30808  43.423  11.217  10.999
65648W        W30809  19.847  24.127   4.505
65649W        W30810   4.084  34.003  12.119
65650W        W30811  25.262   7.701   1.723
65651W        W30812   6.721  27.804   0.363
65652W        W30813  38.182   8.598  10.389
65653W        W30814   2.199   2.333  10.955
65654W        W30815   1.383   1.314  14.444
65655W        W30816   7.330  25.796  11.727
65656W        W30817  37.503   8.781   3.158
65657W        W30818  36.883  15.681   3.523
65658W        W30819  20.525  32.483   0.989
65659W        W30820   9.758  16.277   2.399
65660W        W30821  26.153  22.537  13.342
65661W        W30822  22.098  14.874  14.514
65662W        W30823  35.026  34.621  14.975
65663W        W30824   8.317  20.139   2.293
65664W        W30825  19.112  22.731   0.978
65665W        W30826  20.401  42.654   4.910
65666W        W30827  25.969  30.674  12.289
65667W        W30828   4.932   5.654  10.762
65668W        W30829   5.261   5.783   1.982
65669W        W30830   2.153   8.917  13.466
65670W        W30831  34.041  15.708   0.808
65671W        W30832  17.596  34.071   1.235
65672W        W30833   3.172  37.480   0.196
65673W        W30834  40.934  41.545   2.247
65674W        W30835  32.650   8.805   0.401
65675W        W30836  37.038  36.524  14.815
65676W        W30837  20.593  38.560  11.502
65677W        W30838  24.992  20.118  12.110
65678W        W30839  36.519  31.512  11.113
65679W        W30840  20.715   4.679   0.821
65680W        W30841  21.356  27.687  13.542
65681W        W30842  26.086  43.260  11.992
65682W        W30843   0.471  28.941  10.727
65683W        W30844  20.014  21.980   0.370
65684W        W30845  14.884  13.714   1.345
65685W        W30846   9.052  12.351   0.527
65686W        W30847  13.398  27.240  14.014
65687W        W30848  20.326  15.222   0.371
65688W        W30849  36.408  15.579   1.219
65689W        W30850  16.080   6.314   3.888
65690W        W30851  26.216  40.969   0.850
65691W        W30852  33.914  28.212   1.240
65692W        W30853  17.609   9.577   1.182
65693W        W30854  27.925  18.549  11.634
65694W        W30855  13.516  30.968   3.222
65695W        W30856  34.124   6.670  13.412
65696W        W30857  19.868  10.158   0.705
65697W        W30858  41.913  12.284   1.876
65698W        W30859   5.231  41.668   0.780
65699W        W30860  33.489   9.435  12.961
65700W        W30861   7.798  14.373   3.301
65701W        W30862  40.442   6.570   0.852
65702W        W30863  14.590  41.497   3.241
65703W        W30864  36.006  39.248   3.646
65704W        W30865  29.890  28.073  14.034
65705W        W30866   4.455  27.740   4.956
65706W        W30867  15.642  19.009  13.500
65707W        W30868  13.438  40.542   0.169
65708W        W30869  20.197   1.846  10.185
65709W        W30870   7.077  14.258   2.782
65710W        W30871  27.090  12.671  10.272
65711W        W30872   4.656  17.106  12.981
65712W        W30873  19.666  32.423  12.502
65713W        W30874  26.764  31.422  11.630
65714W        W30875  42.803  25.561   1.041
65715W        W30876   8.176  17.947   4.527
65716W        W30877  17.323   3.642  12.600
65717W        W30878  15.164  16.723   3.135
65718W        W30879  25.812  43.448  14.490
65719W        W30880   6.668  34.227   1.406
65720W        W30881   3.541  35.179  12.975
65721W        W30882  20.579  12.197  13.246
65722W        W30883  44.820  34.559  10.667
65723W        W30884  15.653  19.015  12.130
65724W        W30885   3.384  42.775  14.880
65725W        W30886  14.639  40.458   2.203
65726W        W30887  36.562  14.321   0.877
65727W        W30888   1.427   4.495  14.486
65728W        W30889  17.844  28.643  13.600
65729W        W30890  44.851  15.690  14.752
65730W        W30891  12.543  20.151   0.152
65731W        W30892   9.868   9.915   4.556
65732W        W30893   1.683  29.566   3.251
65733W        W30894  37.986  38.655   5.700
65734W        W30895  40.576  11.301   2.176
65735W        W30896  23.718  40.405   4.010
65736W        W30897  36.617  36.429  11.664
65737W        W30898  12.867  16.508  12.083
65738W        W30899  33.789  36.627  14.994
65739W        W30900  21.275   1.052  14.397
65740W        W30901  27.505  22.507  11.840
65741W        W30902  43.259   4.375   0.227
65742W        W30903  17.533   2.719   2.795
65743W        W30904  18.539  28.423   3.708
65744W        W30905  16.289  34.326  12.401
65745W        W30906  16.832  32.478  11.153
65746W        W30907  11.190  22.540   1.162
65747W        W30908  23.056  44.260   0.763
65748W        W30909  11.240  14.545   1.328
65749W        W30910  32.958  38.805   1.021
65750W        W30911  23.103  32.956   4.845
65751W        W30912   2.721  19.314  12.490
65752W        W30913  40.076   8.418   5.174
65753W        W30914  28.464  24.140   3.403
65754W        W30915  24.533  29.376   4.538
65755W        W30916  12.516   6.658   2.771
65756W        W30917  10.110  17.295   0.736
65757W        W30918  32.276  24.523  12.471
65758W        W30919   5.516  29.467   4.609
65759W        W30920  30.015   4.607   5.210
65760W        W30921  21.266  31.525  11.697
65761W        W30922  21.898  35.396   3.384
65762W        W30923  21.975  20.249   1.480
65763W        W30924  29.083  39.489   4.836
65764W        W30925  39.336   5.260  11.543
65765W        W30926  26.695   3.056  14.884
65766W        W30927  32.792   8.333  11.168
65767W        W30928  40.791  29.826   3.365
65768W        W30929  33.937  44.471   1.375
65769W        W30930   0.454  10.644   2.848
65770W        W30931   6.606  41.417  10.718
65771W        W30932   0.424  15.571  12.498
65772W        W30933  27.467  32.227  10.956
65773W        W30934   0.892  28.413   4.166
65774W        W30935  19.623  37.748   3.129
65775W        W30936  23.739   0.964   1.694
65776W        W30937  27.567   6.201   1.682
65777W        W30938  38.787  16.800  12.022
65778W        W30939   7.449  30.582   0.882
65779W        W30940  20.636  26.267   2.730
65780W        W30941   0.950  40.809  14.429
65781W        W30942  26.055  38.832  14.288
65782W        W30943  11.362   4.680  12.602
65783W        W30944  14.574  31.671   0.271
65784W        W30945  36.853  26.580   1.418
65785W        W30946  15.571  30.393   1.930
65786W        W30947  42.317  36.470  14.422
65787W        W30948  35.372  17.612   2.205
65788W        W30949   4.487  37.435   0.675
65789W        W30950  14.808  43.208   2.863
65790W        W30951  28.158   1.998   2.297
65791W        W30952  20.636   6.123  12.923
65792W        W30953  31.884  40.367  13.827
65793W        W30954  11.253  32.596  13.605
65794W        W30955  34.937  25.533  12.132
65795W        W30956  38.222  16.572  11.053
65796W        W30957  31.949  21.619   3.392
65797W        W30958  42.494  33.521  11.551
65798W        W30959  37.491   0.480   2.246
65799W        W30960  32.334  28.685  14.428
65800W        W30961  11.149  26.754  12.038
65801W        W30962  16.775  19.032   2.547
65802W        W30963  22.760  35.921   0.035
65803W        W30964   5.937  41.834  12.999
65804W        W30965  20.707  17.365  12.824
65805W        W30966  15.029  36.618   4.911
65806W        W30967  18.375  12.108   4.514
65807W        W30968  37.997  33.115   3.689
65808W        W30969  38.786  41.311  10.361
65809W        W30970  25.861  40.356   1.745
65810W        W30971  43.365  41.219   2.368
65811W        W30972   7.850  36.073  11.479
65812W        W30973  14.796   2.332   4.727
65813W        W30974  23.878  39.429   5.071
65814W        W30975  22.181  33.088   4.519
65815W        W30976  44.420  10.262   3.119
65816W        W30977  20.641  41.148   2.955
65817W        W30978  14.068   8.393  12.993
65818W        W30979  18.165  27.166   2.899
65819W        W30980  25.963  12.275   0.972
65820W        W30981  23.772  41.446   3.651
65821W        W30982  22.815  38.112  12.908
65822W        W30983  42.388  27.103   3.747
65823W        W30984   6.333   8.151  14.386
65824W        W30985  29.762  19.107  12.531
65825W        W30986  38.028  17.027   1.971
65826W        W30987  34.482  38.921   3.264
65827W        W30988   4.176  24.493  13.476
65828W        W30989  27.194  42.851  13.615
65829W        W30990  32.595  26.093  14.512
65830W        W30991  36.308  29.481   5.098
65831W        W30992   7.332  26.997   0.495
65832W        W30993   4.303  28.910  12.645
65833W        W30994  40.465  20.155   1.676
65834W        W30995   6.167  44.747  13.332
65835W        W30996  23.656  27.568   1.891
65836W        W30997  33.311   0.476   2.147
65837W        W30998   2.843  15.482  12.413
65838W        W30999  29.740  34.868  11.604
65839W        W31000  43.751  31.872  13.470
65840W        W31001  38.445  24.348  13.049
65841W        W31002  32.907  17.669  12.374
65842W        W31003  35.848  18.092   2.278
65843W        W31004   1.279  29.345  11.550
65844W        W31005  13.280  30.276  13.313
65845W        W31006   0.283  33.636   1.197
65846W        W31007  28.737   0.421  14.582
65847W        W31008  28.575  38.075  13.506
65848W        W31009   3.406  30.075  12.605
65849W        W31010   3.781  28.768  13.339
65850W        W31011  28.563  12.332   2.965
65851W        W31012  15.498   4.340   3.795
65852W        W31013  28.503  37.831  13.045
65853W        W31014  32.866  41.886   1.367
65854W        W31015  26.696  26.195   3.759
65855W        W31016   0.280  35.431  14.780
65856W        W31017   6.841   1.012   2.796
65857W        W31018  25.283  40.663   4.497
65858W        W31019  27.023   5.432   2.784
65859W        W31020  14.110  15.420   4.113
65860W        W31021  20.050  27.694   3.598
65861W        W31022  39.099  27.478   0.848
65862W        W31023   8.268  31.370   0.737
65863W        W31024  27.908  34.417  12.072
65864W        W31025  24.029  15.775   4.994
65865W        W31026  18.374  14.673   4.612
65866W        W31027  39.502   4.939  13.003
65867W        W31028  39.390  36.406   0.437
65868W        W31029  26.144  19.999  14.333
65869W        W31030   9.297  16.126  14.143
65870W        W31031  33.378  36.506  10.509
65871W        W31032   8.868  29.107   1.746
65872W        W31033   1.429   3.740  13.826
65873W        W31034   0.991   0.624   3.858
65874W        W31035   0.017  32.172  12.940
65875W        W31036  14.076  20.310  12.013
65876W        W31037  22.216  23.006  12.863
65877W        W31038  21.932  34.670  13.414
65878W        W31039  24.718  23.636  11.220
65879W        W31040  24.137  42.045   0.530
65880W        W31041   8.627   9.144  12.503
65881W        W31042   0.036  39.862   0.952
65882W        W31043   0.940   6.756   0.688
65883W        W31044  35.971  22.966  14.090
65884W        W31045  40.348  31.174   2.316
65885W        W31046  40.568  41.280  14.466
65886W        W31047  34.689  18.801   3.352
65887W        W31048  11.887  38.733   5.000
65888W        W31049  34.566  10.191   3.659
65889W        W31050  15.128   4.252   1.629
65890W        W31051  10.942   8.021  11.040
65891W        W31052  25.548  27.315   0.349
65892W        W31053  21.467   3.365  12.674
65893W        W31054  24.000   5.176  13.019
65894W        W31055  29.965  17.756   1.278
65895W        W31056  31.637   6.884  13.406
65896W        W31057  15.297   7.953   3.581
65897W        W31058  23.352   6.240   4.205
65898W        W31059  26.965  25.203  11.921
65899W        W31060  27.732  18.152   1.904
65900W        W31061  40.342  36.919  14.046
65901W        W31062  38.455   3.001   4.666
65902W        W31063  33.120  37.169  11.304
65903W        W31064  32.637  31.387  11.621
65904W        W31065  16.147  23.929  11.956
65905W        W31066  23.017   8.303  12.145
65906W        W31067  28.921  11.304  12.983
65907W        W31068  14.712   8.308  12.615
65908W        W31069  37.699   4.859  13.451
65909W        W31070  38.392  37.815   2.603
65910W        W31071   6.506  39.585  14.901
65911W        W31072  24.993  29.178  12.148
65912W        W31073  36.987  14.267   3.196
65913W        W31074  20.550  23.233   3.746
65914W        W31075  22.677  30.580  10.741
65915W        W31076  15.611  38.451   3.666
65916W        W31077  15.893  25.579   4.494
65917W        W31078  32.025  18.746   3.698
65918W        W31079   5.499  15.673  14.316
65919W        W31080  18.770   1.495  14.768
65920W        W31081   3.100  37.640  13.853
65921W        W31082  32.035   2.546   4.170
65922W        W31083  41.446  23.022   4.884
65923W        W31084  28.883  32.110   1.819
65924W        W31085   5.329   1.886   0.209
65925W        W31086  29.551  18.202  12.930
65926W        W31087   4.325  25.790  13.319
65927W        W31088  12.795   2.185   3.270
65928W        W31089  12.629  20.781  10.693
65929W        W31090  41.432  19.285   3.952
65930W        W31091   0.326  21.681  12.177
65931W        W31092  16.810  16.619   1.198
65932W        W31093  43.859  42.037   2.772
65933W        W31094   6.592  16.717  13.585
65934W        W31095  33.236  38.431  13.739
65935W        W31096  41.450  27.903   4.553
65936W        W31097  13.716   9.365   3.264
65937W        W31098  38.733  40.198   4.801
65938W        W31099  31.381  12.810   1.300
65939W        W31100  40.763  41.546  14.902
65940W        W31101   8.967  20.246   4.656
65941W        W31102  43.830  12.364   1.363
65942W        W31103  22.721  11.653  11.134
65943W        W31104  17.138  23.328   1.339
65944W        W31105   8.245  33.105   2.763
65945W        W31106   8.738   3.902  13.835
65946W        W31107  12.527  29.138  13.511
65947W        W31108   2.227  25.592   9.825
65948W        W31109  25.622   2.778  10.393
65949W        W31110  21.619  24.554  11.221
65950W        W31111  10.407  24.107  12.450
65951W        W31112   1.862   8.229   3.977
65952W        W31113  31.517   7.434   3.453
65953W        W31114  12.800  30.002   1.852
65954W        W31115  19.089   4.292  14.436
65955W        W31116   0.352  42.114   0.181
65956W        W31117   7.997  31.042  12.292
65957W        W31118  34.862   5.707  12.867
65958W        W31119  26.519  43.495  12.102
65959W        W31120  15.312   2.987  11.451
65960W        W31121  28.573  29.945  10.854
65961W        W31122  35.790  13.017  10.570
65962W        W31123  12.674   0.356   0.505
65963W        W31124   6.920   7.268   1.448
65964W        W31125  36.075   2.567   2.850
65965W        W31126  31.481  33.511  10.763
65966W        W31127   9.705   7.955   0.450
65967W        W31128  33.884  15.951   1.262
65968W        W31129  23.742  18.404  14.429
65969W        W31130  15.844  15.712  12.416
65970W        W31131  11.274  11.611   0.452
65971W        W31132   1.419  23.220  14.983
65972W        W31133  41.517  21.756   4.218
65973W        W31134  25.326  26.175   1.331
65974W        W31135   1.705   8.177  12.439
65975W        W31136  43.345  37.577  14.832
65976W        W31137  42.296  16.225   1.450
65977W        W31138   3.556  24.515   1.752
65978W        W31139   2.911   9.397  10.621
65979W        W31140   3.832   5.176   0.802
65980W        W31141  39.739   9.488  10.938
65981W        W31142  42.191  15.781   2.176
65982W        W31143  10.733  41.105  11.142
65983W        W31144  23.566   4.914   1.577
65984W        W31145  22.679  11.128  12.284
65985W        W31146   9.721  22.819  10.928
65986W        W31147  42.427  31.010  13.615
65987W        W31148  25.415  14.161   3.599
65988W        W31149  33.097  39.832   3.216
65989W        W31150  40.340   6.684   3.684
65990W        W31151  34.745  28.605  10.451
65991W        W31152  11.904  30.266  13.414
65992W        W31153   9.712  33.995   3.482
65993W        W31154  23.800  24.846  13.050
65994W        W31155   8.415  39.429  12.974
65995W        W31156  19.857  43.547  10.274
65996W        W31157  27.467  36.430   5.085
65997W        W31158  20.517  39.649   0.415
65998W        W31159   3.489   4.978   2.763
65999W        W31160  13.465   3.615  11.523
66000W        W31161  18.357  25.016  11.117
66001W        W31162   5.648   8.771   3.415
66002W        W31163   0.291   7.685   4.175
66003W        W31164  33.677  30.921  13.056
66004W        W31165  35.758  33.360  13.607
66005W        W31166  24.657   9.041  11.512
66006W        W31167  15.398  35.060   4.349
66007W        W31168  28.968  12.808   2.945
66008W        W31169  24.073  36.791   4.797
66009W        W31170  35.532   4.333   2.645
66010W        W31171  43.677  19.250   4.835
66011W        W31172  20.860  11.339   2.262
66012W        W31173   0.319  11.954  10.420
66013W        W31174  40.496  15.378   1.859
66014W        W31175  14.043  26.838  14.329
66015W        W31176  27.750  32.586  11.220
66016W        W31177  31.091  29.147  13.011
66017W        W31178  18.937  11.466  13.428
66018W        W31179   9.841  12.930  14.901
66019W        W31180  42.436  24.620  12.532
66020W        W31181  13.600   4.673   0.774
66021W        W31182  36.377   8.379  14.081
66022W        W31183  39.256   4.272   2.908
66023W        W31184  39.953  22.787   2.393
66024W        W31185  42.098  19.763   2.145
66025W        W31186  42.157  21.754  10.635
66026W        W31187  12.115   6.110  13.555
66027W        W31188  39.230   2.283   3.092
66028W        W31189   2.375   2.423   3.727
66029W        W31190   4.257  39.826   4.632
66030W        W31191  38.451  41.529  11.118
66031W        W31192   4.336  13.212   2.696
66032W        W31193  33.071  38.684  13.285
66033W        W31194  34.560   7.237  11.625
66034W        W31195   3.268  23.807   0.871
66035W        W31196   6.834  30.655   2.319
66036W        W31197   8.887  43.898  12.118
66037W        W31198  15.005  35.620  13.010
66038W        W31199   8.393  23.677  11.314
66039W        W31200  21.340   0.972   2.215
66040W        W31201  35.929  21.366   0.908
66041W        W31202  26.873   6.781   3.695
66042W        W31203  12.409   3.498   3.547
66043W        W31204   8.162  22.597   3.591
66044W        W31205   1.572  20.812  14.937
66045W        W31206  17.517   5.689   4.454
66046W        W31207  39.640  12.147  13.948
66047W        W31208   2.786  36.462  13.931
66048W        W31209  34.425  26.986  13.115
66049W        W31210   5.364  18.357   4.604
66050W        W31211  15.561   6.680   4.339
66051W        W31212   7.037   1.412  14.966
66052W        W31213  10.707   9.291   1.742
66053W        W31214  27.972   6.494   1.819
66054W        W31215  12.262  44.020   2.779
66055W        W31216   1.183  22.508   4.727
66056W        W31217  13.398  26.672   5.019
66057W        W31218  44.451  14.138   1.926
66058W        W31219  17.711  14.230   3.148
66059W        W31220  43.925  11.787   3.293
66060W        W31221  28.660  36.065  12.474
66061W        W31222   8.460  37.687  12.013
66062W        W31223   0.272  23.473   0.189
66063W        W31224  11.659  13.869   0.657
66064W        W31225  23.547  15.322  10.823
66065W        W31226  29.256  30.808  10.950
66066W        W31227  16.707  10.938  12.449
66067W        W31228   3.446  14.996   1.410
66068W        W31229  44.269  42.928   3.695
66069W        W31230  21.203   0.555   4.103
66070W        W31231   0.505  34.542  12.636
66071W        W31232  10.694   4.833   4.150
66072W        W31233  11.110  33.095  13.794
66073W        W31234  35.652  20.849   3.893
66074W        W31235  31.510  34.946   0.537
66075W        W31236   5.449  19.325   1.755
66076W        W31237  19.206   7.071  14.605
66077W        W31238  31.131  13.262   2.350
66078W        W31239  22.704   1.864   1.343
66079W        W31240  25.278  40.025  11.040
66080W        W31241  32.193  14.844   0.415
66081W        W31242   8.849  44.080   1.809
66082W        W31243  22.614  30.052   3.391
66083W        W31244  19.215   6.488  12.078
66084W        W31245  32.956  21.307  14.788
66085W        W31246  40.885   9.897   0.979
66086W        W31247   4.783   3.510  13.355
66087W        W31248  44.298  22.060   3.627
66088W        W31249   9.181  25.760  11.643
66089W        W31250  35.444  19.199  13.052
66090W        W31251   8.211  23.169  12.927
66091W        W31252  13.575  29.376  10.667
66092W        W31253   9.795  31.332   4.483
66093W        W31254  11.817  14.610   2.217
66094W        W31255  38.103  44.815   2.709
66095W        W31256  40.040   0.255  12.345
66096W        W31257  36.995  14.057   3.688
66097W        W31258  23.344  25.116   0.380
66098W        W31259  12.663  33.086   3.420
66099W        W31260  25.747   7.426   2.244
66100W        W31261  23.032   0.415  13.479
66101W        W31262  39.117  23.031  12.104
66102W        W31263  11.429   8.171  12.424
66103W        W31264  15.061  10.797  14.991
66104W        W31265  17.769  26.670  10.522
66105W        W31266   0.248  12.027   1.285
66106W        W31267  31.743  25.923   1.291
66107W        W31268  43.455  23.188   4.415
66108W        W31269  36.380  14.603  14.966
66109W        W31270  43.800  41.503  10.726
66110W        W31271  20.100  43.530   1.344
66111W        W31272  42.951   3.952  13.038
66112W        W31273   9.841  21.087   9.853
66113W        W31274  25.679  34.376  13.109
66114W        W31275  33.004  12.738   2.383
66115W        W31276   3.909  19.613   4.834
66116W        W31277  15.783   8.151   3.685
66117W        W31278  44.778   4.291  11.172
66118W        W31279  43.257  23.510   0.462
66119W        W31280  23.758  32.406  14.291
66120W        W31281  11.704  34.776  11.157
66121W        W31282  36.230  28.165   4.159
66122W        W31283  28.862  43.999  14.883
66123W        W31284  23.358  30.422  11.062
66124W        W31285  41.638  10.150  13.390
66125W        W31286   1.570  43.006  13.396
66126W        W31287  17.571  23.114   4.071
66127W        W31288  30.181  11.252   1.466
66128W        W31289  39.172   3.525  11.597
66129W        W31290   7.147  14.063  14.290
66130W        W31291  33.713  40.535  11.595
66131W        W31292   5.601  42.917   2.822
66132W        W31293  34.761  27.393   0.305
66133W        W31294  33.899  38.076   1.880
66134W        W31295  28.607  11.328   0.314
66135W        W31296  20.221  41.501   1.791
66136W        W31297  16.636  12.181   4.945
66137W        W31298  38.579  38.118   0.373
66138W        W31299  17.660  40.844   0.007
66139W        W31300  16.696  41.877  12.878
66140W        W31301  40.271   1.217  12.542
66141W        W31302  22.103   0.301   2.290
66142W        W31303  28.004  19.832   1.384
66143W        W31304  16.188  15.539  11.082
66144W        W31305   7.607  26.028  13.039
66145W        W31306  31.164  44.542  14.890
66146W        W31307   9.993  19.526  14.268
66147W        W31308   4.615  29.565   2.391
66148W        W31309  41.049  20.744   2.336
66149W        W31310  10.879  44.240  12.606
66150W        W31311  24.444   9.672  12.621
66151W        W31312  35.009  24.961  14.531
66152W        W31313   6.710  35.790  12.254
66153W        W31314  12.947  32.467   4.604
66154W        W31315  10.703  30.460  10.904
66155W        W31316  16.960  27.246   4.151
66156W        W31317   4.772  40.527  14.395
66157W        W31318  12.414  16.181   0.515
66158W        W31319  44.722  21.150  10.676
66159W        W31320  44.561   3.050  12.595
66160W        W31321  29.004  40.978   9.626
66161W        W31322  17.081  15.284  12.536
66162W        W31323  10.743   3.987  14.382
66163W        W31324   9.379  23.748   3.690
66164W        W31325  33.176  25.100   4.406
66165W        W31326  22.214  11.338  10.595
66166W        W31327  23.794  16.689   4.265
66167W        W31328  22.426  15.302  11.108
66168W        W31329  29.072  39.973  14.567
66169W        W31330  32.346  38.144  14.945
66170W        W31331  33.397  36.875   4.199
66171W        W31332   0.851   3.443   2.740
66172W        W31333  34.488   0.345   1.246
66173W        W31334   2.886  42.154   2.340
66174W        W31335  33.397  25.502  11.882
66175W        W31336  15.180  21.923   4.002
66176W        W31337   7.590   4.480  13.475
66177W        W31338  27.668  32.323  10.482
66178W        W31339  35.009  24.326  13.258
66179W        W31340  39.042  33.300   4.457
66180W        W31341  11.295  38.810   0.859
66181W        W31342  10.382  17.276   3.471
66182W        W31343  37.839  39.474  10.532
66183W        W31344  24.190  25.790  12.886
66184W        W31345  34.464   2.943   2.135
66185W        W31346  40.499  17.478  11.532
66186W        W31347  37.065  25.217   3.240
66187W        W31348  16.833  42.294  11.980
66188W        W31349   9.764  33.477   1.122
66189W        W31350  23.133   5.905   1.474
66190W        W31351  24.081  31.981  14.450
66191W        W31352  17.990  14.829  13.442
66192W        W31353  38.136  13.326   2.618
66193W        W31354  20.122  20.141   5.479
66194W        W31355   9.747  15.662   2.218
66195W        W31356  43.283  34.091  14.936
66196W        W31357  10.711  17.544   1.821
66197W        W31358  18.481  14.373  10.239
66198W        W31359   3.214  39.446  13.265
66199W        W31360   7.969  23.393  11.100
66200W        W31361  30.954  29.073   4.302
66201W        W31362  16.275   4.820  10.613
66202W        W31363   3.190  24.957  11.638
66203W        W31364   0.879  26.944  11.562
66204W        W31365  15.067  22.152   2.784
66205W        W31366  10.701  27.083   3.804
66206W        W31367   5.618   0.009   2.810
66207W        W31368  30.942  19.612  12.209
66208W        W31369  37.353  12.749   4.094
66209W        W31370  36.601  38.563   3.707
66210W        W31371  19.643  17.619  13.138
66211W        W31372   1.924  25.216   2.202
66212W        W31373  28.987  41.757  12.099
66213W        W31374  14.389  15.029   3.969
66214W        W31375   2.034   8.961   1.727
66215W        W31376  23.477  14.342   2.131
66216W        W31377   6.065  29.603   1.223
66217W        W31378  42.866   7.425  12.058
66218W        W31379   0.327  17.886   1.314
66219W        W31380  31.836  22.617   1.834
66220W        W31381  11.646  20.347   0.879
66221W        W31382  22.097  42.509  11.600
66222W        W31383  28.142  13.644  12.543
66223W        W31384   0.052  29.163  12.007
66224W        W31385  20.612  26.567   1.520
66225W        W31386  32.567   2.389   2.807
66226W        W31387   8.625  33.451   3.615
66227W        W31388  13.846   6.967   3.920
66228W        W31389  42.623  18.520   1.450
66229W        W31390  28.673   8.112   4.048
66230W        W31391  32.739  39.829  13.898
66231W        W31392  35.214  20.964  12.535
66232W        W31393  18.739  28.942   0.756
66233W        W31394   4.284  41.976   1.678
66234W        W31395  41.371  35.847   2.417
66235W        W31396  18.588  32.475  10.689
66236W        W31397  22.210  19.064  13.814
66237W        W31398  44.852  26.025  14.299
66238W        W31399  41.350  44.364   3.739
66239W        W31400  19.736  22.792   3.780
66240W        W31401  34.894   9.051  12.854
66241W        W31402  29.907  29.976  10.373
66242W        W31403  38.049   0.482   4.207
66243W        W31404  32.663   8.938  14.841
66244W        W31405  11.616  18.972   0.402
66245W        W31406  35.374  27.360   2.087
66246W        W31407  10.791  38.942  14.902
66247W        W31408  37.564  35.286   2.151
66248W        W31409  37.695  20.583   0.228
66249W        W31410  36.022   8.600  12.532
66250W        W31411  33.688  22.955  10.665
66251W        W31412  36.579  16.778  12.626
66252W        W31413  18.180  23.904   0.090
66253W        W31414  14.763  13.367  12.425
66254W        W31415  16.889  13.633   0.466
66255W        W31416   6.852  38.165   1.666
66256W        W31417  33.859   3.927   2.918
66257W        W31418  18.276  34.337  11.689
66258W        W31419   7.272  38.601  13.551
66259W        W31420   7.120  42.948   0.490
66260W        W31421  26.193   0.882   4.229
66261W        W31422   3.895  28.177   3.680
66262W        W31423  20.493   7.693   0.335
66263W        W31424  29.209   9.769   4.573
66264W        W31425  35.935  32.594  11.624
66265W        W31426   9.232  38.925   3.190
66266W        W31427  35.785   9.829  13.011
66267W        W31428  26.644  26.053   0.006
66268W        W31429  34.487  23.058  10.904
66269W        W31430  44.291  29.095   1.433
66270W        W31431   6.164   7.376   1.763
66271W        W31432  34.982  22.511   0.006
66272W        W31433  21.836   0.502  10.554
66273W        W31434  36.391  33.460  11.504
66274W        W31435  16.656  25.985  14.507
66275W        W31436   0.738  25.067   3.188
66276W        W31437  33.132   7.412  13.471
66277W        W31438  28.112  12.336  12.866
66278W        W31439  29.981  11.885   4.043
66279W        W31440  17.274  17.535  10.173
66280W        W31441  24.783   9.448  13.514
66281W        W31442  39.383  11.734   4.087
66282W        W31443  33.376   5.096   3.093
66283W        W31444  27.548  15.877   3.275
66284W        W31445   7.890   0.766  12.043
66285W        W31446  32.843  23.908   2.823
66286W        W31447  21.002  36.926   2.135
66287W        W31448  26.261  44.872  10.465
66288W        W31449  19.246   8.506   4.914
66289W        W31450   4.423   8.562   4.901
66290W        W31451  28.263  39.010   3.295
66291W        W31452   2.918   5.645   0.892
66292W        W31453  39.516   1.923  11.623
66293W        W31454  33.537  12.804  11.772
66294W        W31455  43.062  17.450   0.365
66295W        W31456  32.887  22.599   0.929
66296W        W31457  26.257  23.450   2.603
66297W        W31458  27.540  35.762   1.884
66298W        W31459  32.488  17.542   1.217
66299W        W31460  34.453  20.247  11.197
66300W        W31461  44.871  11.991  11.530
66301W        W31462  25.528  16.286   1.667
66302W        W31463  16.373  24.569  10.557
66303W        W31464  36.051  22.197   3.390
66304W        W31465  14.172  34.301  12.902
66305W        W31466   0.801  30.893   4.118
66306W        W31467  36.466  34.686  11.125
66307W        W31468  43.934  19.274  14.822
66308W        W31469   8.386  37.514  11.538
66309W        W31470  43.585  43.990  14.604
66310W        W31471  22.990  33.782   3.753
66311W        W31472   1.517  25.436  10.995
66312W        W31473  10.077  29.394  13.983
66313W        W31474  30.432  34.551  13.391
66314W        W31475  27.769   9.541  12.886
66315W        W31476  29.133  39.523  13.098
66316W        W31477  22.142  19.041   1.855
66317W        W31478  17.352  18.684  12.390
66318W        W31479  14.388   0.047  11.930
66319W        W31480  31.763  26.731   5.207
66320W        W31481   1.761  19.092  12.072
66321W        W31482  18.444   2.923  11.200
66322W        W31483  17.251  33.161  12.208
66323W        W31484  36.008  19.987   3.638
66324W        W31485  14.668  44.440   2.669
66325W        W31486   0.713  32.511  14.240
66326W        W31487  31.419   9.001  11.051
66327W        W31488   4.951  11.390  10.175
66328W        W31489  13.417   5.014   5.122
66329W        W31490  38.434  18.558   2.219
66330W        W31491  30.915  31.783  10.900
66331W        W31492   9.253   3.205  11.152
66332W        W31493  21.625   9.109   2.361
66333W        W31494  31.968   2.880  14.733
66334W        W31495  20.107   9.267   0.250
66335W        W31496   7.167  35.858  11.536
66336W        W31497  27.116  17.649  14.563
66337W        W31498  37.872  43.054  13.119
66338W        W31499  13.415  20.899  11.081
66339W        W31500   5.645  28.668  11.546
66340W        W31501  10.521  42.820  13.940
66341W        W31502  10.426   7.723   0.305
66342W        W31503  34.796   9.675   1.546
66343W        W31504   4.146  13.157   0.783
66344W        W31505   3.746  24.682  14.213
66345W        W31506  38.812  41.985   0.991
66346W        W31507  18.765  25.884   4.884
66347W        W31508   3.999  42.461  11.665
66348W        W31509   5.968   7.933  11.919
66349W        W31510   7.860   6.930   2.693
66350W        W31511  43.328  34.542   3.170
66351W        W31512  37.636  42.288   1.120
66352W        W31513  14.062  28.668   0.895
66353W        W31514   4.219   2.819   2.812
66354W        W31515  10.875  39.528   0.380
66355W        W31516   5.563   1.609  12.471
66356W        W31517  19.975   4.472   4.614
66357W        W31518  37.484  23.605   2.202
66358W        W31519  40.578  34.281   2.314
66359W        W31520   4.855  32.563  11.057
66360W        W31521  17.309  28.962  14.923
66361W        W31522  18.318  43.008   2.907
66362W        W31523  19.028  44.015  13.041
66363W        W31524   3.069  17.331  10.578
66364W        W31525   6.027  26.159   3.575
66365W        W31526  34.949   9.822   2.006
66366W        W31527  19.228  13.303  14.470
66367W        W31528   0.246  42.916  12.606
66368W        W31529   2.676   4.504  13.524
66369W        W31530   5.960  16.316   1.420
66370W        W31531  20.521  22.416  12.013
66371W        W31532  11.605   8.866   2.954
66372W        W31533  44.454  22.764   5.206
66373W        W31534  23.594   3.161  14.302
66374W        W31535  18.202  30.933   0.026
66375W        W31536  22.434  33.876   2.262
66376W        W31537  15.184   4.764   3.873
66377W        W31538  33.427  36.380   2.536
66378W        W31539   8.583   0.313   3.215
66379W        W31540  40.031  36.911  14.978
66380W        W31541  22.010  28.665   4.066
66381W        W31542   3.494  41.366  14.763
66382W        W31543  37.436  37.895  13.988
66383W        W31544  34.818  14.560   2.296
66384W        W31545  33.444   3.788   0.282
66385W        W31546  14.620  26.175   4.572
66386W        W31547  14.261  10.464   2.086
66387W        W31548  11.253  27.250  12.000
66388W        W31549  32.883  23.743  12.621
66389W        W31550  28.635  29.943   4.772
66390W        W31551  39.028   9.177  12.902
66391W        W31552  30.129  21.284   5.074
66392W        W31553   1.884  19.015   2.068
66393W        W31554   0.111   6.387  12.446
66394W        W31555  16.110  29.748   0.008
66395W        W31556  24.117  13.438   4.146
66396W        W31557  20.049  11.518   4.483
66397W        W31558  14.618  39.528   3.805
66398W        W31559  44.989  32.932  14.473
66399W        W31560  19.412  10.011   0.395
66400W        W31561  21.018  30.674   3.755
66401W        W31562  38.444  18.080  10.979
66402W        W31563   4.853  44.562  14.788
66403W        W31564  25.708   9.821  11.144
66404W        W31565  20.958  28.031   0.302
66405W        W31566  39.265  14.169  10.809
66406W        W31567  10.202  10.864  11.764
66407W        W31568   2.386  25.453  11.632
66408W        W31569  41.859  36.381   2.631
66409W        W31570  11.731   0.939   3.734
66410W        W31571  19.771  18.552   1.277
66411W        W31572   8.129  15.995   0.790
66412W        W31573  44.924  19.757   0.669
66413W        W31574   7.886  23.575  11.577
66414W        W31575   9.624  43.890   2.763
66415W        W31576  41.036  21.008   3.254
66416W        W31577  33.617  34.872   0.014
66417W        W31578   2.836  16.740   0.026
66418W        W31579   4.463  44.432   5.088
66419W        W31580  17.581  25.627  11.206
66420W        W31581  10.810  34.841  13.434
66421W        W31582  18.061  23.992   2.935
66422W        W31583  12.266   2.717   2.084
66423W        W31584  29.530   2.860   0.229
66424W        W31585  10.447  35.074  14.784
66425W        W31586  23.458  19.174  13.418
66426W        W31587  33.105  28.912  13.898
66427W        W31588  23.266   7.724   0.469
66428W        W31589  20.457  26.437  10.896
66429W        W31590  21.330  11.162  10.243
66430W        W31591  40.233  18.119   4.087
66431W        W31592  42.441  27.349  10.596
66432W        W31593  13.572  25.410   0.779
66433W        W31594  40.577  35.840  14.805
66434W        W31595  12.640  20.252   1.557
66435W        W31596  13.205  17.683  14.256
66436W        W31597   1.986  34.991   3.663
66437W        W31598  15.347  25.113   2.422
66438W        W31599  26.083  26.299  14.527
66439W        W31600  13.266   5.939  11.103
66440W        W31601  19.570  42.046  10.273
66441W        W31602  39.569  33.900   4.027
66442W        W31603  43.810  31.452   0.613
66443W        W31604  17.536  41.873   5.031
66444W        W31605  26.621  30.797   0.420
66445W        W31606  18.884  27.093   2.224
66446W        W31607  36.901  42.554  13.913
66447W        W31608  11.232  35.308  14.066
66448W        W31609  13.355  29.460   2.341
66449W        W31610  39.577  37.609  11.188
66450W        W31611   9.069   7.396   4.226
66451W        W31612  17.583   5.148   2.534
66452W        W31613  14.433  26.951   3.232
66453W        W31614  33.912   4.480  14.419
66454W        W31615  32.436  42.493  12.369
66455W        W31616   3.576  42.442   1.436
66456W        W31617   2.632  31.409  13.068
66457W        W31618  26.717  23.155   1.655
66458W        W31619  19.979   8.863   4.355
66459W        W31620  18.803  23.510   0.670
66460W        W31621  10.201  32.986  10.417
66461W        W31622  19.567   9.446   2.327
66462W        W31623  16.789  41.978   0.877
66463W        W31624  33.629  10.211   1.698
66464W        W31625  41.340   7.820  14.499
66465W        W31626  11.228  20.410  12.638
66466W        W31627  15.497  39.628   2.164
66467W        W31628   8.324  23.018  11.102
66468W        W31629  19.573  10.726  12.968
66469W        W31630  14.513   0.275  10.530
66470W        W31631  10.778   0.922  12.038
66471W        W31632  22.806  25.252   3.645
66472W        W31633   3.349  42.259  14.832
66473W        W31634  34.361   4.934   0.406
66474W        W31635  15.387  25.258   0.078
66475W        W31636  38.057  17.045   0.593
66476W        W31637  19.197  42.042  13.876
66477W        W31638  38.882  18.345   0.454
66478W        W31639   9.126  38.902  12.971
66479W        W31640  27.111  10.827  12.884
66480W        W31641  13.157   5.077   2.125
66481W        W31642   1.945  35.806   0.835
66482W        W31643  28.274  30.619  14.772
66483W        W31644   3.969   9.967   1.853
66484W        W31645  24.918  39.496  12.910
66485W        W31646  42.644  21.198   0.939
66486W        W31647   4.875  14.082  12.029
66487W        W31648  31.081  32.086  13.875
66488W        W31649  21.761  32.150  13.544
66489W        W31650  14.136  24.793  11.146
66490W        W31651  35.976   0.938  10.268
66491W        W31652  34.044   8.418  10.665
66492W        W31653  24.021  40.513  12.595
66493W        W31654  38.251  26.438   4.073
66494W        W31655  42.878  31.159   0.899
66495W        W31656  18.162  44.461   1.147
66496W        W31657  33.932  35.337  14.511
66497W        W31658  33.387  15.042   1.874
66498W        W31659  40.452   0.890   1.181
66499W        W31660  12.411  41.390  12.106
66500W        W31661  30.486  33.613  12.838
66501W        W31662  29.231  11.650  14.555
66502W        W31663  26.122  41.192   1.318
66503W        W31664  32.065   1.736  13.278
66504W        W31665  28.018  22.576   1.755
66505W        W31666  35.309  43.810   1.411
66506W        W31667   9.969   7.516   0.430
66507W        W31668  17.754  33.113  12.093
66508W        W31669   9.704  41.441   4.120
66509W        W31670  31.394  27.365   1.868
66510W        W31671  20.390  20.929   1.782
66511W        W31672   9.079  30.077   4.590
66512W        W31673  17.408  27.003  11.371
66513W        W31674  34.809  14.160  12.914
66514W        W31675  41.548  19.757  13.878
66515W        W31676  38.752  22.588   1.039
66516W        W31677   3.889   1.043  13.083
66517W        W31678  22.773  38.885  14.464
66518W        W31679  23.029  14.583   1.429
66519W        W31680   4.864   2.014   1.233
66520W        W31681   3.230  11.059   0.518
66521W        W31682  16.699  22.159   1.866
66522W        W31683  14.612  11.352   2.367
66523W        W31684  41.304  11.767  10.589
66524W        W31685  29.827  28.683  13.921
66525W        W31686  26.979   6.640  11.227
66526W        W31687   8.538  40.617  13.471
66527W        W31688  15.766   7.574  14.398
66528W        W31689  35.058  20.472  14.979
66529W        W31690  18.806  42.395  11.117
66530W        W31691  43.412  10.285   1.433
66531W        W31692   2.800  19.991  11.164
66532W        W31693  31.377  39.453   3.723
66533W        W31694  11.714  21.326   0.778
66534W        W31695   7.009  32.543   2.747
66535W        W31696  43.845   1.392  11.517
66536W        W31697   3.000  15.922   4.976
66537W        W31698   5.121   2.474   4.230
66538W        W31699  35.833  11.759   3.684
66539W        W31700  27.035  41.399  12.816
66540W        W31701  14.128  25.028   3.638
66541W        W31702  32.628  23.187   3.742
66542W        W31703  34.839  44.980  11.999
66543W        W31704   1.982  38.893   3.868
66544W        W31705  43.709  33.910   5.023
66545W        W31706  25.013  29.965   2.693
66546W        W31707  22.431  26.628  11.185
66547W        W31708  37.536   2.264  14.050
66548W        W31709   0.179  31.725   1.818
66549W        W31710   7.457  20.247   2.375
66550W        W31711  27.111  32.174   3.696
66551W        W31712  19.958  40.054  12.434
66552W        W31713   0.906  23.190   3.110
66553W        W31714  38.861  27.721  10.720
66554W        W31715  11.361  15.782   0.739
66555W        W31716  30.777  16.282   3.353
66556W        W31717  23.650  25.689   3.279
66557W        W31718  38.831  25.693   0.026
66558W        W31719   5.616  33.430   2.385
66559W        W31720  31.318  38.085   3.301
66560W        W31721  24.110  36.417  12.511
66561W        W31722  17.999  38.822   4.976
66562W        W31723  27.648  35.981   0.544
66563W        W31724  21.701  22.250  13.702
66564W        W31725  35.509  11.199   3.628
66565W        W31726  16.684  27.951  13.368
66566W        W31727   8.904   8.688  12.426
66567W        W31728  32.201   3.759   1.832
66568W        W31729  10.219  25.689  14.734
66569W        W31730   8.591  29.440   3.416
66570W        W31731   8.316  31.410   1.871
66571W        W31732   4.354   3.964  11.855
66572W        W31733  10.025  15.262  11.178
66573W        W31734  21.585  31.669  12.132
66574W        W31735  27.476  25.278   3.244
66575W        W31736  25.205  11.172   1.233
66576W        W31737   6.193  24.967  11.029
66577W        W31738  41.536  32.011  14.762
66578W        W31739  29.853  35.521   1.909
66579W        W31740  33.309  10.984  13.343
66580W        W31741  13.960  38.401   4.105
66581W        W31742  28.491  32.322   4.654
66582W        W31743  35.340   0.031  12.896
66583W        W31744  22.438  20.088   5.432
66584W        W31745  25.795  37.439   2.253
66585W        W31746   3.233  11.861  13.273
66586W        W31747  44.095  35.493   5.457
66587W        W31748   7.709  37.901  10.790
66588W        W31749  33.365  25.939   3.668
66589W        W31750  19.605   0.362   3.159
66590W        W31751  26.901  28.730   1.722
66591W        W31752  11.353  32.116  12.418
66592W        W31753   5.597  31.490   1.700
66593W        W31754  30.018  22.210  11.638
66594W        W31755   8.151   3.297  11.683
66595W        W31756  13.317   7.732   5.100
66596W        W31757  40.933  10.783  10.700
66597W        W31758  14.127  30.002  10.650
66598W        W31759   4.375   7.465  14.115
66599W        W31760  19.598  29.007   2.522
66600W        W31761   1.486   8.393   1.000
66601W        W31762  31.240  26.644  10.343
66602W        W31763   9.856  25.232  14.062
66603W        W31764  33.494   3.997   0.739
66604W        W31765  16.843  11.207   4.913
66605W        W31766   5.131  17.024  12.018
66606W        W31767  13.349   5.912   1.677
66607W        W31768   8.946   8.374   1.249
66608W        W31769  11.402  19.353  14.518
66609W        W31770  22.803  21.681  13.312
66610W        W31771   9.757   1.229  14.035
66611W        W31772  16.354  20.854  11.569
66612W        W31773  21.456  44.411  10.134
66613W        W31774  16.835  39.494  11.611
66614W        W31775  41.431  33.498   0.532
66615W        W31776  38.858   8.908   2.760
66616W        W31777  21.927  31.568   3.651
66617W        W31778   0.154  32.997  12.073
66618W        W31779  21.726  12.125   4.625
66619W        W31780  38.544  12.852  10.737
66620W        W31781  43.911  35.648   3.773
66621W        W31782  44.751   2.683   0.260
66622W        W31783  30.086  11.723  13.953
66623W        W31784   3.966  42.678  13.830
66624W        W31785  17.612  37.410   1.304
66625W        W31786  37.507   1.631   1.247
66626W        W31787  42.794  29.580  13.389
66627W        W31788  10.627  18.103  12.405
66628W        W31789  13.722  18.567   1.848
66629W        W31790  27.676  31.545   1.489
66630W        W31791   3.774  23.012  10.240
66631W        W31792   0.852  37.633   1.549
66632W        W31793   6.630  33.075  14.192
66633W        W31794  28.955  25.139   3.354
66634W        W31795  28.680   2.012   0.413
66635W        W31796   0.063   6.092  12.016
66636W        W31797  31.559   9.385  10.717
66637W        W31798  15.418  14.469   5.000
66638W        W31799  13.623  29.545   4.672
66639W        W31800  28.509  21.070  11.158
66640W        W31801  22.915  33.095   2.177
66641W        W31802  20.534  25.719  13.991
66642W        W31803  43.347  34.362   3.656
66643W        W31804  32.898  42.943  10.277
66644W        W31805  26.646  23.502  10.669
66645W        W31806  29.454  15.888  10.860
66646W        W31807  23.921  35.559   0.812
66647W        W31808  40.788  22.998   0.486
66648W        W31809   2.912   9.410  14.022
66649W        W31810  21.526  41.479  11.132
66650W        W31811  26.063   8.323   2.712
66651W        W31812  44.421  39.333  12.984
66652W        W31813  25.578  13.299   3.726
66653W        W31814  15.803  22.802  10.705
66654W        W31815   0.822  38.604  11.658
66655W        W31816  29.868   7.289  12.505
66656W        W31817  34.108  22.732   2.291
66657W        W31818  37.750  43.998   0.007
66658W        W31819  18.512   1.662   2.964
66659W        W31820  31.740  38.257   1.073
66660W        W31821  19.625   8.338   4.622
66661W        W31822  36.662   4.763   4.935
66662W        W31823   1.105  37.303   2.786
66663W        W31824  26.940   6.794  10.742
66664W        W31825  43.097  43.888  14.454
66665W        W31826   7.594  28.654  14.091
66666W        W31827  37.507  30.070   3.213
66667W        W31828  42.991  31.477  13.922
66668W        W31829   1.783  28.085  12.012
66669W        W31830  43.038  19.735   4.353
66670W        W31831  24.460  10.174  13.826
66671W        W31832  21.053   1.278  11.000
66672W        W31833  36.183  24.006  11.542
66673W        W31834  26.220  30.514   1.214
66674W        W31835  23.693  29.653  10.831
66675W        W31836  14.889   6.552   2.846
66676W        W31837  20.333  40.131   0.532
66677W        W31838  31.947   3.385   2.229
66678W        W31839  16.312  31.039  12.968
66679W        W31840  41.623  39.075   3.084
66680W        W31841   6.913   4.326   3.201
66681W        W31842  20.221  14.805  12.707
66682W        W31843  21.620   1.065  14.928
66683W        W31844  40.302  24.903   4.114
66684W        W31845  44.317  12.577  11.852
66685W        W31846  27.166  35.865   0.347
66686W        W31847  16.843  15.895  13.352
66687W        W31848   5.682  22.785   1.672
66688W        W31849  18.219  27.059  14.336
66689W        W31850  43.368  17.331  12.493
66690W        W31851  36.709  29.483   2.717
66691W        W31852  16.673   3.565  13.086
66692W        W31853  35.333  17.548   0.821
66693W        W31854  38.865  41.973  13.686
66694W        W31855  43.924  40.981   2.666
66695W        W31856  36.502  43.381  12.096
66696W        W31857  25.582  12.925  13.535
66697W        W31858  11.273  28.697   0.852
66698W        W31859   6.823  39.542  14.088
66699W        W31860  14.562  22.447   1.091
66700W        W31861  34.647  10.156  13.480
66701W        W31862  35.528  32.781   3.640
66702W        W31863  12.525   7.274  13.337
66703W        W31864  19.565  20.027   1.637
66704W        W31865  18.728   2.884  12.198
66705W        W31866   7.053   0.373   0.425
66706W        W31867  26.964   3.151  13.377
66707W        W31868   9.305   5.917   2.257
66708W        W31869   2.964  33.603   2.838
66709W        W31870  11.247  44.886   0.764
66710W        W31871  38.379  11.738  10.569
66711W        W31872   9.898  44.536  10.712
66712W        W31873  32.332  24.569  11.586
66713W        W31874  35.326   8.269   1.377
66714W        W31875  26.186  41.047  13.470
66715W        W31876  22.152  14.913   2.730
66716W        W31877  24.833  38.973   2.185
66717W        W31878  44.813   9.858   1.462
66718W        W31879  30.099  44.770  12.536
66719W        W31880  34.960   9.344  14.605
66720W        W31881  22.819  36.896  11.262
66721W        W31882  22.600  11.720   5.010
66722W        W31883  38.617  23.223   2.253
66723W        W31884   6.238  21.211  10.357
66724W        W31885  32.952  28.906  12.948
66725W        W31886  23.564  38.983  14.068
66726W        W31887   9.859  35.601   1.429
66727W        W31888  34.799  32.680   2.133
66728W        W31889  10.180  28.797   3.109
66729W        W31890  19.597  19.743  12.598
66730W        W31891   0.901   0.313  13.967
66731W        W31892   5.404   9.339  14.984
66732W        W31893  34.901  18.276   3.799
66733W        W31894  34.326  34.334   4.054
66734W        W31895  10.763  22.757   4.714
66735W        W31896  31.828  25.161  14.048
66736W        W31897  23.170  24.238   2.374
66737W        W31898  16.326  11.797   0.233
66738W        W31899   2.149   3.385   1.346
66739W        W31900   2.324  30.419  11.551
66740W        W31901   2.429  44.025   3.282
66741W        W31902   2.417  25.636   4.276
66742W        W31903  20.375  40.572   5.005
66743W        W31904  22.541  13.373   2.360
66744W        W31905   8.877   9.226  14.420
66745W        W31906  12.705  24.941   3.776
66746W        W31907   4.173  17.342   4.011
66747W        W31908  20.599  23.487  11.998
66748W        W31909  19.009  18.931  14.054
66749W        W31910  12.141  38.356   1.218
66750W        W31911  26.312   9.251  10.581
66751W        W31912  38.971  37.376   2.939
66752W        W31913  20.573   2.202   3.706
66753W        W31914  23.743  33.953  14.297
66754W        W31915  26.176  18.567   3.967
66755W        W31916  23.677  16.246  11.921
66756W        W31917  11.542   6.359   1.832
66757W        W31918  12.696  43.581   2.231
66758W        W31919   5.918  14.608   3.814
66759W        W31920  12.540  17.005  14.329
66760W        W31921  40.404  13.381   0.271
66761W        W31922  34.841  11.721  11.271
66762W        W31923  23.218   6.679   3.681
66763W        W31924   8.356  43.343  12.601
66764W        W31925  19.664   0.752  13.976
66765W        W31926  24.105  35.019   0.121
66766W        W31927  14.263  35.516   4.844
66767W        W31928  14.070  29.229   2.840
66768W        W31929   8.749  23.945  13.946
66769W        W31930  36.075  24.837   1.167
66770W        W31931  44.553  22.699   0.106
66771W        W31932  25.945  34.107   4.801
66772W        W31933  42.436  21.454  10.981
66773W        W31934  13.978  20.588   4.270
66774W        W31935   7.080  20.643  13.496
66775W        W31936  30.874  28.020   3.587
66776W        W31937   9.860  20.994  12.334
66777W        W31938  28.288  28.564  12.985
66778W        W31939  43.061  13.099  10.733
66779W        W31940  27.524  13.269   0.314
66780W        W31941  10.848  32.941  12.418
66781W        W31942  44.064  24.193  12.210
66782W        W31943  15.380  20.281  12.574
66783W        W31944  38.047  37.647  12.428
66784W        W31945  21.864  21.253   3.694
66785W        W31946  41.437  11.311   3.385
66786W        W31947  33.042   9.415   4.518
66787W        W31948  44.898  24.445  11.538
66788W        W31949  30.040  41.982  10.642
66789W        W31950  22.113  33.569   4.217
66790W        W31951   8.087  44.001   2.158
66791W        W31952  10.646   4.277  14.845
66792W        W31953   1.431  13.081  10.716
66793W        W31954   8.874  37.363  11.581
66794W        W31955  10.810  22.693  10.694
66795W        W31956  33.603  44.915   0.841
66796W        W31957  24.891   7.592   0.007
66797W        W31958  15.883   8.557  14.650
66798W        W31959  32.720   4.678  13.780
66799W        W31960  28.967   7.084   0.491
66800W        W31961  11.854  41.867   3.163
66801W        W31962  10.151  14.702   0.508
66802W        W31963  44.576  42.553  14.949
66803W        W31964  25.012  41.564   2.240
66804W        W31965  27.947  41.362   1.773
66805W        W31966  29.376  44.253  14.199
66806W        W31967  39.206  37.397   4.162
66807W        W31968  24.042  15.091  11.449
66808W        W31969  27.681  37.122  12.593
66809W        W31970  21.748  42.132   2.730
66810W        W31971  35.622  37.575   2.779
66811W        W31972   6.333  18.187   3.280
66812W        W31973  26.630  39.973   1.638
66813W        W31974  26.861   0.531  12.879
66814W        W31975  26.026  26.460  14.047
66815W        W31976  26.838  12.429   2.307
66816W        W31977  25.533  15.884  10.269
66817W        W31978   0.723   9.674  10.168
66818W        W31979  15.458  35.085  12.030
66819W        W31980   2.410   9.424  10.504
66820W        W31981   4.497  29.431  14.473
66821W        W31982   4.505   1.334  12.251
66822W        W31983  19.783   3.591  11.563
66823W        W31984   5.010  30.492   1.490
66824W        W31985  37.932   5.455   0.283
66825W        W31986  38.070  40.074  12.298
66826W        W31987  29.234  31.932  14.980
66827W        W31988  13.177  25.879  13.070
66828W        W31989  11.151  21.325   4.689
66829W        W31990  19.530  25.683   2.445
66830W        W31991  18.727  13.935  13.852
66831W        W31992  34.611  14.111   4.371
66832W        W31993  22.703   9.421  12.438
66833W        W31994  28.311  37.918  14.957
66834W        W31995  26.694   6.112  11.962
66835W        W31996   5.752  32.026   2.758
66836W        W31997  24.955   2.116  11.163
66837W        W31998  31.694  11.921  13.617
66838W        W31999   9.697   3.140   4.200
66839W        W32000  31.193  35.128   2.739
66840W        W32001  14.286   7.255   4.296
66841W        W32002  16.833  20.614   0.739
66842W        W32003   6.149   9.363   4.350
66843W        W32004   0.428  37.852   3.966
66844W        W32005  23.482  39.485   0.651
66845W        W32006  36.975  17.874  13.322
66846W        W32007  28.485   5.036  11.169
66847W        W32008  33.389   3.751  14.403
66848W        W32009  17.220  12.692  10.774
66849W        W32010  25.374  28.985   0.847
66850W        W32011  25.159  40.699   1.431
66851W        W32012  14.939  33.390   4.489
66852W        W32013  26.242  13.290  14.357
66853W        W32014   5.471  38.902   4.574
66854W        W32015  35.429  12.071   2.776
66855W        W32016   1.541  35.052   4.071
66856W        W32017  43.220  22.930   1.375
66857W        W32018  16.366  25.160   1.635
66858W        W32019   3.831  28.640  11.527
66859W        W32020  43.370  18.538  13.838
66860W        W32021   3.307   1.317   2.317
66861W        W32022  21.437  11.215   4.615
66862W        W32023  12.725  39.827  12.917
66863W        W32024  19.260  43.700   4.471
66864W        W32025  32.624  24.239   1.142
66865W        W32026  22.774   8.104  14.393
66866W        W32027  18.382  40.328   1.762
66867W        W32028  30.897  28.944   0.846
66868W        W32029   2.428  37.757  11.896
66869W        W32030  12.820  42.888  14.446
66870W        W32031  37.417  18.569   2.830
66871W        W32032  18.727   0.011  10.740
66872W        W32033   8.378  21.970  11.070
66873W        W32034   6.760  17.865  14.370
66874W        W32035  33.585  17.067  14.307
66875W        W32036   4.170  15.091   3.666
66876W        W32037  41.065  26.128   0.818
66877W        W32038  14.654   9.621   2.648
66878W        W32039  27.658  23.600   0.025
66879W        W32040  24.975   3.987   2.814
66880W        W32041  37.945  32.681  14.437
66881W        W32042  19.849  15.115  13.471
66882W        W32043  30.174  41.872   1.895
66883W        W32044  24.286  20.106   3.070
66884W        W32045  14.823  26.478   1.776
66885W        W32046   8.782  42.480   0.547
66886W        W32047   4.352   8.248  14.838
66887W        W32048  16.215  33.514   4.933
66888W        W32049  32.476  18.055   3.832
66889W        W32050  21.299  16.154   3.573
66890W        W32051  40.001  37.458   4.975
66891W        W32052  13.128  28.692   3.703
66892W        W32053  41.113  12.274   0.257
66893W        W32054   8.852  34.409  10.716
66894W        W32055  33.078   0.842   4.076
66895W        W32056   0.883  34.912  12.576
66896W        W32057  10.065  14.087  11.537
66897W        W32058   2.468  24.426  13.274
66898W        W32059  11.220  31.594  10.707
66899W        W32060  35.730  18.309   4.220
66900W        W32061  20.621  24.825   5.018
66901W        W32062   3.905  10.887   4.542
66902W        W32063  44.745  24.018  10.692
66903W        W32064  30.911   7.241  12.546
66904W        W32065   5.537   2.493   4.574
66905W        W32066  44.491   9.866   0.432
66906W        W32067  24.671  16.118   2.795
66907W        W32068  13.137  35.272   1.164
66908W        W32069  10.885   5.359  10.568
66909W        W32070  17.562  10.348   2.323
66910W        W32071  24.834  30.405  11.026
66911W        W32072  32.085  18.331   2.391
66912W        W32073  24.085   5.164   2.643
66913W        W32074   3.925  18.774  12.951
66914W        W32075  10.369  27.677   4.171
66915W        W32076  14.189  43.738   0.021
66916W        W32077  33.168  40.663   0.849
66917W        W32078  28.514   4.631   1.211
66918W        W32079  17.592   3.040  14.462
66919W        W32080  15.544  30.636  10.375
66920W        W32081   5.683  18.024  14.281
66921W        W32082  31.617  27.349  12.495
66922W        W32083  12.153  29.103   1.234
66923W        W32084  37.632  42.443  13.464
66924W        W32085   6.867  34.088  13.634
66925W        W32086  39.771  38.130   3.253
66926W        W32087  33.177  39.003   1.916
66927W        W32088   6.913  30.554   0.169
66928W        W32089   4.960  17.352   2.375
66929W        W32090  41.650   0.556   4.167
66930W        W32091  35.484  31.113  13.621
66931W        W32092  14.374  24.190   3.620
66932W        W32093   3.645  16.559  14.709
66933W        W32094  22.868  43.249  10.521
66934W        W32095  17.645  10.764  12.371
66935W        W32096  16.277  42.932   1.698
66936W        W32097  30.469  13.269  13.417
66937W        W32098  21.209  16.859  11.963
66938W        W32099  35.261  14.777   4.571
66939W        W32100  24.133  40.492   3.525
66940W        W32101  33.379   2.083   4.064
66941W        W32102  13.716   5.909   1.318
66942W        W32103  23.342  20.726  14.481
66943W        W32104  36.047  18.735  14.866
66944W        W32105  42.795  44.816   4.126
66945W        W32106   9.937  32.564   0.739
66946W        W32107  25.873  15.047  13.011
66947W        W32108  28.248  15.293  14.526
66948W        W32109   6.900  38.778   4.087
66949W        W32110  36.903  14.125  11.891
66950W        W32111  22.471  18.993  11.180
66951W        W32112   9.118   5.981   4.355
66952W        W32113   2.212   5.694   3.480
66953W        W32114  17.227  31.481  10.658
66954W        W32115  41.831  41.912   3.324
66955W        W32116   7.583  28.187   1.464
66956W        W32117  31.002   6.181  10.745
66957W        W32118  28.478   8.020   3.241
66958W        W32119  31.879  27.568  13.529
66959W        W32120  17.034  33.095   1.283
66960W        W32121   0.771  12.323  12.274
66961W        W32122  26.740   7.388   2.111
66962W        W32123   3.500  21.459  11.556
66963W        W32124  16.083   8.030  11.516
66964W        W32125  22.315  41.812  12.687
66965W        W32126   8.193  32.579  14.023
66966W        W32127   7.637  43.965  11.562
66967W        W32128  26.255  28.365  11.525
66968W        W32129  30.956  10.150  11.492
66969W        W32130  31.369   7.893  11.270
66970W        W32131   4.127   9.189   2.332
66971W        W32132  25.073  25.715   4.121
66972W        W32133  26.373  30.039  11.169
66973W        W32134  18.048  32.639   4.075
66974W        W32135  40.528   8.761   3.267
66975W        W32136  41.771  16.387   0.063
66976W        W32137  29.668   2.800  12.550
66977W        W32138   4.298  28.476   3.684
66978W        W32139  21.780  10.359   2.836
66979W        W32140  28.738   7.620  10.718
66980W        W32141  34.877  15.125   3.503
66981W        W32142   7.319  27.259  10.642
66982W        W32143   9.207  21.632  13.054
66983W        W32144  35.634  40.858  10.738
66984W        W32145  38.129  24.510   0.343
66985W        W32146   6.683  12.284   2.399
66986W        W32147  40.604  23.008  13.440
66987W        W32148  29.453  37.972  11.028
66988W        W32149  36.403  21.034  14.072
66989W        W32150   2.863  37.332  13.506
66990W        W32151   6.045  31.758   3.110
66991W        W32152  23.076  38.817   0.941
66992W        W32153  17.698  24.057  14.804
66993W        W32154   3.542   7.859   3.367
66994W        W32155   7.879  21.198   4.692
66995W        W32156  17.628   5.810   3.121
66996W        W32157  31.757  15.854   1.148
66997W        W32158   9.117  38.962   0.220
66998W        W32159  42.507   9.828  12.592
66999W        W32160   5.980  27.996  14.080
67000W        W32161   6.928  39.401  12.701
67001W        W32162  37.318  16.746  13.097
67002W        W32163  35.241  37.381   0.266
67003W        W32164  30.213   5.816  14.979
67004W        W32165   1.311   0.973  11.959
67005W        W32166  36.846  27.117   0.917
67006W        W32167  33.894  34.072  10.687
67007W        W32168   1.973  25.103   4.136
67008W        W32169  30.905  35.048   3.251
67009W        W32170  44.333  35.996  13.655
67010W        W32171   4.151   6.753  14.853
67011W        W32172   4.688   6.303  14.339
67012W        W32173  28.179  35.069   4.545
67013W        W32174   6.755  37.425  11.752
67014W        W32175  44.970  43.594  11.481
67015W        W32176  39.400  11.844  12.061
67016W        W32177  10.358  23.271   1.765
67017W        W32178  10.185  40.969   4.632
67018W        W32179   0.267   9.203  14.696
67019W        W32180  17.631   9.920   2.647
67020W        W32181  14.708  37.415  14.320
67021W        W32182  15.187   4.818  13.078
67022W        W32183  21.269  11.781   3.335
67023W        W32184  12.673  41.970   4.287
67024W        W32185  31.167  24.581   5.009
67025W        W32186   7.328  29.889   2.276
67026W        W32187   3.855   4.359  10.793
67027W        W32188  24.734   9.682   3.279
67028W        W32189  15.134  17.600  10.754
67029W        W32190  42.594  20.638   2.473
67030W        W32191  14.667  27.558   2.789
67031W        W32192   8.345  16.237   2.668
67032W        W32193  39.282  43.935  11.080
67033W        W32194  31.552   3.215  11.670
67034W        W32195  14.135  15.150  14.722
67035W        W32196  40.552  16.323   3.669
67036W        W32197  28.663   2.861   1.212
67037W        W32198   8.244  41.262  14.935
67038W        W32199  40.636  26.890  11.582
67039W        W32200   7.858   8.825   1.755
67040W        W32201  39.445   8.704   0.571
67041W        W32202  18.072  35.472   4.119
67042W        W32203  21.241  44.105   2.832
67043W        W32204  31.643   1.687   1.389
67044W        W32205  18.515  39.007  12.387
67045W        W32206  31.824  28.521  14.379
67046W        W32207  37.546  17.084  11.248
67047W        W32208  15.711  23.712   4.339
67048W        W32209   8.087   2.463  11.129
67049W        W32210   8.155  22.693  14.747
67050W        W32211  23.661  31.966   0.430
67051W        W32212  17.548  18.670  11.057
67052W        W32213  31.949  44.198   1.029
67053W        W32214  40.255  11.241   3.726
67054W        W32215  31.922  32.220  12.515
67055W        W32216  36.168  41.182  12.906
67056W        W32217  34.953  27.125   4.671
67057W        W32218  36.492   7.110   2.293
67058W        W32219  39.839  21.966   3.634
67059W        W32220   5.007  26.213  12.535
67060W        W32221  13.540  34.660   4.128
67061W        W32222  29.490  38.779  12.751
67062W        W32223  25.750   5.691  13.341
67063W        W32224  23.656   0.586   4.855
67064W        W32225  38.609  25.683  10.673
67065W        W32226   9.229   9.246   0.838
67066W        W32227  26.516  37.824   0.040
67067W        W32228  12.788  33.542  12.630
67068W        W32229  23.426  31.759   4.423
67069W        W32230  18.985  39.571  14.581
67070W        W32231   2.328  16.357   2.725
67071W        W32232  36.946  29.237   3.357
67072W        W32233  36.551  19.020  14.018
67073W        W32234  34.655  41.005  14.814
67074W        W32235  16.742  39.764  12.072
67075W        W32236   7.837  22.688   0.639
67076W        W32237   6.703  22.100   3.661
67077W        W32238   6.648   6.122   3.245
67078W        W32239  43.508  25.907   3.742
67079W        W32240   7.882  13.892  12.030
67080W        W32241   9.793  26.772  12.041
67081W        W32242   1.065  26.618  12.802
67082W        W32243  33.276  36.235  13.837
67083W        W32244  13.323  31.561   0.347
67084W        W32245  39.838  40.933  14.834
67085W        W32246  23.621  28.431  12.392
67086W        W32247  11.303   1.334  13.572
67087W        W32248   2.909  41.895  13.523
67088W        W32249   4.811  29.163  10.744
67089W        W32250  33.365  22.916   1.940
67090W        W32251  42.522  42.886   1.333
67091W        W32252   7.163  44.915  14.334
67092W        W32253  42.329  14.764   3.646
67093W        W32254  28.673  34.468   2.289
67094W        W32255  43.379  20.507   1.720
67095W        W32256  32.422  30.257  12.087
67096W        W32257  26.718  32.310   4.123
67097W        W32258   8.524  42.548  12.424
67098W        W32259   3.855  28.543  14.519
67099W        W32260   9.421  17.249   3.189
67100W        W32261  39.969   7.774  12.328
67101W        W32262   8.337  40.367   4.887
67102W        W32263  32.029   3.094  11.487
67103W        W32264   2.778   8.680  14.946
67104W        W32265  18.248   2.913   4.477
67105W        W32266  24.545  26.566   2.776
67106W        W32267  13.650  11.301  10.779
67107W        W32268  15.575   4.922   2.213
67108W        W32269  31.071  32.622   2.342
67109W        W32270   7.522  13.209  10.880
67110W        W32271  12.629  15.272  13.507
67111W        W32272  29.987  37.929  10.974
67112W        W32273  36.475   9.697   4.229
67113W        W32274   8.710  30.883  11.534
67114W        W32275  15.778  26.504   1.277
67115W        W32276  34.326  24.082  11.371
67116W        W32277  17.149  26.757   3.227
67117W        W32278  43.527  13.396  12.496
67118W        W32279  21.133  35.924  14.989
67119W        W32280  16.987  36.543   3.740
67120W        W32281  37.878  24.252  12.137
67121W        W32282  11.345  28.386  13.709
67122W        W32283  39.341  24.683   3.370
67123W        W32284  12.303  14.564  12.260
67124W        W32285   4.615  25.002   3.068
67125W        W32286  14.907   4.212  11.526
67126W        W32287  15.678  17.082   2.203
67127W        W32288  44.697  36.120  11.909
67128W        W32289  30.098  24.440  13.497
67129W        W32290  11.170  14.528  14.575
67130W        W32291  28.027  40.710   2.809
67131W        W32292   6.812  30.948  10.613
67132W        W32293  13.623  14.531   0.406
67133W        W32294  36.627  42.970  13.029
67134W        W32295  35.426   1.361   4.356
67135W        W32296   1.672  36.896   0.865
67136W        W32297  23.152  40.085   2.259
67137W        W32298  32.547  21.794  13.577
67138W        W32299   1.343  22.787  12.042
67139W        W32300  25.216  42.240  11.486
67140W        W32301  13.762  43.259   4.106
67141W        W32302  40.771   7.211   3.575
67142W        W32303  37.810  38.960   4.243
67143W        W32304  21.490   9.324   4.638
67144W        W32305  40.958  25.005  14.459
67145W        W32306  37.561  27.654   4.035
67146W        W32307  14.764  26.698   1.320
67147W        W32308   0.707  13.957   2.437
67148W        W32309  19.071   8.051  14.208
67149W        W32310  32.921  15.147  12.951
67150W        W32311  35.151  10.248  11.451
67151W        W32312  24.936  27.589  12.493
67152W        W32313  43.235  38.158  11.553
67153W        W32314  41.834  38.741   1.382
67154W        W32315  34.147  23.139   4.397
67155W        W32316   1.548   1.392   0.505
67156W        W32317  41.920  10.169  13.801
67157W        W32318  32.770  31.402  12.471
67158W        W32319  15.621   4.021  10.594
67159W        W32320  37.059  43.253  10.926
67160W        W32321  17.605  34.687  14.361
67161W        W32322  28.842  44.085  13.785
67162W        W32323  28.130  44.809   0.763
67163W        W32324   6.235  23.925  11.083
67164W        W32325  41.055  16.275   3.712
67165W        W32326  29.879  24.225   2.318
67166W        W32327  22.046   7.735   0.453
67167W        W32328  25.602  30.080  12.987
67168W        W32329  21.702  15.035  12.992
67169W        W32330  40.261   0.105  14.074
67170W        W32331  30.034  37.956   0.466
67171W        W32332   9.853  34.074   4.404
67172W        W32333   9.924  40.422  14.425
67173W        W32334   8.303  41.221  14.064
67174W        W32335  30.068  14.766   4.093
67175W        W32336   4.867  42.934   2.308
67176W        W32337  16.123  41.405  13.380
67177W        W32338  14.101  42.155   2.810
67178W        W32339  33.898  13.573  12.511
67179W        W32340  41.228   2.721   4.148
67180W        W32341  41.198  22.562   4.837
67181W        W32342  21.693  20.580   4.656
67182W        W32343  28.720  39.112  10.744
67183W        W32344   1.425  30.027   3.991
67184W        W32345  26.835   7.379   1.183
67185W        W32346  19.267   3.666  13.221
67186W        W32347  38.188   3.349  14.527
67187W        W32348  35.053   5.418   1.422
67188W        W32349  38.366  23.477   1.228
67189W        W32350  29.001  41.967  12.569
67190W        W32351  32.662   2.598  10.962
67191W        W32352  41.389  39.393  11.998
67192W        W32353  40.560  41.968   1.675
67193W        W32354   0.829  39.349   2.873
67194W        W32355   5.186  23.207   3.314
67195W        W32356  18.319  23.674  12.571
67196W        W32357  16.023  14.140  14.676
67197W        W32358   4.488   9.853   3.544
67198W        W32359  35.399  25.113  12.030
67199W        W32360   7.635  12.118   0.933
67200W        W32361  24.926   0.836   2.684
67201W        W32362  42.949  23.558   2.164
67202W        W32363   2.216  42.800  11.145
67203W        W32364  15.127   3.184   4.585
67204W        W32365  10.356  16.372   2.289
67205W        W32366  26.370  21.140  14.830
67206W        W32367   9.372  42.053  13.900
67207W        W32368  39.821  41.768  11.851
67208W        W32369  37.104  33.495  13.017
67209W        W32370  38.416  39.937   1.640
67210W        W32371  17.130  12.926  11.222
67211W        W32372  21.152   9.214  13.108
67212W        W32373  27.976   1.925   3.750
67213W        W32374   8.741  29.666   2.455
67214W        W32375   5.807  21.498   2.671
67215W        W32376   2.957   1.778  11.377
67216W        W32377  19.380  17.248   4.074
67217W        W32378  12.107  40.992  11.957
67218W        W32379  14.965  36.822   2.736
67219W        W32380  43.764  15.751   1.209
67220W        W32381  19.692  25.187   0.717
67221W        W32382  39.303  10.278   4.778
67222W        W32383  25.943   7.072   4.202
67223W        W32384  21.341  33.905   4.294
67224W        W32385  12.931  25.927  14.528
67225W        W32386  18.079  31.896  11.154
67226W        W32387  39.081  17.484   2.723
67227W        W32388  20.698   8.650  10.723
67228W        W32389   0.488  13.172   1.748
67229W        W32390  14.305   7.671   3.953
67230W        W32391  34.892  14.925   4.249
67231W        W32392  19.338   7.491   4.412
67232W        W32393  39.703  27.502  12.056
67233W        W32394  40.645  37.810   0.213
67234W        W32395   6.889  43.752   3.382
67235W        W32396  38.724  16.730  11.110
67236W        W32397   6.887  23.475   4.579
67237W        W32398  17.395  19.128   1.743
67238W        W32399  15.152  29.510  14.994
67239W        W32400   0.300  26.246   4.150
67240W        W32401  15.828  22.966   1.284
67241W        W32402  17.332  30.420   2.349
67242W        W32403  10.869  25.985   4.294
67243W        W32404  32.416  13.602  11.217
67244W        W32405  11.095   1.710   3.728
67245W        W32406  41.578   5.266  11.966
67246W        W32407  10.705  22.525   2.098
67247W        W32408  28.421  13.197  14.927
67248W        W32409   9.397   2.468  14.508
67249W        W32410   5.205  18.687   0.695
67250W        W32411  26.154  41.397   3.749
67251W        W32412  44.771  26.529  11.689
67252W        W32413  17.218  36.364   4.177
67253W        W32414   1.745  17.925  14.460
67254W        W32415  24.917  35.976  13.531
67255W        W32416   9.678   0.487   1.181
67256W        W32417  18.764  15.749  14.999
67257W        W32418  20.315  23.530   0.927
67258W        W32419  18.110  16.963   2.818
67259W        W32420   3.787  37.965   0.790
67260W        W32421  18.403  37.841   0.405
67261W        W32422  30.643  41.973   3.680
67262W        W32423  10.204  18.492  14.414
67263W        W32424  36.981  36.830  11.556
67264W        W32425   6.092   6.707  11.653
67265W        W32426   7.327   8.724  11.184
67266W        W32427  33.777  33.605   2.656
67267W        W32428  10.343  23.013   3.960
67268W        W32429  29.103   2.371  12.466
67269W        W32430  32.819  30.458  13.318
67270W        W32431  11.244  21.726  14.947
67271W        W32432  31.326  15.184   3.305
67272W        W32433   0.171  15.375  12.991
67273W        W32434  44.793  33.446   4.097
67274W        W32435  40.025  39.542   2.204
67275W        W32436  29.065   8.085   1.762
67276W        W32437  14.660  36.515  11.547
67277W        W32438   1.387   3.293  13.399
67278W        W32439  13.693  35.124   3.278
67279W        W32440   2.907  28.002  13.304
67280W        W32441   9.674  20.496  12.635
67281W        W32442  39.271  26.545   3.714
67282W        W32443  22.049  31.461  12.009
67283W        W32444  23.008  12.903  14.829
67284W        W32445   3.885  13.443  13.066
67285W        W32446  18.991   1.731  13.021
67286W        W32447  22.562   0.417   1.995
67287W        W32448  13.560   2.377  12.959
67288W        W32449  30.777   8.043   3.640
67289W        W32450  15.064  26.090   0.344
67290W        W32451  11.363  32.215   3.727
67291W        W32452   3.227  26.756   4.998
67292W        W32453   1.433   5.391  10.694
67293W        W32454  32.614  29.107   3.618
67294W        W32455  26.739  44.857   3.169
67295W        W32456  38.572  41.962   0.367
67296W        W32457  19.979  23.154   1.046
67297W        W32458  43.508   9.800  10.581
67298W        W32459  41.418  29.938  11.677
67299W        W32460   0.309   9.894  11.073
67300W        W32461  44.291  37.821   2.218
67301W        W32462  40.389  41.462   0.846
67302W        W32463  23.971  41.475  14.445
67303W        W32464  37.315   0.886  10.542
67304W        W32465  31.410  20.080  10.628
67305W        W32466  20.638  33.376  14.899
67306W        W32467  40.812  12.161   0.678
67307W        W32468  22.697  31.096  11.421
67308W        W32469  29.644  24.828  10.875
67309W        W32470   5.723  24.983  12.515
67310W        W32471  44.055  35.386   2.444
67311W        W32472  44.943  31.653  14.525
67312W        W32473  21.165  20.683   4.595
67313W        W32474   7.272  11.297  12.790
67314W        W32475  35.436  43.513  11.999
67315W        W32476  41.769  33.426   2.092
67316W        W32477  29.562   5.713   4.210
67317W        W32478   7.135  39.405   0.985
67318W        W32479   9.889  35.688  11.084
67319W        W32480  26.594  21.711  12.644
67320W        W32481  41.123  18.720   1.698
67321W        W32482  10.940   4.226  13.881
67322W        W32483  22.491   2.927  13.514
67323W        W32484  21.746   6.318  11.565
67324W        W32485  27.650  38.961  14.464
67325W        W32486  10.163   2.948  11.716
67326W        W32487  21.528  15.196   2.677
67327W        W32488  41.947  20.248  10.789
67328W        W32489  28.908   3.872  11.496
67329W        W32490   7.356  39.801   1.326
67330W        W32491  39.825  22.111  11.983
67331W        W32492  33.664  19.845  11.183
67332W        W32493  18.210   6.264  12.895
67333W        W32494  11.877  27.895   2.777
67334W        W32495  29.709   9.850   3.426
67335W        W32496  10.357  30.795  11.851
67336W        W32497  33.592   1.720   4.396
67337W        W32498  27.135  15.201  14.388
67338W        W32499  13.065   6.717   2.921
67339W        W32500  30.446  33.878  12.234
67340W        W32501  43.796  29.951   0.834
67341W        W32502   7.607  41.033   2.780
67342W        W32503   4.923   3.260   3.709
67343W        W32504  34.989  38.070   3.969
67344W        W32505  18.856  12.176   4.676
67345W        W32506   2.824  15.656  12.899
67346W        W32507   7.692  37.015  10.482
67347W        W32508  15.710   1.055   2.895
67348W        W32509  44.221  32.133  13.400
67349W        W32510  41.762  15.043   1.368
67350W        W32511  42.382  42.071   1.656
67351W        W32512   9.728  24.048  14.717
67352W        W32513   7.382  13.570   0.769
67353W        W32514   4.740   4.682   3.456
67354W        W32515  15.716  42.998  10.882
67355W        W32516   4.202  13.860   3.245
67356W        W32517  32.590  12.253  12.907
67357W        W32518   2.143  37.449  14.116
67358W        W32519  31.169  12.109  13.173
67359W        W32520   2.345  28.421  14.452
67360W        W32521   6.315   8.208   0.694
67361W        W32522  21.150  44.275   2.185
67362W        W32523  37.571  24.720   1.675
67363W        W32524  35.970   3.280  14.334
67364W        W32525  44.184  35.034  11.104
67365W        W32526  24.432  33.043   2.353
67366W        W32527   5.986  39.613  14.923
67367W        W32528  40.760  22.148   1.536
67368W        W32529   7.185  31.017   0.845
67369W        W32530  29.731   8.237   0.965
67370W        W32531  41.000  18.232  11.591
67371W        W32532  41.482  22.228   3.479
67372W        W32533   9.249  15.526  13.323
67373W        W32534  36.182   9.787  13.855
67374W        W32535  26.566  25.632  11.108
67375W        W32536  34.278  21.881  10.183
67376W        W32537   2.986  40.475   0.383
67377W        W32538  30.104   9.128  13.089
67378W        W32539   0.728  27.414   1.339
67379W        W32540  19.162  34.378  12.870
67380W        W32541  26.797  34.929  12.434
67381W        W32542  36.373   8.795   0.880
67382W        W32543  23.548  38.607  11.701
67383W        W32544  30.977  44.407  13.325
67384W        W32545  41.834  38.788   0.497
67385W        W32546  28.733   0.806   3.065
67386W        W32547  41.868  20.285   2.415
67387W        W32548  36.511  32.878  12.973
67388W        W32549   4.406   6.700   1.850
67389W        W32550  12.209   3.026   1.672
67390W        W32551  14.307  11.658   3.721
67391W        W32552  18.401  38.020  12.871
67392W        W32553  25.620  44.647  14.955
67393W        W32554  23.616   4.894   2.596
67394W        W32555  11.247  36.353  11.892
67395W        W32556  19.357  44.263   1.745
67396W        W32557   6.772   2.389  14.985
67397W        W32558  20.159  38.736   1.885
67398W        W32559  12.836  34.912  11.569
67399W        W32560  18.149  17.112  13.912
67400W        W32561   9.331  10.007  14.739
67401W        W32562  30.087  30.437  10.573
67402W        W32563   4.697   1.409  13.916
67403W        W32564  22.218  42.468   4.633
67404W        W32565  16.867  18.473   4.546
67405W        W32566  19.828  18.466   0.744
67406W        W32567   8.167  41.076   4.562
67407W        W32568  28.009   2.914   2.334
67408W        W32569  36.422  35.508   2.714
67409W        W32570  43.476  32.610   4.189
67410W        W32571   6.338   8.595   0.282
67411W        W32572  15.131  38.255   3.770
67412W        W32573  19.799  34.683  12.794
67413W        W32574  36.840  17.205   4.016
67414W        W32575   4.540   0.326  13.085
67415W        W32576  24.107  42.648   4.941
67416W        W32577   5.328  16.027  11.080
67417W        W32578  33.138  28.340   2.626
67418W        W32579   4.466  14.953   4.111
67419W        W32580   5.017  24.711  11.992
67420W        W32581  18.572  10.929  10.773
67421W        W32582  40.291  18.657   0.205
67422W        W32583  39.916  38.611   3.205
67423W        W32584  11.220  18.035  11.544
67424W        W32585   4.268   7.297  10.435
67425W        W32586  29.000  18.085  12.874
67426W        W32587  28.743  15.190   4.735
67427W        W32588   0.721   3.381  14.100
67428W        W32589  33.604  22.769  13.019
67429W        W32590  35.529  19.929  12.515
67430W        W32591  31.954  20.988   4.234
67431W        W32592  39.153  24.010  10.621
67432W        W32593  22.020  14.260   1.267
67433W        W32594  41.548  31.837  13.936
67434W        W32595   8.771  35.156  11.228
67435W        W32596  37.239  14.541  13.012
67436W        W32597  26.718   7.322   0.681
67437W        W32598   6.418  19.622   2.623
67438W        W32599  10.736  42.090  14.509
67439W        W32600  42.519  30.585  12.883
67440W        W32601  26.007  12.605   0.205
67441W        W32602   2.371   7.880  12.086
67442W        W32603   1.467  12.795  11.151
67443W        W32604  32.415  24.135  14.421
67444W        W32605  34.889  20.108   2.773
67445W        W32606  32.849  28.708   4.318
67446W        W32607   6.378  19.512   0.828
67447W        W32608  10.969  17.092   3.540
67448W        W32609  11.842  21.140   4.095
67449W        W32610   6.201  11.723  13.867
67450W        W32611  29.521  37.860  10.523
67451W        W32612  30.792  20.174  10.113
67452W        W32613   4.122  20.713  12.011
67453W        W32614  30.033  34.562   4.288
67454W        W32615  27.075   9.490   0.404
67455W        W32616  29.027  28.484   3.117
67456W        W32617  35.976  16.476  12.465
67457W        W32618  28.172  31.730   4.137
67458W        W32619  20.781  12.608   3.858
67459W        W32620  44.014  21.264   9.880
67460W        W32621  11.810  17.816  12.025
67461W        W32622  39.867  39.849  11.537
67462W        W32623  38.371  29.925  10.714
67463W        W32624  29.218  21.059   3.036
67464W        W32625  12.306   0.199  14.840
67465W        W32626  18.591  42.908   4.308
67466W        W32627  36.363   6.836  11.611
67467W        W32628  28.109   7.267  14.904
67468W        W32629  27.969  15.524   3.295
67469W        W32630  36.568  37.477  14.933
67470W        W32631  42.389  32.478   0.705
67471W        W32632  21.789   8.614  13.247
67472W        W32633  31.691   4.434  11.974
67473W        W32634  12.166  13.166   4.565
67474W        W32635  26.005  23.512   3.074
67475W        W32636  20.961   7.802   3.772
67476W        W32637  12.888  15.077   3.666
67477W        W32638  29.929  16.672   4.685
67478W        W32639  14.220  22.238  10.393
67479W        W32640  35.987  40.534  13.604
67480W        W32641  12.879  33.179  13.044
67481W        W32642  16.191   1.380  12.923
67482W        W32643  20.976  15.623   2.370
67483W        W32644  19.998  19.525   1.671
67484W        W32645  24.792  40.514  12.119
67485W        W32646  17.810   0.029  14.177
67486W        W32647  26.582  36.592   3.757
67487W        W32648  44.935  12.555  14.187
67488W        W32649  38.297  33.952   4.246
67489W        W32650  15.300  40.959  13.202
67490W        W32651  18.536  44.119   1.165
67491W        W32652  25.463  18.577  13.926
67492W        W32653  29.933  33.935  13.017
67493W        W32654  10.857  40.039  14.436
67494W        W32655  18.482   9.356  13.617
67495W        W32656   4.872  38.467  12.060
67496W        W32657   2.042  27.800   9.952
67497W        W32658  33.558  14.842   4.101
67498W        W32659   6.496  15.312   1.332
67499W        W32660   0.411  30.682   1.685
67500W        W32661  29.229   8.380   0.816
67501W        W32662  26.239  32.162  14.697
67502W        W32663  35.114  21.065  14.876
67503W        W32664  11.949   6.902  12.140
67504W        W32665  43.763  11.298   2.404
67505W        W32666  22.672   5.706  10.746
67506W        W32667  38.021  24.230   3.678
67507W        W32668   2.421   7.782   3.252
67508W        W32669  12.340   0.446   3.199
67509W        W32670  36.425  25.548   4.868
67510W        W32671  16.620  21.065   3.220
67511W        W32672  23.438  12.224  14.597
67512W        W32673  14.643   5.331   2.349
67513W        W32674   7.101   3.950  12.539
67514W        W32675  23.212  34.722   2.421
67515W        W32676  19.093  18.835   0.388
67516W        W32677  28.091   0.525   2.272
67517W        W32678   7.933  34.366  13.985
67518W        W32679  36.874  43.506   0.038
67519W        W32680  17.617  28.301   2.823
67520W        W32681  29.642   7.672  10.712
67521W        W32682  35.142  23.498   2.761
67522W        W32683  38.849  12.459   1.986
67523W        W32684  25.587  37.245  10.324
67524W        W32685  21.677  18.575   0.722
67525W        W32686   4.507   0.946   0.770
67526W        W32687  25.483  13.281   4.235
67527W        W32688  37.087  38.059  13.570
67528W        W32689  30.818  16.753   3.084
67529W        W32690  28.430   2.942   3.233
67530W        W32691  19.934  17.186   3.200
67531W        W32692  26.791  27.734  12.585
67532W        W32693  17.177  31.204  12.853
67533W        W32694  40.851  32.651   4.026
67534W        W32695   6.410   8.870   0.735
67535W        W32696  30.814  26.340  10.352
67536W        W32697  15.225  10.209   2.778
67537W        W32698   4.373  19.944  11.717
67538W        W32699  24.542  18.530  13.530
67539W        W32700   4.840  30.437   5.039
67540W        W32701   1.740  38.426   1.240
67541W        W32702   6.399  38.422   1.303
67542W        W32703   1.290  37.830   2.783
67543W        W32704  12.746  35.646  13.793
67544W        W32705   7.722   6.225   2.732
67545W        W32706  25.491   5.232  12.627
67546W        W32707  42.387   7.440   1.167
67547W        W32708  17.287   2.830  13.001
67548W        W32709   5.000  37.321  14.962
67549W        W32710  24.768  42.850   2.361
67550W        W32711  28.075  10.417   0.430
67551W        W32712  29.285  13.239  14.769
67552W        W32713  37.087  36.067  11.069
67553W        W32714  37.446  36.066  13.592
67554W        W32715   1.720  38.139   3.397
67555W        W32716  39.362  42.090  10.576
67556W        W32717  37.543  42.013   1.815
67557W        W32718   6.243  27.643   4.561
67558W        W32719   5.083  17.535  12.105
67559W        W32720   5.538  40.086  13.450
67560W        W32721  16.008  22.824  14.054
67561W        W32722  26.951   0.314   2.745
67562W        W32723  23.729  16.245  13.525
67563W        W32724  11.182  14.032   5.095
67564W        W32725   3.671  29.022   0.286
67565W        W32726  26.740   9.224  12.011
67566W        W32727  24.602  34.096   4.529
67567W        W32728   2.716  16.571   0.939
67568W        W32729   4.850  32.875  11.568
67569W        W32730  17.756   6.669   3.498
67570W        W32731  24.297  31.850  13.575
67571W        W32732  10.700  23.641   3.234
67572W        W32733   2.332  31.565   1.021
67573W        W32734   2.832  18.490   3.185
67574W        W32735   2.708  27.035   4.714
67575W        W32736  43.035  28.333  11.131
67576W        W32737   8.515  44.779  10.563
67577W        W32738   5.356   6.482  13.952
67578W        W32739   7.288  36.560   1.022
67579W        W32740  13.689  20.280  10.557
67580W        W32741  20.681  18.257  12.711
67581W        W32742  31.304  35.582  12.219
67582W        W32743  36.518  15.592  11.207
67583W        W32744   0.755  41.845  12.915
67584W        W32745  19.114  34.948  13.392
67585W        W32746  19.382  28.571  12.001
67586W        W32747  18.769  12.401  14.811
67587W        W32748  28.612  37.545  13.449
67588W        W32749  24.733  18.602   3.799
67589W        W32750  24.051  18.700   3.229
67590W        W32751  27.584  28.617   1.241
67591W        W32752  37.669  17.065   2.850
67592W        W32753  35.063  21.183   4.818
67593W        W32754  44.816  41.349  13.215
67594W        W32755   7.578  25.824   3.624
67595W        W32756  29.143  43.017  14.761
67596W        W32757   3.113   2.023   1.834
67597W        W32758  21.548   8.460  14.406
67598W        W32759   7.054  23.188   0.316
67599W        W32760   5.852  10.638   1.870
67600W        W32761   2.567  35.369   4.548
67601W        W32762   9.215  27.384   5.517
67602W        W32763  42.270  32.559  10.588
67603W        W32764  44.253  35.815  11.713
67604W        W32765  11.282  43.240  13.352
67605W        W32766  40.686  32.278  11.861
67606W        W32767  31.205  10.616   3.962
67607W        W32768  44.697  30.567   9.709
67608W        W32769  28.357  29.805   1.214
67609W        W32770  15.989  38.843  12.896
67610W        W32771  10.687  29.002  14.804
67611W        W32772  15.147  32.905  13.455
67612W        W32773   3.394  16.640  13.191
67613W        W32774  27.127  34.335   1.865
67614W        W32775  40.375  29.381   5.018
67615W        W32776  15.003  44.334   0.249
67616W        W32777  10.421  11.774  10.321
67617W        W32778   0.629  15.572  12.969
67618W        W32779  31.588  16.290   2.693
67619W        W32780   2.406  33.414   1.442
67620W        W32781  40.976  29.215  14.551
67621W        W32782  35.502  26.420   1.744
67622W        W32783  29.753  29.845   1.770
67623W        W32784  15.262  14.559  14.869
67624W        W32785   1.748   7.360   2.713
67625W        W32786  11.086  11.573  14.230
67626W        W32787  24.832  37.573  12.966
67627W        W32788  20.772   4.770   4.884
67628W        W32789  38.455  24.704  12.581
67629W        W32790   0.722  30.348  12.883
67630W        W32791  41.555  27.580  13.979
67631W        W32792   0.269  15.840   0.009
67632W        W32793  13.075   2.709  14.345
67633W        W32794  29.933  33.110   2.759
67634W        W32795  29.885  24.579   1.205
67635W        W32796  41.073   1.983  11.544
67636W        W32797  17.835  30.248  12.390
67637W        W32798   4.198  36.179   4.166
67638W        W32799  28.035   7.741   3.187
67639W        W32800   1.352  41.150  12.797
67640W        W32801  10.763   2.025  13.000
67641W        W32802  32.115  22.481   2.266
67642W        W32803  17.446  14.477  11.975
67643W        W32804  36.757  31.359  12.372
67644W        W32805  32.540   9.290   4.435
67645W        W32806  26.300  11.771  11.891
67646W        W32807  18.516  38.859  10.820
67647W        W32808  22.044  18.217   1.475
67648W        W32809  34.461  22.064   3.299
67649W        W32810  20.742  21.600   0.892
67650W        W32811  39.980  26.279  11.829
67651W        W32812  20.017  23.599   2.330
67652W        W32813  25.574  41.340  10.269
67653W        W32814  32.463  34.473   2.921
67654W        W32815  32.072  16.673   2.763
67655W        W32816  36.608  15.845   0.827
67656W        W32817  34.878  31.908   1.137
67657W        W32818  26.707  23.812   0.379
67658W        W32819  40.996  37.088  14.765
67659W        W32820  18.231   8.396  14.780
67660W        W32821   3.262  29.580  13.812
67661W        W32822  34.859  15.707  12.041
67662W        W32823  28.446  22.438   3.224
67663W        W32824   6.126  21.925  11.139
67664W        W32825   1.226   9.229  13.554
67665W        W32826  10.853   8.670  13.000
67666W        W32827  38.420  14.034   1.276
67667W        W32828   0.666  31.914   1.826
67668W        W32829  18.027   4.087   2.298
67669W        W32830  41.305  30.368  14.928
67670W        W32831  29.636  32.571  12.902
67671W        W32832   8.469  31.377  14.263
67672W        W32833  34.704  22.073   5.252
67673W        W32834  32.579   1.835  13.125
67674W        W32835  19.767  35.408  14.064
67675W        W32836   2.771  29.616  13.327
67676W        W32837   2.854  30.150   2.607
67677W        W32838  21.619   3.803  12.438
67678W        W32839  37.917  32.916  13.965
67679W        W32840  22.312  17.650   0.859
67680W        W32841   1.591  34.863  13.395
67681W        W32842   6.370  38.345  13.578
67682W        W32843  38.276   1.224  14.998
67683W        W32844  37.988  25.317   3.205
67684W        W32845   2.773  31.911   0.908
67685W        W32846  14.228  44.248  14.286
67686W        W32847  33.920  29.039   3.237
67687W        W32848  29.643   9.655   0.482
67688W        W32849  40.291  13.112   2.670
67689W        W32850  44.839  13.031  12.601
67690W        W32851  34.057   6.691  11.165
67691W        W32852  38.307   8.150   4.568
67692W        W32853  24.545   6.655  14.928
67693W        W32854  12.218   1.876  12.621
67694W        W32855  25.710  17.755  14.216
67695W        W32856  34.519   8.706  12.866
67696W        W32857  38.937  29.293  13.752
67697W        W32858  25.475   4.320  14.007
67698W        W32859  24.341  18.304  14.524
67699W        W32860  43.262  14.179   4.242
67700W        W32861  39.101  39.062   3.848
67701W        W32862  28.613  13.622  11.232
67702W        W32863  43.405  38.975  14.370
67703W        W32864  41.099  39.356   0.220
67704W        W32865  20.071  41.511  11.253
67705W        W32866  30.079  21.634   9.884
67706W        W32867  24.718  44.723   3.163
67707W        W32868  23.286  19.333   0.871
67708W        W32869   8.912  26.692  12.034
67709W        W32870  27.373  27.103   2.715
67710W        W32871   8.217   3.238  10.676
67711W        W32872  43.489  24.381  11.342
67712W        W32873  24.308  23.000  10.275
67713W        W32874  38.221  23.822   4.453
67714W        W32875  31.725   5.467   2.266
67715W        W32876   2.448   2.947   2.614
67716W        W32877   3.783  11.155  12.878
67717W        W32878  13.280  18.153   1.480
67718W        W32879  38.137   2.463   3.044
67719W        W32880  26.938  42.913   1.410
67720W        W32881   5.500  14.746  12.536
67721W        W32882   1.850  26.396   4.572
67722W        W32883  25.294  32.588   3.905
67723W        W32884  18.488  18.710   3.113
67724W        W32885  42.950  14.661  10.519
67725W        W32886  43.092  43.438   0.263
67726W        W32887  26.086  40.908   5.015
67727W        W32888  26.130  44.959  12.411
67728W        W32889  20.526  39.960  13.591
67729W        W32890  36.052  17.658  13.793
67730W        W32891  14.913  18.360  10.685
67731W        W32892  10.729  19.764  11.954
67732W        W32893  11.119  14.817  11.663
67733W        W32894  40.572  34.805   2.275
67734W        W32895  21.429   7.123  13.474
67735W        W32896   8.103   7.343   3.143
67736W        W32897   6.294  32.415  13.501
67737W        W32898  18.305  35.128  12.944
67738W        W32899  44.084  29.022   3.257
67739W        W32900  28.410  28.188   3.575
67740W        W32901  15.186  36.496  11.552
67741W        W32902  28.667   1.503   4.730
67742W        W32903  29.386   3.561  13.009
67743W        W32904  41.153  15.827  11.155
67744W        W32905  30.668  44.808   0.905
67745W        W32906  26.965  26.088   4.185
67746W        W32907  13.829   4.440  14.249
67747W        W32908  13.690  31.044   4.600
67748W        W32909  19.322   4.302   4.132
67749W        W32910   6.242   5.836   2.193
67750W        W32911  17.626  24.056   0.775
67751W        W32912   4.334   4.361   3.545
67752W        W32913  23.081  36.294   3.128
67753W        W32914  20.074   1.764  11.634
67754W        W32915  27.342  14.257   0.458
67755W        W32916  36.171   9.309   1.827
67756W        W32917  13.254  17.367   0.002
67757W        W32918  25.728   0.311  12.167
67758W        W32919  10.316  19.190  14.875
67759W        W32920  14.672  33.073  14.113
67760W        W32921  16.807  28.466  13.454
67761W        W32922  35.212  13.683   1.818
67762W        W32923   6.242  39.512  13.989
67763W        W32924  35.947  35.649   2.387
67764W        W32925  12.265   6.727   4.494
67765W        W32926   9.830  38.090   3.254
67766W        W32927   9.306  13.259   0.893
67767W        W32928  15.048   9.911  14.864
67768W        W32929  27.980  32.092   0.699
67769W        W32930  23.510   4.978  10.993
67770W        W32931  25.165  41.764  12.382
67771W        W32932   5.826  11.868  14.551
67772W        W32933   9.072   3.986   0.263
67773W        W32934  26.664  20.103   3.673
67774W        W32935   7.423  23.164   2.658
67775W        W32936  32.521  32.134  12.032
67776W        W32937  41.741   0.806   1.358
67777W        W32938  32.884  12.288   0.787
67778W        W32939  12.293  31.034   0.230
67779W        W32940   2.898  43.828  12.464
67780W        W32941  14.629  25.092  12.948
67781W        W32942  21.799  25.469  14.555
67782W        W32943  14.486   5.687  13.398
67783W        W32944  30.657  27.900  14.901
67784W        W32945  26.133  41.997   1.637
67785W        W32946  19.777   3.955   0.337
67786W        W32947  19.163  37.115   2.679
67787W        W32948   4.722  22.914  12.635
67788W        W32949  22.279   2.021   2.910
67789W        W32950   3.177  39.892   2.235
67790W        W32951   1.494  27.692  11.395
67791W        W32952  36.985   1.646   1.638
67792W        W32953  17.723  36.355  11.130
67793W        W32954  25.588  44.266  11.494
67794W        W32955  27.448  37.313  14.869
67795W        W32956  41.323  15.856   1.175
67796W        W32957  13.351   2.042   2.560
67797W        W32958   9.703  12.338  13.095
67798W        W32959  33.992   8.635  11.426
67799W        W32960  10.051   7.887   0.833
67800W        W32961  20.642  13.102   3.770
67801W        W32962  19.280  14.779  13.823
67802W        W32963  10.384  26.688   3.865
67803W        W32964  41.041  11.937   1.340
67804W        W32965  14.897  39.394   5.164
67805W        W32966  14.691  10.132   2.768
67806W        W32967  41.835  33.110  13.634
67807W        W32968  15.848  14.217  14.081
67808W        W32969  21.982  40.510  12.334
67809W        W32970  34.392  11.130  14.888
67810W        W32971  13.143  43.326  14.364
67811W        W32972  39.947   8.628   4.736
67812W        W32973  18.202  41.609  14.485
67813W        W32974  28.605   1.005   4.582
67814W        W32975  13.577  38.768   4.150
67815W        W32976  17.073   8.217  13.048
67816W        W32977   5.623  40.005  14.954
67817W        W32978  13.465  22.517  11.659
67818W        W32979  28.907  44.505  12.583
67819W        W32980   9.152   1.311   0.909
67820W        W32981  22.050  40.576   4.313
67821W        W32982  14.279  37.361   0.016
67822W        W32983  41.801  22.675   4.090
67823W        W32984  30.266   9.439  12.132
67824W        W32985  22.480   6.508   0.392
67825W        W32986   2.524   0.238   0.486
67826W        W32987  19.980  43.193  14.603
67827W        W32988  34.616  10.451   4.117
67828W        W32989  13.875  43.017  14.272
67829W        W32990   0.367   9.278   0.194
67830W        W32991  18.215  39.837   1.710
67831W        W32992  34.594  18.044   4.622
67832W        W32993  35.538  38.902  11.636
67833W        W32994   5.836  43.549  12.822
67834W        W32995  13.699  40.887   5.093
67835W        W32996  15.875  32.062   0.675
67836W        W32997  43.579  41.297   2.823
67837W        W32998  13.162  31.580  10.659
67838W        W32999   9.656  23.263   2.577
67839W        W33000  26.055  41.143  10.362
67840W        W33001  37.997   4.537  11.488
67841W        W33002   4.176  16.476  10.063
67842W        W33003  22.279   4.673   3.207
67843W        W33004  11.429  38.413  11.547
67844W        W33005  12.853   4.306   1.154
67845W        W33006  10.877  44.501   2.612
67846W        W33007  19.548  37.656   0.706
67847W        W33008  14.014  39.572   5.491
67848W        W33009  24.137  24.458   1.372
67849W        W33010  12.316  43.526   2.606
67850W        W33011   8.130  40.026   4.565
67851W        W33012  24.604   0.725   2.019
67852W        W33013  35.369   7.808   3.686
67853W        W33014  19.713  40.279   4.104
67854W        W33015  13.680  36.120   3.371
67855W        W33016  14.306  14.343  14.052
67856W        W33017  35.154   9.577   3.918
67857W        W33018  28.946  33.920   2.364
67858W        W33019  24.598  42.352   1.706
67859W        W33020   1.071  31.797  14.308
67860W        W33021  20.183   9.666  13.803
67861W        W33022  25.062  36.562   5.371
67862W        W33023   8.884   9.144   4.677
67863W        W33024  22.460   7.802  12.036
67864W        W33025   5.890   0.292  14.077
67865W        W33026  21.348  27.706   0.319
67866W        W33027  33.733  17.558  13.279
67867W        W33028  41.917  30.110  10.975
67868W        W33029  29.650   2.201  13.489
67869W        W33030   0.219  21.912   3.792
67870W        W33031   7.007   3.014   1.067
67871W        W33032   4.197  15.563  10.810
67872W        W33033  17.967  15.192  13.832
67873W        W33034  36.300   4.907  12.549
67874W        W33035  37.971   7.195   3.697
67875W        W33036  35.513   9.437   0.334
67876W        W33037  41.791   4.426   0.474
67877W        W33038  31.568  44.357   4.153
67878W        W33039  15.966  18.836   3.766
67879W        W33040  31.117  36.195  13.806
67880W        W33041  17.581  30.105  13.267
67881W        W33042  10.949   9.746  14.041
67882W        W33043   5.703   6.701   3.241
67883W        W33044   8.897   0.514   3.568
67884W        W33045  11.094  31.444   4.163
67885W        W33046  13.291  16.812  12.024
67886W        W33047  31.614  38.345   2.332
67887W        W33048  43.465   7.235   1.961
67888W        W33049  41.513  11.320   0.448
67889W        W33050  19.657  10.561   3.385
67890W        W33051  44.853  19.818  13.074
67891W        W33052   6.783  39.517   0.589
67892W        W33053  17.711  26.663   4.955
67893W        W33054  29.358  28.670   3.759
67894W        W33055   5.321  29.872  11.186
67895W        W33056   7.373  23.439  10.339
67896W        W33057  44.511  19.274  13.498
67897W        W33058   3.965  19.785   5.332
67898W        W33059   3.480  28.500   3.596
67899W        W33060  26.653  38.994  13.022
67900W        W33061  34.515   2.011   0.661
67901W        W33062  30.666  35.383   2.398
67902W        W33063  43.755  37.802  14.515
67903W        W33064   2.776  28.211  12.846
67904W        W33065   6.372   9.032  12.582
67905W        W33066  38.885  43.836   0.603
67906W        W33067  10.340  29.569   3.658
67907W        W33068  30.810  24.678   1.183
67908W        W33069   7.349   1.340   0.377
67909W        W33070  35.995  38.823   5.056
67910W        W33071  36.008  21.002   4.257
67911W        W33072  13.393   4.076   3.124
67912W        W33073  40.873  35.353   9.672
67913W        W33074   9.576  12.169  10.697
67914W        W33075   1.623  30.310   0.004
67915W        W33076  35.904  10.939  13.463
67916W        W33077  26.520  15.983  12.444
67917W        W33078   5.811  43.733   3.149
67918W        W33079   3.708  20.738  11.061
67919W        W33080  26.994   2.579  14.746
67920W        W33081  44.555  28.092  14.343
67921W        W33082  33.374  29.627  11.683
67922W        W33083  19.476  28.059   2.363
67923W        W33084  26.702  32.529   3.523
67924W        W33085  38.063   8.698  11.614
67925W        W33086   2.918  17.511  13.502
67926W        W33087  42.887   6.226  10.570
67927W        W33088  14.128  25.567  14.781
67928W        W33089  29.530  27.236   0.206
67929W        W33090  38.851  41.992   4.444
67930W        W33091  40.962  14.237   1.693
67931W        W33092  25.679  27.986  10.785
67932W        W33093   1.129  16.691  12.065
67933W        W33094  33.312  27.952  14.775
67934W        W33095  39.603  39.908   2.136
67935W        W33096   4.594  30.880  14.375
67936W        W33097  17.757  42.920  13.919
67937W        W33098  12.791  25.509  10.778
67938W        W33099  31.514   8.807   3.248
67939W        W33100  39.538  34.389  14.457
67940W        W33101  29.505  28.079   3.279
67941W        W33102  21.198  43.657  14.396
67942W        W33103   3.760  33.870  13.892
67943W        W33104  37.642  21.445   2.736
67944W        W33105  35.530  17.066   4.555
67945W        W33106   0.552  41.954  13.857
67946W        W33107   7.400  30.891  11.173
67947W        W33108  39.946   1.029   1.781
67948W        W33109   7.854  31.163   3.858
67949W        W33110  30.935  13.780   4.064
67950W        W33111   9.623  13.642   2.144
67951W        W33112  20.715  12.804   0.706
67952W        W33113   3.034  27.336   3.189
67953W        W33114   8.662   2.796   4.832
67954W        W33115  29.508  43.468   0.520
67955W        W33116  32.435   6.504  11.770
67956W        W33117  36.583  21.348  10.295
67957W        W33118  25.556  28.587  13.972
67958W        W33119  23.583   5.846  12.163
67959W        W33120   8.779   2.112  11.585
67960W        W33121  21.282  42.374  12.107
67961W        W33122  18.222  19.420  12.894
67962W        W33123  42.548  34.897  12.179
67963W        W33124  26.490  22.973   2.734
67964W        W33125  10.852  25.075  11.174
67965W        W33126  22.280  14.162  11.010
67966W        W33127   8.887  42.902  12.359
67967W        W33128  35.678   3.509  12.932
67968W        W33129  34.380  44.464   3.609
67969W        W33130   6.950  22.187   3.199
67970W        W33131   6.235   4.249  11.831
67971W        W33132  12.879  26.397  11.210
67972W        W33133   0.335  28.549   0.540
67973W        W33134  19.770  40.729   3.872
67974W        W33135  13.766  43.830   0.313
67975W        W33136  22.499  34.602  12.434
67976W        W33137  25.270   0.871  14.028
67977W        W33138   9.577  20.713  14.984
67978W        W33139  36.812  14.851   3.290
67979W        W33140  20.539  19.649  13.055
67980W        W33141  21.068   3.462   1.911
67981W        W33142   8.146  35.035  14.106
67982W        W33143  41.202  33.070   4.140
67983W        W33144   1.851  11.384  11.113
67984W        W33145  37.170  27.085  11.652
67985W        W33146  23.937   1.837  12.817
67986W        W33147   9.258  13.332   2.899
67987W        W33148  15.546  30.021  12.436
67988W        W33149  32.907  13.829  11.142
67989W        W33150  12.763  30.812  12.471
67990W        W33151  13.502   2.912  10.631
67991W        W33152  25.952  34.051  12.828
67992W        W33153  11.822  42.479   4.571
67993W        W33154  43.414  26.307  12.322
67994W        W33155  31.162   3.219  12.066
67995W        W33156  22.188  27.394   1.186
67996W        W33157  43.525  30.230  11.164
67997W        W33158  32.210  13.812   2.767
67998W        W33159  31.006  24.177   4.683
67999W        W33160  36.107  31.515  13.369
68000W        W33161  20.743  32.063  10.120
68001W        W33162  39.560  32.369   9.988
68002W        W33163  37.105   2.023  14.867
68003W        W33164  38.801  32.810   0.398
68004W        W33165  22.658  41.598   0.910
68005W        W33166  32.047  29.605  12.266
68006W        W33167  29.589   4.602  14.938
68007W        W33168  25.895  27.090   1.947
68008W        W33169  43.489  28.017   1.272
68009W        W33170  32.867  33.790   1.306
68010W        W33171  25.064  20.579   2.369
68011W        W33172  17.776   9.703  13.380
68012W        W33173  20.215  10.286  12.755
68013W        W33174  17.086   5.345  14.826
68014W        W33175  32.503  36.177  14.783
68015W        W33176  41.496  18.282   2.920
68016W        W33177  28.576  30.959   0.026
68017W        W33178  38.585   0.937   1.820
68018W        W33179  33.005   5.134   0.414
68019W        W33180   3.487  36.489  11.140
68020W        W33181  14.408  17.149  13.011
68021W        W33182   0.325   6.309  14.014
68022W        W33183  41.722  12.762  12.458
68023W        W33184  28.194  19.243   3.235
68024W        W33185   8.101  24.080   3.685
68025W        W33186   0.259  32.423   3.609
68026W        W33187  35.290  10.235   2.131
68027W        W33188   9.818  40.889  12.395
68028W        W33189  27.526  28.075   3.248
68029W        W33190  42.079  43.049  14.477
68030W        W33191  43.443   8.521  11.229
68031W        W33192  18.365  31.060  11.581
68032W        W33193   2.462   9.386  11.027
68033W        W33194   5.112  15.226  10.516
68034W        W33195  33.554  43.620  13.408
68035W        W33196  23.538   6.499  14.884
68036W        W33197  28.521  28.638   1.811
68037W        W33198  40.837  20.959   0.579
68038W        W33199   8.617  20.948   3.173
68039W        W33200  16.772  21.122  14.002
68040W        W33201  35.353  36.824   1.217
68041W        W33202  27.350  27.719  12.436
68042W        W33203  33.867  37.249  13.571
68043W        W33204  37.099  24.107   3.287
68044W        W33205  33.580  13.652  13.770
68045W        W33206  19.890   5.225   1.433
68046W        W33207  19.099  19.668  12.618
68047W        W33208  37.910  14.282  11.194
68048W        W33209   8.472  29.214   4.557
68049W        W33210  35.588  31.617  12.058
68050W        W33211  29.381  34.536   1.716
68051W        W33212  44.946   2.679   1.730
68052W        W33213   0.549  17.861   0.849
68053W        W33214  14.860  28.447   0.865
68054W        W33215   3.574  15.783   1.730
68055W        W33216  11.682  21.623  13.533
68056W        W33217  28.250  14.210  12.928
68057W        W33218  23.011  16.331  14.238
68058W        W33219   9.439  18.378   1.646
68059W        W33220   0.810  16.631   1.022
68060W        W33221  11.630  16.194   0.853
68061W        W33222  26.469  36.743  12.483
68062W        W33223   7.185  21.059  12.536
68063W        W33224  41.914   3.414   1.333
68064W        W33225  10.630  22.793  11.171
68065W        W33226  30.139   7.369   1.115
68066W        W33227  44.431   2.547  12.492
68067W        W33228   7.170  17.977   3.711
68068W        W33229  24.688   5.198  11.596
68069W        W33230  35.390  27.435   2.603
68070W        W33231   7.376   0.923  12.904
68071W        W33232  24.458   1.868  12.851
68072W        W33233   4.105  12.739   5.062
68073W        W33234   7.802  38.604  14.505
68074W        W33235   9.002  32.086   2.649
68075W        W33236  16.789  18.539   2.690
68076W        W33237  18.292  44.948   1.011
68077W        W33238  13.072   8.894  12.018
68078W        W33239   0.910  44.807   4.556
68079W        W33240  34.133  22.259   1.700
68080W        W33241   2.317   7.945  13.525
68081W        W33242  16.243   1.265   4.183
68082W        W33243  20.660  15.375  14.926
68083W        W33244  35.731  18.631  11.146
68084W        W33245   9.411  16.771   4.179
68085W        W33246  32.565  24.365   2.827
68086W        W33247  26.504  25.514   4.698
68087W        W33248   4.676  11.968   1.537
68088W        W33249   6.617  21.785  10.994
68089W        W33250  19.801   2.083   2.688
68090W        W33251  25.714  31.080  11.187
68091W        W33252  10.685  41.737   3.372
68092W        W33253  18.647   2.096  14.332
68093W        W33254  22.225  18.010  12.580
68094W        W33255  32.962  36.866   4.469
68095W        W33256  21.001  25.169  13.389
68096W        W33257  24.322   6.075  10.064
68097W        W33258  39.997   6.313  13.505
68098W        W33259  27.136   3.822  12.036
68099W        W33260  40.010  40.946   3.926
68100W        W33261  30.579  27.926   4.630
68101W        W33262  21.475  28.909   3.605
68102W        W33263  40.761   3.476  12.491
68103W        W33264  23.855  12.135  14.879
68104W        W33265  42.418  34.836  11.679
68105W        W33266  41.909   9.112  12.412
68106W        W33267  32.178  14.726   4.420
68107W        W33268  20.532  42.791   1.598
68108W        W33269  26.942   2.932  10.694
68109W        W33270  39.874  35.077   3.105
68110W        W33271  19.617  15.105  12.106
68111W        W33272  40.265   0.942   4.988
68112W        W33273  16.349  39.116  13.445
68113W        W33274  29.338  19.805   1.144
68114W        W33275   9.165  11.194  12.455
68115W        W33276  40.377  44.143  11.707
68116W        W33277   9.866  40.030   3.644
68117W        W33278  21.225   9.257  11.081
68118W        W33279  44.173  13.039   3.404
68119W        W33280   2.867  23.758  12.996
68120W        W33281  26.032  24.663   0.829
68121W        W33282  25.787  26.397   1.262
68122W        W33283  35.119  15.101  13.792
68123W        W33284  19.076   1.586   0.890
68124W        W33285   7.264  31.958   2.574
68125W        W33286   9.358  22.120   0.209
68126W        W33287  30.930  44.381  11.532
68127W        W33288  16.030  40.210   2.928
68128W        W33289  37.845  38.939   0.310
68129W        W33290  36.014   9.367  12.961
68130W        W33291  29.510   9.469  13.697
68131W        W33292  38.590   3.192  10.288
68132W        W33293  44.507   3.067  11.559
68133W        W33294  42.601  36.888   3.301
68134W        W33295  42.445  14.319   0.360
68135W        W33296   0.831  22.734  13.352
68136W        W33297  40.088  35.956  14.510
68137W        W33298  35.588  31.117  14.123
68138W        W33299  34.313  26.278   0.708
68139W        W33300  35.871  19.055   1.363
68140W        W33301  39.526   8.175   0.816
68141W        W33302   4.989   4.788  14.116
68142W        W33303  16.249   0.752   4.289
68143W        W33304  38.412  21.532  14.528
68144W        W33305  24.527   6.304   2.706
68145W        W33306  26.020   2.228  11.812
68146W        W33307  35.087  37.389  11.651
68147W        W33308   1.726  26.734   3.216
68148W        W33309  25.567   3.313  13.055
68149W        W33310  27.483  17.034  10.521
68150W        W33311  14.262  25.435   3.319
68151W        W33312  14.108  36.805  12.872
68152W        W33313  42.265  22.377   2.461
68153W        W33314   9.846  17.015   1.853
68154W        W33315  24.836   6.180  13.348
68155W        W33316  42.274  37.993  11.433
68156W        W33317   3.847  27.304   4.550
68157W        W33318  37.485  24.279  13.494
68158W        W33319   2.617  26.156  14.458
68159W        W33320  11.697  23.562   0.123
68160W        W33321  27.975  33.205  14.282
68161W        W33322  24.375  34.413   1.486
68162W        W33323  42.366  34.086   1.316
68163W        W33324   6.833  20.294   0.446
68164W        W33325  34.011   2.239  14.867
68165W        W33326  41.223  25.674   2.418
68166W        W33327  40.015  29.353  12.048
68167W        W33328  24.489  31.895  14.861
68168W        W33329  17.859  37.526   3.557
68169W        W33330   5.405  20.230   2.334
68170W        W33331   8.364   4.008   4.839
68171W        W33332  35.520   0.810  10.512
68172W        W33333  23.387  13.045  14.483
68173W        W33334  34.500  41.966  14.496
68174W        W33335  42.899  33.622  11.913
68175W        W33336  30.937  28.671   1.346
68176W        W33337  21.817  17.267   4.985
68177W        W33338  25.115  22.306   3.117
68178W        W33339  21.535  35.814   2.865
68179W        W33340  16.735  19.779  10.335
68180W        W33341  29.537  33.628  12.908
68181W        W33342  44.670  27.711   0.558
68182W        W33343  31.208  33.492   2.717
68183W        W33344   9.293   1.788   3.152
68184W        W33345   0.383   7.308  13.504
68185W        W33346  35.176  20.697   3.688
68186W        W33347  20.825   9.751   2.808
68187W        W33348  40.196  30.598  11.623
68188W        W33349  21.947  40.270  12.816
68189W        W33350  39.459  38.627   1.909
68190W        W33351  43.921  38.626   0.357
68191W        W33352  33.815   7.660  12.907
68192W        W33353  19.762  21.458  11.943
68193W        W33354  33.919  43.593  14.025
68194W        W33355  40.739  19.951   5.156
68195W        W33356   4.961  32.454  13.867
68196W        W33357  11.719  21.266  10.624
68197W        W33358  42.848  25.952   1.886
68198W        W33359   3.733  14.531   1.326
68199W        W33360  36.579  42.327   0.258
68200W        W33361  21.536  42.705  11.575
68201W        W33362  13.252  33.000   0.231
68202W        W33363   0.209  32.759  14.031
68203W        W33364  15.011  22.385  10.282
68204W        W33365  30.641  16.911  11.170
68205W        W33366  38.039   3.857   3.830
68206W        W33367  38.919  13.671   0.391
68207W        W33368  29.475  10.402  14.962
68208W        W33369  19.602  18.241   5.085
68209W        W33370  17.575  21.085  12.103
68210W        W33371  28.099  20.167  12.034
68211W        W33372  16.368   5.918   2.030
68212W        W33373  28.571  15.814   1.304
68213W        W33374  13.604  22.634  13.849
68214W        W33375  31.497  32.637  12.537
68215W        W33376  25.620  22.107   2.217
68216W        W33377   9.679  21.303  10.385
68217W        W33378   6.710  23.605   1.455
68218W        W33379  10.146  33.530   4.335
68219W        W33380  10.059   9.471  11.081
68220W        W33381  34.347   4.958  12.514
68221W        W33382  36.434  22.991   2.313
68222W        W33383  32.211   4.530   2.882
68223W        W33384   5.225   5.187   2.231
68224W        W33385   4.441  41.148  13.899
68225W        W33386   0.288  16.251  11.964
68226W        W33387  32.885   0.678  11.235
68227W        W33388  30.954  22.069  13.434
68228W        W33389  37.450   8.543   1.798
68229W        W33390  26.582  20.285   4.179
68230W        W33391  11.583  31.756  11.634
68231W        W33392   6.615  13.292   2.805
68232W        W33393  42.146  10.864   3.236
68233W        W33394   7.229   8.420   3.241
68234W        W33395  17.741   1.398  12.808
68235W        W33396  37.363  24.897  11.187
68236W        W33397  11.451   9.843  14.119
68237W        W33398  42.809  24.556   0.871
68238W        W33399  29.168  42.458   0.460
68239W        W33400  41.045  39.779   1.699
68240W        W33401  16.625  40.405   1.465
68241W        W33402  16.333   0.243   4.346
68242W        W33403  44.355  21.411  14.140
68243W        W33404  29.740  11.627   1.792
68244W        W33405  20.531  38.893  11.953
68245W        W33406  40.481  20.261   4.144
68246W        W33407   2.776  17.036   1.839
68247W        W33408   6.668  13.515  14.421
68248W        W33409  10.884  12.755  14.801
68249W        W33410   3.319  25.663  13.048
68250W        W33411   3.920  18.661  10.725
68251W        W33412  10.594  37.043   4.562
68252W        W33413  39.613  36.871  13.552
68253W        W33414  17.498  25.965  11.605
68254W        W33415  22.643  15.783  10.901
68255W        W33416  19.134  39.415   0.068
68256W        W33417  30.557  17.379   3.597
68257W        W33418  32.613  38.054  11.979
68258W        W33419  20.686  31.315  12.518
68259W        W33420   8.226   3.766  13.849
68260W        W33421  26.626  21.119   1.335
68261W        W33422  39.994  26.955  10.724
68262W        W33423  42.856  20.254  12.523
68263W        W33424   3.229  33.873   3.987
68264W        W33425   6.979  33.937   0.861
68265W        W33426  26.864  21.225  10.970
68266W        W33427  13.717  33.371  13.026
68267W        W33428  33.425  22.196   4.745
68268W        W33429  12.878   7.182   1.120
68269W        W33430  22.705  32.569  11.540
68270W        W33431  38.033  28.672  11.123
68271W        W33432  20.701  20.235  14.942
68272W        W33433  32.572  20.151  13.356
68273W        W33434   3.228  34.628   0.649
68274W        W33435   9.392  13.240  10.753
68275W        W33436  26.490  32.760  10.852
68276W        W33437  19.835  23.066   3.053
68277W        W33438  18.493  15.380  14.775
68278W        W33439  17.370  11.241   0.708
68279W        W33440  28.350   7.453   4.067
68280W        W33441   4.839  33.671   1.531
68281W        W33442  32.192   1.822  12.773
68282W        W33443   6.902  41.710   0.395
68283W        W33444   8.898  12.395  14.778
68284W        W33445  10.352  38.136   0.728
68285W        W33446   1.761  20.189  13.736
68286W        W33447   5.494  35.071   1.372
68287W        W33448   3.067  28.895  12.130
68288W        W33449  11.228  44.080   0.283
68289W        W33450  20.066   6.920  10.742
68290W        W33451  44.426  27.959  11.203
68291W        W33452   0.932  21.246   1.274
68292W        W33453  23.871  39.100  13.369
68293W        W33454  40.173  22.070  11.585
68294W        W33455  24.850  13.916   3.360
68295W        W33456  11.545  30.445  11.922
68296W        W33457  25.381   5.207  14.001
68297W        W33458  19.171  37.368   0.493
68298W        W33459  37.025  44.843  11.384
68299W        W33460  44.995  44.283   4.528
68300W        W33461  33.948  19.783  14.769
68301W        W33462  34.981  35.571   4.254
68302W        W33463  25.616  36.144   1.314
68303W        W33464  35.134  44.573  12.112
68304W        W33465  43.811  34.347   4.197
68305W        W33466   7.911  34.581  12.332
68306W        W33467   2.862  17.796  13.994
68307W        W33468  35.877  41.391   3.853
68308W        W33469  23.369  23.253   3.711
68309W        W33470  28.414  35.536   2.491
68310W        W33471  37.917  14.179   4.808
68311W        W33472  40.372   0.965   2.698
68312W        W33473   5.719  35.024   3.716
68313W        W33474  36.781   0.388   4.542
68314W        W33475  28.076   4.737   0.906
68315W        W33476  43.774   1.037  10.635
68316W        W33477   3.929  19.295   0.821
68317W        W33478   8.438  34.627  11.606
68318W        W33479  39.525  30.888  13.039
68319W        W33480  25.758  23.380  11.864
68320W        W33481  42.856   2.594  12.086
68321W        W33482  20.289  38.164  11.904
68322W        W33483  38.060  19.585  12.457
68323W        W33484  16.042  34.542   1.871
68324W        W33485   9.779  42.547  14.880
68325W        W33486  25.637  29.441   0.769
68326W        W33487   2.239   6.399   1.484
68327W        W33488  41.208   3.432  14.316
68328W        W33489  41.034  12.687   3.052
68329W        W33490   8.248   3.786   1.292
68330W        W33491  36.970  25.736   3.252
68331W        W33492  20.256  28.230   0.949
68332W        W33493   1.341  37.331   0.344
68333W        W33494  12.402  28.470  12.418
68334W        W33495   2.618  32.559   3.245
68335W        W33496  15.840   3.308   0.406
68336W        W33497  16.953  31.189   1.777
68337W        W33498  15.029  44.870   2.219
68338W        W33499   4.568  14.027  11.610
68339W        W33500  29.082   4.432   4.290
68340W        W33501   0.892  23.944   4.190
68341W        W33502  42.959  11.912   3.657
68342W        W33503  15.529  23.091   0.857
68343W        W33504   0.848   9.174   3.725
68344W        W33505   4.768  35.130  10.820
68345W        W33506  15.396  19.571   0.238
68346W        W33507  44.160  35.406  10.741
68347W        W33508  28.480  25.120   1.568
68348W        W33509  10.194   6.661  11.762
68349W        W33510  43.450  39.715  11.466
68350W        W33511  33.894  11.391   4.764
68351W        W33512  43.136   6.084   9.956
68352W        W33513  41.474   9.754   1.972
68353W        W33514  10.845   4.844  10.445
68354W        W33515  34.605   7.201   0.865
68355W        W33516  37.505  31.172   4.170
68356W        W33517  18.212  37.896   2.759
68357W        W33518  27.472   2.879  12.070
68358W        W33519  14.216  10.551  14.356
68359W        W33520   7.417  35.376   1.459
68360W        W33521  43.985  43.138  11.166
68361W        W33522  19.601  32.429  14.358
68362W        W33523  11.369  41.259   3.616
68363W        W33524  21.188  20.573   0.360
68364W        W33525  16.325  23.369  11.213
68365W        W33526  40.564  29.338  11.056
68366W        W33527  16.316   8.713   2.727
68367W        W33528  30.802  29.152  14.937
68368W        W33529  43.890  33.077  13.994
68369W        W33530   3.717  31.074  12.484
68370W        W33531  25.415  27.462  12.491
68371W        W33532  35.215  29.676   2.314
68372W        W33533  35.007   5.006   2.373
68373W        W33534   9.688  43.550  14.781
68374W        W33535  38.670  19.140   0.525
68375W        W33536  28.757   0.578  12.022
68376W        W33537  34.541   3.945   1.691
68377W        W33538  13.854   1.004   2.302
68378W        W33539   1.306  14.170   1.282
68379W        W33540  24.613  42.031  13.939
68380W        W33541  44.452  30.673  13.274
68381W        W33542  30.870  13.552   2.709
68382W        W33543  15.121   0.977   4.834
68383W        W33544  36.403  13.433  12.818
68384W        W33545  35.146  43.367   5.291
68385W        W33546   5.439  41.845  14.395
68386W        W33547  40.395  31.451   0.993
68387W        W33548  20.466  41.113  10.588
68388W        W33549  22.529  20.728  14.931
68389W        W33550  23.606  19.199  11.497
68390W        W33551  42.798  34.335  14.953
68391W        W33552  12.050  37.896  13.342
68392W        W33553  29.662   0.030  14.482
68393W        W33554   3.978  22.132  12.697
68394W        W33555   1.051  23.448  13.789
68395W        W33556  42.625  24.703  11.168
68396W        W33557   5.813  43.501   0.005
68397W        W33558  18.052  18.743   2.361
68398W        W33559  30.585  30.565   0.805
68399W        W33560   2.284   9.718   2.546
68400W        W33561  31.432   4.472   3.672
68401W        W33562  22.763  35.897   3.120
68402W        W33563  22.488  24.243  14.791
68403W        W33564  10.796  37.523  13.078
68404W        W33565  41.432   2.848   0.994
68405W        W33566   6.816   0.692  14.019
68406W        W33567  42.768  29.945   2.272
68407W        W33568  44.795   6.376   1.565
68408W        W33569  35.100  38.071  14.198
68409W        W33570  11.339  33.094  13.335
68410W        W33571  41.990  38.760   2.734
68411W        W33572   9.245   5.455   3.588
68412W        W33573  28.535  43.947  14.480
68413W        W33574  40.770  16.491  11.535
68414W        W33575  41.045   9.161   4.272
68415W        W33576  30.888  13.008   4.795
68416W        W33577  16.532   2.662   1.848
68417W        W33578  31.894  16.343   1.198
68418W        W33579   1.036  27.825   1.428
68419W        W33580  34.406  32.753   1.410
68420W        W33581  18.682  10.209   5.010
68421W        W33582  43.774  19.553   1.601
68422W        W33583   9.875   8.824   3.895
68423W        W33584  44.660  38.996   3.479
68424W        W33585  40.016   6.305   0.440
68425W        W33586  31.146  18.088   0.916
68426W        W33587  30.866   5.377   3.565
68427W        W33588  35.479  11.614   3.326
68428W        W33589  19.151  26.094   0.498
68429W        W33590  25.735  41.271  10.737
68430W        W33591  32.566  24.101  12.426
68431W        W33592  37.311   2.640  10.729
68432W        W33593  44.725  17.247   1.273
68433W        W33594   2.366  35.310   1.604
68434W        W33595   4.241   8.894  11.592
68435W        W33596   3.009   1.712   1.111
68436W        W33597   1.383  15.089  14.341
68437W        W33598  21.138  19.896   2.786
68438W        W33599  26.542  38.028   2.478
68439W        W33600  18.410  41.971  11.732
68440W        W33601  42.991  19.802   4.869
68441W        W33602  37.201  33.143  14.749
68442W        W33603   3.222  27.531  11.622
68443W        W33604  37.345   3.483  12.055
68444W        W33605   9.190  28.437  13.854
68445W        W33606   3.317  26.640  14.519
68446W        W33607  22.663  12.182   4.820
68447W        W33608  32.199  22.113  10.120
68448W        W33609  37.703  36.876   4.593
68449W        W33610  28.213  17.651  10.695
68450W        W33611  10.243  27.017  11.979
68451W        W33612  29.464  11.162   1.727
68452W        W33613   4.625  23.150   5.523
68453W        W33614  37.878  25.626  12.272
68454W        W33615   2.274  22.002  13.238
68455W        W33616  22.669  38.784  12.593
68456W        W33617  14.165   6.491  13.356
68457W        W33618   9.304  40.642  13.795
68458W        W33619  36.080  32.145   4.567
68459W        W33620  29.144   2.325   1.833
68460W        W33621  21.526   1.243   1.697
68461W        W33622   4.964  21.404  11.548
68462W        W33623   9.386  34.015  10.521
68463W        W33624  18.654  25.658  10.674
68464W        W33625  40.455  33.972   0.684
68465W        W33626   6.612  20.000   0.961
68466W        W33627  42.533  22.834  10.729
68467W        W33628   1.562  42.911   0.822
68468W        W33629  24.923  30.934  13.254
68469W        W33630   6.294  36.048  12.044
68470W        W33631  22.061  35.082  10.817
68471W        W33632  26.898  37.017  12.352
68472W        W33633   1.156  16.076  13.654
68473W        W33634  19.595  21.780   3.613
68474W        W33635   8.356  16.396  12.974
68475W        W33636  12.823  15.688   4.403
68476W        W33637  20.539  10.280   3.634
68477W        W33638   6.093   9.886  13.913
68478W        W33639  26.149  16.114   1.463
68479W        W33640   7.265  19.780  13.309
68480W        W33641  24.123  42.964  11.625
68481W        W33642  36.701  32.661   4.116
68482W        W33643  22.745  38.380   1.677
68483W        W33644  40.049   3.684  13.341
68484W        W33645  15.626  28.161   1.286
68485W        W33646   6.171  11.825  14.918
68486W        W33647  40.461  38.829  12.071
68487W        W33648   1.452  17.338  14.838
68488W        W33649  41.237  20.493   1.752
68489W        W33650  28.238  24.422   5.664
68490W        W33651  18.281   3.102   0.360
68491W        W33652  15.823  24.462  12.686
68492W        W33653  38.092  44.982  11.071
68493W        W33654  34.805   0.984   0.072
68494W        W33655   7.818  31.530   0.490
68495W        W33656  22.229   1.956   1.722
68496W        W33657   8.914  34.602  12.604
68497W        W33658  15.383  40.724   1.743
68498W        W33659  23.612   6.743  10.656
68499W        W33660  28.057   7.625   4.665
68500W        W33661  32.913  31.923  13.283
68501W        W33662  22.200  32.085   2.946
68502W        W33663  42.932  10.317  10.998
68503W        W33664  18.559   8.782  12.305
68504W        W33665  34.914  28.909  14.435
68505W        W33666  23.529   3.674  14.405
68506W        W33667  26.052  40.858   4.491
68507W        W33668   2.698   7.655   0.938
68508W        W33669  24.481   0.348   4.696
68509W        W33670  40.090  35.875  10.673
68510W        W33671   3.401  25.650   5.029
68511W        W33672  24.223  25.685   4.522
68512W        W33673  35.437  12.848   2.378
68513W        W33674  35.143  36.053  10.438
68514W        W33675  26.065  13.582   3.061
68515W        W33676  35.415   4.955  12.958
68516W        W33677  29.222  10.706   3.668
68517W        W33678   6.464  22.898   2.892
68518W        W33679  19.340  17.866  12.416
68519W        W33680  26.210  36.872  11.061
68520W        W33681  31.039   4.884   2.671
68521W        W33682   3.765  21.287   1.823
68522W        W33683   2.004  38.067   2.443
68523W        W33684  44.912  42.984  14.928
68524W        W33685  19.066  36.479  11.250
68525W        W33686  21.049  24.110   3.523
68526W        W33687   2.902  13.126   2.008
68527W        W33688  14.649  27.993   3.086
68528W        W33689  30.073  32.965   1.421
68529W        W33690  20.591   2.511   1.792
68530W        W33691  16.883  12.097   0.953
68531W        W33692  31.064  42.808   4.508
68532W        W33693  12.790  23.410  14.540
68533W        W33694  30.950  35.053  11.662
68534W        W33695  31.359  13.109  12.193
68535W        W33696  34.873  30.002   1.758
68536W        W33697  38.028  19.244  13.061
68537W        W33698  43.882  17.781   4.404
68538W        W33699   7.634   3.928   0.262
68539W        W33700  24.066  33.481   2.921
68540W        W33701   5.474  17.740  13.028
68541W        W33702  21.264  15.796  13.385
68542W        W33703  40.002  39.214   0.973
68543W        W33704  42.313  23.420   1.439
68544W        W33705  28.218  26.399  11.224
68545W        W33706  12.265  42.919  10.794
68546W        W33707   3.894  31.459   4.347
68547W        W33708  13.267  39.264   2.665
68548W        W33709  17.192   6.673   0.793
68549W        W33710   8.262  12.338   2.194
68550W        W33711  41.276   0.473   2.816
68551W        W33712   9.645  32.481   1.555
68552W        W33713  20.510  44.331  14.388
68553W        W33714   4.019   7.401   2.259
68554W        W33715  14.830  30.195  11.897
68555W        W33716  13.794  12.110  10.486
68556W        W33717  22.948   3.181  12.289
68557W        W33718  24.607   8.217   3.157
68558W        W33719   4.312  25.581   3.293
68559W        W33720  39.412  37.483   2.686
68560W        W33721  11.906  31.456   2.759
68561W        W33722  11.384  13.279   2.279
68562W        W33723  20.971  44.972  11.439
68563W        W33724  14.750   3.135  13.089
68564W        W33725  13.176  23.801   0.877
68565W        W33726   5.384   9.787  14.230
68566W        W33727   2.496  28.513   3.724
68567W        W33728   5.831  14.052  13.489
68568W        W33729  13.117  26.466  13.859
68569W        W33730  36.903  26.432   1.905
68570W        W33731  13.521  15.964  10.548
68571W        W33732  20.168  25.207  14.075
68572W        W33733  43.098   4.442  13.023
68573W        W33734   6.475  17.680  13.960
68574W        W33735  14.839  29.485  10.768
68575W        W33736  18.040  43.345   0.753
68576W        W33737  20.247  32.038   3.699
68577W        W33738  20.720   9.294   1.901
68578W        W33739  13.662  25.891  12.418
68579W        W33740  14.409  30.458  11.721
68580W        W33741  26.233  28.254  12.322
68581W        W33742  36.132   0.232  12.589
68582W        W33743   1.746  39.486   4.668
68583W        W33744   9.251   9.672  11.622
68584W        W33745  30.021  38.592   9.881
68585W        W33746   1.269  22.017   2.471
68586W        W33747  38.406  16.573  13.247
68587W        W33748  14.815   1.858   1.222
68588W        W33749  28.342   1.910  12.457
68589W        W33750  12.084  27.693   1.319
68590W        W33751  41.895   5.953   3.679
68591W        W33752   1.198  42.695  11.785
68592W        W33753   2.192  24.911   3.664
68593W        W33754  43.517  16.224   1.359
68594W        W33755  30.900  33.488  13.879
68595W        W33756  41.803  29.587  11.629
68596W        W33757   1.722  32.694  13.100
68597W        W33758   4.481   6.373  11.147
68598W        W33759  39.527  24.947   3.786
68599W        W33760  17.087  41.533   0.773
68600W        W33761  22.175  30.896  13.759
68601W        W33762  23.372  19.754   1.329
68602W        W33763  32.418  20.642  13.310
68603W        W33764   5.577  19.482  10.368
68604W        W33765  17.306  13.961   0.454
68605W        W33766  25.986  43.881  12.452
68606W        W33767  14.720  33.302   3.308
68607W        W33768  17.252   2.156   1.672
68608W        W33769  14.194  18.272  14.990
68609W        W33770  22.785  29.631   2.655
68610W        W33771  24.495  33.442   1.676
68611W        W33772  20.265  17.727  11.990
68612W        W33773  26.398   7.754  13.934
68613W        W33774  36.845  24.090   2.489
68614W        W33775   8.365  40.399  13.048
68615W        W33776  27.616  15.003  11.534
68616W        W33777  12.877   8.159  11.974
68617W        W33778   0.482  27.474   3.721
68618W        W33779   4.549  18.003   2.951
68619W        W33780  28.133   1.381  12.016
68620W        W33781  28.644  31.008  13.092
68621W        W33782   8.910  19.235   1.729
68622W        W33783  15.224  20.213   4.448
68623W        W33784  28.484   2.273   2.724
68624W        W33785  28.131  28.464  11.582
68625W        W33786   3.925   5.821   2.714
68626W        W33787  32.514   3.692   2.666
68627W        W33788  22.240  42.912  12.952
68628W        W33789  15.046   9.603   2.301
68629W        W33790  26.177   7.225   3.322
68630W        W33791  25.644  43.951  12.874
68631W        W33792  27.277  24.629   3.244
68632W        W33793  42.736   9.658  13.902
68633W        W33794  10.187  11.878   3.177
68634W        W33795   9.539  32.280   2.802
68635W        W33796   6.197  16.096  13.003
68636W        W33797  31.186   6.643  14.532
68637W        W33798  27.645  32.623   3.100
68638W        W33799  35.315  15.168   2.555
68639W        W33800  33.134   5.685  13.792
68640W        W33801   4.810  35.593  11.143
68641W        W33802   2.086  17.359  11.435
68642W        W33803  11.774  42.787   0.415
68643W        W33804  25.944  35.865  11.105
68644W        W33805  44.800   2.345   4.259
68645W        W33806  10.741  17.626   2.722
68646W        W33807  34.005  20.633  12.089
68647W        W33808   7.604  35.048  14.059
68648W        W33809  27.846  27.373   1.717
68649W        W33810  16.300  29.316   2.699
68650W        W33811   1.262  22.711   1.035
68651W        W33812  23.916   5.690   3.200
68652W        W33813  40.824  40.561   3.908
68653W        W33814   3.482  35.212  13.881
68654W        W33815   3.704  10.301   2.151
68655W        W33816  20.601  40.096  12.499
68656W        W33817  38.125  12.878   3.586
68657W        W33818  21.696  13.553   3.492
68658W        W33819  14.064  18.267  10.981
68659W        W33820  33.897  36.117   3.380
68660W        W33821  27.094  12.554   5.474
68661W        W33822   2.221  26.075   4.448
68662W        W33823   3.529  40.512  12.991
68663W        W33824  12.843  11.335  14.755
68664W        W33825  27.495  39.573  11.467
68665W        W33826  19.043  10.444  12.533
68666W        W33827  35.358   9.458   4.596
68667W        W33828  35.538   2.321  14.870
68668W        W33829  16.221   1.378   1.239
68669W        W33830  24.832   8.409  12.446
68670W        W33831  11.305  11.311   4.210
68671W        W33832  29.990  41.644   2.351
68672W        W33833   6.723   3.557  10.210
68673W        W33834  23.440   4.837  13.508
68674W        W33835  39.267  12.243   3.805
68675W        W33836   5.424  26.806   4.125
68676W        W33837  38.780  10.126  10.773
68677W        W33838  43.095  31.965  14.022
68678W        W33839  39.502  26.439   4.669
68679W        W33840  32.101  31.296  14.886
68680W        W33841  36.058  35.808   3.674
68681W        W33842  27.652  26.502  11.531
68682W        W33843  42.525  13.363   2.328
68683W        W33844  43.661  39.892   4.367
68684W        W33845  22.144   3.753   2.252
68685W        W33846   7.465   6.735   3.590
68686W        W33847   5.999  19.710  14.083
68687W        W33848  33.958  23.351   2.334
68688W        W33849  30.641  25.220   3.104
68689W        W33850  39.040   8.243  14.819
68690W        W33851  31.896  33.483  14.037
68691W        W33852  24.468  11.431   0.789
68692W        W33853  33.638   0.302  13.316
68693W        W33854   2.791  13.111   0.019
68694W        W33855   5.287  43.770  12.817
68695W        W33856  40.988  23.815   0.094
68696W        W33857  24.571  33.345  13.395
68697W        W33858  44.309  44.422   5.102
68698W        W33859  41.882  23.927  14.446
68699W        W33860   3.050  34.411   3.433
68700W        W33861  41.804  25.735   2.277
68701W        W33862   6.403  14.644   1.583
68702W        W33863  32.977   0.509   4.907
68703W        W33864  37.967  20.545  13.470
68704W        W33865  42.469   0.413   4.614
68705W        W33866  37.990   2.725  14.145
68706W        W33867  23.884  11.332  13.113
68707W        W33868  25.526   7.382   4.036
68708W        W33869  17.067  19.223   3.128
68709W        W33870  27.873   7.714   2.684
68710W        W33871  36.464  20.513   0.734
68711W        W33872  29.441  14.226   4.613
68712W        W33873   6.799  37.107  10.949
68713W        W33874  19.477  43.969  11.089
68714W        W33875   0.905  43.858  10.561
68715W        W33876  12.694  27.130  12.966
68716W        W33877  43.692  20.686  14.399
68717W        W33878   1.923  43.876  10.702
68718W        W33879   1.309  38.399  12.564
68719W        W33880  14.775  37.879  12.647
68720W        W33881  23.254  27.654   0.677
68721W        W33882  34.509  36.693  12.190
68722W        W33883  11.502  28.722  11.538
68723W        W33884  15.157  18.306  11.921
68724W        W33885   8.654   1.791   2.462
68725W        W33886  20.299   6.828  13.020
68726W        W33887   5.005  24.885   0.013
68727W        W33888  34.034  41.533   4.646
68728W        W33889   8.232  37.229   1.904
68729W        W33890  12.438  32.078  12.581
68730W        W33891  33.432  18.203   2.398
68731W        W33892   0.936  23.170  10.678
68732W        W33893  15.383  42.253  12.355
68733W        W33894  16.324  41.509   2.768
68734W        W33895  35.312  28.260  13.481
68735W        W33896  39.921  11.775   2.706
68736W        W33897  26.706   0.484  11.123
68737W        W33898  31.479  40.840  14.613
68738W        W33899  27.247  32.626  11.237
68739W        W33900  28.636  42.192   2.235
68740W        W33901  27.081  19.216   4.714
68741W        W33902  40.952  35.789  11.549
68742W        W33903  30.546  39.981  10.796
68743W        W33904  34.061  30.557  10.498
68744W        W33905   6.372  29.284  10.532
68745W        W33906   1.339  40.788  12.378
68746W        W33907  10.850  30.499   0.247
68747W        W33908  22.731   9.750   3.638
68748W        W33909  14.168  41.565   2.781
68749W        W33910  12.935  12.446   4.491
68750W        W33911  22.545  40.197  14.872
68751W        W33912  33.682  18.567  10.794
68752W        W33913  28.048  12.888   0.924
68753W        W33914  40.377  20.313  11.604
68754W        W33915  10.830  28.531   1.257
68755W        W33916  44.956  16.083   3.116
68756W        W33917  23.163  34.520  13.778
68757W        W33918  44.255   3.739  13.915
68758W        W33919  16.302  20.964  10.678
68759W        W33920  12.834  34.505  14.275
68760W        W33921   8.865  36.224   4.230
68761W        W33922   5.235  25.090   3.083
68762W        W33923  13.559  38.078  11.747
68763W        W33924  14.202   3.703  14.872
68764W        W33925  11.166   0.213   3.930
68765W        W33926  37.599   1.271   4.310
68766W        W33927  40.431  28.004  12.170
68767W        W33928  19.383  18.437   0.494
68768W        W33929  44.053   5.964  14.921
68769W        W33930   8.917  32.006   4.079
68770W        W33931  16.818  36.060  14.988
68771W        W33932  19.904  22.411  11.464
68772W        W33933  37.846  11.847   4.341
68773W        W33934   6.828  40.214   4.142
68774W        W33935  29.166  17.770  10.507
68775W        W33936   8.366  41.440   4.238
68776W        W33937  40.898  14.136   4.390
68777W        W33938  44.021  15.761   1.681
68778W        W33939   5.542  22.881  11.983
68779W        W33940   8.938   9.878  13.747
68780W        W33941  12.292  16.197   0.020
68781W        W33942   6.909  32.038  12.423
68782W        W33943  27.637  35.052  13.465
68783W        W33944  25.202  43.771  10.663
68784W        W33945   7.472  40.730   2.296
68785W        W33946   4.966   0.753   4.595
68786W        W33947  41.300  32.788  11.477
68787W        W33948   1.704  38.092  13.480
68788W        W33949   7.361  22.034   4.466
68789W        W33950   0.638  18.291  11.069
68790W        W33951  29.154  10.757  10.360
68791W        W33952  23.471  25.274  13.005
68792W        W33953  28.212   2.024   4.601
68793W        W33954  29.254  44.279  14.704
68794W        W33955   4.025   8.624   4.598
68795W        W33956  23.209   2.760   3.296
68796W        W33957  44.428  42.262   1.928
68797W        W33958  44.617  31.291   2.165
68798W        W33959  14.770  43.803   3.313
68799W        W33960  34.892   0.231  10.729
68800W        W33961  27.138  29.130   0.708
68801W        W33962   7.245  14.632  11.113
68802W        W33963  37.775   6.628  11.666
68803W        W33964  44.695  23.598   4.643
68804W        W33965  40.132  28.987   4.740
68805W        W33966  40.285  10.690   1.952
68806W        W33967  44.318  18.370   3.697
68807W        W33968  12.261  12.841  13.757
68808W        W33969  34.930  18.796   3.792
68809W        W33970  32.525  21.511  14.576
68810W        W33971   2.544   8.180   3.815
68811W        W33972   4.458   7.864   3.297
68812W        W33973  30.068  33.608   2.699
68813W        W33974  32.588  36.823   4.804
68814W        W33975  31.466  29.935   4.448
68815W        W33976  19.529  12.653   5.071
68816W        W33977  42.278   0.311  11.557
68817W        W33978  31.036  14.225   1.561
68818W        W33979  37.494   9.904  10.702
68819W        W33980  28.506   8.562  11.645
68820W        W33981  16.204   4.612   3.259
68821W        W33982  37.625  40.823   2.536
68822W        W33983  11.702  38.602  11.131
68823W        W33984  42.037  17.566   0.305
68824W        W33985  16.974  40.168  13.528
68825W        W33986   5.514  10.854   2.247
68826W        W33987   1.036  33.099  12.548
68827W        W33988  30.606  34.601   3.172
68828W        W33989  35.458   0.395   2.320
68829W        W33990  18.653  41.076   1.253
68830W        W33991  38.063   5.197   2.108
68831W        W33992  39.319  11.729  10.793
68832W        W33993  25.617  20.912   1.126
68833W        W33994  26.467  25.091   3.235
68834W        W33995  25.700  39.498   1.285
68835W        W33996  28.050  37.093  12.984
68836W        W33997  17.221  36.356   3.246
68837W        W33998   3.905  14.170   0.013
68838W        W33999   5.513   5.310   1.808
68839W        W34000  37.739   7.792   2.283
68840W        W34001  39.557  22.329   2.755
68841W        W34002   3.356  41.005  11.506
68842W        W34003  18.276  41.238   2.941
68843W        W34004  36.099  15.584   3.132
68844W        W34005  38.151   6.306   3.027
68845W        W34006  17.159   4.771  11.125
68846W        W34007  19.117  41.850   3.284
68847W        W34008  42.969  15.171   0.363
68848W        W34009  24.393  28.138  13.486
68849W        W34010   3.735   0.952  12.603
68850W        W34011  15.894  21.673  12.567
68851W        W34012  27.016  10.213   3.174
68852W        W34013  43.312  17.717  13.359
68853W        W34014  16.657   8.886  13.427
68854W        W34015   9.318  11.732   4.424
68855W        W34016   6.671  35.628  10.716
68856W        W34017  29.581  28.600   2.327
68857W        W34018   2.958   0.330  10.571
68858W        W34019   1.897   0.991   1.015
68859W        W34020  33.075  33.456   1.662
68860W        W34021  41.822  35.306   2.658
68861W        W34022  13.246   9.111   2.394
68862W        W34023   0.229  33.397  10.580
68863W        W34024  11.223  42.313   1.838
68864W        W34025  34.543   9.535   0.771
68865W        W34026   7.290  40.016  12.976
68866W        W34027  29.412   0.802   2.607
68867W        W34028  35.080  28.177   1.419
68868W        W34029  30.413  19.963   3.372
68869W        W34030  33.180  37.786   3.209
68870W        W34031  40.559  24.017  10.736
68871W        W34032  31.376  15.130   4.722
68872W        W34033  43.176  14.623   0.838
68873W        W34034  32.146  25.291  11.406
68874W        W34035  35.584   3.359   0.705
68875W        W34036  28.993  31.621   1.763
68876W        W34037  44.750   8.638   2.646
68877W        W34038  14.149  16.540  11.644
68878W        W34039  39.484  16.891   4.846
68879W        W34040  26.662  10.457  14.299
68880W        W34041  28.371  39.579   4.298
68881W        W34042  35.853   6.725  13.074
68882W        W34043  28.350  23.411  10.220
68883W        W34044  39.751  29.451  14.352
68884W        W34045  11.343   4.442   2.735
68885W        W34046  15.628  35.188   1.221
68886W        W34047  43.586  13.051   9.435
68887W        W34048  14.708  21.296   0.283
68888W        W34049  39.217   2.791  12.069
68889W        W34050  34.955  36.439  12.192
68890W        W34051  33.442  22.388  13.359
68891W        W34052  31.934  28.671   2.319
68892W        W34053  37.374  11.216  12.970
68893W        W34054   8.290  14.564   4.162
68894W        W34055  12.364  16.714  11.188
68895W        W34056   1.273  11.567   2.319
68896W        W34057  28.439  10.296  13.882
68897W        W34058  43.408  11.460   0.168
68898W        W34059  24.689  28.124  13.043
68899W        W34060  30.445   7.211  10.438
68900W        W34061  39.009  21.685  12.101
68901W        W34062   2.690  41.551  10.882
68902W        W34063  37.599   8.715   4.646
68903W        W34064  15.716   1.723  14.602
68904W        W34065   7.895  26.231  14.856
68905W        W34066  11.417  14.435  11.853
68906W        W34067   0.539  43.378   4.310
68907W        W34068   2.889   3.368  14.746
68908W        W34069  30.679   6.781  13.637
68909W        W34070  16.262  29.044   4.880
68910W        W34071  20.084  27.061   2.927
68911W        W34072  18.110   6.128  11.271
68912W        W34073   9.113  12.715   2.378
68913W        W34074  18.662   2.851   0.088
68914W        W34075  18.172  13.232  12.086
68915W        W34076  17.019  10.861   1.293
68916W        W34077   3.845   6.213   2.374
68917W        W34078  26.815  19.065   4.265
68918W        W34079   6.634  14.656   0.260
68919W        W34080  10.371  23.815   1.687
68920W        W34081   5.457  14.703   3.639
68921W        W34082  29.501  10.791   2.098
68922W        W34083  31.586  34.720  14.879
68923W        W34084  38.608  38.651  13.847
68924W        W34085  30.662  10.901  12.774
68925W        W34086  27.679  24.060  11.994
68926W        W34087  33.757  41.168   4.431
68927W        W34088  33.335   4.197  13.096
68928W        W34089   1.327  40.333   2.278
68929W        W34090  36.147   2.522   0.734
68930W        W34091  36.326  28.064   3.465
68931W        W34092   5.340  32.112  14.071
68932W        W34093  15.578  14.151   4.598
68933W        W34094  22.081  32.188  10.651
68934W        W34095  23.474  16.413  14.505
68935W        W34096  29.560  41.545  14.964
68936W        W34097  13.326   3.548   2.190
68937W        W34098  13.551  41.964  10.995
68938W        W34099  40.543   9.120   4.216
68939W        W34100  25.749  21.557  13.014
68940W        W34101  28.299   9.435   1.269
68941W        W34102   6.484  44.773  11.546
68942W        W34103   7.852  16.065   3.354
68943W        W34104   5.368  28.589   3.622
68944W        W34105  43.810  23.661   3.725
68945W        W34106  15.171  39.051   1.029
68946W        W34107  44.382  41.942   2.802
68947W        W34108   6.369   9.034  10.418
68948W        W34109  30.525  15.450  14.019
68949W        W34110  18.785  17.633  10.362
68950W        W34111  28.034  39.873  14.382
68951W        W34112  38.020  10.624   4.120
68952W        W34113  33.810  42.330   2.155
68953W        W34114  33.640  26.998  10.871
68954W        W34115  32.086  12.048   4.506
68955W        W34116  37.546  29.445   2.522
68956W        W34117  22.413  26.280   2.700
68957W        W34118  33.946  42.508  11.658
68958W        W34119  26.024  19.287   4.493
68959W        W34120  14.107  22.585  13.865
68960W        W34121  33.917  35.426   2.932
68961W        W34122  26.009   4.965  13.149
68962W        W34123  42.785   7.940   3.649
68963W        W34124  14.693   6.691  13.393
68964W        W34125  33.644   7.679   1.835
68965W        W34126  27.887   7.746  14.745
68966W        W34127  31.613   3.595   0.722
68967W        W34128  21.146  38.916   1.473
68968W        W34129   5.356   9.676   2.627
68969W        W34130  43.318  26.107  10.600
68970W        W34131  26.984  21.663  10.679
68971W        W34132  24.652  14.108   1.714
68972W        W34133  25.135  34.741  12.124
68973W        W34134   4.359  42.745   2.240
68974W        W34135  42.263  37.509   0.811
68975W        W34136   1.673  34.961   2.077
68976W        W34137  13.401  37.776   2.789
68977W        W34138  18.655  40.827   3.091
68978W        W34139  15.837  30.968   4.144
68979W        W34140  25.745  17.992   1.892
68980W        W34141  16.711  15.039   2.160
68981W        W34142   8.676  42.320  12.001
68982W        W34143   3.280  10.568   0.277
68983W        W34144   4.509  27.623   1.313
68984W        W34145  11.126  43.580   0.308
68985W        W34146  41.907  12.610   1.452
68986W        W34147  16.599  41.823  11.117
68987W        W34148   2.884   9.609   1.824
68988W        W34149  16.653  42.602   5.413
68989W        W34150  14.616  37.776   1.209
68990W        W34151  19.587   1.210  14.760
68991W        W34152  39.790  42.989  13.943
68992W        W34153  43.316   5.202  12.710
68993W        W34154  41.234  24.795   2.228
68994W        W34155   6.535  18.110  10.724
68995W        W34156  22.713   6.091  14.355
68996W        W34157   9.694  26.201  13.338
68997W        W34158  39.992  27.546  13.359
68998W        W34159  30.498   0.169  14.478
68999W        W34160  20.115   0.473  13.861
69000W        W34161   8.246  21.054  11.138
69001W        W34162   1.168  44.770  11.186
69002W        W34163   7.852   2.018   1.306
69003W        W34164  39.726   3.299  10.883
69004W        W34165   7.399   4.192   3.302
69005W        W34166  37.367  44.718  14.844
69006W        W34167  44.692   5.888  11.311
69007W        W34168  41.077   4.440  11.537
69008W        W34169  39.791  40.238   0.973
69009W        W34170  19.049  34.604  14.378
69010W        W34171  21.934  32.909   3.560
69011W        W34172  42.406  21.837   0.308
69012W        W34173   2.336  11.050  14.371
69013W        W34174   1.983  26.514   5.347
69014W        W34175   5.504  26.606   0.883
69015W        W34176  11.280  35.867  11.078
69016W        W34177  35.898  33.180   1.258
69017W        W34178  17.184  10.167  12.330
69018W        W34179  19.307   3.443   3.730
69019W        W34180  24.793  19.161  13.061
69020W        W34181  32.101  16.189  13.562
69021W        W34182  23.082  38.906  12.891
69022W        W34183  19.048   7.487  14.912
69023W        W34184  43.204   2.208   1.800
69024W        W34185  37.574   3.158  12.981
69025W        W34186  33.070  37.895   5.357
69026W        W34187  36.449   5.952  13.031
69027W        W34188  41.401  25.010  10.691
69028W        W34189   0.067  16.618   1.734
69029W        W34190  23.825  37.408  11.981
69030W        W34191   1.094   2.847  13.406
69031W        W34192   2.755  29.626  11.598
69032W        W34193  24.289  31.342   3.109
69033W        W34194  20.020  28.665   1.801
69034W        W34195  19.140   4.944  14.981
69035W        W34196  12.161  27.193  12.944
69036W        W34197  27.494  24.293  13.295
69037W        W34198  21.316  37.590   3.781
69038W        W34199  32.968  41.565   2.700
69039W        W34200  24.544  16.389  11.591
69040W        W34201  15.333  38.558   1.067
69041W        W34202  40.029  31.391   2.857
69042W        W34203  13.606  30.527   4.548
69043W        W34204  10.184  27.396  10.701
69044W        W34205  22.502  42.002   3.570
69045W        W34206  37.110  38.997   0.930
69046W        W34207  14.065   4.220  14.772
69047W        W34208  12.430  35.952   1.476
69048W        W34209   0.493  32.602  12.393
69049W        W34210  36.931  25.933   1.909
69050W        W34211  34.835  27.059   0.693
69051W        W34212  10.173  20.975   3.720
69052W        W34213  32.138  13.921   4.653
69053W        W34214  26.056  30.852  13.845
69054W        W34215  10.829  22.939   3.821
69055W        W34216  14.324  12.148  13.894
69056W        W34217  10.504  41.560  11.235
69057W        W34218   8.325   0.941  14.489
69058W        W34219  42.895   6.770   4.923
69059W        W34220  10.796  30.108   1.752
69060W        W34221  39.293  34.340   4.110
69061W        W34222   0.250  12.532   1.341
69062W        W34223   6.311   2.802  13.594
69063W        W34224   3.013  28.016  11.587
69064W        W34225  11.999  23.720  11.704
69065W        W34226  10.502  18.029   4.599
69066W        W34227  24.624  12.873   4.534
69067W        W34228  17.583  29.689   3.053
69068W        W34229  12.224  39.094  10.684
69069W        W34230  29.676  14.578   0.772
69070W        W34231  22.585  17.175  13.035
69071W        W34232  34.080   6.225  13.025
69072W        W34233  12.914  17.625  14.697
69073W        W34234  29.533  44.722  14.039
69074W        W34235   6.653  18.658   4.145
69075W        W34236  32.078   4.526   5.230
69076W        W34237  27.536   3.815  13.759
69077W        W34238  30.605   5.841   2.705
69078W        W34239  17.276  11.499   4.076
69079W        W34240  26.805  36.958   1.992
69080W        W34241  29.429   5.694   1.802
69081W        W34242  42.831  22.500  13.043
69082W        W34243  32.454  28.990   4.726
69083W        W34244  24.805  44.263   4.323
69084W        W34245  28.105  37.825  13.421
69085W        W34246  11.654  43.928   4.394
69086W        W34247  10.738  12.044   2.241
69087W        W34248  23.673  33.505   3.243
69088W        W34249   7.795  37.021  14.032
69089W        W34250  35.716   3.800   2.879
69090W        W34251  20.739  28.003   1.778
69091W        W34252  30.928   9.946  14.926
69092W        W34253  40.166  35.930   3.085
69093W        W34254   8.128   9.268  13.033
69094W        W34255  10.165  34.000   3.206
69095W        W34256  37.428   6.594   0.824
69096W        W34257   9.703  43.864   4.563
69097W        W34258   1.233  24.943   3.412
69098W        W34259  12.496  16.086   3.720
69099W        W34260   1.723  36.836  14.960
69100W        W34261  28.478  41.978   1.554
69101W        W34262  25.976  16.916   1.818
69102W        W34263  32.588   4.916  14.217
69103W        W34264  20.069  39.802   2.853
69104W        W34265  20.357  32.544   4.470
69105W        W34266   8.768  11.915   2.722
69106W        W34267   3.517  22.153  11.170
69107W        W34268  34.622  29.255   4.143
69108W        W34269  19.979   3.199  14.988
69109W        W34270  34.458  39.824   0.806
69110W        W34271  44.815  37.636   0.196
69111W        W34272  42.477  44.425  10.702
69112W        W34273  31.447   2.281  14.741
69113W        W34274  39.051  32.360   3.246
69114W        W34275  12.625  10.892   4.648
69115W        W34276   1.265  15.854  10.343
69116W        W34277  28.937  34.976   0.329
69117W        W34278  16.624   8.620   0.334
69118W        W34279  18.394   7.710   4.208
69119W        W34280  31.313  30.859   3.365
69120W        W34281  38.269  29.902  11.555
69121W        W34282  16.304  33.882   0.334
69122W        W34283  33.553  10.678  12.398
69123W        W34284   6.496  29.514   4.959
69124W        W34285  12.193  41.869   0.882
69125W        W34286  26.727   5.092  11.995
69126W        W34287  23.479  11.854   2.716
69127W        W34288   7.221   5.618   0.788
69128W        W34289  10.535  27.236  11.557
69129W        W34290  11.847  36.070   1.392
69130W        W34291  17.084  32.967   2.243
69131W        W34292   3.634  28.163   3.244
69132W        W34293   1.696  39.416   2.785
69133W        W34294  15.048  43.449   1.998
69134W        W34295  20.009   6.960   4.777
69135W        W34296  33.134  37.323   4.300
69136W        W34297  18.102   1.307  10.676
69137W        W34298  10.001  14.859  12.005
69138W        W34299  34.441  12.572  11.616
69139W        W34300   3.796   6.249   2.971
69140W        W34301  11.095  22.030  11.522
69141W        W34302  40.107  35.415   1.784
69142W        W34303  34.141  43.866   3.110
69143W        W34304  31.117   2.872   3.751
69144W        W34305  22.481  30.104  11.207
69145W        W34306  19.600   2.977  13.921
69146W        W34307  40.907  14.573  12.670
69147W        W34308  31.551  40.370   0.655
69148W        W34309  43.857  18.079  11.595
69149W        W34310  39.725  28.182   3.180
69150W        W34311  33.012  29.632  13.428
69151W        W34312   1.446  22.321   4.311
69152W        W34313  26.033  13.531   5.469
69153W        W34314   4.634  39.886  12.363
69154W        W34315  21.455  22.996   1.279
69155W        W34316  17.685   9.534   3.168
69156W        W34317  35.659  30.513   0.362
69157W        W34318   9.391  26.941   5.015
69158W        W34319  33.869  37.055  10.266
69159W        W34320  28.600  12.712   4.169
69160W        W34321  32.054  25.202   2.775
69161W        W34322  19.560  33.940  13.300
69162W        W34323  13.254  10.029   3.707
69163W        W34324   4.522  13.217  13.899
69164W        W34325   1.209  25.697   3.684
69165W        W34326   9.816   1.929   1.697
69166W        W34327   1.534  15.306  11.023
69167W        W34328  37.498  30.990   0.333
69168W        W34329  30.541  30.974   5.082
69169W        W34330   4.091  18.235   2.037
69170W        W34331   0.177  39.871   3.575
69171W        W34332  37.324  10.300   2.306
69172W        W34333  33.845  21.117  12.010
69173W        W34334  18.228  19.764   3.182
69174W        W34335  33.920  27.097   0.218
69175W        W34336   2.245  19.813   5.042
69176W        W34337  34.954  12.189   3.661
69177W        W34338  13.281  42.475   4.941
69178W        W34339   1.579   0.245  11.828
69179W        W34340   7.147  41.367   4.608
69180W        W34341  37.678  27.205   3.765
69181W        W34342  42.360  13.816  10.688
69182W        W34343  24.129  17.264   5.020
69183W        W34344  32.338  21.471   2.928
69184W        W34345  34.457  13.228  12.064
69185W        W34346  33.891  10.265  14.295
69186W        W34347  40.591  38.070  14.769
69187W        W34348  31.957  36.300  12.004
69188W        W34349  27.704   4.147   4.027
69189W        W34350   9.224   6.972  11.483
69190W        W34351   9.623   8.227  10.736
69191W        W34352  36.169   7.887  13.987
69192W        W34353  28.936  35.512   1.724
69193W        W34354  23.029  18.426   3.119
69194W        W34355  35.829  32.545  12.365
69195W        W34356  36.467  26.697   1.915
69196W        W34357  26.219  29.420  12.921
69197W        W34358   5.729  23.044   2.285
69198W        W34359  40.796  20.546  10.767
69199W        W34360   4.458  10.668  10.005
69200W        W34361   5.377  38.661  11.611
69201W        W34362   3.232  30.031  13.091
69202W        W34363  39.894  40.568  10.317
69203W        W34364  31.171  42.428  11.084
69204W        W34365  21.195  43.720   4.630
69205W        W34366  44.365  44.915  13.608
69206W        W34367  16.177  28.624  11.793
69207W        W34368  28.463  44.373  14.030
69208W        W34369  32.678  40.106   0.669
69209W        W34370  24.931  34.784   1.895
69210W        W34371   7.966  30.240   3.319
69211W        W34372  43.759  31.534   3.574
69212W        W34373  16.205  36.279   1.794
69213W        W34374  30.609  12.228   4.772
69214W        W34375   1.451  14.921  11.975
69215W        W34376  31.009  18.687  14.818
69216W        W34377  27.814  41.083  10.966
69217W        W34378  37.835   0.269   3.432
69218W        W34379  20.363  14.229   4.196
69219W        W34380  21.252   5.491  13.475
69220W        W34381  13.744  41.834   2.641
69221W        W34382  35.574  32.489   3.215
69222W        W34383  40.770  31.200   0.387
69223W        W34384  44.876  22.118  14.567
69224W        W34385  33.065  34.331   3.696
69225W        W34386  20.762  43.213  10.165
69226W        W34387  28.966  43.980   4.577
69227W        W34388  23.772   5.314  10.633
69228W        W34389  13.706  18.682   1.309
69229W        W34390  43.086  24.654   2.776
69230W        W34391  32.077  17.474  10.987
69231W        W34392  39.049  16.592   4.914
69232W        W34393  30.709  42.824   1.849
69233W        W34394   3.359  17.093   4.233
69234W        W34395  12.169  19.534  12.512
69235W        W34396   1.806   0.385  13.579
69236W        W34397  16.801  42.645  10.663
69237W        W34398  18.312   2.272  10.734
69238W        W34399  31.544  39.778   1.234
69239W        W34400  22.938  18.040  13.005
69240W        W34401   8.746  14.311   2.045
69241W        W34402  24.272  31.487   1.770
69242W        W34403   4.723  23.375   5.049
69243W        W34404   8.998   2.502   3.821
69244W        W34405  20.143  44.913  13.844
69245W        W34406   4.658   9.587  13.939
69246W        W34407  27.154   0.272   2.144
69247W        W34408   1.540   1.947   4.557
69248W        W34409  36.784  16.101  13.749
69249W        W34410  43.379  30.612   2.659
69250W        W34411  22.664   7.248   4.669
69251W        W34412  11.278   6.871   3.180
69252W        W34413  15.100   1.713   4.179
69253W        W34414   3.827  23.034  13.204
69254W        W34415  17.446   3.903  11.344
69255W        W34416   7.560  25.746   9.797
69256W        W34417  41.070  16.748  13.046
69257W        W34418  39.084  14.836   1.356
69258W        W34419  18.513  21.659  14.126
69259W        W34420   9.121  17.583   4.464
69260W        W34421  35.941  42.356  12.469
69261W        W34422  36.084  10.409  11.303
69262W        W34423  20.662  32.810  11.736
69263W        W34424  28.691  29.291  12.582
69264W        W34425  41.273  31.643   4.689
69265W        W34426  32.402  30.089   3.836
69266W        W34427  34.473  23.990   3.263
69267W        W34428  10.320   7.751  13.014
69268W        W34429  18.549  35.578  11.806
69269W        W34430  29.436  17.682   1.229
69270W        W34431  28.099   0.262   4.855
69271W        W34432  17.257   2.340  10.605
69272W        W34433  44.440   9.651  14.968
69273W        W34434   1.215  25.117  14.966
69274W        W34435  35.283  25.962   4.187
69275W        W34436  40.394  31.515  14.079
69276W        W34437  30.941  12.830  10.577
69277W        W34438  13.860  35.535   2.349
69278W        W34439   2.549  25.652   1.457
69279W        W34440   9.069  40.820   0.407
69280W        W34441  28.152  21.924  13.475
69281W        W34442  17.180   7.971   4.554
69282W        W34443   2.552  36.009   4.717
69283W        W34444  25.026   7.944   0.861
69284W        W34445  23.082  32.515  11.896
69285W        W34446  33.594   7.176  12.917
69286W        W34447  12.840  11.600   1.061
69287W        W34448   2.327   4.680   0.530
69288W        W34449  30.661   5.829  10.824
69289W        W34450  33.437  41.791  11.962
69290W        W34451  40.871  32.562  13.544
69291W        W34452  15.429  27.024   2.758
69292W        W34453   0.155   2.008   3.429
69293W        W34454  40.527  24.150   4.573
69294W        W34455  15.382   7.115   3.262
69295W        W34456  42.949  16.571   0.585
69296W        W34457  32.536  17.782  12.018
69297W        W34458  36.391  38.010  11.534
69298W        W34459  31.586  13.154  12.730
69299W        W34460  21.489  12.053  14.411
69300W        W34461  11.816   2.752  10.698
69301W        W34462  17.635   4.695  14.409
69302W        W34463  19.571  29.055  13.590
69303W        W34464   1.334  42.499   4.688
69304W        W34465  29.474  41.783  11.099
69305W        W34466  31.657  42.181   0.007
69306W        W34467  16.700  28.544  12.445
69307W        W34468  38.115  14.964   4.225
69308W        W34469  40.400  14.622  12.853
69309W        W34470  13.393   2.236  11.171
69310W        W34471  20.455  18.340  13.166
69311W        W34472  29.993   1.419   4.353
69312W        W34473  32.349  15.688   1.253
69313W        W34474   4.626  12.248  10.849
69314W        W34475   1.422   0.317   2.235
69315W        W34476  23.367  14.215   3.189
69316W        W34477   9.009  30.851   0.899
69317W        W34478  17.209   5.409   2.768
69318W        W34479  16.980  15.816  14.387
69319W        W34480  22.442  11.341   3.455
69320W        W34481  28.430  35.481   1.984
69321W        W34482  44.639  39.817  13.034
69322W        W34483   2.221  11.941   4.024
69323W        W34484  15.083  19.831  14.326
69324W        W34485  31.085  26.737  11.969
69325W        W34486  32.718  19.236   0.004
69326W        W34487  21.977   7.972  12.029
69327W        W34488  13.202  42.382  11.189
69328W        W34489   6.754  30.876   1.839
69329W        W34490  10.656  29.559  13.130
69330W        W34491  31.614   4.980  10.286
69331W        W34492  39.956   9.143  14.066
69332W        W34493  17.582  27.958   2.428
69333W        W34494  21.524  30.042  10.743
69334W        W34495  11.697  13.704  10.370
69335W        W34496  32.062  19.784  10.357
69336W        W34497  41.055   7.645   1.067
69337W        W34498  30.621   5.878   0.907
69338W        W34499  21.925   1.671   2.209
69339W        W34500  19.328  39.165   0.947
69340W        W34501  18.678   6.366  14.215
69341W        W34502  44.514  25.943  13.943
69342W        W34503  27.055  43.039  14.491
69343W        W34504   9.827  31.198   2.164
69344W        W34505  15.072   5.384  14.870
69345W        W34506  43.701  29.199   2.939
69346W        W34507   7.973  37.869   2.345
69347W        W34508  29.408   6.434  11.564
69348W        W34509  38.988  41.822  10.311
69349W        W34510  37.011   5.685  12.382
69350W        W34511  41.286   5.938   2.985
69351W        W34512   0.511  11.068   2.491
69352W        W34513  12.458   2.354   0.233
69353W        W34514  32.481  15.723  14.714
69354W        W34515  31.928   5.672   1.756
69355W        W34516  37.930  35.168  12.231
69356W        W34517  14.787   4.725   3.192
69357W        W34518  42.498  24.006  13.856
69358W        W34519  13.773  15.667   2.847
69359W        W34520  33.184  39.831   0.271
69360W        W34521  33.492  40.405  12.644
69361W        W34522  16.725  37.417   1.907
69362W        W34523  30.107  15.669  13.816
69363W        W34524   6.796  16.836   2.343
69364W        W34525  16.173  42.327   2.356
69365W        W34526  30.968   0.341  13.288
69366W        W34527  13.359  18.312  12.062
69367W        W34528  42.979  31.936  14.879
69368W        W34529  21.130  20.618  12.330
69369W        W34530   2.815  20.179  10.693
69370W        W34531   8.114  20.480   1.671
69371W        W34532  27.488  17.651   2.680
69372W        W34533  41.740  36.591   3.711
69373W        W34534  40.335  34.946   4.938
69374W        W34535  19.323  32.769   1.825
69375W        W34536  40.681   6.410   2.575
69376W        W34537  42.487  10.213   2.194
69377W        W34538  16.168  24.765   3.647
69378W        W34539  24.827   9.171  11.992
69379W        W34540  35.934   5.952  13.989
69380W        W34541   1.835  11.498   1.457
69381W        W34542  26.657  26.978   2.187
69382W        W34543  40.416  37.403   4.154
69383W        W34544  40.548  33.991  10.633
69384W        W34545  37.668  41.968   3.691
69385W        W34546   1.006  28.092   0.349
69386W        W34547  16.256  42.570  14.441
69387W        W34548  36.221  14.125  12.366
69388W        W34549  18.184  33.223   4.119
69389W        W34550   2.974   5.222   4.563
69390W        W34551  32.538  31.509   1.358
69391W        W34552   7.483  11.612  10.390
69392W        W34553  38.201  25.466   5.059
69393W        W34554  13.672  41.334   4.375
69394W        W34555  34.915  40.118   9.723
69395W        W34556   0.344  32.578   0.299
69396W        W34557  40.556  32.702   1.440
69397W        W34558  18.266  25.430   4.275
69398W        W34559  39.091  37.282   4.656
69399W        W34560  13.687  40.397   0.953
69400W        W34561  25.989  37.951   1.372
69401W        W34562  15.176   0.851  10.771
69402W        W34563  34.498   8.210   2.202
69403W        W34564  40.871   1.018  12.963
69404W        W34565  24.802  30.915  11.023
69405W        W34566  17.490  15.656  11.718
69406W        W34567   8.505  37.691   2.848
69407W        W34568  26.071   3.331   4.142
69408W        W34569  11.176  21.501  11.043
69409W        W34570  16.121  21.258   1.757
69410W        W34571   3.517   5.935   1.387
69411W        W34572  21.739   2.867  10.741
69412W        W34573  15.673   8.347   4.558
69413W        W34574  23.246  29.649   0.199
69414W        W34575  39.625  32.009  13.738
69415W        W34576  16.336  42.484  12.464
69416W        W34577   7.605  34.144   0.300
69417W        W34578  31.235  35.422   3.276
69418W        W34579  14.246  36.182  11.629
69419W        W34580  39.458   0.842   0.963
69420W        W34581   0.475  33.099  13.084
69421W        W34582  22.647  36.254  12.675
69422W        W34583   8.808  44.719   4.176
69423W        W34584  25.033  38.829   1.687
69424W        W34585  40.261   8.927   3.818
69425W        W34586  26.547   0.765  11.559
69426W        W34587  44.985  44.276   0.477
69427W        W34588  35.656  17.569  12.827
69428W        W34589  34.405  44.070   1.750
69429W        W34590  44.987  12.330  10.240
69430W        W34591  24.590   1.752  14.011
69431W        W34592  19.040   9.056  14.446
69432W        W34593  15.079  22.747  12.647
69433W        W34594  12.226  22.550   4.367
69434W        W34595   2.899   9.350   4.626
69435W        W34596   4.866  19.770  11.669
69436W        W34597   9.360  18.130  12.002
69437W        W34598   3.452  41.320  10.267
69438W        W34599  34.013  12.792   3.201
69439W        W34600  23.550   0.926   4.456
69440W        W34601  19.643  35.458   1.836
69441W        W34602  39.616   8.364  14.886
69442W        W34603  23.193   4.583   3.674
69443W        W34604  34.171  23.543  11.101
69444W        W34605   9.926  42.608  12.947
69445W        W34606  43.297  31.399   3.355
69446W        W34607   8.306   9.918   1.271
69447W        W34608  26.469  34.689   0.456
69448W        W34609  24.881  19.764  12.490
69449W        W34610  34.654  44.224  12.947
69450W        W34611   9.807  29.549  12.581
69451W        W34612  19.287  22.649  13.988
69452W        W34613  16.863  13.169  13.012
69453W        W34614  41.884  19.440  11.295
69454W        W34615  13.334  40.795  13.524
69455W        W34616  21.821   7.437  14.336
69456W        W34617  14.754  28.200   1.296
69457W        W34618  20.901  15.828  14.852
69458W        W34619   3.737  32.657  14.583
69459W        W34620  38.683  18.606  11.131
69460W        W34621   9.782   7.770  12.922
69461W        W34622  44.137  30.439   1.287
69462W        W34623  38.325   4.937   4.687
69463W        W34624  35.615   0.871  13.112
69464W        W34625  22.356   1.406  11.443
69465W        W34626  43.342  35.707  13.097
69466W        W34627   7.449  35.290  12.921
69467W        W34628   9.722   7.359   1.747
69468W        W34629  30.099  37.365  14.934
69469W        W34630  25.104  36.507   3.138
69470W        W34631  30.503  37.134   2.736
69471W        W34632  30.063  13.827   4.150
69472W        W34633  22.288  13.931   9.996
69473W        W34634  17.263  35.084  12.011
69474W        W34635  33.597  34.123  11.118
69475W        W34636  36.823  23.643   0.411
69476W        W34637  29.573  37.335   2.271
69477W        W34638  38.084  20.302  12.999
69478W        W34639  40.012  14.133  14.043
69479W        W34640  15.916  17.114  13.598
69480W        W34641  37.060  36.124  10.531
69481W        W34642  27.865   1.291  10.595
69482W        W34643  19.326  29.591   0.432
69483W        W34644  36.981  37.062   2.765
69484W        W34645  37.775  10.214   3.859
69485W        W34646  40.745  27.095   4.757
69486W        W34647  24.425   9.407  14.371
69487W        W34648  18.233  16.507  12.822
69488W        W34649  19.563   2.503  14.418
69489W        W34650  14.538   7.937  11.394
69490W        W34651  14.078  27.555  12.041
69491W        W34652  41.755  40.142   4.095
69492W        W34653  41.519  30.867  12.434
69493W        W34654   9.086  43.502   5.124
69494W        W34655   5.236  39.826  13.870
69495W        W34656  36.374  29.110  10.280
69496W        W34657  15.781   2.240  14.539
69497W        W34658  18.702  41.448   4.394
69498W        W34659   4.903   3.247   2.286
69499W        W34660  40.994  42.090   1.391
69500W        W34661  20.676  24.452  11.714
69501W        W34662  35.501  13.393  13.572
69502W        W34663  12.761  28.154   3.196
69503W        W34664  25.238  17.405   3.202
69504W        W34665  44.447  22.323   4.047
69505W        W34666  20.785  13.708  12.810
69506W        W34667  44.971   8.764   0.889
69507W        W34668  38.357  35.943   0.912
69508W        W34669  38.535  20.038  13.055
69509W        W34670   4.262   8.927  13.803
69510W        W34671  33.788  37.660   2.670
69511W        W34672  36.859   3.019  10.691
69512W        W34673   2.893  13.200  12.472
69513W        W34674   6.463  21.793  12.195
69514W        W34675  21.557  18.723   1.210
69515W        W34676   4.729  42.271   0.507
69516W        W34677  28.993  43.613   3.654
69517W        W34678  37.899  17.507  11.903
69518W        W34679  20.081  13.749  13.387
69519W        W34680  15.937  42.648   0.259
69520W        W34681  12.131  20.580   3.180
69521W        W34682  23.012  10.912   2.713
69522W        W34683  40.605  26.559   2.449
69523W        W34684  31.994   9.423   2.520
69524W        W34685  23.598  41.820   1.060
69525W        W34686   4.054  14.627  10.464
69526W        W34687  23.295  27.457   4.553
69527W        W34688   0.811  41.164   0.986
69528W        W34689  43.788  26.593   0.848
69529W        W34690  42.890  22.906  14.285
69530W        W34691  14.221  39.859  14.820
69531W        W34692  18.202  43.999  10.406
69532W        W34693  15.702  16.180   2.676
69533W        W34694  35.302  11.636   3.829
69534W        W34695  22.995   3.569  14.559
69535W        W34696  14.254  34.031  13.375
69536W        W34697  15.543   1.994  11.716
69537W        W34698   5.183   0.953   0.565
69538W        W34699   2.225  17.685  12.565
69539W        W34700  44.080  13.341   4.670
69540W        W34701  21.240  26.677  13.377
69541W        W34702   1.991   1.499   0.274
69542W        W34703  16.686   0.534   4.093
69543W        W34704  34.891  40.849  13.826
69544W        W34705  43.653  29.394  11.848
69545W        W34706  37.415   8.615  13.824
69546W        W34707  26.627  40.541   4.509
69547W        W34708  42.542  16.542  10.405
69548W        W34709  33.914  19.059   3.705
69549W        W34710  13.557  41.383  14.105
69550W        W34711  12.663  17.743  13.069
69551W        W34712  20.008  42.101   3.754
69552W        W34713  20.701  31.565   4.176
69553W        W34714  24.256   2.394  13.961
69554W        W34715  16.424  21.549   4.478
69555W        W34716  19.204   5.923   3.644
69556W        W34717  37.431  30.795  14.835
69557W        W34718  11.516  26.778  11.578
69558W        W34719  36.114  37.365   2.708
69559W        W34720  21.648   4.109  13.418
69560W        W34721  32.511  33.563   0.953
69561W        W34722  40.687  40.348  13.186
69562W        W34723  32.602   1.290   0.418
69563W        W34724   7.275  34.063  13.943
69564W        W34725  40.830  31.611  14.337
69565W        W34726  41.576  36.175  13.234
69566W        W34727  18.041  27.620   0.796
69567W        W34728   8.402  14.902  12.913
69568W        W34729  31.581  23.410  13.286
69569W        W34730  11.144  44.802   1.763
69570W        W34731  24.458  36.882  10.565
69571W        W34732   8.211  20.810  14.961
69572W        W34733  33.018  40.871  12.156
69573W        W34734  34.130  36.196   2.898
69574W        W34735  14.704  12.731  13.531
69575W        W34736  43.188   4.688   2.768
69576W        W34737  16.921   0.982  13.259
69577W        W34738  13.038   5.902  14.724
69578W        W34739   2.722  26.499   5.693
69579W        W34740  28.280   2.278  14.421
69580W        W34741  17.330  22.650   4.038
69581W        W34742  35.258  28.007  12.352
69582W        W34743   6.377  41.527   0.001
69583W        W34744  41.778  22.325   2.116
69584W        W34745  26.113  34.987   3.206
69585W        W34746  14.652  18.107  13.917
69586W        W34747  26.537  33.242  11.081
69587W        W34748   0.389  36.973   0.287
69588W        W34749  44.166  27.187  13.297
69589W        W34750  39.823   9.675   0.267
69590W        W34751  27.659  28.191   1.522
69591W        W34752  37.586  17.039   1.286
69592W        W34753  33.528   9.653   2.691
69593W        W34754  37.602  30.224  14.474
69594W        W34755  18.047  29.514   0.108
69595W        W34756   8.885  27.983   2.202
69596W        W34757  38.910  22.168   0.362
69597W        W34758  35.998  12.231   0.735
69598W        W34759  14.803  20.546   3.247
69599W        W34760  21.520  24.314  14.802
69600W        W34761  31.708   5.769  11.366
69601W        W34762   1.798  10.775  10.183
69602W        W34763  24.028  39.471   0.387
69603W        W34764  11.366  37.458  10.576
69604W        W34765  35.510  15.304  10.782
69605W        W34766  17.783   0.877   1.450
69606W        W34767  17.440  13.738  11.728
69607W        W34768   1.358  43.984   0.087
69608W        W34769  32.072  13.823   3.672
69609W        W34770  40.612   8.421  14.734
69610W        W34771  18.058  26.000  11.595
69611W        W34772  15.090  27.903  12.915
69612W        W34773  21.776  31.506  11.588
69613W        W34774  32.644  42.827   3.186
69614W        W34775  38.548   8.396   0.036
69615W        W34776  15.619  14.026   3.692
69616W        W34777   0.701   4.387  11.133
69617W        W34778  20.459  23.969  11.626
69618W        W34779  12.734  23.225   0.163
69619W        W34780  36.660  34.838   4.335
69620W        W34781  31.944  32.526  13.870
69621W        W34782   3.934  41.803  13.518
69622W        W34783  31.580   1.801  14.535
69623W        W34784  36.401  34.470   0.191
69624W        W34785  40.320  33.094   1.697
69625W        W34786  25.653  33.577  12.174
69626W        W34787  21.778  28.181  14.222
69627W        W34788   4.811   3.459   0.228
69628W        W34789  11.841  18.045  13.805
69629W        W34790   7.740  24.498  11.500
69630W        W34791  34.581  31.728  13.555
69631W        W34792  41.775  16.121  10.632
69632W        W34793  36.219  20.152  12.886
69633W        W34794  34.427   3.369   2.903
69634W        W34795  26.368  13.148   2.225
69635W        W34796   9.279  38.958   0.716
69636W        W34797  11.831  13.302  10.668
69637W        W34798  13.639  32.015   0.349
69638W        W34799  31.509   7.920   3.702
69639W        W34800   0.769  27.192  13.549
69640W        W34801  34.491  13.235   1.141
69641W        W34802  25.641   6.171   2.929
69642W        W34803  22.128  34.669   1.170
69643W        W34804  29.942  43.410  12.248
69644W        W34805  22.741  11.124  13.398
69645W        W34806  14.632   3.232  12.596
69646W        W34807  30.042  39.052  10.098
69647W        W34808  26.226  33.105   2.750
69648W        W34809  37.917  27.153   1.173
69649W        W34810  23.131  37.948  13.972
69650W        W34811  17.841  27.171   0.710
69651W        W34812   4.219   9.459   0.755
69652W        W34813   4.459  29.918  11.490
69653W        W34814  39.473  31.226  12.093
69654W        W34815  15.583   5.209   0.825
69655W        W34816  42.829  22.020  13.962
69656W        W34817  41.874  11.723   0.373
69657W        W34818  22.249  43.473  13.715
69658W        W34819  32.937  44.698  13.934
69659W        W34820  22.614  27.932   0.378
69660W        W34821  43.772  14.619   4.173
69661W        W34822  13.800  26.379  13.439
69662W        W34823   4.689  37.520  14.586
69663W        W34824  25.748  12.243   2.822
69664W        W34825  23.728   0.772  14.452
69665W        W34826  17.586  40.487   3.696
69666W        W34827  17.992   2.843   1.762
69667W        W34828  42.923   6.609  13.360
69668W        W34829  41.742  33.158   0.804
69669W        W34830  44.495  22.184   1.363
69670W        W34831  17.307  35.339  10.694
69671W        W34832  35.999  27.628   4.224
69672W        W34833  36.389  37.906   1.867
69673W        W34834  21.300   0.903   9.829
69674W        W34835  20.504  30.171   0.219
69675W        W34836  30.352  23.380  12.009
69676W        W34837  18.865  24.160   0.527
69677W        W34838   6.125   6.119   1.770
69678W        W34839  33.490  30.655  13.715
69679W        W34840  44.894   1.177   1.135
69680W        W34841   9.740  36.070  13.611
69681W        W34842  18.699  42.266   1.791
69682W        W34843  20.802   1.337   0.224
69683W        W34844   3.486  28.858   2.200
69684W        W34845  10.465  15.570   4.134
69685W        W34846  12.538  24.600   0.903
69686W        W34847  44.863   4.513   0.405
69687W        W34848  33.226   2.043   0.380
69688W        W34849  36.013  26.283   4.897
69689W        W34850  40.349  35.969   0.885
69690W        W34851   9.955  42.376   2.759
69691W        W34852   4.173  25.039   4.916
69692W        W34853  24.648  16.184  14.223
69693W        W34854  41.771   9.829   2.435
69694W        W34855  14.089   4.118   2.161
69695W        W34856  10.682  12.401   3.562
69696W        W34857  33.607   8.982   0.044
69697W        W34858  33.891   6.056  12.123
69698W        W34859   5.021  20.647   0.381
69699W        W34860  26.455  42.895   4.774
69700W        W34861  16.358  12.215   0.917
69701W        W34862  17.607  13.007   4.563
69702W        W34863  21.296  28.948   1.196
69703W        W34864  16.020  27.546  10.346
69704W        W34865   3.255  33.320  12.442
69705W        W34866   5.357  38.512   1.228
69706W        W34867  33.154   9.930   0.939
69707W        W34868  36.291  25.460   0.359
69708W        W34869  22.012  27.417  11.162
69709W        W34870  43.999  19.657   4.517
69710W        W34871  26.779   7.269   3.860
69711W        W34872  27.946  44.487   1.172
69712W        W34873  14.716  34.404  11.613
69713W        W34874  35.544   2.453  12.428
69714W        W34875  24.970  20.079   2.182
69715W        W34876  31.743   3.949  12.868
69716W        W34877   4.284   4.693  11.429
69717W        W34878  19.718  43.725  11.866
69718W        W34879  40.824  36.847  11.287
69719W        W34880   7.533   6.087   5.437
69720W        W34881  39.006  12.227  12.555
69721W        W34882  36.412  25.117  13.638
69722W        W34883  19.944  12.341   3.801
69723W        W34884  24.679  38.403   1.375
69724W        W34885  40.988  22.543  11.717
69725W        W34886  42.915  25.536   5.016
69726W        W34887  35.443  34.353  14.785
69727W        W34888  16.159  30.033   4.158
69728W        W34889  11.641   0.257   3.195
69729W        W34890   6.778  15.207  12.566
69730W        W34891  19.887  34.062  12.444
69731W        W34892  41.983  23.904   3.736
69732W        W34893   2.721  40.601  10.784
69733W        W34894  41.805   2.259  11.644
69734W        W34895  12.718  38.544   0.547
69735W        W34896  18.951  13.729   2.602
69736W        W34897  27.166   8.456  14.352
69737W        W34898   9.859  23.586  12.426
69738W        W34899  35.323  14.408   3.773
69739W        W34900  29.905  38.304   1.418
69740W        W34901  42.648  31.847   4.587
69741W        W34902  36.667   3.648  10.729
69742W        W34903   7.879  21.006  10.314
69743W        W34904  30.470  21.806   1.678
69744W        W34905  25.896  37.291   3.970
69745W        W34906  37.341  12.103   1.918
69746W        W34907  14.622   0.196   4.984
69747W        W34908  11.300   5.384   1.391
69748W        W34909  34.511  37.087   3.862
69749W        W34910  41.810   5.618   4.894
69750W        W34911  32.088  23.769  12.831
69751W        W34912  14.800  28.567   0.385
69752W        W34913  39.709   4.428   2.797
69753W        W34914  36.892  23.663   3.113
69754W        W34915  19.794  25.901  10.826
69755W        W34916   6.272  23.301  13.613
69756W        W34917  22.161  19.793   4.571
69757W        W34918  17.246  11.658  10.727
69758W        W34919  12.663  33.547   2.730
69759W        W34920   0.446  10.775   3.348
69760W        W34921  34.246  44.718  13.631
69761W        W34922  38.956  26.575   5.133
69762W        W34923   3.483  29.090  10.651
69763W        W34924  20.021  12.130   0.914
69764W        W34925  34.379  11.422   1.702
69765W        W34926  26.718  34.305   3.298
69766W        W34927  28.404  43.848  13.991
69767W        W34928   7.749  12.402   2.299
69768W        W34929  13.691  24.624   2.620
69769W        W34930  22.112   3.697   3.348
69770W        W34931  23.713  11.136  14.512
69771W        W34932  38.664   7.840  12.198
69772W        W34933   7.769   1.481   3.356
69773W        W34934  17.072  20.284   4.107
69774W        W34935  15.476  43.392  13.974
69775W        W34936  32.847   6.631  11.509
69776W        W34937   4.320  40.873  10.739
69777W        W34938   6.023   2.421  12.818
69778W        W34939  32.435  22.057   2.222
69779W        W34940   2.962  26.007   2.335
69780W        W34941   0.286  22.961  13.417
69781W        W34942  11.386  37.510   4.633
69782W        W34943  28.860  42.346   4.494
69783W        W34944   5.473  39.448   2.376
69784W        W34945   7.199  26.445   2.884
69785W        W34946  41.903  29.217  14.462
69786W        W34947  16.019  20.731  11.056
69787W        W34948  18.780  38.335  13.953
69788W        W34949  30.803  15.769   2.755
69789W        W34950  22.683  36.950  14.795
69790W        W34951  28.000  33.134   2.344
69791W        W34952  26.333  21.484   4.986
69792W        W34953  36.405  43.571   0.908
69793W        W34954  33.895  39.180   0.777
69794W        W34955  18.188  26.480   1.287
69795W        W34956  24.584  29.165   3.634
69796W        W34957   1.830   1.489  11.125
69797W        W34958  13.952  15.257  13.018
69798W        W34959  26.569  28.934   4.371
69799W        W34960   6.197  24.837  10.259
69800W        W34961  15.717  12.104   3.188
69801W        W34962  22.555  31.999  10.835
69802W        W34963   2.459   9.630   4.520
69803W        W34964   4.978  18.787  11.614
69804W        W34965  36.514  30.141  13.488
69805W        W34966  29.509  35.521  14.185
69806W        W34967   2.832  36.009   3.271
69807W        W34968  21.078  24.957   2.893
69808W        W34969  27.607  33.957  11.185
69809W        W34970  24.975  13.673  13.852
69810W        W34971   6.930  15.161  13.908
69811W        W34972  15.332  35.504  13.416
69812W        W34973  34.523  12.739   3.091
69813W        W34974   1.455  30.644  10.572
69814W        W34975  23.718  16.146  10.382
69815W        W34976  23.703  18.561  13.923
69816W        W34977  35.303  40.595   3.800
69817W        W34978   6.763  34.011  14.157
69818W        W34979  14.217   6.934  12.175
69819W        W34980  32.388  38.196  10.829
69820W        W34981  32.024  41.966   2.578
69821W        W34982  26.166  13.192  11.955
69822W        W34983  41.535  30.997  10.789
69823W        W34984  38.012  33.998  12.864
69824W        W34985  32.278  40.855   3.178
69825W        W34986  42.591  33.028  11.370
69826W        W34987  43.995  24.667   2.307
69827W        W34988  20.546   5.789  10.711
69828W        W34989  39.432  10.700  10.605
69829W        W34990  13.309  33.083  13.575
69830W        W34991  35.853   9.094  12.541
69831W        W34992  19.748  44.185   2.910
69832W        W34993  11.631  36.238   1.835
69833W        W34994  17.256  15.163   2.321
69834W        W34995  17.329  27.954  12.568
69835W        W34996  28.543  35.795   3.415
69836W        W34997  13.631  32.338   0.769
69837W        W34998  12.755   6.913   4.518
69838W        W34999  37.928  32.694  10.665
69839W        W35000  29.950  19.081   0.724
69840W        W35001  20.394  43.965  14.060
69841W        W35002  20.876   0.600   2.924
69842W        W35003   0.207  11.998  10.924
69843W        W35004  40.905  38.073   4.596
69844W        W35005   0.446  31.050   0.192
69845W        W35006  38.405  21.352   0.039
69846W        W35007  21.295  38.956  12.623
69847W        W35008  14.086  15.745  12.993
69848W        W35009  12.885   2.382   0.513
69849W        W35010   6.460  20.209   3.985
69850W        W35011  22.446  17.138  10.609
69851W        W35012   5.404  32.948   1.285
69852W        W35013  29.003  30.047   3.898
69853W        W35014  26.383  35.420   5.400
69854W        W35015  36.468  20.124  11.117
69855W        W35016  43.320  22.718   4.202
69856W        W35017  28.583  29.942  13.374
69857W        W35018  41.122  21.173  11.586
69858W        W35019  15.879  11.264  10.722
69859W        W35020  37.353  32.883   3.990
69860W        W35021  26.160  38.811  12.914
69861W        W35022   6.336  10.118   0.298
69862W        W35023   9.647  42.055   2.467
69863W        W35024  22.713  37.628  13.079
69864W        W35025  25.421  23.248   1.383
69865W        W35026   5.515  24.604  11.893
69866W        W35027  22.549  34.928  10.940
69867W        W35028   0.513  23.747   3.243
69868W        W35029  35.423  14.542  10.730
69869W        W35030  34.167  41.385   4.175
69870W        W35031  27.010  36.891  14.243
69871W        W35032  42.043  41.957   1.241
69872W        W35033  39.915  20.215   2.419
69873W        W35034  42.049   8.622   5.028
69874W        W35035  30.115  17.817   1.791
69875W        W35036   3.408  16.872   4.681
69876W        W35037  29.401   0.317   4.537
69877W        W35038  27.231  15.099  11.155
69878W        W35039  24.596  26.732   1.765
69879W        W35040   3.387  22.991  12.938
69880W        W35041  17.013   4.928  10.248
69881W        W35042  19.115  20.265   1.597
69882W        W35043  31.089   5.758   4.640
69883W        W35044  27.133  24.838   4.544
69884W        W35045  23.796   7.357   4.721
69885W        W35046  42.955   7.779   0.950
69886W        W35047  22.055  34.601   4.189
69887W        W35048  27.068  19.758   3.700
69888W        W35049  39.734  11.731  13.615
69889W        W35050  22.077   9.220   2.131
69890W        W35051  40.934  37.326   3.734
69891W        W35052  28.885   1.222   0.924
69892W        W35053  31.213   4.682   0.747
69893W        W35054  38.381  30.857  14.834
69894W        W35055  34.593  24.767   3.692
69895W        W35056  37.956  43.020  14.643
69896W        W35057  25.972   5.698  10.579
69897W        W35058   4.971   3.060  13.538
69898W        W35059  33.660  44.114  14.300
69899W        W35060  19.736  29.117   1.006
69900W        W35061   7.283  43.379   2.330
69901W        W35062  38.884  19.347   3.198
69902W        W35063  16.995   3.380   1.967
69903W        W35064   2.699  22.909  13.567
69904W        W35065  41.043   2.989  12.970
69905W        W35066  28.079  31.323  12.425
69906W        W35067  24.921  23.657  14.494
69907W        W35068  23.530  18.609  12.889
69908W        W35069  12.382  26.265  11.152
69909W        W35070   8.946  36.151   4.745
69910W        W35071  28.193   0.482  13.951
69911W        W35072  29.934   0.766  13.443
69912W        W35073  39.345  36.503   4.036
69913W        W35074  41.887  43.505  13.971
69914W        W35075   7.791  29.764   3.466
69915W        W35076   1.213  34.544  13.908
69916W        W35077  29.420  25.504   1.856
69917W        W35078  33.622   6.857  12.523
69918W        W35079  18.608  41.505  13.411
69919W        W35080  22.228  37.402  14.977
69920W        W35081  19.170  37.372  12.038
69921W        W35082  22.284   2.434  14.207
69922W        W35083   3.217  12.788  13.573
69923W        W35084  11.593  11.748  14.232
69924W        W35085  19.866   0.346   4.619
69925W        W35086   5.852  24.624   3.722
69926W        W35087   5.534  18.552   0.332
69927W        W35088  25.786  23.633   1.266
69928W        W35089  29.950   3.274  10.826
69929W        W35090  23.668  30.139   1.008
69930W        W35091  33.866   5.864   2.631
69931W        W35092  43.750  14.843   3.697
69932W        W35093   3.313  33.648  12.009
69933W        W35094  29.059   9.424  10.398
69934W        W35095  10.686  15.267   1.394
69935W        W35096  10.565  43.535   1.835
69936W        W35097  38.124  20.993  11.163
69937W        W35098  30.046  32.672  14.933
69938W        W35099  10.140  18.642   1.186
69939W        W35100   4.355   5.505   0.105
69940W        W35101  13.908  30.407  11.553
69941W        W35102  21.836  44.945  12.129
69942W        W35103   9.261   8.233  11.735
69943W        W35104  24.976  15.657  14.837
69944W        W35105   2.011   7.232  11.643
69945W        W35106  40.439  32.352  13.743
69946W        W35107  28.865  23.701   1.724
69947W        W35108  33.816  14.581  14.012
69948W        W35109   4.647  26.591   2.234
69949W        W35110  17.040  30.640   9.812
69950W        W35111  26.321  14.797  11.189
69951W        W35112  18.735  22.238   3.722
69952W        W35113  29.352  42.052  13.437
69953W        W35114  20.155   7.182   1.029
69954W        W35115  36.965   6.764  13.874
69955W        W35116   4.480  40.273   1.687
69956W        W35117  44.501  31.082  11.145
69957W        W35118  35.621   2.916   0.426
69958W        W35119   9.954  32.107   2.163
69959W        W35120  41.631   8.657  11.176
69960W        W35121   9.347  21.192   9.985
69961W        W35122  29.031  13.618  12.128
69962W        W35123  34.323  17.957  13.869
69963W        W35124  20.550   7.259  12.809
69964W        W35125   7.820  30.581   4.663
69965W        W35126  30.575  38.830  14.237
69966W        W35127  40.065   5.675   1.705
69967W        W35128  34.557  35.818   4.509
69968W        W35129   9.888  19.773  11.517
69969W        W35130  39.144   9.512  14.629
69970W        W35131  35.092  19.468   1.162
69971W        W35132  44.982  20.478   3.181
69972W        W35133  30.150  41.417   4.672
69973W        W35134  35.344  11.942   5.079
69974W        W35135  34.756  16.624   2.897
69975W        W35136   5.267  22.269   1.014
69976W        W35137  42.716  43.969  13.485
69977W        W35138   4.324  33.410  11.008
69978W        W35139  20.629  36.439  10.734
69979W        W35140  40.114   0.500  12.804
69980W        W35141  28.100  36.551   4.503
69981W        W35142  28.019  30.531   1.677
69982W        W35143  19.861  39.616  14.292
69983W        W35144  39.298  17.352  12.537
69984W        W35145  37.312  15.799  10.737
69985W        W35146  32.612   9.894   0.851
69986W        W35147   4.269  37.228   3.718
69987W        W35148  26.605  42.764   2.836
69988W        W35149  15.716   5.151   0.292
69989W        W35150   4.039   2.822   2.294
69990W        W35151   1.276   2.438  11.365
69991W        W35152   4.786  30.092  13.739
69992W        W35153  33.678  35.653   4.770
69993W        W35154  24.998  15.412   5.041
69994W        W35155  17.553  43.000   2.686
69995W        W35156   1.859  33.928   3.992
69996W        W35157  23.304   3.797  14.914
69997W        W35158   6.191  16.146  11.106
69998W        W35159  41.667  35.017  13.900
69999W        W35160  24.638   2.503  11.100
70000W        W35161   7.361  30.988  10.671
70001W        W35162  42.914  38.560   9.477
70002W        W35163  14.174  12.849  14.410
70003W        W35164   4.723  16.763   3.644
70004W        W35165  31.711  13.111   0.966
70005W        W35166  12.544   4.644   1.409
70006W        W35167   3.797  27.644   3.187
70007W        W35168   0.312  23.641   0.683
70008W        W35169  15.880  15.248  12.147
70009W        W35170   8.084   0.745   0.493
70010W        W35171   0.651   0.423  11.085
70011W        W35172  31.627  35.121   4.007
70012W        W35173  41.407  36.469  13.970
70013W        W35174   2.953  20.189  13.065
70014W        W35175  36.184  39.396   0.916
70015W        W35176  42.122  23.291  11.989
70016W        W35177   5.703  19.106  10.691
70017W        W35178  30.211  19.096  13.376
70018W        W35179   9.306  17.272   4.088
70019W        W35180  22.071  13.084   2.194
70020W        W35181  43.349  40.972   3.173
70021W        W35182  25.551  43.401   0.437
70022W        W35183  40.784   8.710   0.121
70023W        W35184  40.321  16.273   3.217
70024W        W35185  19.034  22.143  10.924
70025W        W35186  17.420   7.601   3.262
70026W        W35187  28.080  17.720  14.240
70027W        W35188  21.485  31.416  13.131
70028W        W35189  43.870   4.276   4.830
70029W        W35190  14.805  15.302  12.814
70030W        W35191  36.474   2.952  12.027
70031W        W35192  28.764  40.983   4.413
70032W        W35193   4.182  37.552   3.305
70033W        W35194  28.492  41.975  12.163
70034W        W35195  32.484   4.407  14.171
70035W        W35196   2.302  32.023   4.036
70036W        W35197   6.885  34.051   4.053
70037W        W35198   6.269  28.662  14.532
70038W        W35199  27.504  29.947   0.763
70039W        W35200  31.094  42.932   3.164
70040W        W35201  14.431  25.467   4.864
70041W        W35202  14.798  16.943   4.448
70042W        W35203  30.038  18.739  14.660
70043W        W35204  33.385  13.459  12.503
70044W        W35205   7.199  10.843  13.067
70045W        W35206  31.104  30.003  11.639
70046W        W35207  39.430   5.616  14.250
70047W        W35208  43.468  11.850   3.535
70048W        W35209  26.825  15.070   4.610
70049W        W35210  44.015  42.046   3.274
70050W        W35211  43.555  31.084   0.357
70051W        W35212  20.104  22.569  12.730
70052W        W35213  27.403  20.637  10.575
70053W        W35214  25.940  26.774   2.345
70054W        W35215  14.571  31.499  14.343
70055W        W35216  36.027  16.066   0.410
70056W        W35217   4.699  12.770   3.637
70057W        W35218  13.175   0.706  10.708
70058W        W35219  15.204  28.406   1.446
70059W        W35220  36.408  33.719  10.169
70060W        W35221  30.606   0.396  11.082
70061W        W35222  25.407  23.242   5.026
70062W        W35223  22.621  34.551   1.240
70063W        W35224  36.982  36.363  13.402
70064W        W35225   4.444   5.729  10.669
70065W        W35226  43.812  35.164   0.235
70066W        W35227  41.778   3.917  13.129
70067W        W35228  23.233  34.304  10.674
70068W        W35229  39.365   9.845  13.249
70069W        W35230  17.815  16.537   1.036
70070W        W35231  41.453  34.106   1.280
70071W        W35232  34.817  37.967  11.139
70072W        W35233  27.716  27.666  11.531
70073W        W35234  11.579  33.065  11.079
70074W        W35235   2.600  38.186   0.721
70075W        W35236   9.203  15.611   4.595
70076W        W35237  36.108  40.001   2.868
70077W        W35238  36.794  18.287   0.179
70078W        W35239  26.356  27.604   4.025
70079W        W35240  32.843  37.802  12.418
70080W        W35241  12.872   1.944   2.747
70081W        W35242   1.834  26.096  13.074
70082W        W35243  29.346  42.278  11.177
70083W        W35244  31.140  16.384   4.432
70084W        W35245  28.035   9.367  14.492
70085W        W35246   4.885   2.236  12.113
70086W        W35247  30.024  20.000  10.172
70087W        W35248  39.395  18.183  11.279
70088W        W35249  24.987  19.250   4.578
70089W        W35250  24.745  17.757  12.054
70090W        W35251  39.381  27.593  11.628
70091W        W35252  30.255  11.512   1.908
70092W        W35253  31.973  37.968   2.748
70093W        W35254  11.248  30.832  12.783
70094W        W35255  20.671  25.754  12.776
70095W        W35256  29.487  27.114  12.368
70096W        W35257  29.951  21.198   1.275
70097W        W35258  17.498  18.016   3.260
70098W        W35259  14.899  23.694  10.769
70099W        W35260  39.798   6.245  10.606
70100W        W35261  10.267  21.195   4.199
70101W        W35262  37.880  41.320  10.326
70102W        W35263  42.539  24.985  14.893
70103W        W35264  20.778  39.589  12.585
70104W        W35265  34.579  30.005  12.542
70105W        W35266   7.754  38.165  13.002
70106W        W35267  14.119  32.381  13.126
70107W        W35268  10.752  11.699   1.821
70108W        W35269   6.101  23.235  12.796
70109W        W35270  29.505  12.510  13.060
70110W        W35271  20.432  16.330   1.580
70111W        W35272  31.662  43.148  11.518
70112W        W35273   5.996  31.942   4.145
70113W        W35274  15.397  29.571  12.192
70114W        W35275  31.616  43.800  13.491
70115W        W35276  20.473  23.535  12.894
70116W        W35277  34.972   9.209   4.378
70117W        W35278  43.041  16.720   1.924
70118W        W35279  31.167   0.849   2.309
70119W        W35280   5.294  29.247  14.587
70120W        W35281  19.339  27.668   2.877
70121W        W35282   7.385   3.765   3.595
70122W        W35283  39.830  29.519  11.576
70123W        W35284  15.317   9.416  11.490
70124W        W35285  39.571  34.843  12.955
70125W        W35286  39.415  34.099   1.245
70126W        W35287   7.254  43.972   1.831
70127W        W35288  42.531  25.952  12.068
70128W        W35289  13.901  29.997  13.913
70129W        W35290  35.851   2.259   4.120
70130W        W35291  19.440  18.167   1.686
70131W        W35292   2.786  14.736   1.754
70132W        W35293   5.160  16.634   3.405
70133W        W35294   3.394  16.428   5.546
70134W        W35295  39.105  31.854   0.442
70135W        W35296   2.600  21.145   2.560
70136W        W35297  21.932  31.659  12.989
70137W        W35298   3.428  10.055   0.966
70138W        W35299  14.548  40.688   5.655
70139W        W35300  34.066  31.107  10.768
70140W        W35301   2.836  11.623  12.054
70141W        W35302  13.255  17.077  12.464
70142W        W35303  24.851   6.464  14.527
70143W        W35304  14.333  33.541   3.602
70144W        W35305   7.894  29.386   2.679
70145W        W35306  24.019  34.562   3.255
70146W        W35307   3.995   7.656  14.554
70147W        W35308  14.941  43.867   0.554
70148W        W35309  34.040  33.001  13.402
70149W        W35310  31.564  31.269  12.519
70150W        W35311  32.152  10.138  12.536
70151W        W35312  27.934  21.402  12.478
70152W        W35313  39.851  41.587  14.781
70153W        W35314  22.156  33.639   2.654
70154W        W35315  40.260  41.535  12.008
70155W        W35316  17.599  29.756  10.624
70156W        W35317  37.418  44.353   1.703
70157W        W35318  37.036  10.300  11.096
70158W        W35319  16.080  21.772   3.523
70159W        W35320  27.505  15.729   2.704
70160W        W35321   6.970   6.726   2.722
70161W        W35322  14.605  39.923  14.473
70162W        W35323  30.762  10.775  10.308
70163W        W35324  17.834  43.435   1.275
70164W        W35325  40.801  35.388  11.226
70165W        W35326  11.314  42.412   4.388
70166W        W35327  37.875  34.937  13.093
70167W        W35328  30.563  28.674  11.069
70168W        W35329  44.269  27.748   3.190
70169W        W35330  18.751  12.900  14.997
70170W        W35331   8.630  17.172   2.767
70171W        W35332  24.981  17.218  13.873
70172W        W35333  32.112   2.835   1.704
70173W        W35334  27.988  44.595  14.160
70174W        W35335  12.164  23.011   0.303
70175W        W35336  30.387  33.064  10.589
70176W        W35337  33.258  15.529   1.799
70177W        W35338   7.724   5.384  13.509
70178W        W35339  18.163  36.087   2.727
70179W        W35340  40.973  37.965  14.449
70180W        W35341   3.054  42.755   1.451
70181W        W35342  14.059  11.254   3.233
70182W        W35343  22.065  15.254   4.182
70183W        W35344  44.846  44.535   3.164
70184W        W35345  36.919  43.495   0.954
70185W        W35346  22.541  36.394  10.700
70186W        W35347  13.239   3.626   0.860
70187W        W35348  42.986  24.680  14.873
70188W        W35349   8.649  39.303  11.926
70189W        W35350   4.051   3.772  11.413
70190W        W35351  11.280   5.157  13.881
70191W        W35352   2.383   0.325   2.724
70192W        W35353   0.592  43.096   3.872
70193W        W35354   4.317  36.040  13.327
70194W        W35355  42.875   1.794   0.707
70195W        W35356  15.729  18.917   1.471
70196W        W35357   5.741   8.686  12.535
70197W        W35358  42.701  41.595  11.430
70198W        W35359   3.809   6.018   1.828
70199W        W35360   8.936  20.594  11.510
70200W        W35361  18.160  24.207   3.421
70201W        W35362  42.938  42.053  13.945
70202W        W35363  43.443  35.400  13.511
70203W        W35364  12.882  38.012  12.555
70204W        W35365  35.366  23.957   2.798
70205W        W35366  30.831  37.578  13.863
70206W        W35367  30.050  37.399   2.965
70207W        W35368   5.774   1.855   1.133
70208W        W35369  14.965   7.301  14.696
70209W        W35370   1.880  25.743   3.112
70210W        W35371  34.659  33.297  13.045
70211W        W35372  21.652  22.529   0.438
70212W        W35373  42.901  36.595   0.411
70213W        W35374  19.949  18.964   0.903
70214W        W35375  15.476   4.594   4.256
70215W        W35376  27.586  24.697   1.434
70216W        W35377  44.971  16.524   3.429
70217W        W35378  33.154  41.051   0.465
70218W        W35379   6.743  38.882  12.604
70219W        W35380  44.022  37.946  12.008
70220W        W35381  42.733  42.904  13.570
70221W        W35382  28.052   1.998  13.731
70222W        W35383   4.979   8.850  10.305
70223W        W35384   1.846   9.280   0.272
70224W        W35385  31.582  10.597  13.961
70225W        W35386  40.590  14.244   2.364
70226W        W35387  27.509   0.674   4.936
70227W        W35388  13.636  26.706   4.215
70228W        W35389  17.529  35.128  14.893
70229W        W35390  42.699  21.686  14.456
70230W        W35391  32.158  40.317  12.470
70231W        W35392  21.381   5.174   1.280
70232W        W35393  21.251   0.626   5.132
70233W        W35394  20.538  36.027   4.602
70234W        W35395  36.363  22.529  14.823
70235W        W35396   0.828  40.615   3.990
70236W        W35397  39.617  35.318   1.889
70237W        W35398  37.305  13.149   1.875
70238W        W35399   0.750   8.304  12.474
70239W        W35400   1.376  10.354  12.785
70240W        W35401   8.665  18.174   4.666
70241W        W35402  32.320  10.479  12.175
70242W        W35403  39.514  44.026  12.514
70243W        W35404  27.526   4.431   1.300
70244W        W35405   5.372  34.022   4.219
70245W        W35406  10.237  29.576   4.151
70246W        W35407  42.781  39.717  11.190
70247W        W35408  39.830  35.046  13.362
70248W        W35409  13.296   1.724   1.067
70249W        W35410  34.361  24.279   3.703
70250W        W35411   0.479  32.024   9.955
70251W        W35412  41.801   6.620  12.319
70252W        W35413  25.137  27.295   2.977
70253W        W35414  35.034  17.949   0.754
70254W        W35415  16.863  35.095  10.572
70255W        W35416   4.692  15.784   2.307
70256W        W35417  21.280   9.640   2.571
70257W        W35418  19.683   0.968  11.004
70258W        W35419  25.990  16.351   0.487
70259W        W35420   6.456   4.453   4.236
70260W        W35421   0.379  39.572   9.918
70261W        W35422  23.943  35.541   1.723
70262W        W35423   5.107  20.507   1.454
70263W        W35424   6.688  35.695  11.423
70264W        W35425  28.926  18.588  10.713
70265W        W35426   3.293  31.449  10.945
70266W        W35427  38.022  29.157  12.460
70267W        W35428  34.968  32.359   4.357
70268W        W35429  35.290   2.438   1.220
70269W        W35430  30.388   1.305   2.191
70270W        W35431   0.911  13.596   0.897
70271W        W35432  37.543  26.043   2.923
70272W        W35433  27.622  30.577   2.957
70273W        W35434  33.612  15.501  13.993
70274W        W35435  44.914   4.995   0.202
70275W        W35436  29.541  25.746  13.753
70276W        W35437  17.815  21.430   1.338
70277W        W35438   5.163  43.351  13.457
70278W        W35439  16.075   4.456   1.353
70279W        W35440  10.288  33.414   0.919
70280W        W35441  42.223  39.071   1.330
70281W        W35442   0.651  37.743  14.848
70282W        W35443  38.284  41.505   2.621
70283W        W35444  33.509  30.903   3.167
70284W        W35445   7.306  13.642  13.497
70285W        W35446   8.879  12.757   0.247
70286W        W35447  10.622  24.236   1.503
70287W        W35448   3.972  17.096  10.686
70288W        W35449  22.499  40.775  13.517
70289W        W35450  10.255  30.166  14.826
70290W        W35451  14.920  17.453   1.751
70291W        W35452  25.126  34.171  10.566
70292W        W35453  42.263  15.189  10.777
70293W        W35454   6.206  40.073  14.869
70294W        W35455  26.207   2.924  14.842
70295W        W35456   2.467  31.487   1.513
70296W        W35457  21.658  36.340   1.739
70297W        W35458  16.086  20.680   3.714
70298W        W35459  31.679  25.637   4.094
70299W        W35460  13.268   5.720   4.545
70300W        W35461  16.091   0.484   4.744
70301W        W35462  31.179  31.210   0.831
70302W        W35463   0.455  39.953  11.846
70303W        W35464  12.386  42.630  14.604
70304W        W35465   3.323  39.337  10.675
70305W        W35466  38.300  10.448  12.782
70306W        W35467  23.721  27.399   0.779
70307W        W35468  35.968   2.408  13.922
70308W        W35469  21.529  18.169  11.581
70309W        W35470  41.092  26.067  14.508
70310W        W35471  27.231  14.189   1.917
70311W        W35472  41.398  10.631  12.028
70312W        W35473  10.205  37.777  12.962
70313W        W35474   3.996   0.917   0.875
70314W        W35475  27.124  21.710  13.429
70315W        W35476  16.188  39.222   2.704
70316W        W35477  10.826  38.811  12.486
70317W        W35478  30.360  24.418   1.083
70318W        W35479  29.996  21.777   2.785
70319W        W35480  25.690   0.863  12.574
70320W        W35481  27.133   8.874  11.982
70321W        W35482  27.374  33.799  12.983
70322W        W35483   3.756   4.287  12.153
70323W        W35484  42.568   8.707   0.729
70324W        W35485  22.527  20.068   2.802
70325W        W35486  42.918  19.721  13.844
70326W        W35487  18.541  20.786  13.891
70327W        W35488   6.003  33.095  13.435
70328W        W35489   3.184   3.558   3.801
70329W        W35490   7.863  35.948   0.452
70330W        W35491  40.023  20.514   2.831
70331W        W35492  40.589  37.566  12.419
70332W        W35493  36.797  22.649   4.467
70333W        W35494  28.916  28.104  12.457
70334W        W35495  41.005  17.314   0.039
70335W        W35496  29.990   1.995   4.378
70336W        W35497  21.314   6.054  11.634
70337W        W35498   8.146  20.790   4.504
70338W        W35499  33.912   8.332  13.002
70339W        W35500  43.562  13.085   5.030
70340W        W35501   7.501   3.920  14.386
70341W        W35502  31.692  21.084  10.733
70342W        W35503  14.552   0.785  12.419
70343W        W35504  20.948  28.593   1.804
70344W        W35505  13.827  10.284  11.194
70345W        W35506  43.724  30.978  10.279
70346W        W35507  27.512  38.976   2.301
70347W        W35508   2.264  22.583   1.736
70348W        W35509  25.726  25.832  12.909
70349W        W35510  39.512  10.749  13.275
70350W        W35511  19.551  16.586  11.593
70351W        W35512  17.641  16.817  12.211
70352W        W35513   0.293  27.918  12.928
70353W        W35514   6.070  31.694   1.922
70354W        W35515  25.700  22.783   0.304
70355W        W35516  26.576  16.567   3.330
70356W        W35517  43.210   4.252  14.313
70357W        W35518  41.758  22.714   1.768
70358W        W35519  20.598  36.910  11.590
70359W        W35520  25.015  10.414  10.549
70360W        W35521  21.601  28.066   3.366
70361W        W35522  18.221  20.718   4.442
70362W        W35523  20.311   6.949  13.981
70363W        W35524  24.134   4.940  14.371
70364W        W35525  25.460  14.409  14.996
70365W        W35526  24.587  31.780   2.957
70366W        W35527  26.431  26.021   4.234
70367W        W35528  10.114   2.293  13.050
70368W        W35529   8.115  29.049  13.236
70369W        W35530  22.655  19.569  12.981
70370W        W35531   0.408  20.572   4.923
70371W        W35532  16.534   0.673   2.554
70372W        W35533  23.543  18.539   0.755
70373W        W35534  16.847  12.341  10.708
70374W        W35535  37.869   5.018   1.544
70375W        W35536  41.069  34.430   2.245
70376W        W35537   6.498  41.064  11.157
70377W        W35538   4.432  38.587   1.246
70378W        W35539  24.521  33.450  10.584
70379W        W35540  29.951   6.834  10.781
70380W        W35541  22.223   5.488  10.629
70381W        W35542  40.329  16.813   1.322
70382W        W35543  32.302  23.235   3.297
70383W        W35544  30.145   3.717  10.699
70384W        W35545  11.295  42.913   3.141
70385W        W35546   4.339   6.360   4.176
70386W        W35547  42.333  27.959   1.358
70387W        W35548   1.803  23.959  13.382
70388W        W35549  33.482  42.492  10.828
70389W        W35550  26.609  35.850   3.276
70390W        W35551  22.516   8.656   0.936
70391W        W35552  31.681  35.796  12.464
70392W        W35553  27.127  23.878  12.821
70393W        W35554  38.614  20.450   2.304
70394W        W35555  24.599  37.013  12.034
70395W        W35556  23.680  43.875  11.636
70396W        W35557  15.107   7.682  12.868
70397W        W35558   8.076  25.777   9.938
70398W        W35559   2.178  27.422  12.546
70399W        W35560  32.971  10.756   1.941
70400W        W35561  28.691  32.369  12.073
70401W        W35562   5.218  43.044   1.027
70402W        W35563  27.098  30.676   0.678
70403W        W35564  41.017  18.658   5.035
70404W        W35565  21.520  18.766   4.093
70405W        W35566  32.965  35.540   2.233
70406W        W35567  30.701  18.409   3.680
70407W        W35568  23.094  36.382  11.917
70408W        W35569   6.319   2.453   3.560
70409W        W35570  14.315  25.116   0.050
70410W        W35571  35.392  21.123  13.528
70411W        W35572  29.504  41.525  11.590
70412W        W35573   1.021  31.367  10.241
70413W        W35574  15.494  23.941  13.188
70414W        W35575   5.499  17.274   0.681
70415W        W35576  34.588  27.969   2.179
70416W        W35577  41.033  25.280  13.806
70417W        W35578  31.999   3.874  13.727
70418W        W35579  12.100  11.460   1.256
70419W        W35580  44.458  25.750   2.208
70420W        W35581  40.752  26.428  14.721
70421W        W35582   0.329  18.232   4.167
70422W        W35583  30.187   9.685   3.645
70423W        W35584  18.732  20.124   4.649
70424W        W35585  27.937   4.540  14.515
70425W        W35586  26.180   3.119  12.128
70426W        W35587  34.321  22.609   1.277
70427W        W35588  31.282  31.733   0.947
70428W        W35589   6.701  13.730   1.208
70429W        W35590  21.023   7.329   1.947
70430W        W35591  31.341  23.940  12.537
70431W        W35592  21.687  33.285  10.351
70432W        W35593  43.998  25.592   3.045
70433W        W35594   3.654  36.352   4.174
70434W        W35595  24.283  26.014  14.947
70435W        W35596  40.947  28.476   3.066
70436W        W35597  18.271  27.931   3.350
70437W        W35598   5.896  16.991  14.388
70438W        W35599  34.561  33.837  14.995
70439W        W35600   7.587  33.132  11.110
70440W        W35601  23.124  38.490   4.319
70441W        W35602  14.632  34.480  13.034
70442W        W35603  31.737  44.508  11.962
70443W        W35604  40.743  42.788  11.921
70444W        W35605  37.449  14.634   1.729
70445W        W35606  18.090  13.649  14.858
70446W        W35607  14.671  36.072  14.307
70447W        W35608  33.116  30.897   1.996
70448W        W35609   8.860   7.463  14.479
70449W        W35610  29.489  19.454  14.869
70450W        W35611  17.205  18.149  14.505
70451W        W35612   7.952  16.703  13.067
70452W        W35613  37.765   0.531  13.271
70453W        W35614  31.260  26.100  10.270
70454W        W35615  34.869  32.026  10.313
70455W        W35616  25.500   5.184   0.321
70456W        W35617  17.113  37.082  10.238
70457W        W35618   0.822   1.942   1.805
70458W        W35619  34.936  13.714   3.296
70459W        W35620  30.430  41.932   2.351
70460W        W35621  29.150  44.721  10.881
70461W        W35622  10.238  43.483   2.246
70462W        W35623  34.628  31.385  14.821
70463W        W35624  32.905  13.336  12.594
70464W        W35625  43.916  36.322  13.581
70465W        W35626   3.007  18.241   1.248
70466W        W35627  44.266  34.943  12.888
70467W        W35628  12.274  21.982   0.314
70468W        W35629   2.813  34.545  10.332
70469W        W35630   7.755  33.968  12.536
70470W        W35631  34.461   8.633   0.566
70471W        W35632  26.590  30.509   2.369
70472W        W35633  39.890  18.270   2.155
70473W        W35634  18.113  42.255  13.802
70474W        W35635  12.214  43.701  11.961
70475W        W35636  24.392  37.420   3.652
70476W        W35637  10.840  30.660   2.985
70477W        W35638  16.064  33.319   1.155
70478W        W35639  20.379  36.104  11.976
70479W        W35640  43.447  44.032   2.635
70480W        W35641   5.690   6.987  11.912
70481W        W35642  13.664  11.047  11.620
70482W        W35643  44.328  21.747  12.111
70483W        W35644   5.870   7.491  11.570
70484W        W35645  14.843  37.555   2.124
70485W        W35646  42.164  32.052  10.676
70486W        W35647   5.195  12.724   2.687
70487W        W35648   5.715   2.243   0.330
70488W        W35649  10.645  36.496   0.775
70489W        W35650  42.264  29.509  14.748
70490W        W35651  36.379  32.587   4.536
70491W        W35652  39.862  22.188   4.103
70492W        W35653  35.681  16.344   2.827
70493W        W35654   3.700  24.554   2.259
70494W        W35655  22.653  30.567   2.095
70495W        W35656  17.793   8.946   1.869
70496W        W35657  26.553  30.387   3.754
70497W        W35658   9.883  14.589   4.832
70498W        W35659  20.174   8.434   1.906
70499W        W35660  34.842  12.765  13.963
70500W        W35661  20.229   3.878  11.554
70501W        W35662  16.577  11.700   4.150
70502W        W35663  37.930  15.864  13.887
70503W        W35664   1.875  13.846   2.350
70504W        W35665  26.952  28.009  13.837
70505W        W35666  28.178  32.854   1.166
70506W        W35667  13.066  21.035   4.127
70507W        W35668  31.992  28.119  11.306
70508W        W35669  44.497  11.630   2.786
70509W        W35670  13.428   2.873  12.765
70510W        W35671   1.881  34.437   0.715
70511W        W35672  42.944  24.186   0.423
70512W        W35673   7.607  12.399  11.380
70513W        W35674  31.477  22.959  13.516
70514W        W35675  17.057  37.651   4.582
70515W        W35676  43.248  35.520   0.746
70516W        W35677   4.152  41.479   4.087
70517W        W35678   7.471   7.941   1.354
70518W        W35679  37.361  39.510  10.281
70519W        W35680  44.808  14.872  14.342
70520W        W35681  22.478  25.506  10.480
70521W        W35682  39.950   7.417   1.874
70522W        W35683  21.506  10.763   1.517
70523W        W35684  41.769  18.798  13.969
70524W        W35685  27.179  15.533  12.983
70525W        W35686  26.206  20.566   4.389
70526W        W35687  15.109   1.733   3.257
70527W        W35688  12.237  41.166  12.966
70528ION    NA+35689   7.144   0.883   0.498
70529ION    NA+35690  10.176  11.328  14.790
70530ION    NA+35691  35.569  24.618   0.140
70531ION    NA+35692  20.742   1.969   0.553
70532ION    NA+35693  14.528  39.428   4.811
70533ION    NA+35694   0.423   8.540   0.036
70534ION    NA+35695  17.756  11.261  14.797
70535ION    NA+35696  43.880   6.121  14.466
70536ION    NA+35697  26.016  26.016  11.033
70537ION    NA+35698  40.325   2.052  12.557
70538ION    NA+35699   7.776  33.403   3.651
70539ION    NA+35700  33.169   5.228   1.832
70540ION    NA+35701  34.894  22.685  10.947
70541ION    NA+35702  41.918  44.565  13.813
70542ION    NA+35703  31.061  39.432   1.717
70543ION    NA+35704  31.491  28.905  13.331
70544ION    NA+35705  13.756  32.498   4.146
70545ION    NA+35706  37.620  11.830   2.245
70546ION    NA+35707  23.328   2.906  13.953
70547ION    NA+35708  27.275   7.113   3.595
70548ION    NA+35709   5.214  11.040   9.876
70549ION    NA+35710   7.070  22.600  11.166
70550ION    NA+35711  20.170  23.449  14.435
70551ION    NA+35712   9.780  44.995   0.059
70552ION    NA+35713  18.986  28.482   1.954
70553ION    NA+35714  39.877   4.232   4.468
70554ION    NA+35715  35.681  11.721  11.702
70555ION    NA+35716  30.913  18.107  14.176
70556ION    NA+35717  11.625   5.931  13.357
70557ION    NA+35718  30.785  27.036  10.729
70558ION    NA+35719  19.975  26.633  13.937
70559ION    NA+35720  30.572  13.794   1.128
70560ION    NA+35721  11.355  10.694   2.558
70561ION    NA+35722  38.060  21.211   4.397
70562ION    NA+35723  34.399  18.989  11.279
70563ION    NA+35724  19.242  29.620   1.837
70564ION    NA+35725  33.166  39.175  13.122
70565ION    NA+35726  39.544  32.623   0.475
70566ION    NA+35727  41.721   2.251  12.679
70567ION    NA+35728  35.273  28.422  12.673
70568ION    NA+35729  18.833  24.727   3.429
70569ION    NA+35730   8.061  38.854   3.186
70570ION    NA+35731   3.226  41.602   5.118
70571ION    NA+35732  14.622  14.378   4.712
70572ION    NA+35733  28.504   7.786   3.694
70573ION    NA+35734  14.155   1.782   3.071
70574ION    NA+35735  21.588   7.872  14.486
70575ION    NA+35736  24.122   2.723  12.658
70576ION    NA+35737  37.263   9.359  14.916
70577ION    NA+35738  41.038  27.271   4.164
70578ION    NA+35739  38.279  37.353  11.474
70579ION    NA+35740  36.121  36.394   2.818
70580ION    NA+35741  18.918  24.818  11.131
70581ION    NA+35742   1.617  10.725  13.880
70582ION    NA+35743  14.164  36.933  12.054
70583ION    NA+35744  41.075  22.153  12.559
70584ION    NA+35745   4.639   8.205  13.560
70585ION    NA+35746  19.000  38.440  11.602
70586ION    NA+35747  40.204  40.505   3.576
70587ION    NA+35748  24.699  24.654  11.175
70588ION    NA+35749  18.427  35.675   1.762
70589ION    NA+35750  20.753   2.888  13.086
70590ION    NA+35751   1.006  42.423  10.819
70591ION    NA+35752  37.916   0.883  13.931
70592ION    NA+35753  14.221  44.003  13.803
70593ION    NA+35754  36.411  32.583   2.801
70594ION    NA+35755  26.732  27.668  11.536
70595ION    NA+35756  39.383   4.489  14.780
70596ION    NA+35757  29.461  22.972  14.253
70597ION    NA+35758  17.180   8.888  11.482
70598ION    NA+35759  37.305  37.420  14.241
70599ION    NA+35760  16.371   5.426   3.634
70600ION    NA+35761   3.012  22.510   1.305
70601ION    NA+35762  40.278  10.399  10.792
70602ION    NA+35763  18.572  21.447   0.152
70603ION    NA+35764  24.825  40.469  12.772
70604ION    NA+35765  17.554  41.997  12.675
70605ION    NA+35766  44.243  18.488   0.293
70606ION    NA+35767  42.310   3.798  11.071
70607ION    NA+35768  26.959  15.994  13.087
70608ION    NA+35769  33.099  12.356  11.143
70609ION    NA+35770  38.977  29.338  11.166
70610ION    NA+35771  17.706  36.840  13.308
70611ION    NA+35772   2.559  27.744   5.422
70612ION    NA+35773  36.474  41.471  14.555
70613ION    NA+35774   4.028   6.247   4.951
70614ION    NA+35775  36.951  40.354  11.105
70615ION    NA+35776  44.785   7.683   2.797
70616ION    NA+35777   6.189  15.151  12.002
70617ION    NA+35778  19.114  34.085  14.493
70618ION    NA+35779  41.868  29.515   2.637
70619ION    NA+35780  22.751  39.178   2.569
70620ION    NA+35781   9.699  29.435   9.880
70621ION    NA+35782  15.205  10.620   3.852
70622ION    NA+35783  18.831  28.370  13.315
70623ION    NA+35784   3.773  13.048   1.885
70624ION    NA+35785  35.511  40.106   3.762
70625ION    NA+35786  43.907  34.100   1.942
70626ION    NA+35787   8.220   4.565  10.699
70627ION    NA+35788  28.793  12.557   2.169
70628ION    NA+35789   2.850   0.341   3.660
70629ION    NA+35790   8.892  25.654   2.329
70630ION    NA+35791  28.524  23.769   2.239
70631ION    NA+35792  44.778  34.244   3.066
70632ION    NA+35793  22.686   1.263   4.333
70633ION    NA+35794  23.509  42.548  12.073
70634ION    NA+35795  14.860  17.744  14.685
70635ION    NA+35796  27.273  27.642   3.130
70636ION    NA+35797  39.983  13.638   0.502
70637ION    NA+35798  41.987  26.595  11.743
70638ION    NA+35799  33.039  14.775  12.598
70639ION    NA+35800  19.581  22.408  11.980
70640ION    NA+35801  25.998   9.840  13.938
70641ION    NA+35802   5.653  38.340   1.898
70642ION    NA+35803  31.995  16.605  13.835
70643ION    NA+35804  13.902  17.643   2.250
70644ION    NA+35805  44.525   0.510   0.841
70645ION    NA+35806   5.990  12.152  13.306
70646ION    NA+35807  15.103  30.395  13.091
70647ION    NA+35808  26.974   0.965  14.385
70648ION    NA+35809  24.075  15.353   0.955
70649ION    NA+35810  41.371  33.578   3.363
70650ION    NA+35811  32.208  36.965   3.903
70651ION    NA+35812   4.677   0.995  10.582
70652ION    NA+35813  38.043  42.968   3.688
70653ION    NA+35814   9.602  30.197   2.301
70654ION    NA+35815   2.234  34.961   2.902
70655ION    NA+35816  20.054   5.453  12.938
70656ION    NA+35817  13.388  18.124  11.565
70657ION    NA+35818  12.902  42.796  12.560
70658ION    NA+35819  40.964  23.154  14.372
70659ION    NA+35820   4.288  13.615  14.276
70660ION    NA+35821  11.308  25.731  12.043
70661ION    NA+35822  12.383   7.208   4.308
70662ION    NA+35823  40.173   3.448   4.726
70663ION    NA+35824  31.592   1.765   3.655
70664ION    NA+35825  39.008  40.365  12.196
70665ION    NA+35826  18.583  13.062  14.141
70666ION    NA+35827   1.513  27.207  14.390
70667ION    NA+35828   4.864  22.200  14.676
70668ION    NA+35829  16.879   4.431  12.700
70669ION    NA+35830   8.650  31.372  11.531
70670ION    NA+35831  19.539  41.995  14.406
70671ION    NA+35832  38.386  36.993   2.023
70672ION    NA+35833  25.242  14.578   2.737
70673ION    NA+35834  29.064  40.364  13.530
70674ION    NA+35835  18.473  42.375  12.558
70675ION    NA+35836  40.347  34.684   1.419
70676ION    NA+35837   0.450  30.210   1.474
70677ION    NA+35838  20.750  10.326  14.443
70678ION    NA+35839   0.746  27.726  11.212
70679ION    NA+35840  39.083  39.826  10.624
70680ION    NA+35841  28.137  20.537  12.907
70681ION    NA+35842  27.576  37.779   1.015
70682ION    NA+35843  27.072  15.735   4.557
70683ION    NA+35844  21.285  27.474   0.767
70684ION    NA+35845  33.845  31.263   0.259
70685ION    NA+35846   0.189  38.876   1.264
70686ION    NA+35847  21.677  25.849   0.550
70687ION    NA+35848  39.393  40.557   4.719
70688ION    NA+35849  27.021  39.462  11.651
70689ION    NA+35850  19.506  33.719  11.653
70690ION    NA+35851  33.189   1.926  10.906
70691ION    NA+35852  40.083  22.682  13.477
70692ION    NA+35853  23.055  29.274  11.019
70693ION    NA+35854  10.911  27.975   3.013
70694ION    NA+35855  33.397  17.578   0.697
70695ION    NA+35856  30.668   9.408   4.523
70696ION    NA+35857  31.685  10.707   4.732
70697ION    NA+35858  15.673   0.426  12.103
70698ION    NA+35859  25.634  19.231   0.302
70699ION    NA+35860   0.183  38.860   3.467
70700ION    NA+35861  14.674  17.060   1.998
70701ION    NA+35862  23.185   8.468   3.824
70702ION    NA+35863   9.766  39.725   2.109
70703ION    NA+35864  14.396  23.216  14.858
70704ION    NA+35865   5.236  42.696   0.640
70705ION    NA+35866  34.441  17.422   1.370
70706ION    NA+35867  28.448  13.185   3.658
70707ION    NA+35868  26.571  27.627   3.565
70708ION    NA+35869  11.244   7.364  12.121
70709ION    NA+35870  20.478  40.774  11.040
70710ION    NA+35871   4.903  15.236   4.113
70711ION    NA+35872  44.287  21.254  13.029
70712ION    NA+35873  32.875  35.320  12.167
70713ION    NA+35874  15.065  22.475   0.156
70714ION    NA+35875  12.020   8.431   0.494
70715ION    NA+35876  40.181  27.100   0.305
70716ION    NA+35877  21.895   5.699   3.226
70717ION    NA+35878  18.958  43.273  14.539
70718ION    NA+35879  17.789  35.530  10.709
70719ION    NA+35880  28.676  37.493  12.072
70720ION    NA+35881  43.794  30.592  13.815
70721ION    NA+35882   2.563  11.882  10.306
70722ION    NA+35883  25.522  36.706   3.337
70723ION    NA+35884  37.080  19.312   2.414
70724ION    NA+35885  15.033  27.158  12.101
70725ION    NA+35886   9.587  22.625  10.470
70726ION    NA+35887   2.975  35.133  14.415
70727ION    NA+35888  25.202  13.622   3.589
70728ION    NA+35889  10.979  28.569  14.846
70729ION    NA+35890   2.831  28.567  11.392
70730ION    NA+35891   5.500  38.694  14.693
70731ION    NA+35892  35.295  35.530  12.482
70732ION    NA+35893   8.020  13.699  14.066
70733ION    NA+35894  28.168  22.315   3.628
70734ION    NA+35895  31.135   9.615  11.976
70735ION    NA+35896  20.835   0.138   3.150
70736ION    NA+35897  22.624  24.267   4.022
70737ION    NA+35898  39.147  12.975   4.705
70738ION    NA+35899  34.885  17.299   0.272
70739ION    NA+35900  44.324   2.362   2.451
70740ION    NA+35901  23.009  34.067  14.013
70741ION    NA+35902  32.555  24.627   2.391
70742ION    NA+35903  44.796   4.877  14.712
70743ION    NA+35904  40.283  18.549  13.100
70744ION    NA+35905  42.941  22.312   1.845
70745ION    NA+35906  32.915  36.000   2.000
70746ION    NA+35907   7.066   0.225   3.689
70747ION    NA+35908  39.436  14.166   1.772
70748ION    NA+35909  21.986  32.771   1.353
70749ION    NA+35910   2.202  19.683   0.730
70750ION    NA+35911  31.072   3.402   3.721
70751ION    NA+35912   8.822  39.323   3.634
70752ION    NA+35913   1.866   1.983   0.151
70753ION    NA+35914  11.596  15.373   4.629
70754ION    NA+35915   7.978  23.943   0.072
70755ION    NA+35916   5.821  38.088   3.858
70756ION    NA+35917  39.947   9.117  10.249
70757ION    NA+35918  15.786  37.848   1.926
70758ION    NA+35919   4.871  18.513  12.059
70759ION    NA+35920  39.260  24.384  13.532
70760ION    NA+35921  37.740   1.989  11.533
70761ION    NA+35922  17.607  21.385  14.504
70762ION    NA+35923  17.288  14.052   2.861
70763ION    NA+35924   2.306  38.710   3.119
70764ION    NA+35925   1.237  44.496  14.989
70765ION    NA+35926   1.661  24.332  11.342
70766ION    NA+35927   3.681   2.975   1.316
70767ION    NA+35928  44.750   4.000   0.320
70768ION    NA+35929  22.040   9.559   3.110
70769ION    NA+35930  20.848  27.853   2.260
70770ION    NA+35931  42.545  37.590  11.610
70771ION    NA+35932  31.884  30.997  11.862
70772ION    NA+35933  20.748  38.894  12.432
70773ION    NA+35934   1.844  18.895   3.058
70774ION    NA+35935   5.942  36.660  10.868
70775ION    NA+35936  43.931  42.717   4.010
70776ION    NA+35937  16.715  19.759  14.862
70777ION    NA+35938   1.184   0.566   2.683
70778ION    NA+35939  43.860   3.652   0.622
70779ION    NA+35940  19.166  35.318   4.568
70780ION    NA+35941   7.551  37.472   4.530
70781ION    NA+35942  42.811  20.447   0.470
70782ION    NA+35943  30.538  12.244   4.222
70783ION    NA+35944  36.405  33.629   3.306
70784ION    NA+35945   8.076   1.870  13.479
70785ION    NA+35946  27.809  44.053   0.411
70786ION    NA+35947   4.934   0.953  13.805
70787ION    NA+35948  29.288   8.984   2.185
70788ION    NA+35949   4.793  28.240  11.622
70789ION    NA+35950  29.660  12.095  10.703
70790ION    NA+35951  25.971  42.867   1.668
70791ION    NA+35952  20.536  20.986  11.993
70792ION    NA+35953   5.985  41.309  12.928
70793ION    NA+35954  25.636  11.872  14.964
70794ION    NA+35955  19.123  19.462  14.845
70795ION    NA+35956  33.942   1.417   1.984
70796ION    NA+35957  20.751  38.975  14.435
70797ION    NA+35958  43.389  24.273  14.741
70798ION    NA+35959   0.347  29.255  13.428
70799ION    NA+35960  17.454  22.483  12.605
70800ION    NA+35961   0.559  40.941  14.774
70801ION    NA+35962  14.472   8.050   4.691
70802ION    NA+35963   9.286  35.025   4.538
70803ION    NA+35964  34.482  22.486   5.507
70804ION    NA+35965  21.629  14.785  11.274
70805ION    NA+35966  35.372  34.993  14.866
70806ION    NA+35967  12.426   9.391  11.951
70807ION    NA+35968   1.518  27.446  13.594
70808ION    NA+35969  15.133  28.378   4.950
70809ION    NA+35970   5.932  33.014   2.173
70810ION    NA+35971  26.685  24.152  12.799
70811ION    NA+35972  10.143  15.922   2.414
70812ION    NA+35973  17.800  33.679  11.280
70813ION    NA+35974  39.564  11.368   0.398
70814ION    NA+35975  41.056  27.446   0.705
70815ION    NA+35976   0.866   1.881   0.314
70816ION    NA+35977  12.957  37.138   0.760
70817ION    NA+35978   9.137   7.193   0.861
70818ION    NA+35979   5.168  30.904  13.099
70819ION    NA+35980   0.519  40.762   1.858
70820ION    NA+35981  37.023  27.957   1.332
70821ION    NA+35982  13.744  37.682  10.829
70822ION    NA+35983  31.081  15.963  14.396
70823ION    NA+35984   7.772   2.969   0.250
70824ION    NA+35985   2.736  20.660  12.981
70825ION    NA+35986  14.061  11.778   3.190
70826ION    NA+35987   0.620  33.045   4.699
70827ION    NA+35988  19.241  10.713   3.078
70828ION    NA+35989   8.646  31.161   0.421
70829ION    NA+35990  44.291   5.272  13.096
70830ION    NA+35991  30.382  39.709  11.686
70831ION    NA+35992  42.176  17.639   3.361
70832ION    NA+35993  27.649  43.372  14.693
70833ION    NA+35994  39.711  34.731   4.077
70834ION    NA+35995  36.660  21.137  13.632
70835ION    NA+35996  18.681  37.073   2.468
70836ION    NA+35997  35.670  20.507   0.961
70837ION    NA+35998   9.380   0.589  14.327
70838ION    NA+35999  42.213  19.028   4.561
70839ION    NA+36000  41.022  40.036   1.213
70840ION    NA+36001  41.582  41.788  11.710
70841ION    NA+36002  35.740  27.732  12.508
70842ION    NA+36003  24.202   5.146   2.114
70843ION    NA+36004  38.248  18.728   0.859
70844ION    NA+36005   6.312  11.699  14.385
70845ION    NA+36006  37.530  19.958   3.334
70846ION    NA+36007  22.043   8.264   4.773
70847ION    NA+36008  26.162  16.316   4.397
70848ION    NA+36009   6.512   7.066  12.467
70849ION    NA+36010  36.999  41.912  11.587
70850ION    NA+36011  13.098  42.113   9.350
70851ION    NA+36012  15.031  40.504  13.260
70852ION    NA+36013  24.207  18.536  11.855
70853ION    NA+36014  10.504  32.268  12.147
70854ION    NA+36015  22.163   8.097   2.946
70855ION    NA+36016  41.427   1.764   1.527
70856ION    NA+36017  15.594  15.077  10.712
70857ION    NA+36018  28.607  10.046   4.232
70858ION    NA+36019   1.961   8.402   3.227
70859ION    NA+36020  19.292  40.101  12.772
70860ION    NA+36021   2.497   8.869   4.025
70861ION    NA+36022  28.492  17.562   2.869
70862ION    NA+36023  21.910   0.310  14.241
70863ION    NA+36024   6.035  32.422  11.600
70864ION    NA+36025  33.440  10.725   2.744
70865ION    NA+36026  32.866  29.643   0.577
70866ION    NA+36027  11.325  34.046   4.531
70867ION    NA+36028  35.302   8.769   0.814
70868ION    NA+36029  11.852  30.183   1.709
70869ION    NA+36030  15.417  40.123   2.111
70870ION    NA+36031  29.935  31.833  10.928
70871ION    NA+36032   8.655  14.163   3.613
70872ION    NA+36033  23.874  26.632   4.745
70873ION    NA+36034   7.652  39.356   0.943
70874ION    NA+36035  32.209  14.557   3.303
70875ION    NA+36036  42.591  16.187  12.511
70876ION    NA+36037  19.405  39.957   5.526
70877ION    NA+36038  20.316  33.981   3.128
70878ION    NA+36039  37.525  18.042   3.611
70879ION    NA+36040  43.836   3.894   2.011
70880ION    NA+36041  23.058  34.856   1.769
70881ION    NA+36042  10.231  14.545  11.653
70882ION    NA+36043  44.481   9.449   1.373
70883ION    NA+36044  34.150  38.106  11.048
70884ION    NA+36045  29.653   3.587   0.854
70885ION    NA+36046   5.370  26.881  13.036
70886ION    NA+36047  27.230  27.135  12.220
70887ION    NA+36048  21.876   5.718  12.294
70888ION    NA+36049  10.630   3.462   3.222
70889ION    NA+36050  10.285  26.317   1.894
70890ION    NA+36051  14.618  34.248   4.174
70891ION    NA+36052  22.946   7.794  13.794
70892ION    NA+36053  16.027  29.364   1.257
70893ION    NA+36054  25.269  16.097  10.684
70894ION    NA+36055  30.608   4.143   0.746
70895ION    NA+36056  35.688  31.586   1.746
70896ION    NA+36057   7.805  10.742   3.191
70897ION    NA+36058   0.388  30.646   4.751
70898ION    NA+36059  41.885  20.974  11.212
70899ION    NA+36060   1.476  21.614  12.865
70900ION    NA+36061  24.567  13.540   0.442
70901ION    NA+36062  43.718  17.889  13.103
70902ION    NA+36063  16.721   4.103   1.909
70903ION    NA+36064  15.911  35.188   4.238
70904ION    NA+36065   8.420  24.919   1.842
70905ION    NA+36066  12.434  28.896  11.639
70906ION    NA+36067  24.069  33.610   0.860
70907ION    NA+36068  26.430  35.348  13.952
70908ION    NA+36069  25.514  38.703   1.899
70909ION    NA+36070  41.240  23.119   0.245
70910ION    NA+36071  10.675   5.649   4.714
70911ION    NA+36072  14.297   2.908  13.320
70912ION    NA+36073   7.945   8.059  11.303
70913ION    NA+36074   3.426  24.633   0.448
70914ION    NA+36075  33.981   4.716   2.385
70915ION    NA+36076  17.398  32.928   1.834
70916ION    NA+36077  32.773  29.437   4.410
70917ION    NA+36078  11.784  24.133  10.931
70918ION    NA+36079  24.529  24.445   0.335
70919ION    NA+36080  15.555   5.230  14.792
70920ION    NA+36081  40.014   9.181  11.259
70921ION    NA+36082  37.152  42.803  11.160
70922ION    NA+36083  27.182  29.536   4.752
70923ION    NA+36084  13.480  13.229  13.924
70924ION    NA+36085  29.826  22.799   0.714
70925ION    NA+36086  39.732  39.489   1.781
70926ION    NA+36087  37.167   0.105  10.937
70927ION    NA+36088  38.745  19.412   1.392
70928ION    NA+36089  43.600   2.786   1.466
70929ION    NA+36090  32.972   8.163   3.702
70930ION    NA+36091   9.218   0.040   4.084
70931ION    NA+36092  30.910   5.803   0.463
70932ION    NA+36093  23.889   3.437   1.194
70933ION    NA+36094  40.544  25.126   5.063
70934ION    NA+36095  20.016  27.889   4.069
70935ION    NA+36096  24.218   6.707   2.802
70936ION    NA+36097  20.268   8.855  12.703
70937ION    NA+36098  40.635  29.555  13.852
70938ION    NA+36099  27.141  42.440   2.162
70939ION    NA+36100  44.077   8.578  14.859
70940ION    NA+36101  16.732  32.012   3.180
70941ION    NA+36102  36.906   3.520  14.337
70942ION    NA+36103  25.607  33.707   0.975
70943ION    NA+36104   3.711   7.422  14.913
70944ION    NA+36105  13.984  40.557  13.581
70945ION    NA+36106  42.443  39.610  13.344
70946ION    NA+36107  32.723  31.615   1.823
70947ION    NA+36108  31.363  29.325   1.731
70948ION    NA+36109   5.434   4.538  13.323
70949ION    NA+36110  18.657  41.894   3.082
70950ION    NA+36111  13.070  33.367   4.549
70951ION    NA+36112  42.282  25.079  14.172
70952ION    NA+36113  37.499  42.302   2.608
70953ION    NA+36114  28.801  36.242   3.307
70954ION    NA+36115  38.560  36.151   2.089
70955ION    NA+36116  15.353   9.746   0.470
70956ION    NA+36117  42.371  42.417  12.361
70957ION    NA+36118   0.898  29.945  14.480
70958ION    NA+36119  22.591  34.971  13.808
70959ION    NA+36120  38.481  12.633   2.734
70960ION    NA+36121  20.021   1.760   0.983
70961ION    NA+36122  30.583   2.435   2.723
70962ION    NA+36123  41.085   3.951   2.750
70963ION    NA+36124  18.692  14.560   2.873
70964ION    NA+36125  33.947  19.284  14.520
70965ION    NA+36126  32.848   5.201  13.807
70966ION    NA+36127  43.369  17.837   4.956
70967ION    NA+36128   5.077   5.188   0.810
70968ION    NA+36129   4.438  43.860   0.208
70969ION    NA+36130  31.302   3.350   1.663
70970ION    NA+36131  27.253  27.189   3.798
70971ION    NA+36132  28.714  32.795   4.694
70972ION    NA+36133  26.299  32.862   0.286
70973ION    NA+36134  42.839  27.689   9.845
70974ION    NA+36135  24.968  10.460   1.703
70975ION    NA+36136  42.873  13.690  10.806
70976ION    NA+36137  43.818  31.415   2.391
70977ION    NA+36138  40.917  18.846  12.385
70978ION    NA+36139  30.726  34.542  13.954
70979ION    NA+36140  24.963  17.762   0.206
70980ION    NA+36141  20.829  31.140   2.798
70981ION    NA+36142  41.273  35.591  11.165
70982ION    NA+36143   7.487  40.388   0.511
70983ION    NA+36144  28.152  26.954  11.550
70984ION    NA+36145   2.661  18.478  12.154
70985ION    NA+36146  20.357  21.870  11.167
70986ION    NA+36147   8.807   4.921  13.934
70987ION    NA+36148  28.403  11.777  10.607
70988ION    NA+36149   2.736   4.137  11.156
70989ION    NA+36150  13.855   2.477  12.031
70990ION    NA+36151  26.769  30.183  12.136
70991ION    NA+36152  39.758  14.106   3.346
70992ION    NA+36153  34.376   7.731  14.354
70993ION    NA+36154   4.930  24.181  14.278
70994ION    NA+36155  18.897  36.006   3.741
70995ION    NA+36156   5.563  22.338  12.052
70996ION    NA+36157  30.528  15.793  13.540
70997ION    NA+36158  20.787  15.241  14.318
70998ION    NA+36159  20.167  27.653  14.501
70999ION    NA+36160  12.763  44.857   2.840
71000ION    NA+36161  31.667  24.226  10.345
71001ION    NA+36162  39.737  26.397   1.613
71002ION    NA+36163  23.181  39.646   1.996
71003ION    NA+36164  17.972  16.770  11.839
71004ION    NA+36165   8.853  36.605   3.401
71005ION    NA+36166  40.721  27.458  13.076
71006ION    NA+36167  19.557  14.389   9.714
71007ION    NA+36168  44.837  24.916  10.785
71008ION    NA+36169   6.925  25.563  13.818
71009ION    NA+36170  43.282  22.045   0.091
71010ION    NA+36171   4.901  27.664  12.628
71011ION    NA+36172  27.549  31.578  13.131
71012ION    NA+36173  43.204   6.894   2.283
71013ION    NA+36174   8.621  21.455   3.239
71014ION    NA+36175  32.400   7.402   2.077
71015ION    NA+36176  14.363   7.988  13.551
71016ION    NA+36177  25.211   2.024  13.933
71017ION    NA+36178  44.262  16.092   0.867
71018ION    NA+36179  36.489  28.552  14.542
71019ION    NA+36180  35.719  39.724   3.105
71020ION    NA+36181  14.393  34.548  14.874
71021ION    NA+36182  22.664   8.604  14.307
71022ION    NA+36183   5.220  24.466   4.580
71023ION    NA+36184  16.270  16.371   2.583
71024ION    NA+36185  14.186   0.897   4.543
71025ION    NA+36186  25.679  44.692   0.806
71026ION    NA+36187  37.515  31.887   9.936
71027ION    NA+36188  29.151  39.547   0.511
71028ION    NA+36189  31.667   5.348   1.429
71029ION    NA+36190  41.938   3.387   3.586
71030ION    NA+36191  12.012  11.400   0.080
71031ION    NA+36192  27.491  27.118  10.815
71032ION    NA+36193  13.475  21.029   1.399
71033ION    NA+36194  35.869  19.295   2.514
71034ION    NA+36195   1.276   1.523   4.674
71035ION    NA+36196  41.146  32.334  14.761
71036ION    NA+36197  29.765  15.173   3.170
71037ION    NA+36198  39.313  35.342  14.128
71038ION    NA+36199  28.019  17.102  11.077
71039ION    NA+36200  10.195   8.119  13.378
71040ION    NA+36201  31.528  32.183   1.112
71041ION    NA+36202  10.645  28.089   2.055
71042ION    NA+36203  25.790  17.510   2.097
71043ION    NA+36204  10.980  42.955   1.807
71044ION    NA+36205  14.609   0.312   0.264
71045ION    NA+36206  39.407  21.052  14.547
71046ION    NA+36207  27.228  41.241  12.053
71047ION    NA+36208  10.123  33.974  13.974
71048ION    NA+36209   1.018  43.869  14.239
71049ION    NA+36210  24.610  11.394   1.713
71050ION    NA+36211  37.581  22.503   0.544
71051ION    NA+36212   3.882  25.421   0.449
71052ION    NA+36213  44.259  12.275  14.471
71053ION    NA+36214  27.652   6.367   0.359
71054ION    NA+36215  17.873  12.056   0.409
71055ION    NA+36216  36.244  39.706   3.740
71056ION    NA+36217  11.762  38.292  13.639
71057ION    NA+36218  23.779  30.701  12.749
71058ION    NA+36219  11.904  11.381  12.460
71059ION    NA+36220   5.250  30.179   0.990
71060ION    NA+36221  44.694  30.652   3.809
71061ION    NA+36222  34.879  20.842   1.474
71062ION    NA+36223  10.173   4.603  13.948
71063ION    NA+36224  16.568  27.600   0.992
71064ION    NA+36225   3.048  42.226   0.625
71065ION    NA+36226  21.261   6.014  13.440
71066ION    NA+36227  15.100  18.648  11.475
71067ION    NA+36228  20.527  20.851   4.331
71068ION    NA+36229  31.516  36.571  12.040
71069ION    NA+36230   1.692  12.646   0.277
71070ION    NA+36231  34.762  10.293   2.108
71071ION    NA+36232   6.407   7.739  10.741
71072ION    NA+36233  41.722   4.991  11.095
71073ION    NA+36234   4.770  30.031  14.265
71074ION    NA+36235  40.283  43.777   0.272
71075ION    NA+36236   0.182  11.754  11.891
71076ION    NA+36237  41.780  37.756  10.298
71077ION    NA+36238  11.325   8.345  11.943
71078ION    NA+36239  23.848  28.411  10.005
71079ION    NA+36240  18.314   6.087  14.459
71080ION    NA+36241  16.770  18.135  12.149
71081ION    NA+36242   9.563  36.714  11.430
71082ION    NA+36243   7.965  10.672  11.757
71083ION    NA+36244  15.872  17.498   0.840
71084ION    NA+36245  43.577   9.438  14.754
71085ION    NA+36246  27.866  25.075  10.918
71086ION    NA+36247  27.008  18.654   3.539
71087ION    NA+36248   5.456   7.968  12.062
71088ION    NA+36249  37.130  35.614   3.088
71089ION    NA+36250  29.269  13.571   9.778
71090ION    NA+36251  23.560  11.089  12.394
71091ION    NA+36252  30.188  27.299  13.588
71092ION    NA+36253  44.687  36.160   0.370
71093ION    NA+36254  13.533  28.761   0.935
71094ION    NA+36255  36.754  42.599   4.645
71095ION    NA+36256  29.120  23.742  12.463
71096ION    NA+36257   0.928  35.417  13.600
71097ION    NA+36258  35.481   3.368   3.805
71098ION    NA+36259  12.628  42.466   1.371
71099ION    NA+36260  27.437   8.229  13.547
71100ION    NA+36261  14.897  42.433   1.195
71101ION    NA+36262  30.258  26.078   2.798
71102ION    NA+36263  16.920  13.837  11.005
71103ION    NA+36264  40.298  28.199   1.827
71104ION    NA+36265  35.589  14.067  10.513
71105ION    NA+36266  28.692   9.749   1.163
71106ION    NA+36267  31.991  15.480   9.961
71107ION    NA+36268   3.513  20.599   2.158
71108ION    NA+36269   4.316  21.279  13.109
71109ION    NA+36270  17.800  12.602   1.741
71110ION    NA+36271  21.194  32.196   1.481
71111ION    NA+36272  41.775  23.470  12.335
71112ION    NA+36273  27.162   1.053   3.133
71113ION    NA+36274  10.359  38.601   2.433
71114ION    NA+36275  22.732   2.406   3.964
71115ION    NA+36276  17.813   9.126   4.078
71116ION    NA+36277  21.585  20.167   2.902
71117ION    NA+36278  29.927   3.206  12.754
71118ION    NA+36279  13.443  23.851  11.597
71119ION    NA+36280  30.441   3.800  12.007
71120ION    NA+36281  27.984  44.147  13.898
71121ION    NA+36282   0.461  18.505   1.962
71122ION    NA+36283   0.288  34.191   4.236
71123ION    NA+36284   6.237  34.838  10.692
71124ION    NA+36285  13.469  40.307  12.761
71125ION    NA+36286   4.702  16.165  12.991
71126ION    NA+36287  29.658  17.607  11.858
71127ION    NA+36288  42.551  32.424   4.351
71128ION    NA+36289  32.440  27.663  10.911
71129ION    NA+36290  17.260   6.680  14.293
71130ION    NA+36291  16.168  18.000  11.347
71131ION    NA+36292  43.520  18.673   1.698
71132ION    NA+36293   4.683   1.790  14.679
71133ION    NA+36294  11.979  37.217  14.448
71134ION    NA+36295  41.504  38.865   2.606
71135ION    NA+36296  17.552  35.893   1.886
71136ION    NA+36297  19.879  43.378   4.451
71137ION    NA+36298  10.440   7.856   2.597
71138ION    NA+36299  14.370  31.499   1.957
71139ION    NA+36300  43.343  21.033  14.859
71140ION    NA+36301  13.975  20.663   4.778
71141ION    NA+36302  29.689  34.138   1.907
71142ION    NA+36303  35.929  30.222   4.953
71143ION    NA+36304  10.064  14.325   3.156
71144ION    NA+36305   1.214   3.183  14.771
71145ION    NA+36306   5.892  44.789   4.028
71146ION    NA+36307   8.026   4.291   0.992
71147ION    NA+36308  28.798  12.491  14.610
71148ION    NA+36309   7.086  23.796   0.805
71149ION    NA+36310  41.808  13.697   1.912
71150ION    NA+36311  44.805  12.374  12.404
71151ION    NA+36312  17.238  39.809   3.254
71152ION    NA+36313  24.947  29.984   3.236
71153ION    NA+36314  44.464  38.708   0.883
71154ION    NA+36315  39.475   7.893  10.631
71155ION    NA+36316  14.760  11.215  12.678
71156ION    NA+36317  20.279   9.577   1.859
71157ION    NA+36318   6.427  14.584   0.740
71158ION    NA+36319  13.343  30.968  14.327
71159ION    NA+36320  27.329  28.453   1.846
71160ION    NA+36321   0.746  38.922   0.566
71161ION    NA+36322  35.112  13.360   2.724
71162ION    NA+36323   1.484  29.282  14.946
71163ION    NA+36324  29.208   8.904   1.307
71164ION    NA+36325  11.567  26.873   4.620
71165ION    NA+36326  24.649  16.103   1.949
71166ION    NA+36327  34.167  41.649  11.767
71167ION    NA+36328  17.497  32.112   4.767
71168ION    NA+36329  39.362  14.586  11.084
71169ION    NA+36330   1.646  33.591   1.034
71170ION    NA+36331  41.225   3.698  12.472
71171ION    NA+36332  32.176  16.637   1.492
71172ION    NA+36333  25.476  40.262  14.998
71173ION    NA+36334  23.190  40.650  11.479
71174ION    NA+36335   4.439  38.114  13.994
71175ION    NA+36336  18.200   6.391   4.613
71176ION    NA+36337  10.999  36.453  13.615
71177ION    NA+36338  34.435   3.787   4.577
71178ION    NA+36339   2.199  23.574   0.902
71179ION    NA+36340  26.358  30.006  13.976
71180ION    NA+36341  44.022  12.753   1.760
71181ION    NA+36342  14.549   1.211  13.641
71182ION    NA+36343   3.804  22.310   2.724
71183ION    NA+36344  18.511  21.282  12.010
71184ION    NA+36345  34.080  16.508   0.414
71185ION    NA+36346   0.787   9.355  14.809
71186ION    NA+36347  29.294  29.463   2.738
71187ION    NA+36348  10.138  38.811   5.121
71188ION    NA+36349  40.997   2.643  12.111
71189ION    NA+36350  12.842   8.220   1.025
71190ION    NA+36351   0.798   5.368   4.296
71191ION    NA+36352   0.427  30.618  13.552
71192ION    NA+36353  13.184  34.188  14.512
71193ION    NA+36354  22.723  16.407   5.413
71194ION    NA+36355   6.036   5.458   0.722
71195ION    NA+36356   9.152  29.138   1.300
71196ION    NA+36357  21.336  37.731   2.715
71197ION    NA+36358  31.056   7.747   2.330
71198ION    NA+36359  21.867  25.810   9.506
71199ION    NA+36360   6.554  19.697   4.072
71200ION    NA+36361  26.953  42.526   3.593
71201ION    NA+36362  36.440   8.672  14.977
71202ION    NA+36363   9.967   0.766   5.294
71203ION    NA+36364  30.444  23.026  14.426
71204ION    NA+36365  30.518  27.403   0.899
71205ION    NA+36366  16.347  18.731  14.216
71206ION    NA+36367   4.497   9.427   0.243
71207ION    NA+36368  29.482  28.097   5.468
71208ION    NA+36369  20.693   3.433   1.266
71209ION    NA+36370  18.768  19.908   5.499
71210ION    NA+36371   1.712  19.001   1.560
71211ION    NA+36372  12.336  33.807  13.633
71212ION    NA+36373  20.114  13.751   4.094
71213ION    NA+36374  21.249  14.326  13.266
71214ION    NA+36375   3.433  43.528  13.626
71215ION    NA+36376  29.060  11.546   2.328
71216ION    NA+36377  33.902   1.898   2.786
71217ION    NA+36378  21.025  11.342   3.572
71218ION    NA+36379  42.446  28.116   3.682
71219ION    NA+36380  19.558  23.419   2.120
71220ION    NA+36381  44.233  11.001  14.213
71221ION    NA+36382   0.272  23.497  13.315
71222ION    NA+36383  33.671  20.561   1.871
71223ION    NA+36384   9.297  20.282   4.209
71224ION    NA+36385  20.346  40.666   1.251
71225ION    NA+36386  15.265  17.632   3.263
71226ION    NA+36387   0.855  25.398  10.607
71227ION    NA+36388   6.872  43.301  14.517
71228ION    NA+36389   8.941  42.858  10.614
71229ION    NA+36390  35.465   1.308  11.866
71230ION    NA+36391   0.795  42.054  14.889
71231ION    NA+36392  31.060  27.563  13.754
71232ION    NA+36393   1.048  41.194  11.603
71233ION    NA+36394   0.815  12.678   0.826
71234ION    NA+36395  11.353  13.097  12.890
71235ION    NA+36396   3.214   8.461   3.858
71236ION    NA+36397  22.772  38.366  14.944
71237ION    NA+36398  10.432   1.888   2.241
71238ION    NA+36399  22.254  13.681   0.570
71239ION    NA+36400  12.637  38.600   2.711
71240ION    NA+36401  40.721  15.044  12.780
71241ION    NA+36402  31.668  37.510   1.054
71242ION    NA+36403  28.712  15.526  12.902
71243ION    NA+36404  29.364  35.559   3.560
71244ION    NA+36405  38.983  19.959  11.558
71245ION    NA+36406  27.941   8.790   3.277
71246ION    NA+36407  37.330  16.122  14.863
71247ION    NA+36408  13.151  20.196   1.873
71248ION    NA+36409  39.174  23.486   5.432
71249ION    NA+36410  37.048  14.105   1.695
71250ION    NA+36411  42.441  15.254   2.459
71251ION    NA+36412  24.229   5.342  14.856
71252ION    NA+36413  29.885  41.010  14.567
71253ION    NA+36414  27.670   6.697   4.249
71254ION    NA+36415  23.582  24.458   2.758
71255ION    NA+36416   3.586  41.651   0.176
71256ION    NA+36417   9.766  14.043   2.440
71257ION    NA+36418  34.796  18.344  12.163
71258ION    NA+36419  41.343  21.852  11.134
71259ION    NA+36420   0.424  22.931   0.379
71260ION    NA+36421  17.063   6.181   4.275
71261ION    NA+36422  24.072   6.622  13.438
71262ION    NA+36423  26.982  37.280   4.050
71263ION    NA+36424  33.550  24.724   2.426
71264ION    NA+36425  40.252  26.408  14.555
71265ION    NA+36426  16.096  16.127   4.289
71266ION    NA+36427   3.241   3.913  13.347
71267ION    NA+36428  32.351   4.692  11.329
71268ION    NA+36429  42.955  37.620  12.617
71269ION    NA+36430  22.287  33.726   1.200
71270ION    NA+36431   2.270  25.673   4.782
71271ION    NA+36432  28.180  32.471  13.822
71272ION    NA+36433  34.917  40.260   0.011
71273ION    NA+36434  39.273  35.295   2.818
71274ION    NA+36435  19.250  42.008  10.687
71275ION    NA+36436  43.261  41.539  10.773
71276ION    NA+36437  20.718  16.113   2.231
71277ION    NA+36438  26.961  20.262  11.656
71278ION    NA+36439  19.609  34.936  14.194
71279ION    NA+36440   7.106  15.963   0.867
71280ION    NA+36441  38.310  16.082  10.347
71281ION    NA+36442  29.827  36.461  10.038
71282ION    NA+36443  17.239  36.359  13.891
71283ION    NA+36444   2.860  34.323  10.783
71284ION    NA+36445  29.011  24.187   4.504
71285ION    NA+36446   3.906   6.514   1.948
71286ION    NA+36447  19.340  38.524  14.736
71287ION    NA+36448   9.339  36.756   1.957
71288ION    NA+36449  29.934  17.582  14.933
71289ION    NA+36450  18.141  37.734  13.538
71290ION    NA+36451   4.379   9.992  14.461
71291ION    NA+36452  16.716  33.589  13.400
71292ION    NA+36453  30.699  14.257  11.080
71293ION    NA+36454  40.134  23.611  13.924
71294ION    NA+36455  22.421   6.912   4.331
71295ION    NA+36456  10.452  42.279   2.836
71296ION    NA+36457  22.675  39.752   0.118
71297ION    NA+36458  41.049  36.277   1.727
71298ION    NA+36459   1.971  21.055   0.240
71299ION    NA+36460  30.067  24.653   2.608
71300ION    NA+36461  27.211   3.817  14.789
71301ION    NA+36462  33.551  10.634   4.040
71302ION    NA+36463   2.826  34.107  14.365
71303ION    NA+36464   1.185  24.683   2.125
71304ION    NA+36465  32.211  10.636  11.196
71305ION    NA+36466  40.285  13.201  13.418
71306ION    NA+36467  42.887  28.653   1.253
71307ION    NA+36468   9.929  42.573   0.850
71308ION    NA+36469  40.968   7.829  12.839
71309ION    NA+36470   9.784   2.677  11.383
71310ION    NA+36471  21.899  24.046   2.434
71311ION    NA+36472  28.910  41.414  10.327
71312ION    NA+36473  19.900  13.581  12.570
71313ION    NA+36474  16.522  32.641   1.096
71314ION    NA+36475  44.791  22.854  14.610
71315ION    NA+36476  33.247   9.081  13.703
71316ION    NA+36477  14.808  23.639   2.811
71317ION    NA+36478  42.839  42.193   4.995
71318ION    NA+36479  33.188  29.627  14.630
71319ION    NA+36480  30.396  37.586  12.057
71320ION    NA+36481   3.692  14.775  14.381
71321ION    NA+36482  43.257  41.622   1.758
71322ION    NA+36483  34.659   0.684   3.146
71323ION    NA+36484  23.730  28.257  14.897
71324ION    NA+36485  21.149  41.716   3.133
71325ION    NA+36486  34.592  28.654  14.063
71326ION    NA+36487  27.762  10.296   1.233
71327ION    NA+36488  26.979  30.438   0.234
71328ION    NA+36489  13.794  24.487   1.228
71329ION    NA+36490  32.254  26.384   3.989
71330ION    NA+36491  23.166   6.428  12.703
71331ION    NA+36492  14.638   9.327   4.290
71332ION    NA+36493  41.902  44.446  11.421
71333ION    NA+36494  12.813   7.116   0.282
71334ION    NA+36495  36.588   9.527  14.034
71335ION    NA+36496  38.418  16.744   0.284
71336ION    NA+36497  14.877   2.182   4.250
71337ION    NA+36498  17.450  25.962   0.954
71338ION    NA+36499  38.368  43.742   0.736
71339ION    NA+36500  39.389  41.352   4.044
71340ION    NA+36501  10.365  15.143   1.828
71341ION    NA+36502  32.159  35.553   2.328
71342ION    NA+36503   6.843   0.948   4.350
71343ION    NA+36504  16.085  10.323  10.821
71344ION    NA+36505  42.718   3.621  13.381
71345ION    NA+36506  32.988  15.642  14.835
71346ION    NA+36507  34.405  12.708   1.358
71347ION    NA+36508  21.271  21.019   3.966
71348ION    NA+36509   0.668  10.997  12.425
71349ION    NA+36510  22.800  19.727   0.137
71350ION    NA+36511  30.913   5.092   0.824
71351ION    NA+36512  36.623  24.314   3.290
71352ION    NA+36513  14.363  16.115   4.967
71353ION    NA+36514  40.932  11.190  11.209
71354ION    NA+36515  23.216  29.878   1.010
71355ION    NA+36516   5.752   6.922  10.854
71356ION    NA+36517  44.973  12.773   2.676
71357ION    NA+36518  17.993  25.921   1.792
71358ION    NA+36519  19.742  39.597  10.146
71359ION    NA+36520  29.633  42.943   3.094
71360ION    NA+36521  29.973  38.848   3.644
71361ION    NA+36522  43.067  35.414   2.189
71362ION    NA+36523   4.362  40.128   2.162
71363ION    NA+36524  29.566   5.131   0.056
71364ION    NA+36525  15.277  41.941  14.042
71365ION    NA+36526  17.600   4.848  11.404
71366ION    NA+36527   4.517   4.229  13.575
71367ION    NA+36528  40.219   2.882  12.087
71368ION    NA+36529  33.857  38.550   2.100
71369ION    NA+36530  23.269  33.638   2.934
71370ION    NA+36531  28.489  14.619  10.386
71371ION    NA+36532  40.904  24.042   1.922
71372ION    NA+36533  36.208  25.767   2.083
71373ION    NA+36534  29.453   0.892  11.207
71374ION    NA+36535  42.701  23.010  12.977
71375ION    NA+36536  32.386  15.436  13.277
71376ION    NA+36537   4.737  30.937  12.313
71377ION    NA+36538  12.860  23.537   3.902
71378ION    NA+36539  36.030  32.033   4.071
71379ION    NA+36540  34.398   7.343  12.441
71380ION    NA+36541   7.258  22.205   2.758
71381ION    NA+36542  15.366  23.417   0.003
71382ION    NA+36543  33.440  16.891   2.441
71383ION    NA+36544  18.172   2.045  11.529
71384ION    NA+36545   4.590  30.908   4.260
71385ION    NA+36546   5.333  27.653  10.764
71386ION    NA+36547   2.255  13.879  11.558
71387ION    NA+36548   4.400  38.699  12.979
71388ION    NA+36549  43.917  27.441  14.844
71389ION    NA+36550  42.174  31.554  10.370
71390ION    NA+36551  28.561  18.252   0.782
71391ION    NA+36552  19.262  19.711  11.616
71392ION    NA+36553  28.721  13.710   4.464
71393ION    NA+36554  13.441   5.873   0.077
71394ION    NA+36555   2.419   1.444  13.887
71395ION    NA+36556  39.088  27.541   1.775
71396ION    NA+36557  34.934  32.768   1.357
71397ION    NA+36558  36.550  19.257   1.150
71398ION    NA+36559  17.086  16.296  12.373
71399ION    NA+36560  11.266  30.944   1.385
71400ION    NA+36561  19.593  34.540   0.499
71401ION    NA+36562   1.758  22.745   4.165
71402ION    NA+36563  12.115  38.632  14.034
71403ION    NA+36564  16.288  10.951   2.562
71404ION    NA+36565  18.178  41.370  12.177
71405ION    NA+36566  21.697   4.035   2.106
71406ION    NA+36567   2.029  23.930  12.067
71407ION    NA+36568  22.519  33.183   3.024
71408ION    NA+36569  11.343  22.381  13.873
71409ION    NA+36570  15.044  18.345   0.686
71410ION    NA+36571  34.213  26.981   4.151
71411ION    NA+36572  34.961  31.117  13.737
71412ION    NA+36573  38.990  33.369  11.030
71413ION    NA+36574   7.908  10.515  12.743
71414ION    NA+36575  12.801  38.481   0.045
71415ION    NA+36576  36.294  36.065  12.204
71416ION    NA+36577  38.021   3.907   4.354
71417ION    NA+36578  35.509  44.065  11.056
71418ION    NA+36579  28.550  42.966   4.101
71419ION    NA+36580  21.523  31.626  11.180
71420ION    NA+36581  32.052  25.217   1.760
71421ION    NA+36582  37.087  26.963   2.737
71422ION    NA+36583   9.141  13.598   1.253
71423ION    NA+36584  26.604  13.790   4.795
71424ION    NA+36585  39.053  35.858   4.606
71425ION    NA+36586   4.247  22.183   0.641
71426ION    NA+36587  35.957  33.549  13.146
71427ION    NA+36588  15.524  40.945  13.864
71428ION    NA+36589   5.389  17.036  12.485
71429ION    NA+36590   4.786   5.285  14.236
71430ION    NA+36591  10.709   0.977  11.144
71431ION    NA+36592  12.034  10.530  14.859
71432ION    NA+36593  29.698  37.011  11.073
71433ION    NA+36594  41.886  42.155  13.022
71434ION    NA+36595   4.780  15.747   0.782
71435ION    NA+36596  13.517  18.786   2.885
71436ION    NA+36597  41.029   9.102  11.899
71437ION    NA+36598  21.014   6.468  14.296
71438ION    NA+36599  41.252  43.018  11.469
71439ION    NA+36600  40.631  16.774  11.936
71440ION    NA+36601  16.205  36.384  14.533
71441ION    NA+36602  20.335  36.489  11.474
71442ION    NA+36603  34.559  33.075  13.510
71443ION    NA+36604  43.798  34.093   2.936
71444ION    NA+36605   0.636  16.152  13.814
71445ION    NA+36606   3.739  21.585   1.385
71446ION    NA+36607   1.918  18.090  13.889
71447ION    NA+36608  24.649  40.880   1.793
71448ION    NA+36609  13.537  18.414   4.946
71449ION    NA+36610   0.234   3.062   1.455
71450ION    NA+36611  41.361  22.620   2.653
71451ION    NA+36612  21.055  37.578   0.824
71452ION    NA+36613  28.929  41.478   4.142
71453ION    NA+36614   1.237   0.213  11.456
71454ION    NA+36615  15.889  24.090   3.619
71455ION    NA+36616  10.604  40.275   4.334
71456ION    NA+36617  44.976  15.212   4.111
71457ION    NA+36618  10.626  12.370   2.623
71458ION    NA+36619  20.547   9.955  13.051
71459ION    NA+36620  17.539  33.588   4.094
71460ION    NA+36621  10.581  33.151   2.684
71461ION    NA+36622  13.580  41.516  13.608
71462ION    NA+36623  29.960  37.378   1.384
71463ION    NA+36624  24.489  40.860   3.049
71464ION    NA+36625   2.151   3.753   0.479
71465ION    NA+36626  36.841  31.001  12.741
71466ION    NA+36627  16.971  33.449  11.272
71467ION    NA+36628   2.733   2.977   2.196
71468ION    NA+36629   1.307  37.780   1.326
71469ION    NA+36630  10.827  28.064  13.069
71470ION    NA+36631  25.750  26.495   4.114
71471ION    NA+36632  38.351  42.889   1.285
71472ION    NA+36633  44.240  38.153   0.159
71473ION    NA+36634  25.452   8.117  13.574
71474ION    NA+36635   5.823  18.241  13.828
71475ION    NA+36636  40.244  33.382  11.427
71476ION    NA+36637  26.890  24.627   4.144
71477ION    NA+36638  36.669  29.119   4.308
71478ION    NA+36639  31.080  32.690   4.061
71479ION    NA+36640  21.426   8.693   4.113
71480ION    NA+36641  31.318  30.843  12.673
71481ION    NA+36642   5.311  43.979   3.939
71482ION    NA+36643  42.314  36.565  12.981
71483ION    NA+36644   9.736  19.671   1.884
71484ION    NA+36645  14.796  14.772  14.740
71485ION    NA+36646  37.122   2.550  14.231
71486ION    NA+36647  40.538   8.190   3.871
71487ION    NA+36648  21.088  15.313   4.115
71488ION    NA+36649   4.536  33.874   3.573
71489ION    NA+36650   4.631  28.096  13.489
71490ION    NA+36651  38.802  30.834  10.808
71491ION    NA+36652   1.824  38.160   4.301
71492ION    NA+36653   7.444  15.293  13.871
71493ION    NA+36654  38.022  13.298   0.290
71494ION    NA+36655  24.163  43.762  13.034
71495ION    NA+36656  28.182  39.301   3.739
71496ION    NA+36657  21.328  44.848  13.551
71497ION    NA+36658  14.099  39.041  12.264
71498ION    NA+36659   2.270   7.457  14.718
71499ION    NA+36660   3.160  11.925   0.745
71500ION    NA+36661  28.477  19.770  10.663
71501ION    NA+36662   4.045  20.827   2.973
71502ION    NA+36663  44.550  26.422  12.647
71503ION    NA+36664  15.791   2.444   0.489
71504ION    NA+36665   6.355  41.860  12.160
71505ION    NA+36666  32.691  11.701  10.684
71506ION    NA+36667  20.719  34.378  12.430
71507ION    NA+36668  40.192  12.002   4.887
71508ION    NA+36669  28.612  36.052   0.891
71509ION    NA+36670  23.428   2.028  12.347
71510ION    NA+36671  15.078  13.528  14.989
71511ION    NA+36672   6.818  19.929   4.827
71512ION    NA+36673  33.187  13.555   4.513
71513ION    NA+36674  17.560   5.176  14.243
71514ION    NA+36675  32.315   6.395  12.254
71515ION    NA+36676  22.904  13.250   2.011
71516ION    NA+36677   5.186   1.611  13.221
71517ION    NA+36678  12.713  35.147  12.953
71518ION    NA+36679  41.810   8.435  12.866
71519ION    NA+36680  28.406  29.458   4.815
71520ION    NA+36681  16.212  43.440   1.873
71521ION    NA+36682   6.966  41.005  12.018
71522ION    NA+36683   6.794  28.332  14.118
71523ION    NA+36684  39.382  34.764   0.275
71524ION    NA+36685   5.550   5.358   3.680
71525ION    NA+36686  31.493  33.885  13.950
71526ION    NA+36687  11.419  22.224  11.885
71527ION    NA+36688  36.537   4.524  11.604
71528ION    NA+36689  42.801  25.974  11.616
71529ION    NA+36690  29.600  16.991  12.765
71530ION    NA+36691  23.077  17.283   3.155
71531ION    NA+36692  15.482  43.966   2.681
71532ION    NA+36693   9.389   1.276  12.497
71533ION    NA+36694  29.431  28.243  11.064
71534ION    NA+36695  27.826  29.226   2.621
71535ION    NA+36696  30.065  34.968   0.923
71536ION    NA+36697  24.184  16.574   0.485
71537ION    NA+36698  44.203  11.142   2.164
71538ION    NA+36699  33.963  23.330  11.566
71539ION    NA+36700  38.332  12.821  11.205
71540ION    NA+36701  42.262  15.322  12.041
71541ION    NA+36702   1.404  19.137  11.423
71542ION    NA+36703  22.222  41.212   2.765
71543ION    NA+36704  26.034  26.086   1.824
71544ION    NA+36705  20.566  21.136  13.875
71545ION    NA+36706  10.711  35.459  11.497
71546ION    NA+36707  44.657  18.086   2.976
71547ION    NA+36708  14.166  23.679   0.722
71548ION    NA+36709  29.916  42.664   2.176
71549ION    NA+36710  44.821  44.414  14.511
71550ION    NA+36711  12.044  39.365  10.095
71551ION    NA+36712  22.194  32.452  13.492
71552ION    NA+36713  21.240  41.881   2.151
71553ION    NA+36714   0.931  22.451  12.927
71554ION    NA+36715  42.271   2.782   2.217
71555ION    NA+36716  28.173   9.322  12.628
71556ION    NA+36717  27.095  30.920  11.064
71557ION    NA+36718  36.746  18.228   2.483
71558ION    NA+36719  31.055  28.169   4.751
71559ION    NA+36720  20.048  20.081  13.958
71560ION    NA+36721  42.203  27.570   2.288
71561ION    NA+36722  27.499  30.827   3.753
71562ION    NA+36723  13.111  12.641  11.945
71563ION    NA+36724  30.653  14.868  11.973
71564ION    NA+36725  34.257  40.861  14.522
71565ION    NA+36726  30.055  44.426  14.189
71566ION    NA+36727  17.240  41.904   3.587
71567ION    NA+36728  12.395  31.046   1.707
71568ION    NA+36729  12.128  44.447  10.724
71569ION    NA+36730   0.599  22.824  14.400
71570ION    NA+36731   0.474  13.506   2.216
71571ION    NA+36732   5.142  16.663  14.251
71572ION    NA+36733   0.815   0.825  12.125
71573ION    NA+36734  14.134  44.188   0.365
71574ION    NA+36735  43.048   9.773  10.814
71575ION    NA+36736  30.796  16.639   1.867
71576ION    NA+36737   9.996  40.603   2.141
71577ION    NA+36738  17.031  34.550   2.866
71578ION    NA+36739  13.750   6.629  10.939
71579ION    NA+36740  40.590   6.051  14.365
71580ION    NA+36741   8.562  20.596  11.868
71581ION    NA+36742  37.367   7.429   2.332
71582ION    NA+36743   2.433  44.001   1.447
71583ION    NA+36744   0.119  28.787   1.581
71584ION    NA+36745  37.156   3.850  13.051
71585ION    NA+36746  32.036  29.783   2.372
71586ION    NA+36747  20.515  11.724   2.186
71587ION    NA+36748  43.780  30.862   1.282
71588ION    NA+36749  23.564  37.844  12.109
71589ION    NA+36750   9.715  27.641  10.781
71590ION    NA+36751  14.326  32.744  12.839
71591ION    NA+36752  13.455  16.034   2.947
71592ION    NA+36753  28.259  17.241   4.558
71593ION    NA+36754  11.195  17.018  14.466
71594ION    NA+36755  19.418  44.006   0.631
71595ION    NA+36756   9.612  41.167  13.845
71596ION    NA+36757   6.629   9.228   4.474
71597ION    NA+36758  42.623   9.156  14.860
71598ION    NA+36759  17.043  43.185   1.167
71599ION    NA+36760  29.462   9.343  12.102
71600ION    NA+36761   7.619  33.962  10.914
71601ION    NA+36762  11.830  25.508   3.701
71602ION    NA+36763  32.655   0.893  13.117
71603ION    NA+36764   5.791  10.124  11.624
71604ION    NA+36765  15.029  43.288  14.250
71605ION    NA+36766  16.774  27.760   1.957
71606ION    NA+36767  31.496  34.831  13.010
71607ION    NA+36768  17.897  16.599   3.131
71608ION    NA+36769   0.532  32.281  13.046
71609ION    NA+36770   7.815  26.667  10.326
71610ION    NA+36771  26.509   7.702   5.017
71611ION    NA+36772  30.359  29.618  11.008
71612ION    NA+36773  30.076  40.547   0.456
71613ION    NA+36774  25.946   6.355  12.989
71614ION    NA+36775  20.020  25.660  11.972
71615ION    NA+36776  34.693  41.657   1.212
71616ION    NA+36777  40.092  26.741   2.483
71617ION    NA+36778  13.416  20.076   0.639
71618ION    NA+36779  26.503  32.036   2.203
71619ION    NA+36780   4.742  38.631  11.585
71620ION    NA+36781   5.275  32.156  12.791
71621ION    NA+36782  37.902  38.867   9.593
71622ION    NA+36783   9.796   2.804   3.217
71623ION    NA+36784  38.665  31.982  14.104
71624ION    NA+36785  14.623   6.593   0.395
71625ION    NA+36786  38.202   7.215   1.824
71626ION    NA+36787  34.866   9.729   4.341
71627ION    NA+36788  31.206   2.598  14.426
71628ION    NA+36789  14.466  39.294   1.417
71629ION    NA+36790   9.419  21.688   1.014
71630ION    NA+36791  21.661   1.594  12.026
71631ION    NA+36792  33.608   6.877   4.737
71632ION    NA+36793   4.228  20.792   0.595
71633ION    NA+36794   9.490   5.523  12.969
71634ION    NA+36795  29.404  40.628  10.699
71635ION    NA+36796  31.210  44.748   5.273
71636ION    NA+36797   5.388  27.592   3.009
71637ION    NA+36798  29.578   1.137   4.172
71638ION    NA+36799  28.023  23.988   5.466
71639ION    NA+36800  26.166  24.945  14.842
71640ION    NA+36801  37.305  10.244  12.813
71641ION    NA+36802  39.430   3.625  11.163
71642ION    NA+36803  36.465  21.121  12.651
71643ION    NA+36804  36.873  32.268  12.491
71644ION    NA+36805   6.593  21.549  13.357
71645ION    NA+36806  39.041  36.026  13.385
71646ION    NA+36807  43.505  40.961   3.950
71647ION    NA+36808  25.545  30.324  14.463
71648ION    NA+36809  25.669  21.705  10.390
71649ION    NA+36810  10.386   5.923   0.083
71650ION    NA+36811  19.741  33.566   0.075
71651ION    NA+36812  32.623   5.557  11.751
71652ION    NA+36813  39.906  36.421  11.718
71653ION    NA+36814   0.126   6.176   1.945
71654ION    NA+36815  21.787  30.600  14.784
71655ION    NA+36816   4.925  26.452   0.406
71656ION    NA+36817  19.832  22.367  13.901
71657ION    NA+36818  18.272  11.994  10.790
71658ION    NA+36819  34.078  26.742  10.703
71659ION    NA+36820  28.194   5.604   4.156
71660ION    NA+36821   6.112   2.127  11.820
71661ION    NA+36822  20.080  36.583  14.744
71662ION    NA+36823  28.567  24.442  12.011
71663ION    NA+36824  10.982  34.377  14.306
71664ION    NA+36825  34.390  27.941  13.391
71665ION    NA+36826  24.320  32.697   3.216
71666ION    NA+36827  32.329  38.799  13.519
71667ION    NA+36828  30.723  35.030   4.147
71668ION    NA+36829   8.159   5.056   3.487
71669ION    NA+36830  23.288   0.378  11.146
71670ION    NA+36831  19.285  24.059   2.839
71671ION    NA+36832   0.744  19.954   1.963
71672ION    NA+36833  39.977   4.922  13.256
71673ION    NA+36834   7.345  15.213   0.249
71674ION    NA+36835  29.494   9.169  10.594
71675ION    NA+36836  27.152  25.143   0.077
71676ION    NA+36837  33.742  43.218  13.101
71677ION    NA+36838   6.451   7.863  11.733
71678ION    NA+36839   8.828  22.188   2.592
71679ION    NA+36840  41.533  37.067   4.668
71680ION    NA+36841   7.291  42.423   0.673
71681ION    NA+36842   8.016  30.337  11.151
71682ION    NA+36843  34.207   6.442  13.895
71683ION    NA+36844  36.045  34.965  11.094
71684ION    NA+36845  26.254   5.980  10.908
71685ION    NA+36846  31.440  24.064  12.044
71686ION    NA+36847   6.843  44.707  11.148
71687ION    NA+36848  35.425  20.090   0.085
71688ION    NA+36849  14.187  20.080   2.071
71689ION    NA+36850  34.122  38.679  11.745
71690ION    NA+36851  37.353  21.476  10.703
71691ION    NA+36852  26.660  24.167  11.088
71692ION    NA+36853   1.946  29.397   2.782
71693ION    NA+36854  39.340  17.911  14.758
71694ION    NA+36855  24.713  42.493   4.622
71695ION    NA+36856   0.458  41.849  11.130
71696ION    NA+36857  43.285   0.390  13.360
71697ION    NA+36858  12.345   0.039  12.292
71698ION    NA+36859   3.755  25.462   9.808
71699ION    NA+36860  43.121   3.696  14.947
71700ION    NA+36861  18.869  30.938  12.451
71701ION    NA+36862  44.780  13.354  13.043
71702ION    NA+36863  32.970  27.153  13.467
71703ION    NA+36864  25.512  44.149   3.532
71704ION    NA+36865  24.840  37.280  13.716
71705ION    NA+36866   7.150  42.465  12.213
71706ION    NA+36867  19.965  43.847  13.803
71707ION    NA+36868  41.738  43.333   1.394
71708ION    NA+36869   4.997  32.816  13.489
71709ION    NA+36870  27.961  39.141  14.844
71710ION    NA+36871  24.069  16.973   3.396
71711ION    NA+36872  35.915  21.676  10.662
71712ION    NA+36873  40.555  27.980  11.676
71713ION    NA+36874   2.781  36.796   2.857
71714ION    NA+36875   7.871  40.381   3.844
71715ION    NA+36876   7.892  42.805   1.375
71716ION    NA+36877  34.488  20.670   4.638
71717ION    NA+36878  18.149  14.994   1.832
71718ION    NA+36879   5.798  37.049   2.553
71719ION    NA+36880   4.226  22.689  12.720
71720ION    NA+36881  40.322  12.045  10.684
71721ION    NA+36882  27.567   3.630  11.786
71722ION    NA+36883  36.616  10.370  11.416
71723ION    NA+36884  39.473  26.375  11.730
71724ION    NA+36885  22.903  31.506   3.653
71725ION    NA+36886   1.367  13.168   1.843
71726ION    NA+36887   5.229   6.889  11.706
71727ION    NA+36888  17.467  23.654  12.931
71728ION    NA+36889  17.566   8.893  14.980
71729ION    NA+36890  17.611  20.615   1.363
71730ION    NA+36891  20.083  10.866   3.209
71731ION    NA+36892  25.373  35.885   2.732
71732ION    NA+36893  25.333  33.202  13.375
71733ION    NA+36894  24.829  42.462   1.207
71734ION    NA+36895  37.010  16.912   0.385
71735ION    NA+36896   9.738  13.555   3.082
71736ION    NA+36897  37.731  25.088  10.577
71737ION    NA+36898  43.865  30.366  12.500
71738ION    NA+36899  40.411  10.101  12.109
71739ION    NA+36900  34.227   1.069   2.330
71740ION    NA+36901   2.521  36.439  12.228
71741ION    NA+36902   2.179  16.363  14.703
71742ION    NA+36903  34.381  39.375   0.573
71743ION    NA+36904  18.800  28.527  14.787
71744ION    NA+36905  30.667  21.045  10.565
71745ION    NA+36906  17.791   0.469  13.889
71746ION    NA+36907  43.012  41.857  12.864
71747ION    NA+36908  41.290  32.468  12.621
71748ION    NA+36909  18.987  16.145  14.710
71749ION    NA+36910  16.520  22.799  12.441
71750ION    NA+36911  26.699  19.364  14.393
71751ION    NA+36912   2.710  11.187  11.080
71752ION    NA+36913  24.856  10.618   0.722
71753ION    NA+36914  10.944  20.303   0.321
71754ION    NA+36915   2.709  33.070  11.583
71755ION    NA+36916   5.707  13.101  12.130
71756ION    NA+36917  15.105  32.130   2.392
71757ION    NA+36918  41.584  25.084  11.689
71758ION    NA+36919   5.221  26.545   3.288
71759ION    NA+36920  10.394  20.273  13.050
71760ION    NA+36921  29.462  21.240   1.456
71761ION    NA+36922  38.599  10.707   0.941
71762ION    NA+36923   3.356   2.683   2.759
71763ION    NA+36924  15.829  15.658  13.311
71764ION    NA+36925   2.078  22.602  11.641
71765ION    NA+36926  37.546  10.498   2.763
71766ION    NA+36927   3.698  23.398  12.781
71767ION    NA+36928   6.686  18.529   3.109
71768ION    NA+36929  16.383  23.624   1.227
71769ION    NA+36930  26.524  23.955   1.879
71770ION    NA+36931  17.540   1.391   5.113
71771ION    NA+36932  42.843   4.446   1.308
71772ION    NA+36933  32.470  14.010   3.985
71773ION    NA+36934   8.864  24.645   3.875
71774ION    NA+36935  30.458  40.444  12.986
71775ION    NA+36936  35.005  34.474   1.409
71776ION    NA+36937   5.807   8.405   0.777
71777ION    NA+36938   2.018  19.195  14.877
71778ION    NA+36939  19.234   5.168   2.169
71779ION    NA+36940  41.052  33.596  10.877
71780ION    NA+36941   6.756  22.755   0.353
71781ION    NA+36942  14.348   3.016   4.427
71782ION    NA+36943  10.820  16.585   0.772
71783ION    NA+36944  11.255   9.770   0.741
71784ION    NA+36945  17.730   8.530   4.909
71785ION    NA+36946  34.882  15.864  13.463
71786ION    NA+36947  28.132  33.384   0.247
71787ION    NA+36948   1.676  18.602  12.269
71788ION    NA+36949  16.120   9.604  13.935
71789ION    NA+36950  35.899  42.111   1.176
71790ION    NA+36951  19.714   8.613   1.781
71791ION    NA+36952  16.852  19.247  13.524
71792ION    NA+36953   1.416  13.274   3.684
71793ION    NA+36954  10.271   0.988   4.367
71794ION    NA+36955  16.596  34.968   2.068
71795ION    NA+36956  39.957  27.594   4.557
71796ION    NA+36957  25.467  37.862   2.240
71797ION    NA+36958  32.624  42.281  14.963
71798ION    NA+36959   5.855  35.639  14.558
71799ION    NA+36960  11.279  36.342   3.193
71800ION    NA+36961  12.267  26.667   2.711
71801ION    NA+36962  12.437   3.464   1.827
71802ION    NA+36963  21.624  16.954   2.041
71803ION    NA+36964  32.560  23.072  11.987
71804ION    NA+36965   5.893  31.095  10.889
71805ION    NA+36966  27.910  24.850   1.864
71806ION    NA+36967  30.242  12.403  14.501
71807ION    NA+36968  23.467   7.759   4.737
71808ION    NA+36969  32.313  14.088  12.562
71809ION    NA+36970  18.833  23.687  14.299
71810ION    NA+36971  44.836   1.254  12.617
71811ION    NA+36972  28.040  41.821  12.508
71812ION    NA+36973  43.104   7.584  11.599
71813ION    NA+36974  35.054  37.871   0.308
71814ION    NA+36975  19.692  23.053  12.792
71815ION    NA+36976  29.544  34.239   3.397
71816ION    NA+36977  37.294   0.857   5.438
71817ION    NA+36978  16.548  40.733  14.256
71818ION    NA+36979  14.375  13.083   1.818
71819ION    NA+36980  39.253   5.363  10.764
71820ION    NA+36981  11.818  35.634   3.069
71821ION    NA+36982  20.579   3.030  12.033
71822ION    NA+36983  25.342   6.877  11.827
71823ION    NA+36984  11.120   0.159   4.471
71824ION    NA+36985  40.194   6.368   2.701
71825ION    NA+36986  26.744  22.558   2.528
71826ION    NA+36987  15.857  21.545   1.414
71827ION    NA+36988  16.077  37.916  11.570
71828ION    NA+36989  14.372  33.535  13.449
71829ION    NA+36990   3.281  15.310   2.835
71830ION    NA+36991  16.609  10.172   0.350
71831ION    NA+36992  24.495   5.398  13.894
71832ION    NA+36993  35.067  16.737  14.370
71833ION    NA+36994  43.284  27.573   3.910
71834ION    NA+36995  41.018  10.910   1.254
71835ION    NA+36996  17.300  26.643  14.439
71836ION    NA+36997   6.171  40.242   2.940
71837ION    NA+36998  15.573  20.646   3.730
71838ION    NA+36999   5.418  35.940   0.826
71839ION    NA+37000  36.367  42.514  13.062
71840ION    NA+37001  19.011  36.701  10.355
71841ION    NA+37002  10.998  31.707   0.743
71842ION    NA+37003  23.558   9.197   4.678
71843ION    NA+37004   5.565  22.730  12.973
71844ION    NA+37005  37.580  32.481   3.209
71845ION    NA+37006  11.345  39.273  14.224
71846ION    NA+37007   2.661  23.436  12.664
71847ION    NA+37008  42.407   0.318  13.143
71848ION    NA+37009  44.445   9.349   0.378
71849ION    NA+37010  29.501  18.066   2.361
71850ION    NA+37011  27.152  16.586   2.628
71851ION    NA+37012  42.448  11.152  14.954
71852ION    NA+37013  41.191   5.382  14.358
71853ION    NA+37014  17.652  24.161  11.064
71854ION    NA+37015   8.243   9.882  10.806
71855ION    NA+37016   3.771  42.191  14.082
71856ION    NA+37017   4.158  44.871  14.907
71857ION    NA+37018  25.897  10.887   0.883
71858ION    NA+37019  27.374  43.848  11.709
71859ION    NA+37020  28.436   8.283  14.120
71860ION    NA+37021   7.109  37.675   2.570
71861ION    NA+37022   7.960  20.870   9.692
71862ION    NA+37023  37.665  23.749  10.639
71863ION    NA+37024   4.042  33.063  13.326
71864ION    NA+37025  44.252  14.067  11.145
71865ION    NA+37026  44.297  39.418   0.198
71866ION    NA+37027  20.545   1.409   2.799
71867ION    NA+37028   7.248  40.214   2.158
71868ION    NA+37029  27.216  36.047   2.190
71869ION    NA+37030  17.781  24.419   3.707
71870ION    NA+37031   1.423  21.585  14.479
71871ION    NA+37032  20.435  37.501  14.284
71872ION    NA+37033   3.979   5.102  11.747
71873ION    NA+37034  25.441   8.177   4.424
71874ION    NA+37035  12.314  32.403  11.189
71875ION    NA+37036  33.911  29.995   1.616
71876ION    NA+37037  39.188  32.209   5.080
71877ION    NA+37038  27.659  14.019   1.650
71878ION    NA+37039   7.095  39.027  11.163
71879ION    NA+37040   1.962  13.778  14.451
71880ION    NA+37041   1.276  18.739   4.182
71881ION    NA+37042  17.784  27.066   3.246
71882ION    NA+37043   2.316  39.385   2.120
71883ION    NA+37044  14.181  32.830  11.184
71884ION    NA+37045   1.959   2.905   1.567
71885ION    NA+37046   7.955  43.988   0.751
71886ION    NA+37047  33.384  43.546   3.378
71887ION    NA+37048   7.830   5.273   4.623
71888ION    NA+37049  25.385  37.873   0.923
71889ION    NA+37050   2.533   6.568  11.164
71890ION    NA+37051  41.405  37.905   1.375
71891ION    NA+37052  32.707  19.262  14.209
71892ION    NA+37053  28.690  38.592  10.760
71893ION    NA+37054  31.748   1.968   1.827
71894ION    NA+37055   3.234   5.704   4.595
71895ION    NA+37056  10.996  23.363   3.582
71896ION    NA+37057  35.378  16.061  10.389
71897ION    NA+37058  15.310  17.706  13.538
71898ION    NA+37059  17.281  40.718   2.007
71899ION    NA+37060  38.043  15.583  14.325
71900ION    NA+37061  31.634   1.924   0.031
71901ION    NA+37062   2.351   2.916   3.603
71902ION    NA+37063  44.503  15.878   2.984
71903ION    NA+37064  19.657  27.458  11.115
71904ION    NA+37065  15.588   8.350  13.126
71905ION    NA+37066  20.859  41.650   0.554
71906ION    NA+37067   3.169  34.240   4.865
71907ION    NA+37068  40.014   6.860   1.017
71908ION    NA+37069  28.584   0.912   0.517
71909ION    NA+37070  37.094  43.825   4.691
71910ION    NA+37071  23.115  26.638  13.437
71911ION    NA+37072  33.886  14.698  14.518
71912ION    NA+37073  29.436  17.574  13.562
71913ION    NA+37074  23.820  43.589  10.803
71914ION    NA+37075  10.809   8.384   3.849
71915ION    NA+37076  34.410  30.144   3.743
71916ION    NA+37077  35.530  37.701   1.083
71917ION    NA+37078  42.930  35.977  12.907
71918ION    NA+37079  21.317  25.623  13.461
71919ION    NA+37080  40.002  32.275  14.657
71920ION    NA+37081  38.999  30.415   2.997
71921ION    NA+37082  26.413  37.832   9.399
71922ION    NA+37083   6.090  12.164  12.110
71923ION    NA+37084  36.252  28.520  12.851
71924ION    NA+37085   5.254  34.037  12.602
71925ION    NA+37086   1.169  44.005  12.744
71926ION    NA+37087   1.714  23.033  13.426
71927ION    NA+37088  34.986  23.774  10.775
71928ION    NA+37089   9.000   7.554   2.423
71929ION    NA+37090  13.300   8.723   4.201
71930ION    NA+37091  36.204  13.203   4.156
71931ION    NA+37092   2.040  17.984   2.689
71932ION    NA+37093   4.494   4.785   2.839
71933ION    NA+37094   5.155  31.599   2.531
71934ION    NA+37095  31.078  11.338  13.807
71935ION    NA+37096  17.535  10.088   4.266
71936ION    NA+37097   8.618   0.775   2.316
71937ION    NA+37098  25.258  32.421   3.426
71938ION    NA+37099  10.776  22.997  12.175
71939ION    NA+37100   0.786  28.668  14.577
71940ION    NA+37101   1.428  18.542  13.143
71941ION    NA+37102   5.868  37.046   4.399
71942ION    NA+37103  10.813  32.869   0.264
71943ION    NA+37104  31.077   6.961   1.311
71944ION    NA+37105  16.230  14.566   0.054
71945ION    NA+37106  29.622  22.162   3.722
71946ION    NA+37107  36.085  31.489  11.589
71947ION    NA+37108   8.669  29.187   2.260
71948ION    NA+37109   3.909  17.379  14.445
71949ION    NA+37110  15.065  16.329   3.516
71950ION    NA+37111  33.109  37.435  12.670
71951ION    NA+37112  25.288  17.147   2.770
71952ION    NA+37113   8.539   0.261  14.757
71953ION    NA+37114  37.460  15.640   3.459
71954ION    NA+37115  33.057  18.728   2.720
71955ION    NA+37116  37.795  41.951   4.473
71956ION    NA+37117  16.296  38.254   0.940
71957ION    NA+37118   3.429   8.365   1.387
71958ION    NA+37119  12.368  23.124   3.111
71959ION    NA+37120  30.849  32.327   0.517
71960ION    NA+37121   5.454  29.357   1.523
71961ION    NA+37122  27.598  23.797   4.794
71962ION    NA+37123   8.006  13.067  10.729
71963ION    NA+37124  31.539  13.545   1.173
71964ION    NA+37125  11.541   7.485  13.332
71965ION    NA+37126  38.790  33.612   3.293
71966ION    NA+37127  20.456  27.770   0.929
71967ION    NA+37128  20.349   8.790  13.597
71968ION    NA+37129  43.696  41.440  12.438
71969ION    NA+37130  10.122   5.167  12.399
71970ION    NA+37131  11.832  16.934   0.094
71971ION    NA+37132  28.247  28.327   2.746
71972ION    NA+37133  25.930  27.661   0.206
71973ION    NA+37134  13.387  38.741   5.300
71974ION    NA+37135  29.031  11.951   9.466
71975ION    NA+37136  28.410  26.151   1.760
71976ION    NA+37137  23.113  41.611   1.205
71977ION    NA+37138  16.173  24.931  12.021
71978ION    NA+37139   2.055  27.998  14.209
71979ION    NA+37140  10.313  31.481   1.559
71980ION    NA+37141  27.868  18.316   4.152
71981ION    NA+37142  19.246  21.693  10.147
71982ION    NA+37143   9.232  19.492  12.300
71983ION    NA+37144  26.753  23.557  14.902
71984ION    NA+37145  15.467  16.876  13.625
71985ION    NA+37146  12.357  13.209   1.175
71986ION    NA+37147   2.312  37.298  11.679
71987ION    NA+37148  36.245  22.047   0.521
71988ION    NA+37149  43.290   6.372  13.698
71989ION    NA+37150  33.356  23.474  14.127
71990ION    NA+37151  34.615  13.427   0.680
71991ION    NA+37152  40.757  13.243   3.202
71992ION    NA+37153  33.770  15.671   1.696
71993ION    NA+37154   4.669  34.823   3.864
71994ION    NA+37155  44.579  24.400  12.214
71995ION    NA+37156  31.609  15.737   0.317
71996ION    NA+37157  36.057  40.050  14.443
71997ION    NA+37158  44.005  31.326  14.461
71998ION    NA+37159  16.885  30.339  14.326
71999ION    NA+37160   3.563  38.336  10.721
72000ION    NA+37161  10.770  18.669   2.978
72001ION    NA+37162  15.046   9.099   1.167
72002ION    NA+37163  35.328  26.836  10.259
72003ION    NA+37164  29.761  27.332  10.743
72004ION    NA+37165   4.556  20.496   1.604
72005ION    NA+37166  43.908  17.032  13.160
72006ION    NA+37167  16.291   0.161  13.891
72007ION    NA+37168   5.313  43.655   2.994
72008ION    NA+37169   6.602   1.684   2.069
72009ION    NA+37170  23.943  42.598   0.765
72010ION    NA+37171  14.139  34.455  13.911
72011ION    NA+37172  39.497  15.220   2.861
72012ION    NA+37173  38.684  29.970   0.872
72013ION    NA+37174  28.868   7.759   2.719
72014ION    NA+37175  31.005  13.488   4.849
72015ION    NA+37176  35.952  12.130  14.795
72016ION    NA+37177  12.565  22.238   3.531
72017ION    NA+37178  24.229  36.617   1.645
72018ION    NA+37179  11.928  23.388   4.607
72019ION    NA+37180  28.538   0.318   3.145
72020ION    NA+37181   0.481  14.215  13.767
72021ION    NA+37182  33.020   3.405  10.707
72022ION    NA+37183  30.510  21.271  14.963
72023ION    NA+37184  22.632   0.246  14.761
72024ION    NA+37185  14.050  16.106   0.330
72025ION    NA+37186  12.321  17.800   0.511
72026ION    NA+37187  20.422  10.184  10.419
72027ION    NA+37188  41.967   7.905   1.261
72028ION    NA+37189   9.358   8.713  12.694
72029ION    NA+37190  34.986  26.683  12.969
72030ION    NA+37191  25.442  15.555   2.810
72031ION    NA+37192  35.851  26.617   1.320
72032ION    NA+37193  31.389   8.666  12.185
72033ION    NA+37194   7.957  37.021   2.885
72034ION    NA+37195  18.569  10.114   3.286
72035ION    NA+37196   2.827  43.706   3.083
72036ION    NA+37197   2.211  36.865  13.427
72037ION    NA+37198  43.374   7.444   4.493
72038ION    NA+37199  36.853   9.926  13.545
72039ION    NA+37200  35.821   5.212  10.699
72040ION    NA+37201  29.740  42.911  14.871
72041ION    NA+37202   6.415  39.552   3.722
72042ION    NA+37203  29.660   5.171   4.030
72043ION    NA+37204  43.943  27.848  13.923
72044ION    NA+37205   6.309  20.392   4.439
72045ION    NA+37206  21.587  15.647   2.065
72046ION    NA+37207  28.497  36.861   0.484
72047ION    NA+37208  14.333  17.479   0.492
72048ION    NA+37209   2.549  17.838   5.476
72049ION    NA+37210  22.449  28.053  11.663
72050ION    NA+37211  43.379  41.512   4.676
72051ION    NA+37212   1.826   8.221   0.185
72052ION    NA+37213   2.611   8.128   4.356
72053ION    NA+37214  44.513   3.863  11.220
72054ION    NA+37215  14.591   2.624   3.391
72055ION    NA+37216  30.457   3.080  13.971
72056ION    NA+37217  27.643  40.537   3.633
72057ION    NA+37218  41.622   5.324   1.664
72058ION    NA+37219  18.935  38.446   0.554
72059ION    NA+37220  44.170  21.820  13.845
72060ION    NA+37221  26.229   8.437   0.460
72061ION    NA+37222  41.117  33.386  14.649
72062ION    NA+37223  25.307  34.486  12.547
72063ION    NA+37224  19.731  35.437   2.733
72064ION    NA+37225  21.072  34.653  13.398
72065ION    NA+37226  10.878  26.841  11.115
72066ION    NA+37227  30.130  11.521   3.664
72067ION    NA+37228  43.311  31.310  13.532
72068ION    NA+37229  36.384   1.656  11.678
72069ION    NA+37230  41.789  13.848   4.426
72070ION    NA+37231   2.179  41.334  13.424
72071ION    NA+37232  44.601  39.805   1.863
72072ION    NA+37233   5.601  34.191  11.790
72073ION    NA+37234  29.996  23.756  11.915
72074ION    NA+37235   2.376  23.912   3.639
72075ION    NA+37236  43.984  24.009   0.381
72076ION    NA+37237   2.062   3.601   4.660
72077ION    NA+37238  32.566  24.046   3.230
72078ION    NA+37239  30.404  44.251   2.562
72079ION    NA+37240   9.767   3.420  12.052
72080ION    NA+37241  26.239  19.279  13.510
72081ION    NA+37242  36.303  44.824  12.011
72082ION    NA+37243  22.881  44.580  11.589
72083ION    NA+37244  25.664  30.273   3.707
72084ION    NA+37245  13.559  41.542   3.932
72085ION    NA+37246  13.162  39.385   3.187
72086ION    NA+37247   0.403   5.842  10.691
72087ION    NA+37248  32.253  17.494   3.378
72088ION    NA+37249  33.037  43.705  11.199
72089ION    NA+37250  41.123  23.125  13.460
72090ION    NA+37251  28.072  38.250   0.286
72091ION    NA+37252  14.852  38.670   0.843
72092ION    NA+37253  24.174   7.329   4.137
72093ION    NA+37254  40.592  19.457   1.315
72094ION    NA+37255  15.316  24.198   2.150
72095ION    NA+37256  32.175   5.099   0.605
72096ION    NA+37257  22.588   1.016  10.734
72097ION    NA+37258   0.992  41.005   4.363
72098ION    NA+37259  24.749  36.631  13.092
72099ION    NA+37260   8.904   8.573   4.663
72100ION    NA+37261  16.078  27.690  14.839
72101ION    NA+37262   2.460  33.611   1.983
72102ION    NA+37263   1.453  17.913  11.143
72103ION    NA+37264  20.877   4.744  13.001
72104ION    NA+37265   2.231   4.161  14.667
72105ION    NA+37266   7.897  22.012  11.277
72106ION    NA+37267  26.061  13.091  13.351
72107ION    NA+37268  19.031  10.170   1.864
72108ION    NA+37269  18.850  35.326   2.601
72109ION    NA+37270  34.951   6.712  12.984
72110ION    NA+37271  33.725   8.843  10.602
72111ION    NA+37272  40.811  10.864   2.777
72112ION    NA+37273  15.689   6.731   3.379
72113ION    NA+37274  40.401  31.994   1.897
72114ION    NA+37275  14.447   9.461   0.062
72115ION    NA+37276  33.174  37.156   4.802
72116ION    NA+37277   2.699  44.234  14.114
72117ION    NA+37278   0.186   0.399   4.155
72118ION    NA+37279   5.803  10.054  14.288
72119ION    NA+37280  42.798  26.064   0.311
72120ION    NA+37281  32.119  27.374   3.969
72121ION    NA+37282   6.481  25.339   3.284
72122ION    NA+37283  30.430  19.759  14.960
72123ION    NA+37284  44.218  25.533  13.947
72124ION    NA+37285   2.869  13.230   1.499
72125ION    NA+37286  14.383   5.901  11.202
72126ION    NA+37287  14.921   3.309   2.934
72127ION    NA+37288   3.402   1.193   2.883
72128ION    NA+37289  36.290  29.812   0.039
72129ION    NA+37290  42.066  14.277  10.738
72130ION    NA+37291  36.469   6.143   4.300
72131ION    NA+37292  38.793  17.530  12.520
72132ION    NA+37293   6.510  34.643  11.634
72133ION    NA+37294  29.921  41.808   3.243
72134ION    NA+37295   9.231  23.290  10.955
72135ION    NA+37296  41.956  31.642   0.776
72136ION    NA+37297  41.279  36.428   3.902
72137ION    NA+37298  43.641  20.444  12.930
72138ION    NA+37299  40.647  11.804  11.946
72139ION    NA+37300  13.675  36.747  14.156
72140ION    NA+37301   8.914  11.899   0.024
72141ION    NA+37302  38.437  43.108  12.511
72142ION    NA+37303  21.034  26.514   3.752
72143ION    NA+37304   6.331   4.698  11.105
72144ION    NA+37305  24.481  34.519   0.922
72145ION    NA+37306  40.699  31.596  11.567
72146ION    NA+37307  17.143   8.401  13.861
72147ION    NA+37308  27.417  39.436  13.393
72148ION    NA+37309   4.776   9.271  14.344
72149ION    NA+37310   5.752  29.188   0.336
72150ION    NA+37311  29.601   7.638  14.407
72151ION    NA+37312  32.027  27.323   2.793
72152ION    NA+37313  25.242  28.516  12.512
72153ION    NA+37314   2.151  20.119   3.649
72154ION    NA+37315  12.144  12.283   4.702
72155ION    NA+37316  41.320  31.240   3.043
72156ION    NA+37317  42.818   0.965  11.543
72157ION    NA+37318  43.215  15.406   1.818
72158ION    NA+37319  12.781  33.036   1.412
72159ION    NA+37320  15.608  15.672   2.854
72160ION    NA+37321  32.387  43.646  13.999
72161ION    NA+37322   3.377   9.531  10.212
72162ION    NA+37323  36.340  39.825   2.176
72163ION    NA+37324   0.913  24.489  13.887
72164ION    NA+37325  39.096  16.331  11.975
72165ION    NA+37326  17.586  12.504   4.697
72166ION    NA+37327  21.493   4.988  14.312
72167ION    NA+37328   0.223   4.109   3.985
72168ION    NA+37329  42.900  19.383   5.154
72169ION    NA+37330   2.713  39.604   4.201
72170ION    NA+37331  39.051   5.935  10.012
72171ION    NA+37332   8.722   3.025   1.235
72172ION    NA+37333  35.825  13.492   1.481
72173ION    NA+37334  10.604   4.519  12.135
72174ION    NA+37335  22.291  15.626   0.756
72175ION    NA+37336  24.460   7.469  12.603
72176ION    NA+37337  25.351  44.787   4.611
72177ION    NA+37338  24.943   4.780   4.235
72178ION    NA+37339  21.148  32.980   1.825
72179ION    NA+37340  18.486   1.595   0.199
72180ION    NA+37341  37.133  34.406  10.701
72181ION    NA+37342  25.130  31.536   4.492
72182ION    NA+37343   3.098  21.583  11.953
72183ION    NA+37344   4.832  16.693  11.004
72184ION    NA+37345  29.070   6.337   4.195
72185ION    NA+37346  37.905   1.031   4.622
72186ION    NA+37347  17.386  44.280  10.588
72187ION    NA+37348  13.443  29.151   1.791
72188ION    NA+37349  24.447  10.152  12.469
72189ION    NA+37350   1.116  11.869   1.915
72190ION    NA+37351  43.571  32.895   0.955
72191ION    NA+37352   5.225  28.492   2.605
72192ION    NA+37353  24.654  39.829   1.817
72193ION    NA+37354  26.446  12.564   0.483
72194ION    NA+37355  11.155  31.424   3.150
72195ION    NA+37356  37.314   7.863  14.278
72196ION    NA+37357  41.690   2.861  11.081
72197ION    NA+37358  32.605   2.091  14.855
72198ION    NA+37359  44.339  22.997   3.038
72199ION    NA+37360  21.191  42.920  10.919
72200ION    NA+37361   9.765  32.486  12.551
72201ION    NA+37362  11.814   2.264   3.352
72202ION    NA+37363  10.695  17.836  11.550
72203ION    NA+37364  31.839  15.769  11.777
72204ION    NA+37365  44.482   0.983   2.451
72205ION    NA+37366  43.483  22.561  13.515
72206ION    NA+37367   4.043   1.339  12.486
72207ION    NA+37368  16.811  42.813  14.054
72208ION    NA+37369   1.003   7.906  13.274
72209ION    NA+37370  12.818  25.054   0.860
72210ION    NA+37371   1.121   4.919   3.457
72211ION    NA+37372  20.260  43.970   0.882
72212ION    NA+37373  40.854  35.098   4.022
72213ION    NA+37374  36.363   1.379  12.854
72214ION    NA+37375  32.362  22.545   0.930
72215ION    NA+37376  14.002  15.919   4.163
72216ION    NA+37377   7.579  36.459   4.531
72217ION    NA+37378  31.081  22.985  12.447
72218ION    NA+37379  15.196  17.042   1.269
72219ION    NA+37380  13.902  31.905  14.330
72220ION    NA+37381   1.393   4.796  11.215
72221ION    NA+37382  16.595  10.535   1.332
72222ION    NA+37383  30.274   8.948  12.020
72223ION    NA+37384   7.349  14.615  11.982
72224ION    NA+37385  23.846  44.839  11.607
72225ION    NA+37386  15.152   2.566  12.366
72226ION    NA+37387  19.466  38.036   1.055
72227ION    NA+37388  14.651   3.253   1.939
72228ION    NA+37389  12.151  17.961  11.664
72229ION    NA+37390  30.402  17.298   3.117
72230ION    NA+37391  26.396   1.404   0.828
72231ION    NA+37392  36.927  15.191   4.775
72232ION    NA+37393  19.764   6.866  13.099
72233ION    NA+37394  44.706  24.277   2.260
72234ION    NA+37395   3.181  21.961   4.608
72235ION    NA+37396  29.020  39.834   3.623
72236ION    NA+37397  35.440  29.294  13.271
72237ION    NA+37398  11.325  34.660  13.410
72238ION    NA+37399   2.523  10.296   1.340
72239ION    NA+37400  34.915  28.706   2.332
72240ION    NA+37401  19.680  37.967  11.190
72241ION    NA+37402  43.067   1.812   0.207
72242ION    NA+37403  34.503   4.713  12.089
72243ION    NA+37404  26.063   5.374   2.732
72244ION    NA+37405  17.656  30.727  11.512
72245ION    NA+37406  40.730  23.665   4.501
72246ION    NA+37407  15.232   7.134  13.892
72247ION    NA+37408   2.170   0.909  11.627
72248ION    NA+37409  34.645  33.140   0.569
72249ION    NA+37410   4.517  26.065  12.593
72250ION    NA+37411  10.326   0.185   3.650
72251ION    NA+37412   0.896  37.019   0.375
72252ION    NA+37413  28.065  11.832  11.953
72253ION    NA+37414  26.310  44.813   2.256
72254ION    NA+37415   2.246  44.652  14.718
72255ION    NA+37416  21.059   1.943  12.906
72256ION    NA+37417  38.182  12.635   9.516
72257ION    NA+37418  39.621  27.611  13.768
72258ION    NA+37419  30.061  18.503   0.556
72259ION    NA+37420  12.188  28.640   3.665
72260ION    NA+37421  33.859  29.310   3.695
72261ION    NA+37422  24.021  24.003  12.608
72262ION    NA+37423  40.542  26.514   1.031
72263ION    NA+37424  10.192  28.502  13.834
72264ION    NA+37425  19.849   0.814   2.398
72265ION    NA+37426  39.357  28.430  10.579
72266ION    NA+37427  39.265  26.378  14.715
72267ION    NA+37428  16.073   4.973   1.426
72268ION    NA+37429  40.681  18.335   0.320
72269ION    NA+37430  44.758  34.131   5.520
72270ION    NA+37431   3.971  26.380   2.594
72271ION    NA+37432  21.625  34.469   0.446
72272ION    NA+37433  25.132  23.663   0.965
72273ION    NA+37434  14.272   0.533  11.554
72274ION    NA+37435  26.846  27.405  13.003
72275ION    NA+37436  32.581  12.047   3.697
72276ION    NA+37437  20.932   4.495   2.643
72277ION    NA+37438  12.850   9.411  12.690
72278ION    NA+37439   0.594   2.787   0.654
72279ION    NA+37440  36.129   1.187  14.905
72280ION    NA+37441  36.792  39.992   1.109
72281ION    NA+37442  24.774  11.080  12.648
72282ION    NA+37443  11.213  16.408  12.381
72283ION    NA+37444  18.512  44.514  14.277
72284ION    NA+37445  34.933   0.305   0.512
72285ION    NA+37446  12.354   2.235   1.209
72286ION    NA+37447  13.286  43.434   1.009
72287ION    NA+37448  24.071  17.927   2.884
72288ION    NA+37449  38.383  29.331  10.250
72289ION    NA+37450  20.559  19.148  11.430
72290ION    NA+37451  10.317  11.369   1.227
72291ION    NA+37452  19.614  35.297   1.344
72292ION    NA+37453  31.719   8.443   2.054
72293ION    NA+37454  22.151  26.020  12.649
72294ION    NA+37455  44.437   1.947   4.201
72295ION    NA+37456  15.130  22.208   3.564
72296ION    NA+37457  36.641   1.863   4.295
72297ION    NA+37458  39.885  30.878   3.003
72298ION    NA+37459  31.632  23.247   0.287
72299ION    NA+37460  11.481  38.195   2.603
72300ION    NA+37461  27.749  23.086   4.107
72301ION    NA+37462  30.552  12.676   2.162
72302ION    NA+37463  33.920   3.430   1.239
72303ION    NA+37464  29.489   7.073   2.222
72304ION    NA+37465  10.084  21.964  10.898
72305ION    NA+37466  43.233  28.421   2.419
72306ION    NA+37467   9.107   7.403  13.094
72307ION    NA+37468  41.575  14.642   4.093
72308ION    NA+37469  12.667  25.005  10.591
72309ION    NA+37470  30.608  25.247   5.462
72310ION    NA+37471  41.477  44.211   3.242
72311ION    NA+37472  19.822   7.622   1.704
72312ION    NA+37473  40.444  31.868   4.103
72313ION    NA+37474  44.799  36.484  13.962
72314ION    NA+37475   0.677   8.501   4.170
72315ION    NA+37476  29.410  44.704  14.969
72316ION    NA+37477  32.628  17.784  14.089
72317ION    NA+37478  19.943  41.375   0.845
72318ION    NA+37479  33.315  34.288   1.993
72319ION    NA+37480  11.667  27.473   1.524
72320ION    NA+37481  13.745   0.579   1.022
72321ION    NA+37482  36.666  26.218  12.571
72322ION    NA+37483  17.743  44.063   9.460
72323ION    NA+37484   1.923  13.434   2.718
72324ION    NA+37485   6.745  13.811   4.479
72325ION    NA+37486  34.735   4.851   1.743
72326ION    NA+37487  21.429   8.659  12.561
72327ION    NA+37488   6.290   5.819  13.834
72328ION    NA+37489  36.538  31.433   4.532
72329ION    NA+37490   0.897  36.888  13.511
72330ION    NA+37491  26.135   7.915  12.831
72331ION    NA+37492  38.720  27.905  11.174
72332ION    NA+37493  13.031   0.369  10.236
72333ION    NA+37494  25.691  28.367   2.283
72334ION    NA+37495  14.637  24.571   0.697
72335ION    NA+37496  11.893  16.452  11.238
72336ION    NA+37497  10.269   0.751  10.203
72337ION    NA+37498  36.707  27.872  11.248
72338ION    NA+37499  31.003  31.051   1.325
72339ION    NA+37500  42.397  30.644   2.620
72340ION    NA+37501  15.997  18.489   0.955
72341ION    NA+37502  16.359  35.092   0.736
72342ION    NA+37503  32.276   0.711  11.724
72343ION    NA+37504  31.063  19.502   2.748
72344ION    NA+37505  17.321  21.294   4.971
72345ION    NA+37506  36.652  16.119   1.771
72346ION    CL-37507   7.092   1.831  13.865
72347ION    CL-37508   7.043  11.291  13.272
72348ION    CL-37509  22.697   4.899  12.210
72349ION    CL-37510  37.413   1.912   1.750
72350ION    CL-37511  18.001  35.766   1.888
72351ION    CL-37512  11.267  29.183   1.790
72352ION    CL-37513   3.868  35.118  13.376
72353ION    CL-37514  25.455  40.595   0.294
72354ION    CL-37515  12.078  29.841   1.887
72355ION    CL-37516  32.151  17.862   4.601
72356ION    CL-37517   0.369   2.904   1.034
72357ION    CL-37518  33.546  39.527  14.432
72358ION    CL-37519  43.222  41.230   1.542
72359ION    CL-37520  15.210  43.348   0.610
72360ION    CL-37521  32.164  24.939   4.060
72361ION    CL-37522   4.986  28.937   9.811
72362ION    CL-37523  17.686  29.430  11.948
72363ION    CL-37524  26.039  39.047  13.811
72364ION    CL-37525  24.938  13.401   3.302
72365ION    CL-37526   4.676  13.407  14.351
72366ION    CL-37527   5.308  20.746   2.293
72367ION    CL-37528  21.739  24.412   2.233
72368ION    CL-37529   6.761   8.102  11.950
72369ION    CL-37530  41.630  37.924   1.761
72370ION    CL-37531  27.501   6.775   3.833
72371ION    CL-37532  16.707  42.818  14.488
72372ION    CL-37533   3.502  12.880  12.297
72373ION    CL-37534  34.864   6.862   1.264
72374ION    CL-37535   3.431  37.244   4.870
72375ION    CL-37536  20.977  22.758   1.177
72376ION    CL-37537  16.039   9.890   3.285
72377ION    CL-37538  36.941  29.907  13.320
72378ION    CL-37539  28.579  27.015  14.850
72379ION    CL-37540  40.029   3.797   4.454
72380ION    CL-37541  25.557  14.532   3.049
72381ION    CL-37542  21.020  42.776  10.525
72382ION    CL-37543   5.378   0.199   1.213
72383ION    CL-37544  27.308  20.042   2.905
72384ION    CL-37545  37.221  30.944  12.513
72385ION    CL-37546  28.931  32.573   1.267
72386ION    CL-37547  27.451  13.121   2.384
72387ION    CL-37548   5.698  22.545  13.370
72388ION    CL-37549   3.258  41.922   0.361
72389ION    CL-37550  10.340  18.734   3.120
72390ION    CL-37551  38.337   1.133   4.735
72391ION    CL-37552  29.891   0.984  11.106
72392ION    CL-37553  15.810  20.258  11.080
72393ION    CL-37554   7.891  37.441  11.619
72394ION    CL-37555  20.619  34.163  12.052
72395ION    CL-37556  41.449  42.090  13.132
72396ION    CL-37557  14.878  40.708  10.052
72397ION    CL-37558  32.034  36.356  11.132
72398ION    CL-37559  34.148  21.038  11.567
72399ION    CL-37560  42.020  28.454  12.194
72400ION    CL-37561  13.196  36.909   2.435
72401ION    CL-37562  21.187  31.178   3.079
72402ION    CL-37563  22.380  18.617  14.105
72403ION    CL-37564   3.773  44.658  14.983
72404ION    CL-37565   3.071   2.914   2.493
72405ION    CL-37566  13.943  18.913   2.927
72406ION    CL-37567  29.142  15.952  14.659
72407ION    CL-37568  41.284  24.242   2.070
72408ION    CL-37569  36.939  30.479   3.980
72409ION    CL-37570  39.986  33.626  12.158
72410ION    CL-37571  18.998  25.909  11.483
72411ION    CL-37572  13.795  29.500  12.383
72412ION    CL-37573   8.473  32.262   4.070
72413ION    CL-37574  40.603   8.761   5.032
72414ION    CL-37575  35.308  41.846  12.054
72415ION    CL-37576  14.208  41.012  11.985
72416ION    CL-37577  21.944  19.010  11.179
72417ION    CL-37578  34.731  31.832   0.065
72418ION    CL-37579  10.457  25.905   1.837
72419ION    CL-37580  27.253  10.560   4.912
72420ION    CL-37581  30.843  24.907   5.276
72421ION    CL-37582  12.138  34.488   3.698
72422ION    CL-37583  24.098  13.845  13.340
72423ION    CL-37584  38.517  37.257   1.668
72424ION    CL-37585  31.503  41.078   0.525
72425ION    CL-37586   9.325   6.523   0.011
72426ION    CL-37587  42.920   5.291  13.099
72427ION    CL-37588  20.057  14.780   0.316
72428ION    CL-37589   0.304   6.790  14.199
72429ION    CL-37590   1.527  11.163  13.905
72430ION    CL-37591  36.279  31.732   4.301
72431ION    CL-37592  35.810   3.853   0.601
72432ION    CL-37593  32.714   7.385   2.406
72433ION    CL-37594  14.252  14.791  11.968
72434ION    CL-37595   1.742  37.718   4.269
72435ION    CL-37596   5.345  26.164   1.799
72436ION    CL-37597  26.075   2.970   4.498
72437ION    CL-37598  26.541  42.804  10.140
72438ION    CL-37599  43.999   2.890   1.299
72439ION    CL-37600  27.879   5.285   4.158
72440ION    CL-37601  20.162  39.990   4.186
72441ION    CL-37602  19.229   6.799   2.642
72442ION    CL-37603  38.859  10.104  11.990
72443ION    CL-37604   5.785  27.227   1.290
72444ION    CL-37605  21.296  11.734   1.412
72445ION    CL-37606  18.769  14.240   4.062
72446ION    CL-37607  32.681  33.762  14.361
72447ION    CL-37608  19.783  29.953  11.078
72448ION    CL-37609  36.898   3.442   2.159
72449ION    CL-37610  16.991  31.131   5.112
72450ION    CL-37611  33.168   8.937  13.285
72451ION    CL-37612  37.074  24.550  14.968
72452ION    CL-37613  35.816  39.811   3.556
72453ION    CL-37614  22.038  15.313   0.950
72454ION    CL-37615  21.795  15.883  10.907
72455ION    CL-37616  24.912  31.826   4.213
72456ION    CL-37617  30.437   5.092   1.842
72457ION    CL-37618   9.786  21.384   2.718
72458ION    CL-37619  27.371  30.639   4.137
72459ION    CL-37620   3.329   8.704   1.664
72460ION    CL-37621   5.753  17.374   2.627
72461ION    CL-37622  10.809  26.403  11.144
72462ION    CL-37623   5.223  35.933   5.064
72463ION    CL-37624  14.210  33.815   1.362
72464ION    CL-37625  14.797  34.654  12.558
72465ION    CL-37626  26.501  27.392  13.299
72466ION    CL-37627  27.075   9.341  14.349
72467ION    CL-37628  32.674  29.477   4.859
72468ION    CL-37629  16.028  35.531   3.963
72469ION    CL-37630   2.996  36.140   4.920
72470ION    CL-37631  44.743  35.359   4.062
72471ION    CL-37632  29.063  35.863   3.396
72472ION    CL-37633  12.547   0.445  12.326
72473ION    CL-37634  19.328  38.171  11.395
72474ION    CL-37635   4.886   8.167   3.327
72475ION    CL-37636  11.926  15.279   0.438
72476ION    CL-37637  34.140  41.222  11.919
72477ION    CL-37638  23.186  29.624  10.760
72478ION    CL-37639  36.060   2.635  14.785
72479ION    CL-37640  43.310  33.795  10.601
72480ION    CL-37641  15.101  11.350  12.934
72481ION    CL-37642  33.295  41.153  12.937
72482ION    CL-37643  34.776  32.980   0.973
72483ION    CL-37644   9.233  36.311   1.973
72484ION    CL-37645  30.018  42.651  12.386
72485ION    CL-37646  40.502   6.473  14.516
72486ION    CL-37647  26.133  32.840   4.185
72487ION    CL-37648  28.471  29.091  13.031
72488ION    CL-37649  15.542  17.040   9.766
72489ION    CL-37650  42.913  32.156   2.268
72490ION    CL-37651  20.810  15.409  13.902
72491ION    CL-37652  25.220  30.696  11.267
72492ION    CL-37653  12.255  19.014   1.402
72493ION    CL-37654  16.514  14.774   1.433
72494ION    CL-37655  28.643  14.566   3.593
72495ION    CL-37656  36.169  17.713  11.367
72496ION    CL-37657  37.075  22.823   3.633
72497ION    CL-37658  30.635  25.135  13.481
72498ION    CL-37659  20.469  34.147   2.740
72499ION    CL-37660  29.857   9.112  12.125
72500ION    CL-37661  41.590  28.632  14.519
72501ION    CL-37662  13.133  14.555   1.717
72502ION    CL-37663  30.956  20.933  10.227
72503ION    CL-37664   7.650   4.297   1.238
72504ION    CL-37665  16.036  22.258  11.157
72505ION    CL-37666  31.673   1.807   2.238
72506ION    CL-37667  40.260  11.853  13.613
72507ION    CL-37668   7.695  34.669  11.856
72508ION    CL-37669  17.723  14.690  12.375
72509ION    CL-37670  18.191  42.951   3.875
72510ION    CL-37671  44.342  13.185   5.497
72511ION    CL-37672  42.429  27.008  13.903
72512ION    CL-37673  42.580  25.882   0.656
72513ION    CL-37674   7.966  41.478   2.653
72514ION    CL-37675  41.588  20.041   1.766
72515ION    CL-37676  23.059  41.598   4.118
72516ION    CL-37677  11.944   7.289  13.335
72517ION    CL-37678   6.640   4.917   4.742
72518ION    CL-37679  15.429  43.435  11.654
72519ION    CL-37680  40.489  23.899   1.794
72520ION    CL-37681  11.878  15.309   2.727
72521ION    CL-37682  25.798  15.762   2.636
72522ION    CL-37683  29.007   1.014  11.195
72523ION    CL-37684  34.945  44.511   1.720
72524ION    CL-37685  28.200  44.795  12.873
72525ION    CL-37686   3.836  22.116   0.478
72526ION    CL-37687  41.265  22.553  12.520
72527ION    CL-37688   3.735  18.175   3.195
72528ION    CL-37689   3.445  24.317   4.324
72529ION    CL-37690  22.947  33.318   2.949
72530ION    CL-37691  29.767  24.971   2.707
72531ION    CL-37692  39.951   9.678   1.356
72532ION    CL-37693  15.556  17.240   1.040
72533ION    CL-37694  16.928   4.026  12.495
72534ION    CL-37695  23.825  12.194  11.624
72535ION    CL-37696  37.942  34.378   2.590
72536ION    CL-37697  44.787  18.864  14.361
72537ION    CL-37698   1.594   4.890  10.826
72538ION    CL-37699  33.497  42.851  13.023
72539ION    CL-37700  16.357   1.757   1.700
72540ION    CL-37701   7.467  29.830   1.408
72541ION    CL-37702  11.332  36.142   4.148
72542ION    CL-37703  21.901  16.605   2.091
72543ION    CL-37704   0.102  12.078  12.222
72544ION    CL-37705  42.016  23.772  12.105
72545ION    CL-37706  15.837  34.805   4.478
72546ION    CL-37707  32.749  18.806  14.219
72547ION    CL-37708  13.138  15.293  11.303
72548ION    CL-37709   3.488  14.830   0.705
72549ION    CL-37710  36.992  30.369   1.233
72550ION    CL-37711  39.369  16.357  11.622
72551ION    CL-37712  38.744  30.735   2.796
72552ION    CL-37713  20.110  15.660   9.267
72553ION    CL-37714   2.264   1.900  12.571
72554ION    CL-37715   7.058  42.969   5.500
72555ION    CL-37716   9.159  17.992  13.331
72556ION    CL-37717  26.498  15.594  14.223
72557ION    CL-37718  29.686  28.464   4.168
72558ION    CL-37719  25.051  44.834   1.769
72559ION    CL-37720  28.476  25.767  12.418
72560ION    CL-37721  30.679  27.985   2.263
72561ION    CL-37722  43.401  41.249   4.288
72562ION    CL-37723  28.518  25.166  13.270
72563ION    CL-37724  22.260  27.617   4.134
72564ION    CL-37725   8.265  30.104  14.698
72565ION    CL-37726   4.216  20.834  11.177
72566ION    CL-37727  31.822   8.799   1.807
72567ION    CL-37728   1.036  11.438   1.839
72568ION    CL-37729   9.873  22.313  10.698
72569ION    CL-37730  26.557  40.846  12.890
72570ION    CL-37731  39.382   3.193  11.263
72571ION    CL-37732  25.420  38.252   2.009
72572ION    CL-37733  23.194  41.735   0.757
72573ION    CL-37734  14.180   9.332  13.804
72574ION    CL-37735   5.080   1.274  13.522
72575ION    CL-37736  42.510  19.372  13.756
72576ION    CL-37737  10.902  36.087  13.866
72577ION    CL-37738   2.010   3.131   3.405
72578ION    CL-37739  18.803  23.829  12.048
72579ION    CL-37740  43.556   0.471  12.977
72580ION    CL-37741  40.807  18.762   0.265
72581ION    CL-37742  21.304  38.649  10.970
72582ION    CL-37743  15.219  39.634  11.789
72583ION    CL-37744  18.640  44.539   3.020
72584ION    CL-37745  20.364   1.346  11.751
72585ION    CL-37746  15.571  29.504  13.532
72586ION    CL-37747  20.265  37.344   1.945
72587ION    CL-37748  38.828   6.246   2.467
72588ION    CL-37749  31.532  19.493   0.876
72589ION    CL-37750  12.073  38.627  13.574
72590ION    CL-37751  15.394  25.198  13.389
72591ION    CL-37752  21.946  22.459   1.275
72592ION    CL-37753  34.469  42.682   1.301
72593ION    CL-37754  38.276  25.795   2.301
72594ION    CL-37755  22.678   0.158   0.204
72595ION    CL-37756   7.678  18.922  13.706
72596ION    CL-37757   0.660  42.249  11.072
72597ION    CL-37758   7.357  41.805   3.437
72598ION    CL-37759  37.709  21.214  10.657
72599ION    CL-37760  25.549  26.618  14.212
72600ION    CL-37761  31.194  25.786  11.178
72601ION    CL-37762  17.582   9.112   0.367
72602ION    CL-37763  36.788  18.742  13.135
72603ION    CL-37764  40.261  29.375   0.865
72604ION    CL-37765  32.538  15.739   4.438
72605ION    CL-37766  15.966  39.503  13.531
72606ION    CL-37767  42.708   3.647   0.112
72607ION    CL-37768  39.219  42.050  11.077
72608ION    CL-37769   0.517  28.854   1.775
72609ION    CL-37770  16.842   7.817   0.040
72610ION    CL-37771  28.315   1.774   1.821
72611ION    CL-37772  33.451  27.883   1.831
72612ION    CL-37773  26.233   7.660   1.764
72613ION    CL-37774   6.643   4.263   0.860
72614ION    CL-37775  25.081  21.079  12.669
72615ION    CL-37776   6.198  12.063   0.614
72616ION    CL-37777  42.800  16.101  10.520
72617ION    CL-37778  32.136  16.251   1.710
72618ION    CL-37779  24.527   9.219   5.356
72619ION    CL-37780  21.484  43.070  11.228
72620ION    CL-37781  43.563   6.009  14.763
72621ION    CL-37782  35.889  44.278  11.154
72622ION    CL-37783   8.572  34.785  10.203
72623ION    CL-37784  37.016   2.189  13.988
72624ION    CL-37785  28.637  41.318  13.515
72625ION    CL-37786  18.628   4.667   4.707
72626ION    CL-37787  38.132  17.869  11.635
72627ION    CL-37788  23.327  13.255   2.162
72628ION    CL-37789  42.175  28.511  10.972
72629ION    CL-37790  28.684  16.787  14.355
72630ION    CL-37791  38.930  24.248  13.801
72631ION    CL-37792  12.173  19.761  14.011
72632ION    CL-37793  41.919   2.477  13.010
72633ION    CL-37794   5.178  17.501   4.185
72634ION    CL-37795  31.830  15.968  11.374
72635ION    CL-37796  37.376   2.876   1.487
72636ION    CL-37797  38.020  21.766   2.226
72637ION    CL-37798  15.948  44.916  13.740
72638ION    CL-37799  32.626   0.692   3.874
72639ION    CL-37800   3.751  39.609  10.591
72640ION    CL-37801  24.180  43.852  10.799
72641ION    CL-37802   2.653  25.724  10.384
72642ION    CL-37803  33.476  31.120  10.766
72643ION    CL-37804  22.643  19.247   3.249
72644ION    CL-37805  40.829   5.650  14.295
72645ION    CL-37806  14.376  15.805   2.235
72646ION    CL-37807  11.131  31.469  13.493
72647ION    CL-37808   8.816  22.347  13.103
72648ION    CL-37809   0.720  14.821   0.866
72649ION    CL-37810  19.687  22.357   0.235
72650ION    CL-37811   0.175  15.612   4.129
72651ION    CL-37812   0.626  28.438  14.231
72652ION    CL-37813   3.292  11.599   0.466
72653ION    CL-37814  24.686  20.793   2.662
72654ION    CL-37815  44.342  44.685  10.856
72655ION    CL-37816  44.765  27.934   0.041
72656ION    CL-37817  25.123  23.278  11.163
72657ION    CL-37818   1.311   8.885  11.137
72658ION    CL-37819  15.105   7.110  11.972
72659ION    CL-37820  36.570  14.915   4.885
72660ION    CL-37821  35.063  32.529   1.723
72661ION    CL-37822   3.301   9.101  10.348
72662ION    CL-37823   6.419   2.883   0.605
72663ION    CL-37824  18.867   5.016   1.966
72664ION    CL-37825  20.167  31.368  14.129
72665ION    CL-37826  11.842  26.522  11.250
72666ION    CL-37827  32.717  19.715  14.156
72667ION    CL-37828   4.754  13.746   3.295
72668ION    CL-37829  13.966  17.525   0.741
72669ION    CL-37830  29.299  23.455   3.501
72670ION    CL-37831  16.749  28.327  10.383
72671ION    CL-37832  40.904  26.879   4.332
72672ION    CL-37833  33.534   3.184   2.564
72673ION    CL-37834   7.495  41.555   1.724
72674ION    CL-37835  14.827  37.294  13.395
72675ION    CL-37836  44.547  26.809  12.877
72676ION    CL-37837  43.978  32.516  13.950
72677ION    CL-37838  30.911  40.904   3.266
72678ION    CL-37839   6.813  42.969   4.254
72679ION    CL-37840   7.892  31.241   2.475
72680ION    CL-37841  42.622  17.650   3.330
72681ION    CL-37842  43.464   0.277  13.781
72682ION    CL-37843  38.276  26.002   3.784
72683ION    CL-37844  34.319   6.237   2.186
72684ION    CL-37845  40.936  15.230  13.137
72685ION    CL-37846  20.441  13.604   3.821
72686ION    CL-37847  43.225  31.736  13.400
72687ION    CL-37848   9.667  21.860  12.416
72688ION    CL-37849   6.946  42.756  11.940
72689ION    CL-37850  11.131  39.405  13.856
72690ION    CL-37851  13.440  16.434   2.757
72691ION    CL-37852  42.342  10.278  12.832
72692ION    CL-37853  44.612  21.757  13.833
72693ION    CL-37854   3.153  36.387   0.587
72694ION    CL-37855  32.597  26.329   4.283
72695ION    CL-37856  38.410  29.602   0.885
72696ION    CL-37857  18.358   7.858   1.892
72697ION    CL-37858   2.909  22.255  14.537
72698ION    CL-37859  17.154  39.116   0.817
72699ION    CL-37860  17.195  15.211   0.845
72700ION    CL-37861   9.257  33.194  13.394
72701ION    CL-37862  31.270  23.160  12.813
72702ION    CL-37863  26.438  20.564   1.186
72703ION    CL-37864   0.055   3.282   1.810
72704ION    CL-37865   7.275   2.838   3.803
72705ION    CL-37866  33.384   4.736  12.977
72706ION    CL-37867  38.418  39.033   2.100
72707ION    CL-37868  40.039   4.886  13.698
72708ION    CL-37869  25.848  31.505   4.361
72709ION    CL-37870  18.900  24.370  11.151
72710ION    CL-37871  13.199   9.254   1.894
72711ION    CL-37872  25.295  32.116   0.289
72712ION    CL-37873  41.463  32.533   1.907
72713ION    CL-37874   3.889   2.801   1.688
72714ION    CL-37875   8.404  16.824  11.831
72715ION    CL-37876  23.987  19.143   3.586
72716ION    CL-37877  40.751  26.167   1.221
72717ION    CL-37878  43.788  17.449  13.018
72718ION    CL-37879  19.577   1.676   0.924
72719ION    CL-37880  14.252   4.664  14.468
72720ION    CL-37881  40.924  20.066   3.401
72721ION    CL-37882  28.560   1.186   0.165
72722ION    CL-37883  19.667  26.256   0.419
72723ION    CL-37884   7.243  18.057   4.632
72724ION    CL-37885  26.941  34.279   3.794
72725ION    CL-37886  41.079  33.797  12.544
72726ION    CL-37887  40.909   5.835  10.712
72727ION    CL-37888  43.580  19.162   2.817
72728ION    CL-37889  13.304  19.067  11.146
72729ION    CL-37890   5.490  34.076  12.217
72730ION    CL-37891  31.305  28.882   1.696
72731ION    CL-37892  24.149   0.355   2.017
72732ION    CL-37893  14.290  34.790   1.154
72733ION    CL-37894  13.536  17.178  10.393
72734ION    CL-37895  30.016   9.337   0.335
72735ION    CL-37896  39.379  19.265  13.525
72736ION    CL-37897  27.747  44.253   9.802
72737ION    CL-37898  28.659  31.789  11.622
72738ION    CL-37899   0.940   6.021  12.928
72739ION    CL-37900  26.000  27.736  14.764
72740ION    CL-37901   8.676  25.173  13.466
72741ION    CL-37902  11.721  44.447   3.653
72742ION    CL-37903   9.687   0.066   1.527
72743ION    CL-37904  13.636  42.472  10.891
72744ION    CL-37905  11.594  36.019   3.165
72745ION    CL-37906  10.645   1.970   3.695
72746ION    CL-37907  15.940  15.611  11.532
72747ION    CL-37908  22.850  39.358   2.152
72748ION    CL-37909  16.818  25.637  10.715
72749ION    CL-37910  38.154  10.726   0.976
72750ION    CL-37911  15.570   8.038  11.600
72751ION    CL-37912  42.463  18.649   3.375
72752ION    CL-37913  39.089  30.139   0.733
72753ION    CL-37914  44.995  36.087  14.014
72754ION    CL-37915   7.466  40.528   0.943
72755ION    CL-37916   7.882   0.368  13.325
72756ION    CL-37917  25.618  30.205   1.428
72757ION    CL-37918  26.181   1.140   0.538
72758ION    CL-37919   1.473  16.255   3.744
72759ION    CL-37920  26.411  24.520  11.193
72760ION    CL-37921  40.477  35.453   0.140
72761ION    CL-37922  23.120   6.975  10.628
72762ION    CL-37923   0.530  38.906   3.740
72763ION    CL-37924  39.189  27.493  13.801
72764ION    CL-37925  41.544   9.346   2.506
72765ION    CL-37926  13.076  25.240  11.650
72766ION    CL-37927  11.685  22.525  13.624
72767ION    CL-37928  26.375  25.549  13.733
72768ION    CL-37929  22.184   8.274   2.535
72769ION    CL-37930  32.367  14.287   3.637
72770ION    CL-37931  26.940   1.257   3.474
72771ION    CL-37932  41.087  34.514   2.733
72772ION    CL-37933  11.291  38.095   2.210
72773ION    CL-37934  34.417  12.648  13.073
72774ION    CL-37935  30.157  38.934   4.058
72775ION    CL-37936  39.270  30.096   3.186
72776ION    CL-37937  13.160  11.410  10.629
72777ION    CL-37938   8.213  32.180  10.728
72778ION    CL-37939  20.349  31.992  11.746
72779ION    CL-37940  10.737  20.733   1.925
72780ION    CL-37941  35.794  37.685   1.461
72781ION    CL-37942  21.841  25.657   0.161
72782ION    CL-37943   1.270  43.617  12.548
72783ION    CL-37944   9.268  23.549  11.320
72784ION    CL-37945  11.442  44.930   4.699
72785ION    CL-37946  35.047  23.352   0.935
72786ION    CL-37947  41.184  32.127   0.156
72787ION    CL-37948  24.866   9.448  11.279
72788ION    CL-37949  37.967  35.708  12.170
72789ION    CL-37950  31.002   3.592   1.894
72790ION    CL-37951  27.309  27.444   1.639
72791ION    CL-37952  37.048  40.528  11.503
72792ION    CL-37953  27.507   3.271   2.870
72793ION    CL-37954  26.407  14.138  13.427
72794ION    CL-37955  25.704  10.653   3.211
72795ION    CL-37956   3.671  37.260  11.688
72796ION    CL-37957   8.928  25.543   9.605
72797ION    CL-37958   3.438  16.267   1.853
72798ION    CL-37959  19.349  36.386  10.300
72799ION    CL-37960  44.909  24.623   2.454
72800ION    CL-37961  37.123  10.173  13.225
72801ION    CL-37962  19.142  19.020  14.898
72802ION    CL-37963  32.781  43.348  13.927
72803ION    CL-37964  44.673  20.218   2.825
72804ION    CL-37965  22.124   7.016   2.997
72805ION    CL-37966  38.735  35.748   1.962
72806ION    CL-37967  25.667  20.567  10.950
72807ION    CL-37968  43.476  24.910   1.474
72808ION    CL-37969  15.106   9.111  11.140
72809ION    CL-37970   8.382  29.183  11.637
72810ION    CL-37971  26.517  15.053   3.683
72811ION    CL-37972  43.282  39.880   2.075
72812ION    CL-37973   2.996   6.762  12.449
72813ION    CL-37974  34.203  42.047  11.558
72814ION    CL-37975  43.145   5.463  11.074
72815ION    CL-37976  39.080   1.765  13.088
72816ION    CL-37977  27.159  22.283   0.299
72817ION    CL-37978  24.025   7.064  13.486
72818ION    CL-37979  20.150  28.923  11.854
72819ION    CL-37980  38.111  34.315  13.415
72820ION    CL-37981  25.203  13.918  14.425
72821ION    CL-37982  36.308  11.778  13.296
72822ION    CL-37983  31.176  41.661   2.669
72823ION    CL-37984  22.101  42.417  12.837
72824ION    CL-37985  25.961   0.933  13.010
72825ION    CL-37986  44.550  25.972   4.610
72826ION    CL-37987   6.549  22.528  12.819
72827ION    CL-37988  18.866  28.350   2.369
72828ION    CL-37989  18.831  14.893   3.144
72829ION    CL-37990  44.957  15.289  13.444
72830ION    CL-37991  42.243   5.885  11.155
72831ION    CL-37992  21.144  27.139  10.861
72832ION    CL-37993   1.550  18.612  12.709
72833ION    CL-37994   3.456   8.343   3.491
72834ION    CL-37995  38.228  32.522  11.939
72835ION    CL-37996  38.932  22.678   0.564
72836ION    CL-37997   4.541   9.576  14.605
72837ION    CL-37998  22.378  41.624   2.847
72838ION    CL-37999  32.287  27.247  10.851
72839ION    CL-38000   2.194   3.957   0.073
72840ION    CL-38001  14.953  14.263   5.006
72841ION    CL-38002   5.879   1.796  12.021
72842ION    CL-38003  42.721  36.391   3.382
72843ION    CL-38004  25.672  25.768  11.175
72844ION    CL-38005  42.912  16.181  12.822
72845ION    CL-38006  37.109   7.906  12.942
72846ION    CL-38007  38.348   9.792  14.312
72847ION    CL-38008   4.278  40.364  14.830
72848ION    CL-38009  13.575  11.133   2.494
72849ION    CL-38010  40.913  17.061  11.736
72850ION    CL-38011  18.551  43.139   9.922
72851ION    CL-38012  37.098  32.581   1.696
72852ION    CL-38013  24.673  20.382  11.362
72853ION    CL-38014   3.985  23.630   3.456
72854ION    CL-38015  23.519   0.061  11.379
72855ION    CL-38016  12.509  37.139   0.760
72856ION    CL-38017  22.876  14.539   9.765
72857ION    CL-38018  25.846  35.900  12.374
72858ION    CL-38019  10.457   8.221   2.336
72859ION    CL-38020  28.954   4.183   1.855
72860ION    CL-38021  38.696  35.890   4.329
72861ION    CL-38022  25.434  16.334   1.151
72862ION    CL-38023  20.070  38.755   5.063
72863ION    CL-38024  15.126  39.374  13.003
72864ION    CL-38025  34.120  17.798   3.666
72865ION    CL-38026  13.807  27.303  14.359
72866ION    CL-38027  14.656   7.375   1.799
72867ION    CL-38028  25.665   0.174  13.590
72868ION    CL-38029  33.955   1.608   2.432
72869ION    CL-38030  19.801  12.815   3.636
72870ION    CL-38031  42.253  40.246   1.450
72871ION    CL-38032  30.210  26.384   0.385
72872ION    CL-38033  37.312  42.051   2.292
72873ION    CL-38034  15.336  40.092  14.496
72874ION    CL-38035  36.878  14.044   2.115
72875ION    CL-38036   6.806  43.964   4.358
72876ION    CL-38037  17.430  33.407  11.192
72877ION    CL-38038   8.419  18.241   3.215
72878ION    CL-38039  25.423   4.585  14.864
72879ION    CL-38040  44.752  38.700   1.275
72880ION    CL-38041  28.954  41.320   1.698
72881ION    CL-38042   0.531   1.006  10.929
72882ION    CL-38043   2.100  10.269   1.482
72883ION    CL-38044   0.422  29.356  12.999
72884ION    CL-38045  14.519  31.318   2.339
72885ION    CL-38046  16.738  30.209  14.727
72886ION    CL-38047  25.158  29.137   0.377
72887ION    CL-38048  20.450  31.035   2.568
72888ION    CL-38049  21.018   3.845   4.042
72889ION    CL-38050  25.564  18.608  12.541
72890ION    CL-38051  22.408  13.661  13.821
72891ION    CL-38052  23.191   6.857  12.827
72892ION    CL-38053  36.431  31.460  11.875
72893ION    CL-38054  11.617  40.340   5.016
72894ION    CL-38055  16.098  15.348  13.482
72895ION    CL-38056  41.798  15.738   3.657
72896ION    CL-38057   1.475  35.134  11.634
72897ION    CL-38058  32.146   8.217   5.148
72898ION    CL-38059  21.596  26.111   0.924
72899ION    CL-38060  35.431   8.923   4.543
72900ION    CL-38061  41.522  33.435  13.364
72901ION    CL-38062  39.831  34.320   4.201
72902ION    CL-38063  28.322  25.563  14.772
72903ION    CL-38064   7.821   8.773   5.220
72904ION    CL-38065   8.921   9.230   3.667
72905ION    CL-38066  28.678  36.678   3.236
72906ION    CL-38067  16.331  12.940  12.179
72907ION    CL-38068  42.167  44.256   5.001
72908ION    CL-38069  21.163   6.072   9.720
72909ION    CL-38070  13.487   5.915  13.408
72910ION    CL-38071  29.748  27.200  13.660
72911ION    CL-38072  42.605  42.721  12.118
72912ION    CL-38073  40.814  34.532  11.819
72913ION    CL-38074   2.968  23.045   2.606
72914ION    CL-38075  23.342   5.352   1.394
72915ION    CL-38076  39.171   5.643  10.410
72916ION    CL-38077  43.840  16.005  10.647
72917ION    CL-38078  29.519   5.165  14.606
72918ION    CL-38079  11.776  40.534  14.394
72919ION    CL-38080  20.365   9.703   0.243
72920ION    CL-38081  36.117   8.907  12.123
72921ION    CL-38082  28.829  37.245   4.948
72922ION    CL-38083  32.372  12.011   1.295
72923ION    CL-38084  44.349   9.024   1.412
72924ION    CL-38085   6.319   5.944   2.692
72925ION    CL-38086   7.999   2.231  13.732
72926ION    CL-38087  36.367   9.145   1.376
72927ION    CL-38088  40.543  14.854  12.407
72928ION    CL-38089  14.514  12.077  11.129
72929ION    CL-38090  43.611  18.477   2.089
72930ION    CL-38091  21.255  20.067  12.438
72931ION    CL-38092  38.720  12.708  11.393
72932ION    CL-38093   3.221  26.038  12.676
72933ION    CL-38094  12.069   7.226   4.636
72934ION    CL-38095  12.613   5.761  14.440
72935ION    CL-38096  33.576  19.399  14.758
72936ION    CL-38097   3.993  12.268  13.568
72937ION    CL-38098  39.154  33.023  11.262
72938ION    CL-38099  24.834   1.582  13.096
72939ION    CL-38100  26.326  14.087   4.583
72940ION    CL-38101  22.554  34.897   4.100
72941ION    CL-38102  22.284  20.650   1.312
72942ION    CL-38103   4.898   0.404   2.892
72943ION    CL-38104  31.378  44.593   2.369
72944ION    CL-38105  16.949  44.205  10.649
72945ION    CL-38106   0.771  16.041  14.800
72946ION    CL-38107  24.941  17.316   0.216
72947ION    CL-38108  39.252   1.491  11.595
72948ION    CL-38109  34.809  37.515   1.450
72949ION    CL-38110  13.522   7.829  10.833
72950ION    CL-38111  41.778  17.303  11.113
72951ION    CL-38112  36.741  35.379   3.105
72952ION    CL-38113  27.449   3.810   4.780
72953ION    CL-38114  29.957  22.396   0.566
72954ION    CL-38115   1.579   8.633   3.216
72955ION    CL-38116  13.026  10.164   4.196
72956ION    CL-38117  43.428  10.050   1.915
72957ION    CL-38118   0.810  11.713  14.478
72958ION    CL-38119  41.852  25.115   9.685
72959ION    CL-38120  11.781  38.324  14.097
72960ION    CL-38121  23.581   4.436   3.295
72961ION    CL-38122  10.437  31.523  14.276
72962ION    CL-38123  28.958  37.925   2.787
72963ION    CL-38124  30.430  39.772  11.248
72964ION    CL-38125  16.248  31.047   4.447
72965ION    CL-38126  40.182  30.734   0.535
72966ION    CL-38127  20.931  39.155   2.790
72967ION    CL-38128  26.346  11.694  11.188
72968ION    CL-38129  31.440  10.091   2.766
72969ION    CL-38130   8.442  32.530   5.033
72970ION    CL-38131  34.777  17.578   1.621
72971ION    CL-38132  35.333  29.186  14.767
72972ION    CL-38133   4.336   6.166   3.650
72973ION    CL-38134  26.492   7.947  12.562
72974ION    CL-38135   4.702  38.188  11.546
72975ION    CL-38136   6.511  36.090   3.031
72976ION    CL-38137  32.278  44.088  13.929
72977ION    CL-38138  40.514  25.565   4.861
72978ION    CL-38139  26.926  20.295   2.016
72979ION    CL-38140  35.916  10.125  12.574
72980ION    CL-38141  21.454  43.207  14.276
72981ION    CL-38142  22.451  43.266  11.388
72982ION    CL-38143  27.105  37.534  13.080
72983ION    CL-38144  30.594  17.101  14.076
72984ION    CL-38145  32.356  26.510  14.312
72985ION    CL-38146  35.742   1.491   1.580
72986ION    CL-38147  37.973   3.988   4.807
72987ION    CL-38148  36.137  38.546   2.619
72988ION    CL-38149  42.914  38.999  11.703
72989ION    CL-38150  35.655  28.158  12.665
72990ION    CL-38151   0.532  14.079  13.344
72991ION    CL-38152  31.093  34.781   4.184
72992ION    CL-38153  21.809   1.160   2.114
72993ION    CL-38154  42.761  44.344   3.839
72994ION    CL-38155  43.205  16.643   5.082
72995ION    CL-38156   8.499   7.873  14.551
72996ION    CL-38157  28.858  12.915  14.765
72997ION    CL-38158  43.701  24.126   0.043
72998ION    CL-38159  13.512  14.179  14.739
72999ION    CL-38160  16.645  14.351   4.087
73000ION    CL-38161   6.262  17.796  11.670
73001ION    CL-38162  42.965  41.790  10.998
73002ION    CL-38163  15.040   0.227   0.344
73003ION    CL-38164   7.782   0.530  11.599
73004ION    CL-38165   5.964  31.066  14.265
73005ION    CL-38166  11.788  29.182  11.580
73006ION    CL-38167  12.744  18.133  10.633
73007ION    CL-38168  25.826  17.390   1.659
73008ION    CL-38169  36.542  28.834  12.709
73009ION    CL-38170   5.042  20.236  10.427
73010ION    CL-38171  44.551  44.785  11.829
73011ION    CL-38172  27.607  23.215  12.425
73012ION    CL-38173  20.274  30.727   4.866
73013ION    CL-38174  14.907  43.187  14.670
73014ION    CL-38175   8.668  37.014  13.469
73015ION    CL-38176   2.776  36.519  12.587
73016ION    CL-38177  30.718   5.864   0.053
73017ION    CL-38178  28.655  22.225   4.755
73018ION    CL-38179  15.299  42.809   3.205
73019ION    CL-38180  40.062  10.022  12.380
73020ION    CL-38181   3.740  43.372  14.568
73021ION    CL-38182   0.990   4.892   3.028
73022ION    CL-38183   0.983   5.777  13.997
73023ION    CL-38184  10.617   4.651  13.953
73024ION    CL-38185   1.523  28.039   2.254
73025ION    CL-38186  42.225   0.867  14.567
73026ION    CL-38187  10.310  41.616   1.340
73027ION    CL-38188   2.754  44.182   1.197
73028ION    CL-38189   9.658   5.615   3.223
73029ION    CL-38190   8.151  11.404  13.896
73030ION    CL-38191  16.133   7.196  11.532
73031ION    CL-38192  17.324  34.860   4.122
73032ION    CL-38193  10.949  12.367   4.481
73033ION    CL-38194   8.589  22.468   3.874
73034ION    CL-38195  30.631  27.436  13.663
73035ION    CL-38196   5.183  31.686  14.344
73036ION    CL-38197  17.809   3.342  12.094
73037ION    CL-38198  22.568  24.037  14.019
73038ION    CL-38199  18.353  32.043  12.876
73039ION    CL-38200   8.277  43.515  12.127
73040ION    CL-38201  22.023  14.989  11.348
73041ION    CL-38202  27.132  28.257   2.195
73042ION    CL-38203  19.831  16.352  12.922
73043ION    CL-38204  23.423  33.868   4.040
73044ION    CL-38205  37.475  39.728  12.860
73045ION    CL-38206  26.380   4.332   3.617
73046ION    CL-38207  22.879  15.810   3.913
73047ION    CL-38208  28.465  10.127   0.240
73048ION    CL-38209   2.512   2.919  12.554
73049ION    CL-38210  36.586  23.899   3.450
73050ION    CL-38211  32.890  17.720  14.445
73051ION    CL-38212  19.679  27.200   1.988
73052ION    CL-38213   0.959  23.655   2.309
73053ION    CL-38214   1.220  41.528  11.846
73054ION    CL-38215  11.244  19.635  10.681
73055ION    CL-38216   9.853  13.976   2.903
73056ION    CL-38217  29.966  43.627  12.726
73057ION    CL-38218  21.056  28.237   2.167
73058ION    CL-38219   6.402  19.206   0.375
73059ION    CL-38220   3.531  33.402   4.551
73060ION    CL-38221  25.810  37.738   0.883
73061ION    CL-38222  32.808   2.113  11.043
73062ION    CL-38223   5.465   8.303  12.354
73063ION    CL-38224  22.071  19.469   5.436
73064ION    CL-38225  39.058   9.124   3.410
73065ION    CL-38226  39.326  19.823  11.804
73066ION    CL-38227   8.233   6.717  11.400
73067ION    CL-38228  36.262  27.932  11.265
73068ION    CL-38229  37.535   3.924  13.300
73069ION    CL-38230   8.936  30.879  12.364
73070ION    CL-38231  38.770   5.234   5.094
73071ION    CL-38232   0.615  17.006  12.876
73072ION    CL-38233  34.378   1.268   1.916
73073ION    CL-38234  20.000  32.952  10.374
73074ION    CL-38235  44.678  34.651   2.913
73075ION    CL-38236  37.626  24.058  10.302
73076ION    CL-38237  12.511   9.464  12.389
73077ION    CL-38238  37.580  21.133   1.239
73078ION    CL-38239  25.081  35.854   0.463
73079ION    CL-38240  40.466   6.107   2.938
73080ION    CL-38241  43.355   1.630  13.339
73081ION    CL-38242  19.663  10.921   3.044
73082ION    CL-38243   9.485  35.408   4.377
73083ION    CL-38244  35.308  43.824   2.350
73084ION    CL-38245  15.248   3.426  14.632
73085ION    CL-38246   9.913  17.887   0.894
73086ION    CL-38247   0.226  38.788   4.966
73087ION    CL-38248  30.427  13.628   0.742
73088ION    CL-38249  28.136  19.484  10.706
73089ION    CL-38250  15.468  17.322  13.719
73090ION    CL-38251  14.432  11.992   3.060
73091ION    CL-38252  44.279  42.439   3.981
73092ION    CL-38253  10.233  24.490   4.102
73093ION    CL-38254   6.124  35.293   3.494
73094ION    CL-38255  10.659  42.332  12.524
73095ION    CL-38256  35.964   8.542   3.480
73096ION    CL-38257   1.081  17.085   4.142
73097ION    CL-38258  13.592  37.161  14.001
73098ION    CL-38259  33.254  19.536   5.309
73099ION    CL-38260  43.608  37.091  13.971
73100ION    CL-38261   3.804  41.292  11.510
73101ION    CL-38262  42.666  44.571   1.570
73102ION    CL-38263   3.695  17.617  12.407
73103ION    CL-38264   0.800   4.685   5.144
73104ION    CL-38265  22.699  10.438  12.353
73105ION    CL-38266  13.758   7.309   2.233
73106ION    CL-38267  21.077  38.609  12.299
73107ION    CL-38268  33.745  31.673   0.105
73108ION    CL-38269  29.026  21.131  13.365
73109ION    CL-38270  18.557  20.175  10.740
73110ION    CL-38271  21.546  16.421  10.102
73111ION    CL-38272  42.198  13.854   0.530
73112ION    CL-38273   6.293  31.261   3.222
73113ION    CL-38274  12.416  14.362  13.040
73114ION    CL-38275  13.424  29.620   1.850
73115ION    CL-38276  22.044   1.650  12.269
73116ION    CL-38277   4.412  13.782  11.178
73117ION    CL-38278  34.034  32.943   2.346
73118ION    CL-38279   8.104  23.758  14.680
73119ION    CL-38280  33.352  21.161   2.625
73120ION    CL-38281   5.323  37.429  14.332
73121ION    CL-38282  22.228  19.287  12.940
73122ION    CL-38283   7.665  18.471  12.813
73123ION    CL-38284  13.287  36.913   4.983
73124ION    CL-38285  29.780   4.805  11.587
73125ION    CL-38286  26.144  36.780   0.839
73126ION    CL-38287   7.944  37.445   4.320
73127ION    CL-38288  32.606  16.588   4.962
73128ION    CL-38289  15.684  43.582  10.294
73129ION    CL-38290  21.463   7.608   2.151
73130ION    CL-38291  20.207  10.146  13.267
73131ION    CL-38292   4.806  31.113   0.333
73132ION    CL-38293  42.369  42.178   5.038
73133ION    CL-38294   4.095   8.271   2.662
73134ION    CL-38295  12.781  42.962  12.163
73135ION    CL-38296  41.299   1.126  14.291
73136ION    CL-38297  44.228  41.161  14.767
73137ION    CL-38298   8.773  38.014  10.764
73138ION    CL-38299  33.366  24.493   3.767
73139ION    CL-38300   8.398  32.626  11.626
73140ION    CL-38301  25.166  29.488  13.564
73141ION    CL-38302  13.575   5.934  14.654
73142ION    CL-38303  35.948  28.162   1.808
73143ION    CL-38304  33.026  34.097   2.277
73144ION    CL-38305   1.369   6.867   3.826
73145ION    CL-38306  39.775  43.293   3.232
73146ION    CL-38307  22.686  35.358  13.603
73147ION    CL-38308  19.671  43.609   4.786
73148ION    CL-38309  21.501  37.564   3.095
73149ION    CL-38310  21.940  10.775  11.795
73150ION    CL-38311  34.501  18.979  12.927
73151ION    CL-38312  13.908  13.135  14.029
73152ION    CL-38313  34.935  15.615  11.521
73153ION    CL-38314  10.304  10.086   1.657
73154ION    CL-38315  22.662  35.754   3.597
73155ION    CL-38316  12.357  23.176   0.760
73156ION    CL-38317  10.044  30.042  14.364
73157ION    CL-38318   2.560  44.392  14.518
73158ION    CL-38319  31.915   1.203   0.856
73159ION    CL-38320  42.840  22.541   1.473
73160ION    CL-38321  22.297  28.442  11.822
73161ION    CL-38322  30.230  43.273   5.024
73162ION    CL-38323  41.765  14.266   4.254
73163ION    CL-38324  21.984   0.800  13.009
73164ION    CL-38325  42.031  12.379  13.065
73165ION    CL-38326   7.422   6.849  13.322
73166ION    CL-38327  44.261   8.881  11.733
73167ION    CL-38328  42.858  23.587   5.039
73168ION    CL-38329   2.778   8.503   4.114
73169ION    CL-38330   1.377  40.551  14.227
73170ION    CL-38331  16.604   3.241  10.744
73171ION    CL-38332  35.298  15.968  13.585
73172ION    CL-38333  24.924   9.331  13.033
73173ION    CL-38334  26.643  44.510   2.190
73174ION    CL-38335  31.196  42.398  12.866
73175ION    CL-38336  40.022  38.241   1.333
73176ION    CL-38337   0.333  35.596   9.975
73177ION    CL-38338   5.748  30.077   4.090
73178ION    CL-38339   1.271  15.708   1.164
73179ION    CL-38340  21.236  44.324   1.120
73180ION    CL-38341  22.984  29.026  11.390
73181ION    CL-38342  28.234  32.643  12.116
73182ION    CL-38343  43.982  33.203  11.046
73183ION    CL-38344  13.415   8.294   2.735
73184ION    CL-38345  33.506  25.695   0.837
73185ION    CL-38346  26.686  34.364   1.600
73186ION    CL-38347   9.366  33.460   3.943
73187ION    CL-38348  16.592  17.550   3.267
73188ION    CL-38349  25.397   3.192   1.725
73189ION    CL-38350  40.758  32.790   0.901
73190ION    CL-38351  37.266  15.964   4.811
73191ION    CL-38352   3.197  28.999   4.233
73192ION    CL-38353   0.203  17.344   3.710
73193ION    CL-38354  41.453  26.035   3.355
73194ION    CL-38355   1.906  38.608   4.315
73195ION    CL-38356  15.238  32.344   2.761
73196ION    CL-38357  43.814  16.819   3.322
73197ION    CL-38358   1.198  29.953  14.135
73198ION    CL-38359  22.738  35.001  11.402
73199ION    CL-38360  24.002  26.402   4.379
73200ION    CL-38361  25.687  24.971   3.698
73201ION    CL-38362  14.205  38.185  13.300
73202ION    CL-38363  19.894   3.109   9.959
73203ION    CL-38364   6.230  36.742   0.413
73204ION    CL-38365  29.683  34.743   0.865
73205ION    CL-38366  26.789  33.271  13.446
73206ION    CL-38367  11.390  38.713   4.863
73207ION    CL-38368   6.964  31.085  14.409
73208ION    CL-38369  40.108  13.314  10.720
73209ION    CL-38370  40.379  18.311  13.467
73210ION    CL-38371  43.966  21.995   2.634
73211ION    CL-38372  43.915  25.211  13.895
73212ION    CL-38373  42.368  32.371  11.070
73213ION    CL-38374  37.793  37.141   3.373
73214ION    CL-38375   8.998  28.054   3.308
73215ION    CL-38376  37.232  28.036   4.944
73216ION    CL-38377  17.710  31.423  13.324
73217ION    CL-38378  43.411   2.467  12.378
73218ION    CL-38379  17.922  20.931   1.422
73219ION    CL-38380  27.972  20.678   4.471
73220ION    CL-38381  39.887  42.699   1.232
73221ION    CL-38382  27.840  26.535  14.365
73222ION    CL-38383   3.763  25.628  11.679
73223ION    CL-38384  13.059  10.850  14.110
73224ION    CL-38385  16.559  19.707   3.702
73225ION    CL-38386  13.703  28.636  12.878
73226ION    CL-38387  39.570  37.441   4.555
73227ION    CL-38388  44.404  27.502   2.745
73228ION    CL-38389   6.798  40.421  13.065
73229ION    CL-38390  20.457   0.381  11.995
73230ION    CL-38391  12.363  18.355  11.660
73231ION    CL-38392  14.335   5.179   1.424
73232ION    CL-38393  29.353   4.425  13.954
73233ION    CL-38394   7.761  26.913  11.560
73234ION    CL-38395  33.433  23.783   0.514
73235ION    CL-38396  22.303   9.592   4.600
73236ION    CL-38397   6.329  42.520   1.263
73237ION    CL-38398  32.075  16.062   3.423
73238ION    CL-38399  32.126  12.854   2.733
73239ION    CL-38400  34.998  25.019   4.229
73240ION    CL-38401   5.587   5.694   3.388
73241ION    CL-38402  37.520  19.292   2.327
73242ION    CL-38403   0.718   5.117  13.293
73243ION    CL-38404  43.237  44.571  10.269
73244ION    CL-38405  20.042  36.576   1.345
73245ION    CL-38406  20.448  39.175  12.630
73246ION    CL-38407   8.984  27.855   5.101
73247ION    CL-38408  25.075  25.222   1.668
73248ION    CL-38409  44.862  42.578  12.546
73249ION    CL-38410  33.806   0.987   2.093
73250ION    CL-38411  22.806  41.268   1.290
73251ION    CL-38412  37.981  11.822  11.628
73252ION    CL-38413  25.313  31.234   4.818
73253ION    CL-38414  19.066   9.953  12.610
73254ION    CL-38415  21.393  24.412   3.781
73255ION    CL-38416   5.914   6.897  13.394
73256ION    CL-38417  27.206  43.479  11.520
73257ION    CL-38418  27.123   7.539   3.553
73258ION    CL-38419  23.292  41.868   1.561
73259ION    CL-38420  36.275   4.001  13.657
73260ION    CL-38421   0.077  11.499  11.528
73261ION    CL-38422  14.897  16.954   1.617
73262ION    CL-38423  34.173  38.348  11.433
73263ION    CL-38424  42.555   3.101   2.349
73264ION    CL-38425  32.366  16.812  13.696
73265ION    CL-38426  34.393  27.063   1.070
73266ION    CL-38427  42.796   0.462  13.321
73267ION    CL-38428   5.311   1.943  12.941
73268ION    CL-38429  28.105  23.872   2.121
73269ION    CL-38430  13.413  28.966   1.323
73270ION    CL-38431  18.755  41.150   5.243
73271ION    CL-38432  17.534   0.922  12.602
73272ION    CL-38433  36.223   6.763  12.114
73273ION    CL-38434  11.489  18.553   0.139
73274ION    CL-38435   6.722  35.627   4.223
73275ION    CL-38436  28.941  12.088  14.453
73276ION    CL-38437  33.974  35.300   2.203
73277ION    CL-38438  12.074  41.271   1.397
73278ION    CL-38439  40.723   8.129  12.616
73279ION    CL-38440  28.704  28.122  12.949
73280ION    CL-38441  17.415  36.567  13.526
73281ION    CL-38442  33.830  17.103  13.466
73282ION    CL-38443   5.712  30.426   3.154
73283ION    CL-38444  36.924  10.088   9.731
73284ION    CL-38445  36.544   1.826   3.860
73285ION    CL-38446  30.645  28.409   3.818
73286ION    CL-38447   5.314  25.071  10.169
73287ION    CL-38448  11.115   0.849   2.881
73288ION    CL-38449   4.872  20.206  11.987
73289ION    CL-38450  30.122  44.112   0.784
73290ION    CL-38451  18.215  23.628   4.256
73291ION    CL-38452  36.688  42.813   1.227
73292ION    CL-38453   5.849   7.221   3.289
73293ION    CL-38454   2.721  10.963  11.465
73294ION    CL-38455  37.357  12.361  14.482
73295ION    CL-38456  21.339  32.624   1.592
73296ION    CL-38457  22.388  39.682   5.443
73297ION    CL-38458  44.381  41.420   2.329
73298ION    CL-38459  17.399  38.328   1.382
73299ION    CL-38460   2.329   7.120   1.819
73300ION    CL-38461  27.289  32.182  14.901
73301ION    CL-38462  25.971  41.371  11.190
73302ION    CL-38463  42.989   9.508   2.713
73303ION    CL-38464  15.066  37.328   2.800
73304ION    CL-38465  36.316  39.400  11.199
73305ION    CL-38466  31.921  26.226   3.723
73306ION    CL-38467  11.601  12.801  12.665
73307ION    CL-38468  44.363  30.630  11.379
73308ION    CL-38469  42.541  41.510  14.512
73309ION    CL-38470  10.952  32.108  12.744
73310ION    CL-38471  35.241  34.124   1.580
73311ION    CL-38472  37.573  35.719   3.069
73312ION    CL-38473  26.371  18.855  13.556
73313ION    CL-38474  29.200  10.208   5.369
73314ION    CL-38475   8.806  16.687  13.600
73315ION    CL-38476  37.504  15.587   0.901
73316ION    CL-38477  43.673  11.196  11.515
73317ION    CL-38478  21.236  28.642  12.576
73318ION    CL-38479   9.805   5.309  12.718
73319ION    CL-38480  32.623  40.416   1.996
73320ION    CL-38481  11.499  10.672   2.982
73321ION    CL-38482  15.422  37.590   1.903
73322ION    CL-38483   7.732  31.431   4.421
73323ION    CL-38484  18.706  14.414   0.078
73324ION    CL-38485  29.366  24.641  10.177
73325ION    CL-38486  33.114  38.386   0.303
73326ION    CL-38487  42.609  32.946   5.248
73327ION    CL-38488   9.317  34.473   2.336
73328ION    CL-38489  32.046  27.501  14.728
73329ION    CL-38490  23.559  28.325  14.490
73330ION    CL-38491  34.957  44.656  12.967
73331ION    CL-38492   1.464   1.884   3.057
73332ION    CL-38493  44.176  38.001  14.736
73333ION    CL-38494  35.314  23.969  11.013
73334ION    CL-38495   8.374   3.946   2.861
73335ION    CL-38496  10.388  27.004  14.108
73336ION    CL-38497  16.028  12.993  13.131
73337ION    CL-38498  21.205  25.281   3.322
73338ION    CL-38499  44.994   5.693   0.790
73339ION    CL-38500  41.046  23.151  14.834
73340ION    CL-38501  40.915  34.546  13.864
73341ION    CL-38502  13.298  21.407  11.173
73342ION    CL-38503   4.170  38.639  12.603
73343ION    CL-38504  11.978  10.977  14.919
73344ION    CL-38505  42.662  11.009   4.927
73345ION    CL-38506  13.665  19.747   0.449
73346ION    CL-38507  14.689  33.153   0.411
73347ION    CL-38508   2.429  18.341   3.925
73348ION    CL-38509  42.440  15.441   4.578
73349ION    CL-38510  10.359  10.466  12.058
73350ION    CL-38511  27.130  13.641  14.306
73351ION    CL-38512  27.067   1.779  13.598
73352ION    CL-38513  34.528  43.399   3.617
73353ION    CL-38514  44.584  27.392  11.954
73354ION    CL-38515  18.108  16.427   3.484
73355ION    CL-38516  22.310  37.086  12.084
73356ION    CL-38517  20.148  41.014   1.029
73357ION    CL-38518   4.013  23.559   2.155
73358ION    CL-38519   6.938  15.243   0.065
73359ION    CL-38520  15.382  26.044   2.249
73360ION    CL-38521  14.193  39.567   1.652
73361ION    CL-38522   1.897   7.700  10.731
73362ION    CL-38523  18.775   4.520   0.959
73363ION    CL-38524  38.773   9.188  11.598
73364ION    CL-38525  12.446  21.919   3.820
73365ION    CL-38526  36.116  19.628  11.647
73366ION    CL-38527  37.597  37.779   0.394
73367ION    CL-38528  41.378  38.261  14.527
73368ION    CL-38529  32.405  17.355   3.777
73369ION    CL-38530  12.403  37.278  14.319
73370ION    CL-38531  15.028   5.445   3.605
73371ION    CL-38532  44.701  21.085  13.033
73372ION    CL-38533  15.564  12.639   0.939
73373ION    CL-38534  27.443  34.513   2.961
73374ION    CL-38535  33.593  30.289   1.506
73375ION    CL-38536  20.096  43.552   9.797
73376ION    CL-38537  33.169  11.945   2.207
73377ION    CL-38538   6.137  10.259   3.225
73378ION    CL-38539  18.772  12.596   0.447
73379ION    CL-38540   8.919  34.819   4.343
73380ION    CL-38541  38.909  44.500   1.864
73381ION    CL-38542   9.522  36.765  11.878
73382ION    CL-38543   0.618  20.857  12.028
73383ION    CL-38544  44.384  14.017  14.391
73384ION    CL-38545  33.004   6.847  14.411
73385ION    CL-38546  10.142   3.192   2.117
73386ION    CL-38547   0.821  31.402   0.091
73387ION    CL-38548  25.817  43.333   9.929
73388ION    CL-38549   8.688   7.308   2.628
73389ION    CL-38550  33.818  20.273  10.317
73390ION    CL-38551  21.358   1.456  11.716
73391ION    CL-38552  23.130   7.901  13.401
73392ION    CL-38553  14.824  19.109   1.965
73393ION    CL-38554  11.131  38.926  12.953
73394ION    CL-38555   3.582  34.482  12.009
73395ION    CL-38556  23.218  23.761  14.812
73396ION    CL-38557  36.353  35.069   3.979
73397ION    CL-38558  42.867  12.280   1.424
73398ION    CL-38559  38.763   9.380   2.489
73399ION    CL-38560  25.684  42.157  11.737
73400ION    CL-38561  30.115  27.683  12.179
73401ION    CL-38562   2.308  23.030  14.995
73402ION    CL-38563  22.584  28.122   1.477
73403ION    CL-38564  23.152  10.324   1.291
73404ION    CL-38565  32.067  27.211   5.150
73405ION    CL-38566  19.414  18.006  11.937
73406ION    CL-38567  19.056   9.056  13.054
73407ION    CL-38568   2.679  39.417   1.855
73408ION    CL-38569  10.824  26.461   0.184
73409ION    CL-38570  34.788  20.159  13.722
73410ION    CL-38571  24.554  44.155  14.472
73411ION    CL-38572  26.209  35.020  11.600
73412ION    CL-38573  16.428   1.941  10.706
73413ION    CL-38574  27.024  17.804  12.477
73414ION    CL-38575  18.575  43.725   2.142
73415ION    CL-38576   3.556   7.367  14.498
73416ION    CL-38577   0.817   9.726  14.544
73417ION    CL-38578   8.303  10.882   0.305
73418ION    CL-38579   3.237  21.571   4.829
73419ION    CL-38580   9.897  36.678  11.126
73420ION    CL-38581  18.834   8.203   0.435
73421ION    CL-38582   4.841  14.712  10.212
73422ION    CL-38583  29.682  19.256   2.639
73423ION    CL-38584  14.551  26.728   2.747
73424ION    CL-38585  40.543   2.567  12.170
73425ION    CL-38586  35.593  17.176  11.996
73426ION    CL-38587   2.633  40.627   2.160
73427ION    CL-38588  36.415  10.663   0.285
73428ION    CL-38589   5.576  23.151  12.785
73429ION    CL-38590  17.109  33.680   4.167
73430ION    CL-38591  16.259  10.506   2.528
73431ION    CL-38592  42.131   4.611   9.468
73432ION    CL-38593  19.447  23.006   3.436
73433ION    CL-38594   1.779  42.450   0.869
73434ION    CL-38595  19.917  22.170   5.178
73435ION    CL-38596   1.329  35.632  14.517
73436ION    CL-38597   4.314  24.662   3.315
73437ION    CL-38598   6.494  33.610   4.905
73438ION    CL-38599  37.838   2.770   3.327
73439ION    CL-38600  40.210  39.361  13.429
73440ION    CL-38601   6.549  19.992   4.436
73441ION    CL-38602   9.108  36.706   3.763
73442ION    CL-38603  32.956  12.010  10.884
73443ION    CL-38604  12.441  26.450   0.638
73444ION    CL-38605  18.351   2.010   0.303
73445ION    CL-38606  28.245  13.846  13.572
73446ION    CL-38607  29.423   0.105  11.197
73447ION    CL-38608  28.295  27.630   1.683
73448ION    CL-38609  33.115  32.748  12.610
73449ION    CL-38610  42.318   5.676  14.801
73450ION    CL-38611   8.405   4.694   3.618
73451ION    CL-38612  20.957  24.393   0.939
73452ION    CL-38613  23.055  44.170  11.621
73453ION    CL-38614  24.108  13.196   2.784
73454ION    CL-38615  30.231  29.409   1.135
73455ION    CL-38616  29.486  31.633   1.657
73456ION    CL-38617  12.665  41.990   3.764
73457ION    CL-38618  32.450   7.897  13.090
73458ION    CL-38619  21.753  33.486  12.544
73459ION    CL-38620   0.609  29.937  14.832
73460ION    CL-38621  17.130  36.061   1.879
73461ION    CL-38622  26.664  36.579  12.047
73462ION    CL-38623  20.174  32.065  12.728
73463ION    CL-38624  43.638  32.293  11.278
73464ION    CL-38625  10.185  29.542   0.468
73465ION    CL-38626   3.300   0.772  14.507
73466ION    CL-38627  10.275  38.221   2.655
73467ION    CL-38628   3.259  29.461  10.182
73468ION    CL-38629  33.207   3.659  12.989
73469ION    CL-38630  25.120  16.892   3.111
73470ION    CL-38631  33.652  15.302   3.389
73471ION    CL-38632  44.368  41.486  13.562
73472ION    CL-38633  13.320  33.499   4.903
73473ION    CL-38634  34.855  30.139   3.738
73474ION    CL-38635  26.320  31.775   1.888
73475ION    CL-38636   1.379  28.551   5.027
73476ION    CL-38637   9.290  22.932  10.670
73477ION    CL-38638   7.365  41.469   5.053
73478ION    CL-38639   3.671  25.017   0.450
73479ION    CL-38640   2.651  35.596   9.718
73480ION    CL-38641  40.085  16.311   1.223
73481ION    CL-38642  19.097  38.519   0.121
73482ION    CL-38643  35.381  22.723   4.843
73483ION    CL-38644   7.403  37.953  13.901
73484ION    CL-38645  19.231  15.808   3.193
73485ION    CL-38646  40.956  27.133  13.268
73486ION    CL-38647  37.148  34.455  13.055
73487ION    CL-38648   2.481   6.125  11.142
73488ION    CL-38649  24.336  33.472   1.188
73489ION    CL-38650  41.334  12.280   3.167
73490ION    CL-38651   2.557  29.920  14.974
73491ION    CL-38652  18.940  41.054   4.126
73492ION    CL-38653  42.284  42.179  12.762
73493ION    CL-38654  14.532  15.304  11.157
73494ION    CL-38655   6.131  36.884  10.521
73495ION    CL-38656  11.538  21.087   3.662
73496ION    CL-38657  36.294  29.428   0.271
73497ION    CL-38658  20.448   1.928   0.898
73498ION    CL-38659  12.604  11.169  11.425
73499ION    CL-38660   5.620  10.081  13.876
73500ION    CL-38661  24.124  38.236   0.042
73501ION    CL-38662   2.928  17.765  13.044
73502ION    CL-38663  37.175  22.847   1.980
73503ION    CL-38664  26.250  28.612   3.178
73504ION    CL-38665   8.403   9.706  11.185
73505ION    CL-38666  29.558  18.023  11.991
73506ION    CL-38667   0.421  42.862  14.069
73507ION    CL-38668   2.512  39.199  12.012
73508ION    CL-38669  36.489   1.731   2.370
73509ION    CL-38670  11.650  27.433   1.079
73510ION    CL-38671  14.768  38.843  11.233
73511ION    CL-38672   7.451  33.864  11.315
73512ION    CL-38673  43.354  41.636  12.660
73513ION    CL-38674  11.547  23.251   4.821
73514ION    CL-38675  28.914  26.480  13.368
73515ION    CL-38676  24.033   5.697  10.275
73516ION    CL-38677  19.754  11.116  11.652
73517ION    CL-38678  28.338   5.655  10.479
73518ION    CL-38679   2.656  12.729  11.785
73519ION    CL-38680  26.610  13.388   5.017
73520ION    CL-38681  16.724  31.111  11.245
73521ION    CL-38682   0.672  10.548  12.407
73522ION    CL-38683  21.993   1.994   0.901
73523ION    CL-38684  38.073  28.797   0.184
73524ION    CL-38685  38.091   0.349  11.874
73525ION    CL-38686  33.345  20.807  12.751
73526ION    CL-38687  24.304  40.607   2.729
73527ION    CL-38688   3.046  41.919   4.819
73528ION    CL-38689  11.322  36.644  13.359
73529ION    CL-38690  17.756  13.935   4.100
73530ION    CL-38691   3.268  30.854   2.667
73531ION    CL-38692   6.178  43.929  12.615
73532ION    CL-38693  32.862  15.572  14.402
73533ION    CL-38694  20.368   8.874  13.150
73534ION    CL-38695  16.032   7.644   1.934
73535ION    CL-38696  12.603  26.390   2.816
73536ION    CL-38697   2.049  23.896   3.326
73537ION    CL-38698  40.592  36.330   9.892
73538ION    CL-38699  16.360  28.601  13.807
73539ION    CL-38700  38.580  39.837   3.318
73540ION    CL-38701  32.150  38.798   2.079
73541ION    CL-38702  11.789  15.661  13.325
73542ION    CL-38703   8.716   8.331   3.281
73543ION    CL-38704  38.565  32.165   5.008
73544ION    CL-38705   2.021  35.641  13.795
73545ION    CL-38706  14.354  28.008   1.548
73546ION    CL-38707   3.741  44.691  11.813
73547ION    CL-38708  12.242  32.136   9.784
73548ION    CL-38709  18.630  28.776  11.555
73549ION    CL-38710  13.694  24.253   4.980
73550ION    CL-38711  14.687   3.031   3.208
73551ION    CL-38712  34.410  18.952   2.948
73552ION    CL-38713  11.013  18.615   2.596
73553ION    CL-38714  33.327  36.113   1.848
73554ION    CL-38715  27.031  27.493   3.506
73555ION    CL-38716  15.524  10.666   1.869
73556ION    CL-38717  28.374   0.285  11.567
73557ION    CL-38718  44.164  31.596   3.880
73558ION    CL-38719  30.623  22.438   5.415
73559ION    CL-38720  12.209  44.611  12.389
73560ION    CL-38721  13.548  18.843   4.732
73561ION    CL-38722   2.623  19.648   0.572
73562ION    CL-38723  18.570  38.036   3.418
73563ION    CL-38724  18.490   1.146  12.413
73564ION    CL-38725  13.038  10.567  13.151
73565ION    CL-38726   5.807  29.198   1.746
73566ION    CL-38727  33.529   3.514  14.859
73567ION    CL-38728  13.831  37.681   2.469
73568ION    CL-38729  37.828  44.177  11.021
73569ION    CL-38730  35.933   6.926   1.026
73570ION    CL-38731  20.946  21.024   4.289
73571ION    CL-38732  42.977  39.180   0.987
73572ION    CL-38733  25.751  20.959   3.892
73573ION    CL-38734  18.547   7.044   3.331
73574ION    CL-38735  24.855  20.066   4.051
73575ION    CL-38736   4.745   3.243  11.645
73576ION    CL-38737  19.432  18.473  10.132
73577ION    CL-38738  30.147  39.927   2.896
73578ION    CL-38739  27.603  39.507  13.792
73579ION    CL-38740  25.540  17.410   2.480
73580ION    CL-38741  33.451  19.331  12.050
73581ION    CL-38742  22.672  36.687   5.190
73582ION    CL-38743  13.352  27.638  12.536
73583ION    CL-38744  43.399  10.877   4.145
73584ION    CL-38745  11.653   6.600   0.497
73585ION    CL-38746  23.510  24.982  14.474
73586ION    CL-38747  43.313  35.988  12.663
73587ION    CL-38748  16.325  13.946  13.200
73588ION    CL-38749   4.507   1.765  14.270
73589ION    CL-38750  12.337  25.280  10.707
73590ION    CL-38751  41.531  13.231  12.592
73591ION    CL-38752  14.663  38.996   1.121
73592ION    CL-38753  31.075   7.720   3.934
73593ION    CL-38754  18.045  20.088   2.616
73594ION    CL-38755  29.994  15.181   2.785
73595ION    CL-38756   5.491  39.040  14.405
73596ION    CL-38757   1.135  35.042  13.733
73597ION    CL-38758  31.554  36.600  14.912
73598ION    CL-38759  27.074  27.291  12.614
73599ION    CL-38760  30.746  32.216   0.083
73600ION    CL-38761  43.005  14.346  14.310
73601ION    CL-38762   9.169  29.039   3.266
73602ION    CL-38763  12.833  27.343   0.265
73603ION    CL-38764  23.589  39.848   2.019
73604ION    CL-38765  32.528  35.803   2.181
73605ION    CL-38766  23.688  27.471  12.628
73606ION    CL-38767  35.622  22.575  13.420
73607ION    CL-38768  33.343  12.413   1.340
73608ION    CL-38769   3.521   5.349   4.643
73609ION    CL-38770  44.405  18.696   4.137
73610ION    CL-38771  26.969  32.739  12.344
73611ION    CL-38772  32.270  26.694  12.541
73612ION    CL-38773  22.336   0.281  14.400
73613ION    CL-38774  27.357   0.979   2.728
73614ION    CL-38775  35.468   0.113  14.410
73615ION    CL-38776   4.279   4.832  11.940
73616ION    CL-38777  28.649  34.952  11.088
73617ION    CL-38778  41.510  26.173   2.366
73618ION    CL-38779  21.787  37.939  12.084
73619ION    CL-38780   9.296   4.392   1.907
73620ION    CL-38781   8.876  31.190  13.337
73621ION    CL-38782   3.960  10.628   3.647
73622ION    CL-38783  40.348  38.505  14.916
73623ION    CL-38784  32.476  12.999   1.454
73624ION    CL-38785  19.846  43.075   2.207
73625ION    CL-38786   9.440   6.876   0.939
73626ION    CL-38787  37.629  34.794   3.444
73627ION    CL-38788  25.503  43.495  14.076
73628ION    CL-38789  31.960   6.133  12.326
73629ION    CL-38790  15.275  40.660  13.611
73630ION    CL-38791  10.111  27.538   3.746
73631ION    CL-38792  30.313  29.451  11.422
73632ION    CL-38793   8.410  15.283   2.946
73633ION    CL-38794   0.609  23.669  13.078
73634ION    CL-38795  34.884  38.209   0.051
73635ION    CL-38796  31.151  32.275   0.873
73636ION    CL-38797  23.687  37.599   4.909
73637ION    CL-38798   4.842   7.183   0.532
73638ION    CL-38799  18.893  10.398   3.127
73639ION    CL-38800  14.339  19.934   1.676
73640ION    CL-38801  34.472   0.816   2.756
73641ION    CL-38802  15.079  38.302   0.696
73642ION    CL-38803  35.555  13.257   1.749
73643ION    CL-38804  15.686   6.608  14.672
73644ION    CL-38805  19.839  40.498   3.125
73645ION    CL-38806   3.937  41.364   0.127
73646ION    CL-38807  19.197  42.021   4.303
73647ION    CL-38808  29.816   1.543   1.030
73648ION    CL-38809  12.195  34.235  13.689
73649ION    CL-38810  27.228  31.847  13.289
73650ION    CL-38811  12.362  33.361  13.724
73651ION    CL-38812  23.647  10.837   4.621
73652ION    CL-38813  44.379  10.885  14.622
73653ION    CL-38814  18.651  38.705  11.736
73654ION    CL-38815  44.714  21.284  12.053
73655ION    CL-38816  11.329  24.197  12.958
73656ION    CL-38817  12.026  20.045  12.168
73657ION    CL-38818  27.600   5.712  11.990
73658ION    CL-38819  38.365  31.101   4.034
73659ION    CL-38820  25.298  30.188   3.445
73660ION    CL-38821  27.714  14.467   3.199
73661ION    CL-38822  38.584  33.216   3.297
73662ION    CL-38823  19.054  11.825  11.573
73663ION    CL-38824  36.836  24.129   1.955
73664ION    CL-38825  39.583  16.143  13.580
73665ION    CL-38826   2.799  23.231   4.775
73666ION    CL-38827  20.882  27.683   0.764
73667ION    CL-38828  11.061  16.228   0.895
73668ION    CL-38829  44.665  44.050   0.953
73669ION    CL-38830  36.137  44.601   2.691
73670ION    CL-38831  17.447  11.742   3.637
73671ION    CL-38832  18.743  19.295   9.795
73672ION    CL-38833  42.387   9.218   1.954
73673ION    CL-38834   1.295  27.282  14.781
73674ION    CL-38835  28.716  26.071  11.096
73675ION    CL-38836  39.947  11.598   0.431
73676ION    CL-38837  20.959  20.864  11.912
73677ION    CL-38838  20.979  41.919   0.217
73678ION    CL-38839   3.488  11.988  11.823
73679ION    CL-38840   1.421   7.143   1.378
73680ION    CL-38841   5.983  14.626   0.744
73681ION    CL-38842  33.505  36.956   5.024
73682ION    CL-38843  26.648  13.866   1.479
73683ION    CL-38844  40.537   9.317   2.156
73684ION    CL-38845  18.917  17.798   3.808
73685ION    CL-38846  28.919  15.311  12.569
73686ION    CL-38847  44.376  29.477   2.347
73687ION    CL-38848  10.716   5.817  14.802
73688ION    CL-38849  33.120  13.775  14.773
73689ION    CL-38850   7.693   6.587   2.332
73690ION    CL-38851  19.281  35.393   2.731
73691ION    CL-38852  18.263  10.143   1.217
73692ION    CL-38853  24.863   0.791  13.736
73693ION    CL-38854  34.102   3.892  13.370
73694ION    CL-38855  22.761   3.766  13.036
73695ION    CL-38856  41.083   1.502   1.409
73696ION    CL-38857  22.463  28.917   3.966
73697ION    CL-38858  16.446  10.161   1.528
73698ION    CL-38859  28.589  36.466   0.700
73699ION    CL-38860  15.217  15.839  14.506
73700ION    CL-38861  31.187  20.921  12.624
73701ION    CL-38862  11.825  38.517   0.421
73702ION    CL-38863  36.392  12.837  12.025
73703ION    CL-38864   5.298   4.289   3.639
73704ION    CL-38865  16.623   4.696   0.549
73705ION    CL-38866  23.879  42.280  12.090
73706ION    CL-38867  20.172  27.800   1.284
73707ION    CL-38868   4.358  21.616  13.397
73708ION    CL-38869  34.912  31.279   9.893
73709ION    CL-38870  33.104  20.533  11.156
73710ION    CL-38871  35.646  24.702  14.705
73711ION    CL-38872  12.315  11.220  12.383
73712ION    CL-38873   7.543   5.508  11.229
73713ION    CL-38874  37.025  43.941  12.550
73714ION    CL-38875   4.549  13.415   0.628
73715ION    CL-38876  16.136   0.821   0.417
73716ION    CL-38877  25.504   0.152  14.911
73717ION    CL-38878  12.848  22.974  12.958
73718ION    CL-38879  11.797  22.400  11.721
73719ION    CL-38880  10.739  40.000   4.677
73720ION    CL-38881  33.924  40.487   0.434
73721ION    CL-38882  38.342  15.238   3.776
73722ION    CL-38883   5.239  16.563   2.908
73723ION    CL-38884   4.483  10.714  12.960
73724ION    CL-38885  24.056  44.666   4.624
73725ION    CL-38886  40.310  15.535  11.169
73726ION    CL-38887   7.993  13.350  14.349
73727ION    CL-38888  39.595  26.287  11.310
73728ION    CL-38889  28.094  44.291   4.350
73729ION    CL-38890  11.526  16.897  14.755
73730ION    CL-38891  37.051  37.122  14.029
73731ION    CL-38892  25.559   5.222  13.126
73732ION    CL-38893  25.928   0.063   2.282
73733ION    CL-38894  18.905  15.973  12.911
73734ION    CL-38895  14.726  39.546  13.921
73735ION    CL-38896  42.799  10.484   2.823
73736ION    CL-38897  30.036  39.631   4.981
73737ION    CL-38898   6.312   1.354   2.160
73738ION    CL-38899  14.218   3.786  10.839
73739ION    CL-38900  21.560  34.788   4.116
73740ION    CL-38901  11.794  28.700  13.615
73741ION    CL-38902  11.664  39.393   0.876
73742ION    CL-38903   3.361   9.264   0.834
73743ION    CL-38904   4.208  23.400  11.454
73744ION    CL-38905  32.395  20.591   4.655
73745ION    CL-38906  22.274   5.760  12.495
73746ION    CL-38907  18.423  11.575  10.795
73747ION    CL-38908  14.489  32.820  10.862
73748ION    CL-38909  40.749  20.554   1.948
73749ION    CL-38910  25.839  27.675   0.652
73750ION    CL-38911  33.943  38.264   3.376
73751ION    CL-38912  11.653  15.856  14.366
73752ION    CL-38913   9.235  24.093  14.880
73753ION    CL-38914  32.555  24.703   4.949
73754ION    CL-38915   9.074  42.893  12.852
73755ION    CL-38916  19.852  44.106   0.730
73756ION    CL-38917  17.769  39.078  11.196
73757ION    CL-38918  36.537   9.571  13.578
73758ION    CL-38919  42.302  12.887   2.418
73759ION    CL-38920  15.302  32.748   1.089
73760ION    CL-38921   0.445  39.027   0.891
73761ION    CL-38922  24.082  17.861   2.441
73762ION    CL-38923  41.462  33.671  14.672
73763ION    CL-38924  21.601  35.812   1.773
73764ION    CL-38925   5.430  22.215  12.465
73765ION    CL-38926  40.246  17.149  12.904
73766ION    CL-38927   0.447  21.308   1.651
73767ION    CL-38928  19.520   0.835  13.081
73768ION    CL-38929  44.496  39.366   0.593
73769ION    CL-38930  11.368  18.515  13.346
73770ION    CL-38931  27.207  34.915   0.937
73771ION    CL-38932   6.325  14.628   3.486
73772ION    CL-38933  11.862   7.732  14.570
73773ION    CL-38934  24.806  36.959  13.398
73774ION    CL-38935  38.005  10.696  10.399
73775ION    CL-38936  11.317  24.192   5.069
73776ION    CL-38937  44.650  37.185   3.577
73777ION    CL-38938  24.690  26.733   0.789
73778ION    CL-38939  26.815  42.315   3.962
73779ION    CL-38940  40.559  33.641   3.036
73780ION    CL-38941  18.104  37.428   0.431
73781ION    CL-38942  26.790  24.229   2.106
73782ION    CL-38943  16.883  40.973  14.076
73783ION    CL-38944  17.538   5.109  14.687
73784ION    CL-38945  34.858  13.238   3.073
73785ION    CL-38946  19.255  32.762   4.986
73786ION    CL-38947   3.167  24.988  11.121
73787ION    CL-38948  22.611  16.076  12.082
73788ION    CL-38949  20.068  17.055   0.287
73789ION    CL-38950  37.363  13.192  11.957
73790ION    CL-38951   8.165   0.485  14.666
73791ION    CL-38952   9.809  41.925  13.573
73792ION    CL-38953  17.503  10.855   2.185
73793ION    CL-38954  34.284  38.646   2.197
73794ION    CL-38955  34.643   3.859   4.183
73795ION    CL-38956  42.475   1.678  11.578
73796ION    CL-38957   1.649  39.182  11.083
73797ION    CL-38958   6.915  42.547   2.675
73798ION    CL-38959   6.845  28.749   0.120
73799ION    CL-38960   3.616  44.295  10.903
73800ION    CL-38961  13.208  20.482   0.603
73801ION    CL-38962  26.516   5.876   1.937
73802ION    CL-38963  17.723   1.923   1.440
73803ION    CL-38964   0.335  40.570  13.558
73804ION    CL-38965   8.420  17.681   1.464
73805ION    CL-38966   5.201   2.837   4.781
73806ION    CL-38967  19.271  42.869   3.602
73807ION    CL-38968  35.484   3.221   4.224
73808ION    CL-38969  43.086   7.614   3.341
73809ION    CL-38970   1.863  24.149  11.704
73810ION    CL-38971   6.843  10.832  10.497
73811ION    CL-38972  33.944  23.775  11.560
73812ION    CL-38973  15.919   2.728  14.279
73813ION    CL-38974   0.245  22.847  14.697
73814ION    CL-38975  14.188  21.753  13.385
73815ION    CL-38976  36.647  13.192   4.100
73816ION    CL-38977  41.042  23.142  13.910
73817ION    CL-38978  20.017  42.054   5.451
73818ION    CL-38979  31.116  20.744   4.145
73819ION    CL-38980  37.295  26.035  11.092
73820ION    CL-38981  20.324  18.624  12.547
73821ION    CL-38982  28.476  28.456  12.035
73822ION    CL-38983  20.910  35.982  12.879
73823ION    CL-38984  13.294   3.932   3.618
73824ION    CL-38985  36.858   9.898  14.018
73825ION    CL-38986   4.325  43.203  12.283
73826ION    CL-38987  16.605   5.471   2.333
73827ION    CL-38988  20.597  24.946   2.397
73828ION    CL-38989  36.258   5.175  10.790
73829ION    CL-38990  41.968  43.643   1.623
73830ION    CL-38991   4.937  30.848  12.710
73831ION    CL-38992   9.866  41.020   2.010
73832ION    CL-38993  31.690  30.633  12.804
73833ION    CL-38994  22.351   2.304   4.177
73834ION    CL-38995   2.520  37.287   0.764
73835ION    CL-38996  42.888   0.783  11.946
73836ION    CL-38997  34.606   8.018   4.968
73837ION    CL-38998   2.275  17.120  13.496
73838ION    CL-38999  32.260   7.467   1.651
73839ION    CL-39000  31.692  40.151   0.199
73840ION    CL-39001  29.759  38.831   3.241
73841ION    CL-39002   4.651  34.128  11.048
73842ION    CL-39003  37.725  27.857  14.954
73843ION    CL-39004  23.979   2.527  14.867
73844ION    CL-39005  12.251  38.377  11.060
73845ION    CL-39006  28.507  27.256   4.211
73846ION    CL-39007  31.041   5.526   0.818
73847ION    CL-39008  43.442  40.800   2.682
73848ION    CL-39009  28.099  17.000   0.653
73849ION    CL-39010  19.794  28.169   3.800
73850ION    CL-39011   4.799  10.847   0.370
73851ION    CL-39012  42.731  33.332   3.559
73852ION    CL-39013  11.706  38.561   1.428
73853ION    CL-39014  13.226  20.563   3.805
73854ION    CL-39015  21.247   5.828   4.029
73855ION    CL-39016  17.271  13.707  10.763
73856ION    CL-39017  17.965   1.847  11.880
73857ION    CL-39018   7.531   0.662   0.482
73858ION    CL-39019   2.290   6.057   4.997
73859ION    CL-39020  38.563  28.004  11.579
73860ION    CL-39021   2.766   8.813  12.558
73861ION    CL-39022   7.210  28.349  14.280
73862ION    CL-39023  12.054   8.350   1.790
73863ION    CL-39024  22.015   8.665   1.460
73864ION    CL-39025  35.640   4.877   3.353
73865ION    CL-39026   1.711  27.427  14.013
73866ION    CL-39027  11.002   7.171  14.672
73867ION    CL-39028  21.000   0.010   1.808
73868ION    CL-39029   7.769  38.135   0.366
73869ION    CL-39030  24.668  25.859   0.304
73870ION    CL-39031   4.007   7.484   3.326
73871ION    CL-39032   8.787  41.353   1.247
73872ION    CL-39033  41.145  35.876   1.901
73873ION    CL-39034  16.886   4.737  13.038
73874ION    CL-39035  23.205  42.833  11.885
73875ION    CL-39036  14.556  41.480   2.408
73876ION    CL-39037   6.355  27.580   3.357
73877ION    CL-39038  40.524   1.699  12.751
73878ION    CL-39039   7.824  33.845   3.590
73879ION    CL-39040  33.728  16.998   4.122
73880ION    CL-39041   4.689  24.130  11.962
73881ION    CL-39042  43.846   0.538  10.696
73882ION    CL-39043  31.066  35.815   0.847
73883ION    CL-39044   9.220  41.120  13.632
73884ION    CL-39045  28.966  14.325   0.516
73885ION    CL-39046   2.430  31.005   0.744
73886ION    CL-39047  19.209  44.497   2.199
73887ION    CL-39048  21.592   2.117   2.304
73888ION    CL-39049  28.809  43.801  11.903
73889ION    CL-39050  25.758  42.899   3.326
73890ION    CL-39051   6.647  34.830   2.779
73891ION    CL-39052  22.288  36.267  13.063
73892ION    CL-39053  30.143  35.526   2.361
73893ION    CL-39054  28.157  15.803  14.567
73894ION    CL-39055   9.276  29.609  12.529
73895ION    CL-39056  19.298  11.786   3.479
73896ION    CL-39057  26.733   0.713  12.413
73897ION    CL-39058  11.267  43.289   0.715
73898ION    CL-39059  10.784  37.051  10.854
73899ION    CL-39060  18.543  37.118   2.890
73900ION    CL-39061   2.692  23.751   3.920
73901ION    CL-39062  18.258  34.154  13.083
73902ION    CL-39063  38.239  31.016  14.313
73903ION    CL-39064   5.268  16.126   2.009
73904ION    CL-39065  35.889  14.724   3.129
73905ION    CL-39066  29.308   9.023   1.734
73906ION    CL-39067  19.024  32.460  10.954
73907ION    CL-39068   7.890   7.691  11.553
73908ION    CL-39069  23.759   4.279   1.743
73909ION    CL-39070  38.426  30.451   1.413
73910ION    CL-39071  23.220  26.035   3.290
73911ION    CL-39072  21.198  22.415   2.680
73912ION    CL-39073  34.034  20.198  12.358
73913ION    CL-39074  43.350  23.730   4.180
73914ION    CL-39075  25.591  37.018   3.649
73915ION    CL-39076  34.117  32.405  11.492
73916ION    CL-39077  20.993  42.949   4.188
73917ION    CL-39078   8.825  14.825  13.461
73918ION    CL-39079   2.023  19.527  13.512
73919ION    CL-39080  34.242  19.196  14.189
73920ION    CL-39081  25.883   8.145   4.349
73921ION    CL-39082  38.114   1.749  11.604
73922ION    CL-39083  16.016  23.852   1.349
73923ION    CL-39084  27.972  32.156  10.861
73924ION    CL-39085  34.717   9.591   4.755
73925ION    CL-39086  34.043  11.581  11.637
73926ION    CL-39087  17.100  40.602   1.614
73927ION    CL-39088  29.628   5.317   0.466
73928ION    CL-39089   7.458  17.813   2.841
73929ION    CL-39090  28.454  18.526  11.611
73930ION    CL-39091   2.214  38.272   3.120
73931ION    CL-39092   2.575  19.397   4.244
73932ION    CL-39093  37.221   5.915   3.131
73933ION    CL-39094   9.143  24.064  12.971
73934ION    CL-39095  36.498  13.255  13.291
73935ION    CL-39096  10.885  41.557   4.250
73936ION    CL-39097  35.094  20.721  12.953
73937ION    CL-39098  29.702  29.283   2.771
73938ION    CL-39099  39.877  17.800   1.190
73939ION    CL-39100  14.216  37.916   0.371
73940ION    CL-39101   7.429  35.970   1.872
73941ION    CL-39102  26.399  20.749  14.104
73942ION    CL-39103  12.360  44.556  13.580
73943ION    CL-39104  44.024  12.319  14.848
73944ION    CL-39105  29.922  17.678   4.925
73945ION    CL-39106  39.220  21.054  14.139
73946ION    CL-39107  42.748   1.852   3.594
73947ION    CL-39108  19.282  24.685  12.399
73948ION    CL-39109  12.675  25.217  13.929
73949ION    CL-39110  10.796  32.480  11.859
73950ION    CL-39111   3.390  28.412   0.233
73951ION    CL-39112  23.603  19.313  10.517
73952ION    CL-39113  23.026   2.070  12.152
73953ION    CL-39114  22.185  15.032  13.782
73954ION    CL-39115  38.400  17.316  12.539
73955ION    CL-39116  27.651  11.454   1.879
73956ION    CL-39117  44.330  38.380   0.560
73957ION    CL-39118  32.172  43.632   4.430
73958ION    CL-39119  37.222  29.594   5.227
73959ION    CL-39120  22.228  20.307  13.379
73960ION    CL-39121   7.660   4.716   2.639
73961ION    CL-39122   6.361   0.390   2.420
73962ION    CL-39123  23.838  11.600  14.318
73963ION    CL-39124  27.725  27.650  14.861
73964ION    CL-39125   6.887  13.045   3.225
73965ION    CL-39126  22.400  17.843   1.366
73966ION    CL-39127  38.147  37.775  11.530
73967ION    CL-39128   2.200  22.256  11.896
73968ION    CL-39129  42.547  36.185  13.088
73969ION    CL-39130   7.627   4.746  13.032
73970ION    CL-39131  30.304  34.089   0.432
73971ION    CL-39132  19.629  26.112   3.839
73972ION    CL-39133  21.716   5.547   0.315
73973ION    CL-39134   3.666  31.128   1.716
73974ION    CL-39135   3.403   3.291   1.138
73975ION    CL-39136   4.571  22.379   4.888
73976ION    CL-39137  39.944  32.492  12.886
73977ION    CL-39138   8.449  17.128   5.069
73978ION    CL-39139  27.626  13.591   1.519
73979ION    CL-39140   7.496  40.252   0.077
73980ION    CL-39141   5.519   2.734  11.096
73981ION    CL-39142   5.967  32.024  10.488
73982ION    CL-39143  22.515  22.107   3.206
73983ION    CL-39144   7.909  26.636   0.846
73984ION    CL-39145  18.254   2.441  11.314
73985ION    CL-39146  30.651   8.957   4.547
73986ION    CL-39147  27.513  29.594  14.971
73987ION    CL-39148  38.947   0.977  14.716
73988ION    CL-39149   3.926  23.025  12.659
73989ION    CL-39150  42.422  42.771  14.009
73990ION    CL-39151  35.646  18.961   2.315
73991ION    CL-39152  23.564  17.658  13.722
73992ION    CL-39153  31.981   0.185  14.906
73993ION    CL-39154  16.752  43.696   0.198
73994ION    CL-39155  32.652  16.458  11.664
73995ION    CL-39156  21.590  44.250   4.163
73996ION    CL-39157  20.747  15.396   3.150
73997ION    CL-39158  44.267  28.262   0.884
73998ION    CL-39159  34.650  34.753   1.364
73999ION    CL-39160  16.740  44.428   0.880
74000ION    CL-39161  13.570  28.845   2.127
74001ION    CL-39162  34.531  31.231  13.680
74002ION    CL-39163  39.370  19.228  10.425
74003ION    CL-39164  13.760  19.529   5.206
74004ION    CL-39165  22.165   6.703   2.048
74005ION    CL-39166  21.078  36.955  13.038
74006ION    CL-39167  42.673   5.277   4.578
74007ION    CL-39168  17.196  40.293  10.718
74008ION    CL-39169  24.050   7.362   1.575
74009ION    CL-39170  37.119  14.420   1.370
74010ION    CL-39171  17.942  33.954  11.615
74011ION    CL-39172  16.703   1.180   2.673
74012ION    CL-39173  22.634  39.129   3.008
74013ION    CL-39174  37.523  21.258  14.441
74014ION    CL-39175   9.422  37.201   1.908
74015ION    CL-39176  14.154  15.915   4.596
74016ION    CL-39177  33.570  38.984  13.090
74017ION    CL-39178  18.033  28.122  12.022
74018ION    CL-39179  18.097   4.135   4.047
74019ION    CL-39180  40.220  19.285  14.454
74020ION    CL-39181  10.135  31.559   1.964
74021ION    CL-39182  37.475  41.227   9.953
74022ION    CL-39183  16.451   3.982   4.405
74023ION    CL-39184  28.511  39.946   5.382
74024ION    CL-39185  25.646  21.634   4.622
74025ION    CL-39186  10.628  12.662   2.285
74026ION    CL-39187  16.604  33.678  11.411
74027ION    CL-39188  37.933   8.510   3.330
74028ION    CL-39189  35.639  19.622  13.389
74029ION    CL-39190  22.929  23.866  11.283
74030ION    CL-39191   6.723  21.184  13.578
74031ION    CL-39192  38.085   3.360  12.413
74032ION    CL-39193  43.522  34.285   1.809
74033ION    CL-39194  36.772   3.721  12.836
74034ION    CL-39195  11.397   2.567   2.096
74035ION    CL-39196  25.494  26.415   0.208
74036ION    CL-39197  31.463  25.801  14.781
74037ION    CL-39198   0.592  19.637  13.867
74038ION    CL-39199   3.820  30.888   0.739
74039ION    CL-39200  34.983  38.232  12.035
74040ION    CL-39201  42.331  38.857   0.295
74041ION    CL-39202  20.263  24.465   4.558
74042ION    CL-39203  15.414  33.480  11.947
74043ION    CL-39204   8.327   2.239  10.708
74044ION    CL-39205  14.311  31.954  14.155
74045ION    CL-39206  44.164  29.580   0.707
74046ION    CL-39207  38.981   2.040   1.783
74047ION    CL-39208   3.102  20.754   2.248
74048ION    CL-39209  31.729  35.435   2.427
74049ION    CL-39210  41.327   9.307   1.434
74050ION    CL-39211  34.586  36.657  14.527
74051ION    CL-39212  25.815   9.205  10.699
74052ION    CL-39213  23.529  30.896  11.648
74053ION    CL-39214  32.648  34.592  14.978
74054ION    CL-39215  18.195  17.746   0.204
74055ION    CL-39216   5.266  19.517  14.255
74056ION    CL-39217   7.394  22.738  12.327
74057ION    CL-39218  23.243  31.869  12.130
74058ION    CL-39219  31.987  17.633   1.195
74059ION    CL-39220  19.002  40.209  13.097
74060ION    CL-39221  35.430   8.140   2.240
74061ION    CL-39222  38.318  36.550   2.173
74062ION    CL-39223  10.074  39.026  10.437
74063ION    CL-39224  40.937  38.975   0.575
74064ION    CL-39225  20.164  21.688   0.806
74065ION    CL-39226  34.305  32.544   5.165
74066ION    CL-39227  19.063  34.990  10.702
74067ION    CL-39228  23.246  17.863   0.833
74068ION    CL-39229  36.632  31.826  10.731
74069ION    CL-39230  34.376  18.672   0.772
74070ION    CL-39231   7.655  17.834   0.838
74071ION    CL-39232  15.026  26.955   1.846
74072ION    CL-39233  15.438   1.814  10.784
74073ION    CL-39234  23.112  42.060  13.816
74074ION    CL-39235  37.955  34.068   5.115
74075ION    CL-39236  22.120  22.132  12.315
74076ION    CL-39237  39.373  31.960  11.459
74077ION    CL-39238   0.518   2.509  11.100
74078ION    CL-39239  24.763  41.772  11.901
74079ION    CL-39240  16.969  35.965  12.216
74080ION    CL-39241  40.201  14.084   3.280
74081ION    CL-39242  30.704   1.476   0.574
74082ION    CL-39243  25.501  22.969  12.088
74083ION    CL-39244  40.822  20.214  12.480
74084ION    CL-39245  25.920  26.084   4.163
74085ION    CL-39246  16.139  15.921   4.690
74086ION    CL-39247  29.915  28.376   3.135
74087ION    CL-39248  44.553  16.303   2.851
74088ION    CL-39249   0.581  40.249   5.333
74089ION    CL-39250   9.753  30.675   3.645
74090ION    CL-39251   0.604   3.891   4.080
74091ION    CL-39252  31.439  28.007   0.364
74092ION    CL-39253  23.898  15.807   3.676
74093ION    CL-39254  35.681   0.405  12.821
74094ION    CL-39255  25.744  33.323  13.247
74095ION    CL-39256  32.053  38.745   4.165
74096ION    CL-39257  20.188   7.480   1.488
74097ION    CL-39258  24.093   7.701  12.499
74098ION    CL-39259  16.057  37.054   3.690
74099ION    CL-39260  27.215  34.489  11.040
74100ION    CL-39261  30.469  42.987  11.236
74101ION    CL-39262   4.558  31.327   1.311
74102ION    CL-39263  10.131  21.721   4.241
74103ION    CL-39264  41.578   5.623   1.994
74104ION    CL-39265   0.646   8.923  14.929
74105ION    CL-39266  26.085  13.312  12.457
74106ION    CL-39267  32.546  13.882   0.593
74107ION    CL-39268  34.388  19.407  11.443
74108ION    CL-39269  43.526  30.908  13.625
74109ION    CL-39270  44.468   8.646   9.775
74110ION    CL-39271   2.855  32.028  10.467
74111ION    CL-39272  33.105  15.893   0.196
74112ION    CL-39273  40.759   0.203  14.052
74113ION    CL-39274  17.641  18.849  14.849
74114ION    CL-39275  40.258  33.841  13.112
74115ION    CL-39276  10.251  14.982  11.562
74116ION    CL-39277  25.803  39.028   2.051
74117ION    CL-39278  20.628   8.780   2.793
74118ION    CL-39279  36.177  25.350   1.919
74119ION    CL-39280  17.374  21.451   4.540
74120ION    CL-39281  10.114  40.259  14.943
74121ION    CL-39282  41.540  16.814  13.996
74122ION    CL-39283   5.686   2.870  12.947
74123ION    CL-39284  29.039  20.916   5.112
74124ION    CL-39285  35.147   1.012  11.972
74125ION    CL-39286  19.183  23.262   0.898
74126ION    CL-39287  27.209   9.201  11.530
74127ION    CL-39288  25.741  33.162   5.047
74128ION    CL-39289  10.475   4.954  12.175
74129ION    CL-39290   5.049  39.870  13.369
74130ION    CL-39291  17.203  31.011  10.373
74131ION    CL-39292  14.765  28.643   2.311
74132ION    CL-39293   3.161  30.003  12.139
74133ION    CL-39294   6.860  30.257   5.464
74134ION    CL-39295  21.150  12.901   0.428
74135ION    CL-39296  32.870  15.956  12.501
74136ION    CL-39297  10.061  32.240  12.309
74137ION    CL-39298  30.644  36.556   0.324
74138ION    CL-39299  17.321   8.263  12.592
74139ION    CL-39300  31.394  39.970   3.810
74140ION    CL-39301  19.091  38.288   0.970
74141ION    CL-39302  14.496  12.888   2.201
74142ION    CL-39303  42.933   7.030  14.811
74143ION    CL-39304  24.150  33.728  11.143
74144ION    CL-39305   2.200  25.028  14.969
74145ION    CL-39306   9.211  19.473  11.852
74146ION    CL-39307  18.006  11.761   2.251
74147ION    CL-39308   9.951  40.136   2.165
74148ION    CL-39309  12.121  18.759  13.956
74149ION    CL-39310  34.556  24.612  14.374
74150ION    CL-39311   9.733  18.398   2.111
74151ION    CL-39312  19.089  29.204   1.908
74152ION    CL-39313   5.367  36.545  13.782
74153ION    CL-39314   2.182  29.881   0.900
74154ION    CL-39315   0.464  40.526  14.635
74155ION    CL-39316   6.379   8.625   2.364
74156ION    CL-39317   0.916  25.742   4.610
74157ION    CL-39318  13.294  24.264  11.672
74158ION    CL-39319  35.360  37.724   0.643
74159ION    CL-39320  18.288  10.638   3.887
74160ION    CL-39321  26.223  12.561  11.671
74161ION    CL-39322  34.091   4.844  13.676
74162ION    CL-39323  38.108   8.724  12.529
74163ION    CL-39324   7.886   5.393   3.339
  45.00000  45.00000  15.00000
